FOO
138240
    1MOL0     O    1   6.894   5.977   9.630 -0.2244 -0.0705  0.0301
    1MOL0     C    2   6.976   6.007   9.545  0.2306  0.1852 -0.1599
    1MOL0     O    3   7.001   5.938   9.426  0.2968  0.5982 -0.0805
    1MOL0     C    4   6.926   5.823   9.405 -0.8504 -0.8005 -0.0911
    1MOL0     C    5   6.925   5.716   9.500 -0.9468  0.2081  0.3431
    1MOL0     C    6   6.895   5.585   9.473  0.1499 -0.2297 -0.1262
    1MOL0     C    7   6.857   5.556   9.339  0.0646  0.9735 -0.7484
    1MOL0     O    8   6.815   5.434   9.294 -0.0826  0.7378  0.3263
    1MOL0     C    9   6.806   5.328   9.390  0.8533  0.2120  0.1590
    1MOL0     C   10   6.761   5.194   9.327 -0.2083 -0.5877  0.1619
    1MOL0     C   11   6.875   5.145   9.233  0.3752  0.2569 -0.4113
    1MOL0     C   12   6.879   5.208   9.095 -0.7304  0.2343 -0.2348
    1MOL0     C   13   7.006   5.180   9.024 -0.4750  0.8754  0.0089
    1MOL0     C   14   7.025   5.028   9.002 -0.0692 -0.0962  0.3535
    1MOL0     C   15   7.133   5.008   8.892 -0.1788 -0.6636 -0.8193
    1MOL0     C   16   7.157   4.864   8.861 -1.1571 -0.6514  0.5226
    1MOL0     N   17   7.214   4.861   8.722 -0.2900 -0.0311  0.2249
    1MOL0     C   18   7.142   4.867   8.608 -0.7418 -0.3733 -0.1937
    1MOL0     C   19   7.224   4.819   8.514 -0.2652 -0.1953  0.1708
    1MOL0     C   20   7.216   4.821   8.360  0.0120  0.5155 -0.6087
    1MOL0     C   21   7.075   4.759   8.323  0.1223 -0.5521 -1.3824
    1MOL0     C   22   7.070   4.601   8.350  0.0544 -0.5720 -0.4374
    1MOL0     C   23   7.191   4.519   8.293  0.7384  0.9863  0.2131
    1MOL0     O   24   7.218   4.557   8.166 -0.7768 -0.9650  0.1000
    1MOL0     C   25   7.323   4.492   8.105 -0.4849  0.1826 -0.6124
    1MOL0     C   26   7.374   4.362   8.149  0.1804  0.0411  0.0626
    1MOL0     C   27   7.476   4.301   8.074  0.3380 -0.3342  0.0855
    1MOL0     C   28   7.545   4.361   7.970  0.3038 -0.0756  0.0089
    1MOL0     C   29   7.668   4.307   7.920 -0.6307  0.0043 -0.6256
    1MOL0     O   30   7.738   4.375   7.817  0.1211  0.2614 -0.4206
    1MOL0     C   31   7.850   4.318   7.756  0.5637  0.5747 -0.1891
    1MOL0     C   32   7.845   4.320   7.614  0.7103 -1.7663 -0.1810
    1MOL0     C   33   7.926   4.257   7.535 -0.2668  0.1197  0.3634
    1MOL0     C   34   8.024   4.174   7.588  0.2573  0.5034 -0.7647
    1MOL0     O   35   8.114   4.106   7.506  0.1142 -0.2783 -0.2160
    1MOL0     C   36   8.256   4.135   7.519 -0.6804  0.4423  0.7002
    1MOL0     C   37   8.313   4.127   7.380 -0.0019 -0.4657 -1.0327
    1MOL0     C   38   8.325   4.272   7.310  0.4871 -1.0997 -1.0232
    1MOL0     C   39   8.197   4.341   7.291  0.7576  0.4370 -0.0514
    1MOL0     C   40   8.196   4.473   7.227 -0.3511  0.0416 -0.0787
    1MOL0     C   41   8.062   4.508   7.189 -0.0385 -1.0325  0.3052
    1MOL0     C   42   7.993   4.578   7.302  0.9562 -0.1296 -0.1573
    1MOL0     C   43   7.873   4.660   7.248  1.2426  0.4006  0.4361
    1MOL0    Cl   44   7.786   4.720   7.401  0.0829 -0.6398  0.1291
    1MOL0     C   45   8.042   4.173   7.731  0.4762  0.0177  0.3483
    1MOL0     C   46   7.956   4.247   7.812  0.4957 -0.4431  0.7739
    1MOL0     O   47   7.701   4.196   7.958  0.1424 -0.3332 -0.5340
    1MOL0     C   48   7.510   4.491   7.940 -0.4173  0.5392 -0.0769
    1MOL0     C   49   7.399   4.558   7.999 -0.2767  1.1498  0.4515
    1MOL0     N   50   7.347   4.791   8.575  0.0429  0.5119  0.5402
    1MOL0     N   51   7.333   4.801   8.704  0.2016 -0.0819 -0.4986
    1MOL0     C   52   6.861   5.656   9.250 -0.2326 -0.1650  0.3005
    1MOL0     C   53   6.901   5.789   9.277  0.5040  0.2380  0.2194
    1MOL0     C   54   7.061   6.125   9.564 -0.0225 -0.7808  0.0467
    1MOL0     C   55   7.063   6.206   9.458 -0.0105  0.3318 -0.4895
    1MOL0     C   56   7.124   6.334   9.461 -0.1139 -1.0968  0.7591
    1MOL0     C   57   7.201   6.370   9.574 -0.0373  0.9027 -1.4961
    1MOL0     O   58   7.290   6.471   9.581 -0.2642 -0.0263 -0.1107
    1MOL0     C   59   7.274   6.576   9.480  0.4063  0.3750  0.2866
    1MOL0     C   60   7.374   6.689   9.504 -0.5908  0.2044  0.2702
    1MOL0     C   61   7.372   6.740   9.649 -0.0998  0.5169 -0.5612
    1MOL0     C   62   7.465   6.659   9.749  0.9735 -1.3505  1.0552
    1MOL0     C   63   7.493   6.749   9.867  0.9568 -0.5717 -0.5153
    1MOL0     C   64   7.506   6.817   9.962 -0.3141 -0.0181 -0.4842
    1MOL0     C   65   7.202   6.283   9.690 -0.7108  0.9640  0.3355
    1MOL0     C   66   7.127   6.163   9.688 -0.3581  0.2350 -0.4502
    1MOL0     C   67   7.127   6.078   9.814  0.4963 -0.4993  0.7717
    1MOL0     H   68   6.969   5.737   9.597 -2.6763 -1.7015  1.6182
    1MOL0     H   69   6.907   5.499   9.538  0.2496 -1.2268 -1.4149
    1MOL0     H   70   6.903   5.332   9.439 -0.4651  2.4320  2.8709
    1MOL0     H   71   6.736   5.362   9.467  2.6871  0.8393  1.6190
    1MOL0     H   72   6.663   5.201   9.280  0.0519  1.4411 -0.1700
    1MOL0     H   73   6.752   5.132   9.417 -1.1956  0.6905  0.9757
    1MOL0     H   74   6.868   5.037   9.216  3.5553  0.0444 -1.0129
    1MOL0     H   75   6.969   5.177   9.278  1.0506  1.5582 -2.6049
    1MOL0     H   76   6.793   5.171   9.038 -0.6196 -1.0144  0.3616
    1MOL0     H   77   6.868   5.316   9.102  2.1391  0.5747  0.5173
    1MOL0     H   78   7.021   5.236   8.931  3.8898  0.0165 -0.0140
    1MOL0     H   79   7.097   5.195   9.083  1.0408 -3.4569 -0.8435
    1MOL0     H   80   7.058   4.981   9.095 -1.6823 -1.7133  0.1788
    1MOL0     H   81   6.934   4.975   8.971 -0.5428  0.1523  1.2887
    1MOL0     H   82   7.233   5.046   8.918 -0.3753  0.8372 -2.0865
    1MOL0     H   83   7.111   5.063   8.800  1.3171  0.7312 -0.4037
    1MOL0     H   84   7.237   4.837   8.929  1.9993  1.6062 -1.9622
    1MOL0     H   85   7.068   4.801   8.858 -1.2752 -0.4734  0.2065
    1MOL0     H   86   7.041   4.907   8.603 -0.2668  0.8493 -0.2520
    1MOL0     H   87   7.232   4.921   8.319 -1.6657  1.4437  0.8665
    1MOL0     H   88   7.300   4.758   8.331  3.0854  2.2746  3.4885
    1MOL0     H   89   6.984   4.812   8.355 -0.6039 -2.7925  0.4925
    1MOL0     H   90   7.067   4.779   8.216  1.1458 -0.1055 -1.3870
    1MOL0     H   91   6.976   4.568   8.307  0.2011 -0.3306 -0.9521
    1MOL0     H   92   7.053   4.594   8.458 -0.4940 -0.5782 -0.5225
    1MOL0     H   93   7.164   4.413   8.290  2.1205  0.6177  0.1738
    1MOL0     H   94   7.278   4.542   8.356  0.5785 -0.7304  1.1200
    1MOL0     H   95   7.325   4.308   8.228  0.7132 -1.3132 -0.4993
    1MOL0     H   96   7.501   4.201   8.108 -0.8145 -0.0811  1.7718
    1MOL0     H   97   7.757   4.369   7.574  0.6006 -3.1973 -1.7982
    1MOL0     H   98   7.916   4.264   7.427 -1.9492  0.1443  0.5036
    1MOL0     H   99   8.271   4.237   7.557 -0.9852  0.7022  0.1288
    1MOL0     H  100   8.304   4.060   7.583  0.6277 -0.2841 -1.0632
    1MOL0     H  101   8.412   4.081   7.380 -1.4968 -3.9899 -0.1773
    1MOL0     H  102   8.246   4.062   7.322  1.7928 -2.2820 -1.1718
    1MOL0     H  103   8.401   4.324   7.368  2.7491 -4.6216 -0.4847
    1MOL0     H  104   8.365   4.256   7.209  4.5126  0.2929  0.1745
    1MOL0     H  105   8.144   4.346   7.386 -1.0849  2.3725 -1.1144
    1MOL0     H  106   8.144   4.280   7.217 -0.0474  2.6817 -1.4079
    1MOL0     H  107   8.253   4.467   7.134  1.7764  1.9290  1.0076
    1MOL0     H  108   8.255   4.546   7.284 -1.2801 -0.4626  1.5819
    1MOL0     H  109   8.061   4.585   7.112  0.6810  1.8638  2.9443
    1MOL0     H  110   8.006   4.428   7.140 -2.4481  0.2161  0.8618
    1MOL0     H  111   8.072   4.642   7.343  2.3505 -1.4003 -0.7847
    1MOL0     H  112   7.961   4.503   7.375  0.5188 -0.2415 -0.4631
    1MOL0     H  113   7.909   4.744   7.188  2.8113  0.1751  1.0025
    1MOL0     H  114   7.803   4.602   7.188 -2.8869  1.2928  3.8914
    1MOL0     H  115   8.122   4.122   7.784  0.4471  1.2631  1.6340
    1MOL0     H  116   7.958   4.244   7.920 -0.2609 -2.2492  0.7623
    1MOL0     H  117   7.568   4.550   7.869 -1.4920  3.2587  1.1875
    1MOL0     H  118   7.367   4.657   7.969 -0.2624  1.1120  0.3095
    1MOL0     H  119   6.836   5.626   9.148  0.6456 -0.4237  0.1539
    1MOL0     H  120   6.903   5.857   9.192 -1.0230  0.5121  0.3716
    1MOL0     H  121   7.007   6.183   9.368  0.3205 -0.5184 -0.4851
    1MOL0     H  122   7.124   6.406   9.379  0.9930 -0.1335  1.5753
    1MOL0     H  123   7.171   6.612   9.494  1.0718  2.4148  0.3319
    1MOL0     H  124   7.303   6.548   9.378  3.0125  0.1933  1.0076
    1MOL0     H  125   7.338   6.766   9.435 -2.6350  1.2566  2.3508
    1MOL0     H  126   7.477   6.663   9.480  0.1652  3.2535 -0.1952
    1MOL0     H  127   7.273   6.748   9.694  0.0211 -0.9303  0.0203
    1MOL0     H  128   7.396   6.847   9.647 -0.1199  0.5208 -2.5838
    1MOL0     H  129   7.405   6.572   9.779 -1.5125  0.3852  1.4589
    1MOL0     H  130   7.559   6.640   9.697  0.4427 -1.5331  0.1431
    1MOL0     H  131   7.521   6.872  10.053 -0.2462  0.1267 -0.5816
    1MOL0     H  132   7.275   6.303   9.768 -1.7630  0.7807  1.3984
    1MOL0     H  133   7.068   6.134   9.887 -1.2139 -0.6867 -0.4166
    1MOL0     H  134   7.090   5.975   9.800 -1.3145  0.2979 -0.7692
    1MOL0     H  135   7.228   6.069   9.855  0.8861 -0.7156 -0.2210
    2MOL0     O  136   9.178   5.851  10.753  0.1244 -0.1461 -0.1966
    2MOL0     C  137   9.278   5.858  10.689  0.0600 -1.2276 -0.0726
    2MOL0     O  138   9.403   5.892  10.737 -0.7086  0.0829  0.3985
    2MOL0     C  139   9.423   5.929  10.868  0.5004  0.1946  0.7652
    2MOL0     C  140   9.517   5.857  10.939  1.1513  0.2074 -0.4502
    2MOL0     C  141   9.531   5.886  11.075  0.3484 -0.5385 -1.6934
    2MOL0     C  142   9.453   5.978  11.146 -0.5820  0.3342 -0.1694
    2MOL0     O  143   9.463   6.007  11.283 -0.5616  0.2266  0.0021
    2MOL0     C  144   9.590   6.008  11.347  0.0975  0.4509 -0.6512
    2MOL0     C  145   9.574   6.063  11.486  0.2900  0.8219  0.8180
    2MOL0     C  146   9.552   6.214  11.488 -0.7533  0.0473 -0.8715
    2MOL0     C  147   9.663   6.297  11.433 -0.4461  0.5763  0.6797
    2MOL0     C  148   9.672   6.446  11.488  0.2376  1.5151 -0.2647
    2MOL0     C  149   9.752   6.552  11.406  1.2471 -0.0776  0.2619
    2MOL0     C  150   9.730   6.680  11.472  0.6320 -0.1724  0.4964
    2MOL0     C  151   9.790   6.797  11.397  0.6828 -0.6144  0.1819
    2MOL0     N  152   9.751   6.934  11.452  0.0652 -0.3662 -0.8847
    2MOL0     C  153   9.623   6.994  11.472 -1.1238  1.4949 -0.0805
    2MOL0     C  154   9.655   7.103  11.542 -0.5600  0.0875 -0.0725
    2MOL0     C  155   9.552   7.212  11.582  0.2328 -0.8252 -0.1643
    2MOL0     C  156   9.528   7.221  11.737 -0.7449  0.2477  0.9608
    2MOL0     C  157   9.619   7.322  11.810 -0.0646 -0.9547 -0.2278
    2MOL0     C  158   9.564   7.464  11.813  0.1212  0.1046  0.5091
    2MOL0     O  159   9.661   7.528  11.908 -0.1737  0.0720 -0.3328
    2MOL0     C  160   9.669   7.668  11.912  0.9332  1.1224  0.1812
    2MOL0     C  161   9.586   7.750  11.841 -0.9265 -0.4146  0.9970
    2MOL0     C  162   9.592   7.894  11.854  0.3695  1.1462 -0.4853
    2MOL0     C  163   9.683   7.953  11.940  0.1676 -0.5056  0.1055
    2MOL0     C  164   9.679   8.096  11.964  0.1891  0.0244  0.0780
    2MOL0     O  165   9.619   8.163  11.864 -0.2150  0.5462 -0.0159
    2MOL0     C  166   9.645   8.298  11.858  0.1110 -0.1392  0.2018
    2MOL0     C  167   9.740   8.329  11.766 -0.3257 -0.8578 -0.2487
    2MOL0     C  168   9.766   8.464  11.736 -0.2747 -0.5282  0.2061
    2MOL0     C  169   9.696   8.568  11.797 -0.4789 -0.1884  0.6911
    2MOL0     O  170   9.716   8.704  11.784  0.1341  0.1828 -0.3983
    2MOL0     C  171   9.815   8.759  11.688  0.1901  0.3585 -1.1048
    2MOL0     C  172   9.839   8.900  11.725 -0.3442  0.0666 -0.2663
    2MOL0     C  173   9.911   8.981  11.614 -1.2543 -0.2762 -0.0039
    2MOL0     C  174   9.899   9.132  11.641 -0.0918  0.6265 -0.1834
    2MOL0     C  175   9.947   9.205  11.510 -0.3022 -0.3481 -0.0796
    2MOL0     C  176   9.939   9.359  11.531 -0.2642  0.1616 -0.1774
    2MOL0     C  177   9.797   9.410  11.580  0.0148 -0.0883  0.7202
    2MOL0     C  178   9.761   9.562  11.582 -1.2084  0.9440 -0.7704
    2MOL0    Cl  179   9.887   9.641  11.689 -0.3381  0.2512 -0.2418
    2MOL0     C  180   9.601   8.536  11.894  0.3705  0.5128 -0.1364
    2MOL0     C  181   9.573   8.393  11.927  0.5376 -0.0595 -0.3394
    2MOL0     O  182   9.713   8.144  12.071  0.1003  0.0402 -0.9794
    2MOL0     C  183   9.781   7.872  12.005  0.4991  0.0686 -0.5617
    2MOL0     C  184   9.770   7.734  11.982  0.9092  0.6882 -0.0071
    2MOL0     N  185   9.797   7.117  11.561  0.5539  0.4445  0.3834
    2MOL0     N  186   9.848   7.008  11.518  0.5662  0.4571  0.5585
    2MOL0     C  187   9.365   6.053  11.066 -0.0794  0.0447 -0.1854
    2MOL0     C  188   9.345   6.030  10.929  0.5026  1.0983 -0.5695
    2MOL0     C  189   9.277   5.826  10.536 -0.0843 -0.2247 -0.0386
    2MOL0     C  190   9.394   5.771  10.477  0.3493 -0.2210  0.2511
    2MOL0     C  191   9.391   5.699  10.356 -0.2643  0.2836  0.2005
    2MOL0     C  192   9.271   5.680  10.290  0.0721 -0.0605  0.6069
    2MOL0     O  193   9.266   5.592  10.187  0.1457  1.1895  0.9275
    2MOL0     C  194   9.161   5.580  10.087 -0.1286  0.0585 -0.3145
    2MOL0     C  195   9.202   5.471   9.987 -0.0410  0.0257 -0.0386
    2MOL0     C  196   9.313   5.515   9.889  0.9564 -0.6342  0.4005
    2MOL0     C  197   9.258   5.583   9.767 -0.2188  0.1226 -0.0647
    2MOL0     C  198   9.254   5.492   9.655  0.2757 -0.4103  0.3228
    2MOL0     C  199   9.259   5.407   9.570 -0.5599 -0.6118 -0.8184
    2MOL0     C  200   9.161   5.760  10.333  0.1656  1.5491  0.7691
    2MOL0     C  201   9.158   5.825  10.464  0.2051 -1.0178  0.1595
    2MOL0     C  202   9.027   5.891  10.519  0.1753 -0.0975  0.2190
    2MOL0     H  203   9.564   5.781  10.878  0.6867 -0.3947 -0.0675
    2MOL0     H  204   9.585   5.813  11.134 -1.5536 -1.9428 -1.5982
    2MOL0     H  205   9.611   5.900  11.348 -1.3548  0.0286 -3.9212
    2MOL0     H  206   9.661   6.071  11.295 -2.4544  3.8743 -0.3222
    2MOL0     H  207   9.667   6.033  11.537 -1.1799 -2.6590  1.7650
    2MOL0     H  208   9.506   6.011  11.554 -0.7957  2.5283  1.0940
    2MOL0     H  209   9.528   6.245  11.590 -1.5730  1.9563 -1.5997
    2MOL0     H  210   9.462   6.236  11.430 -1.5114  2.5126  1.0619
    2MOL0     H  211   9.762   6.250  11.435  0.6632  2.6579  4.6182
    2MOL0     H  212   9.632   6.306  11.328 -3.4836 -0.6031  1.3796
    2MOL0     H  213   9.568   6.477  11.484 -0.4386 -0.7154 -1.6463
    2MOL0     H  214   9.713   6.449  11.590 -0.4137  0.5425  0.0406
    2MOL0     H  215   9.860   6.537  11.419  1.3165 -0.5516 -0.7602
    2MOL0     H  216   9.743   6.545  11.297  1.5184  1.4220  0.1154
    2MOL0     H  217   9.777   6.674  11.570  1.4761 -0.5070  0.0830
    2MOL0     H  218   9.623   6.698  11.479  0.6144 -0.9482  3.7950
    2MOL0     H  219   9.899   6.793  11.396  0.8726  2.1811 -2.1475
    2MOL0     H  220   9.746   6.780  11.298 -1.0894  0.0826  0.8222
    2MOL0     H  221   9.527   6.956  11.438  0.7061 -2.4506 -1.5612
    2MOL0     H  222   9.597   7.306  11.548  0.3245  0.0730  2.2668
    2MOL0     H  223   9.459   7.194  11.526 -0.0618 -1.6862  0.5992
    2MOL0     H  224   9.421   7.234  11.753 -0.9840 -1.5025  1.0456
    2MOL0     H  225   9.537   7.117  11.770 -1.6444 -1.2864 -2.9839
    2MOL0     H  226   9.722   7.325  11.772 -0.8734  0.3292 -2.5010
    2MOL0     H  227   9.630   7.290  11.914  1.9570 -2.1280 -0.7533
    2MOL0     H  228   9.465   7.470  11.860  0.4602  1.8498  1.0605
    2MOL0     H  229   9.559   7.504  11.712 -1.7591  0.4668  0.7178
    2MOL0     H  230   9.511   7.718  11.770 -1.6036  1.0048  1.0453
    2MOL0     H  231   9.520   7.951  11.794 -0.3434  1.7709  0.9228
    2MOL0     H  232   9.801   8.265  11.703  3.2134  1.7814  0.2233
    2MOL0     H  233   9.852   8.483  11.672 -0.6152 -0.2749 -0.1781
    2MOL0     H  234   9.913   8.713  11.706  1.1955  3.2620  2.0945
    2MOL0     H  235   9.773   8.748  11.588  0.8107 -1.4549 -1.2059
    2MOL0     H  236   9.740   8.944  11.746 -0.2889  0.2538 -0.3875
    2MOL0     H  237   9.898   8.897  11.816 -1.4149 -3.1095  0.4254
    2MOL0     H  238  10.019   8.966  11.618 -1.3895 -1.6580 -0.8017
    2MOL0     H  239   9.871   8.948  11.517  1.3672  1.1330 -1.6911
    2MOL0     H  240   9.949   9.165  11.732 -0.3287  1.1064 -0.2259
    2MOL0     H  241   9.793   9.140  11.666 -0.9595 -3.1577 -1.9167
    2MOL0     H  242   9.894   9.171  11.421 -0.6936 -0.2609  0.1161
    2MOL0     H  243  10.051   9.174  11.492  0.1028 -0.2939  1.8720
    2MOL0     H  244  10.002   9.391  11.615 -2.1224  1.2591  0.8693
    2MOL0     H  245   9.968   9.418  11.443 -1.1626  2.5368  1.0113
    2MOL0     H  246   9.780   9.368  11.680 -0.0324  2.0052  1.6485
    2MOL0     H  247   9.722   9.356  11.522 -1.0944  1.2555  0.8701
    2MOL0     H  248   9.770   9.596  11.479  1.1774 -1.0665 -1.3471
    2MOL0     H  249   9.663   9.587  11.623 -0.7402  0.5183  0.6892
    2MOL0     H  250   9.549   8.613  11.950 -1.7994 -0.0455 -1.2585
    2MOL0     H  251   9.511   8.377  12.014  0.3702  0.2750 -0.3967
    2MOL0     H  252   9.859   7.908  12.071  1.3991 -1.3618 -0.7984
    2MOL0     H  253   9.846   7.669  12.023  0.7271 -0.1262 -0.9208
    2MOL0     H  254   9.308   6.119  11.130 -0.0277 -1.1590  1.1221
    2MOL0     H  255   9.265   6.075  10.870  0.2932  1.7948  0.2361
    2MOL0     H  256   9.488   5.781  10.530 -0.7592  2.8218  1.9328
    2MOL0     H  257   9.488   5.661  10.324 -0.5280  0.0090 -0.2815
    2MOL0     H  258   9.155   5.671  10.028 -1.2093  0.4368  0.3343
    2MOL0     H  259   9.070   5.542  10.135  2.6186 -2.5345  3.4658
    2MOL0     H  260   9.110   5.446   9.934 -1.2450  1.4814  1.2942
    2MOL0     H  261   9.228   5.378  10.038 -3.3374 -0.9050  0.1566
    2MOL0     H  262   9.379   5.430   9.871 -1.4407 -2.6784  0.7553
    2MOL0     H  263   9.377   5.586   9.941  1.8627 -3.3764  3.3129
    2MOL0     H  264   9.156   5.618   9.784 -0.2321 -0.4878  1.3006
    2MOL0     H  265   9.328   5.665   9.748  2.7265 -1.9471  0.9952
    2MOL0     H  266   9.235   5.320   9.512 -2.0132  0.2561 -1.5732
    2MOL0     H  267   9.071   5.740  10.275  1.3418 -1.0606 -0.3052
    2MOL0     H  268   8.957   5.913  10.438 -1.7207 -3.3123  0.8398
    2MOL0     H  269   8.982   5.832  10.599  1.0443  0.8870  1.4773
    2MOL0     H  270   9.040   5.992  10.560  0.1986  0.0215 -0.0706
    3MOL0     O  271   8.319   2.770  11.112  0.7611 -0.1662 -0.1453
    3MOL0     C  272   8.337   2.894  11.117 -0.1151  0.2945 -0.1601
    3MOL0     O  273   8.267   2.976  11.199 -0.2110 -0.6644  0.5909
    3MOL0     C  274   8.191   2.937  11.299  0.0304  0.3730  1.0192
    3MOL0     C  275   8.090   2.849  11.277  0.3464  0.6037 -0.5572
    3MOL0     C  276   8.004   2.808  11.377  0.3766 -0.7565 -0.6321
    3MOL0     C  277   8.019   2.854  11.516  0.0872  0.4415  1.1509
    3MOL0     O  278   7.931   2.814  11.614  0.0599  0.9387  0.6821
    3MOL0     C  279   7.891   2.678  11.618  0.9627  0.8248 -0.2431
    3MOL0     C  280   7.898   2.637  11.763  0.1808 -0.3268 -0.4620
    3MOL0     C  281   7.767   2.696  11.834  1.0045 -0.3122  0.1268
    3MOL0     C  282   7.662   2.590  11.819  0.1813  0.9944  0.3341
    3MOL0     C  283   7.523   2.640  11.848  0.6844  0.6478 -0.2331
    3MOL0     C  284   7.419   2.530  11.872  0.0706 -0.0816  0.0993
    3MOL0     C  285   7.437   2.416  11.770 -0.5258  0.8335 -0.3813
    3MOL0     C  286   7.314   2.336  11.757 -0.2768  0.0090  0.4548
    3MOL0     N  287   7.322   2.255  11.637  0.5466  0.4515 -0.2850
    3MOL0     C  288   7.245   2.282  11.522  0.7554 -1.2995  0.2972
    3MOL0     C  289   7.316   2.225  11.419 -0.1482  0.5689  0.6417
    3MOL0     C  290   7.267   2.223  11.271 -0.7940 -0.9748 -0.1249
    3MOL0     C  291   7.120   2.175  11.250 -0.4046  0.3529 -0.4508
    3MOL0     C  292   7.076   2.169  11.102  0.0914  0.3237  0.2451
    3MOL0     C  293   7.148   2.060  11.021 -0.1624 -0.1570 -0.5850
    3MOL0     O  294   7.120   2.063  10.882  0.9207 -0.2895  0.4384
    3MOL0     C  295   7.174   2.152  10.795 -0.7388  0.5301  0.0975
    3MOL0     C  296   7.272   2.248  10.836 -0.1110 -0.4023  1.1125
    3MOL0     C  297   7.292   2.363  10.756 -0.0172 -0.4579 -0.9778
    3MOL0     C  298   7.226   2.384  10.638 -0.0163  0.2595  0.0439
    3MOL0     C  299   7.255   2.512  10.558  0.4613  0.1201  0.0565
    3MOL0     O  300   7.345   2.604  10.607  0.3111 -0.1986 -0.0030
    3MOL0     C  301   7.354   2.727  10.541  0.1722  0.2053  0.5223
    3MOL0     C  302   7.242   2.817  10.533  0.3588 -0.1797  1.2264
    3MOL0     C  303   7.278   2.952  10.496 -0.6364  0.3332 -0.6417
    3MOL0     C  304   7.411   2.996  10.468 -0.4547 -0.2796  0.3068
    3MOL0     O  305   7.416   3.113  10.417  0.0834 -0.5341  0.9380
    3MOL0     C  306   7.542   3.180  10.411  0.0183 -0.8071 -0.9757
    3MOL0     C  307   7.503   3.310  10.353 -0.1332 -0.5783 -0.5392
    3MOL0     C  308   7.441   3.306  10.210  0.0295  0.6393  0.4899
    3MOL0     C  309   7.425   3.438  10.138 -0.0794 -0.0565  0.0260
    3MOL0     C  310   7.383   3.433   9.988  0.1304  0.1704  0.7662
    3MOL0     C  311   7.422   3.550   9.902  0.2632  0.6790 -0.2512
    3MOL0     C  312   7.345   3.674   9.953  0.3189 -0.5780 -0.3002
    3MOL0     C  313   7.205   3.703   9.887  0.0580  0.3396 -0.6116
    3MOL0    Cl  314   7.134   3.856   9.975  0.0075  0.1171 -0.0375
    3MOL0     C  315   7.516   2.905  10.481 -0.2439  0.9006  0.9243
    3MOL0     C  316   7.489   2.771  10.508 -0.8948 -0.0688  0.3653
    3MOL0     O  317   7.184   2.522  10.456  0.1830 -0.3121  0.7609
    3MOL0     C  318   7.123   2.289  10.606 -0.0409  0.1799  0.6146
    3MOL0     C  319   7.107   2.171  10.674  0.1768  0.1718  0.9080
    3MOL0     N  320   7.431   2.164  11.479 -0.4173 -0.1838  0.5476
    3MOL0     N  321   7.428   2.177  11.607 -0.1071 -0.1031  0.8368
    3MOL0     C  322   8.117   2.952  11.528  0.9953  0.6472 -0.0462
    3MOL0     C  323   8.205   2.994  11.425  0.3714 -0.3909 -0.8978
    3MOL0     C  324   8.432   2.966  11.028 -0.4261 -0.0670 -0.5675
    3MOL0     C  325   8.384   3.083  10.969  0.1834  0.7094  0.0031
    3MOL0     C  326   8.469   3.143  10.870  1.2100  0.2378 -0.4546
    3MOL0     C  327   8.595   3.092  10.832  0.0469  0.9517  0.0642
    3MOL0     O  328   8.660   3.163  10.736  0.2066  0.1993 -0.9537
    3MOL0     C  329   8.797   3.141  10.700  0.4157  0.7808  0.7647
    3MOL0     C  330   8.910   3.189  10.800 -0.2527  0.1009  0.4614
    3MOL0     C  331   9.050   3.177  10.753 -1.2677 -0.1788  0.1217
    3MOL0     C  332   9.135   3.066  10.820 -0.9850 -0.5028 -0.1795
    3MOL0     C  333   9.137   3.067  10.963  0.0126  0.8915 -0.0507
    3MOL0     C  334   9.125   3.072  11.086  0.1362  0.6978 -0.0432
    3MOL0     C  335   8.640   2.980  10.905  0.0671 -1.4366 -0.2921
    3MOL0     C  336   8.557   2.919  11.000 -0.3075 -0.7792  0.0434
    3MOL0     C  337   8.627   2.811  11.084  0.5233 -1.2376  0.4613
    3MOL0     H  338   8.067   2.817  11.176 -0.3446  2.5706 -1.0707
    3MOL0     H  339   7.920   2.741  11.357  1.5943 -2.4346 -0.3934
    3MOL0     H  340   7.794   2.650  11.576  1.6071  0.3245 -1.4392
    3MOL0     H  341   7.966   2.618  11.566  3.4866  3.8163 -0.3043
    3MOL0     H  342   7.994   2.660  11.809 -0.2888  0.8078 -0.0077
    3MOL0     H  343   7.896   2.528  11.755 -0.0524 -0.2269 -2.1363
    3MOL0     H  344   7.740   2.784  11.775 -0.3896 -1.0638 -0.4151
    3MOL0     H  345   7.774   2.718  11.941  2.0363 -0.5758  0.1195
    3MOL0     H  346   7.670   2.562  11.713 -2.5848  4.0531 -0.8746
    3MOL0     H  347   7.697   2.508  11.882 -0.4529  1.2607  1.0414
    3MOL0     H  348   7.525   2.698  11.940 -2.5339  1.6122 -0.6614
    3MOL0     H  349   7.495   2.697  11.759 -0.2736  0.1889 -0.2402
    3MOL0     H  350   7.429   2.489  11.973  3.9586  0.3718  0.0782
    3MOL0     H  351   7.319   2.573  11.873 -0.1169 -0.4925  1.2691
    3MOL0     H  352   7.503   2.338  11.809  0.3883  1.3945 -0.7832
    3MOL0     H  353   7.476   2.452  11.675  1.5234  0.0388  0.1129
    3MOL0     H  354   7.309   2.274  11.848 -0.1105  1.1718  1.2767
    3MOL0     H  355   7.228   2.403  11.759 -0.9982 -0.8016 -1.2791
    3MOL0     H  356   7.157   2.343  11.502  0.0630 -2.7122 -1.2194
    3MOL0     H  357   7.280   2.327  11.238  0.2154 -1.5946 -1.7905
    3MOL0     H  358   7.342   2.162  11.221  0.1477 -1.8262  2.1852
    3MOL0     H  359   7.106   2.072  11.285 -1.4198  0.0292 -1.7248
    3MOL0     H  360   7.045   2.233  11.304 -1.1680 -0.8205 -0.2093
    3MOL0     H  361   7.090   2.268  11.058 -0.1289 -0.1683 -0.9558
    3MOL0     H  362   6.969   2.146  11.104 -0.5961  3.2187  0.2269
    3MOL0     H  363   7.127   1.962  11.064 -0.6288  0.8782  1.6638
    3MOL0     H  364   7.255   2.072  11.041 -0.7362  2.2871  1.5299
    3MOL0     H  365   7.316   2.252  10.935  2.3617  2.5952  0.0235
    3MOL0     H  366   7.356   2.437  10.804 -2.2501  0.1050  1.3245
    3MOL0     H  367   7.139   2.792  10.555  0.4746 -0.2950  1.6379
    3MOL0     H  368   7.190   3.015  10.485  0.2986  2.1245  1.3196
    3MOL0     H  369   7.586   3.178  10.511 -0.1399 -1.3941 -0.9103
    3MOL0     H  370   7.612   3.135  10.340 -1.7287 -1.9435 -2.0775
    3MOL0     H  371   7.430   3.341  10.428  0.2640 -0.6632 -0.1159
    3MOL0     H  372   7.586   3.380  10.342 -2.7496  2.6062 -1.8945
    3MOL0     H  373   7.516   3.252  10.151  0.6749  2.0220 -0.0033
    3MOL0     H  374   7.343   3.257  10.209  1.2681 -2.0889  1.8360
    3MOL0     H  375   7.523   3.488  10.138 -0.3841  0.5799 -1.2128
    3MOL0     H  376   7.354   3.503  10.190 -3.4307 -3.5878  0.3235
    3MOL0     H  377   7.280   3.403   9.971  0.0705  0.9240 -0.2713
    3MOL0     H  378   7.439   3.360   9.929  0.8372  3.5457 -3.2145
    3MOL0     H  379   7.529   3.570   9.915  0.5993 -0.2586 -1.4803
    3MOL0     H  380   7.409   3.537   9.794 -0.5142  2.4526 -0.4142
    3MOL0     H  381   7.405   3.757   9.914 -0.1479 -0.3343 -0.4988
    3MOL0     H  382   7.337   3.677  10.062 -1.8104 -4.8127 -0.1399
    3MOL0     H  383   7.223   3.715   9.780 -0.4463  0.8761 -0.6383
    3MOL0     H  384   7.138   3.617   9.896  1.2954 -0.5749  0.2605
    3MOL0     H  385   7.614   2.941  10.449 -0.6464  0.9546 -0.2795
    3MOL0     H  386   7.571   2.700  10.513 -0.3036  0.0522 -3.8228
    3MOL0     H  387   7.067   2.298  10.513  0.5982  1.4411  0.3272
    3MOL0     H  388   7.033   2.097  10.644  0.8756 -0.3275  0.3957
    3MOL0     H  389   8.112   2.995  11.627 -0.8926 -0.4916  0.3967
    3MOL0     H  390   8.273   3.070  11.461 -2.5291  2.9619 -1.9729
    3MOL0     H  391   8.288   3.129  10.992 -1.3942 -0.8757 -2.8011
    3MOL0     H  392   8.435   3.233  10.819  2.1048 -0.4199 -2.2965
    3MOL0     H  393   8.803   3.192  10.603 -1.7427 -1.8818 -0.9136
    3MOL0     H  394   8.805   3.034  10.679 -2.2165  1.0371 -2.3215
    3MOL0     H  395   8.895   3.141  10.897 -0.4713  0.0750  0.4159
    3MOL0     H  396   8.891   3.294  10.821  2.1712 -0.0428  4.3358
    3MOL0     H  397   9.102   3.269  10.781  2.5264 -1.0789 -3.1858
    3MOL0     H  398   9.051   3.163  10.645  3.2553  0.0190 -0.0274
    3MOL0     H  399   9.106   2.964  10.792  0.1752 -0.7093 -0.7006
    3MOL0     H  400   9.238   3.092  10.790 -2.7173  4.9724 -2.7410
    3MOL0     H  401   9.104   3.060  11.190 -1.2965 -2.3127 -0.5655
    3MOL0     H  402   8.744   2.951  10.893  0.5552  0.3025 -0.5932
    3MOL0     H  403   8.586   2.782  11.181  3.3973  1.0727  2.5482
    3MOL0     H  404   8.622   2.729  11.012  0.9125  0.8622 -2.1163
    3MOL0     H  405   8.728   2.845  11.106 -0.1679 -0.0716  2.0100
    4MOL0     O  406  11.087   2.888   2.127  0.6200 -0.5711  0.0464
    4MOL0     C  407  11.131   2.820   2.215  0.4725  0.0035  0.5418
    4MOL0     O  408  11.051   2.768   2.317 -0.3375  0.5880 -0.0362
    4MOL0     C  409  10.946   2.837   2.357  0.8358 -1.0556  0.2429
    4MOL0     C  410  10.981   2.951   2.430 -0.5936 -0.6516  0.5416
    4MOL0     C  411  10.877   3.035   2.491 -0.3071  0.0075 -0.3896
    4MOL0     C  412  10.743   2.998   2.481  0.2882 -0.0954  0.9329
    4MOL0     O  413  10.639   3.049   2.549 -0.0712  0.3836  0.0202
    4MOL0     C  414  10.653   3.090   2.689  0.7682 -0.2683  0.2559
    4MOL0     C  415  10.516   3.125   2.757 -1.5016  0.0489  0.3199
    4MOL0     C  416  10.442   3.237   2.697  0.5788  0.8033  1.1811
    4MOL0     C  417  10.298   3.249   2.749  0.1042  0.4347 -0.0997
    4MOL0     C  418  10.231   3.368   2.694 -0.3043 -0.8144 -0.2381
    4MOL0     C  419  10.111   3.421   2.762  0.6705  0.4560  1.1985
    4MOL0     C  420   9.987   3.343   2.726 -1.0143  0.2561  0.1212
    4MOL0     C  421   9.855   3.376   2.805 -0.5515  0.4951 -0.0355
    4MOL0     N  422   9.769   3.252   2.797 -0.0904 -1.0427  0.9125
    4MOL0     C  423   9.709   3.210   2.683  0.3676 -0.0552 -0.2038
    4MOL0     C  424   9.672   3.083   2.710  0.3333 -0.6586  0.3453
    4MOL0     C  425   9.587   3.002   2.619  0.4914  0.0910 -0.3471
    4MOL0     C  426   9.482   2.911   2.704 -0.8448  0.3441  0.5118
    4MOL0     C  427   9.431   2.789   2.636 -0.1919 -1.1676 -0.5232
    4MOL0     C  428   9.360   2.699   2.736 -0.5575  0.2299 -0.7145
    4MOL0     O  429   9.449   2.664   2.845 -1.1122 -0.8267 -0.0852
    4MOL0     C  430   9.399   2.588   2.950  0.0264  0.3149 -1.1925
    4MOL0     C  431   9.486   2.554   3.053 -0.8658 -0.1341  0.0103
    4MOL0     C  432   9.433   2.473   3.160  1.0176 -0.8318  0.1402
    4MOL0     C  433   9.295   2.451   3.179  0.3040  0.1127 -0.2874
    4MOL0     C  434   9.244   2.395   3.305 -1.5081  1.3538 -0.2899
    4MOL0     O  435   9.333   2.399   3.413 -0.0810 -0.5142  0.5940
    4MOL0     C  436   9.275   2.405   3.536 -0.5804  0.4124  0.1864
    4MOL0     C  437   9.173   2.500   3.571 -0.3705  0.8126 -0.3712
    4MOL0     C  438   9.136   2.509   3.706  0.0767  0.0024  0.1994
    4MOL0     C  439   9.188   2.427   3.801 -0.6718  0.9705  0.1011
    4MOL0     O  440   9.141   2.438   3.935 -0.4003 -0.3697 -0.3623
    4MOL0     C  441   9.183   2.356   4.054  0.8028 -0.1611  0.3244
    4MOL0     C  442   9.099   2.388   4.171 -0.0823  0.0007  0.2589
    4MOL0     C  443   9.170   2.341   4.297  0.2955  0.2279  0.5380
    4MOL0     C  444   9.120   2.202   4.308 -0.4168  0.0152 -0.5239
    4MOL0     C  445   9.191   2.143   4.435  0.0628  0.8970  0.1652
    4MOL0     C  446   9.349   2.148   4.440 -0.2907 -0.2295  0.0764
    4MOL0     C  447   9.390   2.046   4.542 -0.1434  0.2964 -0.2395
    4MOL0     C  448   9.535   2.058   4.577 -0.6525 -0.7933  0.0894
    4MOL0    Cl  449   9.622   1.960   4.448  0.0033 -0.4163  0.1247
    4MOL0     C  450   9.297   2.342   3.767  0.2672  0.8798  0.1513
    4MOL0     C  451   9.339   2.340   3.635 -0.2777  0.7836  0.3745
    4MOL0     O  452   9.130   2.351   3.311  0.4835  0.3389 -0.0994
    4MOL0     C  453   9.212   2.501   3.079  0.1265 -0.1129  0.5155
    4MOL0     C  454   9.263   2.558   2.964  0.1134  0.4855 -0.2979
    4MOL0     N  455   9.708   3.057   2.833  0.0033  0.3277  0.1197
    4MOL0     N  456   9.774   3.149   2.886 -0.6069 -0.5654  0.6031
    4MOL0     C  457  10.716   2.878   2.411  0.0271  0.1062  0.4575
    4MOL0     C  458  10.818   2.802   2.349  0.4683  0.0624 -0.2247
    4MOL0     C  459  11.258   2.761   2.209  0.2949  1.1645  0.6209
    4MOL0     C  460  11.275   2.653   2.112 -0.2222 -0.8428  0.6401
    4MOL0     C  461  11.392   2.578   2.120  0.1309  0.9049 -0.2108
    4MOL0     C  462  11.491   2.617   2.210 -0.9917  0.6648 -0.4875
    4MOL0     O  463  11.610   2.553   2.220 -0.2670  0.2143  0.2333
    4MOL0     C  464  11.633   2.422   2.149 -0.4150 -0.1887 -0.0595
    4MOL0     C  465  11.777   2.371   2.188 -0.2975  0.0832 -0.0799
    4MOL0     C  466  11.896   2.466   2.181  0.0057 -0.2914  0.4763
    4MOL0     C  467  11.906   2.548   2.051 -0.4959 -0.6624 -0.2815
    4MOL0     C  468  11.959   2.477   1.932  0.3866  0.3780 -0.8269
    4MOL0     C  469  12.003   2.423   1.838 -0.0900 -0.3597 -0.3364
    4MOL0     C  470  11.481   2.733   2.295 -0.4950  0.5904 -0.3364
    4MOL0     C  471  11.362   2.804   2.294  0.0492 -0.5399  1.0292
    4MOL0     C  472  11.354   2.926   2.383 -0.0650  0.2074 -0.0213
    4MOL0     H  473  11.088   2.969   2.435 -0.8930  1.2984  0.8221
    4MOL0     H  474  10.902   3.123   2.550  0.6649  0.4164 -1.3795
    4MOL0     H  475  10.699   3.016   2.755 -3.4497 -1.4637  2.1603
    4MOL0     H  476  10.718   3.178   2.694  2.2269 -1.3419  0.8531
    4MOL0     H  477  10.538   3.138   2.864  1.5137  0.8756 -0.2927
    4MOL0     H  478  10.450   3.038   2.752 -0.2201 -0.9445  0.3389
    4MOL0     H  479  10.440   3.226   2.588  1.3892  2.7535  0.9259
    4MOL0     H  480  10.498   3.327   2.724 -0.0834  1.7172 -0.3109
    4MOL0     H  481  10.238   3.164   2.714  2.6287 -0.2038 -3.3466
    4MOL0     H  482  10.303   3.249   2.858 -0.3579  0.7999 -0.0792
    4MOL0     H  483  10.307   3.446   2.704  0.4899 -1.5388 -0.4748
    4MOL0     H  484  10.207   3.347   2.589  1.9196 -2.5276 -0.4761
    4MOL0     H  485  10.125   3.420   2.871  3.2811  1.4829  0.9528
    4MOL0     H  486  10.081   3.519   2.723  1.5727 -0.0012 -0.7748
    4MOL0     H  487  10.020   3.245   2.761 -0.4585  0.5334  0.3962
    4MOL0     H  488   9.966   3.338   2.619 -0.4977  1.7632 -0.0714
    4MOL0     H  489   9.881   3.399   2.908 -1.3688 -1.7689  0.7574
    4MOL0     H  490   9.798   3.457   2.759 -3.7169 -1.3724  0.2827
    4MOL0     H  491   9.699   3.260   2.587 -0.3390 -2.0979 -1.2483
    4MOL0     H  492   9.540   3.074   2.552 -0.2047  4.6680  4.3875
    4MOL0     H  493   9.656   2.937   2.564  0.5626  0.4104 -0.6391
    4MOL0     H  494   9.540   2.885   2.793 -1.8239  1.7957  1.6338
    4MOL0     H  495   9.391   2.968   2.725 -0.1310  1.0451  1.8425
    4MOL0     H  496   9.512   2.736   2.584 -0.0592 -2.1671  0.6603
    4MOL0     H  497   9.364   2.827   2.559 -2.8014  2.0244  2.9664
    4MOL0     H  498   9.319   2.611   2.684  1.5601 -1.0644 -0.2968
    4MOL0     H  499   9.270   2.744   2.777  1.6939  1.3767  3.4862
    4MOL0     H  500   9.591   2.580   3.049 -0.8030 -0.5259 -1.4960
    4MOL0     H  501   9.496   2.437   3.241 -2.2712 -2.6154  2.1100
    4MOL0     H  502   9.109   2.546   3.497 -0.2226 -0.6733 -1.4671
    4MOL0     H  503   9.051   2.567   3.742 -0.8060 -0.2945 -1.3555
    4MOL0     H  504   9.164   2.251   4.032 -2.1748  0.5548 -1.1602
    4MOL0     H  505   9.288   2.375   4.078  1.4957  1.0777 -3.0475
    4MOL0     H  506   9.096   2.497   4.170  0.2641  0.0243 -1.3505
    4MOL0     H  507   8.997   2.359   4.144 -0.2872  1.9305 -1.2325
    4MOL0     H  508   9.278   2.340   4.279  0.0257 -0.0915 -1.2624
    4MOL0     H  509   9.135   2.409   4.375  1.9488  1.8437 -0.0530
    4MOL0     H  510   9.142   2.131   4.228  1.1854 -1.8925  1.4475
    4MOL0     H  511   9.013   2.198   4.333 -0.0189  0.2886  1.4212
    4MOL0     H  512   9.169   2.036   4.425  0.4135  0.8814 -0.4446
    4MOL0     H  513   9.159   2.182   4.533 -0.5039 -0.3666  0.5041
    4MOL0     H  514   9.387   2.113   4.343  1.4306 -2.8302  1.5637
    4MOL0     H  515   9.371   2.254   4.457 -1.5930 -0.1427  1.3738
    4MOL0     H  516   9.363   1.947   4.504 -1.2287  1.5581 -3.0160
    4MOL0     H  517   9.333   2.066   4.633 -0.4557 -0.2492 -0.3140
    4MOL0     H  518   9.571   2.159   4.597 -2.3337 -0.4186  1.5336
    4MOL0     H  519   9.556   2.005   4.671 -0.1545 -3.1866 -1.2877
    4MOL0     H  520   9.352   2.283   3.839  1.0709  2.4201  0.8533
    4MOL0     H  521   9.424   2.277   3.612 -0.3965  0.9952 -0.7102
    4MOL0     H  522   9.107   2.478   3.086 -1.3318  4.4403 -2.0415
    4MOL0     H  523   9.192   2.574   2.884  0.5657  0.3788 -0.7312
    4MOL0     H  524  10.609   2.858   2.404 -0.1515  1.1375  0.0926
    4MOL0     H  525  10.789   2.705   2.311  0.3226 -0.5079  1.2502
    4MOL0     H  526  11.204   2.632   2.032  2.3406 -1.0436 -1.7549
    4MOL0     H  527  11.404   2.487   2.062 -1.3021 -2.0002  3.6494
    4MOL0     H  528  11.631   2.437   2.040  3.3440 -1.1592 -0.3802
    4MOL0     H  529  11.564   2.346   2.187  1.8528 -3.4570 -2.0094
    4MOL0     H  530  11.795   2.293   2.113 -0.3459  1.0163 -1.0944
    4MOL0     H  531  11.770   2.320   2.284 -0.4687  0.8886  0.3438
    4MOL0     H  532  11.980   2.397   2.196 -1.3672 -2.8345 -2.2737
    4MOL0     H  533  11.883   2.536   2.264 -0.9151  1.6386 -1.2178
    4MOL0     H  534  11.824   2.613   2.021 -0.1444 -0.0065  0.1441
    4MOL0     H  535  11.982   2.620   2.082  0.8376 -2.1790  0.1471
    4MOL0     H  536  12.044   2.369   1.755 -2.7233  1.5516 -3.1075
    4MOL0     H  537  11.564   2.754   2.362 -2.5022  0.7312  2.2620
    4MOL0     H  538  11.295   3.005   2.334  0.0406  2.3600  3.0364
    4MOL0     H  539  11.303   2.902   2.477 -0.9289 -3.7130 -1.3267
    4MOL0     H  540  11.448   2.977   2.406 -0.6254  1.8651 -1.1510
    5MOL0     O  541   9.605   7.718   3.775 -0.3715  0.4403 -0.4983
    5MOL0     C  542   9.563   7.730   3.662 -0.2175  0.3010 -0.1581
    5MOL0     O  543   9.428   7.765   3.644  0.4490 -0.5114 -0.1787
    5MOL0     C  544   9.358   7.832   3.739 -0.3548  0.1071 -0.3813
    5MOL0     C  545   9.233   7.786   3.776  0.5103  0.1111 -0.6335
    5MOL0     C  546   9.135   7.854   3.858  0.1602  0.1120  0.5526
    5MOL0     C  547   9.170   7.979   3.898  0.5387 -0.5929  0.5410
    5MOL0     O  548   9.089   8.071   3.960 -0.1501 -0.1188 -0.2182
    5MOL0     C  549   8.952   8.044   3.985  0.7441  0.0842 -0.0735
    5MOL0     C  550   8.898   8.161   4.059 -0.7768 -0.1255  0.5533
    5MOL0     C  551   8.760   8.140   4.112 -0.5445  0.7871 -0.7987
    5MOL0     C  552   8.671   8.264   4.101 -0.1054  0.1655  0.4863
    5MOL0     C  553   8.524   8.241   4.136 -0.5343 -0.8062 -0.4455
    5MOL0     C  554   8.438   8.357   4.077 -0.6472  0.3897  0.0994
    5MOL0     C  555   8.308   8.408   4.156  0.5251 -0.2677 -0.3649
    5MOL0     C  556   8.362   8.465   4.290 -0.1096  0.4170  0.4409
    5MOL0     N  557   8.442   8.584   4.272  0.0461 -0.5230  0.2369
    5MOL0     C  558   8.398   8.708   4.239  0.6133  0.5271 -0.3507
    5MOL0     C  559   8.497   8.799   4.255 -0.0462 -0.0549  0.8246
    5MOL0     C  560   8.501   8.952   4.222 -0.4672  0.2490  0.0268
    5MOL0     C  561   8.573   8.979   4.093  0.1532 -0.8635  0.0741
    5MOL0     C  562   8.707   9.055   4.103  0.3052  0.6370 -0.5373
    5MOL0     C  563   8.817   8.955   4.156 -0.3045  0.4951 -0.4864
    5MOL0     O  564   8.942   9.015   4.184  0.6936  0.1374  0.7185
    5MOL0     C  565   9.051   8.992   4.103 -0.1883 -0.4203  0.3515
    5MOL0     C  566   9.181   8.999   4.161  0.1189 -0.0484  0.3665
    5MOL0     C  567   9.285   8.981   4.078  0.1362  0.2565  0.1239
    5MOL0     C  568   9.272   8.974   3.935  0.2181  0.2935 -0.5801
    5MOL0     C  569   9.399   8.972   3.853 -0.9399  0.7648 -0.0235
    5MOL0     O  570   9.377   8.953   3.724  0.2131  0.0577  0.3921
    5MOL0     C  571   9.466   8.939   3.620 -0.4809 -0.0461 -0.1168
    5MOL0     C  572   9.398   8.916   3.501 -0.5975 -0.1879 -0.1648
    5MOL0     C  573   9.467   8.850   3.402 -0.2375  0.5412  0.0335
    5MOL0     C  574   9.604   8.826   3.411  0.0900 -0.3633  0.9671
    5MOL0     O  575   9.667   8.757   3.308 -0.6266 -0.3004  0.1945
    5MOL0     C  576   9.785   8.676   3.323 -0.5677  0.0118  0.0072
    5MOL0     C  577   9.913   8.764   3.317 -0.6442  0.3604  0.1466
    5MOL0     C  578  10.027   8.681   3.255 -0.3359 -0.2203 -0.1641
    5MOL0     C  579  10.166   8.732   3.285  0.5955 -0.8376  0.2329
    5MOL0     C  580  10.224   8.683   3.420 -1.0056  0.2529  1.5174
    5MOL0     C  581  10.271   8.541   3.413 -0.1434  0.0051  0.3870
    5MOL0     C  582  10.271   8.470   3.539  0.3647  0.8485 -0.0238
    5MOL0     C  583  10.131   8.442   3.598 -0.0856 -0.4246  0.6311
    5MOL0    Cl  584  10.013   8.376   3.470  0.4281 -0.1334 -0.1333
    5MOL0     C  585   9.672   8.858   3.527 -0.3718  0.4602  0.2209
    5MOL0     C  586   9.601   8.922   3.629  0.0097 -0.2814 -1.0103
    5MOL0     O  587   9.507   8.961   3.913  0.7871 -0.4801 -0.0569
    5MOL0     C  588   9.142   8.982   3.877 -0.8252 -0.0688 -0.2502
    5MOL0     C  589   9.034   8.987   3.959  0.9925 -0.5669  0.1336
    5MOL0     N  590   8.608   8.719   4.272  0.2853 -0.7355 -0.0676
    5MOL0     N  591   8.576   8.596   4.285  0.5014 -0.1894 -0.3985
    5MOL0     C  592   9.297   8.032   3.865 -0.1511 -0.6287 -0.3669
    5MOL0     C  593   9.396   7.960   3.790  0.5108 -0.4435  0.6095
    5MOL0     C  594   9.651   7.717   3.537  0.4234 -0.7973  0.1813
    5MOL0     C  595   9.596   7.752   3.406  0.3825  0.2964 -0.2726
    5MOL0     C  596   9.667   7.726   3.294  0.6568 -0.9018 -0.8546
    5MOL0     C  597   9.800   7.688   3.300  0.2122  0.3167  0.4970
    5MOL0     O  598   9.862   7.686   3.170 -0.7760  0.5530 -0.1378
    5MOL0     C  599  10.003   7.638   3.175 -0.1920  0.2463  0.5065
    5MOL0     C  600  10.095   7.751   3.177 -0.4954 -0.2022  0.2790
    5MOL0     C  601  10.239   7.692   3.203  0.8010  0.6478  0.6385
    5MOL0     C  602  10.355   7.780   3.147  0.3101 -0.6368  0.0860
    5MOL0     C  603  10.486   7.713   3.170  0.1909 -0.7738 -0.2723
    5MOL0     C  604  10.590   7.653   3.188  0.6882 -0.9406  0.2157
    5MOL0     C  605   9.864   7.677   3.429  0.8164 -0.6991  0.3497
    5MOL0     C  606   9.786   7.676   3.542 -0.0580  0.2604 -0.1288
    5MOL0     C  607   9.864   7.644   3.669  0.4647 -0.1810 -0.2400
    5MOL0     H  608   9.212   7.688   3.735  0.0387 -1.1888  2.4352
    5MOL0     H  609   9.043   7.799   3.874  1.3797 -1.8910  0.9952
    5MOL0     H  610   8.905   8.044   3.886  0.3605  2.1212  0.0654
    5MOL0     H  611   8.942   7.947   4.034 -0.0351 -0.2497 -0.8842
    5MOL0     H  612   8.905   8.250   3.995  1.5386 -0.6357  0.0108
    5MOL0     H  613   8.970   8.195   4.134  0.0846  0.1341 -0.3726
    5MOL0     H  614   8.770   8.119   4.219  0.9591 -0.5108 -1.1441
    5MOL0     H  615   8.708   8.055   4.067 -3.7130  1.6140  0.9671
    5MOL0     H  616   8.719   8.348   4.153  2.0538  0.4721 -1.7752
    5MOL0     H  617   8.678   8.291   3.995  0.7387  1.1580  0.7766
    5MOL0     H  618   8.476   8.151   4.099 -0.6770 -1.8891  2.1896
    5MOL0     H  619   8.515   8.249   4.244  0.3449 -0.8940 -0.3548
    5MOL0     H  620   8.506   8.443   4.080  2.1711 -1.7119  0.3792
    5MOL0     H  621   8.414   8.335   3.973 -0.9596 -0.6007  0.3726
    5MOL0     H  622   8.232   8.331   4.173  1.0761 -0.1338  3.5424
    5MOL0     H  623   8.262   8.492   4.104 -1.6372 -0.0465  1.7424
    5MOL0     H  624   8.271   8.486   4.347 -1.3411 -0.7139 -1.0207
    5MOL0     H  625   8.418   8.390   4.347  0.0766 -0.2283 -0.5741
    5MOL0     H  626   8.299   8.746   4.218  0.8072 -0.1928 -2.9889
    5MOL0     H  627   8.394   8.974   4.212 -0.4422  0.4479  0.2014
    5MOL0     H  628   8.555   9.012   4.296 -2.6075  1.4592  0.7020
    5MOL0     H  629   8.594   8.877   4.057  1.3093 -1.9701  3.5064
    5MOL0     H  630   8.515   9.035   4.020  2.5180  0.2382 -1.0499
    5MOL0     H  631   8.696   9.140   4.171 -3.2283 -1.6008  2.0436
    5MOL0     H  632   8.743   9.095   4.007  2.6480  1.4817  0.6318
    5MOL0     H  633   8.835   8.874   4.084 -1.5926  0.8115 -1.1852
    5MOL0     H  634   8.783   8.910   4.250 -3.0458  1.6448 -0.8331
    5MOL0     H  635   9.189   9.023   4.267 -0.9233  2.8688 -0.1121
    5MOL0     H  636   9.382   8.967   4.124 -0.1591 -3.5538 -0.1064
    5MOL0     H  637   9.291   8.927   3.487 -0.4242 -1.4249 -3.3725
    5MOL0     H  638   9.419   8.805   3.316  3.8153 -3.9861 -0.2429
    5MOL0     H  639   9.774   8.611   3.410  0.2458 -0.9506 -0.5828
    5MOL0     H  640   9.794   8.606   3.239 -0.0438  1.3701 -1.1013
    5MOL0     H  641   9.895   8.846   3.248  1.2375  0.3616 -0.4080
    5MOL0     H  642   9.943   8.791   3.418 -0.3179 -1.3136  0.5310
    5MOL0     H  643  10.022   8.578   3.292 -0.4251 -1.0045 -2.2486
    5MOL0     H  644  10.025   8.684   3.146  0.0401 -0.1621 -0.1694
    5MOL0     H  645  10.159   8.841   3.272 -2.4425 -0.9775  0.0761
    5MOL0     H  646  10.226   8.694   3.201  0.2140  1.3949 -1.1463
    5MOL0     H  647  10.159   8.700   3.507 -1.9225 -0.6180  1.0314
    5MOL0     H  648  10.309   8.749   3.439 -1.3266  0.6610  1.5588
    5MOL0     H  649  10.209   8.489   3.340 -0.7167  4.1862 -2.4310
    5MOL0     H  650  10.372   8.549   3.372  0.2204 -3.0938  0.4776
    5MOL0     H  651  10.340   8.519   3.609 -0.0223 -0.6579  1.4998
    5MOL0     H  652  10.304   8.369   3.512 -2.8126  0.2693 -2.2493
    5MOL0     H  653  10.135   8.369   3.680  1.5914  0.7117  1.6241
    5MOL0     H  654  10.087   8.536   3.631  1.1624 -0.5357  2.8223
    5MOL0     H  655   9.778   8.841   3.541 -0.5714  1.0139  3.1174
    5MOL0     H  656   9.645   8.940   3.726 -1.4417  2.2428 -0.7383
    5MOL0     H  657   9.126   8.990   3.770 -0.5032 -2.1293 -0.4849
    5MOL0     H  658   8.935   9.004   3.919  0.3890 -0.1659  1.7219
    5MOL0     H  659   9.322   8.131   3.903 -2.3310  0.5484 -1.8343
    5MOL0     H  660   9.489   8.001   3.753  0.7129 -1.2916  0.1547
    5MOL0     H  661   9.496   7.794   3.406 -1.7773 -4.0560  2.2052
    5MOL0     H  662   9.617   7.741   3.199  3.2654 -0.3218 -2.2301
    5MOL0     H  663  10.021   7.564   3.096  0.5249  0.5289  0.3984
    5MOL0     H  664  10.008   7.565   3.255  3.9632 -0.1334  0.0722
    5MOL0     H  665  10.072   7.820   3.259  0.0851  0.4683 -0.1127
    5MOL0     H  666  10.094   7.801   3.080 -1.5343 -0.4488  0.1509
    5MOL0     H  667  10.230   7.598   3.148  1.1549  2.8551 -3.7058
    5MOL0     H  668  10.272   7.669   3.304  1.5138  1.0729  0.5111
    5MOL0     H  669  10.349   7.784   3.038 -2.7933 -0.5968  0.1703
    5MOL0     H  670  10.350   7.881   3.187  1.9650 -0.7785  0.7193
    5MOL0     H  671  10.689   7.617   3.206  1.2744  1.3058  1.9309
    5MOL0     H  672   9.969   7.652   3.435  0.9006 -0.0293  2.7781
    5MOL0     H  673   9.859   7.718   3.749  1.5997  0.3224 -0.6146
    5MOL0     H  674   9.824   7.560   3.727 -2.2498  1.1281 -0.0628
    5MOL0     H  675   9.973   7.637   3.660  0.6132 -1.2964  1.7453
    6MOL0     O  676   3.761   9.801   4.622  0.4100 -0.7503 -0.7913
    6MOL0     C  677   3.801   9.720   4.705  0.3012 -0.0283  0.1127
    6MOL0     O  678   3.736   9.604   4.739  0.5170  0.7981  0.1779
    6MOL0     C  679   3.600   9.617   4.736 -0.0842  0.1903  0.8950
    6MOL0     C  680   3.536   9.727   4.790  0.0427 -0.0259  0.6084
    6MOL0     C  681   3.397   9.730   4.812 -1.2227 -0.3366  0.5868
    6MOL0     C  682   3.316   9.608   4.785 -0.6201 -0.6563 -0.7935
    6MOL0     O  683   3.182   9.595   4.812 -0.0086 -0.6622 -0.2167
    6MOL0     C  684   3.106   9.720   4.798 -0.5390 -0.0243 -0.3907
    6MOL0     C  685   2.961   9.699   4.816  0.7353  0.2773 -0.0193
    6MOL0     C  686   2.908   9.665   4.946 -0.0551 -0.1531  0.2061
    6MOL0     C  687   2.761   9.693   4.963  0.3143 -0.0987  0.0510
    6MOL0     C  688   2.681   9.595   4.870  0.0000  0.1680  0.2995
    6MOL0     C  689   2.557   9.551   4.934  0.1223  0.0040 -0.1323
    6MOL0     C  690   2.561   9.495   5.082  0.0474 -0.2676 -0.9749
    6MOL0     C  691   2.430   9.426   5.127  0.0939 -1.0462 -1.2462
    6MOL0     N  692   2.409   9.308   5.044 -0.2256 -0.4736  0.1064
    6MOL0     C  693   2.349   9.295   4.918 -0.2426  0.0050  1.2555
    6MOL0     C  694   2.387   9.168   4.874 -0.0771 -1.5456 -0.4309
    6MOL0     C  695   2.379   9.127   4.732  0.9365 -0.4662 -0.4920
    6MOL0     C  696   2.503   9.170   4.666  0.2000  0.0703  0.4297
    6MOL0     C  697   2.507   9.136   4.513 -0.5151  0.4364  0.2896
    6MOL0     C  698   2.642   9.182   4.454 -0.2609  0.3092  0.2089
    6MOL0     O  699   2.633   9.318   4.448  0.1597 -0.0961  0.1324
    6MOL0     C  700   2.748   9.378   4.426  1.3104 -0.0739 -0.7476
    6MOL0     C  701   2.761   9.507   4.483  0.5410  1.3404 -0.5550
    6MOL0     C  702   2.892   9.573   4.468 -0.2675 -0.2854 -0.6911
    6MOL0     C  703   3.000   9.514   4.405 -0.5191  0.5657 -0.2321
    6MOL0     C  704   3.134   9.573   4.409  0.1049  0.6395  0.8304
    6MOL0     O  705   3.215   9.529   4.307  0.2018 -0.2338  0.5384
    6MOL0     C  706   3.330   9.591   4.256  0.8387  0.0179 -0.8857
    6MOL0     C  707   3.418   9.658   4.339  0.0577  0.1015  0.6083
    6MOL0     C  708   3.539   9.711   4.283 -0.2460  0.5327 -0.9875
    6MOL0     C  709   3.559   9.710   4.143  0.0332 -0.0455 -0.0237
    6MOL0     O  710   3.666   9.779   4.087  0.8236 -0.1043 -0.4137
    6MOL0     C  711   3.694   9.774   3.944 -0.2307 -0.0277  0.8109
    6MOL0     C  712   3.832   9.825   3.928  0.2276 -0.6018 -0.2155
    6MOL0     C  713   3.865   9.834   3.774 -0.5706 -0.5297 -0.0795
    6MOL0     C  714   3.825   9.975   3.719 -1.4591  0.0414  0.9689
    6MOL0     C  715   3.862   9.989   3.573  0.3251  0.3874 -0.0625
    6MOL0     C  716   3.796   9.876   3.486 -0.3014 -0.3216  0.1328
    6MOL0     C  717   3.833   9.900   3.340 -0.1606 -0.0113  0.8063
    6MOL0     C  718   3.768   9.809   3.236 -0.3055  0.1235 -0.0733
    6MOL0    Cl  719   3.592   9.831   3.252 -0.0415 -0.1025  0.6928
    6MOL0     C  720   3.465   9.642   4.070  0.0002 -0.0424  1.2608
    6MOL0     C  721   3.361   9.581   4.124  0.8438 -0.4486 -0.6438
    6MOL0     O  722   3.165   9.666   4.484 -0.2205  0.2681 -0.1511
    6MOL0     C  723   2.974   9.400   4.337  0.2145 -0.4796 -0.4310
    6MOL0     C  724   2.855   9.337   4.345 -1.0592  0.6882 -0.4049
    6MOL0     N  725   2.457   9.100   4.977 -0.0673  0.1067 -0.4331
    6MOL0     N  726   2.470   9.188   5.076  0.0038  0.2895  0.0148
    6MOL0     C  727   3.387   9.503   4.724 -0.9072 -0.0080 -0.2246
    6MOL0     C  728   3.523   9.510   4.694 -1.1174  0.6520  0.3559
    6MOL0     C  729   3.930   9.751   4.773  0.5029  0.4870  0.2301
    6MOL0     C  730   4.006   9.643   4.813 -0.8648  0.6600  1.3488
    6MOL0     C  731   4.131   9.658   4.881  0.4506 -0.7841 -0.6622
    6MOL0     C  732   4.179   9.783   4.908  1.0726 -0.4525  0.9944
    6MOL0     O  733   4.307   9.797   4.963  0.6150 -0.1954 -0.1607
    6MOL0     C  734   4.349   9.727   5.075  0.4571  0.0020 -0.0994
    6MOL0     C  735   4.331   9.829   5.192  0.4566 -0.2245 -0.8430
    6MOL0     C  736   4.383   9.967   5.175  0.2133 -0.3476 -0.7270
    6MOL0     C  737   4.337  10.080   5.274 -0.1405  1.3634 -0.4736
    6MOL0     C  738   4.382  10.066   5.417 -0.2531 -0.3203 -0.0824
    6MOL0     C  739   4.434  10.078   5.528  0.4626  0.5363  0.7484
    6MOL0     C  740   4.087   9.892   4.887 -0.0169 -0.0654 -0.4719
    6MOL0     C  741   3.963   9.880   4.811  0.3058 -0.4261 -0.2264
    6MOL0     C  742   3.885  10.010   4.780  0.1339 -0.1723  0.5777
    6MOL0     H  743   3.587   9.819   4.818 -1.4613  0.8752  0.4839
    6MOL0     H  744   3.360   9.821   4.859  2.2292  0.9648  1.0521
    6MOL0     H  745   3.123   9.789   4.882  3.0524  1.8423 -2.4219
    6MOL0     H  746   3.129   9.781   4.711 -0.0039  0.4403  0.0599
    6MOL0     H  747   2.920   9.629   4.743  0.7468  1.2279 -0.9748
    6MOL0     H  748   2.914   9.793   4.783 -1.6113 -0.8433 -0.0451
    6MOL0     H  749   2.948   9.744   5.010  1.5047 -0.9196  0.2056
    6MOL0     H  750   2.939   9.564   4.975  0.9692 -0.2116 -1.0173
    6MOL0     H  751   2.743   9.676   5.069 -0.3170 -2.1463 -0.3553
    6MOL0     H  752   2.749   9.798   4.933  3.7916  0.2564 -0.4580
    6MOL0     H  753   2.656   9.651   4.780  0.6170  0.0345  0.0391
    6MOL0     H  754   2.744   9.513   4.834  0.5463 -0.0619  1.7010
    6MOL0     H  755   2.494   9.640   4.939  1.0867  0.7004 -0.1880
    6MOL0     H  756   2.505   9.482   4.867 -1.9282  0.9128  0.4432
    6MOL0     H  757   2.566   9.575   5.157 -1.0370 -1.8094  0.8149
    6MOL0     H  758   2.648   9.430   5.099 -0.8460 -1.3263 -0.3586
    6MOL0     H  759   2.427   9.401   5.233  0.9410 -1.9525 -1.4122
    6MOL0     H  760   2.352   9.501   5.111  0.6601 -0.1187  0.1598
    6MOL0     H  761   2.301   9.374   4.861  2.4287  0.5331 -0.4595
    6MOL0     H  762   2.366   9.019   4.744  1.7959 -0.2636  3.7765
    6MOL0     H  763   2.288   9.164   4.683  0.0586 -2.5134 -0.5190
    6MOL0     H  764   2.505   9.279   4.678 -0.1428  0.1113  0.0951
    6MOL0     H  765   2.593   9.136   4.718  1.1502  2.6578  0.6521
    6MOL0     H  766   2.420   9.191   4.475 -0.0380 -0.2954 -2.0307
    6MOL0     H  767   2.492   9.028   4.504 -1.4196  0.6350 -0.9675
    6MOL0     H  768   2.666   9.140   4.356 -1.2390  0.5528 -0.1484
    6MOL0     H  769   2.721   9.160   4.526 -0.7309  0.4354  0.7765
    6MOL0     H  770   2.677   9.555   4.534 -0.1645  0.5185 -0.9112
    6MOL0     H  771   2.896   9.667   4.522 -1.8956  0.9021 -2.4884
    6MOL0     H  772   3.410   9.662   4.448 -4.4431  0.0126  0.4797
    6MOL0     H  773   3.606   9.771   4.345 -0.4465  1.5610 -1.7531
    6MOL0     H  774   3.681   9.674   3.901 -3.0360  0.9023 -0.7722
    6MOL0     H  775   3.629   9.842   3.888 -0.2921 -1.2260 -0.6194
    6MOL0     H  776   3.834   9.923   3.976  0.7991  0.1895 -1.7828
    6MOL0     H  777   3.913   9.765   3.969  1.9553  0.4472 -1.8684
    6MOL0     H  778   3.973   9.824   3.764 -0.5371  0.8433 -1.5106
    6MOL0     H  779   3.827   9.745   3.723 -3.0772  0.2733  0.2289
    6MOL0     H  780   3.864  10.039   3.798 -2.7552  0.9630  0.8932
    6MOL0     H  781   3.717   9.991   3.723 -1.6062 -0.9226  0.9280
    6MOL0     H  782   3.969   9.987   3.553  0.0617 -0.6034 -1.5120
    6MOL0     H  783   3.826  10.086   3.537  1.6865  1.2001  0.7012
    6MOL0     H  784   3.835   9.779   3.518 -0.5650 -0.0792  1.2225
    6MOL0     H  785   3.688   9.865   3.499 -0.1943 -4.3209 -0.9442
    6MOL0     H  786   3.942   9.905   3.329 -0.1382 -2.6218 -0.9707
    6MOL0     H  787   3.797   9.999   3.312 -2.6471 -0.3814  2.4302
    6MOL0     H  788   3.801   9.835   3.136 -0.3217 -1.9707 -0.6520
    6MOL0     H  789   3.795   9.704   3.246 -1.4213 -0.3123 -1.3716
    6MOL0     H  790   3.477   9.631   3.963  0.4789  1.5586  1.1250
    6MOL0     H  791   3.291   9.536   4.056  1.4218 -0.0410 -1.5213
    6MOL0     H  792   3.055   9.364   4.274  0.6613  1.8531 -1.2932
    6MOL0     H  793   2.845   9.246   4.287 -1.8634  0.3085  0.3037
    6MOL0     H  794   3.325   9.423   4.686 -0.6884  0.3104 -1.2623
    6MOL0     H  795   3.569   9.425   4.646  2.8495  2.6441  0.2309
    6MOL0     H  796   3.985   9.539   4.789  0.5596  0.4938  0.7304
    6MOL0     H  797   4.200   9.576   4.899  1.7300  0.6442  1.5121
    6MOL0     H  798   4.454   9.698   5.065  0.3264 -0.4485 -0.1974
    6MOL0     H  799   4.293   9.633   5.085 -0.5163  0.6864  1.3317
    6MOL0     H  800   4.367   9.780   5.283 -1.8536 -0.9089 -0.2279
    6MOL0     H  801   4.225   9.832   5.219  0.3649 -1.0071 -1.0862
    6MOL0     H  802   4.357  10.004   5.075 -2.6767 -0.0394  0.0662
    6MOL0     H  803   4.492   9.959   5.184 -0.0115 -0.7912  2.5902
    6MOL0     H  804   4.361  10.179   5.232 -1.3489  1.5016 -0.8520
    6MOL0     H  805   4.228  10.084   5.268 -0.1403  2.6580 -0.0341
    6MOL0     H  806   4.483  10.098   5.621 -0.8861 -0.3638  1.6906
    6MOL0     H  807   4.133   9.985   4.919  2.4134 -0.9641 -1.1047
    6MOL0     H  808   3.943  10.103   4.781  1.9542 -1.1939 -1.3060
    6MOL0     H  809   3.832  10.017   4.685  2.7002 -0.0880 -0.9512
    6MOL0     H  810   3.810  10.006   4.859  1.3933  0.8742  1.8901
    7MOL0     O  811   5.384   2.113   6.507  0.5073 -0.3881  0.6130
    7MOL0     C  812   5.374   2.089   6.382  0.3446  0.0873  0.3059
    7MOL0     O  813   5.421   1.975   6.328 -0.6380 -0.4991 -0.0377
    7MOL0     C  814   5.479   1.889   6.413 -0.3926 -0.1646 -1.1260
    7MOL0     C  815   5.612   1.909   6.466  0.4747  0.5369  0.1158
    7MOL0     C  816   5.665   1.814   6.562  0.4972  0.0169  0.7259
    7MOL0     C  817   5.602   1.698   6.607  0.5973  0.0699  0.8890
    7MOL0     O  818   5.671   1.612   6.690 -0.0860 -0.5050  1.1726
    7MOL0     C  819   5.593   1.525   6.775 -0.0771 -0.5149  1.8988
    7MOL0     C  820   5.680   1.445   6.860  0.9338  0.1319 -1.2751
    7MOL0     C  821   5.779   1.351   6.778 -0.3196 -0.0180 -0.9088
    7MOL0     C  822   5.702   1.245   6.712 -0.0739 -0.2584 -1.0211
    7MOL0     C  823   5.783   1.130   6.662 -0.2636  0.1816  0.4821
    7MOL0     C  824   5.811   1.010   6.753 -0.2847  0.5632 -0.2189
    7MOL0     C  825   5.907   1.045   6.866  0.7130 -0.5517 -0.0453
    7MOL0     C  826   5.991   0.920   6.910 -0.2494 -1.7099  0.3328
    7MOL0     N  827   5.914   0.850   7.009 -0.4105  0.2238 -0.9981
    7MOL0     C  828   5.902   0.879   7.140 -0.7242 -0.0035 -0.4912
    7MOL0     C  829   5.837   0.778   7.190 -0.1952 -0.1650  0.6394
    7MOL0     C  830   5.782   0.742   7.312  0.1581  0.7493 -0.1255
    7MOL0     C  831   5.656   0.813   7.364 -0.8772 -0.0706 -0.2107
    7MOL0     C  832   5.601   0.762   7.488 -0.4860 -0.0935  0.3392
    7MOL0     C  833   5.447   0.772   7.494 -0.7242 -0.1139  0.0386
    7MOL0     O  834   5.415   0.898   7.554  0.1191 -0.8145 -0.2923
    7MOL0     C  835   5.285   0.933   7.593  0.2936  0.0712  1.3023
    7MOL0     C  836   5.274   1.039   7.679  0.2291  0.8138 -0.1863
    7MOL0     C  837   5.147   1.070   7.729  0.0968  0.3527  0.7215
    7MOL0     C  838   5.038   0.995   7.712  0.3321 -0.2427 -0.5431
    7MOL0     C  839   4.914   1.017   7.777 -0.9822 -0.3789 -0.2089
    7MOL0     O  840   4.889   1.152   7.792 -0.5705 -0.0348  0.1848
    7MOL0     C  841   4.765   1.194   7.833  0.0826  0.5794  0.5270
    7MOL0     C  842   4.652   1.137   7.779 -0.1494  0.7159 -0.2590
    7MOL0     C  843   4.526   1.197   7.794 -0.5088  0.1972  0.5619
    7MOL0     C  844   4.506   1.294   7.891  0.1071 -0.0683 -0.5716
    7MOL0     O  845   4.382   1.345   7.925 -0.7159  0.4220  1.1404
    7MOL0     C  846   4.372   1.394   8.067  0.5427 -0.0544  0.0512
    7MOL0     C  847   4.221   1.421   8.104  0.2514  0.0562  0.0761
    7MOL0     C  848   4.160   1.523   8.017  0.5930 -0.0083  0.9281
    7MOL0     C  849   4.035   1.574   8.088 -0.4149 -0.1645 -0.4909
    7MOL0     C  850   3.985   1.698   8.012 -0.4017 -0.4602  0.5965
    7MOL0     C  851   3.915   1.809   8.101  0.3778 -0.7215 -0.9146
    7MOL0     C  852   3.788   1.760   8.153  0.9533  0.3423  0.1895
    7MOL0     C  853   3.710   1.837   8.251 -0.6493  0.2611  0.2212
    7MOL0    Cl  854   3.626   1.979   8.178 -0.3110  0.1660  0.3999
    7MOL0     C  855   4.623   1.336   7.959 -1.4646  0.3723  0.1517
    7MOL0     C  856   4.752   1.298   7.922 -0.4234 -0.6450  0.5112
    7MOL0     O  857   4.842   0.924   7.822 -0.2836 -0.2842  0.1156
    7MOL0     C  858   5.059   0.876   7.634 -0.8934  0.6956  0.0847
    7MOL0     C  859   5.175   0.852   7.563 -0.2123 -0.8916  0.1407
    7MOL0     N  860   5.826   0.688   7.089  0.6712  0.3102 -0.6038
    7MOL0     N  861   5.877   0.728   6.984 -0.2021  0.0523 -0.7037
    7MOL0     C  862   5.464   1.693   6.560 -0.0820 -0.6896  0.4496
    7MOL0     C  863   5.404   1.787   6.470 -0.4307  0.7699 -0.2877
    7MOL0     C  864   5.295   2.193   6.306  0.2488  0.6081  0.1868
    7MOL0     C  865   5.309   2.191   6.163  0.6659 -1.1111 -1.1891
    7MOL0     C  866   5.239   2.280   6.083  0.1679 -0.2089 -0.6157
    7MOL0     C  867   5.162   2.375   6.148 -1.2273 -1.0997  0.5841
    7MOL0     O  868   5.108   2.468   6.058 -0.0256  0.4280 -0.2936
    7MOL0     C  869   5.024   2.575   6.107  0.2814 -0.3654 -0.5362
    7MOL0     C  870   4.945   2.621   5.987 -0.3769  0.0693 -0.6804
    7MOL0     C  871   5.031   2.671   5.867 -0.4604 -0.4074  0.1602
    7MOL0     C  872   4.949   2.746   5.761 -0.1790 -0.3999 -0.7440
    7MOL0     C  873   5.043   2.802   5.658  0.2127  0.3603 -0.4915
    7MOL0     C  874   5.122   2.851   5.585 -0.0237 -0.2578 -0.4235
    7MOL0     C  875   5.140   2.374   6.283 -0.7920 -1.0429  0.1438
    7MOL0     C  876   5.194   2.279   6.366 -0.4735 -0.4025 -2.0758
    7MOL0     C  877   5.158   2.301   6.508 -0.2440  0.5076 -0.3508
    7MOL0     H  878   5.658   1.999   6.427  4.8787 -2.0515 -1.4895
    7MOL0     H  879   5.763   1.831   6.608 -0.5048  2.0704  2.2627
    7MOL0     H  880   5.515   1.581   6.827  0.5834  0.4390  1.8812
    7MOL0     H  881   5.538   1.462   6.705 -1.8128 -0.2453  2.9730
    7MOL0     H  882   5.619   1.388   6.930  0.1807  1.4419 -0.8350
    7MOL0     H  883   5.740   1.513   6.921  0.9580 -0.1716 -0.9541
    7MOL0     H  884   5.851   1.308   6.848  0.4128  0.8379 -1.1162
    7MOL0     H  885   5.826   1.414   6.702  2.7192  0.3512  1.0875
    7MOL0     H  886   5.627   1.209   6.782 -1.9769  2.4193 -1.5463
    7MOL0     H  887   5.653   1.287   6.624 -0.3007 -2.6979 -2.1555
    7MOL0     H  888   5.729   1.093   6.575  2.2884 -0.8922 -0.7400
    7MOL0     H  889   5.871   1.171   6.612 -1.1690  0.4618 -0.9247
    7MOL0     H  890   5.722   0.957   6.788  1.3034 -4.4480 -2.8577
    7MOL0     H  891   5.862   0.938   6.689 -2.4400 -1.2269 -0.0357
    7MOL0     H  892   5.855   1.107   6.940 -0.2328  1.8069 -2.4892
    7MOL0     H  893   5.970   1.122   6.819  0.8346 -0.1576  0.7380
    7MOL0     H  894   6.005   0.863   6.817  0.7513  3.1542 -2.8954
    7MOL0     H  895   6.091   0.950   6.942 -0.7694  1.6299 -0.7695
    7MOL0     H  896   5.928   0.973   7.187 -0.3959 -0.0010 -0.6794
    7MOL0     H  897   5.737   0.642   7.308 -1.9962  1.6744 -0.3303
    7MOL0     H  898   5.856   0.752   7.392 -1.4524  0.3785  1.5016
    7MOL0     H  899   5.675   0.921   7.370  0.4424 -0.3603  1.3266
    7MOL0     H  900   5.590   0.807   7.276  3.1130 -0.3104 -3.5194
    7MOL0     H  901   5.650   0.812   7.572 -1.2193 -0.6851  1.1372
    7MOL0     H  902   5.632   0.658   7.503 -1.4770 -0.1039  2.9179
    7MOL0     H  903   5.399   0.693   7.552 -1.2943  0.9066  1.0031
    7MOL0     H  904   5.405   0.752   7.395  0.0036  0.3948 -0.3858
    7MOL0     H  905   5.357   1.083   7.733 -2.2902  0.4182  4.5080
    7MOL0     H  906   5.152   1.141   7.811 -1.6719 -0.8008  1.9185
    7MOL0     H  907   4.663   1.053   7.710  1.4218 -1.6503  2.6357
    7MOL0     H  908   4.438   1.160   7.743  0.3141 -0.5197 -0.3828
    7MOL0     H  909   4.400   1.317   8.138 -1.3260 -1.2867 -0.4782
    7MOL0     H  910   4.429   1.487   8.079  0.0279  0.1832  0.7038
    7MOL0     H  911   4.166   1.327   8.119 -1.7606  1.1125 -0.4050
    7MOL0     H  912   4.232   1.471   8.201  2.9543  1.9177 -1.0879
    7MOL0     H  913   4.234   1.597   7.985  1.0754 -1.1270 -0.6863
    7MOL0     H  914   4.135   1.472   7.924 -1.3028 -3.4118  3.0677
    7MOL0     H  915   4.054   1.603   8.192 -3.8332  1.8289 -0.2863
    7MOL0     H  916   3.952   1.503   8.081 -1.7520  1.4205 -1.3632
    7MOL0     H  917   3.935   1.669   7.920  2.2033  1.1233 -1.4579
    7MOL0     H  918   4.073   1.759   7.989 -1.3573  1.1395  1.0149
    7MOL0     H  919   3.956   1.835   8.199  0.0250 -3.1748 -0.0644
    7MOL0     H  920   3.897   1.899   8.040  3.8289 -0.2262 -1.4068
    7MOL0     H  921   3.797   1.660   8.197  0.3162 -1.8481 -4.0384
    7MOL0     H  922   3.723   1.752   8.064  1.2983  1.2214 -0.1516
    7MOL0     H  923   3.633   1.773   8.296 -0.5859  0.3252  0.4217
    7MOL0     H  924   3.789   1.870   8.320  1.6886 -0.9586 -1.6912
    7MOL0     H  925   4.614   1.424   8.022 -0.6384  2.6594 -2.7242
    7MOL0     H  926   4.838   1.349   7.963 -1.5681  1.6807  0.1773
    7MOL0     H  927   4.978   0.810   7.604  0.6514 -1.8064  1.1928
    7MOL0     H  928   5.190   0.765   7.499 -0.9376 -0.8677 -0.0724
    7MOL0     H  929   5.399   1.615   6.599 -3.0274  1.2355 -0.2562
    7MOL0     H  930   5.302   1.774   6.436 -0.7792 -3.1622  1.7723
    7MOL0     H  931   5.378   2.122   6.116  1.8632 -0.3216 -0.6289
    7MOL0     H  932   5.242   2.296   5.976 -1.0664  3.2368 -0.2809
    7MOL0     H  933   5.088   2.652   6.152  0.7315  0.0380 -1.8118
    7MOL0     H  934   4.952   2.536   6.179  2.7845 -2.9983  0.7632
    7MOL0     H  935   4.873   2.693   6.029 -0.5156 -0.3873 -0.1195
    7MOL0     H  936   4.879   2.539   5.960 -2.5123  1.9878 -1.5370
    7MOL0     H  937   5.089   2.591   5.819 -2.0857 -0.6106 -1.5830
    7MOL0     H  938   5.110   2.743   5.893  1.3010 -2.1687 -0.0094
    7MOL0     H  939   4.876   2.677   5.718  0.1360 -1.4427  0.3206
    7MOL0     H  940   4.886   2.814   5.819 -1.7243 -2.5585  0.2626
    7MOL0     H  941   5.189   2.887   5.510  0.9146 -0.2679  0.3929
    7MOL0     H  942   5.089   2.458   6.328  1.8957  0.6841  0.1685
    7MOL0     H  943   5.132   2.204   6.550  0.5319 -0.6595 -2.4131
    7MOL0     H  944   5.247   2.347   6.552 -0.8599  1.1859  0.1908
    7MOL0     H  945   5.077   2.371   6.530 -1.0360 -1.2630  2.8342
    8MOL0     O  946   1.699   0.490   7.037 -0.0877 -0.4237 -0.0187
    8MOL0     C  947   1.654   0.576   6.954  0.3298 -0.7137 -0.2896
    8MOL0     O  948   1.527   0.590   6.924  0.3961 -0.0485  0.3858
    8MOL0     C  949   1.428   0.499   6.968  0.5252 -0.0457 -0.5133
    8MOL0     C  950   1.452   0.362   6.996  0.3557 -0.0517 -0.0078
    8MOL0     C  951   1.348   0.282   7.062  0.7076  0.8546 -0.2600
    8MOL0     C  952   1.222   0.345   7.083 -0.3261 -0.1504 -0.9021
    8MOL0     O  953   1.120   0.278   7.149 -0.7177 -0.4251 -0.2620
    8MOL0     C  954   1.160   0.242   7.282  0.0421 -0.4476  0.1434
    8MOL0     C  955   1.042   0.186   7.361  0.3107 -0.1914 -0.1134
    8MOL0     C  956   1.080   0.142   7.506  0.0050 -0.2387  0.8040
    8MOL0     C  957   1.143   0.248   7.599 -0.1338  0.1450 -0.8889
    8MOL0     C  958   1.178   0.199   7.746  1.1179 -0.2976  0.3706
    8MOL0     C  959   1.297   0.109   7.757 -1.1419 -0.2936  0.1302
    8MOL0     C  960   1.363   0.114   7.900 -0.0555 -0.1570 -0.9215
    8MOL0     C  961   1.497   0.036   7.914  0.6591  0.1316  0.5645
    8MOL0     N  962   1.559   0.027   8.045 -0.5553  0.3437 -0.5516
    8MOL0     C  963   1.530  -0.066   8.139 -0.4601 -0.3163 -0.2166
    8MOL0     C  964   1.554  -0.002   8.261 -0.1062  0.8427 -0.3443
    8MOL0     C  965   1.528  -0.040   8.404 -0.5546  0.2226 -0.0792
    8MOL0     C  966   1.433  -0.162   8.418 -0.2674  0.0866 -0.0347
    8MOL0     C  967   1.290  -0.123   8.377  0.0886  0.6297 -0.1930
    8MOL0     C  968   1.208  -0.249   8.392 -0.3390  0.8777  0.3031
    8MOL0     O  969   1.251  -0.349   8.299 -0.0237  0.4868 -0.2214
    8MOL0     C  970   1.208  -0.340   8.170  0.4277  0.0635 -0.2221
    8MOL0     C  971   1.312  -0.349   8.080  0.2359  0.2697 -0.9524
    8MOL0     C  972   1.294  -0.337   7.946 -0.4091 -0.0413  0.1242
    8MOL0     C  973   1.162  -0.321   7.893  0.3908 -0.0307  0.1695
    8MOL0     C  974   1.138  -0.308   7.747 -0.2931 -0.3858  0.1356
    8MOL0     O  975   1.013  -0.290   7.715 -0.4995  0.2892 -0.3806
    8MOL0     C  976   0.964  -0.257   7.585  0.1741 -0.2056 -0.4703
    8MOL0     C  977   0.834  -0.221   7.569 -0.1817 -0.5202  0.6398
    8MOL0     C  978   0.780  -0.169   7.454 -0.3191  0.3809  0.4510
    8MOL0     C  979   0.858  -0.152   7.337  0.4380 -0.2916  0.2996
    8MOL0     O  980   0.807  -0.097   7.221  0.8435  0.1164 -0.2452
    8MOL0     C  981   0.669  -0.053   7.219 -0.1648  0.3454  0.2882
    8MOL0     C  982   0.643   0.003   7.073 -0.2627  0.2346 -0.1133
    8MOL0     C  983   0.698   0.149   7.060  0.6769 -0.5731  0.6980
    8MOL0     C  984   0.690   0.193   6.910  0.5210 -0.6706  0.1702
    8MOL0     C  985   0.751   0.340   6.907 -0.5895 -0.5512  0.7754
    8MOL0     C  986   0.670   0.442   6.973  0.4099  0.2060  0.0767
    8MOL0     C  987   0.698   0.581   6.919 -0.3681 -0.9411 -0.0281
    8MOL0     C  988   0.617   0.707   6.977  0.3840  0.5610  0.1976
    8MOL0    Cl  989   0.557   0.691   7.150 -0.2776 -0.1279  0.1534
    8MOL0     C  990   0.988  -0.198   7.348 -0.0572  0.0235 -0.0480
    8MOL0     C  991   1.042  -0.250   7.471  0.4172  0.2317  1.0044
    8MOL0     O  992   1.232  -0.310   7.670  0.3691  0.3513 -0.1014
    8MOL0     C  993   1.060  -0.306   7.987 -0.3412 -1.0753 -0.3744
    8MOL0     C  994   1.080  -0.316   8.124  0.2310 -0.4624  0.1625
    8MOL0     N  995   1.603   0.127   8.238  1.1858  0.6369  0.3977
    8MOL0     N  996   1.601   0.135   8.105 -0.0780  0.6013  0.3256
    8MOL0     C  997   1.199   0.471   7.036  0.4062 -0.1020  0.4396
    8MOL0     C  998   1.298   0.545   6.979 -0.5119 -0.1101  0.3139
    8MOL0     C  999   1.745   0.657   6.873 -0.2063 -0.3310 -0.3289
    8MOL0     C 1000   1.700   0.706   6.749  0.4885  0.1333 -0.0360
    8MOL0     C 1001   1.791   0.752   6.647 -0.5122 -0.3338 -0.1636
    8MOL0     C 1002   1.930   0.758   6.683 -0.1706 -0.4213  0.0775
    8MOL0     O 1003   2.019   0.818   6.600 -0.7807  0.0034  0.2176
    8MOL0     C 1004   2.014   0.781   6.461 -0.8343  0.4499 -0.2658
    8MOL0     C 1005   2.145   0.813   6.391 -0.4515  0.8055 -0.6731
    8MOL0     C 1006   2.131   0.776   6.243  0.1196 -0.0619  0.4785
    8MOL0     C 1007   2.257   0.832   6.177 -0.1240 -0.9709  1.0977
    8MOL0     C 1008   2.242   0.974   6.143  0.2959  0.0389 -0.4203
    8MOL0     C 1009   2.234   1.088   6.103 -0.5037  0.8676 -0.3707
    8MOL0     C 1010   1.972   0.712   6.806  0.3921  0.7102  0.5059
    8MOL0     C 1011   1.884   0.667   6.906 -0.7317  0.4904 -0.4340
    8MOL0     C 1012   1.946   0.623   7.033  0.0642  0.1789  0.4136
    8MOL0     H 1013   1.549   0.313   6.988  0.7591  0.0139  3.1582
    8MOL0     H 1014   1.361   0.178   7.088 -3.0633  0.4872  0.7789
    8MOL0     H 1015   1.235   0.163   7.275  0.9388  0.2413  1.4879
    8MOL0     H 1016   1.206   0.326   7.335  0.0446 -0.7093  0.5578
    8MOL0     H 1017   1.006   0.093   7.317  0.0432  0.3924 -1.1610
    8MOL0     H 1018   0.953   0.250   7.355 -0.1869 -1.0183 -2.7074
    8MOL0     H 1019   1.133   0.047   7.498  1.1274  0.5188 -1.6791
    8MOL0     H 1020   0.985   0.125   7.558 -0.3211  2.6281  1.3521
    8MOL0     H 1021   1.237   0.270   7.549  0.9618 -0.7078  0.7200
    8MOL0     H 1022   1.085   0.341   7.600 -0.4370  0.1487  4.0087
    8MOL0     H 1023   1.205   0.289   7.802  0.6426  0.8404 -1.1557
    8MOL0     H 1024   1.090   0.145   7.781  0.5968  0.3682  0.1278
    8MOL0     H 1025   1.262   0.005   7.749 -2.3179  0.0883  0.1589
    8MOL0     H 1026   1.368   0.139   7.679  0.5572 -3.1473  0.4079
    8MOL0     H 1027   1.296   0.075   7.977  2.4820  0.9578  2.0554
    8MOL0     H 1028   1.381   0.222   7.901  0.3820 -0.2263 -0.3505
    8MOL0     H 1029   1.472  -0.067   7.889 -0.3450  0.7229 -0.9807
    8MOL0     H 1030   1.574   0.057   7.840 -1.7124  0.4103 -1.9699
    8MOL0     H 1031   1.484  -0.164   8.130  1.9941 -1.3607 -3.7058
    8MOL0     H 1032   1.621  -0.079   8.446 -1.3512 -1.4224  0.2618
    8MOL0     H 1033   1.496   0.047   8.461 -0.7834 -1.4607  2.5447
    8MOL0     H 1034   1.470  -0.248   8.362 -0.9310 -0.4324  0.3173
    8MOL0     H 1035   1.436  -0.182   8.526  0.9523 -0.6253 -0.1804
    8MOL0     H 1036   1.289  -0.069   8.282 -0.8964  1.2923  0.1772
    8MOL0     H 1037   1.259  -0.040   8.441 -0.1413  1.3805 -1.2610
    8MOL0     H 1038   1.103  -0.221   8.383 -0.9294 -1.4650 -0.7678
    8MOL0     H 1039   1.220  -0.301   8.488  0.4740  1.6461  0.6339
    8MOL0     H 1040   1.409  -0.365   8.126  0.9534  1.4400 -2.0018
    8MOL0     H 1041   1.378  -0.334   7.878  1.6059  0.5092  2.5332
    8MOL0     H 1042   0.771  -0.213   7.658  0.1648  2.8525  0.7224
    8MOL0     H 1043   0.678  -0.135   7.446 -0.2784  0.0547 -3.0265
    8MOL0     H 1044   0.595  -0.133   7.232  0.9677 -0.7755  0.0114
    8MOL0     H 1045   0.649   0.026   7.292  0.7403 -1.6931  2.9067
    8MOL0     H 1046   0.666  -0.063   6.989 -4.2733 -1.5510 -0.0345
    8MOL0     H 1047   0.534   0.008   7.063 -0.1652 -1.6002 -3.6397
    8MOL0     H 1048   0.626   0.206   7.119 -1.8157 -4.2028  1.5632
    8MOL0     H 1049   0.802   0.169   7.089 -0.1818  2.7360  1.9623
    8MOL0     H 1050   0.586   0.187   6.877  0.0751  1.7611  0.9672
    8MOL0     H 1051   0.748   0.121   6.850  2.0389  0.1079  0.6499
    8MOL0     H 1052   0.757   0.366   6.801  1.6027 -2.1362  0.4555
    8MOL0     H 1053   0.850   0.352   6.951  0.1764  1.3666 -1.2556
    8MOL0     H 1054   0.566   0.410   6.973  0.2547  0.2805 -3.7750
    8MOL0     H 1055   0.705   0.441   7.077 -0.3467 -3.0249  0.4112
    8MOL0     H 1056   0.678   0.579   6.812 -2.8809 -0.5709  0.3529
    8MOL0     H 1057   0.800   0.610   6.944 -1.0686  1.6466  0.1097
    8MOL0     H 1058   0.688   0.789   6.968  4.1862 -2.6254 -2.3676
    8MOL0     H 1059   0.525   0.736   6.926 -0.1556 -0.2336  0.6767
    8MOL0     H 1060   1.052  -0.190   7.260  1.0097 -1.3935  0.5643
    8MOL0     H 1061   1.137  -0.302   7.463  0.6836  0.9179 -0.8428
    8MOL0     H 1062   0.957  -0.306   7.954 -1.0368 -4.5444  1.3893
    8MOL0     H 1063   0.998  -0.302   8.194  1.3220  2.5051  0.9635
    8MOL0     H 1064   1.101   0.515   7.055 -0.0571 -1.0310  0.3133
    8MOL0     H 1065   1.281   0.651   6.964  1.3733 -0.0644 -2.0113
    8MOL0     H 1066   1.593   0.707   6.728  0.6047  3.3676 -0.9370
    8MOL0     H 1067   1.741   0.800   6.564  1.5201  0.1735 -1.1525
    8MOL0     H 1068   1.920   0.823   6.424 -3.4100 -3.2355  1.4718
    8MOL0     H 1069   1.996   0.673   6.460 -1.9966  0.4366  3.5985
    8MOL0     H 1070   2.226   0.758   6.440 -0.1701  1.1715 -0.7216
    8MOL0     H 1071   2.166   0.919   6.410  3.5152 -0.0582  0.7731
    8MOL0     H 1072   2.038   0.808   6.195 -0.7345 -4.0624 -0.9524
    8MOL0     H 1073   2.131   0.667   6.238 -2.2358 -0.2338  2.3649
    8MOL0     H 1074   2.355   0.816   6.224 -0.3621 -0.8079  1.6580
    8MOL0     H 1075   2.265   0.778   6.082 -0.7530  1.5592 -0.4670
    8MOL0     H 1076   2.234   1.192   6.076  0.1311  0.6531 -1.2573
    8MOL0     H 1077   2.080   0.717   6.816  0.5187  0.7948 -0.7131
    8MOL0     H 1078   1.936   0.516   7.054 -0.5110  0.1152 -0.1475
    8MOL0     H 1079   2.054   0.639   7.033  0.6537 -3.1493  1.1266
    8MOL0     H 1080   1.900   0.688   7.109 -2.6177  0.1907 -1.1024
    9MOL0     O 1081  11.156   4.172  10.344 -0.5963  1.0705  0.3471
    9MOL0     C 1082  11.164   4.213  10.460 -0.4937 -0.0496  0.2175
    9MOL0     O 1083  11.083   4.300  10.515  0.4459 -0.5273  0.5491
    9MOL0     C 1084  10.949   4.324  10.483 -0.9779 -0.3314  0.1624
    9MOL0     C 1085  10.864   4.373  10.586 -0.2145  0.3059 -0.6270
    9MOL0     C 1086  10.727   4.394  10.576 -0.1338  0.1730 -0.2475
    9MOL0     C 1087  10.666   4.371  10.455  0.6364 -0.0560 -0.0678
    9MOL0     O 1088  10.529   4.390  10.445  0.1233 -0.3462 -0.2635
    9MOL0     C 1089  10.503   4.513  10.373 -0.6277 -0.3297  0.1227
    9MOL0     C 1090  10.351   4.523  10.345 -0.5202 -0.3557 -0.8861
    9MOL0     C 1091  10.313   4.648  10.263  0.5903 -0.0813 -0.2776
    9MOL0     C 1092  10.162   4.641  10.240  0.2935 -0.2220  0.0760
    9MOL0     C 1093  10.091   4.754  10.162  0.2923 -0.0068  0.8362
    9MOL0     C 1094  10.078   4.873  10.258  0.7612  0.0683 -0.3326
    9MOL0     C 1095   9.993   4.852  10.382 -0.7626 -0.0868 -0.4621
    9MOL0     C 1096   9.956   4.997  10.445  0.2630 -0.2307 -0.5182
    9MOL0     N 1097   9.837   5.055  10.390 -0.1369 -1.0591 -0.4200
    9MOL0     C 1098   9.707   5.003  10.402  1.3054 -0.7175  0.3317
    9MOL0     C 1099   9.630   5.068  10.309 -0.8622 -1.2414  0.3011
    9MOL0     C 1100   9.483   5.045  10.279 -0.4875 -0.7117 -0.6392
    9MOL0     C 1101   9.401   5.174  10.246  0.8244 -1.2625 -0.4439
    9MOL0     C 1102   9.406   5.265  10.376  0.4024 -0.2854 -0.4620
    9MOL0     C 1103   9.273   5.275  10.465 -1.1038  0.2436  0.1665
    9MOL0     O 1104   9.156   5.254  10.389  0.0226  0.0769 -0.1632
    9MOL0     C 1105   9.044   5.335  10.399  0.2002 -0.6634  0.2489
    9MOL0     C 1106   8.926   5.289  10.334 -0.1685 -0.1737 -0.4447
    9MOL0     C 1107   8.811   5.354  10.332 -0.1041  0.3505 -0.4837
    9MOL0     C 1108   8.798   5.471  10.402  0.1174  0.0864  0.6913
    9MOL0     C 1109   8.666   5.543  10.413  0.3942 -0.0393 -0.3325
    9MOL0     O 1110   8.578   5.507  10.324  0.3016 -0.8975  0.0258
    9MOL0     C 1111   8.463   5.578  10.310  0.0443 -0.4841  1.0484
    9MOL0     C 1112   8.424   5.659  10.196 -0.4325  1.3675 -1.2327
    9MOL0     C 1113   8.298   5.731  10.205 -0.2267 -0.8573  0.0679
    9MOL0     C 1114   8.212   5.713  10.309 -0.0692 -0.5602  1.1499
    9MOL0     O 1115   8.099   5.797  10.294  0.4717  0.4663 -0.4135
    9MOL0     C 1116   8.009   5.806  10.403  0.3913  0.5497  0.8824
    9MOL0     C 1117   7.916   5.919  10.354 -0.2812  0.3549  0.0639
    9MOL0     C 1118   7.795   5.946  10.441  0.5688 -0.4063  0.6276
    9MOL0     C 1119   7.700   6.052  10.389 -0.3288  0.4653 -0.3055
    9MOL0     C 1120   7.602   6.020  10.278 -0.6058 -0.1634  0.5678
    9MOL0     C 1121   7.521   6.145  10.246  0.2872  0.6977 -0.9859
    9MOL0     C 1122   7.446   6.140  10.110 -1.1051  0.5512 -0.2576
    9MOL0     C 1123   7.384   6.268  10.083 -0.4561 -0.7049  0.7076
    9MOL0    Cl 1124   7.502   6.388  10.001 -0.3814 -0.4001 -0.1696
    9MOL0     C 1125   8.240   5.630  10.412  0.1101  0.7694  0.3029
    9MOL0     C 1126   8.364   5.570  10.416 -0.7777  0.1270 -0.0114
    9MOL0     O 1127   8.648   5.607  10.514  0.5618  0.0394  0.2955
    9MOL0     C 1128   8.908   5.519  10.470  0.0082 -0.4007 -0.0482
    9MOL0     C 1129   9.035   5.454  10.480 -0.2266  0.2774  0.2625
    9MOL0     N 1130   9.710   5.171  10.245 -0.7007  0.2931 -0.8091
    9MOL0     N 1131   9.832   5.157  10.289 -0.9835 -0.1949 -0.4533
    9MOL0     C 1132  10.741   4.327  10.349 -0.0800  0.0170 -1.1110
    9MOL0     C 1133  10.878   4.305  10.361 -0.1830 -0.5021  0.5210
    9MOL0     C 1134  11.284   4.167  10.541  0.5364 -1.3535 -0.7664
    9MOL0     C 1135  11.275   4.189  10.682  0.1347 -0.8212  0.1178
    9MOL0     C 1136  11.371   4.147  10.774  0.2791  0.0494 -0.1272
    9MOL0     C 1137  11.478   4.069  10.723 -0.3106 -0.0397  0.3025
    9MOL0     O 1138  11.581   4.029  10.814  1.1884  0.2143  0.3221
    9MOL0     C 1139  11.657   3.919  10.781 -0.4937  1.0073  0.3831
    9MOL0     C 1140  11.579   3.793  10.771 -0.5789  0.2415  0.5954
    9MOL0     C 1141  11.670   3.673  10.734 -0.8801  0.8162 -0.3562
    9MOL0     C 1142  11.760   3.607  10.839  0.1392 -0.1536 -0.0927
    9MOL0     C 1143  11.681   3.549  10.946 -0.0166  0.1786  0.4150
    9MOL0     C 1144  11.591   3.496  11.018  0.2687 -1.1254  0.9369
    9MOL0     C 1145  11.481   4.027  10.593  0.8640  0.5264  0.0028
    9MOL0     C 1146  11.383   4.075  10.500  0.2297  0.3435  0.0891
    9MOL0     C 1147  11.404   4.033  10.354 -1.0111 -0.0842 -0.5342
    9MOL0     H 1148  10.903   4.387  10.686 -3.3665 -1.1142  0.9424
    9MOL0     H 1149  10.665   4.422  10.661  0.1576 -1.9321  0.7453
    9MOL0     H 1150  10.536   4.595  10.438 -0.8568 -0.2566  0.1453
    9MOL0     H 1151  10.555   4.506  10.277  0.5578 -0.0642  0.7192
    9MOL0     H 1152  10.292   4.536  10.435 -2.2890  4.1250 -2.4371
    9MOL0     H 1153  10.340   4.425  10.296  0.4275 -1.3861  0.8789
    9MOL0     H 1154  10.360   4.657  10.164  3.6467 -0.8861  0.9961
    9MOL0     H 1155  10.343   4.741  10.313 -0.3202 -1.3509  2.8108
    9MOL0     H 1156  10.139   4.551  10.181 -1.6216  2.0477 -2.9266
    9MOL0     H 1157  10.112   4.615  10.334 -2.2829  2.4067 -0.4269
    9MOL0     H 1158  10.141   4.780  10.069 -1.0534  3.0442  0.8362
    9MOL0     H 1159   9.987   4.727  10.138  0.6809 -1.6869  0.9401
    9MOL0     H 1160  10.171   4.923  10.288  1.8033  0.4430 -3.7436
    9MOL0     H 1161  10.019   4.947  10.204 -1.0062 -2.7753 -2.5993
    9MOL0     H 1162  10.048   4.805  10.464 -0.5781  1.7050  0.5056
    9MOL0     H 1163   9.902   4.796  10.362  0.6982 -2.2932 -1.2656
    9MOL0     H 1164   9.929   4.991  10.550 -5.7680 -3.3525 -1.7775
    9MOL0     H 1165  10.044   5.060  10.433  2.6017 -3.6048 -3.5829
    9MOL0     H 1166   9.664   4.926  10.464 -2.1422  0.9784  0.3052
    9MOL0     H 1167   9.475   4.978  10.193  1.8269 -3.3815  1.0339
    9MOL0     H 1168   9.429   5.001  10.364 -2.0736  0.7311 -0.8352
    9MOL0     H 1169   9.457   5.224  10.167  0.0083 -0.1536 -0.3597
    9MOL0     H 1170   9.304   5.152  10.201 -0.8226 -1.1271  2.7418
    9MOL0     H 1171   9.429   5.368  10.346 -0.9008  0.4430  0.8621
    9MOL0     H 1172   9.486   5.239  10.445 -0.8314 -2.4726  0.2539
    9MOL0     H 1173   9.272   5.363  10.530 -0.5334  2.4523 -2.6569
    9MOL0     H 1174   9.283   5.183  10.523  1.9383 -0.0871 -0.7315
    9MOL0     H 1175   8.931   5.191  10.289 -1.2480 -0.9016  0.9342
    9MOL0     H 1176   8.740   5.310  10.262  0.4641  1.1470 -1.5972
    9MOL0     H 1177   8.503   5.675  10.124  0.4381 -0.5958 -0.7836
    9MOL0     H 1178   8.252   5.784  10.122  1.1930 -1.6496 -1.2894
    9MOL0     H 1179   7.953   5.712  10.408  2.2151 -0.8371 -2.0785
    9MOL0     H 1180   8.047   5.844  10.499 -3.1285  3.5538  1.2955
    9MOL0     H 1181   7.977   6.009  10.340  2.4095 -1.5921 -1.8274
    9MOL0     H 1182   7.881   5.892  10.254  1.5527 -1.6833 -0.1099
    9MOL0     H 1183   7.730   5.858  10.449 -0.0809 -0.0317 -0.3123
    9MOL0     H 1184   7.819   5.978  10.543 -2.1222 -0.8802  1.4867
    9MOL0     H 1185   7.760   6.139  10.364 -1.3606  0.5365 -2.7990
    9MOL0     H 1186   7.634   6.072  10.475  0.3911 -1.5059  0.7671
    9MOL0     H 1187   7.543   5.931  10.300  2.7364 -2.5941  0.4284
    9MOL0     H 1188   7.657   5.987  10.190  2.7262 -0.7862  2.6991
    9MOL0     H 1189   7.450   6.148  10.329  1.7762  0.6189  0.3472
    9MOL0     H 1190   7.578   6.238  10.247  2.7253 -0.5599 -4.2075
    9MOL0     H 1191   7.366   6.065  10.107 -1.6242  0.9926 -5.1606
    9MOL0     H 1192   7.516   6.109  10.032 -0.2082 -1.2786  1.1823
    9MOL0     H 1193   7.291   6.250  10.028 -1.5229 -1.7457  2.7254
    9MOL0     H 1194   7.347   6.324  10.170 -0.4785  1.4890 -0.6404
    9MOL0     H 1195   8.182   5.623  10.504 -0.6966 -1.7453 -0.3406
    9MOL0     H 1196   8.384   5.510  10.503  0.7327  3.3301  2.0120
    9MOL0     H 1197   8.881   5.592  10.546 -0.3270 -0.4770 -0.0925
    9MOL0     H 1198   9.111   5.497  10.544 -0.9384 -2.3262  3.1237
    9MOL0     H 1199  10.686   4.314  10.257 -0.8630  3.7809 -1.3220
    9MOL0     H 1200  10.938   4.277  10.275  0.1976  2.1681 -0.1801
    9MOL0     H 1201  11.193   4.252  10.715 -0.6866 -1.2689 -1.0441
    9MOL0     H 1202  11.373   4.175  10.879 -2.2348 -2.7741  0.8130
    9MOL0     H 1203  11.727   3.906  10.864 -1.9454  0.4923  1.5780
    9MOL0     H 1204  11.706   3.917  10.684  0.7800  0.2415  1.0136
    9MOL0     H 1205  11.508   3.794  10.688  1.6665  0.2632 -1.4444
    9MOL0     H 1206  11.533   3.784  10.870 -2.8070  0.0696 -0.4048
    9MOL0     H 1207  11.740   3.687  10.650  1.4998 -4.6268  0.2444
    9MOL0     H 1208  11.602   3.597  10.695  1.5487 -0.4410 -2.5163
    9MOL0     H 1209  11.796   3.517  10.790  0.1569  0.4367 -1.2031
    9MOL0     H 1210  11.843   3.668  10.875  0.6522  1.2915 -3.3900
    9MOL0     H 1211  11.507   3.470  11.079  0.4452 -1.5054  1.0262
    9MOL0     H 1212  11.561   3.961  10.560  1.2015 -0.9711  3.3144
    9MOL0     H 1213  11.487   3.961  10.347 -0.9349 -0.7506  4.1025
    9MOL0     H 1214  11.315   3.981  10.319 -2.3483  1.7209  0.0664
    9MOL0     H 1215  11.430   4.119  10.291 -0.5627 -1.1512 -1.8677
   10MOL0     O 1216   8.116  10.125   1.831 -0.1841  0.3092 -0.0094
   10MOL0     C 1217   8.082  10.222   1.894  0.8824 -0.3549  0.4510
   10MOL0     O 1218   7.962  10.289   1.890 -0.2023  0.5041  0.8162
   10MOL0     C 1219   7.868  10.248   1.796 -0.3300  0.3489 -0.2586
   10MOL0     C 1220   7.864  10.309   1.669  0.3155  0.8188  0.0057
   10MOL0     C 1221   7.773  10.262   1.573  0.7581 -0.1324 -0.2190
   10MOL0     C 1222   7.684  10.166   1.605 -0.9528 -0.7307 -0.1938
   10MOL0     O 1223   7.594  10.125   1.518  0.3239 -0.1428  0.1282
   10MOL0     C 1224   7.631   9.995   1.464 -0.7813 -0.8648  0.5237
   10MOL0     C 1225   7.524   9.945   1.372 -0.1836  0.0374 -0.0342
   10MOL0     C 1226   7.522   9.791   1.344 -0.1321 -0.5429  0.4324
   10MOL0     C 1227   7.493   9.701   1.471  0.1760 -0.7372 -0.3501
   10MOL0     C 1228   7.416   9.580   1.420 -1.0272 -0.1544  0.6347
   10MOL0     C 1229   7.264   9.605   1.419 -0.1083 -0.5446  0.5862
   10MOL0     C 1230   7.204   9.474   1.361 -0.2828  0.1616 -0.4161
   10MOL0     C 1231   7.189   9.365   1.469  1.0221  0.1973 -1.1706
   10MOL0     N 1232   7.087   9.262   1.436 -1.3172 -0.2509  0.2349
   10MOL0     C 1233   7.079   9.180   1.328 -0.1238  0.6562 -0.3646
   10MOL0     C 1234   6.965   9.113   1.341  0.2496  0.1436  0.1257
   10MOL0     C 1235   6.917   9.008   1.253 -0.4980  0.7898  0.2503
   10MOL0     C 1236   6.926   8.868   1.312 -0.3017  0.6058  0.3123
   10MOL0     C 1237   6.830   8.777   1.241 -0.9436  0.6229  0.5815
   10MOL0     C 1238   6.828   8.643   1.318 -0.3466  0.8550  0.0589
   10MOL0     O 1239   6.697   8.584   1.294 -0.2252  0.1447 -0.3068
   10MOL0     C 1240   6.659   8.470   1.362  0.9979 -0.0012  0.8631
   10MOL0     C 1241   6.703   8.451   1.500  0.2151  0.1323  0.3826
   10MOL0     C 1242   6.660   8.330   1.551 -0.6473 -0.0998  0.0899
   10MOL0     C 1243   6.599   8.228   1.474 -0.1349 -0.3717  0.2770
   10MOL0     C 1244   6.568   8.088   1.539  0.4039  0.3138  0.3482
   10MOL0     O 1245   6.528   7.987   1.458  0.0246 -0.2069 -0.6356
   10MOL0     C 1246   6.488   7.875   1.523  0.3418  1.5549  0.1462
   10MOL0     C 1247   6.354   7.857   1.557 -0.0456  0.9057 -0.4340
   10MOL0     C 1248   6.314   7.740   1.620  0.6342 -0.7111  0.4344
   10MOL0     C 1249   6.395   7.627   1.629 -0.0193 -0.2738 -0.4030
   10MOL0     O 1250   6.360   7.501   1.676  0.9955 -0.0083 -0.5349
   10MOL0     C 1251   6.303   7.484   1.802 -0.3855  0.1017  0.1141
   10MOL0     C 1252   6.236   7.345   1.811  0.2748  0.2088 -0.7340
   10MOL0     C 1253   6.321   7.225   1.833 -0.8343  0.0110  0.1806
   10MOL0     C 1254   6.229   7.109   1.867  0.3512  0.5025  0.5390
   10MOL0     C 1255   6.284   6.965   1.825  1.4291  0.5255  0.9749
   10MOL0     C 1256   6.424   6.936   1.888 -0.3622 -0.8137 -0.1291
   10MOL0     C 1257   6.440   6.954   2.039 -0.4838 -0.5369  0.3947
   10MOL0     C 1258   6.332   6.866   2.115  0.1405 -0.2848 -0.1732
   10MOL0    Cl 1259   6.309   6.699   2.051  0.3597 -0.2005 -0.1033
   10MOL0     C 1260   6.531   7.640   1.591 -1.0046 -0.1909  0.0733
   10MOL0     C 1261   6.579   7.764   1.547 -0.5508  0.0705  0.9146
   10MOL0     O 1262   6.572   8.091   1.663  0.5994  0.3180 -0.4298
   10MOL0     C 1263   6.552   8.254   1.345  0.2000  0.4691 -0.6723
   10MOL0     C 1264   6.580   8.382   1.292  1.2586  0.6450  0.2732
   10MOL0     N 1265   6.896   9.158   1.453 -1.0408  0.0666 -0.1932
   10MOL0     N 1266   6.974   9.249   1.510 -0.7292 -0.7433 -0.3583
   10MOL0     C 1267   7.681  10.122   1.735 -1.2039 -0.3768  0.2843
   10MOL0     C 1268   7.769  10.164   1.834  0.3031 -0.1740 -0.0802
   10MOL0     C 1269   8.168  10.274   2.008 -0.3210 -1.5210  0.1354
   10MOL0     C 1270   8.105  10.278   2.133  0.5570  0.1192 -0.1615
   10MOL0     C 1271   8.172  10.328   2.243  0.0879  0.8921 -0.3171
   10MOL0     C 1272   8.310  10.365   2.238  0.0540  0.3255 -0.4059
   10MOL0     O 1273   8.385  10.397   2.348  0.5665 -0.7742 -1.1466
   10MOL0     C 1274   8.386  10.292   2.448  0.2290  0.1008  0.9714
   10MOL0     C 1275   8.480  10.308   2.568 -0.1311  0.4390  0.6829
   10MOL0     C 1276   8.460  10.441   2.633  0.0276 -1.2161 -0.2072
   10MOL0     C 1277   8.330  10.456   2.706 -0.2464  0.2349 -0.4126
   10MOL0     C 1278   8.303  10.597   2.742  0.1015  0.3074  0.7061
   10MOL0     C 1279   8.288  10.713   2.766 -0.4532 -1.1358  0.2435
   10MOL0     C 1280   8.362  10.377   2.109 -1.0345 -0.3383  0.3855
   10MOL0     C 1281   8.293  10.337   1.992 -0.3228 -0.0775  0.7857
   10MOL0     C 1282   8.347  10.351   1.850 -1.2202 -0.0271 -0.3208
   10MOL0     H 1283   7.937  10.385   1.645  1.9255 -0.3488  0.9695
   10MOL0     H 1284   7.750  10.303   1.475 -3.5519 -1.6781 -0.0485
   10MOL0     H 1285   7.720   9.999   1.401  1.0462 -4.2822  2.5271
   10MOL0     H 1286   7.649   9.923   1.545  1.3841 -1.5221 -0.4430
   10MOL0     H 1287   7.545   9.988   1.274 -2.2944  2.0371  0.2981
   10MOL0     H 1288   7.426   9.981   1.402 -1.5534 -2.0759 -1.6913
   10MOL0     H 1289   7.618   9.764   1.299 -0.8400  0.3174 -1.6885
   10MOL0     H 1290   7.454   9.765   1.263  1.3260 -1.9913 -0.4015
   10MOL0     H 1291   7.582   9.679   1.531  0.1647  0.1258 -0.0116
   10MOL0     H 1292   7.417   9.746   1.535  0.8194  0.2911 -0.2860
   10MOL0     H 1293   7.450   9.560   1.317 -0.4128  1.7035  0.4371
   10MOL0     H 1294   7.435   9.496   1.487 -0.3502  1.0125  1.9515
   10MOL0     H 1295   7.229   9.640   1.516  0.8917  3.5141 -0.2886
   10MOL0     H 1296   7.238   9.688   1.352 -1.6143 -0.1591  1.6169
   10MOL0     H 1297   7.267   9.441   1.278 -1.1017 -2.5545 -0.0889
   10MOL0     H 1298   7.105   9.498   1.320  1.2159  1.9412 -3.2776
   10MOL0     H 1299   7.286   9.316   1.482  0.7330 -0.6424 -2.0829
   10MOL0     H 1300   7.160   9.407   1.566  0.4245 -0.7511 -0.9177
   10MOL0     H 1301   7.144   9.166   1.242  1.6938  0.3043  1.0143
   10MOL0     H 1302   6.813   9.026   1.227  0.1880 -0.1734 -3.9490
   10MOL0     H 1303   6.955   9.014   1.150 -4.4211  2.3549 -1.2901
   10MOL0     H 1304   7.021   8.818   1.294 -1.0551 -1.1917  1.1613
   10MOL0     H 1305   6.902   8.873   1.418  3.5389  4.9955  1.3383
   10MOL0     H 1306   6.854   8.768   1.135 -1.0060  1.9791  0.4322
   10MOL0     H 1307   6.730   8.821   1.233 -1.3172 -0.1668  0.8825
   10MOL0     H 1308   6.847   8.653   1.425 -0.6914  0.3418  0.1682
   10MOL0     H 1309   6.902   8.573   1.277  1.1754  1.8839  0.9345
   10MOL0     H 1310   6.757   8.523   1.562  0.0150 -0.4751  1.2831
   10MOL0     H 1311   6.697   8.304   1.649  0.7908  3.3172  0.6044
   10MOL0     H 1312   6.284   7.935   1.529 -1.9491 -0.9603 -1.1202
   10MOL0     H 1313   6.213   7.727   1.657  0.3030  0.8949  0.1534
   10MOL0     H 1314   6.383   7.484   1.878 -0.0524  0.6070 -0.2323
   10MOL0     H 1315   6.229   7.564   1.815  0.5628  0.8627  1.0306
   10MOL0     H 1316   6.160   7.354   1.889  0.3257  2.7412 -0.8965
   10MOL0     H 1317   6.186   7.329   1.715  0.7486 -0.1759 -0.9208
   10MOL0     H 1318   6.371   7.185   1.744 -2.4975 -1.3699 -0.1955
   10MOL0     H 1319   6.403   7.242   1.903  1.7344  1.3546 -2.9065
   10MOL0     H 1320   6.135   7.108   1.810 -0.4951 -2.4567  1.7606
   10MOL0     H 1321   6.199   7.121   1.972 -1.7476  4.0761 -0.3126
   10MOL0     H 1322   6.290   6.954   1.717 -1.5833 -1.0910  0.8561
   10MOL0     H 1323   6.214   6.883   1.847  2.2339 -0.6522 -0.6331
   10MOL0     H 1324   6.449   6.833   1.862  0.6605 -0.3285 -1.1703
   10MOL0     H 1325   6.505   6.994   1.844  2.5386 -2.2261  2.9373
   10MOL0     H 1326   6.420   7.057   2.071 -3.1162 -0.2112 -1.8542
   10MOL0     H 1327   6.538   6.916   2.069 -0.9120 -0.6939  1.6268
   10MOL0     H 1328   6.364   6.863   2.219 -0.1191  0.0863 -0.0825
   10MOL0     H 1329   6.237   6.918   2.104 -0.4363 -1.7187 -3.1923
   10MOL0     H 1330   6.594   7.556   1.620 -1.0078  0.2983  1.5478
   10MOL0     H 1331   6.687   7.776   1.546  0.0130 -3.6023 -0.8577
   10MOL0     H 1332   6.495   8.182   1.287  0.0727 -0.8944  1.0673
   10MOL0     H 1333   6.543   8.400   1.191 -1.7396 -0.9934  0.9715
   10MOL0     H 1334   7.604  10.046   1.748  1.4933 -3.9265 -2.3899
   10MOL0     H 1335   7.762  10.130   1.937  0.6918  0.1834  0.0654
   10MOL0     H 1336   8.008  10.233   2.150  0.3866  1.0775  1.8342
   10MOL0     H 1337   8.131  10.323   2.343  0.9329  0.5476  0.0241
   10MOL0     H 1338   8.416  10.203   2.392 -1.1919 -1.8440  3.0458
   10MOL0     H 1339   8.285  10.274   2.487  1.0424  1.9248  4.3230
   10MOL0     H 1340   8.586  10.295   2.543 -0.3987 -2.5052  0.7469
   10MOL0     H 1341   8.452  10.239   2.648 -2.5803  2.6391  1.8851
   10MOL0     H 1342   8.467  10.521   2.558  1.2327  0.4245  1.5538
   10MOL0     H 1343   8.545  10.460   2.699 -0.1983  3.7498 -0.9481
   10MOL0     H 1344   8.252  10.399   2.654 -0.1696 -1.6450  1.3955
   10MOL0     H 1345   8.346  10.393   2.794 -2.1647 -0.9979 -0.8838
   10MOL0     H 1346   8.266  10.818   2.772 -2.3495 -1.5490  1.4669
   10MOL0     H 1347   8.461  10.420   2.092 -1.6147  0.8700 -0.0097
   10MOL0     H 1348   8.436  10.414   1.844  0.8427 -2.5161  1.6708
   10MOL0     H 1349   8.363  10.253   1.802 -3.2464 -0.9869  0.8407
   10MOL0     H 1350   8.278  10.407   1.787 -0.8428  2.4359  1.3286
   11MOL0     O 1351   3.269   9.448   1.014  0.1560 -0.3714  0.3608
   11MOL0     C 1352   3.331   9.439   1.119  0.5415 -0.4301  0.3647
   11MOL0     O 1353   3.466   9.400   1.140  0.9685 -0.3604 -0.5205
   11MOL0     C 1354   3.514   9.332   1.030  1.1156  0.1208  0.5821
   11MOL0     C 1355   3.650   9.360   1.011 -0.0282  0.4943  0.7152
   11MOL0     C 1356   3.714   9.300   0.897  0.5295  0.1340  0.1292
   11MOL0     C 1357   3.653   9.211   0.822 -0.9595  0.8127  1.1486
   11MOL0     O 1358   3.725   9.152   0.719 -0.1868  0.4908 -0.4669
   11MOL0     C 1359   3.788   9.242   0.618 -0.0563  0.2552  0.6223
   11MOL0     C 1360   3.779   9.155   0.491  0.1181 -0.8145 -0.1600
   11MOL0     C 1361   3.876   9.208   0.384 -0.5597  0.2534 -0.2141
   11MOL0     C 1362   3.861   9.339   0.337 -0.0929 -0.4924  0.1867
   11MOL0     C 1363   3.728   9.383   0.280  1.0455  0.1987 -1.0243
   11MOL0     C 1364   3.680   9.289   0.164 -0.2191 -0.7702 -0.0555
   11MOL0     C 1365   3.576   9.355   0.065  0.4973 -0.3006  0.4508
   11MOL0     C 1366   3.450   9.403   0.142  1.0433 -0.8800  0.5411
   11MOL0     N 1367   3.372   9.293   0.203  0.5406 -0.7660 -0.6166
   11MOL0     C 1368   3.379   9.259   0.340 -0.6278 -0.2148  0.0101
   11MOL0     C 1369   3.279   9.168   0.354  0.3257  0.8844 -0.0814
   11MOL0     C 1370   3.213   9.093   0.469 -0.9380  0.3312 -0.7514
   11MOL0     C 1371   3.111   9.186   0.549 -0.5772  1.0028  0.6639
   11MOL0     C 1372   3.193   9.282   0.639  0.2517  0.1654  0.3853
   11MOL0     C 1373   3.109   9.383   0.715 -0.2932  0.9292  0.6077
   11MOL0     O 1374   3.023   9.315   0.813 -0.3135 -0.2761 -0.6301
   11MOL0     C 1375   2.960   9.394   0.911 -0.2698  0.2980 -1.1347
   11MOL0     C 1376   2.947   9.532   0.904 -0.0808  1.1981  0.7837
   11MOL0     C 1377   2.880   9.597   1.002 -0.1003  0.1486  0.1838
   11MOL0     C 1378   2.801   9.537   1.101 -0.6840  0.1383  0.1566
   11MOL0     C 1379   2.728   9.615   1.206  0.2766  0.3673  0.7867
   11MOL0     O 1380   2.724   9.748   1.189  0.4833  0.1493 -1.1642
   11MOL0     C 1381   2.672   9.832   1.280 -0.8110  1.4702 -0.7944
   11MOL0     C 1382   2.656   9.808   1.425 -0.5272  0.0806 -0.7147
   11MOL0     C 1383   2.605   9.905   1.502  0.2771  0.6693  0.0876
   11MOL0     C 1384   2.548  10.018   1.439  0.6986 -0.0099  0.2020
   11MOL0     O 1385   2.488  10.119   1.516 -0.3327 -0.0463  0.1426
   11MOL0     C 1386   2.579  10.216   1.574  0.1192 -0.0170  0.4622
   11MOL0     C 1387   2.513  10.290   1.688  0.1477 -0.2221 -0.5415
   11MOL0     C 1388   2.452  10.192   1.791 -0.5655  1.1249  0.2909
   11MOL0     C 1389   2.556  10.090   1.850  0.1759 -0.0494 -1.2862
   11MOL0     C 1390   2.486   9.991   1.946  0.3280 -0.3828 -0.1998
   11MOL0     C 1391   2.591   9.926   2.049 -0.9046  0.4102  0.4622
   11MOL0     C 1392   2.708   9.842   1.995  0.7560  1.3287  0.3783
   11MOL0     C 1393   2.650   9.718   1.916  0.2987 -0.1105  1.1427
   11MOL0    Cl 1394   2.772   9.630   1.819  0.2755  0.0801  0.6795
   11MOL0     C 1395   2.551  10.036   1.300 -0.8456 -0.3431 -0.5856
   11MOL0     C 1396   2.632   9.955   1.229  0.5184  0.4670 -0.0937
   11MOL0     O 1397   2.680   9.547   1.297  0.0350  0.2171 -0.2384
   11MOL0     C 1398   2.819   9.398   1.113 -0.7308 -0.3835  0.0212
   11MOL0     C 1399   2.892   9.329   1.018  0.1827 -0.2300  0.0974
   11MOL0     N 1400   3.226   9.136   0.238  0.6307  0.1629  0.2031
   11MOL0     N 1401   3.274   9.217   0.143  0.2566 -0.6137 -0.5420
   11MOL0     C 1402   3.516   9.178   0.841 -0.6051  0.9981  0.1417
   11MOL0     C 1403   3.443   9.244   0.941  0.5886  0.4678 -0.4061
   11MOL0     C 1404   3.257   9.486   1.246  0.4683 -1.0945  0.5436
   11MOL0     C 1405   3.122   9.468   1.272  0.7096 -0.0852 -0.0515
   11MOL0     C 1406   3.048   9.521   1.388 -0.2107 -0.3584  0.4684
   11MOL0     C 1407   3.116   9.594   1.479  0.1589  0.1637 -0.6225
   11MOL0     O 1408   3.036   9.629   1.593 -1.2718 -0.9520  0.4985
   11MOL0     C 1409   3.094   9.737   1.674  0.7477 -0.5819  0.7785
   11MOL0     C 1410   3.176   9.680   1.777  0.2423  0.1033 -0.2364
   11MOL0     C 1411   3.220   9.782   1.887  0.6602  0.3335  0.1589
   11MOL0     C 1412   3.318   9.889   1.837  0.3088  0.5257 -0.3533
   11MOL0     C 1413   3.343   9.984   1.945 -0.1195 -0.1588 -0.5052
   11MOL0     C 1414   3.370  10.035   2.046 -0.6117 -0.1402 -0.3274
   11MOL0     C 1415   3.260   9.616   1.459  0.4140 -1.1247 -0.3065
   11MOL0     C 1416   3.327   9.567   1.345 -0.5883 -0.0685 -0.2458
   11MOL0     C 1417   3.473   9.594   1.346 -0.1614  0.3139  0.2612
   11MOL0     H 1418   3.706   9.416   1.085  0.9459 -0.7165  0.9326
   11MOL0     H 1419   3.819   9.309   0.870  0.1855  1.0226 -0.9894
   11MOL0     H 1420   3.735   9.338   0.613  4.6789  3.2182  1.4818
   11MOL0     H 1421   3.893   9.259   0.643  0.1467  0.6174 -0.4220
   11MOL0     H 1422   3.680   9.131   0.450  1.2602 -0.5318 -3.3361
   11MOL0     H 1423   3.816   9.054   0.513 -0.3842 -0.9373  0.1501
   11MOL0     H 1424   3.873   9.148   0.293 -0.4396  2.4815 -1.7423
   11MOL0     H 1425   3.979   9.199   0.422 -0.5850  0.1878 -0.1597
   11MOL0     H 1426   3.890   9.401   0.422  0.5874 -0.5440  0.0004
   11MOL0     H 1427   3.934   9.358   0.257  1.1927  1.9886  1.7954
   11MOL0     H 1428   3.659   9.382   0.365  1.4201 -3.2754 -0.6158
   11MOL0     H 1429   3.725   9.487   0.247 -0.6294  1.6894  3.1568
   11MOL0     H 1430   3.761   9.256   0.099  0.0218  0.6155 -0.4941
   11MOL0     H 1431   3.636   9.209   0.223 -0.9369  1.5502  2.7980
   11MOL0     H 1432   3.538   9.291  -0.015  0.7106  3.5739 -3.1239
   11MOL0     H 1433   3.613   9.438   0.004 -0.8248  0.5661  0.7737
   11MOL0     H 1434   3.478   9.479   0.214  2.2774  3.4779 -3.9657
   11MOL0     H 1435   3.387   9.461   0.073  1.2633  0.5556  1.5133
   11MOL0     H 1436   3.452   9.300   0.409  2.8626  1.9091 -4.4006
   11MOL0     H 1437   3.159   9.012   0.420  0.2441  0.5943 -2.5737
   11MOL0     H 1438   3.297   9.048   0.522 -2.9244 -1.8618  0.7822
   11MOL0     H 1439   3.059   9.251   0.478  2.9462  3.9090  0.5012
   11MOL0     H 1440   3.042   9.120   0.604  2.3095 -1.6373  1.3874
   11MOL0     H 1441   3.260   9.328   0.566 -1.0976 -3.5503 -3.5922
   11MOL0     H 1442   3.257   9.227   0.709  0.3843 -1.2312 -0.8011
   11MOL0     H 1443   3.048   9.451   0.655 -0.3212 -0.4754 -1.0274
   11MOL0     H 1444   3.178   9.444   0.774  1.5901 -0.0653 -0.4670
   11MOL0     H 1445   2.989   9.584   0.818  1.2616 -4.0146 -2.1664
   11MOL0     H 1446   2.891   9.705   1.003  1.4625  0.0224  0.3267
   11MOL0     H 1447   2.714   9.738   1.485  2.7406  3.4577  0.4782
   11MOL0     H 1448   2.617   9.901   1.610  2.2874  2.1606 -0.0298
   11MOL0     H 1449   2.674  10.167   1.596  0.0666 -0.5217 -0.3766
   11MOL0     H 1450   2.597  10.282   1.488  0.3478 -2.5705 -1.5835
   11MOL0     H 1451   2.583  10.364   1.728 -1.7115  1.0378  0.5965
   11MOL0     H 1452   2.428  10.352   1.659 -0.4801  0.5133  2.4749
   11MOL0     H 1453   2.395  10.235   1.874 -4.7727  1.3903 -2.4894
   11MOL0     H 1454   2.377  10.131   1.741  0.6786  1.0411 -1.5865
   11MOL0     H 1455   2.632  10.148   1.903  0.2145  0.7728 -2.2029
   11MOL0     H 1456   2.605  10.033   1.770  2.0697  2.3411 -1.9658
   11MOL0     H 1457   2.431   9.914   1.891  2.3085 -0.2613 -2.5211
   11MOL0     H 1458   2.418  10.043   2.013  1.0909 -0.2105  0.4533
   11MOL0     H 1459   2.638  10.003   2.111 -2.2728  1.6565  0.0052
   11MOL0     H 1460   2.537   9.860   2.118 -0.4525 -1.3126 -0.7485
   11MOL0     H 1461   2.759   9.796   2.080  2.0035  0.3894 -0.8368
   11MOL0     H 1462   2.775   9.900   1.932 -0.6051  0.1001 -2.3738
   11MOL0     H 1463   2.620   9.644   1.990  1.9201 -0.9864  0.9786
   11MOL0     H 1464   2.565   9.742   1.851  0.3512 -1.7454  0.4321
   11MOL0     H 1465   2.503  10.125   1.259  0.8582  2.6880  3.2837
   11MOL0     H 1466   2.650   9.984   1.125 -0.8114  1.2830 -0.1314
   11MOL0     H 1467   2.772   9.338   1.190 -1.4009 -2.9148 -2.2150
   11MOL0     H 1468   2.897   9.222   1.032 -3.2787 -0.3831  1.0801
   11MOL0     H 1469   3.468   9.113   0.769 -0.1939 -2.3731  2.6367
   11MOL0     H 1470   3.338   9.225   0.960  0.8462 -2.2000 -1.2973
   11MOL0     H 1471   3.066   9.411   1.199  0.8839 -2.4168  1.5370
   11MOL0     H 1472   2.940   9.511   1.388 -0.2307 -0.3566 -0.7732
   11MOL0     H 1473   3.013   9.790   1.724  1.2577  0.0376  0.9583
   11MOL0     H 1474   3.154   9.807   1.615  0.1637 -0.1669  0.6680
   11MOL0     H 1475   3.255   9.622   1.726 -0.1326  0.1199 -0.8423
   11MOL0     H 1476   3.119   9.604   1.831 -1.5886  0.7130 -1.2405
   11MOL0     H 1477   3.265   9.728   1.971  1.1144  1.2215  0.5035
   11MOL0     H 1478   3.129   9.831   1.924  0.7071 -0.2774  1.1333
   11MOL0     H 1479   3.413   9.841   1.810  0.1827 -0.4887  0.9570
   11MOL0     H 1480   3.267   9.931   1.749 -0.2574  0.9215  0.1592
   11MOL0     H 1481   3.393  10.076   2.143 -5.3772 -0.1906  1.0496
   11MOL0     H 1482   3.310   9.682   1.529 -3.6791  3.7396 -1.3299
   11MOL0     H 1483   3.493   9.669   1.422  0.3145 -2.0358  2.6036
   11MOL0     H 1484   3.520   9.506   1.390 -2.2097 -1.3156 -0.6241
   11MOL0     H 1485   3.514   9.622   1.249  2.5441 -0.9875  0.9413
   12MOL0     O 1486   9.278   4.711  10.042  0.2309 -0.4117 -1.0124
   12MOL0     C 1487   9.257   4.821  10.096 -0.7650  0.8502 -0.2685
   12MOL0     O 1488   9.252   4.947  10.031 -0.4600  0.1772  0.0352
   12MOL0     C 1489   9.267   4.980   9.899  0.4975 -0.1848 -0.9346
   12MOL0     C 1490   9.298   5.116   9.869 -1.5042 -0.5238 -0.2179
   12MOL0     C 1491   9.337   5.148   9.743 -0.6839 -0.8086  1.9938
   12MOL0     C 1492   9.320   5.060   9.636 -0.7443  0.2469 -0.0581
   12MOL0     O 1493   9.350   5.091   9.502 -0.3934  0.1771 -0.0101
   12MOL0     C 1494   9.485   5.073   9.460 -0.0439  0.0535 -0.1909
   12MOL0     C 1495   9.505   5.097   9.309  0.8454  0.1644  0.3564
   12MOL0     C 1496   9.459   5.248   9.276  0.2530  1.2103  0.4093
   12MOL0     C 1497   9.314   5.253   9.222 -0.3442 -0.6376 -0.2651
   12MOL0     C 1498   9.252   5.393   9.210 -0.6821 -0.4018  0.4136
   12MOL0     C 1499   9.109   5.405   9.251  0.1552 -0.8060 -0.4645
   12MOL0     C 1500   9.050   5.545   9.266 -0.3430  0.2141  0.4173
   12MOL0     C 1501   9.092   5.612   9.392  0.4732  0.1378  0.1820
   12MOL0     N 1502   9.031   5.752   9.408  0.3725 -0.1683 -0.1681
   12MOL0     C 1503   9.072   5.850   9.496  0.5278 -0.8355 -0.0811
   12MOL0     C 1504   9.002   5.962   9.455 -0.0247  0.6793  0.5382
   12MOL0     C 1505   9.000   6.090   9.529 -0.8137 -0.1645 -0.5880
   12MOL0     C 1506   8.885   6.183   9.496  1.1251 -0.3205  0.9378
   12MOL0     C 1507   8.752   6.116   9.547  0.7821 -0.2786  0.6749
   12MOL0     C 1508   8.644   6.211   9.511  0.4838  0.0308  0.4635
   12MOL0     O 1509   8.627   6.230   9.370 -1.0098 -0.9797  0.9004
   12MOL0     C 1510   8.525   6.314   9.335  0.5923 -0.8572  0.1848
   12MOL0     C 1511   8.543   6.451   9.334 -0.3584  0.2327  0.2601
   12MOL0     C 1512   8.447   6.539   9.283  0.7760 -1.3250  0.4298
   12MOL0     C 1513   8.335   6.478   9.219  0.5510 -0.0916  0.4216
   12MOL0     C 1514   8.229   6.560   9.152  1.0299  0.0728  0.9205
   12MOL0     O 1515   8.257   6.689   9.117  0.4781  0.2874  0.1326
   12MOL0     C 1516   8.151   6.767   9.086  0.2269  0.4119 -0.8759
   12MOL0     C 1517   8.055   6.792   9.187 -0.2282  0.2888 -0.6002
   12MOL0     C 1518   7.945   6.875   9.161 -0.5077 -0.7629 -0.3123
   12MOL0     C 1519   7.939   6.945   9.039  0.7398 -1.4922 -0.4654
   12MOL0     O 1520   7.849   7.048   9.005  0.4500  0.8283  0.1030
   12MOL0     C 1521   7.849   7.156   9.099 -0.2011  0.6439 -0.7125
   12MOL0     C 1522   7.943   7.260   9.031  0.8917  0.5797 -0.8634
   12MOL0     C 1523   7.991   7.345   9.152  0.4457  0.6657  0.8079
   12MOL0     C 1524   8.085   7.463   9.112 -0.0966 -0.3533 -0.7285
   12MOL0     C 1525   8.139   7.551   9.230  0.1244 -0.1986  0.6545
   12MOL0     C 1526   8.032   7.627   9.297 -1.1994 -0.6011  0.3193
   12MOL0     C 1527   8.080   7.676   9.426  0.6785 -0.4497  0.2003
   12MOL0     C 1528   7.974   7.739   9.504  0.0917  0.1824 -1.2025
   12MOL0    Cl 1529   7.870   7.605   9.559  0.2356 -0.2149 -0.1640
   12MOL0     C 1530   8.043   6.935   8.949  0.2890 -0.0045  0.1053
   12MOL0     C 1531   8.138   6.847   8.970 -0.2643 -0.5127  0.0907
   12MOL0     O 1532   8.121   6.506   9.132 -0.1319 -0.4564 -0.2650
   12MOL0     C 1533   8.311   6.336   9.235  0.2794 -0.5928  0.8194
   12MOL0     C 1534   8.407   6.254   9.287 -0.0530  0.7220 -0.5485
   12MOL0     N 1535   8.917   5.933   9.355  0.2853 -0.5461 -0.4345
   12MOL0     N 1536   8.936   5.809   9.321  0.1150  0.6379 -0.4713
   12MOL0     C 1537   9.286   4.932   9.665  0.5035 -0.0477  0.1612
   12MOL0     C 1538   9.264   4.885   9.796 -0.1702 -0.3012  0.2997
   12MOL0     C 1539   9.218   4.807  10.243  0.8058 -0.7166 -0.5590
   12MOL0     C 1540   9.168   4.924  10.306 -0.7434  0.2910  0.2651
   12MOL0     C 1541   9.141   4.942  10.439  0.2254  0.1545  0.8637
   12MOL0     C 1542   9.152   4.833  10.523  0.3645 -0.8648 -0.4390
   12MOL0     O 1543   9.124   4.863  10.650 -0.0893  0.1792  0.4115
   12MOL0     C 1544   9.081   4.754  10.731 -0.1709 -0.7701  0.0503
   12MOL0     C 1545   9.013   4.805  10.861  0.2810 -0.4089 -0.9228
   12MOL0     C 1546   8.867   4.830  10.831 -0.2913  1.3158  0.2980
   12MOL0     C 1547   8.790   4.881  10.953 -0.3948  0.3357 -0.2430
   12MOL0     C 1548   8.767   4.765  11.036  0.1395  0.6448 -0.1431
   12MOL0     C 1549   8.750   4.670  11.107 -0.0739 -0.2492  0.4938
   12MOL0     C 1550   9.193   4.710  10.463  0.2689  0.4311 -0.0590
   12MOL0     C 1551   9.221   4.699  10.332  0.1790  0.5164  0.5071
   12MOL0     C 1552   9.283   4.564  10.270  0.8360 -0.2315 -0.6755
   12MOL0     H 1553   9.322   5.185   9.948 -3.2276  2.4082 -2.0545
   12MOL0     H 1554   9.374   5.247   9.717 -2.0035 -0.4338  1.4686
   12MOL0     H 1555   9.539   5.147   9.520 -1.9212  0.3229  1.2397
   12MOL0     H 1556   9.514   4.972   9.490 -4.1983 -1.8666 -1.8758
   12MOL0     H 1557   9.471   5.025   9.235 -5.8116  1.3495  1.5792
   12MOL0     H 1558   9.612   5.096   9.287  0.2035  2.2500 -3.7416
   12MOL0     H 1559   9.520   5.278   9.191 -0.3605  0.2515 -0.3952
   12MOL0     H 1560   9.482   5.324   9.351  2.5402  1.7434 -0.7496
   12MOL0     H 1561   9.329   5.216   9.120 -3.2475  0.5196 -1.2181
   12MOL0     H 1562   9.238   5.186   9.262 -0.2784 -1.7252 -1.8520
   12MOL0     H 1563   9.321   5.455   9.269  0.5692 -0.3182 -1.0807
   12MOL0     H 1564   9.257   5.427   9.106  1.5020 -1.3769  0.1380
   12MOL0     H 1565   9.060   5.367   9.161 -3.4708  2.0412  0.0845
   12MOL0     H 1566   9.076   5.341   9.333  2.2744 -1.0175  0.2693
   12MOL0     H 1567   8.941   5.535   9.268 -0.2802 -0.7520 -0.3767
   12MOL0     H 1568   9.076   5.604   9.177 -3.9248  4.0630  1.5884
   12MOL0     H 1569   9.057   5.558   9.480  1.6970  2.5153  2.2633
   12MOL0     H 1570   9.200   5.618   9.379  0.4376  1.0419  0.2414
   12MOL0     H 1571   9.129   5.852   9.588  1.1730  0.0570 -0.4839
   12MOL0     H 1572   8.985   6.067   9.635 -1.6967 -0.0758 -0.6837
   12MOL0     H 1573   9.089   6.150   9.511 -2.2017  1.4709 -2.4579
   12MOL0     H 1574   8.908   6.277   9.548 -1.4273  1.9098 -1.6017
   12MOL0     H 1575   8.878   6.204   9.389 -0.0925 -1.4721  0.7716
   12MOL0     H 1576   8.766   6.104   9.655  0.3035  0.4243  0.8202
   12MOL0     H 1577   8.728   6.022   9.496 -1.5696  1.0650 -0.8675
   12MOL0     H 1578   8.652   6.309   9.558  1.9528  2.0362 -3.4927
   12MOL0     H 1579   8.553   6.173   9.558  1.4759 -0.9118  1.7220
   12MOL0     H 1580   8.639   6.484   9.374  0.7296  0.8950 -2.6182
   12MOL0     H 1581   8.466   6.645   9.270  0.6191 -1.3088  0.3299
   12MOL0     H 1582   8.053   6.737   9.280 -0.7377  0.5859 -0.4314
   12MOL0     H 1583   7.879   6.881   9.247  0.0721 -1.8492  0.2374
   12MOL0     H 1584   7.749   7.196   9.116 -0.8214 -1.6948  1.8894
   12MOL0     H 1585   7.890   7.129   9.197  2.9704  1.8279 -1.5845
   12MOL0     H 1586   8.027   7.215   8.978  1.7994  1.4889 -0.2290
   12MOL0     H 1587   7.886   7.321   8.960 -0.0957  0.8640  0.1340
   12MOL0     H 1588   7.911   7.370   9.223  2.6047  0.4479  3.5068
   12MOL0     H 1589   8.051   7.269   9.203 -1.6215 -1.8843 -0.3686
   12MOL0     H 1590   8.047   7.538   9.042  0.3949  2.7402  2.0730
   12MOL0     H 1591   8.175   7.422   9.066  1.2536 -2.9601  3.5694
   12MOL0     H 1592   8.209   7.621   9.184  0.1553 -1.5441 -1.4615
   12MOL0     H 1593   8.183   7.477   9.297 -2.0109 -2.1171  0.0674
   12MOL0     H 1594   8.014   7.713   9.231 -1.6803  0.9280  2.3499
   12MOL0     H 1595   7.946   7.565   9.322 -0.4373 -0.8387  2.5106
   12MOL0     H 1596   8.154   7.756   9.410 -0.4701  0.9866  1.6858
   12MOL0     H 1597   8.125   7.596   9.484  1.3797 -0.4293 -0.3069
   12MOL0     H 1598   8.016   7.795   9.588 -2.1452  4.8627 -2.8449
   12MOL0     H 1599   7.916   7.814   9.450 -2.5018  1.2885  2.7080
   12MOL0     H 1600   8.051   7.001   8.863  0.4413 -0.1363  0.0183
   12MOL0     H 1601   8.214   6.822   8.897 -0.0656  0.6899 -0.1203
   12MOL0     H 1602   8.219   6.309   9.184 -0.7160  1.6069  1.3019
   12MOL0     H 1603   8.408   6.146   9.275 -0.7713  0.9447 -3.3838
   12MOL0     H 1604   9.289   4.859   9.585 -0.4723  1.2908 -1.1450
   12MOL0     H 1605   9.246   4.779   9.811  0.0305 -0.9696 -3.3663
   12MOL0     H 1606   9.161   5.009  10.238 -0.4916  0.2075  0.1304
   12MOL0     H 1607   9.106   5.043  10.452  0.2435  0.6127 -1.9076
   12MOL0     H 1608   9.178   4.710  10.756  0.6134  1.4510  1.2495
   12MOL0     H 1609   9.009   4.693  10.675 -2.1818  1.1011  0.4498
   12MOL0     H 1610   9.042   4.905  10.895 -0.8108  1.1253 -4.0543
   12MOL0     H 1611   9.031   4.727  10.935  1.8814  1.9447  1.3207
   12MOL0     H 1612   8.819   4.742  10.786 -1.1756  1.0371  1.7177
   12MOL0     H 1613   8.871   4.911  10.757  1.1645  1.8742  0.9526
   12MOL0     H 1614   8.848   4.959  11.002  0.3590 -1.4504  1.9001
   12MOL0     H 1615   8.692   4.920  10.922 -0.8092  0.0008  0.6004
   12MOL0     H 1616   8.725   4.600  11.184  1.1827 -0.6712  0.5445
   12MOL0     H 1617   9.202   4.622  10.526 -2.7014  0.3590  0.4265
   12MOL0     H 1618   9.385   4.580  10.233  1.7851 -2.9109  0.5940
   12MOL0     H 1619   9.298   4.490  10.348 -1.8054  1.2083  1.3977
   12MOL0     H 1620   9.225   4.527  10.184  0.2553  1.6284 -1.1441
   13MOL0     O 1621  10.602  11.518   0.656 -0.3562 -0.3179 -0.2647
   13MOL0     C 1622  10.662  11.527   0.557 -1.0641  0.2529 -0.5495
   13MOL0     O 1623  10.764  11.614   0.530 -0.1557 -0.2856  0.3791
   13MOL0     C 1624  10.787  11.709   0.619  0.4268 -0.8277  0.2753
   13MOL0     C 1625  10.862  11.685   0.725  0.1883 -1.1091 -0.0489
   13MOL0     C 1626  10.906  11.793   0.810 -0.2106  0.5947 -0.2311
   13MOL0     C 1627  10.875  11.927   0.775 -1.0838  0.6033 -0.1718
   13MOL0     O 1628  10.916  12.045   0.839 -0.4646  0.3150  0.4328
   13MOL0     C 1629  10.944  12.034   0.979 -0.1271  0.5684 -0.1106
   13MOL0     C 1630  11.026  12.154   1.036  0.3124 -0.3423  0.0504
   13MOL0     C 1631  10.961  12.201   1.170 -0.7813  0.6873 -0.1183
   13MOL0     C 1632  11.055  12.314   1.229 -1.4485 -0.1056  0.1225
   13MOL0     C 1633  11.134  12.267   1.353  0.4348 -0.4467 -0.2160
   13MOL0     C 1634  11.047  12.247   1.477  0.4919 -0.1389 -0.1658
   13MOL0     C 1635  11.142  12.186   1.579  0.2912 -0.1388 -0.4108
   13MOL0     C 1636  11.054  12.163   1.704  0.0585 -0.1578 -0.6056
   13MOL0     N 1637  11.002  12.029   1.714 -0.3339  0.2508  0.1087
   13MOL0     C 1638  10.971  11.947   1.610 -0.4374  1.8971  0.0679
   13MOL0     C 1639  10.901  11.841   1.658 -0.7389 -0.5166  0.5506
   13MOL0     C 1640  10.839  11.743   1.563  0.0571 -1.2996 -0.8543
   13MOL0     C 1641  10.838  11.604   1.628 -0.1587 -0.2448  1.0012
   13MOL0     C 1642  10.720  11.567   1.712  0.1007 -0.0485  0.1794
   13MOL0     C 1643  10.746  11.434   1.803 -0.1155  0.2531  0.8405
   13MOL0     O 1644  10.819  11.332   1.732 -0.1666  0.2919  0.3641
   13MOL0     C 1645  10.757  11.252   1.632 -0.5412 -0.6010  0.5835
   13MOL0     C 1646  10.615  11.240   1.619 -0.6121  0.6059 -0.3804
   13MOL0     C 1647  10.561  11.144   1.536  0.4590 -0.8148  0.2410
   13MOL0     C 1648  10.649  11.061   1.454 -0.7646  0.2475 -0.2963
   13MOL0     C 1649  10.600  10.967   1.362  0.3695  1.3053 -0.1194
   13MOL0     O 1650  10.682  10.875   1.320 -0.1894  0.2969  1.1730
   13MOL0     C 1651  10.650  10.820   1.192 -0.0640 -0.3721 -0.5251
   13MOL0     C 1652  10.531  10.757   1.171 -0.7585 -0.8914 -0.6283
   13MOL0     C 1653  10.495  10.711   1.049  0.6613  0.3441  0.5534
   13MOL0     C 1654  10.585  10.715   0.945 -1.1624  0.7369 -0.4147
   13MOL0     O 1655  10.566  10.674   0.821  0.0181  0.7344 -0.3722
   13MOL0     C 1656  10.503  10.546   0.799 -0.1571 -0.1212 -0.1800
   13MOL0     C 1657  10.544  10.482   0.662  0.2516  0.7162 -0.4699
   13MOL0     C 1658  10.526  10.327   0.652  0.3431 -0.7650 -0.5314
   13MOL0     C 1659  10.381  10.279   0.688  0.4679  0.4974  0.8897
   13MOL0     C 1660  10.364  10.132   0.702  1.3818 -0.3961 -0.1002
   13MOL0     C 1661  10.390  10.054   0.566 -0.2315 -1.1983 -0.3804
   13MOL0     C 1662  10.401   9.897   0.600 -0.0760 -0.8349 -0.4788
   13MOL0     C 1663  10.428   9.823   0.475 -0.5941 -0.1798 -0.1775
   13MOL0    Cl 1664  10.309   9.836   0.339  0.0717  0.0297 -0.3356
   13MOL0     C 1665  10.708  10.767   0.969 -0.7759  0.2809  0.7638
   13MOL0     C 1666  10.743  10.824   1.090 -0.6832  0.5793 -1.2259
   13MOL0     O 1667  10.477  10.971   1.350  0.2813 -0.5521  0.8015
   13MOL0     C 1668  10.787  11.084   1.460  0.1394  0.2942 -0.3978
   13MOL0     C 1669  10.836  11.164   1.558 -0.1377  0.3417 -0.1562
   13MOL0     N 1670  10.910  11.852   1.798  0.4700  1.4140  0.8201
   13MOL0     N 1671  10.969  11.964   1.830 -0.2565 -0.2267  0.0397
   13MOL0     C 1672  10.795  11.941   0.668  0.0558  0.9788  0.1667
   13MOL0     C 1673  10.750  11.846   0.589 -0.4648  0.8149 -0.2061
   13MOL0     C 1674  10.638  11.430   0.445  0.3756 -0.9515  0.1329
   13MOL0     C 1675  10.514  11.362   0.450  0.2669 -0.4865 -0.5896
   13MOL0     C 1676  10.487  11.263   0.357  0.7431 -0.0112 -0.0720
   13MOL0     C 1677  10.581  11.228   0.254 -0.2242 -0.0806  0.0508
   13MOL0     O 1678  10.559  11.136   0.151 -0.1226  0.6765  0.6522
   13MOL0     C 1679  10.421  11.081   0.137  0.3189 -0.2242 -0.4082
   13MOL0     C 1680  10.414  10.979   0.027 -0.2260  0.0112  0.5330
   13MOL0     C 1681  10.445  11.054  -0.107  0.5475 -0.2811 -0.2944
   13MOL0     C 1682  10.470  10.961  -0.213 -0.5220 -0.0827  0.1705
   13MOL0     C 1683  10.345  10.902  -0.262  0.5808 -0.0882 -1.4159
   13MOL0     C 1684  10.245  10.872  -0.317  0.1078 -0.0474  0.3578
   13MOL0     C 1685  10.707  11.295   0.247  0.4549 -0.1887 -0.7761
   13MOL0     C 1686  10.735  11.388   0.345 -0.6160  0.6715  0.2864
   13MOL0     C 1687  10.876  11.454   0.331 -0.2221 -0.9773  0.6696
   13MOL0     H 1688  10.902  11.587   0.748  2.7895 -0.9220 -3.0662
   13MOL0     H 1689  10.984  11.768   0.881 -0.8536  0.9422  0.6170
   13MOL0     H 1690  10.849  12.031   1.032  0.7740  1.4043  1.6633
   13MOL0     H 1691  10.990  11.943   1.018 -1.6515  0.6987  2.1519
   13MOL0     H 1692  11.025  12.238   0.966  2.2608  1.0598  1.6047
   13MOL0     H 1693  11.129  12.126   1.057  0.1814 -0.9241 -0.0451
   13MOL0     H 1694  10.971  12.111   1.231  0.6321  1.2364  0.4863
   13MOL0     H 1695  10.855  12.226   1.158 -1.0984 -1.2619 -1.8689
   13MOL0     H 1696  11.129  12.337   1.151 -1.3433 -2.4189 -0.5508
   13MOL0     H 1697  10.992  12.402   1.238 -2.7784 -0.8029 -1.6787
   13MOL0     H 1698  11.194  12.177   1.332  1.1344 -0.0937  0.2471
   13MOL0     H 1699  11.208  12.343   1.380  0.6147 -0.7595  0.1831
   13MOL0     H 1700  11.001  12.335   1.521 -1.4388 -1.5546  0.8015
   13MOL0     H 1701  10.968  12.179   1.445 -0.7807  0.6224  1.2348
   13MOL0     H 1702  11.226  12.252   1.605 -0.6530  0.9707 -0.1150
   13MOL0     H 1703  11.181  12.094   1.534 -2.6982 -1.6997 -0.0754
   13MOL0     H 1704  11.116  12.172   1.793 -1.4964  0.6282  0.4540
   13MOL0     H 1705  10.977  12.239   1.719  0.1353  0.6940 -3.8160
   13MOL0     H 1706  10.995  11.959   1.505  3.5734 -1.1044  0.4078
   13MOL0     H 1707  10.735  11.763   1.533 -0.1125 -4.7661 -3.1314
   13MOL0     H 1708  10.904  11.739   1.475  1.7192 -2.0451  0.3739
   13MOL0     H 1709  10.854  11.531   1.549  0.3501  0.5713  0.3376
   13MOL0     H 1710  10.926  11.606   1.692  0.4510 -0.7940  0.2005
   13MOL0     H 1711  10.624  11.547   1.662 -1.3535 -3.0865  3.7013
   13MOL0     H 1712  10.696  11.645   1.785 -1.5808  0.4118 -0.7893
   13MOL0     H 1713  10.653  11.398   1.847 -2.2947  3.2072 -0.9452
   13MOL0     H 1714  10.800  11.473   1.890 -3.2798  1.5349  2.3995
   13MOL0     H 1715  10.550  11.303   1.679  0.2323  2.6147 -1.4465
   13MOL0     H 1716  10.452  11.138   1.539  0.3912 -1.9274 -2.3705
   13MOL0     H 1717  10.450  10.754   1.243  0.0517  1.2457  0.4698
   13MOL0     H 1718  10.402  10.667   1.013  2.8889 -5.3013  0.7809
   13MOL0     H 1719  10.522  10.478   0.883  0.6962  0.7311  0.3412
   13MOL0     H 1720  10.397  10.571   0.789  0.1413  1.0499 -0.5577
   13MOL0     H 1721  10.477  10.513   0.581  1.6057  2.5277 -0.9884
   13MOL0     H 1722  10.646  10.514   0.636  0.7784 -0.2116  0.4105
   13MOL0     H 1723  10.557  10.278   0.559  1.1012 -3.3289  0.9731
   13MOL0     H 1724  10.588  10.286   0.732 -1.7917 -0.5093  1.3560
   13MOL0     H 1725  10.305  10.314   0.617  1.0609  2.2980  1.0950
   13MOL0     H 1726  10.358  10.320   0.786  1.1171 -1.8362  2.0891
   13MOL0     H 1727  10.277  10.109   0.764  1.6326  0.3961  0.5568
   13MOL0     H 1728  10.444  10.097   0.768  2.9772 -2.6585 -2.9790
   13MOL0     H 1729  10.305  10.072   0.499  1.0772 -0.0219 -1.8150
   13MOL0     H 1730  10.489  10.080   0.527 -0.3093  0.0340  0.2188
   13MOL0     H 1731  10.317   9.859   0.660  0.3733 -1.5272 -0.2677
   13MOL0     H 1732  10.492   9.881   0.658 -0.3865  0.8366  0.5293
   13MOL0     H 1733  10.520   9.862   0.429 -1.3473 -0.4748 -2.0431
   13MOL0     H 1734  10.434   9.718   0.505  1.5645 -0.6217 -1.8972
   13MOL0     H 1735  10.782  10.770   0.890 -1.3942 -1.4246  0.0676
   13MOL0     H 1736  10.837  10.877   1.096  0.7679 -1.8979 -0.6720
   13MOL0     H 1737  10.853  11.028   1.393 -3.0844 -1.9629 -1.9320
   13MOL0     H 1738  10.944  11.172   1.568  0.3413 -2.7525 -1.5853
   13MOL0     H 1739  10.762  12.041   0.644 -3.2967  0.4635  1.9459
   13MOL0     H 1740  10.683  11.862   0.505  1.2828  1.2084 -1.5743
   13MOL0     H 1741  10.443  11.373   0.531  1.2133 -5.4089  1.2267
   13MOL0     H 1742  10.398  11.203   0.374  1.1070 -0.9252 -1.2973
   13MOL0     H 1743  10.349  11.159   0.112 -1.0869 -0.9233  1.2482
   13MOL0     H 1744  10.392  11.037   0.233  2.5238 -3.6266 -1.1408
   13MOL0     H 1745  10.316  10.931   0.034 -0.8856  0.7695 -2.1042
   13MOL0     H 1746  10.498  10.911   0.044 -0.8231 -0.7941  0.3180
   13MOL0     H 1747  10.534  11.115  -0.093 -0.4065  0.9009  0.9459
   13MOL0     H 1748  10.365  11.123  -0.136 -0.9456 -0.0756  3.6181
   13MOL0     H 1749  10.516  11.016  -0.295  3.1837  2.9884  3.8513
   13MOL0     H 1750  10.533  10.877  -0.183  1.3372  0.9578 -0.6775
   13MOL0     H 1751  10.174  10.842  -0.391 -1.8742 -1.7483  2.8289
   13MOL0     H 1752  10.784  11.271   0.175 -0.2307 -0.5250 -1.4001
   13MOL0     H 1753  10.940  11.434   0.418 -0.4458 -1.4458  0.7277
   13MOL0     H 1754  10.918  11.403   0.244 -1.6665  1.4548 -1.5875
   13MOL0     H 1755  10.877  11.562   0.313  1.8746 -1.1164 -0.4256
   14MOL0     O 1756   0.620   1.689   8.177 -0.7009  0.5528 -0.2467
   14MOL0     C 1757   0.559   1.587   8.147  0.5830 -0.1886  0.7551
   14MOL0     O 1758   0.598   1.456   8.164 -0.8220  0.4973 -0.9648
   14MOL0     C 1759   0.708   1.437   8.243 -0.4888 -0.6379 -0.2476
   14MOL0     C 1760   0.712   1.450   8.385  0.0161 -0.0330  0.1036
   14MOL0     C 1761   0.840   1.429   8.449 -0.1158  0.5007 -0.5859
   14MOL0     C 1762   0.960   1.406   8.381  0.3750  0.3020  0.9071
   14MOL0     O 1763   1.080   1.392   8.438 -0.2369  0.4984 -0.0091
   14MOL0     C 1764   1.096   1.259   8.496  0.2143  0.2443 -0.2662
   14MOL0     C 1765   1.201   1.288   8.609  1.0274  0.0750 -0.3064
   14MOL0     C 1766   1.131   1.302   8.742  0.0785 -0.6039 -0.3205
   14MOL0     C 1767   1.245   1.320   8.849 -0.3702 -0.5809 -0.3613
   14MOL0     C 1768   1.190   1.373   8.982  0.6775 -0.0826 -0.6281
   14MOL0     C 1769   1.298   1.399   9.085 -0.5904 -0.2356 -0.5766
   14MOL0     C 1770   1.373   1.278   9.135  1.0905  0.3450 -0.0231
   14MOL0     C 1771   1.484   1.329   9.240 -0.2172  0.7584 -0.8273
   14MOL0     N 1772   1.583   1.226   9.283 -0.6072  0.8076  0.4386
   14MOL0     C 1773   1.652   1.140   9.192 -0.0285 -0.7150  0.9561
   14MOL0     C 1774   1.682   1.023   9.248  1.1904 -0.7585  0.3559
   14MOL0     C 1775   1.750   0.922   9.174 -1.0746  0.8839  0.5022
   14MOL0     C 1776   1.879   0.966   9.114 -0.4296 -0.5715 -0.1701
   14MOL0     C 1777   1.979   0.856   9.051  0.2628  0.1305  0.3766
   14MOL0     C 1778   2.078   0.914   8.959 -0.3622  0.0989 -0.1445
   14MOL0     O 1779   2.159   0.819   8.888 -0.6615 -0.0290  1.1373
   14MOL0     C 1780   2.260   0.767   8.955 -1.5058 -0.1480 -0.3293
   14MOL0     C 1781   2.257   0.643   9.005 -0.9712 -0.0075  0.0386
   14MOL0     C 1782   2.367   0.589   9.070  0.2153  0.0048  0.3064
   14MOL0     C 1783   2.483   0.669   9.096  0.4623 -0.7898 -0.0250
   14MOL0     C 1784   2.589   0.614   9.181  0.1979  0.2533  0.0112
   14MOL0     O 1785   2.700   0.699   9.204  0.0350  0.1488  0.1502
   14MOL0     C 1786   2.792   0.667   9.297  0.1923 -1.3028  0.7042
   14MOL0     C 1787   2.902   0.598   9.249  1.3953 -0.2725 -0.6860
   14MOL0     C 1788   3.005   0.549   9.333  0.7950  0.1223  0.3427
   14MOL0     C 1789   3.004   0.576   9.474  0.8488 -0.1190 -0.0116
   14MOL0     O 1790   3.105   0.524   9.541 -0.3559  0.0243 -0.2643
   14MOL0     C 1791   3.105   0.524   9.685  0.9182 -0.5209 -0.1331
   14MOL0     C 1792   3.200   0.418   9.737  0.2629 -0.7991  0.1037
   14MOL0     C 1793   3.143   0.280   9.720  0.2799  0.3448 -0.2294
   14MOL0     C 1794   3.249   0.177   9.773  0.0628  0.3332 -0.0744
   14MOL0     C 1795   3.199   0.031   9.740  0.0762 -0.0174  0.1268
   14MOL0     C 1796   3.236  -0.020   9.592  0.0478 -1.1502  0.9702
   14MOL0     C 1797   3.380  -0.070   9.587  0.1552  0.4757 -0.3837
   14MOL0     C 1798   3.449  -0.055   9.455  0.9306  0.7190  0.6521
   14MOL0    Cl 1799   3.511   0.114   9.442 -0.4678 -0.1695  0.8580
   14MOL0     C 1800   2.893   0.654   9.521  0.7699  0.7298  0.5827
   14MOL0     C 1801   2.782   0.689   9.438  0.5189  0.0673 -0.8858
   14MOL0     O 1802   2.577   0.499   9.216 -0.1082 -0.0524 -0.1397
   14MOL0     C 1803   2.479   0.807   9.056  0.5239  1.1425  0.3293
   14MOL0     C 1804   2.368   0.849   8.984  0.4146 -0.1577  0.5027
   14MOL0     N 1805   1.622   1.031   9.375  0.0240 -0.8042  0.1874
   14MOL0     N 1806   1.578   1.149   9.396 -0.2985 -0.2223  0.8502
   14MOL0     C 1807   0.951   1.409   8.245 -1.2632 -0.1124  0.8463
   14MOL0     C 1808   0.830   1.434   8.175  0.6053  0.2259 -0.6588
   14MOL0     C 1809   0.444   1.608   8.051 -0.3145 -0.2663 -0.8414
   14MOL0     C 1810   0.355   1.502   8.039  0.3961  0.1659 -0.7616
   14MOL0     C 1811   0.240   1.507   7.958 -0.4580 -1.5003  0.1341
   14MOL0     C 1812   0.206   1.633   7.889 -0.0457  0.7820  0.3176
   14MOL0     O 1813   0.093   1.648   7.808  0.0937 -0.2400 -0.9057
   14MOL0     C 1814   0.031   1.533   7.764 -0.2106  0.3641 -0.3928
   14MOL0     C 1815  -0.063   1.477   7.871 -0.3682 -0.6014  0.0747
   14MOL0     C 1816  -0.103   1.334   7.821 -0.5106  0.0712 -0.1056
   14MOL0     C 1817  -0.248   1.308   7.865  0.1236  0.2606 -0.3202
   14MOL0     C 1818  -0.302   1.203   7.779 -0.2519  0.3926  0.8277
   14MOL0     C 1819  -0.346   1.108   7.710  0.1775  0.0378 -0.0510
   14MOL0     C 1820   0.289   1.731   7.902 -0.4119  0.2696 -0.6341
   14MOL0     C 1821   0.416   1.727   7.976 -0.3224 -0.6784 -0.2813
   14MOL0     C 1822   0.500   1.844   7.982  0.1859  0.2517  0.0831
   14MOL0     H 1823   0.622   1.459   8.445 -0.8688 -1.4996 -0.9290
   14MOL0     H 1824   0.831   1.424   8.557  0.1142  3.5681 -0.3290
   14MOL0     H 1825   1.002   1.218   8.534  1.4322 -2.5608 -0.0420
   14MOL0     H 1826   1.137   1.192   8.419 -1.7925 -1.5303  0.1249
   14MOL0     H 1827   1.249   1.383   8.586 -2.2556  1.9979  0.0788
   14MOL0     H 1828   1.273   1.206   8.621 -2.3904 -3.0912  0.4959
   14MOL0     H 1829   1.069   1.217   8.771  0.8398 -1.1527 -0.2468
   14MOL0     H 1830   1.073   1.394   8.730  1.7926  0.6533  0.6074
   14MOL0     H 1831   1.314   1.236   8.858  1.2466  0.6825 -0.4723
   14MOL0     H 1832   1.320   1.392   8.813  0.0784 -2.1062 -2.7528
   14MOL0     H 1833   1.127   1.457   8.952  2.9776  2.8795  2.2107
   14MOL0     H 1834   1.137   1.285   9.019  2.2365 -1.8176 -2.2931
   14MOL0     H 1835   1.378   1.460   9.044  0.9256 -2.0658 -0.4675
   14MOL0     H 1836   1.250   1.453   9.168  4.0605  0.9364  1.6758
   14MOL0     H 1837   1.433   1.238   9.052  0.0734 -0.5894 -0.3200
   14MOL0     H 1838   1.300   1.208   9.176  2.1082 -1.7461 -1.5775
   14MOL0     H 1839   1.521   1.414   9.182 -0.2642 -0.3183 -2.5266
   14MOL0     H 1840   1.442   1.358   9.336  1.2906  0.8312 -0.1603
   14MOL0     H 1841   1.664   1.169   9.089  1.6627  2.5655  1.9151
   14MOL0     H 1842   1.769   0.835   9.237  1.7409  1.8284  1.1168
   14MOL0     H 1843   1.688   0.891   9.089  3.1988 -3.0255 -1.6381
   14MOL0     H 1844   1.860   1.042   9.037 -1.5637  0.3524  0.9683
   14MOL0     H 1845   1.933   1.019   9.193 -1.1517  2.4536 -1.5579
   14MOL0     H 1846   1.911   0.793   8.992 -2.4828  2.9651  0.2180
   14MOL0     H 1847   2.007   0.799   9.140 -2.9534  0.6554  1.8649
   14MOL0     H 1848   2.134   0.975   9.031 -1.1266 -2.5656  2.9531
   14MOL0     H 1849   2.023   0.979   8.891 -1.0778  1.6978  1.8612
   14MOL0     H 1850   2.170   0.586   8.974 -2.0214  1.5846 -0.0393
   14MOL0     H 1851   2.347   0.490   9.110 -1.2176 -0.5590 -1.6530
   14MOL0     H 1852   2.897   0.587   9.141 -2.5328  2.9395 -1.0542
   14MOL0     H 1853   3.090   0.496   9.290  0.5465  0.2546 -0.3146
   14MOL0     H 1854   3.131   0.625   9.719 -0.9009 -0.8863  2.6808
   14MOL0     H 1855   3.009   0.498   9.730  1.5929 -2.9960  0.0332
   14MOL0     H 1856   3.291   0.430   9.677  1.7877 -3.0972  1.7651
   14MOL0     H 1857   3.215   0.440   9.843  0.1882  3.7621 -0.6177
   14MOL0     H 1858   3.052   0.285   9.780  1.3869 -0.7246  1.6042
   14MOL0     H 1859   3.116   0.262   9.615 -0.0415  1.1163 -0.2864
   14MOL0     H 1860   3.251   0.185   9.882 -2.3529 -5.9250  0.8527
   14MOL0     H 1861   3.350   0.196   9.736 -0.3490 -2.7259 -3.3724
   14MOL0     H 1862   3.091   0.030   9.754  0.0512  1.2485  0.1846
   14MOL0     H 1863   3.239  -0.051   9.801 -0.9981 -1.2979 -0.8382
   14MOL0     H 1864   3.172  -0.100   9.553 -1.5401  0.8594 -0.7869
   14MOL0     H 1865   3.216   0.065   9.526 -1.3238  0.4748  3.3305
   14MOL0     H 1866   3.363  -0.177   9.603 -0.0436  0.2762 -1.7647
   14MOL0     H 1867   3.444  -0.024   9.663  0.5865  1.9069 -1.5667
   14MOL0     H 1868   3.534  -0.121   9.440  1.5921  1.9446 -1.3008
   14MOL0     H 1869   3.376  -0.062   9.374  0.6818  3.7104  0.4834
   14MOL0     H 1870   2.901   0.684   9.625  2.7280  1.1135  0.3618
   14MOL0     H 1871   2.689   0.725   9.482 -0.7001 -3.8930  0.2120
   14MOL0     H 1872   2.553   0.885   9.069  1.6593 -0.1721  2.2003
   14MOL0     H 1873   2.373   0.953   8.954 -1.8288  0.5994  2.3680
   14MOL0     H 1874   1.041   1.407   8.185  0.4517  1.4253  3.1877
   14MOL0     H 1875   0.823   1.454   8.069  1.9808 -1.3009 -1.0749
   14MOL0     H 1876   0.377   1.410   8.093 -0.4381 -0.1933 -1.0277
   14MOL0     H 1877   0.179   1.418   7.947 -0.9784 -1.6592  3.3757
   14MOL0     H 1878   0.110   1.458   7.754  1.5941  1.9820  0.8663
   14MOL0     H 1879  -0.018   1.545   7.667  0.4434  3.1662 -0.4516
   14MOL0     H 1880  -0.145   1.549   7.883  0.3868  0.4613 -1.0146
   14MOL0     H 1881  -0.027   1.468   7.974 -1.8414 -0.5966  0.6240
   14MOL0     H 1882  -0.036   1.260   7.866  1.2468  0.7656 -1.4618
   14MOL0     H 1883  -0.088   1.330   7.713  1.3275  0.1559  0.1141
   14MOL0     H 1884  -0.259   1.270   7.967 -4.1474 -1.3282 -1.1644
   14MOL0     H 1885  -0.307   1.400   7.860 -1.1029 -0.5191 -0.6276
   14MOL0     H 1886  -0.385   1.029   7.650 -1.5784  2.8621 -2.9660
   14MOL0     H 1887   0.269   1.829   7.862  1.3963  2.1270  2.5578
   14MOL0     H 1888   0.478   1.904   8.071 -0.0559 -0.3643  0.4494
   14MOL0     H 1889   0.605   1.816   7.981  0.4441  0.9806 -3.3540
   14MOL0     H 1890   0.480   1.907   7.896 -1.0881 -1.5778 -1.0339
   15MOL0     O 1891   2.984   7.977   2.433  0.2697  0.4046 -0.2856
   15MOL0     C 1892   3.015   8.077   2.501 -0.0045  0.0610 -0.5908
   15MOL0     O 1893   3.127   8.088   2.577  0.4680 -0.0521 -0.5228
   15MOL0     C 1894   3.192   7.976   2.605 -0.5177 -1.1018  0.3117
   15MOL0     C 1895   3.141   7.867   2.677  0.5231 -0.2986 -0.7785
   15MOL0     C 1896   3.225   7.757   2.711  0.1383  0.0273  0.9363
   15MOL0     C 1897   3.360   7.748   2.668  0.1108  0.2353  0.4023
   15MOL0     O 1898   3.434   7.636   2.714  0.3842  0.2210 -0.1476
   15MOL0     C 1899   3.561   7.617   2.653  0.6542 -0.2840  1.2454
   15MOL0     C 1900   3.611   7.479   2.682  0.0063 -0.4710  0.1393
   15MOL0     C 1901   3.531   7.381   2.599 -0.7542  0.1399  0.7121
   15MOL0     C 1902   3.534   7.244   2.660  0.8444  0.6230  0.4443
   15MOL0     C 1903   3.426   7.213   2.768 -0.6134 -0.8244 -0.6207
   15MOL0     C 1904   3.441   7.075   2.824  0.4951  1.2872 -0.4042
   15MOL0     C 1905   3.361   7.053   2.961 -0.2192  0.4521 -0.1656
   15MOL0     C 1906   3.373   6.909   3.016  0.1337  0.3994  0.7529
   15MOL0     N 1907   3.506   6.876   3.062 -0.4480  0.8129 -0.0350
   15MOL0     C 1908   3.604   6.811   2.991  0.5678 -0.0461  0.4719
   15MOL0     C 1909   3.695   6.775   3.087  0.0571  0.3822  0.0304
   15MOL0     C 1910   3.794   6.656   3.070  0.6072 -0.1131  0.1740
   15MOL0     C 1911   3.841   6.623   2.927  0.4328  0.4804  1.1593
   15MOL0     C 1912   3.912   6.746   2.875 -0.7176 -0.0396 -0.5910
   15MOL0     C 1913   3.962   6.720   2.732  0.2989 -0.5290 -0.4179
   15MOL0     O 1914   3.852   6.661   2.650  0.5870  0.2270 -0.1808
   15MOL0     C 1915   3.866   6.679   2.517 -0.4516  0.7733 -0.1218
   15MOL0     C 1916   3.770   6.606   2.440  0.1693  0.4297 -0.0502
   15MOL0     C 1917   3.750   6.623   2.305 -0.4793  0.2520  0.3072
   15MOL0     C 1918   3.826   6.717   2.234  0.0433 -0.5924  0.6310
   15MOL0     C 1919   3.794   6.763   2.099 -0.0917 -0.6697 -0.2322
   15MOL0     O 1920   3.695   6.688   2.038  0.7417  0.3489 -0.0992
   15MOL0     C 1921   3.615   6.738   1.935 -0.4985 -0.5570 -1.3038
   15MOL0     C 1922   3.477   6.730   1.958 -0.2669 -0.6600 -0.1553
   15MOL0     C 1923   3.384   6.782   1.868  0.6546 -0.2238  0.8474
   15MOL0     C 1924   3.434   6.842   1.751 -0.0389 -0.2383  0.6960
   15MOL0     O 1925   3.352   6.884   1.644 -0.5534  0.0093 -0.2796
   15MOL0     C 1926   3.231   6.949   1.694 -0.1678 -0.4278 -0.1847
   15MOL0     C 1927   3.254   7.090   1.739 -0.7941 -0.8266 -0.6311
   15MOL0     C 1928   3.261   7.199   1.630 -0.6369  0.4731 -0.3529
   15MOL0     C 1929   3.395   7.192   1.548  0.8477  0.9378 -0.5578
   15MOL0     C 1930   3.414   7.282   1.427  0.4817 -0.0946  0.9670
   15MOL0     C 1931   3.440   7.433   1.461  0.8209  0.6908 -0.5958
   15MOL0     C 1932   3.455   7.521   1.337 -0.0406  1.2088  0.1649
   15MOL0     C 1933   3.455   7.675   1.378 -1.1335 -0.5604  0.7035
   15MOL0    Cl 1934   3.284   7.737   1.406 -0.8560 -0.3274  0.3053
   15MOL0     C 1935   3.580   6.862   1.725 -0.3899 -0.2485 -0.4850
   15MOL0     C 1936   3.667   6.811   1.825 -0.1023 -0.5998 -0.3263
   15MOL0     O 1937   3.835   6.872   2.055  0.6832  0.1381  0.1817
   15MOL0     C 1938   3.932   6.779   2.300 -0.2018 -0.6573 -0.8881
   15MOL0     C 1939   3.957   6.766   2.440 -0.1014  0.2719  0.5994
   15MOL0     N 1940   3.657   6.827   3.212 -0.1099 -1.2752  0.4648
   15MOL0     N 1941   3.540   6.884   3.196 -0.5944  0.4435  0.9647
   15MOL0     C 1942   3.405   7.854   2.585  0.7661 -0.3172  0.3015
   15MOL0     C 1943   3.319   7.964   2.560  0.4513 -0.3062  0.4215
   15MOL0     C 1944   2.932   8.198   2.489 -0.1291  0.0428  0.4005
   15MOL0     C 1945   2.993   8.315   2.537 -0.0936  0.1791  0.1771
   15MOL0     C 1946   2.918   8.432   2.538 -0.5370 -0.5432 -0.0148
   15MOL0     C 1947   2.785   8.445   2.489  0.2698 -0.8756 -0.8063
   15MOL0     O 1948   2.708   8.559   2.474  0.3387 -0.0254  0.4528
   15MOL0     C 1949   2.783   8.687   2.482  0.7078 -0.2985  0.0375
   15MOL0     C 1950   2.721   8.793   2.393  0.1627 -0.3956  0.3615
   15MOL0     C 1951   2.745   8.752   2.235  0.0141  1.1601 -0.3109
   15MOL0     C 1952   2.661   8.830   2.148  0.7293  0.0077  0.3690
   15MOL0     C 1953   2.710   8.861   2.016  0.0577  0.1280  0.4868
   15MOL0     C 1954   2.743   8.867   1.902  0.8360  0.4946  0.6313
   15MOL0     C 1955   2.731   8.333   2.417 -0.1899 -0.1088 -0.7730
   15MOL0     C 1956   2.803   8.214   2.425 -0.1036 -0.2505  0.2959
   15MOL0     C 1957   2.730   8.097   2.359  0.7116  0.4537 -0.7598
   15MOL0     H 1958   3.040   7.875   2.715  1.7354  0.0494  2.6701
   15MOL0     H 1959   3.185   7.679   2.774 -0.2945 -1.6116 -1.2677
   15MOL0     H 1960   3.559   7.632   2.545 -0.8314  0.7736  1.3819
   15MOL0     H 1961   3.628   7.691   2.699  3.0374  0.0228 -2.3234
   15MOL0     H 1962   3.600   7.457   2.789  3.6880 -0.1220  0.6920
   15MOL0     H 1963   3.718   7.478   2.660 -0.1728 -1.1866 -0.7300
   15MOL0     H 1964   3.578   7.377   2.501 -2.0640  0.3705  0.0525
   15MOL0     H 1965   3.431   7.419   2.575 -0.3067  0.0031 -1.5947
   15MOL0     H 1966   3.517   7.166   2.586  0.5431  0.8111  0.3138
   15MOL0     H 1967   3.631   7.224   2.707 -0.0910 -1.0294  1.8148
   15MOL0     H 1968   3.445   7.284   2.850  0.0871 -0.2692 -1.2512
   15MOL0     H 1969   3.322   7.224   2.736 -0.1972 -1.7502 -2.3901
   15MOL0     H 1970   3.410   7.008   2.744  2.5377  2.0338 -1.9081
   15MOL0     H 1971   3.548   7.057   2.842  0.4719  2.7642  1.6313
   15MOL0     H 1972   3.256   7.073   2.941  0.3325  2.3620 -1.4833
   15MOL0     H 1973   3.389   7.133   3.031 -0.2059  0.2046  0.1165
   15MOL0     H 1974   3.299   6.896   3.095 -1.5030 -1.2460 -0.9716
   15MOL0     H 1975   3.345   6.837   2.939 -0.0010  0.4894  0.7194
   15MOL0     H 1976   3.591   6.781   2.887 -2.8906  1.8121  0.1907
   15MOL0     H 1977   3.879   6.661   3.138  1.9897  0.5619 -1.5259
   15MOL0     H 1978   3.740   6.566   3.102  3.0328 -1.8831 -0.4449
   15MOL0     H 1979   3.902   6.533   2.935 -2.3649 -1.9006 -1.7245
   15MOL0     H 1980   3.754   6.594   2.867  0.9362  0.5435  0.3789
   15MOL0     H 1981   3.989   6.769   2.950  1.2287 -0.5722 -2.3134
   15MOL0     H 1982   3.841   6.828   2.864 -1.6552 -0.7938 -0.3404
   15MOL0     H 1983   4.043   6.649   2.745  0.4495 -0.2654  0.1033
   15MOL0     H 1984   3.991   6.814   2.685 -3.5295 -0.3930 -3.0131
   15MOL0     H 1985   3.697   6.534   2.475 -2.6546  2.0504 -2.1802
   15MOL0     H 1986   3.669   6.569   2.258  0.2562  0.4813 -1.2692
   15MOL0     H 1987   3.459   6.676   2.051 -1.4136 -0.6937 -0.3887
   15MOL0     H 1988   3.282   6.770   1.902  0.2958  0.3659  0.0161
   15MOL0     H 1989   3.157   6.948   1.613 -0.0434 -1.1029 -0.2985
   15MOL0     H 1990   3.169   6.912   1.776 -0.8986  0.5983 -0.2623
   15MOL0     H 1991   3.168   7.106   1.805  0.6069 -2.0622  1.5882
   15MOL0     H 1992   3.332   7.104   1.815 -1.8285 -0.6728  0.4286
   15MOL0     H 1993   3.174   7.185   1.565 -2.0882 -0.8967  1.7614
   15MOL0     H 1994   3.248   7.298   1.674 -2.7890 -0.5502  1.4909
   15MOL0     H 1995   3.407   7.086   1.525  0.7665  0.3900  1.7300
   15MOL0     H 1996   3.482   7.208   1.613  0.6412  0.2135 -0.0957
   15MOL0     H 1997   3.324   7.275   1.365  1.1415  0.1533 -0.0300
   15MOL0     H 1998   3.489   7.235   1.363  0.2706 -1.2736  1.5496
   15MOL0     H 1999   3.357   7.473   1.521  0.8832  1.6507 -1.1288
   15MOL0     H 2000   3.535   7.435   1.515  0.2636 -0.5332  0.4798
   15MOL0     H 2001   3.376   7.497   1.266 -1.3739  1.0805  1.6309
   15MOL0     H 2002   3.554   7.499   1.297 -1.0710 -0.3032 -1.7002
   15MOL0     H 2003   3.524   7.691   1.462 -0.9898  1.9414  0.1715
   15MOL0     H 2004   3.511   7.737   1.308  2.2398 -3.7608  0.2531
   15MOL0     H 2005   3.604   6.902   1.628 -1.1750  1.7861  0.1108
   15MOL0     H 2006   3.775   6.806   1.823  0.0626  1.7075  0.3198
   15MOL0     H 2007   3.995   6.839   2.235  0.2220 -1.7510 -1.5254
   15MOL0     H 2008   4.040   6.819   2.485  1.9771 -1.0047 -1.4904
   15MOL0     H 2009   3.508   7.843   2.552  0.7919  1.2487 -0.2167
   15MOL0     H 2010   3.362   8.046   2.504 -0.3709  1.1992  1.9273
   15MOL0     H 2011   3.096   8.319   2.572  0.2302 -0.6508 -0.6265
   15MOL0     H 2012   2.978   8.514   2.578 -1.2942 -0.5003  1.0661
   15MOL0     H 2013   2.887   8.672   2.451  0.7339 -0.1540  0.0545
   15MOL0     H 2014   2.785   8.712   2.588  0.6713  0.8905 -0.2259
   15MOL0     H 2015   2.765   8.891   2.414 -1.3591  0.5646 -0.7466
   15MOL0     H 2016   2.615   8.800   2.417  0.6662 -0.0138  2.6363
   15MOL0     H 2017   2.722   8.645   2.226  3.6328  0.4176 -2.4913
   15MOL0     H 2018   2.852   8.763   2.214 -0.4551 -0.0898 -4.1334
   15MOL0     H 2019   2.565   8.780   2.139  0.5267  0.4577 -0.0158
   15MOL0     H 2020   2.645   8.924   2.201  0.3174  0.0292  0.2129
   15MOL0     H 2021   2.774   8.842   1.803 -2.3342  3.6479 -1.4286
   15MOL0     H 2022   2.634   8.346   2.370 -2.3556  0.5568  3.3555
   15MOL0     H 2023   2.702   8.015   2.427 -0.8424  0.9288 -0.8035
   15MOL0     H 2024   2.636   8.134   2.317  0.9450  3.4295  1.0822
   15MOL0     H 2025   2.797   8.064   2.279  0.0827 -1.3611 -0.5876
   16MOL0     O 2026   7.967   2.382   9.425  0.1533  0.7241 -0.3627
   16MOL0     C 2027   7.981   2.435   9.314 -0.7565  0.7728  0.4530
   16MOL0     O 2028   8.100   2.487   9.273 -0.2868 -0.3932 -0.2060
   16MOL0     C 2029   8.203   2.516   9.362 -0.3726  0.4163  0.3475
   16MOL0     C 2030   8.265   2.398   9.424  0.3663 -0.3254 -0.4697
   16MOL0     C 2031   8.381   2.414   9.503 -0.6445  0.4145  0.0723
   16MOL0     C 2032   8.440   2.542   9.522 -0.0177 -0.0316 -0.0530
   16MOL0     O 2033   8.544   2.572   9.607 -0.3409 -0.1309 -0.3644
   16MOL0     C 2034   8.630   2.464   9.661  0.0364  0.1579  0.2098
   16MOL0     C 2035   8.755   2.452   9.570  0.7892  0.1838 -0.3469
   16MOL0     C 2036   8.817   2.594   9.561  0.3738  1.5605 -0.1597
   16MOL0     C 2037   8.958   2.612   9.499 -0.0509 -0.6856 -0.4095
   16MOL0     C 2038   8.977   2.755   9.474 -0.2920  0.1500 -0.9627
   16MOL0     C 2039   9.104   2.760   9.382 -0.0874  0.0283  0.2019
   16MOL0     C 2040   9.235   2.741   9.469 -0.3920  0.2029  0.1415
   16MOL0     C 2041   9.267   2.877   9.540 -0.8115  0.4095  0.0793
   16MOL0     N 2042   9.401   2.877   9.628 -0.1340 -1.3209  0.1834
   16MOL0     C 2043   9.422   2.809   9.743 -0.4266 -0.6042  1.0446
   16MOL0     C 2044   9.556   2.832   9.777 -0.0543  0.6256 -0.8202
   16MOL0     C 2045   9.630   2.781   9.904  0.4106  0.2099  0.4140
   16MOL0     C 2046   9.772   2.821   9.900 -0.5648 -0.0072  0.6047
   16MOL0     C 2047   9.845   2.760  10.025 -0.1387 -0.3423 -0.8737
   16MOL0     C 2048   9.972   2.836  10.067  0.4639  0.2479  0.0733
   16MOL0     O 2049  10.072   2.801   9.968 -0.1715  0.2318  0.0217
   16MOL0     C 2050  10.186   2.877   9.950  0.1379 -0.0462  1.2900
   16MOL0     C 2051  10.225   2.980  10.044  0.0019 -0.5404  0.6499
   16MOL0     C 2052  10.337   3.051  10.015 -0.1211 -0.0948 -0.2183
   16MOL0     C 2053  10.423   3.017   9.902  0.5707 -0.0779 -0.4199
   16MOL0     C 2054  10.549   3.093   9.892 -0.1199 -1.4382  0.1031
   16MOL0     O 2055  10.574   3.196   9.971  0.4781 -0.8005  0.0730
   16MOL0     C 2056  10.699   3.263   9.973  0.5608 -0.3183 -0.9322
   16MOL0     C 2057  10.741   3.323  10.089  0.3502  0.3510 -0.7078
   16MOL0     C 2058  10.854   3.394  10.099 -0.1856 -0.0671 -0.9962
   16MOL0     C 2059  10.950   3.407   9.988 -0.0708  0.9017 -0.2327
   16MOL0     O 2060  11.067   3.475   9.977  0.0748 -0.0867 -0.3786
   16MOL0     C 2061  11.107   3.561  10.089 -1.2408 -0.2946 -0.5675
   16MOL0     C 2062  11.262   3.585  10.067  0.4426  0.7542  0.0651
   16MOL0     C 2063  11.291   3.682   9.958 -0.3128  0.7301 -0.0800
   16MOL0     C 2064  11.261   3.829  10.001 -0.2142 -0.0789 -0.0580
   16MOL0     C 2065  11.318   3.931   9.898 -0.0287 -0.4608 -0.1533
   16MOL0     C 2066  11.335   4.071   9.954 -0.1005 -0.0096 -0.4315
   16MOL0     C 2067  11.205   4.148   9.999  0.7854 -0.7081 -0.7944
   16MOL0     C 2068  11.125   4.211   9.889  0.4363 -1.4483  0.3208
   16MOL0    Cl 2069  10.962   4.255   9.950 -0.1432 -0.5755  0.0452
   16MOL0     C 2070  10.907   3.346   9.872 -0.5205 -0.0001 -0.0950
   16MOL0     C 2071  10.785   3.278   9.861  0.7878  0.9595 -0.6829
   16MOL0     O 2072  10.615   3.061   9.788  1.0825 -0.3734 -0.6221
   16MOL0     C 2073  10.391   2.911   9.820  0.3173 -0.0171  0.1027
   16MOL0     C 2074  10.273   2.848   9.847 -0.3818 -0.1154 -0.0131
   16MOL0     N 2075   9.613   2.902   9.674 -0.1974  0.1152 -1.0938
   16MOL0     N 2076   9.521   2.932   9.592  0.0319 -0.7633 -0.5813
   16MOL0     C 2077   8.378   2.652   9.465  0.7011  0.2387  0.4442
   16MOL0     C 2078   8.262   2.648   9.387 -1.0204  0.0369 -0.9807
   16MOL0     C 2079   7.869   2.456   9.225  1.0280  0.0733  0.0997
   16MOL0     C 2080   7.854   2.577   9.158  0.1479  0.2622  0.6301
   16MOL0     C 2081   7.735   2.601   9.082  0.0097 -1.1328 -0.4058
   16MOL0     C 2082   7.628   2.505   9.083  0.1522  0.5345  0.0497
   16MOL0     O 2083   7.529   2.513   8.996  0.3278 -0.2091  0.5635
   16MOL0     C 2084   7.449   2.625   9.003 -1.5916  0.3815  0.6477
   16MOL0     C 2085   7.315   2.597   9.083 -0.1372 -0.7075  0.1676
   16MOL0     C 2086   7.333   2.495   9.207 -0.2106 -0.3347  0.9205
   16MOL0     C 2087   7.204   2.500   9.299 -0.1487 -0.4577 -0.0095
   16MOL0     C 2088   7.088   2.450   9.235  0.0873  0.1828 -0.2047
   16MOL0     C 2089   6.990   2.402   9.184  0.2875 -0.4824  0.3045
   16MOL0     C 2090   7.651   2.384   9.140  0.0765  0.0632  0.2573
   16MOL0     C 2091   7.766   2.353   9.208 -1.0789  0.3966 -0.4753
   16MOL0     C 2092   7.786   2.215   9.264 -0.2063  0.0439  0.3453
   16MOL0     H 2093   8.210   2.307   9.406 -0.7466  0.4329 -1.0544
   16MOL0     H 2094   8.421   2.320   9.538 -1.1200 -0.0354 -0.5642
   16MOL0     H 2095   8.665   2.494   9.760  0.4177  2.1672 -0.4895
   16MOL0     H 2096   8.575   2.369   9.672 -0.7585  0.5751 -0.0593
   16MOL0     H 2097   8.713   2.421   9.473 -1.5025 -2.7302  1.3917
   16MOL0     H 2098   8.820   2.374   9.609  0.7649  0.6571  0.6758
   16MOL0     H 2099   8.818   2.641   9.660 -1.6936  0.4988  0.4414
   16MOL0     H 2100   8.744   2.652   9.504 -0.5094  1.5906  0.9591
   16MOL0     H 2101   9.024   2.560   9.569 -0.0395 -0.1607 -0.0262
   16MOL0     H 2102   8.976   2.557   9.406  0.9702 -0.8954 -0.1012
   16MOL0     H 2103   8.896   2.797   9.415 -0.4895 -0.2638 -0.9922
   16MOL0     H 2104   8.979   2.803   9.572 -4.5626 -0.9142 -0.1513
   16MOL0     H 2105   9.105   2.690   9.298 -1.2343  1.9499 -1.5161
   16MOL0     H 2106   9.109   2.861   9.341  2.2501 -0.9440 -2.1634
   16MOL0     H 2107   9.318   2.716   9.402  2.1285 -0.9703  3.4114
   16MOL0     H 2108   9.224   2.649   9.527 -1.5085  1.1880  1.5755
   16MOL0     H 2109   9.272   2.950   9.459  1.4841 -2.0300 -2.1797
   16MOL0     H 2110   9.182   2.896   9.607  0.2757 -1.0389  1.9611
   16MOL0     H 2111   9.355   2.737   9.790 -1.5760 -0.8722 -0.9182
   16MOL0     H 2112   9.588   2.815   9.999  2.0647 -2.2443  2.1401
   16MOL0     H 2113   9.632   2.672   9.907  3.0695  0.1189 -1.2471
   16MOL0     H 2114   9.810   2.766   9.814 -1.8103  0.5636 -0.3527
   16MOL0     H 2115   9.789   2.929   9.887  0.0441 -0.0443  1.0283
   16MOL0     H 2116   9.883   2.658  10.016  0.3222 -0.2693  0.1065
   16MOL0     H 2117   9.773   2.766  10.107 -1.4773  0.1304 -2.0409
   16MOL0     H 2118   9.999   2.818  10.171  1.3378 -1.2579 -0.3675
   16MOL0     H 2119   9.949   2.941  10.048 -1.6975 -0.6986 -3.5176
   16MOL0     H 2120  10.171   3.004  10.135 -2.9929 -1.3802 -0.7739
   16MOL0     H 2121  10.361   3.133  10.081  0.5552 -0.3675 -0.1200
   16MOL0     H 2122  10.684   3.302  10.179  0.2943  0.1619 -0.7885
   16MOL0     H 2123  10.883   3.437  10.195 -2.3762 -1.8246  0.5368
   16MOL0     H 2124  11.049   3.653  10.088 -0.0547  0.4751 -1.0738
   16MOL0     H 2125  11.106   3.521  10.191 -0.6108  1.0080 -0.0197
   16MOL0     H 2126  11.300   3.618  10.164  1.9780 -1.3725  0.2404
   16MOL0     H 2127  11.301   3.485  10.044 -2.6458 -0.5350 -0.1379
   16MOL0     H 2128  11.400   3.679   9.945 -0.0835 -2.4845  1.5680
   16MOL0     H 2129  11.234   3.651   9.869 -3.5486 -1.0327  2.4130
   16MOL0     H 2130  11.310   3.851  10.096  1.2080  0.4002 -0.8678
   16MOL0     H 2131  11.156   3.862  10.001  0.1229  1.1751  1.8922
   16MOL0     H 2132  11.253   3.931   9.810 -0.5735 -0.7135  0.2446
   16MOL0     H 2133  11.419   3.893   9.882 -0.2154 -1.3190  0.6597
   16MOL0     H 2134  11.383   4.065  10.052 -0.4632  3.4663  0.0913
   16MOL0     H 2135  11.399   4.130   9.888 -0.4846 -0.0279 -0.8193
   16MOL0     H 2136  11.228   4.225  10.073 -1.4356 -0.7985  0.0619
   16MOL0     H 2137  11.137   4.078  10.051  1.4092 -0.2794  0.6412
   16MOL0     H 2138  11.170   4.299   9.843 -1.2017 -0.3204  0.7878
   16MOL0     H 2139  11.107   4.146   9.803  0.6562 -0.1328 -0.7586
   16MOL0     H 2140  10.969   3.373   9.787  0.5627  2.9434  1.4711
   16MOL0     H 2141  10.752   3.254   9.761  1.4726 -2.6913 -0.1865
   16MOL0     H 2142  10.460   2.877   9.744  3.1789  0.4599  2.2683
   16MOL0     H 2143  10.240   2.774   9.774  0.2001  0.2917 -0.6968
   16MOL0     H 2144   8.414   2.752   9.490 -1.4404  0.3944  3.3539
   16MOL0     H 2145   8.230   2.729   9.323 -1.3438 -1.3250 -2.6230
   16MOL0     H 2146   7.929   2.655   9.164  1.7927 -1.0017 -1.7616
   16MOL0     H 2147   7.728   2.684   9.012  0.7429  1.6495  2.5427
   16MOL0     H 2148   7.421   2.650   8.901  0.7964  3.2685  0.5657
   16MOL0     H 2149   7.502   2.707   9.051  0.3414 -1.0045  0.9958
   16MOL0     H 2150   7.239   2.566   9.011 -1.8106  4.2019 -0.5257
   16MOL0     H 2151   7.276   2.687   9.130 -1.5224 -0.9982 -0.3962
   16MOL0     H 2152   7.411   2.540   9.269 -0.1353  2.5073 -1.0279
   16MOL0     H 2153   7.365   2.393   9.188 -0.3730 -0.2240 -0.0005
   16MOL0     H 2154   7.227   2.444   9.390  0.4499 -0.4900 -0.1733
   16MOL0     H 2155   7.181   2.602   9.331  2.0384  0.5735 -1.4431
   16MOL0     H 2156   6.894   2.380   9.141 -0.1897  1.0541  0.5221
   16MOL0     H 2157   7.578   2.305   9.132 -1.4609  1.5993 -2.7344
   16MOL0     H 2158   7.758   2.201   9.369 -2.6664 -2.4598 -0.5095
   16MOL0     H 2159   7.736   2.135   9.209 -0.3279 -1.0457  1.9605
   16MOL0     H 2160   7.893   2.190   9.257 -0.5616 -1.4843 -0.1052
   17MOL0     O 2161  11.476   0.928   2.248 -0.1262 -0.0256 -0.2099
   17MOL0     C 2162  11.393   0.959   2.164 -0.7431  1.4113  1.0924
   17MOL0     O 2163  11.261   0.944   2.180 -0.3381  0.0450  0.9137
   17MOL0     C 2164  11.202   0.879   2.286 -0.0785  0.5288 -1.1258
   17MOL0     C 2165  11.255   0.767   2.361 -1.1385 -1.0482  0.4252
   17MOL0     C 2166  11.195   0.711   2.474  0.7675  0.2366  0.1708
   17MOL0     C 2167  11.074   0.766   2.518 -0.9208  0.3423  0.6188
   17MOL0     O 2168  11.019   0.726   2.639  0.3199  0.3636 -0.1667
   17MOL0     C 2169  11.010   0.588   2.649  0.3095  0.2607 -0.2871
   17MOL0     C 2170  10.917   0.573   2.767  0.7488 -0.3140  0.2029
   17MOL0     C 2171  10.898   0.431   2.808  0.8047 -0.9477  0.1203
   17MOL0     C 2172  10.769   0.417   2.880  0.7653  0.2619 -0.5906
   17MOL0     C 2173  10.755   0.275   2.940  0.5138 -1.1405  0.4861
   17MOL0     C 2174  10.604   0.251   2.991  0.4144 -1.0377 -0.0992
   17MOL0     C 2175  10.603   0.141   3.095 -0.1023 -0.3308  0.2222
   17MOL0     C 2176  10.549  -0.002   3.052 -0.1233 -0.8018 -0.2625
   17MOL0     N 2177  10.541  -0.091   3.167 -0.3610 -0.3456 -0.4965
   17MOL0     C 2178  10.653  -0.162   3.209  0.2362  0.3095  0.0136
   17MOL0     C 2179  10.619  -0.237   3.313 -0.3540  0.1799  0.1121
   17MOL0     C 2180  10.699  -0.332   3.388  0.1247  0.4215 -0.9304
   17MOL0     C 2181  10.832  -0.265   3.437  0.8920  0.7759  0.6401
   17MOL0     C 2182  10.950  -0.298   3.355 -0.6375 -0.0239  0.1172
   17MOL0     C 2183  11.070  -0.213   3.409  1.4979 -0.5464  0.1982
   17MOL0     O 2184  11.038  -0.072   3.402 -0.1357  0.8566  0.6860
   17MOL0     C 2185  11.099   0.003   3.303  0.2057 -0.3881 -0.6845
   17MOL0     C 2186  11.234  -0.000   3.270  0.3592  0.5780 -0.5033
   17MOL0     C 2187  11.294   0.084   3.176 -1.0745  1.1488  0.3070
   17MOL0     C 2188  11.211   0.174   3.109  0.0195 -0.4853 -0.7513
   17MOL0     C 2189  11.269   0.269   3.000 -0.2230  0.5866 -0.4488
   17MOL0     O 2190  11.392   0.239   2.952 -0.7968 -0.2094 -0.2244
   17MOL0     C 2191  11.469   0.320   2.864  0.9323  0.1521 -0.7329
   17MOL0     C 2192  11.586   0.371   2.913 -0.2146 -0.4210 -0.2069
   17MOL0     C 2193  11.672   0.443   2.839 -0.4613 -0.4481 -0.7530
   17MOL0     C 2194  11.642   0.476   2.714  0.3270  0.5324  0.2478
   17MOL0     O 2195  11.728   0.560   2.639  0.0640 -0.6893  0.1456
   17MOL0     C 2196  11.671   0.657   2.551 -0.1666  0.2613  0.1126
   17MOL0     C 2197  11.762   0.782   2.543 -0.3686  0.0997 -0.0779
   17MOL0     C 2198  11.887   0.803   2.452  0.8330 -0.2288  0.8425
   17MOL0     C 2199  11.993   0.901   2.510 -0.8410  0.1781 -0.3205
   17MOL0     C 2200  11.949   1.048   2.527  0.6652 -0.3262 -0.6226
   17MOL0     C 2201  11.913   1.119   2.401 -0.4825 -0.3885 -0.2756
   17MOL0     C 2202  11.880   1.263   2.423 -0.2142 -0.6053 -0.0127
   17MOL0     C 2203  11.797   1.329   2.311 -0.7506  0.3897  0.9457
   17MOL0    Cl 2204  11.873   1.308   2.153 -0.2844 -0.1635  0.1711
   17MOL0     C 2205  11.516   0.440   2.659  0.6624  0.3447  0.1617
   17MOL0     C 2206  11.432   0.372   2.746 -0.1276 -0.5865  0.2217
   17MOL0     O 2207  11.199   0.359   2.973  0.2112 -0.7607  0.7761
   17MOL0     C 2208  11.079   0.188   3.149  0.7074  0.5614 -0.4683
   17MOL0     C 2209  11.026   0.104   3.247  0.5643  0.1955 -0.1273
   17MOL0     N 2210  10.487  -0.195   3.351 -0.1835  0.9642  1.0462
   17MOL0     N 2211  10.444  -0.127   3.248  0.7989 -0.1820 -0.2930
   17MOL0     C 2212  11.012   0.865   2.440  0.3277  0.1128 -0.4302
   17MOL0     C 2213  11.074   0.916   2.326 -0.1882 -0.4021 -0.6394
   17MOL0     C 2214  11.436   1.046   2.043  1.0876 -0.4483  1.3646
   17MOL0     C 2215  11.336   1.101   1.959  0.8018  0.1498  0.2733
   17MOL0     C 2216  11.362   1.187   1.843  0.1840  1.0028 -0.1422
   17MOL0     C 2217  11.491   1.205   1.800 -0.1080  0.0047 -0.1371
   17MOL0     O 2218  11.530   1.263   1.679 -0.5529 -0.8724 -0.5416
   17MOL0     C 2219  11.423   1.302   1.593 -0.3177 -0.3976  0.5918
   17MOL0     C 2220  11.472   1.362   1.462  0.2382  0.2401  0.4056
   17MOL0     C 2221  11.370   1.422   1.368  1.3448  0.4283 -0.5657
   17MOL0     C 2222  11.440   1.492   1.251 -0.0173  0.4097  0.2676
   17MOL0     C 2223  11.348   1.558   1.160  0.0806  0.5396  0.8664
   17MOL0     C 2224  11.268   1.613   1.099 -0.9999  0.3037  0.3481
   17MOL0     C 2225  11.593   1.143   1.874 -0.5729  0.4759 -0.1331
   17MOL0     C 2226  11.570   1.069   1.995  0.4901 -0.3026  0.2676
   17MOL0     C 2227  11.700   1.032   2.066  1.2182 -0.7150 -0.2870
   17MOL0     H 2228  11.357   0.734   2.343 -0.3055  0.9223  1.2267
   17MOL0     H 2229  11.254   0.643   2.535 -0.0039  1.0781  1.9345
   17MOL0     H 2230  10.975   0.550   2.552 -0.7290 -1.4818  0.7110
   17MOL0     H 2231  11.111   0.554   2.674  0.1689  0.0439 -0.0102
   17MOL0     H 2232  10.831   0.629   2.727  1.5248 -0.3258 -1.5873
   17MOL0     H 2233  10.943   0.635   2.853  1.2373 -0.0641 -0.1150
   17MOL0     H 2234  10.976   0.397   2.877  2.1561  2.7785  0.6291
   17MOL0     H 2235  10.893   0.365   2.721  0.4182 -1.8098  0.7782
   17MOL0     H 2236  10.753   0.490   2.959  1.8851  0.4414 -0.5127
   17MOL0     H 2237  10.689   0.443   2.810 -0.4850  1.2335  1.1145
   17MOL0     H 2238  10.787   0.209   2.859 -2.2871 -0.2576 -1.5075
   17MOL0     H 2239  10.819   0.252   3.026  3.2245 -0.3267 -1.1852
   17MOL0     H 2240  10.574   0.345   3.039  0.3913  0.9997 -3.7329
   17MOL0     H 2241  10.538   0.242   2.904  2.5376 -0.9582 -1.8246
   17MOL0     H 2242  10.538   0.164   3.180 -3.6056 -0.6214 -2.1833
   17MOL0     H 2243  10.706   0.134   3.131 -1.0312  0.8894  3.4968
   17MOL0     H 2244  10.447   0.011   3.015 -0.5302  0.1670  1.0870
   17MOL0     H 2245  10.617  -0.032   2.972  2.1852  2.3969  0.2480
   17MOL0     H 2246  10.752  -0.151   3.164  0.9183 -0.7590  1.1909
   17MOL0     H 2247  10.654  -0.378   3.477  0.3718 -0.5549 -1.2872
   17MOL0     H 2248  10.711  -0.415   3.318  0.2173 -2.6793  2.4269
   17MOL0     H 2249  10.810  -0.158   3.438 -1.2945  0.3866  0.2114
   17MOL0     H 2250  10.849  -0.303   3.538  2.0014  0.1684  0.2403
   17MOL0     H 2251  10.926  -0.274   3.251 -1.2696  0.5128  0.3773
   17MOL0     H 2252  10.980  -0.403   3.355  0.5500  0.2835  1.8210
   17MOL0     H 2253  11.168  -0.229   3.363  0.0336 -0.4402 -3.2876
   17MOL0     H 2254  11.081  -0.234   3.515 -2.6376  1.9394  1.3280
   17MOL0     H 2255  11.307  -0.060   3.322 -2.9045 -3.5408 -0.1119
   17MOL0     H 2256  11.401   0.078   3.158 -1.5520  2.3339 -4.1021
   17MOL0     H 2257  11.607   0.337   3.014  1.0096 -1.3853 -0.7599
   17MOL0     H 2258  11.753   0.496   2.887 -2.3742  0.1908  2.0010
   17MOL0     H 2259  11.669   0.619   2.449 -1.1627  0.5155  0.0317
   17MOL0     H 2260  11.571   0.693   2.575 -0.6227  0.3985 -1.8921
   17MOL0     H 2261  11.703   0.869   2.512  0.1739  1.5889  2.6942
   17MOL0     H 2262  11.794   0.837   2.632  3.5034  3.7066 -3.3044
   17MOL0     H 2263  11.931   0.708   2.420 -0.1170 -0.0031 -1.2427
   17MOL0     H 2264  11.845   0.852   2.364  1.0266  2.3689  2.1075
   17MOL0     H 2265  12.082   0.900   2.447 -0.4323  0.7388  0.2371
   17MOL0     H 2266  12.018   0.869   2.612 -2.4150 -1.0455 -0.2753
   17MOL0     H 2267  12.033   1.103   2.569  1.2457 -1.4850 -0.2384
   17MOL0     H 2268  11.861   1.063   2.590  0.3415 -1.2618 -0.8238
   17MOL0     H 2269  11.985   1.110   2.320  0.9101  1.1026  0.7314
   17MOL0     H 2270  11.814   1.080   2.375 -1.3544  1.4357  0.1759
   17MOL0     H 2271  11.975   1.316   2.434  0.0855 -1.4569  1.9536
   17MOL0     H 2272  11.825   1.268   2.517 -1.3398 -1.0925 -0.6277
   17MOL0     H 2273  11.693   1.295   2.321 -0.3234 -2.4914 -2.3138
   17MOL0     H 2274  11.787   1.435   2.336 -0.7102  0.4768  0.5985
   17MOL0     H 2275  11.486   0.472   2.560 -0.4105  1.2215  0.7484
   17MOL0     H 2276  11.331   0.345   2.717 -0.2623 -0.8697  0.9210
   17MOL0     H 2277  11.023   0.277   3.120 -2.3458 -0.2541  2.2951
   17MOL0     H 2278  10.927   0.121   3.287  1.9166 -0.1029  3.7693
   17MOL0     H 2279  10.912   0.891   2.473  0.8097  0.3499  0.8970
   17MOL0     H 2280  11.021   0.980   2.256 -3.0065 -2.4590 -0.5434
   17MOL0     H 2281  11.235   1.072   1.985  1.1964  0.7992  2.8446
   17MOL0     H 2282  11.273   1.228   1.796 -0.0618 -0.9955 -1.5141
   17MOL0     H 2283  11.372   1.383   1.645  2.4095  0.5820  1.9492
   17MOL0     H 2284  11.361   1.216   1.570  0.7437 -1.3523  1.1885
   17MOL0     H 2285  11.525   1.287   1.402 -1.5046  1.0184 -2.2448
   17MOL0     H 2286  11.533   1.449   1.489 -2.4827  2.5577 -0.3755
   17MOL0     H 2287  11.317   1.499   1.424 -0.3013  0.5194 -2.1857
   17MOL0     H 2288  11.294   1.347   1.345 -1.7227  2.6563  1.5492
   17MOL0     H 2289  11.513   1.565   1.288  1.7338 -2.6257  3.3657
   17MOL0     H 2290  11.488   1.420   1.184 -0.7890  1.5317 -1.5693
   17MOL0     H 2291  11.206   1.665   1.029  1.6627  2.0457 -0.9342
   17MOL0     H 2292  11.694   1.136   1.834 -1.0651  0.0569 -1.3620
   17MOL0     H 2293  11.697   1.074   2.167  0.2189 -2.3577  0.4066
   17MOL0     H 2294  11.723   0.926   2.058  0.9810 -0.7128 -1.1503
   17MOL0     H 2295  11.790   1.072   2.018  2.1505 -3.3948 -0.8986
   18MOL0     O 2296   4.648   8.693   9.050  0.6637 -0.0282 -0.8483
   18MOL0     C 2297   4.665   8.650   9.162 -0.2145  0.2651 -0.0451
   18MOL0     O 2298   4.720   8.716   9.262  0.4164  0.1143 -0.1504
   18MOL0     C 2299   4.744   8.855   9.253  0.5383  0.6735 -0.0117
   18MOL0     C 2300   4.663   8.943   9.184 -0.0987 -0.2700 -0.1670
   18MOL0     C 2301   4.697   9.082   9.191 -0.2142  0.2824 -0.5249
   18MOL0     C 2302   4.818   9.127   9.249  0.0821  0.2994 -0.1274
   18MOL0     O 2303   4.855   9.255   9.241  0.1372 -0.0272 -0.0619
   18MOL0     C 2304   4.754   9.355   9.248  0.8925  0.4777  0.1894
   18MOL0     C 2305   4.806   9.475   9.311  0.4351 -0.0639 -0.5472
   18MOL0     C 2306   4.711   9.598   9.284 -0.2785 -0.5224  0.0731
   18MOL0     C 2307   4.567   9.580   9.330  0.1252  0.1407 -0.9494
   18MOL0     C 2308   4.562   9.546   9.482  0.2770  0.8936  0.1567
   18MOL0     C 2309   4.438   9.616   9.549  0.4432 -0.1819 -0.3699
   18MOL0     C 2310   4.303   9.576   9.492 -1.2059  0.8649  0.5837
   18MOL0     C 2311   4.184   9.640   9.569 -0.2669 -0.2584  0.0652
   18MOL0     N 2312   4.056   9.583   9.520  0.3635 -0.1584  0.0810
   18MOL0     C 2313   3.968   9.653   9.446 -0.0781 -0.2523  0.3274
   18MOL0     C 2314   3.872   9.563   9.426  0.6514  0.4439 -0.4107
   18MOL0     C 2315   3.737   9.590   9.371  0.0003  0.3254  0.3653
   18MOL0     C 2316   3.729   9.527   9.226  0.2651  0.2278  0.7298
   18MOL0     C 2317   3.825   9.565   9.117  0.5060  0.1873 -0.5333
   18MOL0     C 2318   3.773   9.590   8.974 -0.0574 -0.4885  0.2603
   18MOL0     O 2319   3.685   9.484   8.936  0.1044  0.8068  0.4003
   18MOL0     C 2320   3.620   9.485   8.813 -0.2385  0.0673  0.2424
   18MOL0     C 2321   3.510   9.398   8.806 -0.4948 -0.1484  0.2003
   18MOL0     C 2322   3.441   9.396   8.688  0.3266  0.5576 -0.2203
   18MOL0     C 2323   3.478   9.474   8.570  0.4933  0.6521 -0.0081
   18MOL0     C 2324   3.387   9.476   8.451  0.8204 -0.2547 -0.5858
   18MOL0     O 2325   3.425   9.532   8.328  0.1172 -0.7654 -0.1080
   18MOL0     C 2326   3.333   9.519   8.220 -0.4044  0.0798 -0.2544
   18MOL0     C 2327   3.269   9.633   8.183 -0.3171 -0.2193  0.7187
   18MOL0     C 2328   3.176   9.630   8.070 -0.5659  0.0701 -0.4534
   18MOL0     C 2329   3.163   9.520   7.990  0.0783 -0.4096 -0.4614
   18MOL0     O 2330   3.070   9.533   7.887  0.1876  0.5357  0.5124
   18MOL0     C 2331   3.050   9.412   7.808  0.4117 -0.1870 -0.2221
   18MOL0     C 2332   2.975   9.446   7.683  0.6501  0.6167 -0.5798
   18MOL0     C 2333   2.836   9.501   7.710  0.5776 -0.2480 -0.2809
   18MOL0     C 2334   2.742   9.379   7.744 -0.5287 -0.6669 -0.5828
   18MOL0     C 2335   2.594   9.431   7.761  1.2300 -0.0032 -0.7560
   18MOL0     C 2336   2.569   9.520   7.885  0.9241 -0.8210 -0.4413
   18MOL0     C 2337   2.416   9.555   7.891 -0.1316  0.9021  0.1607
   18MOL0     C 2338   2.374   9.640   8.013 -0.5696 -0.4518  0.6235
   18MOL0    Cl 2339   2.431   9.592   8.168 -0.1332  0.4397 -0.4776
   18MOL0     C 2340   3.235   9.407   8.020  0.0472  0.5997 -0.7614
   18MOL0     C 2341   3.316   9.410   8.142 -0.6767 -0.6215 -0.4535
   18MOL0     O 2342   3.270   9.428   8.465 -0.9024  0.1640  0.3584
   18MOL0     C 2343   3.588   9.558   8.582 -0.2073 -0.1815  0.2197
   18MOL0     C 2344   3.663   9.559   8.700 -0.0048  0.1082  1.3770
   18MOL0     N 2345   3.919   9.442   9.474  0.5411  0.5911  0.8867
   18MOL0     N 2346   4.024   9.444   9.532 -0.1800 -1.0156 -0.1217
   18MOL0     C 2347   4.905   9.029   9.309  0.4388 -0.4308 -0.0488
   18MOL0     C 2348   4.857   8.902   9.329 -0.4806  0.6162  0.0341
   18MOL0     C 2349   4.634   8.509   9.188 -0.2111 -0.3314 -0.8242
   18MOL0     C 2350   4.512   8.457   9.177 -0.2044  0.1504 -0.9715
   18MOL0     C 2351   4.492   8.314   9.197 -0.7589 -0.0571  0.6579
   18MOL0     C 2352   4.595   8.231   9.227 -0.2821 -0.3788  0.1905
   18MOL0     O 2353   4.560   8.099   9.269  0.0107 -0.7072  0.1719
   18MOL0     C 2354   4.665   8.008   9.306 -0.4929  0.0392 -0.8181
   18MOL0     C 2355   4.618   7.879   9.369  0.1920  0.2902  0.4077
   18MOL0     C 2356   4.574   7.777   9.256 -1.2027  1.1326  0.1665
   18MOL0     C 2357   4.430   7.799   9.218 -0.0804 -0.3264  0.7859
   18MOL0     C 2358   4.348   7.717   9.305 -0.0721  0.4666  0.1885
   18MOL0     C 2359   4.279   7.652   9.382 -0.0057 -0.2788  0.2554
   18MOL0     C 2360   4.724   8.289   9.234 -0.3905  0.4315 -0.5138
   18MOL0     C 2361   4.746   8.424   9.214 -0.0830  0.4684 -0.0963
   18MOL0     C 2362   4.886   8.480   9.230 -0.5508  0.1362  0.4728
   18MOL0     H 2363   4.576   8.902   9.132 -0.6375 -0.4441  0.8395
   18MOL0     H 2364   4.628   9.153   9.145 -2.7911 -0.4447  1.9269
   18MOL0     H 2365   4.730   9.374   9.143  0.2683 -5.1278 -1.0262
   18MOL0     H 2366   4.670   9.311   9.302 -0.1569  1.7370 -0.3536
   18MOL0     H 2367   4.910   9.498   9.284  1.6393 -2.3703  1.6500
   18MOL0     H 2368   4.806   9.460   9.420 -1.7641  1.9217 -0.2211
   18MOL0     H 2369   4.723   9.646   9.186 -1.9213 -1.8525 -0.8370
   18MOL0     H 2370   4.747   9.678   9.349 -4.3136 -0.6137  2.7224
   18MOL0     H 2371   4.517   9.673   9.302 -2.1459 -0.1674  1.7453
   18MOL0     H 2372   4.529   9.490   9.280 -2.7219 -0.9388  2.7721
   18MOL0     H 2373   4.582   9.439   9.494  1.2467  1.3893  4.4562
   18MOL0     H 2374   4.648   9.587   9.536 -0.4591  2.7892 -0.0418
   18MOL0     H 2375   4.435   9.581   9.652  2.5594  3.6933  1.2138
   18MOL0     H 2376   4.452   9.724   9.542  0.3814 -0.2049 -0.8836
   18MOL0     H 2377   4.295   9.468   9.501 -3.7823  0.9351 -0.0195
   18MOL0     H 2378   4.285   9.608   9.389  0.7969  2.9698  0.7840
   18MOL0     H 2379   4.206   9.616   9.673 -1.8981 -2.0127  0.0550
   18MOL0     H 2380   4.182   9.749   9.563  0.0638 -0.3259 -3.5808
   18MOL0     H 2381   3.970   9.759   9.423 -1.7677 -0.6397 -2.0289
   18MOL0     H 2382   3.665   9.546   9.441  1.6358 -2.0956  0.6718
   18MOL0     H 2383   3.723   9.698   9.373  0.8143  0.4797 -1.0903
   18MOL0     H 2384   3.749   9.420   9.235 -0.5012  0.0814  0.7327
   18MOL0     H 2385   3.634   9.559   9.184  0.5655  1.6535  1.0805
   18MOL0     H 2386   3.896   9.486   9.092  1.0909  0.3050  0.6609
   18MOL0     H 2387   3.890   9.650   9.141 -1.9667  2.3558 -1.0770
   18MOL0     H 2388   3.851   9.580   8.898 -1.0584 -2.1661 -0.6098
   18MOL0     H 2389   3.708   9.678   8.976 -1.8064 -1.7306  0.0024
   18MOL0     H 2390   3.478   9.339   8.891  0.4564 -1.6472 -0.4335
   18MOL0     H 2391   3.364   9.320   8.679 -0.2658  1.1862 -0.5981
   18MOL0     H 2392   3.288   9.721   8.244  2.1753 -0.3545  0.2478
   18MOL0     H 2393   3.123   9.722   8.046  0.0199  0.4571 -0.2696
   18MOL0     H 2394   3.138   9.356   7.775 -2.0140 -2.6587 -3.0580
   18MOL0     H 2395   2.990   9.340   7.864  0.0975  0.3614  0.1587
   18MOL0     H 2396   3.031   9.527   7.635 -0.5619  1.3156 -0.8851
   18MOL0     H 2397   2.972   9.371   7.604  2.5138  1.4680 -1.5105
   18MOL0     H 2398   2.834   9.579   7.787 -1.3569 -0.6313  0.1245
   18MOL0     H 2399   2.795   9.553   7.623  3.7859  4.2210  0.5055
   18MOL0     H 2400   2.787   9.336   7.834 -2.9242  0.6589  1.3786
   18MOL0     H 2401   2.741   9.296   7.673 -2.7350 -2.2007  1.1134
   18MOL0     H 2402   2.530   9.344   7.779  0.4103  0.9189  1.1138
   18MOL0     H 2403   2.560   9.488   7.675 -3.3670  0.7884  1.2574
   18MOL0     H 2404   2.598   9.467   7.977  0.7534  1.9632  1.3293
   18MOL0     H 2405   2.628   9.612   7.880 -0.6081  0.4098  1.9911
   18MOL0     H 2406   2.362   9.461   7.906  1.6450 -0.0277  0.9832
   18MOL0     H 2407   2.385   9.610   7.801  0.6450 -0.1185 -0.7461
   18MOL0     H 2408   2.405   9.743   7.997 -1.1096 -0.6264 -2.1375
   18MOL0     H 2409   2.264   9.639   8.014 -0.7298  1.8404 -2.2354
   18MOL0     H 2410   3.238   9.320   7.955 -2.4490  0.6000 -0.9596
   18MOL0     H 2411   3.385   9.328   8.158  0.1282 -0.7029 -3.5595
   18MOL0     H 2412   3.626   9.615   8.499 -0.0107 -0.3423  0.1978
   18MOL0     H 2413   3.750   9.623   8.710  1.2147 -1.2609 -0.0662
   18MOL0     H 2414   4.995   9.063   9.360  1.9304  0.5637 -3.1023
   18MOL0     H 2415   4.916   8.834   9.389  0.9457  0.3098 -1.6406
   18MOL0     H 2416   4.418   8.507   9.162  0.6512  2.3561  0.4959
   18MOL0     H 2417   4.390   8.278   9.193 -2.4674  4.2908 -1.1168
   18MOL0     H 2418   4.731   8.056   9.379  3.1683 -1.4783 -2.9058
   18MOL0     H 2419   4.734   7.985   9.225 -0.7073 -0.7042 -0.7942
   18MOL0     H 2420   4.548   7.903   9.450 -2.1317 -0.0397 -1.3871
   18MOL0     H 2421   4.700   7.826   9.419 -0.4865 -3.2657 -1.8253
   18MOL0     H 2422   4.578   7.677   9.299 -1.5428  1.0550  0.0201
   18MOL0     H 2423   4.640   7.786   9.170 -0.4686  0.6565  0.6670
   18MOL0     H 2424   4.413   7.906   9.227  3.2112  0.3018  0.6115
   18MOL0     H 2425   4.396   7.772   9.117  1.0874  1.8847 -0.2786
   18MOL0     H 2426   4.211   7.601   9.447 -0.9448  1.9422  1.0779
   18MOL0     H 2427   4.810   8.231   9.266 -1.3707  0.2245  1.9645
   18MOL0     H 2428   4.905   8.502   9.335 -2.6186  0.9591  0.7314
   18MOL0     H 2429   4.951   8.402   9.191 -1.2828 -0.4948  0.4932
   18MOL0     H 2430   4.911   8.568   9.169  0.1425  0.3602  1.0712
   19MOL0     O 2431   1.580  11.126   8.738  0.1766  0.8492 -0.1179
   19MOL0     C 2432   1.569  11.243   8.765 -0.1730  0.7246 -0.9365
   19MOL0     O 2433   1.443  11.295   8.815 -0.0547 -0.2503  0.4782
   19MOL0     C 2434   1.344  11.209   8.884 -0.4532 -0.4551  0.0027
   19MOL0     C 2435   1.355  11.075   8.923 -0.7825 -0.0767  0.6431
   19MOL0     C 2436   1.245  11.023   8.989  0.5938  0.1837 -0.7584
   19MOL0     C 2437   1.127  11.089   9.020 -0.6860 -0.6619 -0.4856
   19MOL0     O 2438   1.030  11.028   9.086  0.4009 -0.5399 -0.0346
   19MOL0     C 2439   0.921  11.009   9.001  0.2906  1.3208  0.2658
   19MOL0     C 2440   0.827  10.904   9.069  0.2357 -0.2681  0.0338
   19MOL0     C 2441   0.889  10.773   9.048 -0.1292 -0.7225 -0.5899
   19MOL0     C 2442   0.879  10.718   8.902 -0.4721 -0.0519 -0.4265
   19MOL0     C 2443   0.968  10.605   8.881 -0.6138  0.2580  0.5344
   19MOL0     C 2444   0.929  10.545   8.742  0.2199  0.5529  0.8511
   19MOL0     C 2445   1.004  10.409   8.716 -0.4954 -0.1981 -0.0256
   19MOL0     C 2446   1.053  10.390   8.575  0.4180  0.2751 -0.5831
   19MOL0     N 2447   0.943  10.425   8.481  0.2340 -0.2294 -0.0299
   19MOL0     C 2448   0.824  10.354   8.477  0.0078  0.6711 -0.2212
   19MOL0     C 2449   0.748  10.431   8.393  0.0138 -0.1189  1.2950
   19MOL0     C 2450   0.599  10.428   8.355  0.6537 -0.4994  0.0248
   19MOL0     C 2451   0.499  10.396   8.469 -0.1458  1.0260  0.0528
   19MOL0     C 2452   0.356  10.399   8.411 -1.1593  1.1631  0.1972
   19MOL0     C 2453   0.249  10.421   8.522 -1.2530 -0.3862  0.5223
   19MOL0     O 2454   0.164  10.313   8.540 -0.0862 -0.2231 -0.2433
   19MOL0     C 2455   0.052  10.294   8.453  0.0768 -0.7656 -0.2298
   19MOL0     C 2456   0.013  10.388   8.346 -0.3607  0.4996  0.3329
   19MOL0     C 2457  -0.102  10.376   8.276  0.0282 -0.0626  0.0812
   19MOL0     C 2458  -0.200  10.279   8.318  0.4608  1.0190 -0.1695
   19MOL0     C 2459  -0.318  10.259   8.231 -0.9714  1.0707 -0.1482
   19MOL0     O 2460  -0.371  10.363   8.163  0.2423 -0.1051 -0.8049
   19MOL0     C 2461  -0.480  10.350   8.102  0.9034 -1.4523  0.1361
   19MOL0     C 2462  -0.595  10.402   8.162 -0.2584 -0.0328  0.6305
   19MOL0     C 2463  -0.721  10.383   8.098  0.9719 -0.3579  0.2964
   19MOL0     C 2464  -0.726  10.314   7.972 -0.8100  0.8526  0.5487
   19MOL0     O 2465  -0.845  10.280   7.920 -0.0036 -0.6877 -0.5183
   19MOL0     C 2466  -0.873  10.326   7.787  0.1146 -0.0160 -0.0227
   19MOL0     C 2467  -1.021  10.348   7.763 -0.5564 -0.3960 -0.0170
   19MOL0     C 2468  -1.096  10.432   7.861 -0.5199 -0.5499  0.2292
   19MOL0     C 2469  -1.014  10.560   7.889  0.4245 -0.2921 -1.1288
   19MOL0     C 2470  -1.101  10.644   7.985 -0.3989  0.2684  0.5894
   19MOL0     C 2471  -1.021  10.760   8.051 -0.6860 -0.6614 -0.0585
   19MOL0     C 2472  -1.012  10.867   7.953 -0.1881 -0.3146 -0.2329
   19MOL0     C 2473  -0.951  10.990   8.032  0.0948 -0.1901  0.7252
   19MOL0    Cl 2474  -0.904  11.100   7.895 -0.5531  0.2301  0.0447
   19MOL0     C 2475  -0.604  10.264   7.915 -0.2347 -0.0519 -0.1449
   19MOL0     C 2476  -0.484  10.282   7.978  0.2273 -0.2924  1.1110
   19MOL0     O 2477  -0.375  10.144   8.246 -0.7766 -0.1429 -0.6407
   19MOL0     C 2478  -0.158  10.182   8.418  0.6813  1.3576 -0.1292
   19MOL0     C 2479  -0.043  10.200   8.486  0.3549 -1.4037 -0.3843
   19MOL0     N 2480   0.825  10.541   8.341 -0.1642  0.2911  0.0709
   19MOL0     N 2481   0.930  10.536   8.412 -0.5910  0.2007  0.4123
   19MOL0     C 2482   1.128  11.222   8.994 -0.0087  0.7061  0.4769
   19MOL0     C 2483   1.230  11.277   8.917 -0.1830 -0.4528  0.1865
   19MOL0     C 2484   1.679  11.345   8.744  0.1599 -0.2134 -0.1710
   19MOL0     C 2485   1.640  11.485   8.741  0.4971 -0.4710  0.2701
   19MOL0     C 2486   1.730  11.582   8.710 -0.1868 -0.5687  0.7717
   19MOL0     C 2487   1.860  11.549   8.667  0.1971 -1.5349 -0.8323
   19MOL0     O 2488   1.943  11.648   8.628 -0.1346 -0.4690 -0.7441
   19MOL0     C 2489   1.892  11.766   8.555 -0.1926  0.0857 -0.9230
   19MOL0     C 2490   1.880  11.880   8.658  0.0818  0.1616 -0.3357
   19MOL0     C 2491   1.984  11.980   8.627 -0.8429 -0.5244  0.0448
   19MOL0     C 2492   1.971  12.098   8.729 -0.2079  0.1173 -0.3442
   19MOL0     C 2493   1.840  12.163   8.727  0.0064  0.5891 -0.2223
   19MOL0     C 2494   1.730  12.213   8.720 -0.5827 -0.2285 -1.0765
   19MOL0     C 2495   1.897  11.414   8.670 -1.0526 -0.5364 -0.5647
   19MOL0     C 2496   1.809  11.312   8.701 -0.1854  1.3791  0.0373
   19MOL0     C 2497   1.863  11.175   8.707 -0.5228  0.2557 -0.4897
   19MOL0     H 2498   1.440  11.023   8.880 -1.6275 -0.2439 -0.8838
   19MOL0     H 2499   1.248  10.917   9.009  0.8692  0.5483  1.4685
   19MOL0     H 2500   0.861  11.100   8.996 -2.0896 -0.0529  1.7996
   19MOL0     H 2501   0.946  10.981   8.898  1.4282 -1.1915  1.1355
   19MOL0     H 2502   0.727  10.921   9.028 -0.9742 -1.6835  2.2137
   19MOL0     H 2503   0.824  10.916   9.177  2.0856 -2.6310  0.4388
   19MOL0     H 2504   0.856  10.697   9.119  2.8056  0.8208  2.7960
   19MOL0     H 2505   0.991  10.791   9.085 -1.1209  0.2050  1.9582
   19MOL0     H 2506   0.773  10.698   8.885 -1.1768  2.7061  0.1985
   19MOL0     H 2507   0.906  10.790   8.824 -0.8382  0.2720 -0.2564
   19MOL0     H 2508   1.075  10.627   8.887  0.1131 -2.1595 -1.4355
   19MOL0     H 2509   0.948  10.524   8.952 -1.3036  0.2156  0.3010
   19MOL0     H 2510   0.823  10.523   8.729  0.1652  0.5273  1.3222
   19MOL0     H 2511   0.945  10.616   8.660 -2.6972 -0.2399 -0.5436
   19MOL0     H 2512   0.930  10.330   8.732 -2.7794  1.8273  0.0295
   19MOL0     H 2513   1.093  10.400   8.779 -1.5976 -0.9844  1.4894
   19MOL0     H 2514   1.146  10.443   8.552  0.1891 -0.6254 -4.2788
   19MOL0     H 2515   1.081  10.285   8.571  0.6329  0.2178  1.4586
   19MOL0     H 2516   0.791  10.269   8.536  1.2618  2.0381  2.6305
   19MOL0     H 2517   0.567  10.521   8.309 -0.4464  1.8927  4.9431
   19MOL0     H 2518   0.585  10.354   8.276 -0.3282  1.7799 -2.0160
   19MOL0     H 2519   0.528  10.294   8.495 -1.1489  0.6671 -0.1994
   19MOL0     H 2520   0.514  10.461   8.556  3.7760 -1.1423  1.2503
   19MOL0     H 2521   0.329  10.306   8.361  3.3159 -1.0391  1.3151
   19MOL0     H 2522   0.344  10.474   8.332 -3.7157 -0.7644 -1.3624
   19MOL0     H 2523   0.196  10.516   8.512  0.1960  0.3907 -0.1659
   19MOL0     H 2524   0.307  10.427   8.614 -2.1070 -3.0571  1.3266
   19MOL0     H 2525   0.080  10.458   8.298 -1.2572 -0.2131 -2.1252
   19MOL0     H 2526  -0.137  10.446   8.201 -1.7913 -1.9471 -0.9443
   19MOL0     H 2527  -0.594  10.446   8.260  2.7161  1.1012  0.1831
   19MOL0     H 2528  -0.815  10.416   8.143 -1.0707 -1.8585 -2.5528
   19MOL0     H 2529  -0.828  10.425   7.771 -2.1559  1.4700  1.9978
   19MOL0     H 2530  -0.824  10.260   7.716 -0.1726  0.8640 -1.0637
   19MOL0     H 2531  -1.025  10.389   7.662  1.5295  1.8472  0.7135
   19MOL0     H 2532  -1.063  10.247   7.758  0.6690 -0.8737 -3.5837
   19MOL0     H 2533  -1.184  10.478   7.816  1.6866  2.3013 -1.5676
   19MOL0     H 2534  -1.110  10.379   7.955  0.5653 -1.7840 -0.2728
   19MOL0     H 2535  -0.977  10.606   7.797  1.2504  4.7602  1.4220
   19MOL0     H 2536  -0.920  10.524   7.932  1.1318  1.9230 -0.6853
   19MOL0     H 2537  -1.147  10.574   8.055 -0.4229  0.7142  1.0184
   19MOL0     H 2538  -1.186  10.678   7.925  1.4505  0.7611 -1.9453
   19MOL0     H 2539  -1.076  10.809   8.132 -2.7503  0.8461 -2.2207
   19MOL0     H 2540  -0.925  10.722   8.087 -1.9114 -1.9353  2.0193
   19MOL0     H 2541  -1.105  10.899   7.904  1.1086  3.7183 -0.4896
   19MOL0     H 2542  -0.933  10.834   7.885 -1.3619 -0.6777 -1.4752
   19MOL0     H 2543  -1.028  11.040   8.091 -6.0700 -2.4300 -4.3191
   19MOL0     H 2544  -0.862  10.967   8.092  2.2381  1.7591 -1.4666
   19MOL0     H 2545  -0.607  10.186   7.839  2.0569  1.3943 -1.8803
   19MOL0     H 2546  -0.387  10.244   7.949 -0.3846 -1.2065  0.2224
   19MOL0     H 2547  -0.222  10.097   8.442  1.1224  0.9413 -0.4201
   19MOL0     H 2548  -0.033  10.127   8.565 -0.2253 -0.3266  0.7250
   19MOL0     H 2549   1.050  11.287   9.031 -1.8791 -0.1715 -1.6723
   19MOL0     H 2550   1.219  11.383   8.894 -2.1450 -0.6460  0.0960
   19MOL0     H 2551   1.543  11.519   8.775  1.0443  1.2470  0.2384
   19MOL0     H 2552   1.701  11.683   8.735 -1.6709 -1.4152  2.7941
   19MOL0     H 2553   1.795  11.738   8.513 -2.7526  1.8398  3.1373
   19MOL0     H 2554   1.968  11.788   8.480  1.5393 -1.5410  0.2653
   19MOL0     H 2555   1.903  11.852   8.762 -0.6960  0.0586 -0.1855
   19MOL0     H 2556   1.780  11.924   8.646 -0.5335 -1.3096 -0.8181
   19MOL0     H 2557   1.956  12.012   8.526 -1.4511 -2.7542 -0.5468
   19MOL0     H 2558   2.087  11.944   8.624  0.7526  3.6436 -0.8441
   19MOL0     H 2559   1.990  12.053   8.826 -1.8944  0.0939 -0.0030
   19MOL0     H 2560   2.051  12.173   8.717  2.0862 -1.4424  3.4902
   19MOL0     H 2561   1.640  12.270   8.712 -1.1380 -0.7472  0.9499
   19MOL0     H 2562   2.001  11.392   8.651 -0.4611  2.6896 -1.6860
   19MOL0     H 2563   1.842  11.131   8.805  1.9816  0.4673  0.2094
   19MOL0     H 2564   1.823  11.107   8.630  0.5825 -1.2180  0.1853
   19MOL0     H 2565   1.972  11.164   8.709 -0.7083 -2.0172  1.3244
   20MOL0     O 2566   7.475   1.478   7.976  0.2794  0.4954 -0.0396
   20MOL0     C 2567   7.549   1.390   8.027 -0.0128 -0.3918  0.5887
   20MOL0     O 2568   7.678   1.385   8.001  0.1572 -0.0851 -0.1771
   20MOL0     C 2569   7.727   1.441   7.886 -0.7810  0.3359  0.2734
   20MOL0     C 2570   7.839   1.523   7.896 -0.0690  1.1249  0.3278
   20MOL0     C 2571   7.895   1.587   7.782 -0.6892  0.7678  0.0248
   20MOL0     C 2572   7.842   1.568   7.660  0.1345 -0.6447 -0.4668
   20MOL0     O 2573   7.872   1.630   7.541  0.1734  0.3244  0.3601
   20MOL0     C 2574   7.967   1.739   7.548  0.3966 -0.3051 -0.1327
   20MOL0     C 2575   7.996   1.771   7.400 -0.1821 -0.0589 -0.1260
   20MOL0     C 2576   8.068   1.660   7.324  0.0805  0.4716 -0.4459
   20MOL0     C 2577   8.001   1.545   7.258  0.3406  0.9450  0.3821
   20MOL0     C 2578   7.898   1.571   7.149 -0.4900 -0.4813  0.1163
   20MOL0     C 2579   7.927   1.680   7.051 -1.3180  0.5430  0.1921
   20MOL0     C 2580   8.051   1.638   6.961  1.4334 -0.3786  1.1391
   20MOL0     C 2581   8.072   1.737   6.847  1.2678 -0.2423  0.4558
   20MOL0     N 2582   8.107   1.867   6.896 -0.1358 -0.2747  0.8006
   20MOL0     C 2583   8.062   1.980   6.838  0.5598 -1.0292 -0.0916
   20MOL0     C 2584   8.114   2.079   6.914 -0.3340 -0.4742  0.4239
   20MOL0     C 2585   8.094   2.226   6.897  0.2713  0.1966 -0.4283
   20MOL0     C 2586   8.220   2.274   6.825 -0.4319 -0.4252 -0.7854
   20MOL0     C 2587   8.230   2.236   6.673  0.0874 -0.0126 -0.0818
   20MOL0     C 2588   8.353   2.287   6.607 -0.4292  0.8437 -1.0549
   20MOL0     O 2589   8.369   2.243   6.465  0.2123 -0.7949 -0.4772
   20MOL0     C 2590   8.314   2.318   6.363 -0.5120 -0.4679 -0.2990
   20MOL0     C 2591   8.248   2.441   6.387  1.4674  0.2243  0.4916
   20MOL0     C 2592   8.176   2.504   6.289 -0.0408 -0.8287  0.0570
   20MOL0     C 2593   8.190   2.474   6.153  0.1798  0.8190  1.2135
   20MOL0     C 2594   8.116   2.541   6.042  0.1505  0.7089  0.1708
   20MOL0     O 2595   8.080   2.669   6.070  0.2895 -0.1113  0.2422
   20MOL0     C 2596   7.984   2.731   5.991  1.2071 -0.2705 -0.0355
   20MOL0     C 2597   8.009   2.762   5.861  0.8959 -0.1466  0.5124
   20MOL0     C 2598   7.915   2.828   5.777 -1.5184  0.1910  0.6137
   20MOL0     C 2599   7.802   2.886   5.836  0.6574  0.1910  0.4509
   20MOL0     O 2600   7.713   2.943   5.749 -0.3622 -0.7617 -0.2201
   20MOL0     C 2601   7.578   2.946   5.792  0.6183 -0.7847 -0.1900
   20MOL0     C 2602   7.480   2.993   5.682 -0.3184  0.8902  0.2422
   20MOL0     C 2603   7.502   3.139   5.659  0.3042 -1.2103 -0.0354
   20MOL0     C 2604   7.391   3.198   5.571 -0.2305  0.3787 -0.2887
   20MOL0     C 2605   7.262   3.226   5.650  0.2617  0.0461 -0.8031
   20MOL0     C 2606   7.177   3.317   5.564  0.1351  0.8503  0.4100
   20MOL0     C 2607   7.153   3.243   5.425 -0.0801 -0.0337 -0.2154
   20MOL0     C 2608   7.022   3.287   5.363  0.4476  0.5110 -0.0677
   20MOL0    Cl 2609   7.025   3.456   5.304 -0.4605 -0.0239 -0.2406
   20MOL0     C 2610   7.786   2.879   5.970  0.5461  0.3968 -0.7837
   20MOL0     C 2611   7.870   2.787   6.048  0.2482  0.9292  0.1689
   20MOL0     O 2612   8.096   2.480   5.935  0.3990  0.0362 -0.7815
   20MOL0     C 2613   8.270   2.358   6.127 -0.0961  1.5225  0.2255
   20MOL0     C 2614   8.335   2.295   6.227  0.3732  1.4886 -0.4162
   20MOL0     N 2615   8.197   2.023   7.011  0.2344  0.1650  0.2832
   20MOL0     N 2616   8.197   1.897   6.991 -0.3270  0.2113 -0.6898
   20MOL0     C 2617   7.733   1.475   7.646 -0.1276 -0.2291 -0.4523
   20MOL0     C 2618   7.678   1.418   7.755  0.3432  0.3601  0.1214
   20MOL0     C 2619   7.488   1.284   8.113 -0.1547  0.2144  0.5823
   20MOL0     C 2620   7.567   1.178   8.156 -0.1204 -0.0043  0.4965
   20MOL0     C 2621   7.515   1.083   8.244 -0.1117  0.5425 -0.2020
   20MOL0     C 2622   7.385   1.079   8.288  0.4757  0.1193 -0.9521
   20MOL0     O 2623   7.336   0.992   8.376 -0.2740  0.1025 -0.6962
   20MOL0     C 2624   7.431   0.885   8.436 -0.7810 -0.1480  1.0724
   20MOL0     C 2625   7.387   0.829   8.564 -0.4398  0.5150 -0.2630
   20MOL0     C 2626   7.456   0.717   8.632 -0.2662  1.0249 -0.2889
   20MOL0     C 2627   7.509   0.609   8.539 -1.2143  0.6119  0.1485
   20MOL0     C 2628   7.588   0.514   8.619 -0.3076  0.9439 -0.5136
   20MOL0     C 2629   7.657   0.441   8.689  0.0664 -0.4187 -0.1616
   20MOL0     C 2630   7.303   1.183   8.252 -0.6927  0.6238  0.4907
   20MOL0     C 2631   7.354   1.287   8.169 -0.2760  0.3309  0.4665
   20MOL0     C 2632   7.251   1.386   8.133 -0.2600  0.9635  0.8124
   20MOL0     H 2633   7.892   1.548   7.987  1.3815  1.0448 -0.4654
   20MOL0     H 2634   7.979   1.649   7.814  0.4466 -1.4320  1.5292
   20MOL0     H 2635   7.920   1.824   7.598  0.0508 -1.3476  1.3850
   20MOL0     H 2636   8.065   1.721   7.594  0.5563 -0.5117 -0.5475
   20MOL0     H 2637   8.063   1.856   7.391 -0.6662  0.2889 -0.4837
   20MOL0     H 2638   7.900   1.793   7.352 -1.3782  0.4124  2.2940
   20MOL0     H 2639   8.129   1.619   7.405 -1.0047 -0.2831  0.0051
   20MOL0     H 2640   8.123   1.705   7.241 -0.6135 -0.0488 -1.2007
   20MOL0     H 2641   8.083   1.485   7.218 -0.4086 -0.0286  0.2839
   20MOL0     H 2642   7.955   1.480   7.333  0.8844  1.7561  1.4480
   20MOL0     H 2643   7.871   1.479   7.096  0.1805  0.4243 -1.8953
   20MOL0     H 2644   7.803   1.605   7.191 -0.2526  2.2067 -1.3197
   20MOL0     H 2645   7.836   1.696   6.993 -1.3648  1.2665  0.4565
   20MOL0     H 2646   7.940   1.781   7.091  0.1341  0.7330 -0.6944
   20MOL0     H 2647   8.031   1.550   6.899  3.8527 -0.4660  0.4007
   20MOL0     H 2648   8.141   1.623   7.021  0.5409 -1.0277  2.3544
   20MOL0     H 2649   8.142   1.709   6.768  0.3079 -0.8936 -0.1824
   20MOL0     H 2650   7.977   1.735   6.792  1.8217 -1.0912 -0.4901
   20MOL0     H 2651   8.013   1.989   6.742  3.2488  0.6333 -1.4600
   20MOL0     H 2652   7.995   2.248   6.855 -0.7862 -0.3544  1.6202
   20MOL0     H 2653   8.093   2.270   6.998  0.7025 -4.4850  1.8976
   20MOL0     H 2654   8.216   2.384   6.830  0.7624 -0.4039  0.5240
   20MOL0     H 2655   8.316   2.249   6.872  0.6669  2.6319 -1.1849
   20MOL0     H 2656   8.140   2.280   6.628  0.9116  0.5270 -1.2686
   20MOL0     H 2657   8.217   2.128   6.666 -1.6878  0.0766  1.1552
   20MOL0     H 2658   8.437   2.229   6.648 -1.7725  0.2200  0.9342
   20MOL0     H 2659   8.356   2.394   6.631  0.0599  0.6255 -0.0688
   20MOL0     H 2660   8.234   2.486   6.485  1.1857  2.7135 -0.6047
   20MOL0     H 2661   8.111   2.590   6.302 -0.3919 -0.5042 -2.9328
   20MOL0     H 2662   8.101   2.721   5.819 -0.7250  0.3364 -4.0791
   20MOL0     H 2663   7.940   2.830   5.672  0.2949 -1.5341  0.9474
   20MOL0     H 2664   7.559   2.844   5.828 -0.6004  0.3294  2.5976
   20MOL0     H 2665   7.575   3.014   5.877  3.6266 -1.1031  0.2554
   20MOL0     H 2666   7.511   2.942   5.591  0.5942 -2.2940  2.1658
   20MOL0     H 2667   7.376   2.962   5.698 -0.0590 -0.1130  0.1076
   20MOL0     H 2668   7.517   3.185   5.757 -2.3831 -0.7741  0.2332
   20MOL0     H 2669   7.593   3.151   5.600  2.4087  0.0013  3.1506
   20MOL0     H 2670   7.358   3.121   5.501 -3.6909 -1.0750  2.6295
   20MOL0     H 2671   7.427   3.285   5.514 -2.5921  0.4743 -1.7931
   20MOL0     H 2672   7.276   3.279   5.744  0.4751 -1.9816  0.3660
   20MOL0     H 2673   7.219   3.128   5.675 -2.0337  0.8031 -1.4832
   20MOL0     H 2674   7.089   3.334   5.628  1.0933  3.3947  1.1760
   20MOL0     H 2675   7.231   3.409   5.541  2.3711 -0.4753  0.1434
   20MOL0     H 2676   7.143   3.136   5.448 -2.3542  0.5568  2.0444
   20MOL0     H 2677   7.242   3.243   5.361 -1.2287 -0.3929 -1.8718
   20MOL0     H 2678   7.008   3.217   5.279  1.4604  1.5804 -1.1703
   20MOL0     H 2679   6.943   3.272   5.436 -0.0430 -0.5243 -0.7906
   20MOL0     H 2680   7.704   2.918   6.029  1.2431  1.2720 -0.3705
   20MOL0     H 2681   7.848   2.771   6.153 -1.5274  1.7279 -0.0282
   20MOL0     H 2682   8.285   2.331   6.023  1.4521 -0.1663  0.8295
   20MOL0     H 2683   8.407   2.218   6.199  0.5967  1.6537 -0.3045
   20MOL0     H 2684   7.693   1.448   7.550 -0.8684 -1.1347  0.0974
   20MOL0     H 2685   7.591   1.353   7.745  1.1806 -0.8159  0.1591
   20MOL0     H 2686   7.670   1.168   8.123  0.7161 -0.5300  3.0635
   20MOL0     H 2687   7.584   1.006   8.278 -2.0644 -0.5192  1.6455
   20MOL0     H 2688   7.530   0.927   8.454  0.3478 -0.5234 -3.2605
   20MOL0     H 2689   7.450   0.810   8.358  1.2203  2.7681 -1.4667
   20MOL0     H 2690   7.288   0.785   8.547  0.6634 -2.2166 -0.0619
   20MOL0     H 2691   7.363   0.911   8.632 -1.0488  0.0985  0.0400
   20MOL0     H 2692   7.381   0.669   8.696  0.7204 -3.8673 -2.2901
   20MOL0     H 2693   7.541   0.736   8.698 -0.8154 -1.9750  1.4955
   20MOL0     H 2694   7.427   0.560   8.486 -0.1283 -0.2764 -0.7545
   20MOL0     H 2695   7.580   0.636   8.460  0.5729 -2.6682  0.4337
   20MOL0     H 2696   7.723   0.389   8.756 -1.8328  0.0075  2.2069
   20MOL0     H 2697   7.203   1.189   8.292  0.3233 -1.0490  3.5902
   20MOL0     H 2698   7.166   1.391   8.202 -0.7708  2.9144  0.0963
   20MOL0     H 2699   7.307   1.480   8.139  0.6281  0.3887  2.1428
   20MOL0     H 2700   7.221   1.367   8.030  2.0222  0.5132  0.1710
   21MOL0     O 2701   2.166   2.720  11.272  0.0989  0.6450 -0.7470
   21MOL0     C 2702   2.050   2.687  11.306  0.6224 -0.0479 -0.5726
   21MOL0     O 2703   1.951   2.769  11.362 -0.3581  0.0484  0.4380
   21MOL0     C 2704   1.922   2.882  11.295  0.2519  0.3382 -0.7340
   21MOL0     C 2705   1.990   3.001  11.342  1.4995  0.9559 -0.3512
   21MOL0     C 2706   1.973   3.120  11.281 -0.7987  0.3430  0.3147
   21MOL0     C 2707   1.897   3.118  11.158  0.4841 -0.1619 -0.0849
   21MOL0     O 2708   1.873   3.226  11.075 -0.0248  0.2830 -0.3654
   21MOL0     C 2709   1.915   3.364  11.098  0.6616  0.8947  0.0940
   21MOL0     C 2710   2.039   3.405  11.013 -0.4294  0.2982 -0.5426
   21MOL0     C 2711   2.073   3.560  11.015 -0.1081 -0.2874 -0.8019
   21MOL0     C 2712   2.169   3.587  11.135 -0.5404 -0.1355  0.1931
   21MOL0     C 2713   2.315   3.536  11.105 -0.4823 -0.5322  0.1170
   21MOL0     C 2714   2.404   3.543  11.243  0.2646 -0.0043 -0.5545
   21MOL0     C 2715   2.546   3.477  11.206 -0.4054 -0.2524 -0.5094
   21MOL0     C 2716   2.659   3.520  11.303 -0.5306  0.3956 -0.3779
   21MOL0     N 2717   2.627   3.473  11.436  0.3731 -0.4459  0.3990
   21MOL0     C 2718   2.621   3.345  11.492 -0.1584  0.7803 -0.1825
   21MOL0     C 2719   2.602   3.364  11.630  0.4445  0.6611 -0.4899
   21MOL0     C 2720   2.623   3.282  11.753 -0.3887 -0.8655  0.8686
   21MOL0     C 2721   2.768   3.317  11.813  0.1408  0.4963  0.8836
   21MOL0     C 2722   2.767   3.289  11.957 -0.0120 -0.6369 -0.1859
   21MOL0     C 2723   2.903   3.293  12.023  0.0701  0.7191  0.8822
   21MOL0     O 2724   2.972   3.178  11.970  0.5656 -0.2802  0.0892
   21MOL0     C 2725   3.102   3.163  12.005 -0.3429  0.0464  0.6732
   21MOL0     C 2726   3.197   3.114  11.908  0.1753  0.9184 -0.5690
   21MOL0     C 2727   3.331   3.120  11.939 -0.4499  0.4150 -0.5169
   21MOL0     C 2728   3.371   3.158  12.064  0.5321  0.2273 -0.3138
   21MOL0     C 2729   3.517   3.155  12.097  0.1744  0.2393  0.4769
   21MOL0     O 2730   3.565   3.213  12.211  1.3522  0.2174 -0.0089
   21MOL0     C 2731   3.681   3.184  12.260  0.8806 -1.2089 -0.5482
   21MOL0     C 2732   3.768   3.291  12.287  0.2445  0.2218  0.9165
   21MOL0     C 2733   3.899   3.271  12.333 -1.0329 -0.2010 -0.4653
   21MOL0     C 2734   3.946   3.137  12.362  0.3653  0.3157  0.3196
   21MOL0     O 2735   4.076   3.120  12.396  0.4966 -0.3164 -0.4625
   21MOL0     C 2736   4.111   3.172  12.531  0.6906 -0.5961  0.2928
   21MOL0     C 2737   4.216   3.085  12.596 -1.0990 -0.1480  0.4522
   21MOL0     C 2738   4.335   3.043  12.492 -0.9838 -0.0646  0.2078
   21MOL0     C 2739   4.482   3.083  12.535  1.0898  0.0712  0.8899
   21MOL0     C 2740   4.531   3.005  12.663 -0.8609  0.5658  0.3523
   21MOL0     C 2741   4.674   3.041  12.701 -1.7624 -0.4399 -0.4963
   21MOL0     C 2742   4.726   2.938  12.807  0.5507 -0.6668  0.4038
   21MOL0     C 2743   4.848   2.990  12.891  0.2808 -0.4308  0.1108
   21MOL0    Cl 2744   4.969   3.061  12.772 -0.6121 -0.0867 -0.1131
   21MOL0     C 2745   3.864   3.030  12.330 -0.0113 -1.2933  0.2163
   21MOL0     C 2746   3.737   3.053  12.271  0.3395 -0.3503  0.0632
   21MOL0     O 2747   3.585   3.091  12.011  0.8345 -1.5184 -0.0784
   21MOL0     C 2748   3.279   3.201  12.159  0.0355  0.4875 -0.4639
   21MOL0     C 2749   3.141   3.196  12.137 -0.2837 -0.4343 -0.2756
   21MOL0     N 2750   2.580   3.497  11.655 -0.0185  0.4342  0.5147
   21MOL0     N 2751   2.587   3.552  11.539  0.4253  0.8110 -0.4456
   21MOL0     C 2752   1.832   3.003  11.115 -1.0157 -0.3121 -0.0075
   21MOL0     C 2753   1.843   2.884  11.184  0.5520 -0.6857  0.2467
   21MOL0     C 2754   2.026   2.530  11.306 -0.9455 -0.0609 -0.1191
   21MOL0     C 2755   2.118   2.453  11.231  0.4411  0.2576  0.3759
   21MOL0     C 2756   2.121   2.311  11.242 -0.0693  0.2799  0.1825
   21MOL0     C 2757   2.023   2.250  11.317 -0.2336 -0.6732 -0.5038
   21MOL0     O 2758   2.011   2.115  11.323  0.3232  0.0781  0.2771
   21MOL0     C 2759   1.897   2.049  11.281  0.1025  0.3940  0.8076
   21MOL0     C 2760   1.932   1.903  11.270 -0.6914  0.0540 -0.5199
   21MOL0     C 2761   1.828   1.829  11.202 -0.8208 -0.4205  0.2537
   21MOL0     C 2762   1.822   1.697  11.265 -0.5464  0.1182  0.2365
   21MOL0     C 2763   1.946   1.620  11.261  0.1620 -0.7446 -0.3725
   21MOL0     C 2764   2.037   1.543  11.265 -0.8389  0.1131  0.2910
   21MOL0     C 2765   1.931   2.324  11.388 -0.5745 -0.0955 -0.0965
   21MOL0     C 2766   1.922   2.465  11.379  0.3167  0.7349 -0.1159
   21MOL0     C 2767   1.814   2.537  11.461  0.0964  0.7344  0.0452
   21MOL0     H 2768   2.071   2.988  11.414 -0.1685 -0.1320  1.4319
   21MOL0     H 2769   2.001   3.211  11.333  0.3447  0.2519 -0.1200
   21MOL0     H 2770   1.836   3.440  11.095  0.8852  1.1066 -0.4430
   21MOL0     H 2771   1.950   3.363  11.202 -3.0572 -1.1791  1.5080
   21MOL0     H 2772   2.024   3.376  10.909  0.8502  0.3237 -0.7427
   21MOL0     H 2773   2.125   3.345  11.043  0.3240  2.6322  2.5256
   21MOL0     H 2774   1.980   3.613  11.039 -0.2859 -1.9400  2.9034
   21MOL0     H 2775   2.119   3.594  10.922 -0.6449 -0.0703 -0.9952
   21MOL0     H 2776   2.178   3.695  11.143  2.4185 -0.3427  0.9909
   21MOL0     H 2777   2.127   3.540  11.225 -1.3152 -1.2278 -0.7073
   21MOL0     H 2778   2.313   3.429  11.082 -0.4837 -0.8265  1.4279
   21MOL0     H 2779   2.359   3.599  11.026  1.9017 -0.6086  1.2920
   21MOL0     H 2780   2.428   3.648  11.262  1.5598 -0.8364  3.2245
   21MOL0     H 2781   2.358   3.501  11.333  0.8266 -0.8313 -0.6380
   21MOL0     H 2782   2.576   3.504  11.104 -1.4822  0.0699 -0.7540
   21MOL0     H 2783   2.542   3.369  11.224 -0.1955  0.1757  2.5811
   21MOL0     H 2784   2.753   3.471  11.277  0.0145  0.1187  1.9548
   21MOL0     H 2785   2.676   3.628  11.299 -1.6545  0.7688  2.5628
   21MOL0     H 2786   2.647   3.265  11.424  0.9398  1.3864 -0.4900
   21MOL0     H 2787   2.543   3.304  11.824  1.5303  0.5174  2.7057
   21MOL0     H 2788   2.622   3.172  11.747  1.1982 -1.2107  4.4780
   21MOL0     H 2789   2.826   3.241  11.760 -0.8063 -0.5117  1.2547
   21MOL0     H 2790   2.801   3.419  11.792 -0.6664  0.4970 -0.5018
   21MOL0     H 2791   2.709   3.198  11.973 -2.1264  0.5810 -0.5779
   21MOL0     H 2792   2.709   3.368  12.005  1.9591 -1.3403  3.7676
   21MOL0     H 2793   2.895   3.296  12.132 -1.1723 -0.8582  0.8820
   21MOL0     H 2794   2.954   3.383  11.987  2.5392 -1.1805 -0.6668
   21MOL0     H 2795   3.157   3.079  11.813 -0.9782 -0.4155  0.3551
   21MOL0     H 2796   3.409   3.102  11.865 -0.6609 -1.6435 -0.2709
   21MOL0     H 2797   3.727   3.388  12.261 -1.5703 -0.6655  0.3073
   21MOL0     H 2798   3.966   3.355  12.352 -0.6968 -0.5960  0.1215
   21MOL0     H 2799   4.138   3.278  12.533 -1.4300 -0.0011 -0.2330
   21MOL0     H 2800   4.024   3.154  12.595 -0.2079 -1.5075 -1.1166
   21MOL0     H 2801   4.269   3.140  12.674  0.0976  0.8072 -0.9597
   21MOL0     H 2802   4.169   2.996  12.638  0.1257  0.6989  3.9571
   21MOL0     H 2803   4.333   2.933  12.484 -1.1027 -0.2619  2.4766
   21MOL0     H 2804   4.337   3.099  12.398  0.0245 -0.1881  0.1474
   21MOL0     H 2805   4.482   3.191  12.555 -0.3001  0.3367 -0.3256
   21MOL0     H 2806   4.557   3.061  12.459 -0.5254  1.5199 -1.2409
   21MOL0     H 2807   4.530   2.897  12.648 -1.1245  0.5147  0.7086
   21MOL0     H 2808   4.463   3.036  12.743 -1.8549  1.1469 -0.6697
   21MOL0     H 2809   4.736   3.047  12.611 -1.7480  1.2547 -0.4178
   21MOL0     H 2810   4.680   3.140  12.748 -0.8231  1.6727 -4.6056
   21MOL0     H 2811   4.758   2.846  12.757 -1.1258 -1.3073  0.4340
   21MOL0     H 2812   4.640   2.910  12.868 -0.8557 -0.2565 -1.3040
   21MOL0     H 2813   4.823   3.071  12.960  2.0153  0.7849 -0.6031
   21MOL0     H 2814   4.895   2.911  12.949  2.7853  3.1622  3.4467
   21MOL0     H 2815   3.902   2.929  12.341 -0.1947 -1.6388 -1.8943
   21MOL0     H 2816   3.679   2.970  12.232 -1.1751  0.1549  1.1281
   21MOL0     H 2817   3.296   3.252  12.254 -2.6900  0.5272  0.0923
   21MOL0     H 2818   3.072   3.246  12.204 -0.3983  1.6619 -1.8527
   21MOL0     H 2819   1.770   3.019  11.027 -1.5801  0.7449  0.5651
   21MOL0     H 2820   1.789   2.800  11.141  1.2903 -1.5217  0.8988
   21MOL0     H 2821   2.175   2.506  11.155 -0.0630  2.6571  1.5979
   21MOL0     H 2822   2.190   2.260  11.175  0.0055  0.8037 -0.1481
   21MOL0     H 2823   1.872   2.085  11.181 -0.3027  0.8971  1.0846
   21MOL0     H 2824   1.812   2.078  11.344 -1.0326  2.6507 -1.5658
   21MOL0     H 2825   1.941   1.863  11.371 -0.3806 -0.7814 -0.8759
   21MOL0     H 2826   2.032   1.897  11.228  0.2167  1.7006  1.2307
   21MOL0     H 2827   1.839   1.831  11.093  0.1373  3.2857  0.2723
   21MOL0     H 2828   1.735   1.885  11.213  0.5706  1.4771  5.4115
   21MOL0     H 2829   1.789   1.721  11.366 -3.1308  2.5039 -1.0417
   21MOL0     H 2830   1.733   1.651  11.221 -0.1833 -1.0112  0.6268
   21MOL0     H 2831   2.110   1.464  11.263  0.1313  0.9953 -1.2016
   21MOL0     H 2832   1.868   2.270  11.458 -2.0073  1.3275 -0.2547
   21MOL0     H 2833   1.742   2.466  11.502 -0.1130  0.3735 -0.9280
   21MOL0     H 2834   1.858   2.589  11.546 -0.1837  1.3235 -0.1672
   21MOL0     H 2835   1.764   2.604  11.390  0.1255 -0.8215 -1.5091
   22MOL0     O 2836   6.460   8.929   9.741 -0.9731 -0.0739 -0.1573
   22MOL0     C 2837   6.345   8.896   9.739  1.2713  0.1642  1.2077
   22MOL0     O 2838   6.276   8.845   9.623 -0.7992 -0.6418  0.3313
   22MOL0     C 2839   6.331   8.845   9.502  0.8794  0.6109 -0.9942
   22MOL0     C 2840   6.297   8.742   9.411 -0.1073  0.0564 -0.0548
   22MOL0     C 2841   6.347   8.729   9.279 -0.5494  0.1424  0.5224
   22MOL0     C 2842   6.419   8.839   9.223  0.4714 -0.5112 -0.6350
   22MOL0     O 2843   6.448   8.827   9.090  0.4287  0.9508 -0.1739
   22MOL0     C 2844   6.576   8.885   9.048  0.2500 -0.3895 -0.5007
   22MOL0     C 2845   6.639   8.816   8.919  0.5027  0.3721 -0.3398
   22MOL0     C 2846   6.791   8.831   8.913 -0.8660 -1.0104 -0.5736
   22MOL0     C 2847   6.881   8.726   8.987 -0.5700 -0.3041 -0.4498
   22MOL0     C 2848   6.975   8.672   8.881 -0.1968 -0.4254  0.5630
   22MOL0     C 2849   7.076   8.781   8.839 -0.3379 -0.5779 -0.9021
   22MOL0     C 2850   7.208   8.741   8.778 -0.5739  0.6573  0.1179
   22MOL0     C 2851   7.198   8.742   8.625 -0.0837 -0.5543  1.3121
   22MOL0     N 2852   7.302   8.830   8.567  1.0589 -0.4515  0.7309
   22MOL0     C 2853   7.435   8.800   8.572  0.3266  0.9383  0.1794
   22MOL0     C 2854   7.493   8.916   8.534  0.2234  0.7281  0.8145
   22MOL0     C 2855   7.634   8.952   8.546  0.9691  0.6003  0.0533
   22MOL0     C 2856   7.715   8.887   8.667  0.1368  0.9774 -0.2277
   22MOL0     C 2857   7.870   8.904   8.678 -0.1362  0.2779  0.5791
   22MOL0     C 2858   7.956   8.905   8.555 -0.3615  0.1840 -0.2853
   22MOL0     O 2859   7.923   8.781   8.480  0.4626 -0.2260  0.2514
   22MOL0     C 2860   7.999   8.753   8.366 -0.0607  0.3588 -0.2952
   22MOL0     C 2861   7.966   8.636   8.291  0.1656 -0.2890 -0.5859
   22MOL0     C 2862   8.031   8.619   8.166 -1.2320  0.6317 -0.8335
   22MOL0     C 2863   8.145   8.693   8.128  0.1703  0.0387 -0.3416
   22MOL0     C 2864   8.232   8.655   8.012  0.1709  0.7492 -1.0905
   22MOL0     O 2865   8.346   8.721   7.996 -0.2004  0.4886 -0.0197
   22MOL0     C 2866   8.438   8.680   7.905  0.5303  0.6021  1.0546
   22MOL0     C 2867   8.526   8.566   7.938 -0.2443 -0.2655 -0.8048
   22MOL0     C 2868   8.637   8.537   7.860 -0.2638  0.7119 -0.6257
   22MOL0     C 2869   8.661   8.614   7.745 -0.0218  0.7169 -0.0426
   22MOL0     O 2870   8.765   8.596   7.654 -0.2967  0.2077 -0.0580
   22MOL0     C 2871   8.858   8.486   7.677 -0.6356 -0.2558  0.5191
   22MOL0     C 2872   8.940   8.463   7.552  0.1074  0.4563  0.6774
   22MOL0     C 2873   9.084   8.415   7.561 -0.3257 -0.1149 -0.3191
   22MOL0     C 2874   9.132   8.378   7.415  0.4728  0.8841 -0.0414
   22MOL0     C 2875   9.277   8.352   7.410  0.0032  0.3920  0.8065
   22MOL0     C 2876   9.310   8.224   7.496  0.1096  0.0283 -0.3307
   22MOL0     C 2877   9.468   8.210   7.488 -0.3132  0.2403 -0.0981
   22MOL0     C 2878   9.513   8.175   7.341  0.2378  0.9405  0.1170
   22MOL0    Cl 2879   9.666   8.085   7.355 -0.2008  0.0623 -0.2563
   22MOL0     C 2880   8.572   8.714   7.706 -0.1935 -0.7201  0.5226
   22MOL0     C 2881   8.464   8.752   7.790 -0.2741  0.3323 -0.8812
   22MOL0     O 2882   8.194   8.556   7.947 -0.6762 -0.9688  0.1719
   22MOL0     C 2883   8.184   8.804   8.207  0.1238  0.0299  0.4219
   22MOL0     C 2884   8.104   8.839   8.323  0.0942 -0.7318  0.0085
   22MOL0     N 2885   7.391   9.013   8.521 -0.7179  0.7276  0.1979
   22MOL0     N 2886   7.281   8.964   8.527  0.4400  0.0751 -0.8007
   22MOL0     C 2887   6.437   8.949   9.304 -0.3693 -0.1599  0.6296
   22MOL0     C 2888   6.399   8.952   9.437 -1.2248  0.6794 -0.6657
   22MOL0     C 2889   6.273   8.906   9.870  1.2000 -0.4740 -0.1875
   22MOL0     C 2890   6.215   8.787   9.914  0.2356  0.0384 -1.1792
   22MOL0     C 2891   6.150   8.780  10.032  0.4375 -1.0718  0.3876
   22MOL0     C 2892   6.121   8.891  10.110  0.0253 -0.1016 -0.6122
   22MOL0     O 2893   6.045   8.871  10.221 -0.1548 -0.5138 -0.6189
   22MOL0     C 2894   5.999   8.979  10.308 -0.2066 -0.4126  0.2553
   22MOL0     C 2895   5.854   8.945  10.348 -0.4010  0.6667  0.0183
   22MOL0     C 2896   5.849   8.819  10.440 -0.2293  1.1602  0.8505
   22MOL0     C 2897   5.866   8.854  10.590 -0.0422 -0.1063 -0.5780
   22MOL0     C 2898   5.984   8.935  10.629  0.4355  0.1032  0.0151
   22MOL0     C 2899   6.075   9.006  10.652 -0.3697  0.4637 -0.1092
   22MOL0     C 2900   6.176   9.020  10.062 -0.1668  0.2411  0.9838
   22MOL0     C 2901   6.255   9.021   9.949  0.0517 -0.4798  0.0071
   22MOL0     C 2902   6.318   9.148   9.894  0.7455  0.0047 -0.9607
   22MOL0     H 2903   6.241   8.663   9.459 -1.3359  1.4056  0.8070
   22MOL0     H 2904   6.322   8.637   9.228 -0.7784 -0.2607  1.3396
   22MOL0     H 2905   6.567   8.994   9.043 -1.4542 -0.4286  0.9532
   22MOL0     H 2906   6.651   8.877   9.127  0.2923  2.9789 -0.0370
   22MOL0     H 2907   6.576   8.843   8.834  2.6049  0.6931 -1.8684
   22MOL0     H 2908   6.611   8.711   8.907  0.1540  0.6979 -2.6486
   22MOL0     H 2909   6.817   8.930   8.950 -0.9442 -0.9037 -0.8047
   22MOL0     H 2910   6.820   8.844   8.808  0.0221 -0.3805 -0.2650
   22MOL0     H 2911   6.934   8.767   9.073  0.7804  0.2809 -1.5273
   22MOL0     H 2912   6.815   8.645   9.019 -0.5575 -0.3829 -0.6226
   22MOL0     H 2913   7.029   8.586   8.922  0.3632  0.0886  0.9426
   22MOL0     H 2914   6.919   8.623   8.802 -1.7363  0.2665  1.1775
   22MOL0     H 2915   7.039   8.866   8.780  0.4423 -0.4658 -1.2413
   22MOL0     H 2916   7.097   8.823   8.938 -1.2485 -0.8377 -0.5900
   22MOL0     H 2917   7.251   8.647   8.813  1.1651  0.5239 -2.1684
   22MOL0     H 2918   7.286   8.809   8.814  0.2098  0.0700 -0.4358
   22MOL0     H 2919   7.222   8.641   8.590  5.0948  0.9666 -0.5940
   22MOL0     H 2920   7.101   8.782   8.594  1.1111  1.1216 -0.5909
   22MOL0     H 2921   7.479   8.708   8.611  3.3977  2.3913  0.4145
   22MOL0     H 2922   7.664   8.915   8.448 -0.7379  0.1716 -0.3332
   22MOL0     H 2923   7.638   9.060   8.568  0.9666 -0.0425  4.0335
   22MOL0     H 2924   7.673   8.916   8.764 -0.0178  0.8064 -0.2428
   22MOL0     H 2925   7.716   8.778   8.659  1.1466  0.8990  0.8142
   22MOL0     H 2926   7.910   8.819   8.733  1.5669 -0.0956 -1.1158
   22MOL0     H 2927   7.894   8.995   8.736 -0.7821  1.5527 -1.0815
   22MOL0     H 2928   8.062   8.923   8.571 -1.0698  2.2265  3.0749
   22MOL0     H 2929   7.921   8.994   8.501  0.4343 -0.1364 -1.3599
   22MOL0     H 2930   7.876   8.581   8.315 -0.7750  1.7556  0.8397
   22MOL0     H 2931   7.996   8.532   8.112 -0.7117  0.6053 -1.1284
   22MOL0     H 2932   8.509   8.526   8.037  3.0451  0.9756  0.4262
   22MOL0     H 2933   8.684   8.442   7.884  2.1812  1.7745 -0.9157
   22MOL0     H 2934   8.928   8.523   7.752 -2.4891  1.0836  1.6790
   22MOL0     H 2935   8.806   8.399   7.716 -2.5920  1.3212  1.6258
   22MOL0     H 2936   8.881   8.399   7.486  0.0797 -0.2666  1.3882
   22MOL0     H 2937   8.949   8.553   7.490  2.1742 -1.0344 -1.3567
   22MOL0     H 2938   9.150   8.486   7.613  0.0910 -1.6377  1.3272
   22MOL0     H 2939   9.078   8.327   7.626 -1.3168 -1.6188 -2.3629
   22MOL0     H 2940   9.105   8.454   7.342 -1.0584  2.5742  2.1285
   22MOL0     H 2941   9.079   8.286   7.388 -0.0373  1.0878  0.2392
   22MOL0     H 2942   9.329   8.431   7.466  1.8390 -1.7624  2.3102
   22MOL0     H 2943   9.314   8.350   7.307  1.8397  2.6636  1.3164
   22MOL0     H 2944   9.283   8.231   7.602 -1.0036  0.5601 -0.6373
   22MOL0     H 2945   9.263   8.132   7.459  1.6103 -0.0422 -2.1972
   22MOL0     H 2946   9.501   8.133   7.558  0.0960 -1.5407 -2.1331
   22MOL0     H 2947   9.523   8.299   7.522  0.4554 -0.4000  0.3632
   22MOL0     H 2948   9.432   8.119   7.294 -1.2358  0.9779  2.4415
   22MOL0     H 2949   9.530   8.255   7.269 -1.9362 -0.8954 -2.6066
   22MOL0     H 2950   8.577   8.769   7.613 -3.6650 -0.7736  0.1626
   22MOL0     H 2951   8.397   8.837   7.777 -1.0968 -0.3070 -0.9421
   22MOL0     H 2952   8.276   8.857   8.183 -0.0031 -0.4123 -1.1285
   22MOL0     H 2953   8.127   8.933   8.373 -1.4509  0.2537 -1.0271
   22MOL0     H 2954   6.490   9.035   9.266  2.1879 -0.7565  2.5910
   22MOL0     H 2955   6.427   9.045   9.487  1.2193  0.0515 -0.7453
   22MOL0     H 2956   6.214   8.696   9.854 -2.4495 -0.3126 -0.7247
   22MOL0     H 2957   6.109   8.692  10.080 -2.3904  0.2431  0.6320
   22MOL0     H 2958   5.990   9.068  10.245 -0.1820 -0.6028 -0.0202
   22MOL0     H 2959   6.058   8.990  10.399 -1.4380  1.0598  0.9187
   22MOL0     H 2960   5.797   8.925  10.257  1.9957 -0.2352 -1.3849
   22MOL0     H 2961   5.800   9.032  10.386 -1.6148  0.7429 -1.7620
   22MOL0     H 2962   5.934   8.757  10.410 -0.0452  2.4841 -1.6529
   22MOL0     H 2963   5.754   8.765  10.433 -1.5460  3.3963  0.3905
   22MOL0     H 2964   5.776   8.907  10.621 -0.1663 -0.4092 -0.4105
   22MOL0     H 2965   5.878   8.764  10.651 -1.0548 -0.5365 -0.9909
   22MOL0     H 2966   6.150   9.071  10.694 -2.3755  2.7723  0.1633
   22MOL0     H 2967   6.150   9.111  10.115 -0.3891  0.5272  0.3922
   22MOL0     H 2968   6.301   9.238   9.954  2.2097 -0.3611  0.0495
   22MOL0     H 2969   6.425   9.129   9.905  0.2038 -1.5965  2.9479
   22MOL0     H 2970   6.291   9.164   9.789  1.9823  1.7766 -1.0683
   23MOL0     O 2971   2.917   5.373   4.169  1.1167  0.2235  0.7712
   23MOL0     C 2972   2.845   5.370   4.268  0.1856  0.0189  1.1061
   23MOL0     O 2973   2.748   5.471   4.290 -0.1203 -0.3936  0.1448
   23MOL0     C 2974   2.750   5.592   4.239  0.1450  0.0424 -0.6305
   23MOL0     C 2975   2.631   5.641   4.191  0.3500  0.3082 -0.8846
   23MOL0     C 2976   2.635   5.773   4.151 -0.0637 -0.7196  0.4515
   23MOL0     C 2977   2.748   5.860   4.151  0.0840  0.1179  0.2080
   23MOL0     O 2978   2.749   5.988   4.107  0.2754  0.5337 -1.1030
   23MOL0     C 2979   2.628   6.055   4.063  0.2756  0.0883 -0.9634
   23MOL0     C 2980   2.647   6.206   4.046 -0.3159  0.1263  0.1346
   23MOL0     C 2981   2.687   6.259   4.177  0.8249 -0.3352  0.1582
   23MOL0     C 2982   2.719   6.408   4.179  0.6469  0.7615 -0.5871
   23MOL0     C 2983   2.743   6.445   4.325  0.4517  0.4254 -0.2544
   23MOL0     C 2984   2.745   6.590   4.363 -0.5500 -0.0007  0.5941
   23MOL0     C 2985   2.793   6.621   4.504 -1.4928  0.1925  0.1926
   23MOL0     C 2986   2.715   6.554   4.610  0.2894  0.7232 -0.2648
   23MOL0     N 2987   2.769   6.590   4.740 -0.6237  0.2607  0.4649
   23MOL0     C 2988   2.884   6.536   4.800 -0.2556  0.1637 -0.4673
   23MOL0     C 2989   2.907   6.641   4.901  0.4797  0.2948 -0.6802
   23MOL0     C 2990   3.036   6.657   4.975 -0.3247 -0.3957 -0.4110
   23MOL0     C 2991   3.030   6.582   5.113  0.8044  0.4170  0.0509
   23MOL0     C 2992   3.070   6.682   5.224 -0.7358  0.1917 -0.2100
   23MOL0     C 2993   3.039   6.627   5.363  0.4552  1.0053  0.8909
   23MOL0     O 2994   3.123   6.521   5.405  0.1451 -0.2875  0.2514
   23MOL0     C 2995   3.256   6.550   5.440 -0.6113 -0.0731 -0.1953
   23MOL0     C 2996   3.285   6.629   5.544 -0.7166 -0.6201  0.3300
   23MOL0     C 2997   3.422   6.653   5.580  0.1749 -0.2152  0.0309
   23MOL0     C 2998   3.524   6.591   5.503  0.9825 -0.3951 -0.6446
   23MOL0     C 2999   3.667   6.608   5.534  0.0824 -0.4637 -0.7317
   23MOL0     O 3000   3.693   6.700   5.637 -0.3007 -0.1215 -0.1910
   23MOL0     C 3001   3.826   6.737   5.642  0.1058  0.0645 -0.8303
   23MOL0     C 3002   3.893   6.738   5.771  0.7655 -0.2346 -0.0013
   23MOL0     C 3003   4.022   6.797   5.772 -0.1749  1.0406 -0.0596
   23MOL0     C 3004   4.081   6.845   5.655  0.8724 -0.7210  0.1447
   23MOL0     O 3005   4.211   6.905   5.677  0.3541  0.0476  0.3570
   23MOL0     C 3006   4.294   6.883   5.567 -0.3377 -0.7446  0.1950
   23MOL0     C 3007   4.430   6.927   5.602  0.5057  0.1905 -0.3838
   23MOL0     C 3008   4.548   6.870   5.524  0.1852 -0.6675  0.7426
   23MOL0     C 3009   4.656   6.973   5.483  0.1952  0.9220 -0.6121
   23MOL0     C 3010   4.623   7.045   5.350  0.1331 -0.3932 -1.2709
   23MOL0     C 3011   4.730   7.122   5.294 -0.8764  0.5093 -0.0639
   23MOL0     C 3012   4.851   7.035   5.252  0.4383  0.2041  0.1791
   23MOL0     C 3013   4.951   7.124   5.173  0.2992 -0.2140  0.0346
   23MOL0    Cl 3014   5.035   6.997   5.075  0.2077 -0.0455  0.3779
   23MOL0     C 3015   4.010   6.838   5.535 -0.2227  0.1470  0.2784
   23MOL0     C 3016   3.884   6.791   5.528 -0.6457 -0.0326  0.1492
   23MOL0     O 3017   3.750   6.542   5.467  0.5304  0.0616  0.4888
   23MOL0     C 3018   3.487   6.499   5.407  0.4295  0.0747 -0.2069
   23MOL0     C 3019   3.356   6.478   5.367  0.0818  0.8933 -0.8450
   23MOL0     N 3020   2.805   6.731   4.890 -0.5691  0.0055 -0.5736
   23MOL0     N 3021   2.726   6.703   4.796 -0.1078 -0.2384 -0.1117
   23MOL0     C 3022   2.866   5.802   4.200 -0.1722 -1.0072 -0.4843
   23MOL0     C 3023   2.869   5.668   4.241  0.0033 -0.7900 -0.2271
   23MOL0     C 3024   2.843   5.260   4.371  0.3190 -0.4086  0.6799
   23MOL0     C 3025   2.719   5.214   4.420  0.2863  0.6517 -0.0625
   23MOL0     C 3026   2.704   5.120   4.522  0.4716 -0.0615 -0.9322
   23MOL0     C 3027   2.813   5.053   4.575  0.1084 -0.8606  0.2043
   23MOL0     O 3028   2.818   4.964   4.680  0.1364 -0.4340 -0.0781
   23MOL0     C 3029   2.703   4.940   4.766 -0.3482  1.3097  0.4279
   23MOL0     C 3030   2.659   5.050   4.851 -0.5379  0.6481 -0.5712
   23MOL0     C 3031   2.773   5.083   4.959 -0.0416  0.6189  0.6960
   23MOL0     C 3032   2.780   4.977   5.066 -0.3604  0.1107  0.9369
   23MOL0     C 3033   2.736   5.028   5.194  0.6967  0.2814 -0.3397
   23MOL0     C 3034   2.682   5.051   5.302 -0.1236 -0.5701  0.6593
   23MOL0     C 3035   2.935   5.099   4.521 -0.9700 -1.2306 -0.4293
   23MOL0     C 3036   2.952   5.196   4.427  0.2000 -0.3423  0.1211
   23MOL0     C 3037   3.098   5.230   4.380 -0.2256  0.1480  0.4725
   23MOL0     H 3038   2.535   5.593   4.198 -0.1618  1.3213 -0.7754
   23MOL0     H 3039   2.536   5.809   4.125  0.0616  0.4334  1.5069
   23MOL0     H 3040   2.608   6.019   3.961 -1.6353 -1.2703 -0.1718
   23MOL0     H 3041   2.539   6.029   4.122  1.6698 -4.6969 -0.5962
   23MOL0     H 3042   2.560   6.259   4.005  0.7179  2.2159  0.5109
   23MOL0     H 3043   2.726   6.230   3.975 -2.4922 -0.0250 -2.5014
   23MOL0     H 3044   2.776   6.210   4.219 -1.4393 -2.0601  3.3429
   23MOL0     H 3045   2.612   6.224   4.248  1.6739 -1.6456  0.4636
   23MOL0     H 3046   2.805   6.439   4.119  2.0109  0.0478  0.9196
   23MOL0     H 3047   2.628   6.460   4.147  1.2216  4.3691  2.7959
   23MOL0     H 3048   2.666   6.401   4.389  0.9378 -0.7721 -0.4693
   23MOL0     H 3049   2.830   6.386   4.352 -0.7274 -0.2052  2.4471
   23MOL0     H 3050   2.801   6.652   4.292 -1.8102  0.4553 -0.0328
   23MOL0     H 3051   2.640   6.620   4.372 -0.3192  0.2896  2.8707
   23MOL0     H 3052   2.795   6.730   4.518 -1.1384 -0.1010  3.1080
   23MOL0     H 3053   2.898   6.593   4.521 -1.9134  0.0543  3.1042
   23MOL0     H 3054   2.609   6.577   4.599  0.0604 -0.5861 -0.9925
   23MOL0     H 3055   2.728   6.446   4.612 -2.4212  0.3403  2.0821
   23MOL0     H 3056   2.939   6.447   4.771  1.9249  1.9208 -2.1277
   23MOL0     H 3057   3.110   6.609   4.911  1.8484  0.3801  1.3469
   23MOL0     H 3058   3.063   6.760   5.004  3.0258 -1.8100  2.1925
   23MOL0     H 3059   2.928   6.546   5.127  0.3256  2.0692  1.0928
   23MOL0     H 3060   3.098   6.497   5.110  0.4748  0.1483  0.2280
   23MOL0     H 3061   3.010   6.773   5.225 -3.3180 -1.3828 -0.9445
   23MOL0     H 3062   3.173   6.716   5.216  0.0472 -2.2493 -1.9225
   23MOL0     H 3063   2.936   6.591   5.355  0.1189  1.7439  1.7401
   23MOL0     H 3064   3.031   6.699   5.445  0.0767 -3.5535  5.4326
   23MOL0     H 3065   3.208   6.686   5.595 -0.9609  0.0121 -0.7082
   23MOL0     H 3066   3.449   6.711   5.667 -1.5346 -3.0240  2.6711
   23MOL0     H 3067   3.850   6.694   5.861 -0.0153  3.0203  1.3775
   23MOL0     H 3068   4.069   6.794   5.870  1.9482 -1.4216 -1.0193
   23MOL0     H 3069   4.287   6.778   5.537  0.8218 -1.0399  0.9053
   23MOL0     H 3070   4.248   6.938   5.484  0.1968  0.3563  0.6054
   23MOL0     H 3071   4.430   7.036   5.602  1.2049  0.1975 -0.6126
   23MOL0     H 3072   4.437   6.893   5.706 -0.1872  3.0482  0.6898
   23MOL0     H 3073   4.586   6.788   5.585  0.7664  0.8177  2.4830
   23MOL0     H 3074   4.503   6.836   5.430 -1.3767 -3.9778  2.5251
   23MOL0     H 3075   4.750   6.917   5.473 -1.1995 -2.0697  1.5750
   23MOL0     H 3076   4.684   7.053   5.553  1.3865  0.2967 -0.3455
   23MOL0     H 3077   4.535   7.109   5.357  1.1631  0.9585 -0.0050
   23MOL0     H 3078   4.601   6.964   5.280 -3.8145 -0.6478 -0.0163
   23MOL0     H 3079   4.691   7.154   5.196 -2.4542 -1.7701 -0.2607
   23MOL0     H 3080   4.764   7.207   5.353  6.7752 -0.5952 -1.8154
   23MOL0     H 3081   4.823   6.949   5.191 -2.1114  1.8656 -1.1571
   23MOL0     H 3082   4.892   6.997   5.346 -0.6966  0.4977  0.8118
   23MOL0     H 3083   4.898   7.197   5.112  0.6393 -2.6911 -3.4971
   23MOL0     H 3084   5.005   7.180   5.250 -0.0575  1.0577 -0.6234
   23MOL0     H 3085   4.049   6.879   5.443 -1.8286 -0.3190 -0.6549
   23MOL0     H 3086   3.832   6.798   5.433  0.2547  1.5451 -0.2534
   23MOL0     H 3087   3.562   6.438   5.357 -0.2933 -1.9246  1.0505
   23MOL0     H 3088   3.346   6.399   5.293 -0.2946 -0.4807  0.6079
   23MOL0     H 3089   2.946   5.874   4.209 -0.0876 -0.8377 -2.2488
   23MOL0     H 3090   2.963   5.621   4.266 -1.7016 -2.6181  3.5649
   23MOL0     H 3091   2.626   5.249   4.376 -0.6330 -0.9560  0.4906
   23MOL0     H 3092   2.611   5.103   4.575  1.7137  1.0472  1.7793
   23MOL0     H 3093   2.724   4.856   4.833  0.4071  1.0850 -0.0867
   23MOL0     H 3094   2.618   4.910   4.703  1.2294 -2.2860 -0.2138
   23MOL0     H 3095   2.574   5.019   4.911 -0.0976  0.9965  0.2521
   23MOL0     H 3096   2.628   5.138   4.794 -1.8564 -0.3649 -1.4852
   23MOL0     H 3097   2.752   5.177   5.011  0.0321  1.8558 -1.4030
   23MOL0     H 3098   2.864   5.101   4.901  0.2072 -1.0123  0.5418
   23MOL0     H 3099   2.718   4.888   5.052 -0.1983  0.3884 -2.1784
   23MOL0     H 3100   2.885   4.945   5.061 -0.2397  0.6447 -3.0333
   23MOL0     H 3101   2.633   5.085   5.391 -0.4563 -2.4521  1.2367
   23MOL0     H 3102   3.026   5.064   4.569 -0.6001 -2.5494 -1.9755
   23MOL0     H 3103   3.174   5.177   4.437  1.6699  1.2774 -0.8539
   23MOL0     H 3104   3.105   5.203   4.274  0.9755 -1.2255  0.8748
   23MOL0     H 3105   3.111   5.339   4.381 -2.1469  0.4942 -1.9496
   24MOL0     O 3106   5.438   7.003   1.305  1.3148  0.0096  0.4453
   24MOL0     C 3107   5.408   6.988   1.186  0.4812 -0.6823 -0.6884
   24MOL0     O 3108   5.469   6.902   1.097 -0.0668  0.1342 -0.1914
   24MOL0     C 3109   5.594   6.843   1.116  0.3468  0.4725  0.9888
   24MOL0     C 3110   5.693   6.864   1.215 -0.0362  0.3160  0.0674
   24MOL0     C 3111   5.816   6.803   1.199 -0.3201 -0.0434 -0.0417
   24MOL0     C 3112   5.846   6.718   1.099  0.9536  0.1083 -0.0001
   24MOL0     O 3113   5.972   6.668   1.096  0.2234 -0.2418  0.1715
   24MOL0     C 3114   6.027   6.625   0.970 -0.5293 -0.0567  1.0361
   24MOL0     C 3115   6.060   6.749   0.885 -0.4479 -0.1758 -0.2042
   24MOL0     C 3116   6.175   6.846   0.934  0.7650 -0.3753 -0.5727
   24MOL0     C 3117   6.240   6.928   0.828 -0.4754  0.9329  0.5490
   24MOL0     C 3118   6.331   7.026   0.893  0.1886  0.0625  0.2143
   24MOL0     C 3119   6.433   7.083   0.785  0.7047 -0.3656 -2.1156
   24MOL0     C 3120   6.539   7.172   0.844  0.6251 -0.1846 -0.2977
   24MOL0     C 3121   6.617   7.238   0.743  0.2802 -0.0754 -0.3993
   24MOL0     N 3122   6.696   7.134   0.664  0.6445 -0.1870 -0.2654
   24MOL0     C 3123   6.820   7.104   0.708 -0.0205  0.1549 -0.6219
   24MOL0     C 3124   6.885   7.030   0.616 -0.6209 -0.2916 -0.2841
   24MOL0     C 3125   7.025   6.966   0.629  0.3637  0.3484  0.2017
   24MOL0     C 3126   7.039   6.877   0.754 -0.0726 -0.9187 -0.5520
   24MOL0     C 3127   7.179   6.814   0.788  0.0265 -0.7157  0.1349
   24MOL0     C 3128   7.183   6.750   0.926 -0.2026 -0.4333  0.4416
   24MOL0     O 3129   7.318   6.728   0.963 -0.4650 -0.2898 -1.1752
   24MOL0     C 3130   7.394   6.817   1.042 -0.4913 -0.0433  0.2398
   24MOL0     C 3131   7.343   6.937   1.092 -0.1613  0.1721 -0.8059
   24MOL0     C 3132   7.410   7.002   1.189  0.2553  0.0288  0.4194
   24MOL0     C 3133   7.536   6.971   1.230  0.0057  0.4725  0.2906
   24MOL0     C 3134   7.609   7.066   1.323  1.0653  0.6802  0.1056
   24MOL0     O 3135   7.529   7.163   1.386 -0.5984  0.2564  0.8304
   24MOL0     C 3136   7.584   7.266   1.450 -0.5034  0.6704  0.5236
   24MOL0     C 3137   7.719   7.292   1.477  0.2627  0.1851 -1.1852
   24MOL0     C 3138   7.761   7.398   1.566  0.6149  0.3968 -0.8834
   24MOL0     C 3139   7.670   7.483   1.626 -0.8376  0.1972 -0.2614
   24MOL0     O 3140   7.699   7.586   1.706  0.5820 -1.4920 -0.1061
   24MOL0     C 3141   7.819   7.662   1.695 -0.8397 -0.2028 -0.4005
   24MOL0     C 3142   7.830   7.748   1.822  0.0922  0.0616  0.1207
   24MOL0     C 3143   7.955   7.825   1.831  0.0583  0.1726 -0.1779
   24MOL0     C 3144   8.062   7.823   1.719 -0.3120  1.0232 -0.3082
   24MOL0     C 3145   8.166   7.927   1.737  1.4244  0.5638  0.4961
   24MOL0     C 3146   8.270   7.888   1.834  0.6664  0.2667 -0.8454
   24MOL0     C 3147   8.398   7.975   1.823  0.1722  0.1827  0.3267
   24MOL0     C 3148   8.502   7.924   1.915 -0.0287  1.3497  0.2358
   24MOL0    Cl 3149   8.578   7.781   1.840  0.1645 -0.4673 -0.6345
   24MOL0     C 3150   7.533   7.452   1.592 -0.3467 -0.4000  0.3905
   24MOL0     C 3151   7.492   7.348   1.512  0.0601 -0.6287  0.1270
   24MOL0     O 3152   7.727   7.062   1.324  0.2263  0.5673 -0.4363
   24MOL0     C 3153   7.591   6.850   1.186  0.0401  1.2404  0.1978
   24MOL0     C 3154   7.526   6.783   1.081  0.3156  0.3072  0.5618
   24MOL0     N 3155   6.793   7.014   0.514 -1.0304 -0.2006 -1.2040
   24MOL0     N 3156   6.679   7.076   0.537  0.6570  0.0837  0.2917
   24MOL0     C 3157   5.754   6.679   0.999 -0.4276 -0.7029 -0.9318
   24MOL0     C 3158   5.628   6.751   1.008  0.1340  0.3552  0.1052
   24MOL0     C 3159   5.288   7.056   1.159  0.6170 -0.5840  0.4675
   24MOL0     C 3160   5.301   7.194   1.167  0.8264  0.1284  0.4526
   24MOL0     C 3161   5.190   7.269   1.128 -0.9453  0.3368  0.3908
   24MOL0     C 3162   5.068   7.208   1.078  0.7600  0.1200 -0.7216
   24MOL0     O 3163   4.961   7.290   1.080  1.4346  0.3843  0.1621
   24MOL0     C 3164   4.849   7.236   1.156 -0.6691 -0.2247 -1.0390
   24MOL0     C 3165   4.760   7.355   1.179  0.3195  0.4571 -0.2319
   24MOL0     C 3166   4.709   7.426   1.060 -0.7862 -0.0116 -0.6081
   24MOL0     C 3167   4.635   7.555   1.101  0.6754 -0.1442 -0.2857
   24MOL0     C 3168   4.526   7.528   1.201  0.2344  0.3650  0.0121
   24MOL0     C 3169   4.437   7.491   1.283 -0.6225  0.7829  0.1646
   24MOL0     C 3170   5.055   7.067   1.068 -1.0030  0.0533  0.9604
   24MOL0     C 3171   5.173   6.990   1.102 -0.2691  0.3107  0.8454
   24MOL0     C 3172   5.170   6.845   1.075 -0.5762  0.2604 -0.8447
   24MOL0     H 3173   5.678   6.923   1.305  4.9389  0.0906  1.3162
   24MOL0     H 3174   5.882   6.804   1.285 -0.6377  0.6253  0.2023
   24MOL0     H 3175   6.123   6.575   0.986 -1.0156 -2.3251 -2.3010
   24MOL0     H 3176   5.971   6.559   0.904  0.4936  0.6197 -0.5474
   24MOL0     H 3177   5.974   6.811   0.859 -0.3056 -0.0180 -0.3052
   24MOL0     H 3178   6.093   6.715   0.787  1.6482  2.3627 -0.4916
   24MOL0     H 3179   6.254   6.789   0.984  2.9774  2.7608 -0.2727
   24MOL0     H 3180   6.142   6.911   1.015  2.4714  2.4742 -2.0278
   24MOL0     H 3181   6.291   6.852   0.767 -0.9370 -0.0903  1.4126
   24MOL0     H 3182   6.171   6.979   0.760 -0.2620 -0.4117 -0.7269
   24MOL0     H 3183   6.275   7.108   0.940 -0.4463 -0.8704  1.1365
   24MOL0     H 3184   6.377   6.974   0.977 -0.4576 -4.1420 -1.7757
   24MOL0     H 3185   6.476   6.999   0.730  1.9701 -0.0050 -1.7020
   24MOL0     H 3186   6.383   7.144   0.710  0.5273  2.3657  0.0902
   24MOL0     H 3187   6.598   7.111   0.913 -0.6627  1.9577  2.9752
   24MOL0     H 3188   6.485   7.248   0.902 -1.0233 -2.7154  1.6728
   24MOL0     H 3189   6.535   7.289   0.692 -2.4689 -0.6934  3.0236
   24MOL0     H 3190   6.685   7.304   0.798  0.7155 -0.9114  0.0802
   24MOL0     H 3191   6.863   7.147   0.797  0.9877  3.0865 -2.3881
   24MOL0     H 3192   7.042   6.899   0.544 -2.4570  1.1867 -1.1505
   24MOL0     H 3193   7.099   7.046   0.634  0.1636  0.4741  1.6246
   24MOL0     H 3194   7.026   6.947   0.837  2.9381 -1.4739  0.5161
   24MOL0     H 3195   6.965   6.797   0.751 -0.7555 -0.2845 -0.7031
   24MOL0     H 3196   7.251   6.896   0.778 -4.0069  3.0387 -1.6442
   24MOL0     H 3197   7.203   6.745   0.707  3.1350 -0.2042  0.4850
   24MOL0     H 3198   7.128   6.656   0.924  0.5207 -0.8501 -0.2184
   24MOL0     H 3199   7.140   6.818   1.001  1.1239 -1.0113  1.7928
   24MOL0     H 3200   7.245   6.976   1.067  0.1182  1.2693 -0.2742
   24MOL0     H 3201   7.356   7.089   1.224 -3.2689 -1.3047 -1.2227
   24MOL0     H 3202   7.803   7.236   1.438  0.3062 -1.3874  0.9953
   24MOL0     H 3203   7.868   7.407   1.582  0.6045 -0.0795 -0.5435
   24MOL0     H 3204   7.909   7.602   1.679 -0.3618 -0.0847  1.5074
   24MOL0     H 3205   7.801   7.739   1.620 -1.0255  2.0732  1.8363
   24MOL0     H 3206   7.752   7.824   1.813  1.7071  1.9549  1.3426
   24MOL0     H 3207   7.824   7.690   1.914  0.8746  3.4498  2.4986
   24MOL0     H 3208   7.939   7.929   1.861  2.1698 -0.6379  4.5401
   24MOL0     H 3209   8.003   7.787   1.922  1.6342 -0.1509 -1.1002
   24MOL0     H 3210   8.012   7.842   1.624  0.1975  1.1281 -0.5570
   24MOL0     H 3211   8.106   7.722   1.715 -0.2129  0.8978  2.0591
   24MOL0     H 3212   8.129   8.027   1.763 -0.0005  0.7071 -1.8300
   24MOL0     H 3213   8.218   7.933   1.640  2.5923 -1.7378  0.9074
   24MOL0     H 3214   8.225   7.878   1.933 -0.3842 -1.5301 -1.4562
   24MOL0     H 3215   8.302   7.786   1.813 -1.1402  0.0585 -2.9175
   24MOL0     H 3216   8.377   8.078   1.853 -2.8022 -0.4886  0.8538
   24MOL0     H 3217   8.434   7.979   1.720 -1.5681 -0.8446 -0.3644
   24MOL0     H 3218   8.575   8.006   1.920  2.3544 -0.3141 -2.9086
   24MOL0     H 3219   8.468   7.906   2.017 -0.5770 -1.0618 -0.3177
   24MOL0     H 3220   7.448   7.511   1.627 -1.0624 -0.5719 -1.0161
   24MOL0     H 3221   7.388   7.329   1.488 -0.0640 -0.5229  0.5882
   24MOL0     H 3222   7.691   6.821   1.219 -0.2311  1.3831  1.1932
   24MOL0     H 3223   7.574   6.694   1.042  1.2361  0.8247  0.4899
   24MOL0     H 3224   5.770   6.609   0.917 -1.4866  0.4168 -2.1550
   24MOL0     H 3225   5.561   6.736   0.924  2.7733  1.3750 -2.3724
   24MOL0     H 3226   5.397   7.241   1.185  0.3168  2.3333 -1.8833
   24MOL0     H 3227   5.196   7.377   1.136 -0.2911  0.2719  0.7906
   24MOL0     H 3228   4.892   7.197   1.250 -0.7831  3.7060  0.8302
   24MOL0     H 3229   4.779   7.168   1.107  0.5891 -1.2243 -1.4975
   24MOL0     H 3230   4.805   7.425   1.249  1.3276 -0.2852 -0.1215
   24MOL0     H 3231   4.673   7.316   1.234  0.0237  0.0722 -0.9574
   24MOL0     H 3232   4.643   7.366   0.997 -1.3058 -0.2456  0.1425
   24MOL0     H 3233   4.789   7.463   0.995  0.2664 -2.7390 -1.0161
   24MOL0     H 3234   4.703   7.630   1.142 -0.0409 -0.0534  0.7668
   24MOL0     H 3235   4.596   7.596   1.008 -0.5881 -1.1819 -0.2394
   24MOL0     H 3236   4.374   7.477   1.368  0.4248  1.1881  1.0136
   24MOL0     H 3237   4.958   7.026   1.042 -1.1418 -0.9702  2.8975
   24MOL0     H 3238   5.267   6.794   1.082  0.9441  2.9588 -0.8867
   24MOL0     H 3239   5.107   6.793   1.148  0.7356 -0.7043 -0.3575
   24MOL0     H 3240   5.131   6.840   0.973  0.5755  1.0167 -1.3405
   25MOL0     O 3241   8.490   5.329   9.133 -0.4735  0.1571  0.0018
   25MOL0     C 3242   8.587   5.366   9.068  1.1137 -0.1854 -0.4337
   25MOL0     O 3243   8.645   5.300   8.969 -0.2555 -0.2861 -0.7297
   25MOL0     C 3244   8.613   5.176   8.916  0.3248 -0.4937 -0.3513
   25MOL0     C 3245   8.718   5.098   8.868  0.0446 -0.0720 -1.0581
   25MOL0     C 3246   8.685   4.984   8.792  0.7764 -0.1689 -0.5563
   25MOL0     C 3247   8.547   4.943   8.777 -0.9669 -0.3817  0.3487
   25MOL0     O 3248   8.531   4.816   8.735  1.3933  0.2536 -0.3172
   25MOL0     C 3249   8.531   4.773   8.599  0.2269  0.1923  0.4258
   25MOL0     C 3250   8.418   4.684   8.550 -0.8130  0.3306 -0.3439
   25MOL0     C 3251   8.413   4.549   8.636 -0.1864  0.8717 -0.2167
   25MOL0     C 3252   8.543   4.459   8.624  0.2902  0.0455 -0.3312
   25MOL0     C 3253   8.528   4.330   8.710 -0.2402 -0.7148  0.5653
   25MOL0     C 3254   8.423   4.247   8.648  0.6508 -0.1038 -0.6253
   25MOL0     C 3255   8.437   4.100   8.694  0.2295 -0.4117 -0.8055
   25MOL0     C 3256   8.399   4.078   8.841 -0.6064  0.5085 -0.3519
   25MOL0     N 3257   8.267   4.126   8.881  0.4840  0.3421  0.5055
   25MOL0     C 3258   8.147   4.068   8.833  0.6130  0.1345  0.0100
   25MOL0     C 3259   8.050   4.143   8.885  0.2167 -0.6249  0.1234
   25MOL0     C 3260   7.897   4.129   8.858 -0.0707 -0.0676  0.3154
   25MOL0     C 3261   7.839   4.013   8.941  1.2628  0.0567  0.6610
   25MOL0     C 3262   7.691   4.011   8.898 -0.5972  0.5069 -0.3704
   25MOL0     C 3263   7.639   3.875   8.943  0.0363 -0.1444  0.2768
   25MOL0     O 3264   7.655   3.775   8.843 -0.1275  0.3911 -0.7869
   25MOL0     C 3265   7.550   3.726   8.768 -0.4624 -1.2504  0.6807
   25MOL0     C 3266   7.416   3.740   8.802  0.0923  0.0434  0.3771
   25MOL0     C 3267   7.313   3.687   8.708 -1.0941 -0.4492 -0.7384
   25MOL0     C 3268   7.354   3.612   8.597  0.6281 -0.3241  2.0102
   25MOL0     C 3269   7.245   3.563   8.504 -0.2890 -0.0738  0.1132
   25MOL0     O 3270   7.119   3.600   8.536 -0.0852  0.3669  0.0102
   25MOL0     C 3271   7.031   3.604   8.433  0.1166  0.4454  0.1601
   25MOL0     C 3272   7.001   3.719   8.362 -1.1929 -0.6004  0.0802
   25MOL0     C 3273   6.919   3.721   8.255  0.2366 -0.5393  0.8243
   25MOL0     C 3274   6.859   3.598   8.204  0.9772  0.0300 -0.1328
   25MOL0     O 3275   6.771   3.590   8.099 -0.2415  0.8064 -0.3570
   25MOL0     C 3276   6.817   3.681   7.990  0.0399 -0.4273  0.3268
   25MOL0     C 3277   6.758   3.646   7.856  0.0295 -0.1962  0.0350
   25MOL0     C 3278   6.758   3.504   7.827 -0.5235  0.1380  1.3218
   25MOL0     C 3279   6.734   3.479   7.668  0.6050 -1.4467 -0.0067
   25MOL0     C 3280   6.743   3.343   7.614 -0.0623  0.2414 -0.6618
   25MOL0     C 3281   6.687   3.319   7.481 -0.3588  1.7624 -0.7684
   25MOL0     C 3282   6.703   3.171   7.439  0.0473  0.2503  0.5949
   25MOL0     C 3283   6.701   3.166   7.291 -0.3559  0.0351 -0.1346
   25MOL0    Cl 3284   6.556   3.211   7.202  0.2992 -0.1695  0.0375
   25MOL0     C 3285   6.881   3.482   8.279 -0.0184 -0.0977 -1.1870
   25MOL0     C 3286   6.975   3.480   8.386  0.2744 -0.9444  1.0670
   25MOL0     O 3287   7.282   3.490   8.409  0.1215 -0.1903  0.1685
   25MOL0     C 3288   7.492   3.590   8.572 -0.3760 -0.1897  1.3637
   25MOL0     C 3289   7.582   3.641   8.657 -0.6841 -0.0665  1.1157
   25MOL0     N 3290   8.106   4.250   8.949  0.2372 -1.3009  0.3373
   25MOL0     N 3291   8.235   4.222   8.965  0.8273 -0.4312 -0.2883
   25MOL0     C 3292   8.447   5.015   8.832  0.2587  0.3696 -0.7135
   25MOL0     C 3293   8.480   5.127   8.904  0.5816  0.0814  0.0240
   25MOL0     C 3294   8.632   5.503   9.085 -0.1777 -0.2251  0.1169
   25MOL0     C 3295   8.668   5.571   8.958 -0.0875 -0.4055  0.2678
   25MOL0     C 3296   8.671   5.709   8.960 -0.7814 -0.2736  0.5794
   25MOL0     C 3297   8.693   5.778   9.069 -0.1495  0.1965  0.0726
   25MOL0     O 3298   8.716   5.914   9.066  0.2955  0.9601  0.5302
   25MOL0     C 3299   8.597   5.988   9.069  0.1734 -0.5603 -0.0676
   25MOL0     C 3300   8.536   6.028   8.932 -0.3267  0.1594  0.1506
   25MOL0     C 3301   8.628   6.116   8.850  1.5722  0.6109 -1.0227
   25MOL0     C 3302   8.660   6.253   8.905  0.1099 -0.4504 -0.1226
   25MOL0     C 3303   8.753   6.328   8.813 -0.0744 -0.0871 -0.7300
   25MOL0     C 3304   8.837   6.391   8.746  0.0784  0.1604  0.1710
   25MOL0     C 3305   8.675   5.709   9.192  1.3863 -0.3159 -0.2802
   25MOL0     C 3306   8.644   5.577   9.202  0.8294  0.3492 -0.0070
   25MOL0     C 3307   8.625   5.508   9.330  0.0982 -0.4603  0.2800
   25MOL0     H 3308   8.822   5.129   8.865 -0.5591  2.1206 -1.3584
   25MOL0     H 3309   8.770   4.933   8.749 -0.3190 -1.7245 -0.9425
   25MOL0     H 3310   8.530   4.861   8.534  1.4153  2.0448  2.7658
   25MOL0     H 3311   8.625   4.719   8.582 -0.4596 -1.5181  1.7263
   25MOL0     H 3312   8.446   4.652   8.449  5.0508  3.0181 -0.0001
   25MOL0     H 3313   8.329   4.747   8.550 -0.6718  0.5405 -1.3673
   25MOL0     H 3314   8.323   4.498   8.601  0.6864  0.1674 -1.5432
   25MOL0     H 3315   8.404   4.577   8.741  3.6322  2.0565 -0.0280
   25MOL0     H 3316   8.572   4.445   8.519  2.9377 -1.0303  0.4451
   25MOL0     H 3317   8.626   4.514   8.670 -2.0183  2.8124  0.8001
   25MOL0     H 3318   8.626   4.282   8.706  0.4836  0.6710  0.8929
   25MOL0     H 3319   8.502   4.348   8.815 -0.7198 -0.9820  0.4936
   25MOL0     H 3320   8.321   4.285   8.658 -0.4146 -3.1254  1.2858
   25MOL0     H 3321   8.429   4.236   8.539 -0.2285 -0.6533 -0.6257
   25MOL0     H 3322   8.540   4.068   8.676  0.6593 -1.4817  2.8073
   25MOL0     H 3323   8.378   4.040   8.624 -0.2338 -0.5177 -0.3254
   25MOL0     H 3324   8.408   3.971   8.860 -1.5859  0.5787  0.5320
   25MOL0     H 3325   8.465   4.129   8.912 -1.8457 -1.6043  2.5197
   25MOL0     H 3326   8.138   3.993   8.756  2.0462  0.5446 -0.5945
   25MOL0     H 3327   7.848   4.224   8.882 -0.1454  0.3967 -1.5193
   25MOL0     H 3328   7.903   4.102   8.752 -0.2695 -1.7539  0.7138
   25MOL0     H 3329   7.890   3.922   8.906  0.8304 -0.1014  0.4243
   25MOL0     H 3330   7.835   4.031   9.048 -1.5251  0.0284  0.6417
   25MOL0     H 3331   7.680   4.027   8.790  0.9835 -0.1782 -0.6559
   25MOL0     H 3332   7.642   4.090   8.956  2.0500  2.9202 -1.2194
   25MOL0     H 3333   7.543   3.876   8.996 -0.0524  1.9358  0.1592
   25MOL0     H 3334   7.700   3.842   9.028  0.3847  1.2518  0.5907
   25MOL0     H 3335   7.395   3.796   8.893  0.3001  0.9435 -0.1185
   25MOL0     H 3336   7.206   3.695   8.729 -0.8607  0.1046  0.3377
   25MOL0     H 3337   7.047   3.809   8.402 -3.8588  0.1735  1.7071
   25MOL0     H 3338   6.877   3.815   8.223  2.7264  1.1011  2.0417
   25MOL0     H 3339   6.776   3.781   8.008 -3.3979 -0.5253 -4.7186
   25MOL0     H 3340   6.926   3.685   7.993  0.0833 -1.2172  3.4402
   25MOL0     H 3341   6.653   3.670   7.874  0.1463 -1.1401  2.4424
   25MOL0     H 3342   6.803   3.705   7.776  3.1310  3.9639  4.3378
   25MOL0     H 3343   6.846   3.445   7.856 -0.2358 -2.1013 -3.1360
   25MOL0     H 3344   6.677   3.457   7.884  0.3517 -3.3582 -0.0647
   25MOL0     H 3345   6.800   3.547   7.615 -2.2325  2.0097  0.4950
   25MOL0     H 3346   6.636   3.524   7.651  1.6401  1.4673  1.0974
   25MOL0     H 3347   6.671   3.287   7.674 -0.7578 -1.7594 -3.2050
   25MOL0     H 3348   6.841   3.297   7.626  0.5116  1.5131 -0.2139
   25MOL0     H 3349   6.585   3.360   7.475 -0.8440  0.4950 -1.7576
   25MOL0     H 3350   6.748   3.370   7.406  0.5424  2.0953  0.1685
   25MOL0     H 3351   6.624   3.106   7.479  1.6822 -1.3192  1.3987
   25MOL0     H 3352   6.793   3.119   7.472  0.0644 -0.3353 -0.3259
   25MOL0     H 3353   6.786   3.225   7.256  2.8336 -3.1104  1.6669
   25MOL0     H 3354   6.731   3.063   7.272  1.0014  0.2900  0.5220
   25MOL0     H 3355   6.831   3.386   8.268  0.7132 -0.4099 -1.8893
   25MOL0     H 3356   6.993   3.389   8.444 -0.0255 -0.8333  1.3325
   25MOL0     H 3357   7.514   3.544   8.476 -0.2623  0.5302  1.0427
   25MOL0     H 3358   7.686   3.626   8.631 -0.1014  2.6020  1.5829
   25MOL0     H 3359   8.344   4.981   8.833 -0.9138  3.4710  1.6219
   25MOL0     H 3360   8.394   5.178   8.949 -2.5373 -0.2852 -4.7512
   25MOL0     H 3361   8.664   5.504   8.872 -0.7058 -0.4238  0.3080
   25MOL0     H 3362   8.658   5.768   8.869  0.1643 -1.2519 -0.2281
   25MOL0     H 3363   8.604   6.078   9.131 -3.4562  0.7510 -1.2484
   25MOL0     H 3364   8.525   5.927   9.125 -1.4111  2.3997  1.3484
   25MOL0     H 3365   8.437   6.072   8.944 -0.4394 -0.1380  0.3024
   25MOL0     H 3366   8.524   5.941   8.867 -0.3342 -1.3574  2.0903
   25MOL0     H 3367   8.580   6.130   8.753 -2.8553 -1.9641  0.5351
   25MOL0     H 3368   8.719   6.059   8.828 -1.1312 -4.0242 -1.4235
   25MOL0     H 3369   8.574   6.318   8.917  0.3298  0.2259 -1.8526
   25MOL0     H 3370   8.713   6.248   9.000 -0.9325  3.8895  0.8717
   25MOL0     H 3371   8.918   6.438   8.694 -0.4641  1.7149  0.6835
   25MOL0     H 3372   8.682   5.773   9.279  2.3035 -0.3402 -0.3243
   25MOL0     H 3373   8.646   5.583   9.407  3.4424  1.0258 -1.8430
   25MOL0     H 3374   8.518   5.495   9.347 -0.3840  2.2256 -0.2244
   25MOL0     H 3375   8.677   5.413   9.337 -2.3649 -1.9631 -0.4148
   26MOL0     O 3376  11.242   3.789  11.505  0.2557 -0.1294  0.1804
   26MOL0     C 3377  11.131   3.738  11.513  0.7421  0.8595 -0.5104
   26MOL0     O 3378  11.100   3.603  11.477  0.3256  0.2752  0.0014
   26MOL0     C 3379  11.188   3.511  11.433 -0.1603 -1.0626  0.2210
   26MOL0     C 3380  11.328   3.511  11.451  1.0043  0.5814  0.2673
   26MOL0     C 3381  11.405   3.405  11.392 -0.8104 -0.1890  0.2627
   26MOL0     C 3382  11.349   3.307  11.314  0.7947 -0.4253  0.0269
   26MOL0     O 3383  11.439   3.218  11.255 -0.6454 -0.4136 -0.0295
   26MOL0     C 3384  11.414   3.179  11.118 -0.5602 -0.3962 -0.3485
   26MOL0     C 3385  11.548   3.130  11.056 -0.3998 -0.9982 -0.2653
   26MOL0     C 3386  11.540   3.087  10.916  0.4015  0.2746  0.2412
   26MOL0     C 3387  11.561   3.200  10.814  0.3759  0.3690  0.0306
   26MOL0     C 3388  11.540   3.139  10.677  0.5512 -0.5109  0.3539
   26MOL0     C 3389  11.491   3.254  10.591  0.1983 -0.5087  0.5503
   26MOL0     C 3390  11.458   3.199  10.453 -0.1502 -0.4470  0.9623
   26MOL0     C 3391  11.423   3.303  10.343  0.7412  0.4391  1.5420
   26MOL0     N 3392  11.503   3.423  10.340 -0.2561  0.0739 -0.3117
   26MOL0     C 3393  11.571   3.477  10.227  0.8188  0.1689 -0.1779
   26MOL0     C 3394  11.565   3.606  10.247  0.0677 -0.6176 -0.6446
   26MOL0     C 3395  11.624   3.707  10.166  0.2642 -0.3647  0.4149
   26MOL0     C 3396  11.763   3.754  10.215 -0.1327 -0.1652 -0.1747
   26MOL0     C 3397  11.769   3.859  10.331  1.0226  0.0682 -0.0886
   26MOL0     C 3398  11.908   3.906  10.367 -0.9824  0.7649  0.0818
   26MOL0     O 3399  11.904   3.982  10.485  0.1026  0.4834  0.6906
   26MOL0     C 3400  12.016   4.018  10.548  0.3855  0.2023 -0.7451
   26MOL0     C 3401  12.144   3.999  10.490 -0.3796  0.2013  0.5813
   26MOL0     C 3402  12.260   4.051  10.544 -0.4001 -0.4395 -0.3979
   26MOL0     C 3403  12.260   4.121  10.661 -0.6497  0.2776 -0.1154
   26MOL0     C 3404  12.383   4.181  10.709  0.1654 -0.2908 -0.8605
   26MOL0     O 3405  12.375   4.292  10.791  1.1464  0.1285 -0.6085
   26MOL0     C 3406  12.497   4.333  10.828 -0.3874  0.7403 -0.8500
   26MOL0     C 3407  12.552   4.286  10.953 -0.4241 -0.3411  0.8195
   26MOL0     C 3408  12.673   4.351  10.987  0.1745 -0.1116 -0.0980
   26MOL0     C 3409  12.745   4.439  10.904 -0.2059 -0.4307 -0.1068
   26MOL0     O 3410  12.868   4.497  10.929  0.9785  0.4305  0.0517
   26MOL0     C 3411  12.973   4.405  10.980 -0.3545 -0.8247 -0.5802
   26MOL0     C 3412  13.060   4.481  11.084  0.6339  0.3026 -0.2462
   26MOL0     C 3413  13.169   4.400  11.153  0.4945 -0.0345 -0.2566
   26MOL0     C 3414  13.308   4.452  11.104  0.6139 -0.0096  0.0451
   26MOL0     C 3415  13.405   4.362  11.192 -0.0770 -0.4930  0.6348
   26MOL0     C 3416  13.543   4.408  11.156 -0.2124 -0.1439 -0.4859
   26MOL0     C 3417  13.633   4.322  11.230 -0.1284  0.4996 -0.6574
   26MOL0     C 3418  13.774   4.383  11.224  0.1752  0.0104  0.0890
   26MOL0    Cl 3419  13.833   4.398  11.062 -0.1064  0.0312  0.0326
   26MOL0     C 3420  12.688   4.483  10.779  1.1098 -0.4978 -0.4279
   26MOL0     C 3421  12.563   4.421  10.745 -0.2886 -0.4822 -0.1729
   26MOL0     O 3422  12.484   4.135  10.662 -0.3787 -0.9969  1.0278
   26MOL0     C 3423  12.136   4.122  10.736 -0.7979  0.1521 -0.5773
   26MOL0     C 3424  12.017   4.080  10.675 -0.4138 -0.5126 -0.3623
   26MOL0     N 3425  11.515   3.634  10.374 -0.1559  0.2767 -0.6213
   26MOL0     N 3426  11.467   3.529  10.419 -1.0234 -0.3416  0.3151
   26MOL0     C 3427  11.213   3.311  11.287 -0.0053 -0.5933 -0.2848
   26MOL0     C 3428  11.139   3.415  11.346 -0.2035 -0.1954 -0.4062
   26MOL0     C 3429  11.027   3.802  11.590  0.5746 -0.1095 -0.7559
   26MOL0     C 3430  10.928   3.716  11.657  0.7064  0.0056  0.1692
   26MOL0     C 3431  10.832   3.766  11.744 -0.8874 -0.1618  0.1933
   26MOL0     C 3432  10.823   3.896  11.779  1.5560 -0.3906  0.1152
   26MOL0     O 3433  10.739   3.954  11.877  0.5567 -0.0835 -0.4914
   26MOL0     C 3434  10.602   3.966  11.826 -0.8578  0.4105 -0.2594
   26MOL0     C 3435  10.497   3.854  11.847  0.1195  0.5233 -1.4795
   26MOL0     C 3436  10.458   3.844  12.001  0.3758  0.2598  0.9322
   26MOL0     C 3437  10.314   3.778  12.015  0.0559  0.1250  0.3717
   26MOL0     C 3438  10.301   3.651  11.943  0.9903  0.2611  0.4876
   26MOL0     C 3439  10.308   3.544  11.878  0.1206  0.1200 -0.1848
   26MOL0     C 3440  10.916   3.985  11.718  0.0907 -0.5913  0.4813
   26MOL0     C 3441  11.021   3.937  11.630 -0.2186 -0.8257  0.1479
   26MOL0     C 3442  11.096   4.054  11.568 -0.6260  0.0920 -0.3106
   26MOL0     H 3443  11.393   3.572  11.512  3.3955 -0.7089 -0.8521
   26MOL0     H 3444  11.510   3.400  11.418 -1.0190  1.6652  1.6193
   26MOL0     H 3445  11.343   3.097  11.103  0.6486 -1.7203  0.8778
   26MOL0     H 3446  11.374   3.260  11.057 -0.2916 -0.5543 -0.7365
   26MOL0     H 3447  11.577   3.040  11.112  2.2763  0.1192  0.3290
   26MOL0     H 3448  11.624   3.207  11.077  0.6593 -2.0095 -0.2782
   26MOL0     H 3449  11.439   3.049  10.901 -0.4832  1.3757  2.7644
   26MOL0     H 3450  11.626   3.021  10.901  1.1269  1.5135 -1.3750
   26MOL0     H 3451  11.486   3.279  10.824  0.4005  0.1160  3.4000
   26MOL0     H 3452  11.663   3.239  10.823  0.9533 -0.4295 -2.2619
   26MOL0     H 3453  11.630   3.097  10.630 -1.0547 -3.4063 -0.4073
   26MOL0     H 3454  11.470   3.056  10.671 -0.0380  0.0763 -1.4202
   26MOL0     H 3455  11.399   3.303  10.624 -0.2498 -1.2851  0.4904
   26MOL0     H 3456  11.574   3.325  10.584 -0.5921  0.2755 -3.1121
   26MOL0     H 3457  11.368   3.137  10.454 -3.0166  2.7620 -4.7500
   26MOL0     H 3458  11.541   3.135  10.422  0.1704  0.7448 -0.7851
   26MOL0     H 3459  11.424   3.258  10.243 -3.9936 -0.7889  1.8206
   26MOL0     H 3460  11.319   3.335  10.326  1.7840  2.1799 -3.0383
   26MOL0     H 3461  11.609   3.423  10.141  4.4559  0.0826  1.3277
   26MOL0     H 3462  11.622   3.683  10.059  2.6802 -0.4797  0.3375
   26MOL0     H 3463  11.577   3.806  10.171 -1.8734 -1.3283  0.5018
   26MOL0     H 3464  11.835   3.674  10.232  2.0168  1.4627 -1.1204
   26MOL0     H 3465  11.800   3.802  10.124  0.4501 -1.2516 -0.5343
   26MOL0     H 3466  11.721   3.816  10.420  1.2333  1.5584  0.7839
   26MOL0     H 3467  11.720   3.954  10.307  3.8988  2.0094  1.1470
   26MOL0     H 3468  11.954   3.972  10.293  2.7980  0.7523  2.1755
   26MOL0     H 3469  11.981   3.827  10.386 -1.6359  0.1763  0.1728
   26MOL0     H 3470  12.155   3.948  10.395 -0.6681 -1.5499  1.4460
   26MOL0     H 3471  12.338   4.058  10.469 -2.5033 -0.1420 -2.6886
   26MOL0     H 3472  12.500   4.216  11.018  0.1853 -0.4285  1.2154
   26MOL0     H 3473  12.714   4.326  11.085  0.7190  3.2725  0.6639
   26MOL0     H 3474  12.930   4.318  11.032 -1.5038  0.5005  0.7995
   26MOL0     H 3475  13.030   4.356  10.900 -1.0992 -0.5489 -1.2905
   26MOL0     H 3476  13.098   4.570  11.033 -2.4122  0.6781 -2.1125
   26MOL0     H 3477  12.984   4.519  11.153 -2.0019 -1.7255 -1.8406
   26MOL0     H 3478  13.151   4.397  11.261 -1.6405  4.0480 -0.3270
   26MOL0     H 3479  13.154   4.298  11.115  1.1373 -0.3747  0.3772
   26MOL0     H 3480  13.323   4.559  11.123 -1.4436  0.5720 -1.2793
   26MOL0     H 3481  13.321   4.432  10.997 -1.6023  1.3683 -0.5490
   26MOL0     H 3482  13.395   4.257  11.166 -0.2488 -0.4853  0.6701
   26MOL0     H 3483  13.395   4.384  11.299  2.3104  3.4450  0.2852
   26MOL0     H 3484  13.563   4.401  11.049  3.4602  2.1867 -0.1220
   26MOL0     H 3485  13.557   4.510  11.192  2.8045 -1.0338  1.2083
   26MOL0     H 3486  13.635   4.218  11.195  0.4647  0.8527 -1.7226
   26MOL0     H 3487  13.600   4.312  11.334  2.4536  0.3045  0.2136
   26MOL0     H 3488  13.765   4.487  11.256 -0.2021 -0.3177  1.0912
   26MOL0     H 3489  13.856   4.344  11.284 -1.1735  1.0354  2.7676
   26MOL0     H 3490  12.718   4.570  10.722 -1.7254  0.1263 -1.1051
   26MOL0     H 3491  12.504   4.456  10.661 -1.3729  0.0842  0.7911
   26MOL0     H 3492  12.127   4.168  10.834  2.3205  1.4047 -0.7511
   26MOL0     H 3493  11.928   4.088  10.737 -0.8464 -1.7313 -0.7964
   26MOL0     H 3494  11.170   3.240  11.217 -2.0561  0.8320 -0.5734
   26MOL0     H 3495  11.031   3.400  11.345  0.1671 -3.6004 -1.8757
   26MOL0     H 3496  10.920   3.610  11.635  3.3719 -0.0896 -0.5853
   26MOL0     H 3497  10.758   3.700  11.789 -2.2869 -1.0199 -3.0556
   26MOL0     H 3498  10.601   3.991  11.719 -0.7808  2.8510  0.2559
   26MOL0     H 3499  10.557   4.061  11.857 -0.8618  0.3788 -0.1665
   26MOL0     H 3500  10.539   3.756  11.823  2.3431  0.2175  2.8500
   26MOL0     H 3501  10.406   3.872  11.788 -1.4046  1.2266  0.9418
   26MOL0     H 3502  10.455   3.940  12.053  0.2866 -0.6753  2.7486
   26MOL0     H 3503  10.531   3.779  12.050  0.4038 -3.1747 -3.1004
   26MOL0     H 3504  10.303   3.755  12.122  0.2028 -0.7029  0.2155
   26MOL0     H 3505  10.231   3.843  11.989 -0.4834 -1.9384 -3.8894
   26MOL0     H 3506  10.322   3.453  11.823 -1.1858 -0.2021 -0.0289
   26MOL0     H 3507  10.913   4.089  11.749 -3.8201 -0.5286  0.4432
   26MOL0     H 3508  11.043   4.106  11.488 -0.7690  1.1486  0.4490
   26MOL0     H 3509  11.098   4.134  11.643 -0.2757  2.6272 -2.8606
   26MOL0     H 3510  11.199   4.037  11.536 -0.5644 -2.3309  0.9117
   27MOL0     O 3511   4.625   3.904   9.596 -0.3963  0.0272 -0.3331
   27MOL0     C 3512   4.674   3.994   9.666  1.1699  0.2238 -0.1359
   27MOL0     O 3513   4.619   4.038   9.790  0.3427 -0.5378 -0.4610
   27MOL0     C 3514   4.538   3.960   9.868  0.0932  0.6635 -0.0861
   27MOL0     C 3515   4.509   3.820   9.864  0.6059  0.0118  0.0181
   27MOL0     C 3516   4.397   3.756   9.928 -0.0216  0.3839 -0.1475
   27MOL0     C 3517   4.314   3.830  10.015  0.8711 -0.3609  0.3590
   27MOL0     O 3518   4.217   3.773  10.087 -0.5893  0.0010  0.3753
   27MOL0     C 3519   4.111   3.845  10.153 -0.1839  0.1084  0.0144
   27MOL0     C 3520   4.019   3.737  10.225  0.3384  0.2710  0.4426
   27MOL0     C 3521   4.100   3.637  10.312 -0.2032 -0.1483  1.0469
   27MOL0     C 3522   3.992   3.548  10.377  0.6418  0.4434 -1.2288
   27MOL0     C 3523   4.052   3.460  10.478 -0.6195  1.1428 -0.4798
   27MOL0     C 3524   3.977   3.420  10.606  0.2877  0.0205 -0.2515
   27MOL0     C 3525   3.847   3.338  10.606 -0.2334 -0.1518  1.5058
   27MOL0     C 3526   3.766   3.366  10.729  0.5592 -0.0326 -0.2964
   27MOL0     N 3527   3.650   3.274  10.753 -0.5240  0.6104 -0.3509
   27MOL0     C 3528   3.652   3.137  10.780  0.4048 -0.7344  0.4121
   27MOL0     C 3529   3.525   3.096  10.792  0.4920 -0.1899  0.1362
   27MOL0     C 3530   3.490   2.951  10.790 -0.5916  0.6668 -0.2071
   27MOL0     C 3531   3.463   2.908  10.648  0.3687 -0.9141  0.4493
   27MOL0     C 3532   3.324   2.909  10.598 -0.0092 -0.3774 -0.0423
   27MOL0     C 3533   3.273   3.048  10.555 -0.5382 -0.2789 -0.1150
   27MOL0     O 3534   3.165   3.034  10.449 -0.7249 -0.2874 -0.4108
   27MOL0     C 3535   3.097   3.143  10.407 -0.2081 -0.5685  0.3241
   27MOL0     C 3536   3.138   3.278  10.401 -0.3115 -0.6148 -0.3456
   27MOL0     C 3537   3.058   3.382  10.338  0.3410 -0.0229  1.3358
   27MOL0     C 3538   2.939   3.351  10.279 -0.4852 -1.0770  0.4039
   27MOL0     C 3539   2.842   3.458  10.223 -0.3316  1.0287 -0.3037
   27MOL0     O 3540   2.714   3.423  10.184  0.1240  0.4133  0.1845
   27MOL0     C 3541   2.608   3.515  10.198 -0.2342  0.8701  0.0773
   27MOL0     C 3542   2.491   3.480  10.265 -0.5466  0.3886 -0.6331
   27MOL0     C 3543   2.372   3.551  10.254  0.3608  0.7976  1.0079
   27MOL0     C 3544   2.373   3.666  10.180  0.5607 -0.0806 -0.3538
   27MOL0     O 3545   2.258   3.748  10.199 -0.5324  0.5808  0.7932
   27MOL0     C 3546   2.265   3.890  10.180 -0.0455 -0.1135 -0.0442
   27MOL0     C 3547   2.191   3.963  10.306  0.5577 -0.1824 -0.4693
   27MOL0     C 3548   2.219   4.113  10.290 -0.5937  0.2902  0.6868
   27MOL0     C 3549   2.170   4.184  10.161  0.0315  0.5047 -0.1829
   27MOL0     C 3550   2.200   4.334  10.173 -0.6336 -0.5084  1.2014
   27MOL0     C 3551   2.346   4.371  10.152 -0.5911  0.1787  0.3388
   27MOL0     C 3552   2.374   4.515  10.178 -0.4844 -0.5285  0.0686
   27MOL0     C 3553   2.338   4.567  10.317  0.3637 -0.1576  0.1812
   27MOL0    Cl 3554   2.382   4.457  10.457 -0.3655  0.0790  0.0694
   27MOL0     C 3555   2.495   3.701  10.115 -0.3746 -0.1824 -0.3005
   27MOL0     C 3556   2.607   3.627  10.118 -0.5668  0.0327 -0.2461
   27MOL0     O 3557   2.887   3.574  10.226 -0.0725  0.6409 -0.5155
   27MOL0     C 3558   2.899   3.218  10.288 -0.2826 -0.7948 -0.6340
   27MOL0     C 3559   2.973   3.113  10.353  0.2962  0.1944  0.3697
   27MOL0     N 3560   3.448   3.214  10.798 -0.2293 -0.3865 -0.0791
   27MOL0     N 3561   3.520   3.310  10.777  0.0779  0.2245  0.3685
   27MOL0     C 3562   4.336   3.969  10.019  0.3545 -0.2397  0.5853
   27MOL0     C 3563   4.448   4.029   9.954 -0.1697 -0.9128  0.6591
   27MOL0     C 3564   4.797   4.055   9.617 -0.8231  0.2911 -0.1123
   27MOL0     C 3565   4.843   4.161   9.704  1.3874  0.8411 -0.0428
   27MOL0     C 3566   4.961   4.230   9.692  0.0874  0.1167 -0.2868
   27MOL0     C 3567   5.034   4.204   9.578 -0.2880  0.6933 -0.2911
   27MOL0     O 3568   5.169   4.251   9.562  0.2442 -0.1842  0.9116
   27MOL0     C 3569   5.176   4.332   9.443 -0.6422  0.8503 -0.9282
   27MOL0     C 3570   5.259   4.450   9.491 -0.0111 -0.2941  1.0753
   27MOL0     C 3571   5.289   4.533   9.365  0.4943 -0.8892 -0.3229
   27MOL0     C 3572   5.407   4.617   9.372  0.3230 -0.8334 -0.0531
   27MOL0     C 3573   5.402   4.721   9.475 -0.4100  0.6455 -0.3114
   27MOL0     C 3574   5.376   4.816   9.549  0.4339 -0.7770  0.8625
   27MOL0     C 3575   4.984   4.102   9.484 -0.6476 -0.3779  0.0018
   27MOL0     C 3576   4.866   4.035   9.494 -0.7258 -0.4705 -0.1224
   27MOL0     C 3577   4.827   3.933   9.387 -0.3486 -0.4501  0.0198
   27MOL0     H 3578   4.576   3.759   9.805 -0.7386 -0.5200 -0.9986
   27MOL0     H 3579   4.382   3.649   9.920 -0.7430  0.3175  1.6721
   27MOL0     H 3580   4.157   3.894  10.240 -1.1588  1.7341 -0.3353
   27MOL0     H 3581   4.057   3.907  10.081  2.1690  0.6771 -1.3826
   27MOL0     H 3582   3.961   3.686  10.147  1.0993 -1.5631  1.0281
   27MOL0     H 3583   3.947   3.786  10.291 -2.4303 -1.6968 -0.9158
   27MOL0     H 3584   4.163   3.697  10.378  0.5226  2.1959 -1.5439
   27MOL0     H 3585   4.157   3.573  10.243 -2.3843 -0.7721 -0.2727
   27MOL0     H 3586   3.932   3.620  10.433  0.0311 -1.2109  0.3564
   27MOL0     H 3587   3.923   3.500  10.306  1.9324  1.6744 -3.4027
   27MOL0     H 3588   4.093   3.373  10.426  1.3472  1.2368  0.8168
   27MOL0     H 3589   4.147   3.503  10.514  2.2008 -3.5717 -1.4391
   27MOL0     H 3590   4.030   3.362  10.681 -1.5214 -0.2508  0.8863
   27MOL0     H 3591   3.969   3.519  10.652  1.7812  0.2107 -0.3639
   27MOL0     H 3592   3.878   3.233  10.601  0.5439  0.1240 -0.6796
   27MOL0     H 3593   3.784   3.351  10.517  1.1950 -4.3274 -0.3847
   27MOL0     H 3594   3.828   3.357  10.818 -0.2294  1.2794  0.4156
   27MOL0     H 3595   3.741   3.472  10.725 -0.6896 -0.2416  1.1649
   27MOL0     H 3596   3.742   3.077  10.775  0.7100 -0.3545  1.2185
   27MOL0     H 3597   3.570   2.892  10.836 -3.5636 -2.0945  1.8120
   27MOL0     H 3598   3.406   2.937  10.858  0.5035  3.4296  1.8959
   27MOL0     H 3599   3.527   2.962  10.577  0.8026 -0.0629  1.4623
   27MOL0     H 3600   3.511   2.810  10.639  0.2089 -0.9347 -0.2002
   27MOL0     H 3601   3.247   2.858  10.656 -4.4969  1.4430 -3.7484
   27MOL0     H 3602   3.332   2.853  10.504  1.0608 -2.4956  1.2490
   27MOL0     H 3603   3.363   3.095  10.514 -0.5084 -0.0804  0.1807
   27MOL0     H 3604   3.233   3.113  10.633  0.8089  2.7371 -1.7472
   27MOL0     H 3605   3.234   3.306  10.442  0.2670  0.0802 -2.1198
   27MOL0     H 3606   3.086   3.487  10.342  1.5675 -0.3590  2.1345
   27MOL0     H 3607   2.494   3.382  10.311 -1.5331 -0.1059 -1.5639
   27MOL0     H 3608   2.282   3.530  10.312  0.1055  2.3831  1.2383
   27MOL0     H 3609   2.365   3.933  10.193 -0.7078  1.7107 -0.7290
   27MOL0     H 3610   2.214   3.908  10.085 -0.0740 -0.0906 -0.0245
   27MOL0     H 3611   2.084   3.939  10.305  0.6357 -0.6208  0.4453
   27MOL0     H 3612   2.245   3.937  10.398 -0.2705 -1.2753 -0.2707
   27MOL0     H 3613   2.164   4.161  10.371 -0.2812 -0.6955  1.4969
   27MOL0     H 3614   2.327   4.134  10.292  0.1199 -2.8652  2.5921
   27MOL0     H 3615   2.061   4.193  10.158 -0.0226  0.2223  0.6928
   27MOL0     H 3616   2.205   4.147  10.064 -0.2484 -1.1215  0.2960
   27MOL0     H 3617   2.172   4.370  10.273 -2.4581 -0.6546  0.7740
   27MOL0     H 3618   2.140   4.382  10.095  1.5698  1.9064  0.8655
   27MOL0     H 3619   2.397   4.308  10.225 -1.4301 -2.5005 -1.2358
   27MOL0     H 3620   2.374   4.336  10.052  2.6285 -0.7320  1.4479
   27MOL0     H 3621   2.319   4.581  10.110 -1.3740 -0.1685  1.0888
   27MOL0     H 3622   2.481   4.533  10.167 -0.3427 -1.5206 -0.2723
   27MOL0     H 3623   2.385   4.665  10.327  0.1705  0.1378 -1.5655
   27MOL0     H 3624   2.231   4.586  10.332  0.1321 -2.1510  1.4576
   27MOL0     H 3625   2.505   3.795  10.062 -1.2959  0.1606  0.1072
   27MOL0     H 3626   2.701   3.655  10.071 -0.5230  0.7226  0.2513
   27MOL0     H 3627   2.799   3.207  10.248 -2.0100  3.5645  1.8954
   27MOL0     H 3628   2.946   3.008  10.345  1.9565 -0.2358  0.1617
   27MOL0     H 3629   4.267   4.037  10.067 -1.8394 -0.6055 -1.8503
   27MOL0     H 3630   4.450   4.136   9.966 -0.5752 -0.6236 -1.4029
   27MOL0     H 3631   4.778   4.188   9.787  0.4830 -1.9287  0.2577
   27MOL0     H 3632   4.984   4.288   9.781 -3.0030 -1.4104  1.7020
   27MOL0     H 3633   5.080   4.366   9.403 -0.4398  3.2377  0.4111
   27MOL0     H 3634   5.231   4.279   9.365 -2.2988 -0.3585 -1.3370
   27MOL0     H 3635   5.355   4.409   9.522  2.8522  2.4941 -3.1315
   27MOL0     H 3636   5.211   4.503   9.574  0.0864 -1.7354  2.0956
   27MOL0     H 3637   5.207   4.600   9.338  2.7909  2.7238  0.9984
   27MOL0     H 3638   5.318   4.465   9.285  0.9207 -1.4775  0.3203
   27MOL0     H 3639   5.485   4.549   9.408 -1.2462 -1.1489  3.0683
   27MOL0     H 3640   5.443   4.655   9.275 -0.7946  2.9102  0.8428
   27MOL0     H 3641   5.334   4.898   9.603 -0.8705 -1.7252  1.3200
   27MOL0     H 3642   5.053   4.072   9.406 -0.0716  1.3181 -0.1742
   27MOL0     H 3643   4.814   3.827   9.413  3.4334 -1.3620 -1.1986
   27MOL0     H 3644   4.737   3.973   9.340 -0.7433  0.2682  1.3391
   27MOL0     H 3645   4.902   3.932   9.308  0.1788 -2.3503  0.4798
   28MOL0     O 3646  10.689   0.865   5.162  0.0091  0.7593 -0.4231
   28MOL0     C 3647  10.567   0.856   5.137 -0.6545  0.0040 -0.1834
   28MOL0     O 3648  10.512   0.925   5.028  0.4355  0.3966 -0.0963
   28MOL0     C 3649  10.601   1.002   4.955 -0.9129 -0.2510 -1.0165
   28MOL0     C 3650  10.698   0.943   4.880  0.2433  0.0112 -0.0895
   28MOL0     C 3651  10.784   1.016   4.803  1.3446  0.2955 -0.5910
   28MOL0     C 3652  10.763   1.156   4.781  0.6219  0.4222  1.2908
   28MOL0     O 3653  10.824   1.228   4.679 -0.4556  0.5267 -0.5829
   28MOL0     C 3654  10.964   1.201   4.638  0.4637  0.3589 -0.3820
   28MOL0     C 3655  11.034   1.328   4.599 -0.5376 -0.0602 -0.3916
   28MOL0     C 3656  11.059   1.425   4.720  1.1995 -0.0897 -0.2667
   28MOL0     C 3657  11.190   1.388   4.803  0.1310  0.3071  0.9482
   28MOL0     C 3658  11.326   1.411   4.734 -0.2763  0.3546  0.7178
   28MOL0     C 3659  11.445   1.406   4.836  0.2331 -0.1612 -0.9109
   28MOL0     C 3660  11.570   1.464   4.760 -0.6438  0.9221 -0.1389
   28MOL0     C 3661  11.614   1.353   4.663  0.6759  0.4144  0.2508
   28MOL0     N 3662  11.758   1.354   4.648 -0.1792  0.2981 -0.8340
   28MOL0     C 3663  11.829   1.390   4.529 -0.2388  0.7243 -0.0339
   28MOL0     C 3664  11.951   1.337   4.535 -0.0463  0.4657 -0.4320
   28MOL0     C 3665  12.055   1.345   4.429 -0.2755 -0.1247 -0.8282
   28MOL0     C 3666  12.104   1.489   4.404  0.1880  0.1082  0.6688
   28MOL0     C 3667  12.174   1.516   4.280  0.2978  0.1142  0.6808
   28MOL0     C 3668  12.322   1.489   4.290 -0.2815  0.1159 -0.1718
   28MOL0     O 3669  12.385   1.572   4.387  0.2078  0.0991 -0.4961
   28MOL0     C 3670  12.521   1.586   4.379 -0.1739  0.1717 -0.3606
   28MOL0     C 3671  12.600   1.563   4.494 -0.1585  0.2284 -0.7621
   28MOL0     C 3672  12.741   1.565   4.484  0.4115  0.5340 -0.6792
   28MOL0     C 3673  12.799   1.629   4.372  0.1533  0.1752 -0.3881
   28MOL0     C 3674  12.944   1.648   4.355  0.8692  0.2119  0.0489
   28MOL0     O 3675  12.989   1.691   4.233 -0.2168  0.6999  1.2968
   28MOL0     C 3676  13.118   1.723   4.192 -0.7553 -0.3145  0.3613
   28MOL0     C 3677  13.232   1.688   4.265 -0.4595  0.7326  0.0391
   28MOL0     C 3678  13.361   1.728   4.222 -0.5295 -1.1837  0.2414
   28MOL0     C 3679  13.377   1.788   4.088 -0.7985 -0.1075 -1.0720
   28MOL0     O 3680  13.507   1.814   4.048  0.2000 -0.8916 -0.4768
   28MOL0     C 3681  13.531   1.904   3.940  0.4550  0.8120  0.6162
   28MOL0     C 3682  13.683   1.891   3.898 -0.3078  0.5704  0.3259
   28MOL0     C 3683  13.709   1.751   3.827 -0.3286  0.0136 -0.4455
   28MOL0     C 3684  13.824   1.749   3.721  0.5836  0.0788  0.7529
   28MOL0     C 3685  13.907   1.625   3.714 -0.0722 -0.0505  0.3479
   28MOL0     C 3686  13.848   1.511   3.635  0.0523 -0.4822 -0.2988
   28MOL0     C 3687  13.962   1.402   3.616  0.1088 -0.0049 -0.3172
   28MOL0     C 3688  13.929   1.279   3.541  0.0474  0.3470  0.1691
   28MOL0    Cl 3689  14.071   1.180   3.550 -0.2720 -0.0777  0.0068
   28MOL0     C 3690  13.270   1.813   4.012  0.1769  0.5750 -0.0332
   28MOL0     C 3691  13.136   1.782   4.063  0.5930  0.1887 -0.0678
   28MOL0     O 3692  12.999   1.657   4.454  0.0167 -0.7210 -0.2449
   28MOL0     C 3693  12.722   1.659   4.264  0.0751  0.3711  0.0642
   28MOL0     C 3694  12.585   1.631   4.266 -0.1729  0.1589 -0.2922
   28MOL0     N 3695  11.964   1.272   4.658 -0.8343 -0.4804  0.1648
   28MOL0     N 3696  11.853   1.294   4.721 -0.3220 -0.0156  0.1440
   28MOL0     C 3697  10.674   1.218   4.854  0.5407  0.1414 -0.8452
   28MOL0     C 3698  10.601   1.144   4.947  1.3676 -0.3324  0.7511
   28MOL0     C 3699  10.472   0.777   5.214 -0.0125  0.8482  0.0744
   28MOL0     C 3700  10.328   0.791   5.190  0.3213  0.1783  0.0019
   28MOL0     C 3701  10.232   0.729   5.276  0.3298  0.2036 -0.1908
   28MOL0     C 3702  10.270   0.659   5.388  0.3944  0.4236 -0.4100
   28MOL0     O 3703  10.185   0.578   5.470 -0.7546 -0.3208 -0.0723
   28MOL0     C 3704  10.039   0.584   5.439  0.2876  0.3819  0.8717
   28MOL0     C 3705   9.960   0.714   5.458 -0.4374  0.0103  0.5443
   28MOL0     C 3706   9.881   0.732   5.588  0.5366 -0.2370  0.7672
   28MOL0     C 3707   9.972   0.717   5.699 -0.3635 -0.3124  0.3670
   28MOL0     C 3708   9.906   0.738   5.832 -0.4518  0.0824 -0.5172
   28MOL0     C 3709   9.871   0.793   5.930  0.6868 -0.5731  0.0143
   28MOL0     C 3710  10.412   0.640   5.399 -0.0391  0.2761 -0.2831
   28MOL0     C 3711  10.513   0.688   5.312 -0.7810 -0.3000 -0.5744
   28MOL0     C 3712  10.661   0.655   5.352 -0.5776 -0.3352  0.4898
   28MOL0     H 3713  10.703   0.835   4.894  0.2335  0.1974  1.5190
   28MOL0     H 3714  10.847   0.959   4.735 -1.9102  1.3671 -4.9138
   28MOL0     H 3715  11.011   1.136   4.712  2.0331  0.6272 -1.1016
   28MOL0     H 3716  10.960   1.148   4.543 -0.3636  0.3879 -0.3692
   28MOL0     H 3717  10.978   1.375   4.518 -0.6799 -0.7802 -0.7230
   28MOL0     H 3718  11.131   1.300   4.557  0.0802  1.8503 -0.3126
   28MOL0     H 3719  10.969   1.421   4.781  1.3149  1.3253  0.0194
   28MOL0     H 3720  11.071   1.528   4.686  0.2778  1.1281  2.8499
   28MOL0     H 3721  11.188   1.447   4.895  0.7023 -0.2086  1.3013
   28MOL0     H 3722  11.191   1.280   4.825  3.6487  0.2176  0.8498
   28MOL0     H 3723  11.342   1.341   4.652  2.1824  1.3943  0.2393
   28MOL0     H 3724  11.324   1.508   4.682  0.5872 -0.4538 -0.8943
   28MOL0     H 3725  11.425   1.479   4.916 -1.7178 -4.0749  2.5644
   28MOL0     H 3726  11.460   1.304   4.873  1.5599  1.1035  2.4958
   28MOL0     H 3727  11.645   1.483   4.838 -3.5597  1.5917  2.7252
   28MOL0     H 3728  11.556   1.556   4.702  2.7702  2.9185  1.8922
   28MOL0     H 3729  11.590   1.250   4.688 -2.3794  1.3670  1.8321
   28MOL0     H 3730  11.564   1.375   4.568  0.9038 -1.1440 -0.2484
   28MOL0     H 3731  11.783   1.445   4.447  0.8677 -1.4318 -2.2367
   28MOL0     H 3732  12.137   1.281   4.461 -0.0868  1.4517  2.1731
   28MOL0     H 3733  12.001   1.301   4.344 -1.1352 -0.3451 -0.1875
   28MOL0     H 3734  12.020   1.558   4.412  0.2675  0.3311 -0.3026
   28MOL0     H 3735  12.166   1.523   4.488  1.6634 -1.7423  0.4089
   28MOL0     H 3736  12.139   1.610   4.237 -1.0175 -1.3824 -1.7307
   28MOL0     H 3737  12.141   1.436   4.213  2.1795 -1.1432  1.1737
   28MOL0     H 3738  12.364   1.497   4.189 -0.5125  0.5796 -0.2354
   28MOL0     H 3739  12.342   1.389   4.329 -1.9630  0.8739  3.0093
   28MOL0     H 3740  12.545   1.525   4.581 -0.7752 -0.5099 -1.4566
   28MOL0     H 3741  12.806   1.525   4.561  0.1936  0.8058 -0.3542
   28MOL0     H 3742  13.219   1.628   4.354  2.1823 -1.7502 -1.1174
   28MOL0     H 3743  13.449   1.716   4.283  1.1100  3.8708 -0.5970
   28MOL0     H 3744  13.470   1.885   3.851 -0.3706 -0.2996  1.4032
   28MOL0     H 3745  13.508   2.008   3.968 -0.1696  0.6289  0.8071
   28MOL0     H 3746  13.704   1.978   3.835  0.9796  0.1886  0.2030
   28MOL0     H 3747  13.751   1.898   3.983 -1.5603  2.5744  1.2228
   28MOL0     H 3748  13.720   1.674   3.904  0.5949  2.1952  1.7303
   28MOL0     H 3749  13.612   1.723   3.785 -0.3693 -1.8964  0.7991
   28MOL0     H 3750  13.903   1.824   3.727  0.0262  0.7210  0.2583
   28MOL0     H 3751  13.772   1.763   3.626  1.7732  1.9388  0.3330
   28MOL0     H 3752  13.933   1.598   3.817 -2.5981 -2.7477  0.3922
   28MOL0     H 3753  14.000   1.654   3.665  0.2215  3.3384  2.5836
   28MOL0     H 3754  13.762   1.469   3.689 -1.0096 -0.6838 -2.0677
   28MOL0     H 3755  13.820   1.555   3.539  3.2094  0.6854 -0.7663
   28MOL0     H 3756  14.001   1.379   3.716  0.1048  0.6000 -0.1723
   28MOL0     H 3757  14.046   1.449   3.566  1.9120 -0.5936  1.9719
   28MOL0     H 3758  13.843   1.227   3.584 -0.1310  1.2959  1.0004
   28MOL0     H 3759  13.896   1.311   3.442 -1.7580 -0.2520  0.5471
   28MOL0     H 3760  13.274   1.854   3.911 -0.9426  1.8295  0.4097
   28MOL0     H 3761  13.047   1.809   4.009  0.2630  0.4122  0.5726
   28MOL0     H 3762  12.766   1.717   4.183 -1.9575 -0.9597 -2.1310
   28MOL0     H 3763  12.522   1.656   4.181 -0.3738  0.2707 -0.1108
   28MOL0     H 3764  10.653   1.323   4.837 -0.8929  0.0429  0.1396
   28MOL0     H 3765  10.519   1.193   4.999  0.9353 -0.1854 -0.0459
   28MOL0     H 3766  10.300   0.843   5.099 -0.3853  0.6195  0.4670
   28MOL0     H 3767  10.128   0.726   5.245  0.3453  2.4353 -0.6271
   28MOL0     H 3768   9.984   0.503   5.488  0.1104  0.1965  0.3827
   28MOL0     H 3769  10.038   0.558   5.332  1.0588  0.3267  0.8685
   28MOL0     H 3770   9.886   0.725   5.379  0.4097  1.9026 -0.0427
   28MOL0     H 3771  10.028   0.799   5.453  1.8564 -1.7691 -1.1803
   28MOL0     H 3772   9.810   0.649   5.587  1.8320 -1.3839 -0.3543
   28MOL0     H 3773   9.823   0.824   5.589 -0.9755 -1.1163  3.7268
   28MOL0     H 3774  10.020   0.620   5.713  0.0806 -0.6959 -2.9737
   28MOL0     H 3775  10.057   0.786   5.693  0.2682 -1.2156 -2.5234
   28MOL0     H 3776   9.838   0.842   6.020 -3.9170  0.0523 -1.7262
   28MOL0     H 3777  10.441   0.575   5.481  1.3028  0.4968 -0.5468
   28MOL0     H 3778  10.658   0.564   5.412  0.5428  0.6319  2.0909
   28MOL0     H 3779  10.734   0.639   5.273  0.3474 -2.5415  1.7077
   28MOL0     H 3780  10.705   0.734   5.414  0.8030 -0.5744 -0.1536
   29MOL0     O 3781   1.513   4.232   7.093 -0.0785  0.7809 -0.1497
   29MOL0     C 3782   1.625   4.267   7.103  0.3566  0.6559 -0.4649
   29MOL0     O 3783   1.707   4.322   7.001  0.3835  0.6139 -0.8110
   29MOL0     C 3784   1.671   4.280   6.877  0.2468 -0.1198  0.1062
   29MOL0     C 3785   1.769   4.216   6.798 -0.3362 -0.7733 -0.9496
   29MOL0     C 3786   1.740   4.184   6.668  0.0864 -0.0509  0.4178
   29MOL0     C 3787   1.612   4.210   6.606  0.9002 -0.2288 -0.4014
   29MOL0     O 3788   1.573   4.173   6.479  0.2084 -0.8220  0.5300
   29MOL0     C 3789   1.643   4.073   6.407 -0.4145  0.1501  0.2389
   29MOL0     C 3790   1.589   4.055   6.260 -0.1751  0.2088 -0.9839
   29MOL0     C 3791   1.615   4.182   6.186 -0.7069 -0.1439  0.1821
   29MOL0     C 3792   1.486   4.264   6.160 -0.5672  0.8838 -0.0349
   29MOL0     C 3793   1.520   4.405   6.110 -0.7961  0.0373  0.6463
   29MOL0     C 3794   1.524   4.516   6.213  0.5010 -0.5210  0.0065
   29MOL0     C 3795   1.628   4.502   6.323 -1.0473  0.1247 -0.8196
   29MOL0     C 3796   1.627   4.610   6.432 -1.0514  0.1019 -0.3061
   29MOL0     N 3797   1.662   4.742   6.372  0.4934 -0.1527 -0.0189
   29MOL0     C 3798   1.577   4.822   6.306  0.7749 -0.2024 -1.0458
   29MOL0     C 3799   1.659   4.924   6.265  0.8317  0.0641  0.1957
   29MOL0     C 3800   1.595   5.040   6.186 -0.4751 -0.8930  0.2594
   29MOL0     C 3801   1.620   5.175   6.257 -0.2510  0.6821  0.5636
   29MOL0     C 3802   1.504   5.213   6.360 -0.4107 -0.3556  0.7087
   29MOL0     C 3803   1.563   5.294   6.477 -0.8769  0.7556 -0.4168
   29MOL0     O 3804   1.469   5.323   6.585  0.7598 -0.2408 -0.7355
   29MOL0     C 3805   1.408   5.452   6.596  0.0709  0.4426  0.7212
   29MOL0     C 3806   1.432   5.533   6.701  0.1391  1.1753  0.3071
   29MOL0     C 3807   1.381   5.665   6.698 -0.1195 -0.0769  0.2749
   29MOL0     C 3808   1.323   5.721   6.587 -0.2461 -0.1546  0.4292
   29MOL0     C 3809   1.263   5.857   6.592  0.3173  0.0373 -1.5402
   29MOL0     O 3810   1.286   5.931   6.707 -0.4673 -0.0848 -0.6568
   29MOL0     C 3811   1.228   6.060   6.721  0.3537  0.7805 -0.4480
   29MOL0     C 3812   1.220   6.159   6.625  0.1535 -0.0911  0.5564
   29MOL0     C 3813   1.169   6.284   6.656  0.0989  0.0465 -0.6263
   29MOL0     C 3814   1.140   6.319   6.791  0.2093  0.0372  0.7836
   29MOL0     O 3815   1.088   6.438   6.832  0.7539 -0.3661  0.0128
   29MOL0     C 3816   1.028   6.534   6.748  0.4420 -0.0057 -0.1742
   29MOL0     C 3817   0.894   6.485   6.701  0.0695 -0.4461 -0.5449
   29MOL0     C 3818   0.836   6.578   6.595 -0.2161 -0.0770 -0.4849
   29MOL0     C 3819   0.729   6.515   6.503  0.4585  0.1989  0.3514
   29MOL0     C 3820   0.709   6.608   6.379  0.4299  0.3592 -0.2158
   29MOL0     C 3821   0.591   6.545   6.304 -0.4144  1.2981 -0.0031
   29MOL0     C 3822   0.575   6.615   6.168 -0.4681 -0.0975 -0.0334
   29MOL0     C 3823   0.494   6.741   6.196  0.2623 -0.1648 -0.8275
   29MOL0    Cl 3824   0.308   6.706   6.207 -0.1788 -0.2710 -0.1957
   29MOL0     C 3825   1.156   6.219   6.886  0.6431  0.8793 -0.3706
   29MOL0     C 3826   1.189   6.089   6.853 -0.2528  0.1930  0.9125
   29MOL0     O 3827   1.180   5.890   6.511  0.0433 -0.1226  0.2238
   29MOL0     C 3828   1.318   5.644   6.474 -0.6948 -0.4122  0.9972
   29MOL0     C 3829   1.358   5.512   6.478  1.0662  0.5341 -0.1323
   29MOL0     N 3830   1.789   4.899   6.301  0.7471 -0.1182 -0.4656
   29MOL0     N 3831   1.790   4.787   6.363 -0.5084 -0.5843  0.7106
   29MOL0     C 3832   1.521   4.278   6.684  0.0088  0.3149  0.2619
   29MOL0     C 3833   1.547   4.315   6.821  0.1258  0.1489  0.6187
   29MOL0     C 3834   1.696   4.255   7.235 -0.0002  0.6210 -0.4925
   29MOL0     C 3835   1.829   4.207   7.245  0.5252 -0.6881  1.1504
   29MOL0     C 3836   1.896   4.204   7.367 -0.1770 -0.0299 -0.3733
   29MOL0     C 3837   1.850   4.255   7.487  0.0720 -0.4506 -0.6695
   29MOL0     O 3838   1.930   4.268   7.594 -0.7048  0.4139  0.6300
   29MOL0     C 3839   1.875   4.277   7.728 -0.1451  0.2343 -0.5140
   29MOL0     C 3840   1.877   4.425   7.781  0.4796 -0.8001  0.1204
   29MOL0     C 3841   2.012   4.492   7.815 -0.6792 -0.0990 -0.1674
   29MOL0     C 3842   1.965   4.634   7.857  0.7126  0.2582 -0.5268
   29MOL0     C 3843   2.063   4.737   7.887  0.4464  0.4355  0.3143
   29MOL0     C 3844   2.166   4.792   7.925  0.4966  1.0500 -0.5728
   29MOL0     C 3845   1.712   4.296   7.479  0.0041 -0.0975  0.7514
   29MOL0     C 3846   1.643   4.305   7.353 -0.1964 -0.0135 -0.4210
   29MOL0     C 3847   1.518   4.390   7.348  1.3456  0.7788 -0.5874
   29MOL0     H 3848   1.863   4.197   6.849 -1.7936 -2.5395  1.2768
   29MOL0     H 3849   1.814   4.131   6.609  0.2474  2.1807 -1.4851
   29MOL0     H 3850   1.749   4.102   6.409 -0.9239  2.0764  1.9861
   29MOL0     H 3851   1.628   3.985   6.469  1.6375  0.6438  1.5452
   29MOL0     H 3852   1.482   4.031   6.259  0.4044 -2.8524 -2.7940
   29MOL0     H 3853   1.630   3.960   6.226 -0.1577 -0.7952  1.5644
   29MOL0     H 3854   1.673   4.154   6.097  0.9739 -0.4888  1.3304
   29MOL0     H 3855   1.683   4.245   6.244  1.9504 -1.9576 -0.7839
   29MOL0     H 3856   1.425   4.224   6.079  0.0273  1.3360 -0.7187
   29MOL0     H 3857   1.421   4.273   6.247  2.3644 -0.9771  2.5560
   29MOL0     H 3858   1.620   4.405   6.065 -0.0123 -2.9994  2.0947
   29MOL0     H 3859   1.447   4.445   6.039  0.7341  4.3647  1.1970
   29MOL0     H 3860   1.513   4.617   6.174  0.2830 -0.0866  1.1715
   29MOL0     H 3861   1.428   4.511   6.266  0.2737  1.4916 -0.1578
   29MOL0     H 3862   1.725   4.505   6.272 -0.1910 -0.9652  0.6819
   29MOL0     H 3863   1.620   4.404   6.370 -0.4919 -0.8501 -2.6740
   29MOL0     H 3864   1.528   4.602   6.477 -0.2432  1.9994  2.0250
   29MOL0     H 3865   1.705   4.582   6.503 -1.3130 -1.2236 -0.5197
   29MOL0     H 3866   1.468   4.815   6.301  0.6870  0.0788  0.1228
   29MOL0     H 3867   1.641   5.038   6.086  1.1490  0.2923  0.9316
   29MOL0     H 3868   1.487   5.026   6.182 -1.2099  2.7545  2.3000
   29MOL0     H 3869   1.720   5.163   6.299  0.9730  0.7707 -2.0588
   29MOL0     H 3870   1.631   5.250   6.177  2.0485 -1.4829 -1.3225
   29MOL0     H 3871   1.455   5.124   6.400 -1.3009  0.1835  0.8251
   29MOL0     H 3872   1.428   5.263   6.300 -0.4942 -2.8101 -1.3939
   29MOL0     H 3873   1.620   5.382   6.446  2.2801 -0.8511  0.4559
   29MOL0     H 3874   1.645   5.234   6.518 -2.7068 -2.3741 -0.9823
   29MOL0     H 3875   1.490   5.508   6.789  0.4971 -0.1023 -0.2632
   29MOL0     H 3876   1.393   5.715   6.793 -1.7732  3.2306 -1.1091
   29MOL0     H 3877   1.247   6.120   6.527 -3.2678  0.1330 -0.6477
   29MOL0     H 3878   1.155   6.362   6.582  0.0560 -0.7317 -1.4559
   29MOL0     H 3879   1.036   6.636   6.785  2.2133 -0.5772  1.1865
   29MOL0     H 3880   1.094   6.534   6.661  0.0348 -1.5698 -0.5156
   29MOL0     H 3881   0.902   6.384   6.660  0.6540  0.5382 -3.0667
   29MOL0     H 3882   0.832   6.488   6.791 -0.2411 -1.2930 -0.7303
   29MOL0     H 3883   0.794   6.669   6.638  0.6040  0.6144 -1.1242
   29MOL0     H 3884   0.918   6.615   6.534 -1.2348  2.4934 -0.4289
   29MOL0     H 3885   0.639   6.492   6.560  0.0838  1.6041  0.3602
   29MOL0     H 3886   0.774   6.420   6.473 -0.2452 -0.7934  2.2805
   29MOL0     H 3887   0.807   6.600   6.332  0.4299 -0.2521 -0.1195
   29MOL0     H 3888   0.689   6.709   6.417  0.2094  0.2925 -0.1515
   29MOL0     H 3889   0.627   6.442   6.292  1.7431  1.7969  1.5914
   29MOL0     H 3890   0.492   6.540   6.351 -1.8497 -1.6659 -2.9416
   29MOL0     H 3891   0.521   6.551   6.097  1.1870 -1.8258  0.1859
   29MOL0     H 3892   0.669   6.623   6.113 -0.9718 -2.8302 -1.5131
   29MOL0     H 3893   0.529   6.774   6.294 -1.3991 -3.7609  1.1791
   29MOL0     H 3894   0.516   6.816   6.119 -2.3155  2.8267  1.1086
   29MOL0     H 3895   1.138   6.243   6.990  1.5420  1.6756 -0.3836
   29MOL0     H 3896   1.192   6.016   6.934 -2.8135 -1.7963 -0.6250
   29MOL0     H 3897   1.276   5.693   6.387 -0.3455  0.9004  1.5489
   29MOL0     H 3898   1.341   5.452   6.390  1.3752 -1.3615  1.0356
   29MOL0     H 3899   1.432   4.320   6.638  1.0298  3.4648  0.9170
   29MOL0     H 3900   1.468   4.373   6.869  0.2846  2.6678 -1.8930
   29MOL0     H 3901   1.889   4.168   7.164  3.1831  1.6947  1.8070
   29MOL0     H 3902   1.996   4.162   7.374 -1.3039 -2.6167  2.2174
   29MOL0     H 3903   1.930   4.218   7.802 -2.7348 -0.7920  0.6794
   29MOL0     H 3904   1.769   4.252   7.735 -0.9063  3.1618  0.0414
   29MOL0     H 3905   1.814   4.420   7.870  2.6914 -3.3248  1.6836
   29MOL0     H 3906   1.821   4.491   7.713  1.6982 -1.8559 -2.0138
   29MOL0     H 3907   2.078   4.491   7.728  1.2407 -0.0318  1.2332
   29MOL0     H 3908   2.070   4.449   7.897  0.7928  2.9500  0.5577
   29MOL0     H 3909   1.901   4.682   7.783 -1.7274  1.3490  2.0764
   29MOL0     H 3910   1.907   4.623   7.949  3.9249 -0.5919  1.5733
   29MOL0     H 3911   2.255   4.841   7.960 -0.2897  0.9630  1.7506
   29MOL0     H 3912   1.665   4.354   7.557 -3.1842 -0.2726 -0.8673
   29MOL0     H 3913   1.505   4.459   7.432 -4.9290 -0.3141 -0.2173
   29MOL0     H 3914   1.513   4.443   7.253 -2.4016  0.3047 -0.7840
   29MOL0     H 3915   1.428   4.328   7.348  0.6517  1.7675 -0.2079
   30MOL0     O 3916   5.616   5.014   2.928  1.8689 -0.3386  0.0900
   30MOL0     C 3917   5.601   4.993   2.806 -0.8187 -0.1164 -0.4275
   30MOL0     O 3918   5.506   4.906   2.753  0.5016 -0.4947  0.1772
   30MOL0     C 3919   5.433   4.814   2.829 -0.5919 -0.4712 -1.1993
   30MOL0     C 3920   5.505   4.721   2.904 -0.4143  0.0345 -0.5485
   30MOL0     C 3921   5.447   4.629   2.989  0.0575 -0.3907 -0.1678
   30MOL0     C 3922   5.308   4.634   3.009 -0.3274  0.2724 -0.6889
   30MOL0     O 3923   5.233   4.559   3.098  0.4002 -0.0051 -0.3119
   30MOL0     C 3924   5.286   4.437   3.155 -0.1167  0.5263 -0.6615
   30MOL0     C 3925   5.222   4.409   3.287 -0.1450 -0.6395 -0.2890
   30MOL0     C 3926   5.265   4.516   3.387 -0.0599 -0.6058  0.9919
   30MOL0     C 3927   5.206   4.479   3.529 -0.9677 -0.8149 -0.0707
   30MOL0     C 3928   5.214   4.592   3.632 -0.4012 -0.3208  0.7175
   30MOL0     C 3929   5.346   4.672   3.640 -0.8359  1.3117  0.1090
   30MOL0     C 3930   5.360   4.752   3.772  0.4931  0.2422 -0.6662
   30MOL0     C 3931   5.506   4.800   3.797  0.6655 -0.6138  0.3468
   30MOL0     N 3932   5.547   4.894   3.689  0.0626 -0.7465  0.5110
   30MOL0     C 3933   5.496   5.018   3.663  0.4606 -0.0816  0.0233
   30MOL0     C 3934   5.559   5.055   3.547  0.1859 -0.9113  0.2054
   30MOL0     C 3935   5.538   5.185   3.476 -0.4141 -0.1709 -0.4545
   30MOL0     C 3936   5.513   5.173   3.319 -0.5797  0.4855  0.2636
   30MOL0     C 3937   5.384   5.083   3.312  0.4852 -0.0204 -0.6219
   30MOL0     C 3938   5.347   5.027   3.170  0.8521  0.2511  0.0577
   30MOL0     O 3939   5.197   5.005   3.162  0.0940 -0.1105 -0.2583
   30MOL0     C 3940   5.122   5.107   3.111  0.9689 -0.4015  0.6083
   30MOL0     C 3941   4.992   5.073   3.082  0.1148 -0.0659 -0.2667
   30MOL0     C 3942   4.908   5.157   3.016  0.3116  0.6657 -0.7666
   30MOL0     C 3943   4.939   5.286   2.986  0.0007  0.1708 -0.9021
   30MOL0     C 3944   4.836   5.372   2.926 -0.0344  0.9582 -0.2239
   30MOL0     O 3945   4.708   5.333   2.942 -0.3652  0.4203  0.0170
   30MOL0     C 3946   4.611   5.431   2.932  0.5821  0.2112  0.0441
   30MOL0     C 3947   4.636   5.544   3.002 -0.6847 -0.2367  0.0088
   30MOL0     C 3948   4.530   5.637   3.004 -0.0684  0.1126  0.9748
   30MOL0     C 3949   4.407   5.614   2.931 -0.6301  0.7240  0.7381
   30MOL0     O 3950   4.297   5.695   2.943 -0.3156  0.1054  0.3175
   30MOL0     C 3951   4.310   5.825   3.011  0.2297  0.8462 -0.2672
   30MOL0     C 3952   4.379   5.934   2.928  0.2195 -0.2691 -0.2396
   30MOL0     C 3953   4.373   6.070   3.008 -0.3268  1.4033 -0.2970
   30MOL0     C 3954   4.496   6.094   3.104  0.9681  0.5771 -0.5486
   30MOL0     C 3955   4.452   6.201   3.211 -0.0279  0.7621  0.4892
   30MOL0     C 3956   4.577   6.224   3.302  0.6938  0.1364  1.1856
   30MOL0     C 3957   4.695   6.289   3.223  0.4152 -0.3870 -0.0495
   30MOL0     C 3958   4.819   6.304   3.309 -0.0561  0.2276  1.8100
   30MOL0    Cl 3959   4.755   6.411   3.436  0.0117 -0.1456 -0.3489
   30MOL0     C 3960   4.393   5.496   2.859 -0.2234 -0.0566  0.2519
   30MOL0     C 3961   4.493   5.402   2.871 -0.2302  1.0037 -0.6865
   30MOL0     O 3962   4.881   5.458   2.850  0.9308  0.3421  0.2411
   30MOL0     C 3963   5.065   5.332   3.022  0.2566  0.3975 -0.6810
   30MOL0     C 3964   5.157   5.243   3.086  0.1997 -0.2069 -0.2542
   30MOL0     N 3965   5.655   4.961   3.506  0.2003  0.1928 -0.8580
   30MOL0     N 3966   5.646   4.864   3.594  0.0126 -0.0502 -0.0684
   30MOL0     C 3967   5.236   4.734   2.944  0.2277  0.3182 -0.6328
   30MOL0     C 3968   5.293   4.820   2.849 -0.4014 -0.9195 -0.1807
   30MOL0     C 3969   5.689   5.062   2.703 -0.0132  0.4731 -0.8913
   30MOL0     C 3970   5.655   5.047   2.565 -0.6481 -0.3537  0.1812
   30MOL0     C 3971   5.742   5.094   2.473  1.3180  0.9034  0.5182
   30MOL0     C 3972   5.852   5.172   2.498  0.0414 -0.2430 -0.6620
   30MOL0     O 3973   5.952   5.233   2.427  0.1981  0.9802 -0.6274
   30MOL0     C 3974   5.947   5.236   2.284 -0.2502  0.4485  0.6102
   30MOL0     C 3975   5.848   5.344   2.236 -0.3648 -1.1380 -0.2973
   30MOL0     C 3976   5.891   5.485   2.299 -0.3691 -0.2199 -0.1790
   30MOL0     C 3977   5.802   5.594   2.239 -0.3574  0.5048  0.3923
   30MOL0     C 3978   5.800   5.717   2.319 -0.5064  0.4313 -1.6144
   30MOL0     C 3979   5.821   5.826   2.372 -0.7235  0.3888  0.8336
   30MOL0     C 3980   5.867   5.202   2.635 -0.5031  0.3703  0.0289
   30MOL0     C 3981   5.783   5.156   2.733  0.2181 -0.2654 -0.3144
   30MOL0     C 3982   5.836   5.169   2.874 -0.2520 -1.1329  0.4867
   30MOL0     H 3983   5.613   4.729   2.902 -0.3194 -1.1141 -0.6608
   30MOL0     H 3984   5.516   4.562   3.040  4.2992  2.1381 -2.0400
   30MOL0     H 3985   5.262   4.354   3.089 -2.9816  1.2800 -0.7133
   30MOL0     H 3986   5.394   4.448   3.165  0.3943 -1.9877 -2.7057
   30MOL0     H 3987   5.252   4.309   3.321 -0.3370 -0.6859 -0.2593
   30MOL0     H 3988   5.113   4.408   3.286 -0.2852  2.9884 -0.0115
   30MOL0     H 3989   5.209   4.607   3.367 -0.3126 -0.1933  3.2385
   30MOL0     H 3990   5.372   4.537   3.395  0.0544  0.4875 -2.2595
   30MOL0     H 3991   5.104   4.445   3.510 -0.0843 -2.7387 -1.6941
   30MOL0     H 3992   5.257   4.392   3.570  1.9779  0.8203  0.0300
   30MOL0     H 3993   5.134   4.664   3.612 -1.0722 -1.3884 -0.6066
   30MOL0     H 3994   5.209   4.556   3.735  1.5924  1.9881  1.7089
   30MOL0     H 3995   5.436   4.611   3.644  0.3518  3.0647  1.1696
   30MOL0     H 3996   5.346   4.733   3.549 -0.6369  0.5131 -0.4279
   30MOL0     H 3997   5.332   4.698   3.863 -2.1854  0.6695 -1.1563
   30MOL0     H 3998   5.307   4.846   3.759  3.4981  2.5548  2.1015
   30MOL0     H 3999   5.504   4.859   3.889  0.6376  1.5628 -0.9763
   30MOL0     H 4000   5.578   4.720   3.819  0.4677 -0.4939  1.4606
   30MOL0     H 4001   5.423   5.070   3.724  0.5177  0.4348 -0.3361
   30MOL0     H 4002   5.456   5.242   3.521  1.4884  1.5148  1.0770
   30MOL0     H 4003   5.626   5.241   3.510 -0.0150 -2.2254  2.2253
   30MOL0     H 4004   5.499   5.273   3.278  0.5686  0.9069  0.8444
   30MOL0     H 4005   5.601   5.136   3.265 -1.5288 -1.1777 -0.2068
   30MOL0     H 4006   5.305   5.153   3.340  3.0066  1.9327  2.3354
   30MOL0     H 4007   5.381   4.996   3.377 -0.5284  0.5553  0.1188
   30MOL0     H 4008   5.395   4.932   3.146 -0.3199  0.0801 -1.8628
   30MOL0     H 4009   5.379   5.094   3.090 -0.4832  1.1717  0.2532
   30MOL0     H 4010   4.965   4.969   3.098 -1.3466  0.2457 -0.6085
   30MOL0     H 4011   4.808   5.130   2.984 -0.7900  1.2261  1.9595
   30MOL0     H 4012   4.728   5.562   3.057 -1.4869  1.1460  0.9697
   30MOL0     H 4013   4.543   5.732   3.055 -0.1038  1.2294 -1.0019
   30MOL0     H 4014   4.204   5.853   3.019 -0.0120  0.0314 -0.4569
   30MOL0     H 4015   4.352   5.808   3.110  1.6760  1.0557 -0.8290
   30MOL0     H 4016   4.477   5.902   2.891 -0.2990 -2.8540  0.4200
   30MOL0     H 4017   4.316   5.952   2.841  1.5681  4.6124 -0.4931
   30MOL0     H 4018   4.384   6.147   2.932  1.7103 -1.6774 -3.4374
   30MOL0     H 4019   4.278   6.079   3.061 -1.6252 -1.6591 -1.8559
   30MOL0     H 4020   4.577   6.131   3.040  1.9987  1.4401  1.1801
   30MOL0     H 4021   4.520   5.994   3.140  3.1640 -0.6531 -4.7552
   30MOL0     H 4022   4.363   6.166   3.265 -0.9788 -0.1055 -1.5221
   30MOL0     H 4023   4.427   6.294   3.158  1.7790 -0.1683 -2.2051
   30MOL0     H 4024   4.542   6.286   3.385 -2.4938  0.4508 -0.2548
   30MOL0     H 4025   4.596   6.128   3.349  0.1426 -0.1479  0.8376
   30MOL0     H 4026   4.668   6.387   3.182  1.0407  0.4629  1.4761
   30MOL0     H 4027   4.717   6.223   3.139 -0.7529  1.7178 -2.1236
   30MOL0     H 4028   4.842   6.206   3.351  0.1528 -0.1766  0.7851
   30MOL0     H 4029   4.903   6.350   3.257 -2.9690  0.5996 -3.1725
   30MOL0     H 4030   4.300   5.474   2.808  0.5015 -0.3179 -1.0051
   30MOL0     H 4031   4.468   5.303   2.835 -2.1673  0.7095  1.2338
   30MOL0     H 4032   5.114   5.425   2.995  3.8011 -1.0490  0.1344
   30MOL0     H 4033   5.257   5.277   3.111  1.0613 -0.6178 -2.8479
   30MOL0     H 4034   5.133   4.744   2.978  0.5091 -1.2572  0.8076
   30MOL0     H 4035   5.251   4.903   2.792  4.2289  1.3322 -0.7443
   30MOL0     H 4036   5.577   4.982   2.525  0.5997 -0.0923 -2.9869
   30MOL0     H 4037   5.717   5.071   2.370 -0.8532 -0.6406  1.3390
   30MOL0     H 4038   5.932   5.134   2.246 -2.0319  0.4319  1.2397
   30MOL0     H 4039   6.045   5.255   2.240  1.6064  0.8549  4.5020
   30MOL0     H 4040   5.748   5.314   2.270  0.8126 -1.6288  3.0695
   30MOL0     H 4041   5.855   5.352   2.127  0.5690  0.7410 -0.1301
   30MOL0     H 4042   5.995   5.507   2.275  0.0483  0.2763  1.9187
   30MOL0     H 4043   5.877   5.473   2.407 -0.9980 -1.9366 -0.4081
   30MOL0     H 4044   5.838   5.617   2.138  0.5561 -0.4772  0.4699
   30MOL0     H 4045   5.697   5.566   2.251 -0.6814  2.6402  4.1535
   30MOL0     H 4046   5.811   5.925   2.411  0.7345  0.8342  0.1266
   30MOL0     H 4047   5.945   5.274   2.659  0.0540  0.4530 -1.9039
   30MOL0     H 4048   5.940   5.203   2.868 -1.7008  3.9924 -3.2467
   30MOL0     H 4049   5.783   5.249   2.927 -0.3848 -0.0685 -1.1789
   30MOL0     H 4050   5.840   5.071   2.922  1.8382 -0.2737  2.2372
   31MOL0     O 4051   7.701   2.602  11.183  0.0043 -0.7943 -0.3262
   31MOL0     C 4052   7.677   2.551  11.295  0.0838 -0.1665  0.0258
   31MOL0     O 4053   7.566   2.569  11.369 -0.0929  0.2511  0.0901
   31MOL0     C 4054   7.436   2.570  11.308 -0.1921 -0.3230 -0.0897
   31MOL0     C 4055   7.402   2.559  11.177  0.3597  0.1465 -0.2021
   31MOL0     C 4056   7.268   2.575  11.134  0.6990  0.4865  0.4879
   31MOL0     C 4057   7.171   2.595  11.230  0.3274 -0.3639  0.3737
   31MOL0     O 4058   7.039   2.619  11.191  0.0143  0.1587  0.0143
   31MOL0     C 4059   6.985   2.556  11.069 -0.4231 -0.0216  0.7153
   31MOL0     C 4060   6.974   2.650  10.949  0.6882  0.6482 -0.1811
   31MOL0     C 4061   6.891   2.782  10.980 -0.2288  0.4524 -0.0113
   31MOL0     C 4062   6.806   2.844  10.861 -0.2770  0.9322 -0.9057
   31MOL0     C 4063   6.907   2.899  10.756 -0.0177  0.6334  0.5753
   31MOL0     C 4064   6.847   3.033  10.697  0.5717  0.0590  0.2623
   31MOL0     C 4065   6.802   3.145  10.797 -0.9136 -0.3355 -0.5595
   31MOL0     C 4066   6.913   3.170  10.895  0.8679 -0.1081 -0.6250
   31MOL0     N 4067   6.877   3.290  10.975  0.1121 -0.5149 -0.1723
   31MOL0     C 4068   6.802   3.284  11.089  0.1104 -0.5632  0.0205
   31MOL0     C 4069   6.787   3.413  11.117 -1.3430  0.0934 -1.0265
   31MOL0     C 4070   6.691   3.471  11.224 -1.2670 -0.3621  1.0835
   31MOL0     C 4071   6.547   3.429  11.207 -0.3300 -0.6390  0.1800
   31MOL0     C 4072   6.458   3.516  11.290  0.2353  0.0676  0.0183
   31MOL0     C 4073   6.446   3.660  11.244  0.9554  0.5264 -0.1365
   31MOL0     O 4074   6.513   3.756  11.330 -0.6757  0.8073  0.3494
   31MOL0     C 4075   6.446   3.784  11.453 -0.1327  0.2831  1.0161
   31MOL0     C 4076   6.485   3.902  11.515  0.5721  0.7045  0.1802
   31MOL0     C 4077   6.441   3.938  11.644  0.2774  0.3676 -0.6450
   31MOL0     C 4078   6.357   3.854  11.715 -0.5308  0.5857 -0.3602
   31MOL0     C 4079   6.300   3.902  11.838 -0.4191  0.4389 -0.2989
   31MOL0     O 4080   6.356   4.005  11.907  0.0289 -0.0120  0.3738
   31MOL0     C 4081   6.283   4.062  12.008  0.1233 -0.1302 -0.1451
   31MOL0     C 4082   6.250   4.007  12.136  0.2999  0.7166  0.1735
   31MOL0     C 4083   6.160   4.082  12.218  0.2700  0.3974 -0.4750
   31MOL0     C 4084   6.110   4.216  12.182  0.3827  0.2986 -0.0152
   31MOL0     O 4085   6.013   4.288  12.239 -0.7908 -0.1273 -0.7759
   31MOL0     C 4086   6.002   4.275  12.385 -0.4921  0.0858  0.4731
   31MOL0     C 4087   5.926   4.388  12.460 -0.4187  0.4013  0.4321
   31MOL0     C 4088   5.779   4.361  12.438  0.4453  0.3955 -0.4253
   31MOL0     C 4089   5.679   4.444  12.505 -0.8981 -0.3988 -0.0690
   31MOL0     C 4090   5.693   4.595  12.530 -0.7261  0.1878  0.3154
   31MOL0     C 4091   5.716   4.697  12.412 -0.1600  0.1184 -0.0927
   31MOL0     C 4092   5.630   4.650  12.291  0.3377 -0.0063 -0.8246
   31MOL0     C 4093   5.602   4.763  12.182 -0.4271  0.2591 -0.8024
   31MOL0    Cl 4094   5.482   4.885  12.253 -0.0050  0.1810 -0.4392
   31MOL0     C 4095   6.159   4.264  12.064 -0.7293 -0.3558  0.3730
   31MOL0     C 4096   6.231   4.182  11.973 -0.7194 -0.0756 -0.4015
   31MOL0     O 4097   6.201   3.843  11.875  0.4518 -0.4301 -0.3827
   31MOL0     C 4098   6.307   3.732  11.652 -0.4549 -0.4568 -0.5460
   31MOL0     C 4099   6.351   3.700  11.519  0.8951 -1.0673  0.3228
   31MOL0     N 4100   6.866   3.490  11.036 -1.1401  1.1507  0.2397
   31MOL0     N 4101   6.914   3.411  10.942  0.9310 -0.9902  0.0860
   31MOL0     C 4102   7.202   2.613  11.365 -0.5362 -0.9346  0.5949
   31MOL0     C 4103   7.337   2.593  11.404  0.2756 -0.5881 -0.8045
   31MOL0     C 4104   7.776   2.462  11.353 -0.6426 -0.1744 -0.0307
   31MOL0     C 4105   7.739   2.386  11.473  0.6838 -0.7185 -0.0117
   31MOL0     C 4106   7.827   2.293  11.528 -0.6591 -0.8362  0.3881
   31MOL0     C 4107   7.951   2.266  11.475  0.3894 -0.5896  1.3179
   31MOL0     O 4108   8.040   2.192  11.541  0.3530  0.2940 -0.1193
   31MOL0     C 4109   8.138   2.278  11.601  0.2996  0.1057 -1.8779
   31MOL0     C 4110   8.214   2.206  11.714  0.4043  0.6734  0.8703
   31MOL0     C 4111   8.129   2.134  11.817 -0.3615 -0.6303 -0.9137
   31MOL0     C 4112   8.067   2.231  11.924 -0.1363  0.6518  0.6546
   31MOL0     C 4113   8.163   2.324  12.001  1.2108  1.0381  0.1756
   31MOL0     C 4114   8.233   2.377  12.082  0.0407 -0.0051 -0.3260
   31MOL0     C 4115   7.975   2.331  11.355  0.4862  0.0156 -0.0308
   31MOL0     C 4116   7.894   2.428  11.287 -0.4437 -0.4464 -0.7726
   31MOL0     C 4117   7.943   2.494  11.156  0.2721  0.0109 -0.6517
   31MOL0     H 4118   7.475   2.527  11.103 -0.7237 -1.3306 -0.6771
   31MOL0     H 4119   7.248   2.570  11.027 -1.6073 -1.5783  0.9007
   31MOL0     H 4120   7.030   2.462  11.036 -1.5744  0.4589 -2.5770
   31MOL0     H 4121   6.881   2.535  11.096  0.2892 -3.1000  1.4291
   31MOL0     H 4122   6.933   2.595  10.864 -0.5424  0.3319  0.6018
   31MOL0     H 4123   7.072   2.693  10.925  0.4798  0.4115 -1.5216
   31MOL0     H 4124   6.958   2.854  11.028  1.9901 -1.6677  0.3157
   31MOL0     H 4125   6.811   2.755  11.050  0.7823  0.2829  1.1263
   31MOL0     H 4126   6.732   2.772  10.825  0.3439 -1.1612  1.6710
   31MOL0     H 4127   6.743   2.918  10.912  0.1828  0.0280  1.1113
   31MOL0     H 4128   7.006   2.916  10.800 -0.3239  0.6028  1.2987
   31MOL0     H 4129   6.919   2.826  10.675 -3.4783  1.3636 -0.7507
   31MOL0     H 4130   6.917   3.079  10.627 -0.6252 -2.6450 -2.9851
   31MOL0     H 4131   6.759   3.015  10.635  0.9826  0.5805 -0.4870
   31MOL0     H 4132   6.711   3.117  10.851 -0.8001  0.1938 -0.0862
   31MOL0     H 4133   6.788   3.238  10.742  0.8003 -0.0230 -0.5247
   31MOL0     H 4134   6.935   3.079  10.951  2.5838  0.6613  0.0104
   31MOL0     H 4135   7.004   3.186  10.836  1.0298 -1.8471 -0.9105
   31MOL0     H 4136   6.753   3.201  11.140  1.4307 -0.7283  1.0892
   31MOL0     H 4137   6.720   3.440  11.325 -3.4148 -0.6649  1.6619
   31MOL0     H 4138   6.701   3.579  11.210 -0.2176 -0.4719  0.8431
   31MOL0     H 4139   6.520   3.433  11.101 -4.9229 -0.0196  1.1618
   31MOL0     H 4140   6.538   3.326  11.243  2.1040 -2.3726 -3.4126
   31MOL0     H 4141   6.511   3.512  11.385 -3.5551 -4.4450  2.3917
   31MOL0     H 4142   6.359   3.473  11.309  0.0019  0.5679 -0.0592
   31MOL0     H 4143   6.350   3.698  11.209  0.6523  2.0634  2.1761
   31MOL0     H 4144   6.501   3.666  11.149  1.6149 -1.1111  0.1102
   31MOL0     H 4145   6.533   3.974  11.450 -0.5794  0.5001 -0.9396
   31MOL0     H 4146   6.478   4.034  11.678  1.7164 -0.7254  1.0889
   31MOL0     H 4147   6.290   3.912  12.171 -2.0038 -0.0640  0.8583
   31MOL0     H 4148   6.124   4.051  12.316 -0.4673  0.6732 -0.6452
   31MOL0     H 4149   5.972   4.179  12.428  2.9100  0.5277  4.5275
   31MOL0     H 4150   6.097   4.293  12.438 -0.1049  1.0806 -0.5191
   31MOL0     H 4151   5.962   4.405  12.562  1.0654  3.3635 -0.4889
   31MOL0     H 4152   5.942   4.476  12.398 -4.1213  0.5729 -0.4858
   31MOL0     H 4153   5.752   4.357  12.332 -1.5456 -0.0504  0.0515
   31MOL0     H 4154   5.750   4.263  12.478 -2.5339  0.0675 -2.9255
   31MOL0     H 4155   5.658   4.404  12.605 -2.4630  0.5489  0.0153
   31MOL0     H 4156   5.587   4.430  12.447 -0.6669  2.3072 -1.2565
   31MOL0     H 4157   5.771   4.618  12.604  0.2005  1.6965 -1.0579
   31MOL0     H 4158   5.607   4.631  12.587 -0.2317  2.2936 -0.1793
   31MOL0     H 4159   5.709   4.804  12.433  0.8967  0.4403 -1.2392
   31MOL0     H 4160   5.818   4.687  12.375 -0.1044  3.0617 -0.9483
   31MOL0     H 4161   5.533   4.617  12.329  0.4425  0.2059 -0.3672
   31MOL0     H 4162   5.684   4.565  12.246 -0.1818  0.1781 -1.8202
   31MOL0     H 4163   5.697   4.817  12.170 -0.2363 -0.1907 -1.3327
   31MOL0     H 4164   5.558   4.727  12.088  1.8672 -1.3425 -1.3507
   31MOL0     H 4165   6.126   4.365  12.040  1.4688  0.0334 -1.3745
   31MOL0     H 4166   6.254   4.225  11.876  0.9256  2.9245  1.1594
   31MOL0     H 4167   6.238   3.672  11.710  0.8646  1.3819  3.2881
   31MOL0     H 4168   6.329   3.599  11.486  0.2928 -1.1166  0.8583
   31MOL0     H 4169   7.135   2.646  11.443  0.3871 -1.3719  1.6033
   31MOL0     H 4170   7.363   2.592  11.509  1.2053 -1.4984 -1.0203
   31MOL0     H 4171   7.640   2.393  11.516  1.6895  3.9826  2.2028
   31MOL0     H 4172   7.795   2.238  11.616 -3.9573  2.4716  1.4878
   31MOL0     H 4173   8.082   2.359  11.649 -0.5688 -1.2507 -0.4921
   31MOL0     H 4174   8.201   2.317  11.521  0.4662  1.5343 -1.0733
   31MOL0     H 4175   8.284   2.272  11.765  0.7755 -1.2245  2.9999
   31MOL0     H 4176   8.267   2.120  11.672  2.2195  0.3677  3.5492
   31MOL0     H 4177   8.193   2.057  11.862 -0.1159 -0.2540 -0.6113
   31MOL0     H 4178   8.039   2.096  11.768 -3.0708  0.5673  2.7444
   31MOL0     H 4179   8.014   2.298  11.856  0.8768 -0.0885 -0.9359
   31MOL0     H 4180   7.991   2.186  11.988  2.6197 -0.4466  3.3880
   31MOL0     H 4181   8.296   2.424  12.155 -1.4374 -0.5794  1.3866
   31MOL0     H 4182   8.066   2.314  11.298  0.4043  1.0999 -0.4966
   31MOL0     H 4183   7.878   2.463  11.074 -3.2057  1.4567  1.3463
   31MOL0     H 4184   7.949   2.603  11.164 -0.5068 -0.0792  2.2214
   31MOL0     H 4185   8.044   2.455  11.139  1.2663  1.0326  2.1918
   32MOL0     O 4186   3.064   0.335   8.866  0.2975  0.5704 -0.1332
   32MOL0     C 4187   3.133   0.276   8.785  0.2785  1.0243 -0.8637
   32MOL0     O 4188   3.083   0.193   8.694 -0.2145 -0.6869 -0.0798
   32MOL0     C 4189   2.951   0.198   8.673  0.5114  0.6365 -0.3158
   32MOL0     C 4190   2.862   0.150   8.773 -0.0109 -0.1807 -0.7052
   32MOL0     C 4191   2.729   0.116   8.735 -0.2783 -0.5096 -0.3055
   32MOL0     C 4192   2.671   0.147   8.615 -0.8185 -0.2511 -1.0841
   32MOL0     O 4193   2.537   0.128   8.601  0.4709  0.6551 -0.4480
   32MOL0     C 4194   2.460   0.210   8.513  0.5128  0.3338  0.5141
   32MOL0     C 4195   2.467   0.116   8.385 -0.1487 -0.9771  0.0691
   32MOL0     C 4196   2.397  -0.012   8.372  1.0421 -0.1540  0.8981
   32MOL0     C 4197   2.242   0.008   8.365 -0.1005 -0.5796  0.4201
   32MOL0     C 4198   2.171  -0.123   8.315  0.0976  0.3294  0.1971
   32MOL0     C 4199   2.026  -0.108   8.300 -0.2379 -0.0793  0.9792
   32MOL0     C 4200   1.955  -0.238   8.252 -1.0564 -0.2369 -0.1963
   32MOL0     C 4201   1.804  -0.225   8.233 -0.2498  0.5197 -0.0977
   32MOL0     N 4202   1.750  -0.369   8.222 -0.2578 -0.0333  0.7041
   32MOL0     C 4203   1.733  -0.462   8.328  0.0493 -0.7975 -1.2262
   32MOL0     C 4204   1.645  -0.549   8.276  0.0132  0.3847 -0.7589
   32MOL0     C 4205   1.572  -0.664   8.346 -0.5119  0.3655 -0.0437
   32MOL0     C 4206   1.450  -0.629   8.441 -0.5430 -0.2027  0.1450
   32MOL0     C 4207   1.380  -0.754   8.495  0.9752 -0.2204  0.0551
   32MOL0     C 4208   1.316  -0.740   8.630 -0.3639  0.2606 -0.1953
   32MOL0     O 4209   1.233  -0.622   8.656  0.1208  0.0712  0.8249
   32MOL0     C 4210   1.114  -0.609   8.577 -0.4939 -0.0068  0.0630
   32MOL0     C 4211   1.026  -0.508   8.611  0.5720  0.0499 -0.1973
   32MOL0     C 4212   0.907  -0.479   8.536 -0.7175 -0.8303 -0.3076
   32MOL0     C 4213   0.878  -0.552   8.424 -0.0321  0.6249 -0.3300
   32MOL0     C 4214   0.771  -0.498   8.342  0.5230  0.9127  0.5200
   32MOL0     O 4215   0.746  -0.366   8.339  0.4422 -0.0989  0.5423
   32MOL0     C 4216   0.634  -0.319   8.283  1.1014  0.4809  0.0853
   32MOL0     C 4217   0.628  -0.253   8.160 -0.0994 -0.5980 -0.5814
   32MOL0     C 4218   0.507  -0.199   8.113  0.1963  0.1946 -0.0823
   32MOL0     C 4219   0.386  -0.225   8.178  0.0993 -0.6318  0.8530
   32MOL0     O 4220   0.268  -0.167   8.138  0.1088  0.6072  0.0968
   32MOL0     C 4221   0.240  -0.141   8.001  0.0825  0.6012 -0.7780
   32MOL0     C 4222   0.089  -0.157   8.003  0.0341  0.7057  0.1497
   32MOL0     C 4223   0.033  -0.113   7.863 -0.3057 -0.3748  0.0824
   32MOL0     C 4224  -0.122  -0.121   7.865  0.4063 -1.1083  0.8837
   32MOL0     C 4225  -0.195  -0.096   7.729  0.4755 -0.5937 -0.4159
   32MOL0     C 4226  -0.182   0.040   7.668 -0.0438  0.1900 -0.7474
   32MOL0     C 4227  -0.229   0.063   7.516 -0.2639 -0.0150 -1.4357
   32MOL0     C 4228  -0.369   0.020   7.503 -0.3101 -0.1620 -0.7274
   32MOL0    Cl 4229  -0.491   0.113   7.599 -0.1982 -0.3456  0.1098
   32MOL0     C 4230   0.392  -0.300   8.296  0.4708  0.0356  0.0011
   32MOL0     C 4231   0.510  -0.340   8.354 -0.0134 -0.3632 -0.1020
   32MOL0     O 4232   0.709  -0.583   8.277 -0.4583 -0.0094 -0.0191
   32MOL0     C 4233   0.958  -0.654   8.385  0.1809 -0.0132 -0.5088
   32MOL0     C 4234   1.069  -0.691   8.466  0.1203 -0.0792  0.0828
   32MOL0     N 4235   1.624  -0.522   8.142  0.3268 -0.5416  0.0604
   32MOL0     N 4236   1.676  -0.407   8.113  0.3791  0.2579 -0.1512
   32MOL0     C 4237   2.755   0.207   8.530 -0.1289 -1.0957  0.1496
   32MOL0     C 4238   2.888   0.234   8.550 -0.3097  0.1014  0.3279
   32MOL0     C 4239   3.286   0.280   8.803  0.8584  0.6912 -0.9934
   32MOL0     C 4240   3.329   0.363   8.900 -0.4655  0.2232 -0.0977
   32MOL0     C 4241   3.469   0.387   8.917 -1.0171  0.3738  0.5309
   32MOL0     C 4242   3.568   0.303   8.859  0.4497 -0.0917  0.6222
   32MOL0     O 4243   3.705   0.316   8.867  0.6427 -0.1346 -0.3935
   32MOL0     C 4244   3.761   0.415   8.961 -0.0611  0.3363 -0.4286
   32MOL0     C 4245   3.798   0.351   9.089  0.1906 -0.1248  0.2625
   32MOL0     C 4246   3.684   0.311   9.188  0.9431  0.2945  0.4509
   32MOL0     C 4247   3.647   0.422   9.293  0.5788  0.0878 -0.6334
   32MOL0     C 4248   3.512   0.407   9.337  0.3539  0.0026  0.1630
   32MOL0     C 4249   3.397   0.378   9.378 -0.2564  0.2162 -0.5075
   32MOL0     C 4250   3.523   0.206   8.778  0.2952 -0.2484 -0.5819
   32MOL0     C 4251   3.390   0.197   8.741  0.4321 -0.1877  0.7238
   32MOL0     C 4252   3.349   0.099   8.633 -0.4148  0.3203  0.6441
   32MOL0     H 4253   2.901   0.128   8.872 -0.4660  2.9767  0.2784
   32MOL0     H 4254   2.674   0.074   8.819  0.5617 -1.5360 -0.2416
   32MOL0     H 4255   2.355   0.222   8.543  0.1214 -1.6554  0.1438
   32MOL0     H 4256   2.495   0.312   8.499 -3.3540  1.8787  0.7702
   32MOL0     H 4257   2.572   0.089   8.374 -0.5840 -1.4370 -4.7324
   32MOL0     H 4258   2.427   0.166   8.296 -1.4708 -2.9344 -0.5040
   32MOL0     H 4259   2.425  -0.071   8.461  2.6162  2.1101  2.0048
   32MOL0     H 4260   2.435  -0.059   8.281  0.2685  2.4536 -0.8773
   32MOL0     H 4261   2.207   0.046   8.461 -1.4493 -0.9256  0.0879
   32MOL0     H 4262   2.224   0.088   8.292 -0.7343  0.4766  1.7037
   32MOL0     H 4263   2.209  -0.152   8.217  2.9826  3.7096  0.1222
   32MOL0     H 4264   2.188  -0.206   8.384 -1.7830  1.6499  2.4012
   32MOL0     H 4265   1.984  -0.069   8.393 -0.6995  5.6948 -1.2043
   32MOL0     H 4266   2.019  -0.035   8.219 -0.8346 -3.2979 -2.1648
   32MOL0     H 4267   1.976  -0.325   8.315 -3.0665 -0.7308 -0.1444
   32MOL0     H 4268   2.004  -0.263   8.158 -3.1574 -0.2694 -1.3500
   32MOL0     H 4269   1.754  -0.176   8.317  0.2303 -1.5714  1.4831
   32MOL0     H 4270   1.791  -0.172   8.139  2.2956  0.5163 -0.5184
   32MOL0     H 4271   1.762  -0.452   8.432  2.3736 -1.5139 -1.7477
   32MOL0     H 4272   1.533  -0.732   8.271 -1.0552 -0.9292  1.3668
   32MOL0     H 4273   1.655  -0.708   8.402  0.6904  1.3364 -0.9970
   32MOL0     H 4274   1.478  -0.554   8.517 -2.3701 -0.5844  1.2719
   32MOL0     H 4275   1.372  -0.581   8.381 -1.6574 -3.7467 -1.5105
   32MOL0     H 4276   1.460  -0.829   8.498  1.4637 -0.1950 -4.6951
   32MOL0     H 4277   1.317  -0.802   8.419  0.9724 -1.3465  0.7344
   32MOL0     H 4278   1.409  -0.724   8.685  0.1685  0.2342 -1.0723
   32MOL0     H 4279   1.262  -0.831   8.659 -1.5951  0.5763 -1.3888
   32MOL0     H 4280   1.045  -0.439   8.692 -0.4003 -0.3653  0.3955
   32MOL0     H 4281   0.862  -0.383   8.560  0.1827  0.5247 -3.4467
   32MOL0     H 4282   0.727  -0.247   8.115  0.6394 -1.1029  0.8910
   32MOL0     H 4283   0.523  -0.137   8.026  1.0950 -0.6939 -0.5741
   32MOL0     H 4284   0.263  -0.038   7.974  0.0150  0.6198 -0.7631
   32MOL0     H 4285   0.288  -0.217   7.938  1.6287  1.6403 -0.8977
   32MOL0     H 4286   0.064  -0.261   8.026  1.3699  0.5977  1.2593
   32MOL0     H 4287   0.054  -0.089   8.081  0.5864  1.3545 -0.1601
   32MOL0     H 4288   0.079  -0.017   7.838  2.6952 -1.2066  1.7787
   32MOL0     H 4289   0.075  -0.182   7.789  1.4484 -0.5546  1.1677
   32MOL0     H 4290  -0.164  -0.056   7.943  0.0238  3.1373 -2.4640
   32MOL0     H 4291  -0.151  -0.220   7.901 -0.0090 -1.2414  0.2056
   32MOL0     H 4292  -0.301  -0.118   7.747  1.0766 -0.3591  4.5595
   32MOL0     H 4293  -0.153  -0.168   7.658 -0.2984  0.9851 -2.5980
   32MOL0     H 4294  -0.240   0.108   7.731  2.2057  1.3362  0.1926
   32MOL0     H 4295  -0.076   0.066   7.672  0.2576 -0.9506 -1.0327
   32MOL0     H 4296  -0.166   0.007   7.446  0.2721 -1.1355 -0.1040
   32MOL0     H 4297  -0.229   0.170   7.492  1.4361  0.5082  0.5180
   32MOL0     H 4298  -0.388   0.022   7.396  3.5608 -1.9556 -1.6148
   32MOL0     H 4299  -0.372  -0.089   7.519  0.2591 -0.3158 -1.6025
   32MOL0     H 4300   0.297  -0.323   8.345 -0.9061 -0.0703 -2.5436
   32MOL0     H 4301   0.519  -0.396   8.446  3.2595  1.1986  0.6651
   32MOL0     H 4302   0.938  -0.718   8.300 -0.0280 -1.5297  0.6347
   32MOL0     H 4303   1.115  -0.783   8.431  1.7931  0.2649  1.2613
   32MOL0     H 4304   2.706   0.238   8.438 -1.1112 -1.1106  0.6529
   32MOL0     H 4305   2.947   0.279   8.471  0.2546 -0.5121  0.3924
   32MOL0     H 4306   3.260   0.422   8.959  0.6519 -1.0764  2.6730
   32MOL0     H 4307   3.507   0.479   8.961 -0.0144  0.0847  0.2738
   32MOL0     H 4308   3.689   0.496   8.979 -1.8265 -1.0745 -0.7965
   32MOL0     H 4309   3.847   0.464   8.915 -1.7018  0.4794 -3.6600
   32MOL0     H 4310   3.872   0.414   9.140  1.8497  0.8210 -3.0254
   32MOL0     H 4311   3.842   0.251   9.080 -1.5483 -0.8971 -0.0557
   32MOL0     H 4312   3.716   0.222   9.242  1.8708  0.4890  0.2299
   32MOL0     H 4313   3.589   0.282   9.140 -0.8129  1.3991  3.0360
   32MOL0     H 4314   3.718   0.413   9.376  1.0799  0.5741 -1.0017
   32MOL0     H 4315   3.654   0.517   9.240 -2.1172 -0.2836 -1.7989
   32MOL0     H 4316   3.304   0.368   9.429 -2.0874  0.8761 -3.4775
   32MOL0     H 4317   3.589   0.134   8.730 -2.0253 -1.1028 -2.7722
   32MOL0     H 4318   3.293   0.015   8.676 -0.3873 -0.0835 -0.0923
   32MOL0     H 4319   3.288   0.149   8.557  0.0939 -1.1504 -0.7919
   32MOL0     H 4320   3.443   0.075   8.582  1.2464  0.3815  3.4937
   33MOL0     O 4321   2.642   7.186  10.880 -0.6432 -0.0772  0.9680
   33MOL0     C 4322   2.723   7.095  10.909  0.2597 -0.1344 -0.1835
   33MOL0     O 4323   2.847   7.110  10.962  0.2843 -0.4822 -0.1711
   33MOL0     C 4324   2.876   7.249  10.987 -0.9363  0.2633  0.4172
   33MOL0     C 4325   2.834   7.320  11.096  0.5010 -0.0311 -0.9045
   33MOL0     C 4326   2.881   7.450  11.119  0.7317  0.2188 -0.9776
   33MOL0     C 4327   2.971   7.508  11.038  0.7344 -1.1356  0.0082
   33MOL0     O 4328   3.000   7.642  11.058  0.6579  1.1108 -0.5840
   33MOL0     C 4329   3.134   7.697  11.081 -0.3482  0.5233  0.3269
   33MOL0     C 4330   3.134   7.849  11.072  0.1627  0.9832 -0.9914
   33MOL0     C 4331   3.054   7.904  10.951 -0.5274  0.3495  0.0901
   33MOL0     C 4332   3.062   8.056  10.956  0.1092 -0.5685  0.0980
   33MOL0     C 4333   2.938   8.108  11.024  0.3491 -0.4468  0.2397
   33MOL0     C 4334   2.944   8.267  11.023 -0.7402  0.2615 -0.6975
   33MOL0     C 4335   2.819   8.333  11.083  1.0091 -0.8517  0.0426
   33MOL0     C 4336   2.823   8.478  11.040 -0.2841  0.7358  0.5483
   33MOL0     N 4337   2.843   8.565  11.150 -0.1946  0.1525  0.1523
   33MOL0     C 4338   2.960   8.591  11.220  0.5606  0.2813 -0.6887
   33MOL0     C 4339   2.930   8.692  11.303  0.2391  0.2054 -0.4530
   33MOL0     C 4340   3.025   8.743  11.410  1.3297  0.8970  0.1458
   33MOL0     C 4341   3.105   8.864  11.364 -0.9045  0.5451  0.1836
   33MOL0     C 4342   3.210   8.903  11.465 -0.8763 -0.0981 -0.6094
   33MOL0     C 4343   3.299   9.022  11.410  0.1770 -0.7364 -0.1954
   33MOL0     O 4344   3.384   8.986  11.303 -0.0075  0.3554  1.0490
   33MOL0     C 4345   3.450   9.079  11.235  1.0176  0.5319 -0.6146
   33MOL0     C 4346   3.467   9.215  11.277  0.4462 -0.2766  0.6346
   33MOL0     C 4347   3.541   9.306  11.191  0.1842 -0.1069 -0.8746
   33MOL0     C 4348   3.590   9.268  11.074 -0.0137  0.4388  1.2710
   33MOL0     C 4349   3.650   9.367  10.989  0.3767  0.3622 -0.4379
   33MOL0     O 4350   3.690   9.318  10.864 -0.3069  1.6219  0.3991
   33MOL0     C 4351   3.767   9.390  10.776  0.4017 -0.2042 -1.1030
   33MOL0     C 4352   3.742   9.523  10.757 -0.3580 -0.8410  0.4214
   33MOL0     C 4353   3.815   9.598  10.662  0.7053  0.3775  0.9874
   33MOL0     C 4354   3.920   9.543  10.584 -0.0635  0.5262  0.9238
   33MOL0     O 4355   4.010   9.623  10.508  0.8978 -0.2601  0.7050
   33MOL0     C 4356   3.951   9.744  10.453 -0.4988 -0.9791  0.1318
   33MOL0     C 4357   4.055   9.814  10.360  0.6321  0.3927 -0.0328
   33MOL0     C 4358   4.014   9.957  10.321 -0.5418 -0.5176 -0.2449
   33MOL0     C 4359   3.897   9.971  10.222  0.3434 -1.3654 -1.5947
   33MOL0     C 4360   3.817  10.103  10.248 -1.3428 -0.3081  0.0744
   33MOL0     C 4361   3.916  10.236  10.246  1.2580  0.2516 -0.1244
   33MOL0     C 4362   3.852  10.364  10.310 -0.9847 -0.1715 -0.0418
   33MOL0     C 4363   3.743  10.403  10.219  0.2367  0.1385  0.8415
   33MOL0    Cl 4364   3.640  10.526  10.298  0.1414  0.2115 -0.2805
   33MOL0     C 4365   3.940   9.401  10.593 -0.0768  0.0363 -0.3002
   33MOL0     C 4366   3.861   9.330  10.686  0.3933 -0.2236  0.4931
   33MOL0     O 4367   3.642   9.483  11.021  0.9447  0.1492 -0.0378
   33MOL0     C 4368   3.574   9.131  11.031  1.6573  0.5093 -0.4562
   33MOL0     C 4369   3.504   9.036  11.112 -0.0349  0.1597  0.1653
   33MOL0     N 4370   2.794   8.712  11.297  0.9122  0.3689 -0.2622
   33MOL0     N 4371   2.748   8.644  11.196  0.8334  0.2571  0.6009
   33MOL0     C 4372   3.022   7.439  10.928  0.6186  0.3169  0.1752
   33MOL0     C 4373   2.967   7.317  10.904 -0.2876  0.7343  0.0286
   33MOL0     C 4374   2.676   6.954  10.890 -0.7444 -0.5785  0.2974
   33MOL0     C 4375   2.544   6.930  10.838 -0.6364  0.0982  0.4609
   33MOL0     C 4376   2.488   6.811  10.821  0.0412  0.1864 -0.1584
   33MOL0     C 4377   2.550   6.703  10.876  0.2777  0.0746  0.3618
   33MOL0     O 4378   2.505   6.580  10.847 -0.0567  0.1114  0.2771
   33MOL0     C 4379   2.563   6.469  10.918 -0.3102  0.1157 -0.4568
   33MOL0     C 4380   2.445   6.363  10.923  0.0699  0.3167 -0.3278
   33MOL0     C 4381   2.385   6.311  10.793 -0.7715  0.0494 -0.5645
   33MOL0     C 4382   2.495   6.255  10.698  0.2280 -0.4310 -0.4223
   33MOL0     C 4383   2.424   6.199  10.578 -0.3006  0.1678  1.6850
   33MOL0     C 4384   2.372   6.139  10.496 -0.0819  0.2620 -0.1192
   33MOL0     C 4385   2.682   6.716  10.923 -0.6294  0.2723  0.5313
   33MOL0     C 4386   2.749   6.840  10.936  0.1670  0.4174  0.2609
   33MOL0     C 4387   2.891   6.828  10.992  0.1564  0.0103 -0.5380
   33MOL0     H 4388   2.770   7.267  11.165  2.3102 -0.1080  0.8274
   33MOL0     H 4389   2.858   7.526  11.194  2.3311 -0.1417 -0.0767
   33MOL0     H 4390   3.168   7.670  11.181 -3.0054 -1.6325  0.7868
   33MOL0     H 4391   3.211   7.653  11.017 -0.7679  0.2198  0.0227
   33MOL0     H 4392   3.236   7.888  11.078 -0.0050  1.3505 -0.3195
   33MOL0     H 4393   3.082   7.895  11.158  2.1537 -1.5485  1.7868
   33MOL0     H 4394   2.953   7.863  10.945  0.0319 -0.9533 -1.2002
   33MOL0     H 4395   3.101   7.870  10.858 -0.8851 -1.3845  0.5010
   33MOL0     H 4396   3.145   8.108  11.006 -1.5511  2.3585  0.0615
   33MOL0     H 4397   3.073   8.089  10.852  0.5870 -1.0933 -0.0197
   33MOL0     H 4398   2.857   8.079  10.957 -0.2296  1.0695  0.2430
   33MOL0     H 4399   2.911   8.070  11.122 -5.8472  2.6664  0.2568
   33MOL0     H 4400   3.036   8.299  11.072  0.2973 -2.6184 -0.6227
   33MOL0     H 4401   2.949   8.303  10.920 -1.7686  0.7038 -0.6129
   33MOL0     H 4402   2.834   8.317  11.190  0.6564  2.3390  0.6584
   33MOL0     H 4403   2.724   8.289  11.050  2.3726 -1.9095 -2.9102
   33MOL0     H 4404   2.902   8.491  10.966  0.7453 -0.0212  1.4875
   33MOL0     H 4405   2.724   8.502  11.000  0.4938 -0.9498 -2.7034
   33MOL0     H 4406   3.056   8.542  11.209  0.8823  0.4236  1.1777
   33MOL0     H 4407   2.956   8.762  11.493  2.6029  0.1139  1.4266
   33MOL0     H 4408   3.088   8.663  11.448  1.1079 -1.7554 -4.4207
   33MOL0     H 4409   3.170   8.844  11.279 -0.7241  2.2604 -0.1236
   33MOL0     H 4410   3.034   8.942  11.333 -1.5896  0.0336  0.4325
   33MOL0     H 4411   3.278   8.820  11.487 -2.0528 -0.8383  0.3863
   33MOL0     H 4412   3.161   8.930  11.560 -2.6782 -0.6427 -1.3347
   33MOL0     H 4413   3.349   9.084  11.485  0.3430 -2.7455  1.4373
   33MOL0     H 4414   3.230   9.095  11.366  0.7057 -0.6262 -0.8544
   33MOL0     H 4415   3.422   9.270  11.360  1.4079  1.4133  0.0913
   33MOL0     H 4416   3.554   9.408  11.226  0.3392 -1.0017  1.9199
   33MOL0     H 4417   3.679   9.591  10.814  0.1604  0.9084 -1.0192
   33MOL0     H 4418   3.792   9.704  10.662  2.7296  0.8544  0.5867
   33MOL0     H 4419   3.855   9.713  10.412 -0.2774  0.1645 -1.3623
   33MOL0     H 4420   3.949   9.806  10.542  1.8836 -0.5085 -0.0762
   33MOL0     H 4421   4.143   9.818  10.424  0.0092 -0.0041  0.8757
   33MOL0     H 4422   4.072   9.759  10.267 -3.4359 -1.7973  0.2594
   33MOL0     H 4423   3.999  10.003  10.419  1.6591 -2.8201  1.2997
   33MOL0     H 4424   4.095  10.009  10.269 -0.9835  0.7624  0.3238
   33MOL0     H 4425   3.824   9.893  10.245  2.1408 -2.1437  2.3394
   33MOL0     H 4426   3.931   9.980  10.118  0.4987 -0.3251 -1.4666
   33MOL0     H 4427   3.750  10.097  10.334 -1.4133 -2.5557 -0.0793
   33MOL0     H 4428   3.740  10.104  10.170 -1.0185  2.3669 -0.3201
   33MOL0     H 4429   3.999  10.211  10.312  0.8459  1.3366  0.8350
   33MOL0     H 4430   3.947  10.251  10.142 -1.6314 -2.0187 -1.4419
   33MOL0     H 4431   3.929  10.442  10.311  1.0359 -2.0731 -0.2358
   33MOL0     H 4432   3.815  10.337  10.410  0.1912 -2.6026 -0.1917
   33MOL0     H 4433   3.791  10.457  10.137 -0.3874 -2.8457 -1.7006
   33MOL0     H 4434   3.673  10.325  10.186  0.5536  0.2659 -0.1603
   33MOL0     H 4435   4.020   9.357  10.533  0.7707  2.0978 -0.7526
   33MOL0     H 4436   3.886   9.225  10.698 -1.0059 -0.6697 -0.2410
   33MOL0     H 4437   3.596   9.092  10.932  0.4963  0.3285 -0.6580
   33MOL0     H 4438   3.497   8.935  11.072 -2.2574  0.0055  0.8247
   33MOL0     H 4439   3.091   7.490  10.860 -0.2635  2.7894  1.0228
   33MOL0     H 4440   2.998   7.269  10.812  2.0352  2.5699 -0.2307
   33MOL0     H 4441   2.475   7.009  10.811 -3.3609 -2.0562  0.7245
   33MOL0     H 4442   2.398   6.795  10.762  1.2068 -1.1234 -1.7093
   33MOL0     H 4443   2.592   6.503  11.017 -0.1314 -0.5354 -0.2848
   33MOL0     H 4444   2.655   6.430  10.874 -1.5246 -0.8534 -2.2794
   33MOL0     H 4445   2.361   6.405  10.979  0.9516  1.2488  0.3168
   33MOL0     H 4446   2.471   6.278  10.987 -1.0255 -0.5096 -0.9323
   33MOL0     H 4447   2.326   6.390  10.746 -0.6471 -0.8025 -2.2587
   33MOL0     H 4448   2.306   6.236  10.805 -2.8285  1.6186 -3.1474
   33MOL0     H 4449   2.571   6.330  10.675 -1.5030  1.1196 -1.3370
   33MOL0     H 4450   2.543   6.175  10.756  2.0807  0.9432  0.0137
   33MOL0     H 4451   2.317   6.094  10.415  0.0483  2.5598 -1.5782
   33MOL0     H 4452   2.734   6.624  10.948 -1.1106  0.1016  0.9334
   33MOL0     H 4453   2.929   6.726  10.978 -0.1379 -0.3938  1.3548
   33MOL0     H 4454   2.958   6.896  10.937  2.0882 -0.5468  1.0086
   33MOL0     H 4455   2.898   6.866  11.094 -0.1390  0.0037 -0.5155
   34MOL0     O 4456   6.079  10.970  10.704 -0.9795  0.1948  0.3158
   34MOL0     C 4457   5.985  11.028  10.756  0.5000 -0.8052 -0.3852
   34MOL0     O 4458   5.970  11.053  10.889 -0.1767 -0.4063 -0.2951
   34MOL0     C 4459   6.095  11.074  10.953  0.7108 -0.1457  0.1018
   34MOL0     C 4460   6.118  11.022  11.080 -0.4850 -0.0780 -0.4566
   34MOL0     C 4461   6.232  11.041  11.152  0.2369  1.0027 -0.5990
   34MOL0     C 4462   6.321  11.134  11.112  0.7251  0.4778 -1.0944
   34MOL0     O 4463   6.426  11.183  11.191  0.1092 -0.6441 -0.0632
   34MOL0     C 4464   6.443  11.135  11.321  0.0521 -1.0093  0.4860
   34MOL0     C 4465   6.563  11.213  11.388  0.1832 -0.2058 -0.9701
   34MOL0     C 4466   6.595  11.152  11.526 -0.1972  0.3286  0.1069
   34MOL0     C 4467   6.479  11.160  11.626 -0.2968 -0.1362 -0.7155
   34MOL0     C 4468   6.528  11.112  11.763  0.0072  0.2137 -0.3228
   34MOL0     C 4469   6.452  11.192  11.877  0.1569 -0.3936  0.1819
   34MOL0     C 4470   6.485  11.133  12.012 -0.5184 -0.2334 -0.5755
   34MOL0     C 4471   6.388  11.193  12.106 -0.0104  0.2135  0.0460
   34MOL0     N 4472   6.438  11.190  12.242 -0.8963  0.4907 -0.2149
   34MOL0     C 4473   6.469  11.080  12.319  1.0588 -0.2047 -0.3134
   34MOL0     C 4474   6.573  11.112  12.388  0.1378  0.0070 -0.3924
   34MOL0     C 4475   6.654  11.018  12.465 -0.0800  0.1669 -1.0893
   34MOL0     C 4476   6.780  10.973  12.396 -0.2319 -0.1662  0.1970
   34MOL0     C 4477   6.765  10.907  12.262 -0.2617  0.5817 -0.3049
   34MOL0     C 4478   6.709  10.762  12.285 -0.0015  0.3151 -0.2092
   34MOL0     O 4479   6.567  10.764  12.280  0.0659 -0.2438 -0.2992
   34MOL0     C 4480   6.497  10.651  12.321 -0.4953 -0.3605  0.0635
   34MOL0     C 4481   6.559  10.527  12.358 -0.5435 -0.1822  0.4319
   34MOL0     C 4482   6.488  10.413  12.377  0.9139  0.2658  0.3136
   34MOL0     C 4483   6.348  10.416  12.371 -0.7042 -0.1029  0.9953
   34MOL0     C 4484   6.277  10.297  12.388  0.6860  0.0322  0.4803
   34MOL0     O 4485   6.321  10.184  12.332  0.1515 -0.2835 -0.3807
   34MOL0     C 4486   6.270  10.063  12.374 -0.8481  0.1461 -0.1637
   34MOL0     C 4487   6.288   9.958  12.277 -0.3940  0.7991  0.2663
   34MOL0     C 4488   6.261   9.825  12.309 -0.0270 -0.3636  0.3555
   34MOL0     C 4489   6.206   9.790  12.435  0.1242 -0.1826 -0.2197
   34MOL0     O 4490   6.152   9.667  12.457  0.2988  0.3014 -0.4092
   34MOL0     C 4491   6.171   9.552  12.374  0.3275 -0.0192 -0.7321
   34MOL0     C 4492   6.124   9.418  12.437  0.2079 -0.5973 -0.0856
   34MOL0     C 4493   6.151   9.301  12.345 -0.6775 -0.1458  0.6282
   34MOL0     C 4494   6.075   9.173  12.380  1.1370  0.4190  0.0545
   34MOL0     C 4495   6.150   9.075  12.460  0.3784  0.6965  0.5274
   34MOL0     C 4496   6.071   8.950  12.509 -0.0892 -0.6801  0.2504
   34MOL0     C 4497   5.991   8.863  12.406 -1.2813 -0.5533  0.1338
   34MOL0     C 4498   5.899   8.781  12.481  0.1188 -0.1170  0.1020
   34MOL0    Cl 4499   5.757   8.894  12.522 -0.3531 -0.1682 -0.6561
   34MOL0     C 4500   6.195   9.890  12.532 -0.4230  0.2252 -0.1679
   34MOL0     C 4501   6.232  10.024  12.504  0.5009  0.0955 -0.2378
   34MOL0     O 4502   6.182  10.300  12.458  0.0488  0.5741 -0.1805
   34MOL0     C 4503   6.282  10.536  12.346  0.0642 -0.4536  0.2464
   34MOL0     C 4504   6.356  10.649  12.320 -0.0037 -0.2684 -0.9303
   34MOL0     N 4505   6.580  11.249  12.381  0.1743 -0.9351 -0.2951
   34MOL0     N 4506   6.495  11.291  12.297  0.3641 -0.0230 -0.2203
   34MOL0     C 4507   6.307  11.180  10.987  0.0927 -0.5497  0.2304
   34MOL0     C 4508   6.202  11.153  10.907 -0.5246 -0.6912 -0.4498
   34MOL0     C 4509   5.860  11.037  10.677 -0.3955  0.1383  0.4307
   34MOL0     C 4510   5.746  10.980  10.728 -0.5530  0.1718  0.3938
   34MOL0     C 4511   5.635  10.960  10.649  1.0845  0.4985 -0.0306
   34MOL0     C 4512   5.641  11.005  10.517 -0.3325  0.9675 -0.3139
   34MOL0     O 4513   5.549  10.971  10.422  0.0828  0.0583 -0.4824
   34MOL0     C 4514   5.425  11.040  10.446 -0.1785 -0.5766 -0.3997
   34MOL0     C 4515   5.353  11.033  10.309  1.2913  0.0337  0.3681
   34MOL0     C 4516   5.229  10.936  10.303  0.7997 -0.2073 -0.6901
   34MOL0     C 4517   5.138  10.954  10.188 -0.4256 -0.7815  0.2555
   34MOL0     C 4518   5.052  11.068  10.216 -0.1588 -0.5377 -0.6635
   34MOL0     C 4519   4.963  11.145  10.230 -0.1445 -0.4004  0.0416
   34MOL0     C 4520   5.756  11.066  10.461 -0.4241 -0.9609 -0.2181
   34MOL0     C 4521   5.862  11.093  10.545 -0.4960  0.1183  0.7479
   34MOL0     C 4522   5.983  11.155  10.479 -0.1041  0.0904 -0.3753
   34MOL0     H 4523   6.045  10.957  11.125  1.1339 -1.3462  0.4490
   34MOL0     H 4524   6.231  10.982  11.243  0.2910  0.0817 -1.1805
   34MOL0     H 4525   6.359  11.147  11.389 -1.0242 -1.7504 -0.6639
   34MOL0     H 4526   6.478  11.031  11.324 -0.0418 -1.0418  0.4350
   34MOL0     H 4527   6.548  11.321  11.404 -1.5805 -0.3847 -1.2080
   34MOL0     H 4528   6.657  11.191  11.336  0.3063  2.5799 -2.1617
   34MOL0     H 4529   6.684  11.208  11.558  1.0001  0.6504 -3.3178
   34MOL0     H 4530   6.630  11.048  11.524 -0.1803  0.2618  2.2405
   34MOL0     H 4531   6.451  11.265  11.637  0.7057  0.4921 -3.3957
   34MOL0     H 4532   6.394  11.096  11.599  0.8089 -2.4538  0.9308
   34MOL0     H 4533   6.516  11.005  11.779 -3.3897 -0.4568 -5.1317
   34MOL0     H 4534   6.637  11.126  11.763  0.0774  0.1640 -3.0602
   34MOL0     H 4535   6.487  11.295  11.880 -1.1100  0.0628 -0.2840
   34MOL0     H 4536   6.344  11.188  11.864  0.2436 -3.7338 -0.4586
   34MOL0     H 4537   6.585  11.163  12.045 -1.5251  0.7379  1.7998
   34MOL0     H 4538   6.482  11.024  12.005  6.3828 -0.7761 -2.4679
   34MOL0     H 4539   6.364  11.297  12.082  1.2897  0.0413 -2.3213
   34MOL0     H 4540   6.293  11.140  12.108 -0.4211  0.8543 -1.1937
   34MOL0     H 4541   6.438  10.977  12.301 -3.0300  0.5859  1.0599
   34MOL0     H 4542   6.671  11.051  12.568 -0.6903 -2.4971 -0.0581
   34MOL0     H 4543   6.592  10.928  12.476 -2.2256  1.7693  1.3583
   34MOL0     H 4544   6.847  11.058  12.384  0.3659 -0.9087 -2.4349
   34MOL0     H 4545   6.820  10.898  12.465 -0.3083 -0.3960 -0.0074
   34MOL0     H 4546   6.863  10.908  12.215 -1.4073  1.5675 -2.8837
   34MOL0     H 4547   6.703  10.970  12.197 -0.3923  0.7916  0.0163
   34MOL0     H 4548   6.742  10.727  12.383 -0.8994 -1.4847 -0.5150
   34MOL0     H 4549   6.747  10.701  12.202 -0.7204 -0.7401  0.2211
   34MOL0     H 4550   6.666  10.515  12.367  0.0306  2.3714 -1.6950
   34MOL0     H 4551   6.538  10.322  12.410  1.0848  0.3275  0.2218
   34MOL0     H 4552   6.326   9.979  12.178 -0.4098  0.9328  0.2891
   34MOL0     H 4553   6.266   9.746  12.234 -1.0944 -0.2368  0.1333
   34MOL0     H 4554   6.128   9.563  12.274  0.1758  1.9483 -0.5002
   34MOL0     H 4555   6.278   9.537  12.360  0.9121  0.7302  2.2690
   34MOL0     H 4556   6.180   9.400  12.530 -1.9682  1.4033  1.7513
   34MOL0     H 4557   6.020   9.419  12.472  0.6968 -2.1115  1.6221
   34MOL0     H 4558   6.108   9.328  12.249  1.3409 -1.8392 -0.8595
   34MOL0     H 4559   6.256   9.277  12.324 -0.5706 -1.9028  2.7450
   34MOL0     H 4560   6.068   9.128  12.280  2.6825 -0.4792  0.3186
   34MOL0     H 4561   5.971   9.189  12.407  0.4115 -1.1510 -1.6150
   34MOL0     H 4562   6.178   9.117  12.557 -1.8845 -1.2621  2.1538
   34MOL0     H 4563   6.237   9.039  12.403 -1.2863  2.3420 -3.4121
   34MOL0     H 4564   6.140   8.882  12.559 -2.6377 -2.3276  1.7989
   34MOL0     H 4565   6.001   9.003  12.574 -1.5242 -0.5802 -1.2924
   34MOL0     H 4566   6.057   8.798  12.349 -0.9348  2.7346 -3.6901
   34MOL0     H 4567   5.953   8.935  12.332  0.4074 -0.5803 -0.8066
   34MOL0     H 4568   5.860   8.703  12.415  1.2668  0.0283 -0.7596
   34MOL0     H 4569   5.948   8.749  12.573 -0.4315 -0.0884  0.4121
   34MOL0     H 4570   6.159   9.863  12.631  2.3676 -1.4169  0.5105
   34MOL0     H 4571   6.210  10.103  12.575 -0.0158 -1.0236  0.9134
   34MOL0     H 4572   6.174  10.535  12.335 -0.1427  3.5463  0.5287
   34MOL0     H 4573   6.315  10.745  12.288  0.2762 -0.7549 -2.8451
   34MOL0     H 4574   6.377  11.258  10.958  1.2845 -0.9989  1.7840
   34MOL0     H 4575   6.211  11.198  10.808  1.7898 -1.8529 -0.8334
   34MOL0     H 4576   5.741  10.927  10.822 -1.9042 -1.8328 -0.7263
   34MOL0     H 4577   5.545  10.910  10.684 -1.8139  3.6975 -2.1560
   34MOL0     H 4578   5.443  11.143  10.476 -1.6317 -0.2281 -0.6567
   34MOL0     H 4579   5.380  10.992  10.533 -0.2145  2.9001  1.6901
   34MOL0     H 4580   5.427  11.006  10.233  0.5649 -0.1400 -0.2862
   34MOL0     H 4581   5.326  11.138  10.293  0.4170  0.2111  2.5766
   34MOL0     H 4582   5.169  10.936  10.395 -0.2226  2.2561 -1.2725
   34MOL0     H 4583   5.269  10.835  10.285 -2.5668 -1.8040 -0.1119
   34MOL0     H 4584   5.200  10.981  10.102 -2.6715  1.4627 -0.8086
   34MOL0     H 4585   5.072  10.871  10.161  0.7521 -2.1831  1.4804
   34MOL0     H 4586   4.872  11.200  10.238  0.2205 -0.0202  1.8193
   34MOL0     H 4587   5.760  11.079  10.353 -2.1272 -0.8276 -0.2963
   34MOL0     H 4588   6.061  11.155  10.557 -0.9833 -1.4666  0.5461
   34MOL0     H 4589   6.006  11.081  10.402 -3.3462 -1.1398 -0.2926
   34MOL0     H 4590   5.970  11.256  10.440 -1.3305  0.4643  0.9315
   35MOL0     O 4591   8.560   9.249   0.069  0.4336  0.0958  0.1871
   35MOL0     C 4592   8.510   9.335  -0.004 -0.3047 -0.5979  0.4882
   35MOL0     O 4593   8.387   9.320  -0.055  0.1954  0.9675 -0.3603
   35MOL0     C 4594   8.286   9.282   0.028 -0.1682 -0.6438 -0.9644
   35MOL0     C 4595   8.278   9.328   0.166 -1.1002  0.1836  0.3685
   35MOL0     C 4596   8.157   9.300   0.233  1.1923  0.7908 -0.0025
   35MOL0     C 4597   8.060   9.220   0.170  0.3677  0.5471 -0.5175
   35MOL0     O 4598   7.947   9.194   0.244  0.7272 -0.4538  0.2848
   35MOL0     C 4599   7.818   9.167   0.179  0.9846 -0.9207  0.6360
   35MOL0     C 4600   7.723   9.171   0.300 -0.0331  0.3490 -0.2742
   35MOL0     C 4601   7.685   9.299   0.369 -0.4631  0.4725  0.1835
   35MOL0     C 4602   7.606   9.390   0.262 -1.0891 -0.0389 -0.8190
   35MOL0     C 4603   7.565   9.524   0.325  0.1392  0.0996  0.6620
   35MOL0     C 4604   7.474   9.609   0.240  0.5567 -0.5104 -0.4832
   35MOL0     C 4605   7.521   9.632   0.096  0.2565  0.2046  0.1612
   35MOL0     C 4606   7.489   9.769   0.034 -0.4214 -0.0946 -0.1288
   35MOL0     N 4607   7.502   9.761  -0.113  0.1643 -0.0655 -0.4540
   35MOL0     C 4608   7.562   9.664  -0.187 -0.7087  0.6959 -0.2908
   35MOL0     C 4609   7.547   9.707  -0.308 -0.5236  1.0973  0.5458
   35MOL0     C 4610   7.597   9.639  -0.424 -0.5777 -0.2810 -0.2548
   35MOL0     C 4611   7.556   9.493  -0.444 -0.4130 -0.2807 -0.2520
   35MOL0     C 4612   7.628   9.422  -0.564  0.4563 -0.0097 -0.3325
   35MOL0     C 4613   7.583   9.276  -0.570  0.4089 -0.7800  0.2765
   35MOL0     O 4614   7.610   9.237  -0.708  0.2876 -0.0666  0.6117
   35MOL0     C 4615   7.580   9.103  -0.737  0.1321  0.0694 -0.5485
   35MOL0     C 4616   7.585   9.075  -0.873  0.4419 -0.5488 -0.1357
   35MOL0     C 4617   7.543   8.951  -0.919 -0.2791 -0.1095  0.1659
   35MOL0     C 4618   7.506   8.842  -0.839  1.1357 -0.5695 -0.3409
   35MOL0     C 4619   7.461   8.717  -0.903  1.6459 -0.2909  0.3214
   35MOL0     O 4620   7.456   8.710  -1.040 -1.0455  0.1199 -1.2471
   35MOL0     C 4621   7.389   8.612  -1.118  0.2720 -0.7150  0.8218
   35MOL0     C 4622   7.366   8.476  -1.073 -0.3092  0.1389 -1.0406
   35MOL0     C 4623   7.320   8.380  -1.161  0.3870  0.2067 -1.0072
   35MOL0     C 4624   7.300   8.418  -1.295  0.1456 -0.1630 -0.2620
   35MOL0     O 4625   7.261   8.335  -1.390  0.9956 -0.0320  0.5551
   35MOL0     C 4626   7.201   8.212  -1.363 -0.1258  0.7608 -0.8862
   35MOL0     C 4627   7.295   8.093  -1.398 -0.5860  0.3039  0.2269
   35MOL0     C 4628   7.316   8.070  -1.541  0.1052 -0.2327  0.5324
   35MOL0     C 4629   7.195   7.999  -1.605 -0.3434  0.3635 -0.3211
   35MOL0     C 4630   7.126   8.075  -1.718  0.2832 -0.6204  0.7594
   35MOL0     C 4631   7.009   8.000  -1.779  0.8299 -0.9295  0.0936
   35MOL0     C 4632   6.924   8.084  -1.865 -0.5554 -0.2269  0.4446
   35MOL0     C 4633   6.799   8.008  -1.920 -0.2765  0.8149 -0.4175
   35MOL0    Cl 4634   6.666   7.990  -1.792  0.3753  0.0367  0.2249
   35MOL0     C 4635   7.319   8.552  -1.327 -0.3845 -0.5770 -0.4813
   35MOL0     C 4636   7.361   8.651  -1.242 -0.4566  0.0807  0.3720
   35MOL0     O 4637   7.412   8.638  -0.824  0.3813  0.4213 -0.3943
   35MOL0     C 4638   7.500   8.867  -0.703  0.6515  0.1024 -0.0014
   35MOL0     C 4639   7.540   8.996  -0.654 -0.4709 -0.3488 -0.1309
   35MOL0     N 4640   7.466   9.823  -0.309 -0.8790  0.1449  0.0492
   35MOL0     N 4641   7.448   9.859  -0.186 -0.6382  0.0342  0.3157
   35MOL0     C 4642   8.077   9.175   0.042  0.0323 -1.3327 -1.0096
   35MOL0     C 4643   8.187   9.196  -0.032 -0.3303  0.3149  0.3446
   35MOL0     C 4644   8.604   9.431  -0.067  0.2903 -0.3467  0.3936
   35MOL0     C 4645   8.741   9.406  -0.074  0.5474  0.1850 -0.0442
   35MOL0     C 4646   8.830   9.500  -0.117  0.6590 -0.1051 -0.5710
   35MOL0     C 4647   8.793   9.630  -0.153  0.0279 -0.0768 -0.4242
   35MOL0     O 4648   8.893   9.728  -0.170 -0.7816  0.9653 -0.0214
   35MOL0     C 4649   8.858   9.860  -0.189  0.1761 -1.3487  0.2795
   35MOL0     C 4650   8.854   9.897  -0.341  0.5066 -0.4994 -0.6011
   35MOL0     C 4651   9.002   9.878  -0.402 -0.0591  0.2925  0.6662
   35MOL0     C 4652   8.999   9.823  -0.542  0.0231 -0.2888 -0.0028
   35MOL0     C 4653   8.984   9.681  -0.544  0.4276  0.8644 -0.7633
   35MOL0     C 4654   8.960   9.563  -0.548 -0.0235 -0.0905  0.6591
   35MOL0     C 4655   8.653   9.657  -0.151 -0.0684 -0.4303  0.1403
   35MOL0     C 4656   8.561   9.563  -0.097 -1.3299  0.6239 -1.2098
   35MOL0     C 4657   8.423   9.608  -0.087  0.0771 -0.4231  0.0966
   35MOL0     H 4658   8.349   9.400   0.205  0.1440 -0.2046 -1.0719
   35MOL0     H 4659   8.133   9.352   0.326  0.2488 -0.5750  0.5679
   35MOL0     H 4660   7.788   9.245   0.109 -4.0053 -1.3739  1.9085
   35MOL0     H 4661   7.829   9.068   0.133 -2.8241  0.0135 -2.8110
   35MOL0     H 4662   7.760   9.103   0.377 -0.8943 -1.2012 -1.1637
   35MOL0     H 4663   7.628   9.125   0.271 -1.2780  1.5041  1.7297
   35MOL0     H 4664   7.782   9.343   0.395  1.7601 -1.5848 -3.6969
   35MOL0     H 4665   7.628   9.263   0.455 -0.6919  0.9167  0.2184
   35MOL0     H 4666   7.659   9.419   0.171 -1.5157  2.1598 -0.4448
   35MOL0     H 4667   7.517   9.332   0.234 -1.2752  0.3522 -1.0480
   35MOL0     H 4668   7.521   9.501   0.422 -1.1184  0.1091  0.1277
   35MOL0     H 4669   7.659   9.573   0.350  2.0124 -2.2055 -1.3709
   35MOL0     H 4670   7.370   9.575   0.245 -0.0727  1.4313  2.7801
   35MOL0     H 4671   7.473   9.707   0.290  0.4987 -0.9956  0.4968
   35MOL0     H 4672   7.468   9.555   0.040  1.3343 -0.6328  0.2415
   35MOL0     H 4673   7.630   9.620   0.095  0.3863  1.2284  0.9509
   35MOL0     H 4674   7.389   9.806   0.056  0.5319  1.8400  1.2918
   35MOL0     H 4675   7.553   9.844   0.081 -1.0484  0.4782 -0.1774
   35MOL0     H 4676   7.598   9.564  -0.160 -0.5243  1.4867  2.8477
   35MOL0     H 4677   7.573   9.707  -0.506  3.8148  3.0898  0.8922
   35MOL0     H 4678   7.705   9.636  -0.410 -0.6067 -1.4330 -0.1769
   35MOL0     H 4679   7.572   9.434  -0.353 -2.7894  0.3140  0.6429
   35MOL0     H 4680   7.448   9.502  -0.459 -0.4190  0.1025  0.0139
   35MOL0     H 4681   7.735   9.436  -0.544  0.6072 -0.8620 -0.5018
   35MOL0     H 4682   7.607   9.479  -0.655  3.5954 -1.9340 -2.4689
   35MOL0     H 4683   7.475   9.278  -0.550  0.4144  1.8546  0.3087
   35MOL0     H 4684   7.638   9.227  -0.489  1.4036 -0.9954 -0.5041
   35MOL0     H 4685   7.594   9.156  -0.945 -1.1159  0.7959  1.0951
   35MOL0     H 4686   7.549   8.955  -1.027  4.8679  1.9401  0.2361
   35MOL0     H 4687   7.383   8.446  -0.970 -0.8630  4.5352  0.5303
   35MOL0     H 4688   7.307   8.279  -1.124 -0.6570  0.3512 -0.9470
   35MOL0     H 4689   7.165   8.209  -1.259 -0.2527  0.0487 -0.9410
   35MOL0     H 4690   7.105   8.205  -1.415 -2.6619  2.1680  3.1047
   35MOL0     H 4691   7.393   8.104  -1.350 -1.3891 -2.8568  2.9038
   35MOL0     H 4692   7.255   8.006  -1.347 -2.0506  0.6525 -0.2659
   35MOL0     H 4693   7.337   8.165  -1.591  0.0686  0.2163  1.3669
   35MOL0     H 4694   7.402   8.003  -1.545  0.2206 -0.1786  1.7884
   35MOL0     H 4695   7.123   7.990  -1.523  1.3324 -0.6644  1.1252
   35MOL0     H 4696   7.232   7.901  -1.638 -1.1001 -0.8640  2.2260
   35MOL0     H 4697   7.191   8.083  -1.806 -1.4830 -0.4613 -0.5715
   35MOL0     H 4698   7.086   8.170  -1.682  0.1876 -0.7852  1.0905
   35MOL0     H 4699   7.039   7.924  -1.851  2.1509 -0.1214 -0.2515
   35MOL0     H 4700   6.946   7.949  -1.705  2.5789 -1.0992  1.5382
   35MOL0     H 4701   6.983   8.120  -1.950 -2.3531  2.7611  0.3337
   35MOL0     H 4702   6.890   8.182  -1.831 -0.5350  0.7325 -2.0871
   35MOL0     H 4703   6.753   8.058  -2.006 -0.9979 -1.7244 -1.6038
   35MOL0     H 4704   6.837   7.909  -1.947  2.3393  0.1235  4.5247
   35MOL0     H 4705   7.304   8.569  -1.433  1.8612 -0.4402 -0.8215
   35MOL0     H 4706   7.384   8.751  -1.279  1.7444 -0.4285  0.2169
   35MOL0     H 4707   7.476   8.788  -0.634 -0.4041 -0.1006 -0.5792
   35MOL0     H 4708   7.530   9.017  -0.548 -0.5426  0.9462 -0.3814
   35MOL0     H 4709   7.991   9.128  -0.004  0.3455 -0.2304 -2.7810
   35MOL0     H 4710   8.193   9.154  -0.132  0.0459 -0.4562  0.6842
   35MOL0     H 4711   8.783   9.309  -0.048  0.1131 -0.2930 -1.0837
   35MOL0     H 4712   8.936   9.487  -0.097  0.2204  1.4897  4.2125
   35MOL0     H 4713   8.925   9.916  -0.123  0.4939  1.0977 -1.9580
   35MOL0     H 4714   8.758   9.880  -0.150  0.5695 -0.5985  0.9316
   35MOL0     H 4715   8.818   9.999  -0.355  2.7319  0.2247 -1.5279
   35MOL0     H 4716   8.785   9.828  -0.391 -1.7718  0.0491  1.5998
   35MOL0     H 4717   9.059   9.805  -0.344  1.1594  0.9253  0.2844
   35MOL0     H 4718   9.058   9.970  -0.386  1.7728 -0.8808  1.3248
   35MOL0     H 4719   8.917   9.857  -0.606 -0.5654 -2.6198 -0.5942
   35MOL0     H 4720   9.085   9.853  -0.603 -2.1103  0.5822 -2.8046
   35MOL0     H 4721   8.926   9.461  -0.542  0.8703 -0.3146  2.7872
   35MOL0     H 4722   8.604   9.740  -0.201 -0.6215 -1.2951 -0.7979
   35MOL0     H 4723   8.366   9.553  -0.162 -0.1323  0.3797 -0.3555
   35MOL0     H 4724   8.383   9.610   0.014  1.2394  0.5251  0.5661
   35MOL0     H 4725   8.413   9.714  -0.113 -0.0450 -0.5355 -0.3215
   36MOL0     O 4726   7.749  10.175   6.721  0.2796 -1.0513 -0.5937
   36MOL0     C 4727   7.680  10.234   6.640 -0.8795  0.2090  0.2515
   36MOL0     O 4728   7.697  10.360   6.598 -0.1971 -0.0161  0.5637
   36MOL0     C 4729   7.776  10.446   6.665 -0.5167 -0.5213  0.2275
   36MOL0     C 4730   7.877  10.516   6.605 -0.0453  0.1603  0.8300
   36MOL0     C 4731   7.964  10.608   6.675  0.0067 -0.1391  0.5759
   36MOL0     C 4732   7.949  10.618   6.810 -0.2322 -0.0673  1.2349
   36MOL0     O 4733   8.046  10.685   6.881  0.1786 -0.6684  0.0992
   36MOL0     C 4734   8.179  10.625   6.862  0.2984 -0.4247  0.2135
   36MOL0     C 4735   8.211  10.512   6.950  0.4205 -0.0413  0.4750
   36MOL0     C 4736   8.361  10.519   6.953  0.1281  0.7686 -0.1819
   36MOL0     C 4737   8.409  10.423   7.061  0.0719 -0.2476 -0.0428
   36MOL0     C 4738   8.548  10.365   7.023  0.0664  1.0075 -0.7621
   36MOL0     C 4739   8.649  10.475   7.003 -0.0215  0.0044  0.4679
   36MOL0     C 4740   8.797  10.441   6.980 -0.4362 -0.1874 -0.0169
   36MOL0     C 4741   8.871  10.436   7.121  0.3612  0.4508  0.5588
   36MOL0     N 4742   8.863  10.550   7.208  0.0953  0.0308  0.4874
   36MOL0     C 4743   8.775  10.566   7.315 -0.7334  0.5566 -0.4867
   36MOL0     C 4744   8.796  10.692   7.365  0.1292  0.2452 -0.5198
   36MOL0     C 4745   8.732  10.748   7.496 -0.2086  0.5001  0.2583
   36MOL0     C 4746   8.590  10.709   7.514 -0.9814 -0.6234 -0.3776
   36MOL0     C 4747   8.487  10.780   7.436  0.0736  0.0785  0.8335
   36MOL0     C 4748   8.348  10.710   7.450 -1.5701 -1.0774 -0.4544
   36MOL0     O 4749   8.310  10.623   7.343 -1.0128  0.5645  0.4291
   36MOL0     C 4750   8.192  10.666   7.282 -0.2270 -0.5663  0.7525
   36MOL0     C 4751   8.081  10.593   7.292  0.7299  0.7512  1.3287
   36MOL0     C 4752   7.958  10.641   7.241 -0.0573 -0.1271  1.7391
   36MOL0     C 4753   7.960  10.761   7.164 -0.5349 -0.2125  0.9000
   36MOL0     C 4754   7.830  10.820   7.121  0.3989 -0.3123 -0.2099
   36MOL0     O 4755   7.832  10.906   7.020 -0.3762  0.2555  0.7527
   36MOL0     C 4756   7.718  10.961   6.975  0.1191 -1.1092  1.2862
   36MOL0     C 4757   7.632  11.054   7.058 -0.7691  0.3930  0.8190
   36MOL0     C 4758   7.522  11.117   7.004 -0.1604  0.5444 -1.1055
   36MOL0     C 4759   7.488  11.088   6.868  0.6073  0.6143  0.4321
   36MOL0     O 4760   7.371  11.137   6.810  0.4319  0.7964 -0.1154
   36MOL0     C 4761   7.242  11.111   6.866 -0.0275 -0.4874  1.0159
   36MOL0     C 4762   7.147  11.135   6.756 -0.7515 -0.3193  0.1377
   36MOL0     C 4763   7.095  11.281   6.731 -0.8301 -1.0225  1.3807
   36MOL0     C 4764   7.021  11.339   6.853  0.1402  0.2420  0.2115
   36MOL0     C 4765   6.951  11.477   6.843 -0.1235 -1.8089 -1.0076
   36MOL0     C 4766   6.895  11.543   6.970 -0.3793  0.9805  0.1729
   36MOL0     C 4767   6.767  11.631   6.936 -0.9095  0.3648  0.4788
   36MOL0     C 4768   6.690  11.682   7.052 -0.1866  0.2995 -0.8723
   36MOL0    Cl 4769   6.538  11.751   6.989 -0.5858 -0.1291 -0.2691
   36MOL0     C 4770   7.578  11.011   6.785 -0.2546 -0.4652  0.3270
   36MOL0     C 4771   7.689  10.942   6.835  0.0311 -0.9610  0.4601
   36MOL0     O 4772   7.722  10.775   7.164  0.6670  0.5246 -0.8186
   36MOL0     C 4773   8.084  10.828   7.151 -0.4972 -0.3703  0.2446
   36MOL0     C 4774   8.191  10.793   7.220  0.2181 -0.6024 -0.2352
   36MOL0     N 4775   8.895  10.756   7.283  0.1095 -0.3930  0.3572
   36MOL0     N 4776   8.920  10.677   7.188  0.0905 -0.2283  1.0894
   36MOL0     C 4777   7.844  10.554   6.875  0.0298  0.0755  0.3488
   36MOL0     C 4778   7.766  10.470   6.806 -0.1421 -0.2033  0.3325
   36MOL0     C 4779   7.565  10.156   6.576 -0.4420 -0.1507 -0.4387
   36MOL0     C 4780   7.510  10.207   6.456 -0.4242 -0.4226  0.4486
   36MOL0     C 4781   7.416  10.142   6.383 -0.1128  0.7966 -0.3129
   36MOL0     C 4782   7.379  10.013   6.414  0.7748  0.5083  0.4012
   36MOL0     O 4783   7.290   9.950   6.340 -0.6183  0.1192  0.5591
   36MOL0     C 4784   7.325   9.812   6.316  0.2994 -1.1050  0.6609
   36MOL0     C 4785   7.204   9.724   6.341  0.4103  0.1500 -0.0730
   36MOL0     C 4786   7.247   9.583   6.363 -0.8428 -0.2210 -0.2764
   36MOL0     C 4787   7.137   9.474   6.340 -0.5698  0.4891  0.1972
   36MOL0     C 4788   7.031   9.485   6.437 -0.7730 -0.2815  0.9101
   36MOL0     C 4789   6.928   9.486   6.495 -0.0865  0.7480 -0.0419
   36MOL0     C 4790   7.432   9.958   6.531  0.4025  0.9043  0.6615
   36MOL0     C 4791   7.523  10.030   6.612 -0.1465  0.3128  0.5417
   36MOL0     C 4792   7.546   9.959   6.751  0.2668  0.1072  0.0436
   36MOL0     H 4793   7.885  10.516   6.497 -1.4211  1.6390  0.6847
   36MOL0     H 4794   8.045  10.657   6.623 -0.7144 -2.5669 -3.1688
   36MOL0     H 4795   8.196  10.586   6.761  1.8515 -2.8762  1.3431
   36MOL0     H 4796   8.237  10.715   6.884 -3.2093  2.0182  0.3766
   36MOL0     H 4797   8.173  10.416   6.914 -1.9966 -0.2130  3.0629
   36MOL0     H 4798   8.171  10.534   7.050 -4.2089  2.0316 -1.5506
   36MOL0     H 4799   8.391  10.619   6.985 -0.1571  0.0682  2.4682
   36MOL0     H 4800   8.400  10.480   6.858 -1.6964 -0.3915 -0.5018
   36MOL0     H 4801   8.420  10.477   7.156  1.1363  1.9862 -1.3664
   36MOL0     H 4802   8.338  10.341   7.077 -0.6926 -0.0189 -2.0360
   36MOL0     H 4803   8.584  10.301   7.105  0.7663  0.1678 -1.7045
   36MOL0     H 4804   8.536  10.300   6.937  0.1096 -1.0157  0.6825
   36MOL0     H 4805   8.631  10.545   6.921  1.2316  1.4520  1.3760
   36MOL0     H 4806   8.638  10.547   7.085  0.5909 -0.7621  1.2277
   36MOL0     H 4807   8.834  10.515   6.908  1.4045 -1.3370 -0.2958
   36MOL0     H 4808   8.798  10.350   6.920 -3.6953  0.7447 -1.7699
   36MOL0     H 4809   8.832  10.339   7.154  2.4152 -0.3973  0.6263
   36MOL0     H 4810   8.979  10.422   7.106  0.2267 -1.6320  1.1759
   36MOL0     H 4811   8.704  10.492   7.350  1.7789 -1.4829  0.6728
   36MOL0     H 4812   8.785  10.699   7.578  0.9637  0.0686 -0.7251
   36MOL0     H 4813   8.747  10.856   7.504  0.4968  0.5046 -0.8480
   36MOL0     H 4814   8.597  10.601   7.496 -2.6770 -0.8808  0.3016
   36MOL0     H 4815   8.554  10.729   7.615 -2.6166  0.4238 -1.1381
   36MOL0     H 4816   8.514  10.769   7.330 -1.5106  2.9547  0.0223
   36MOL0     H 4817   8.478  10.886   7.463  0.3057  0.3009  0.0560
   36MOL0     H 4818   8.267  10.779   7.474 -3.9460 -3.0180 -2.3256
   36MOL0     H 4819   8.349  10.654   7.545  0.8588 -1.8759 -0.8691
   36MOL0     H 4820   8.078  10.504   7.354 -0.1401  1.9785  3.1513
   36MOL0     H 4821   7.871  10.578   7.253 -0.4739  0.8201  4.4415
   36MOL0     H 4822   7.653  11.053   7.165 -1.6547 -2.2553  1.0398
   36MOL0     H 4823   7.452  11.165   7.072  0.1960 -3.3622  2.4083
   36MOL0     H 4824   7.231  11.014   6.915  0.1558 -0.3336  1.3695
   36MOL0     H 4825   7.215  11.185   6.942 -0.1867 -0.9930  1.4590
   36MOL0     H 4826   7.189  11.123   6.656 -2.4743  4.0552 -1.3493
   36MOL0     H 4827   7.062  11.073   6.785 -1.7129  0.9266  0.0186
   36MOL0     H 4828   7.175  11.350   6.700 -1.7441 -1.2935 -1.9676
   36MOL0     H 4829   7.030  11.277   6.644  1.2095  0.8822 -0.3701
   36MOL0     H 4830   7.096  11.338   6.932 -0.0709 -0.7252  0.4147
   36MOL0     H 4831   6.954  11.263   6.894  0.5597  0.6074  1.6364
   36MOL0     H 4832   6.868  11.454   6.775 -1.6787  0.0854  0.1504
   36MOL0     H 4833   7.015  11.546   6.787 -2.1532  2.0018  0.9573
   36MOL0     H 4834   6.872  11.470   7.048 -0.6633 -0.0577 -0.8595
   36MOL0     H 4835   6.977  11.607   7.007 -3.0235  4.1165  1.0873
   36MOL0     H 4836   6.698  11.579   6.869 -2.5206  3.2808 -0.2872
   36MOL0     H 4837   6.807  11.707   6.868  1.9205 -1.1553  0.2862
   36MOL0     H 4838   6.666  11.596   7.114 -0.3963  1.3431  0.5342
   36MOL0     H 4839   6.757  11.747   7.110 -0.6687 -0.5669  0.7119
   36MOL0     H 4840   7.562  10.981   6.682 -0.0614 -0.0032  0.1609
   36MOL0     H 4841   7.759  10.876   6.785  1.4027  0.1452  0.8728
   36MOL0     H 4842   8.094  10.930   7.114 -1.5799 -0.1645  0.4775
   36MOL0     H 4843   8.280  10.854   7.218 -0.8618  1.2875  2.7881
   36MOL0     H 4844   7.835  10.571   6.982 -3.6315 -0.4249  0.2318
   36MOL0     H 4845   7.692  10.415   6.863  1.4896 -1.3654  1.4371
   36MOL0     H 4846   7.526  10.313   6.439  2.4514 -0.2439  3.1899
   36MOL0     H 4847   7.379  10.190   6.293  1.8621  0.0345 -1.5855
   36MOL0     H 4848   7.415   9.779   6.368  0.4242  1.0205  1.8985
   36MOL0     H 4849   7.358   9.804   6.212 -0.2949 -0.5642  0.4184
   36MOL0     H 4850   7.131   9.732   6.260 -0.0968 -0.3019  0.3257
   36MOL0     H 4851   7.158   9.760   6.433 -0.3298  2.3341 -1.2408
   36MOL0     H 4852   7.294   9.583   6.462 -1.6974  2.1765  0.2049
   36MOL0     H 4853   7.323   9.564   6.287  0.1042 -0.0493  0.5945
   36MOL0     H 4854   7.088   9.489   6.243 -0.2128  1.4768  0.1669
   36MOL0     H 4855   7.184   9.375   6.341  0.9624  1.1515 -1.3917
   36MOL0     H 4856   6.829   9.485   6.535 -0.4661  1.4469 -0.9467
   36MOL0     H 4857   7.411   9.856   6.565  0.2020  0.3849 -0.9289
   36MOL0     H 4858   7.487  10.020   6.820 -1.9515  2.3901 -3.5620
   36MOL0     H 4859   7.509   9.856   6.757  0.0976  0.1425 -0.3350
   36MOL0     H 4860   7.653   9.943   6.767  0.2632 -0.9596 -0.9062
   37MOL0     O 4861  10.615  11.461   2.277  0.2797 -0.5204 -0.0511
   37MOL0     C 4862  10.715  11.441   2.349  0.6435  0.3856  0.0039
   37MOL0     O 4863  10.813  11.532   2.384 -0.1205  0.6783  0.0457
   37MOL0     C 4864  10.790  11.662   2.348 -0.0482 -0.1775  0.1940
   37MOL0     C 4865  10.785  11.764   2.447 -0.9428 -0.9961 -0.3740
   37MOL0     C 4866  10.757  11.894   2.392  0.2955  0.2534 -0.5561
   37MOL0     C 4867  10.759  11.915   2.253 -1.2450  0.6719 -0.5392
   37MOL0     O 4868  10.742  12.045   2.220 -0.8200  0.1784 -0.6239
   37MOL0     C 4869  10.823  12.102   2.115 -0.7078 -0.6221 -0.0530
   37MOL0     C 4870  10.804  12.250   2.135 -0.0493 -0.9052 -0.3900
   37MOL0     C 4871  10.889  12.321   2.020 -0.1862  0.4249 -0.5611
   37MOL0     C 4872  10.846  12.464   1.985 -0.3319  0.2582  0.1084
   37MOL0     C 4873  10.928  12.519   1.864  0.0616  0.0510  1.2323
   37MOL0     C 4874  10.904  12.657   1.820 -0.0695 -0.6587 -0.1038
   37MOL0     C 4875  10.950  12.763   1.919  0.7881  0.8022 -0.2162
   37MOL0     C 4876  10.907  12.909   1.879  0.2390  0.4745  0.3864
   37MOL0     N 4877  10.978  12.963   1.761 -0.1149  0.0528  0.1137
   37MOL0     C 4878  10.935  13.060   1.676 -1.0261  0.7055 -0.0856
   37MOL0     C 4879  11.033  13.073   1.592 -0.6707 -0.3834 -0.1247
   37MOL0     C 4880  11.045  13.156   1.462 -0.3663 -0.2482 -1.7019
   37MOL0     C 4881  10.913  13.175   1.388 -0.1272  0.2238  0.4763
   37MOL0     C 4882  10.951  13.200   1.235  0.0072 -0.1372  0.0653
   37MOL0     C 4883  10.828  13.229   1.156  0.4774 -0.4255 -0.6870
   37MOL0     O 4884  10.867  13.280   1.031 -0.0170 -0.6236  0.4541
   37MOL0     C 4885  10.932  13.192   0.945  0.2824 -0.3160  0.0835
   37MOL0     C 4886  10.973  13.270   0.837 -0.3261  0.1143 -0.3916
   37MOL0     C 4887  11.059  13.217   0.741  0.5118 -1.4974 -0.1588
   37MOL0     C 4888  11.077  13.081   0.734 -0.1840  0.1057 -0.2305
   37MOL0     C 4889  11.155  13.022   0.617  0.2154 -0.1493 -0.9623
   37MOL0     O 4890  11.220  12.910   0.643 -0.5082 -0.1558  0.9572
   37MOL0     C 4891  11.263  12.845   0.533 -0.6572  0.3114  0.7142
   37MOL0     C 4892  11.394  12.810   0.534 -0.9989  0.0682  0.8399
   37MOL0     C 4893  11.466  12.737   0.435 -0.3234  0.6926 -1.0995
   37MOL0     C 4894  11.393  12.685   0.323  0.1775  0.0554 -0.1512
   37MOL0     O 4895  11.461  12.597   0.247 -0.1628 -0.6670  0.2392
   37MOL0     C 4896  11.475  12.478   0.329  0.0038  0.7162 -0.2237
   37MOL0     C 4897  11.544  12.371   0.254  0.0749  0.8588  0.8794
   37MOL0     C 4898  11.537  12.240   0.323  0.1050 -0.0965  0.2715
   37MOL0     C 4899  11.617  12.126   0.258  0.0374 -0.5090 -0.2064
   37MOL0     C 4900  11.579  11.996   0.327 -0.1915  0.0842  0.3679
   37MOL0     C 4901  11.657  11.874   0.274  0.1257 -0.2052  1.3501
   37MOL0     C 4902  11.580  11.742   0.276 -0.3474 -0.5503  0.3808
   37MOL0     C 4903  11.667  11.618   0.268 -0.7765 -0.0714 -0.4100
   37MOL0    Cl 4904  11.553  11.496   0.330  0.0872  0.0713  1.0310
   37MOL0     C 4905  11.258  12.730   0.314  0.3023  0.2287 -0.4923
   37MOL0     C 4906  11.200  12.818   0.405  0.0613 -0.2483 -1.0253
   37MOL0     O 4907  11.175  13.089   0.516 -0.1000  1.0164  0.0380
   37MOL0     C 4908  11.040  12.996   0.845 -0.7449 -0.2294 -0.0007
   37MOL0     C 4909  10.965  13.050   0.950  0.0988 -0.0832 -0.8796
   37MOL0     N 4910  11.146  13.010   1.634 -0.1199  0.1757 -0.4951
   37MOL0     N 4911  11.110  12.933   1.729 -0.5979 -0.5986  0.0740
   37MOL0     C 4912  10.781  11.814   2.170 -0.1768  0.2577 -0.3042
   37MOL0     C 4913  10.806  11.688   2.219  0.8334 -0.2987  0.8237
   37MOL0     C 4914  10.735  11.301   2.400 -0.6448  0.2750  0.0527
   37MOL0     C 4915  10.870  11.259   2.413  0.0280 -0.2933  0.3780
   37MOL0     C 4916  10.891  11.135   2.470 -0.2755  0.0381  0.3508
   37MOL0     C 4917  10.788  11.040   2.495  0.3608  0.3926 -0.4951
   37MOL0     O 4918  10.812  10.908   2.542  0.5824 -0.2215  0.4838
   37MOL0     C 4919  10.946  10.862   2.577  0.6705 -0.3006  0.1885
   37MOL0     C 4920  10.972  10.928   2.711  0.0337  0.6947 -0.4386
   37MOL0     C 4921  10.881  10.884   2.827 -0.2228  0.2564  0.1582
   37MOL0     C 4922  10.932  10.748   2.887 -1.3210 -0.7057 -0.4940
   37MOL0     C 4923  11.063  10.779   2.952  0.7805  0.2699 -0.8447
   37MOL0     C 4924  11.162  10.817   3.008  0.6546 -0.2723  0.2900
   37MOL0     C 4925  10.665  11.072   2.468  0.1007 -0.0750  0.2846
   37MOL0     C 4926  10.636  11.208   2.429 -0.4799  0.7067 -0.7303
   37MOL0     C 4927  10.493  11.244   2.414  0.1201 -0.0837  0.7507
   37MOL0     H 4928  10.783  11.760   2.555 -2.6381  1.6186 -0.2182
   37MOL0     H 4929  10.737  11.974   2.463 -1.1023 -0.0534 -0.5668
   37MOL0     H 4930  10.930  12.086   2.124 -0.1339  1.6840 -1.8711
   37MOL0     H 4931  10.778  12.073   2.019  2.1326  0.8345 -1.9593
   37MOL0     H 4932  10.820  12.274   2.240  0.5939  0.4763 -0.7841
   37MOL0     H 4933  10.699  12.266   2.108 -0.6979 -1.3426  1.6527
   37MOL0     H 4934  10.881  12.263   1.927 -0.5318 -2.3440  1.0662
   37MOL0     H 4935  10.995  12.320   2.044 -0.0427  3.1017 -0.7931
   37MOL0     H 4936  10.737  12.457   1.975 -0.2849 -0.4879  0.0455
   37MOL0     H 4937  10.864  12.526   2.074 -0.9772  0.0309  0.4062
   37MOL0     H 4938  11.031  12.505   1.898  0.2192 -0.8977  0.3916
   37MOL0     H 4939  10.910  12.452   1.780  0.5733 -1.8114  2.5278
   37MOL0     H 4940  10.970  12.673   1.734  2.0266 -2.3443  1.1056
   37MOL0     H 4941  10.798  12.668   1.793 -0.3947 -1.7689  0.6488
   37MOL0     H 4942  11.056  12.748   1.941  0.1835  1.5548  3.8559
   37MOL0     H 4943  10.895  12.762   2.014 -2.0821 -0.2262 -1.7536
   37MOL0     H 4944  10.799  12.924   1.875 -0.1521 -1.7720  1.1291
   37MOL0     H 4945  10.947  12.958   1.969  5.1319 -1.8038 -0.1931
   37MOL0     H 4946  10.841  13.115   1.676 -0.8774  0.9849 -1.3994
   37MOL0     H 4947  11.083  13.253   1.497  0.9202 -1.6820  1.2392
   37MOL0     H 4948  11.120  13.109   1.398  2.2984 -0.1673  1.1199
   37MOL0     H 4949  10.850  13.088   1.409 -1.0417  0.0958 -2.3998
   37MOL0     H 4950  10.870  13.260   1.443 -0.6454 -1.7844  3.4247
   37MOL0     H 4951  10.996  13.103   1.212  1.3316  0.5789 -0.4701
   37MOL0     H 4952  11.030  13.275   1.229  1.3679 -1.0609  3.8770
   37MOL0     H 4953  10.772  13.310   1.202  2.4837  3.1589 -3.9599
   37MOL0     H 4954  10.773  13.134   1.152  1.9648 -1.4602  1.3589
   37MOL0     H 4955  10.930  13.369   0.829  0.9806  0.6604 -0.9088
   37MOL0     H 4956  11.074  13.280   0.654 -0.1811  0.2614  0.9466
   37MOL0     H 4957  11.463  12.828   0.616  0.1141 -0.4707  0.0571
   37MOL0     H 4958  11.567  12.712   0.464 -0.3940  3.0863  1.6579
   37MOL0     H 4959  11.542  12.498   0.412  0.0814 -1.5805  0.3041
   37MOL0     H 4960  11.378  12.444   0.367 -1.7033  0.3561 -4.3081
   37MOL0     H 4961  11.500  12.368   0.154 -1.4768  1.9050  1.4843
   37MOL0     H 4962  11.650  12.389   0.236  0.1927 -1.3645 -1.2047
   37MOL0     H 4963  11.587  12.252   0.420  1.7516  0.1126 -0.5754
   37MOL0     H 4964  11.431  12.218   0.339  0.4253 -0.0063  3.1782
   37MOL0     H 4965  11.723  12.143   0.280 -0.4065 -2.0663  4.0059
   37MOL0     H 4966  11.614  12.116   0.149 -0.6444  0.3423 -0.2728
   37MOL0     H 4967  11.474  11.985   0.300 -1.1119  1.1135  3.1708
   37MOL0     H 4968  11.586  11.998   0.436 -1.0789 -1.5059  0.4883
   37MOL0     H 4969  11.685  11.884   0.169 -3.0806 -4.1197 -0.1665
   37MOL0     H 4970  11.752  11.882   0.328  1.2954 -0.2243 -0.6146
   37MOL0     H 4971  11.497  11.735   0.205  0.7582  2.0547 -1.3398
   37MOL0     H 4972  11.544  11.743   0.380  1.6907 -2.0681  1.1723
   37MOL0     H 4973  11.704  11.594   0.168 -2.9783 -3.1874 -0.6142
   37MOL0     H 4974  11.758  11.629   0.328  0.4502  1.6822 -2.4364
   37MOL0     H 4975  11.197  12.692   0.233  1.0551  0.2523 -1.0844
   37MOL0     H 4976  11.098  12.853   0.387  0.8844  2.2069 -1.3019
   37MOL0     H 4977  11.083  12.896   0.847  0.7782  0.3942 -0.7645
   37MOL0     H 4978  10.938  12.983   1.031 -1.7852  0.6932 -0.8107
   37MOL0     H 4979  10.803  11.825   2.064 -0.3971 -3.5127 -0.8781
   37MOL0     H 4980  10.840  11.604   2.159  0.4180  0.2683 -0.2390
   37MOL0     H 4981  10.960  11.318   2.393 -0.5531 -0.2411 -2.5946
   37MOL0     H 4982  10.991  11.099   2.494 -0.8370 -1.4965  0.5506
   37MOL0     H 4983  11.028  10.877   2.506  2.3411 -3.9671  1.1294
   37MOL0     H 4984  10.946  10.754   2.559  2.1609 -0.1096 -1.2266
   37MOL0     H 4985  10.962  11.037   2.711 -1.9843  0.5756  0.8884
   37MOL0     H 4986  11.076  10.906   2.734 -0.2035 -0.2714 -0.2410
   37MOL0     H 4987  10.778  10.879   2.791 -0.0008 -1.1447 -0.3116
   37MOL0     H 4988  10.883  10.968   2.898 -0.1470  0.5305 -0.1616
   37MOL0     H 4989  10.868  10.708   2.966  1.5061  3.5569  4.5457
   37MOL0     H 4990  10.963  10.674   2.811  2.2550  3.1344 -3.2461
   37MOL0     H 4991  11.256  10.851   3.048  1.2388  0.2845 -1.4769
   37MOL0     H 4992  10.584  11.005   2.493  1.5115 -0.9582  2.9660
   37MOL0     H 4993  10.423  11.177   2.465 -0.1889 -0.9171 -0.7050
   37MOL0     H 4994  10.480  11.348   2.443 -0.6140  0.5768 -1.6457
   37MOL0     H 4995  10.471  11.239   2.307 -2.4700  1.2572  1.1385
   38MOL0     O 4996   4.921   1.315  10.299 -0.4913  0.5407  0.5531
   38MOL0     C 4997   4.882   1.225  10.374 -0.8528  0.0888 -0.1723
   38MOL0     O 4998   4.955   1.132  10.435  0.4109 -0.0440 -0.4783
   38MOL0     C 4999   5.090   1.144  10.442 -0.4773 -0.1707 -0.7647
   38MOL0     C 5000   5.166   1.048  10.376 -0.3362  0.0285  0.0009
   38MOL0     C 5001   5.306   1.043  10.372  0.2088 -0.3077 -0.5844
   38MOL0     C 5002   5.372   1.140  10.455  0.8103  1.1976 -0.1927
   38MOL0     O 5003   5.511   1.125  10.475  0.0133  0.0763  0.5906
   38MOL0     C 5004   5.591   1.243  10.487  0.4621 -0.1579 -0.4368
   38MOL0     C 5005   5.725   1.203  10.438 -0.0624  0.0504  0.5438
   38MOL0     C 5006   5.775   1.069  10.489 -0.5072 -1.1042  0.9047
   38MOL0     C 5007   5.771   1.059  10.643  0.3988  0.1505  0.2049
   38MOL0     C 5008   5.875   0.955  10.697  0.8155  0.5838  0.6161
   38MOL0     C 5009   5.902   0.963  10.844  0.0500  0.0518  1.0751
   38MOL0     C 5010   5.955   0.827  10.901  0.6870 -0.1727  0.2054
   38MOL0     C 5011   6.028   0.868  11.030 -0.0556 -0.2401 -0.0484
   38MOL0     N 5012   6.083   0.748  11.088  0.0480  0.4189 -0.3374
   38MOL0     C 5013   6.010   0.646  11.140  0.3514  1.0990  0.3946
   38MOL0     C 5014   6.094   0.542  11.162 -0.5452 -1.0576 -1.2375
   38MOL0     C 5015   6.057   0.411  11.209  0.2410 -0.5491  0.1523
   38MOL0     C 5016   6.185   0.327  11.238 -0.0083  0.1638  0.0622
   38MOL0     C 5017   6.153   0.177  11.282 -0.7470  0.8693  0.7648
   38MOL0     C 5018   6.277   0.106  11.321 -0.2071  0.7275  0.0073
   38MOL0     O 5019   6.233  -0.021  11.369 -0.8378 -0.1220  0.0163
   38MOL0     C 5020   6.211  -0.042  11.505 -0.5697  0.5551 -0.0832
   38MOL0     C 5021   6.193   0.068  11.601  0.0380 -0.2360  0.1710
   38MOL0     C 5022   6.130   0.035  11.723 -0.2928  0.1236  0.3351
   38MOL0     C 5023   6.098  -0.094  11.770  0.4549  1.0410  0.1826
   38MOL0     C 5024   6.059  -0.126  11.908 -1.0818  0.0709 -0.2139
   38MOL0     O 5025   6.047  -0.025  11.991 -1.2341  0.2234  0.5820
   38MOL0     C 5026   6.073  -0.054  12.126 -0.1708 -0.0990  0.6651
   38MOL0     C 5027   6.170   0.029  12.177  0.4071  0.6511 -0.6793
   38MOL0     C 5028   6.222   0.010  12.303  0.7252 -0.1735 -1.8962
   38MOL0     C 5029   6.179  -0.096  12.387  0.1985  0.7599  0.5143
   38MOL0     O 5030   6.234  -0.107  12.512  0.0687  0.5294  0.0409
   38MOL0     C 5031   6.182  -0.204  12.604  0.7714  0.3096  0.5515
   38MOL0     C 5032   6.252  -0.226  12.742 -1.2240  0.0832  1.0313
   38MOL0     C 5033   6.249  -0.097  12.823 -0.2232  1.0661  0.5548
   38MOL0     C 5034   6.108  -0.089  12.888  0.3298 -0.3898  0.6330
   38MOL0     C 5035   6.100   0.025  12.989  0.2165  0.9524 -0.3605
   38MOL0     C 5036   5.956   0.071  13.010 -0.2511 -0.0968  0.2875
   38MOL0     C 5037   5.970   0.179  13.116  0.0244  0.3103 -0.7277
   38MOL0     C 5038   5.836   0.255  13.140  0.9663 -0.0348  0.0202
   38MOL0    Cl 5039   5.678   0.168  13.156 -0.1132  0.2597  0.0640
   38MOL0     C 5040   6.084  -0.179  12.329  0.4227 -0.1525  0.1951
   38MOL0     C 5041   6.019  -0.166  12.198 -0.2712  0.0908 -0.1306
   38MOL0     O 5042   6.068  -0.245  11.937  0.0787 -0.0448 -0.3019
   38MOL0     C 5043   6.119  -0.197  11.671  0.2152 -0.3958  0.0933
   38MOL0     C 5044   6.172  -0.174  11.541 -0.2867  0.6639 -0.6096
   38MOL0     N 5045   6.217   0.593  11.135 -0.3477 -0.7024  0.5337
   38MOL0     N 5046   6.214   0.715  11.088 -0.0957  0.2325 -0.0469
   38MOL0     C 5047   5.295   1.242  10.520 -0.5983 -0.1311 -0.0903
   38MOL0     C 5048   5.163   1.237  10.516  0.4301  0.1930  0.3951
   38MOL0     C 5049   4.733   1.223  10.404 -0.5550  0.5817  0.0673
   38MOL0     C 5050   4.689   1.100  10.461 -0.1889 -0.3331 -0.6015
   38MOL0     C 5051   4.551   1.075  10.489 -0.4281 -0.0992 -0.4974
   38MOL0     C 5052   4.458   1.178  10.463  0.5975  0.5346  0.0571
   38MOL0     O 5053   4.317   1.169  10.494  0.6274 -0.7379  0.2489
   38MOL0     C 5054   4.274   1.275  10.590  0.0370  0.0432  0.0732
   38MOL0     C 5055   4.171   1.384  10.534 -1.9188 -0.0622 -0.5843
   38MOL0     C 5056   4.101   1.471  10.640  0.8755 -0.1322 -0.8308
   38MOL0     C 5057   3.978   1.539  10.575 -0.2779 -0.7833  0.3171
   38MOL0     C 5058   4.013   1.672  10.516  0.1071 -0.0966 -0.5568
   38MOL0     C 5059   4.017   1.785  10.471 -0.3633  0.9122 -0.0454
   38MOL0     C 5060   4.503   1.298  10.416 -0.3395 -0.6071 -0.2970
   38MOL0     C 5061   4.633   1.330  10.388 -1.0226  0.1506 -0.3169
   38MOL0     C 5062   4.656   1.471  10.359  0.8056 -0.1690 -0.4395
   38MOL0     H 5063   5.123   0.964  10.323  0.4108  0.0708 -0.7018
   38MOL0     H 5064   5.361   0.955  10.340  1.6745 -0.2473  1.5749
   38MOL0     H 5065   5.550   1.327  10.430 -0.0359  1.9192  2.7200
   38MOL0     H 5066   5.584   1.271  10.592 -5.5932 -1.9220 -0.0145
   38MOL0     H 5067   5.797   1.283  10.458 -1.8719  1.6207  1.0925
   38MOL0     H 5068   5.720   1.187  10.330  2.8106 -1.6108  0.5593
   38MOL0     H 5069   5.877   1.059  10.451  0.2881  2.9196  1.5404
   38MOL0     H 5070   5.707   0.992  10.451  0.1449 -1.0956 -0.3226
   38MOL0     H 5071   5.806   1.152  10.688  0.4186  0.1535  0.1833
   38MOL0     H 5072   5.668   1.032  10.669  0.6616  0.0882  1.2050
   38MOL0     H 5073   5.838   0.857  10.663 -3.0897  2.3362 -0.8402
   38MOL0     H 5074   5.967   0.970  10.640 -0.3981 -1.2680 -2.0408
   38MOL0     H 5075   5.992   1.025  10.851 -0.5685  0.8701  2.2995
   38MOL0     H 5076   5.827   1.010  10.909 -1.1816  1.1329 -1.0451
   38MOL0     H 5077   6.021   0.789  10.822 -0.5646  0.8866 -1.4233
   38MOL0     H 5078   5.873   0.757  10.914  0.9140 -0.4917 -0.0634
   38MOL0     H 5079   6.112   0.931  10.998  0.8136 -1.0332  0.6087
   38MOL0     H 5080   5.960   0.926  11.092  0.1911  1.1778 -1.0513
   38MOL0     H 5081   5.905   0.649  11.169  0.7679 -0.7336  2.3277
   38MOL0     H 5082   5.985   0.416  11.291 -2.7135 -0.1991 -2.3128
   38MOL0     H 5083   5.997   0.363  11.132 -0.3049 -2.2567  1.5702
   38MOL0     H 5084   6.260   0.326  11.158  0.7473  0.6257  0.7489
   38MOL0     H 5085   6.235   0.374  11.324  1.1059  2.3588 -1.6833
   38MOL0     H 5086   6.122   0.124  11.192  2.2326 -2.1303  1.3080
   38MOL0     H 5087   6.076   0.178  11.360  1.2809 -3.1736  3.1755
   38MOL0     H 5088   6.323   0.161  11.403 -3.3555 -0.2650  2.6624
   38MOL0     H 5089   6.350   0.096  11.241  0.0068  1.5628  0.0910
   38MOL0     H 5090   6.195   0.169  11.562 -0.2563 -1.8480 -4.6975
   38MOL0     H 5091   6.106   0.121  11.784 -2.2240 -0.8176  0.9796
   38MOL0     H 5092   6.204   0.102  12.105  4.7452  0.0104  0.4433
   38MOL0     H 5093   6.298   0.068  12.353 -1.7467  0.1523  1.9256
   38MOL0     H 5094   6.074  -0.191  12.614  0.6957  1.9322 -1.6050
   38MOL0     H 5095   6.193  -0.296  12.547  3.8849  0.8719  0.0334
   38MOL0     H 5096   6.216  -0.315  12.794  0.6700  0.7988  3.8066
   38MOL0     H 5097   6.357  -0.252  12.725 -1.5412 -1.2092  0.9549
   38MOL0     H 5098   6.332  -0.091  12.894 -0.1220  1.2071  0.4274
   38MOL0     H 5099   6.258  -0.022  12.744 -2.5863 -0.2918 -1.1232
   38MOL0     H 5100   6.079  -0.178  12.945  2.2580 -2.3085 -1.1663
   38MOL0     H 5101   6.030  -0.066  12.815  0.0212  1.1449  1.4062
   38MOL0     H 5102   6.163   0.111  12.966 -0.3226  2.1534  2.2592
   38MOL0     H 5103   6.142  -0.014  13.083  1.7798 -0.3182 -1.5262
   38MOL0     H 5104   5.905   0.097  12.917 -0.2961 -1.5367 -0.1220
   38MOL0     H 5105   5.904  -0.017  13.050  1.4341 -0.7089  1.2500
   38MOL0     H 5106   6.049   0.251  13.092 -0.2402  0.7327 -0.3497
   38MOL0     H 5107   5.999   0.136  13.213  1.1461 -0.3073 -1.3058
   38MOL0     H 5108   5.856   0.322  13.225 -3.9053 -0.5913  1.9166
   38MOL0     H 5109   5.820   0.330  13.061  4.0932  1.4325  0.6084
   38MOL0     H 5110   6.035  -0.261  12.381 -2.7728  2.7697  2.2122
   38MOL0     H 5111   5.942  -0.230  12.156  0.8176  0.6527 -3.2745
   38MOL0     H 5112   6.086  -0.299  11.686  0.1554 -0.3226  0.4779
   38MOL0     H 5113   6.172  -0.261  11.475  1.4485  0.8164 -0.8564
   38MOL0     H 5114   5.357   1.311  10.576  1.0617 -0.0947 -1.8636
   38MOL0     H 5115   5.099   1.295  10.583  0.3535 -0.5545  0.9810
   38MOL0     H 5116   4.757   1.020  10.490 -0.8361 -0.4970  0.5484
   38MOL0     H 5117   4.519   0.985  10.540  0.1468  0.0669  0.1845
   38MOL0     H 5118   4.366   1.314  10.634  0.8619 -0.7788 -0.8709
   38MOL0     H 5119   4.217   1.213  10.660 -2.3460  2.6683  0.6498
   38MOL0     H 5120   4.089   1.319  10.502 -0.1578 -1.5269 -2.3583
   38MOL0     H 5121   4.224   1.438  10.455 -0.2170 -2.6431 -1.3105
   38MOL0     H 5122   4.170   1.532  10.699 -0.6734  0.4777  0.4389
   38MOL0     H 5123   4.054   1.403  10.712 -1.7065  1.1287 -1.1909
   38MOL0     H 5124   3.940   1.474  10.496  1.5413 -0.4731 -0.8773
   38MOL0     H 5125   3.896   1.555  10.646  0.8684 -1.6502  1.8845
   38MOL0     H 5126   3.994   1.882  10.433  0.9439  1.7052  1.0999
   38MOL0     H 5127   4.421   1.367  10.400  0.9998  2.0533  3.0932
   38MOL0     H 5128   4.736   1.507  10.425 -0.3862  1.9188 -0.0258
   38MOL0     H 5129   4.696   1.489  10.259 -0.5392  0.5105 -0.8863
   38MOL0     H 5130   4.569   1.536  10.375 -0.3338 -1.9792  1.0704
   39MOL0     O 5131   8.965   0.503   5.902  0.7800  0.3634 -0.4579
   39MOL0     C 5132   9.006   0.421   5.818 -0.1366 -0.0648 -0.3031
   39MOL0     O 5133   9.064   0.459   5.699  0.0549  0.4077  0.5301
   39MOL0     C 5134   9.049   0.588   5.650  0.6889  0.1102 -0.5523
   39MOL0     C 5135   9.162   0.668   5.630 -0.7412  0.1145 -0.3555
   39MOL0     C 5136   9.148   0.798   5.583 -0.3749 -0.1023 -0.2452
   39MOL0     C 5137   9.015   0.843   5.547  0.3117  0.4367 -0.3320
   39MOL0     O 5138   9.002   0.977   5.514 -0.5462  0.2548  0.1394
   39MOL0     C 5139   8.915   1.014   5.408  0.1997 -0.0315  0.7178
   39MOL0     C 5140   8.953   1.151   5.344 -0.7649  0.0613 -0.3154
   39MOL0     C 5141   9.099   1.143   5.278  0.1970 -0.6393 -0.1485
   39MOL0     C 5142   9.100   1.055   5.153  0.5880  0.1313  0.2492
   39MOL0     C 5143   9.234   1.039   5.090 -0.1901  0.4104 -0.1540
   39MOL0     C 5144   9.317   0.942   5.179  0.2732 -0.2483 -0.3832
   39MOL0     C 5145   9.445   0.908   5.106  0.5307 -0.8993  0.6296
   39MOL0     C 5146   9.569   0.876   5.194  0.3878 -0.6998  1.2425
   39MOL0     N 5147   9.545   0.758   5.278 -0.0775  0.5117 -0.2870
   39MOL0     C 5148   9.518   0.625   5.254  0.1827 -0.1133 -0.4314
   39MOL0     C 5149   9.485   0.577   5.377 -0.3509  0.3517 -0.2819
   39MOL0     C 5150   9.451   0.433   5.427 -0.0313 -0.6364  0.3907
   39MOL0     C 5151   9.400   0.340   5.318 -0.7276  0.0666 -0.6722
   39MOL0     C 5152   9.244   0.346   5.290  0.1365 -0.5352  1.0071
   39MOL0     C 5153   9.178   0.477   5.250  0.4383 -1.3310  0.0508
   39MOL0     O 5154   9.238   0.540   5.130  0.7835  1.1721 -0.1666
   39MOL0     C 5155   9.167   0.630   5.050 -0.1957 -0.3773  0.4758
   39MOL0     C 5156   9.226   0.675   4.931 -0.2582  0.2685 -0.4176
   39MOL0     C 5157   9.166   0.762   4.849 -0.6407  0.2191  0.5075
   39MOL0     C 5158   9.039   0.810   4.880  0.9553 -0.3257  0.0992
   39MOL0     C 5159   8.971   0.905   4.793  1.4077  0.1227 -1.7002
   39MOL0     O 5160   8.875   0.975   4.851  0.0072  0.3958  0.7028
   39MOL0     C 5161   8.786   1.047   4.787  0.8548 -0.4939  0.2922
   39MOL0     C 5162   8.675   1.064   4.871 -0.3847  0.7862  0.9848
   39MOL0     C 5163   8.553   1.126   4.829 -0.5109 -0.1464 -0.5779
   39MOL0     C 5164   8.553   1.179   4.695  0.7449 -0.5436 -0.7250
   39MOL0     O 5165   8.452   1.255   4.652  0.2594  0.0661 -0.8485
   39MOL0     C 5166   8.383   1.205   4.540  0.3442  0.3912  0.1171
   39MOL0     C 5167   8.269   1.294   4.518  0.0870 -0.3626 -0.5464
   39MOL0     C 5168   8.202   1.273   4.378 -1.0199 -0.2213 -0.2197
   39MOL0     C 5169   8.067   1.347   4.385  1.1020  0.1436  0.3474
   39MOL0     C 5170   8.007   1.365   4.236  0.5217  0.8184  0.2720
   39MOL0     C 5171   7.891   1.472   4.227  0.5391  0.1866  0.3593
   39MOL0     C 5172   7.820   1.473   4.095 -1.0312  1.0288 -0.5490
   39MOL0     C 5173   7.728   1.598   4.067  0.4811 -0.4010 -0.2788
   39MOL0    Cl 5174   7.692   1.713   4.215  0.2852 -0.0056  0.0384
   39MOL0     C 5175   8.660   1.160   4.615 -0.2416 -0.0679  0.2686
   39MOL0     C 5176   8.780   1.099   4.656  0.1699  0.6247  0.6908
   39MOL0     O 5177   9.005   0.918   4.678  0.2717  0.4242 -0.6859
   39MOL0     C 5178   8.980   0.776   5.007 -1.0215 -0.9546 -0.7199
   39MOL0     C 5179   9.049   0.683   5.083 -0.1104 -0.0069 -0.5124
   39MOL0     N 5180   9.502   0.676   5.479 -0.0029 -0.1918  0.8377
   39MOL0     N 5181   9.548   0.776   5.411 -0.1847  0.1137  0.5640
   39MOL0     C 5182   8.906   0.763   5.568 -1.1351 -0.0664 -0.1845
   39MOL0     C 5183   8.926   0.635   5.620  0.1368 -0.0360  0.1054
   39MOL0     C 5184   9.030   0.279   5.866 -0.7113 -0.5838  0.4508
   39MOL0     C 5185   9.067   0.188   5.768 -0.3061  0.0695 -0.4573
   39MOL0     C 5186   9.083   0.052   5.795 -0.7639  0.8426  0.9414
   39MOL0     C 5187   9.072   0.007   5.929  0.4879  0.5510 -0.0800
   39MOL0     O 5188   9.114  -0.116   5.969 -0.7591  0.5085 -0.8206
   39MOL0     C 5189   9.102  -0.226   5.872 -0.4575 -0.9892 -0.2279
   39MOL0     C 5190   9.244  -0.273   5.837 -0.6575  0.1897  0.0116
   39MOL0     C 5191   9.299  -0.370   5.943 -0.4380 -0.0122  0.5321
   39MOL0     C 5192   9.417  -0.313   6.016  0.0700  0.2492 -0.7026
   39MOL0     C 5193   9.373  -0.250   6.144 -0.6106  0.9994  0.1778
   39MOL0     C 5194   9.357  -0.181   6.244  0.5345  0.3015 -0.7630
   39MOL0     C 5195   9.038   0.097   6.031  0.3335  0.1286 -0.5466
   39MOL0     C 5196   9.002   0.233   6.001 -0.5201  0.6687  0.4967
   39MOL0     C 5197   8.930   0.318   6.108  0.9084 -0.4258  0.6464
   39MOL0     H 5198   9.262   0.630   5.646  0.3881  3.0001 -0.0163
   39MOL0     H 5199   9.229   0.870   5.582 -0.3782 -0.0550  1.0762
   39MOL0     H 5200   8.916   0.945   5.323 -1.8013  1.3501 -0.5174
   39MOL0     H 5201   8.817   1.037   5.451  0.6056  1.9709  0.6643
   39MOL0     H 5202   8.952   1.225   5.425 -2.4314 -0.4198  0.1355
   39MOL0     H 5203   8.878   1.186   5.273 -0.4139  2.8211  0.5661
   39MOL0     H 5204   9.184   1.109   5.338  1.8162 -0.5572 -2.2737
   39MOL0     H 5205   9.123   1.247   5.255  1.1931 -0.7763  0.2565
   39MOL0     H 5206   9.053   0.961   5.185 -0.6033  1.4089  2.4831
   39MOL0     H 5207   9.036   1.099   5.076 -1.1203 -1.3718  0.7351
   39MOL0     H 5208   9.233   1.011   4.985  0.9150 -0.0860 -0.0496
   39MOL0     H 5209   9.280   1.139   5.095 -1.1840  0.8038  2.3051
   39MOL0     H 5210   9.348   0.999   5.267 -3.5028  3.7649 -1.2975
   39MOL0     H 5211   9.262   0.852   5.208 -1.9031  1.8060  2.5580
   39MOL0     H 5212   9.476   0.978   5.028  1.7934  2.3558  3.7883
   39MOL0     H 5213   9.436   0.816   5.048 -3.7915  0.2414 -0.8059
   39MOL0     H 5214   9.654   0.864   5.126  1.4369 -0.0330  2.4129
   39MOL0     H 5215   9.597   0.965   5.250  1.5492 -0.3224  0.1024
   39MOL0     H 5216   9.542   0.570   5.163  3.4491  0.2047  0.1011
   39MOL0     H 5217   9.542   0.391   5.471  0.5931  0.6213  0.3343
   39MOL0     H 5218   9.386   0.441   5.514  0.7273 -2.1639  1.1339
   39MOL0     H 5219   9.437   0.364   5.218 -1.8659 -2.5769 -1.8341
   39MOL0     H 5220   9.437   0.239   5.339 -2.1666 -0.2943  0.2644
   39MOL0     H 5221   9.187   0.314   5.377 -1.9130  2.1291  0.7587
   39MOL0     H 5222   9.233   0.283   5.201  2.4425 -1.4939  1.3116
   39MOL0     H 5223   9.192   0.559   5.322 -1.1578  1.4523 -2.5943
   39MOL0     H 5224   9.070   0.459   5.247 -0.0049  0.9165  0.7057
   39MOL0     H 5225   9.326   0.638   4.913  0.0046  1.8073 -2.5496
   39MOL0     H 5226   9.213   0.804   4.760  0.8056 -0.1199  1.0843
   39MOL0     H 5227   8.704   1.027   4.969  0.7613 -1.2666 -0.0674
   39MOL0     H 5228   8.478   1.147   4.904  1.5580  0.4034  1.4581
   39MOL0     H 5229   8.450   1.217   4.455  2.5911  2.1114  2.0099
   39MOL0     H 5230   8.355   1.101   4.562 -1.0438  0.1968 -2.2713
   39MOL0     H 5231   8.200   1.289   4.603 -0.3598  1.5895 -0.7561
   39MOL0     H 5232   8.312   1.394   4.530  0.8087 -0.7550  0.3228
   39MOL0     H 5233   8.260   1.323   4.301 -0.2881  1.4356  1.3339
   39MOL0     H 5234   8.189   1.167   4.354 -3.2444 -0.4613  1.6883
   39MOL0     H 5235   8.077   1.445   4.434  1.0232  0.4824 -0.3065
   39MOL0     H 5236   8.009   1.285   4.454 -0.3697  0.7139 -0.3449
   39MOL0     H 5237   7.979   1.268   4.196  0.1487  2.1257 -2.9466
   39MOL0     H 5238   8.095   1.405   4.184 -1.0016  4.0673 -0.0606
   39MOL0     H 5239   7.818   1.442   4.303 -1.7314 -0.8342 -2.0347
   39MOL0     H 5240   7.925   1.573   4.251 -1.6120  0.7173  1.4893
   39MOL0     H 5241   7.757   1.384   4.098  0.0385  0.2839  0.9569
   39MOL0     H 5242   7.896   1.489   4.018 -0.0967  5.3548  0.9651
   39MOL0     H 5243   7.760   1.662   3.984 -2.8682  2.6791  0.5330
   39MOL0     H 5244   7.632   1.562   4.028 -0.3242  0.1580  1.1217
   39MOL0     H 5245   8.667   1.198   4.513 -3.8267 -0.7736 -0.3864
   39MOL0     H 5246   8.858   1.102   4.581 -0.9976  2.2802 -0.5231
   39MOL0     H 5247   8.886   0.819   5.041 -0.0893 -0.8003  1.7873
   39MOL0     H 5248   9.001   0.656   5.176  4.9383 -0.8923  2.2140
   39MOL0     H 5249   8.809   0.807   5.548 -1.3567  1.1292  2.9572
   39MOL0     H 5250   8.834   0.582   5.640  2.1673 -3.1154  2.1295
   39MOL0     H 5251   9.074   0.214   5.663 -3.8302 -0.8635 -1.0768
   39MOL0     H 5252   9.112  -0.011   5.711 -3.2755  1.1853 -0.2908
   39MOL0     H 5253   9.040  -0.203   5.785 -2.5780  0.8462  1.6401
   39MOL0     H 5254   9.037  -0.299   5.921 -1.2065 -0.8670 -1.0216
   39MOL0     H 5255   9.300  -0.179   5.833 -1.5866  0.7193 -0.9878
   39MOL0     H 5256   9.250  -0.322   5.739  1.2747 -0.2448  0.2929
   39MOL0     H 5257   9.330  -0.460   5.890 -1.9041 -0.3347  0.1705
   39MOL0     H 5258   9.219  -0.390   6.014  0.6680 -2.3230  1.2138
   39MOL0     H 5259   9.495  -0.387   6.034  0.6175  0.7506 -0.9562
   39MOL0     H 5260   9.459  -0.235   5.951 -3.8640  0.7517 -2.9506
   39MOL0     H 5261   9.338  -0.133   6.338  0.2031 -3.4144  1.2342
   39MOL0     H 5262   9.026   0.070   6.136  1.5381 -2.6259 -1.0207
   39MOL0     H 5263   8.841   0.374   6.076  2.4143  3.6964  2.8692
   39MOL0     H 5264   8.891   0.256   6.190  0.4562 -0.1495  0.6482
   39MOL0     H 5265   8.986   0.399   6.156  0.0955  0.5700 -0.0380
   40MOL0     O 5266   7.217   1.222   6.405  0.1424  0.3197  0.0268
   40MOL0     C 5267   7.276   1.150   6.323  0.7290  0.2095 -0.5746
   40MOL0     O 5268   7.225   1.114   6.195  0.5204 -0.4972 -0.1795
   40MOL0     C 5269   7.127   1.203   6.146 -0.8979  0.0824  0.8009
   40MOL0     C 5270   7.154   1.341   6.126 -0.1687  0.6420  1.0143
   40MOL0     C 5271   7.066   1.424   6.066  0.1635  1.0552  0.4173
   40MOL0     C 5272   6.931   1.372   6.042  0.3412  0.4375 -0.0220
   40MOL0     O 5273   6.837   1.450   5.977  0.9099  0.3877 -0.1555
   40MOL0     C 5274   6.720   1.382   5.908 -1.1572  0.6984  0.1693
   40MOL0     C 5275   6.665   1.485   5.811  0.9578 -0.0817 -0.2294
   40MOL0     C 5276   6.717   1.470   5.671  0.0504 -0.3055  1.2043
   40MOL0     C 5277   6.683   1.593   5.587  0.2746 -0.2638 -0.3186
   40MOL0     C 5278   6.551   1.579   5.514 -0.1415 -0.1593 -0.6054
   40MOL0     C 5279   6.500   1.711   5.456  1.0921 -0.4466 -0.0829
   40MOL0     C 5280   6.390   1.691   5.350 -0.0673 -0.6610 -0.3651
   40MOL0     C 5281   6.254   1.633   5.386 -0.3434 -0.0115 -0.5341
   40MOL0     N 5282   6.228   1.522   5.299  0.6834 -0.5341  0.6768
   40MOL0     C 5283   6.290   1.398   5.297 -0.1851 -0.3515 -0.1240
   40MOL0     C 5284   6.285   1.366   5.164 -0.1019 -0.1775  0.1340
   40MOL0     C 5285   6.331   1.230   5.117 -0.6939  0.1590 -0.8797
   40MOL0     C 5286   6.266   1.201   4.976  0.1125  0.0728  0.2360
   40MOL0     C 5287   6.316   1.077   4.920 -0.3063 -0.5034  0.8043
   40MOL0     C 5288   6.285   1.075   4.760  0.2106  0.7017 -0.5236
   40MOL0     O 5289   6.268   0.944   4.703  0.1826 -0.2101  0.0117
   40MOL0     C 5290   6.160   0.873   4.759 -0.5753 -0.9159  0.0053
   40MOL0     C 5291   6.164   0.732   4.762 -0.0488  0.3483  0.7074
   40MOL0     C 5292   6.059   0.661   4.815 -0.3179  0.0449  0.1191
   40MOL0     C 5293   5.938   0.721   4.858 -0.0108  0.3300  0.1752
   40MOL0     C 5294   5.828   0.635   4.905  0.9183  0.6942  0.1848
   40MOL0     O 5295   5.864   0.523   4.973  0.0254  0.1319  0.5584
   40MOL0     C 5296   5.779   0.439   5.043  0.0963 -0.6596  0.3083
   40MOL0     C 5297   5.848   0.350   5.133 -0.6348 -1.2301  0.2672
   40MOL0     C 5298   5.774   0.276   5.228  1.4546  0.1557  0.9030
   40MOL0     C 5299   5.629   0.278   5.218 -0.3210  1.1649  0.5535
   40MOL0     O 5300   5.542   0.194   5.291 -0.1676 -0.2763 -0.0647
   40MOL0     C 5301   5.589   0.091   5.377 -0.5881  0.4504 -0.4037
   40MOL0     C 5302   5.472   0.020   5.432  1.0564  0.2464 -0.4333
   40MOL0     C 5303   5.381  -0.047   5.313 -0.4691  0.8687  0.0653
   40MOL0     C 5304   5.295  -0.150   5.370  0.2317  1.2795 -0.9579
   40MOL0     C 5305   5.206  -0.232   5.271 -0.4414 -0.3692 -0.2091
   40MOL0     C 5306   5.155  -0.374   5.322  0.3707  0.0960  0.1200
   40MOL0     C 5307   5.074  -0.362   5.452 -0.0840  0.7617 -0.5590
   40MOL0     C 5308   4.956  -0.265   5.455 -0.0950  0.5556  0.4234
   40MOL0    Cl 5309   4.835  -0.336   5.356 -0.0788 -0.2530  0.0937
   40MOL0     C 5310   5.565   0.342   5.112  1.2515 -0.0438 -0.5412
   40MOL0     C 5311   5.635   0.433   5.034 -0.2990  1.3432 -0.0979
   40MOL0     O 5312   5.710   0.680   4.890 -0.1173  0.8216 -0.1184
   40MOL0     C 5313   5.928   0.862   4.864 -0.2037  0.1173  1.8359
   40MOL0     C 5314   6.045   0.936   4.817  0.6032  0.2116  0.1327
   40MOL0     N 5315   6.203   1.454   5.095 -0.3850 -0.2110 -0.6655
   40MOL0     N 5316   6.169   1.547   5.183 -0.5215  0.0647  0.0353
   40MOL0     C 5317   6.905   1.236   6.074  0.8238 -0.2694 -0.0900
   40MOL0     C 5318   7.004   1.154   6.113  0.0429  0.3170  0.6495
   40MOL0     C 5319   7.400   1.072   6.367  0.1624 -1.0520  0.0023
   40MOL0     C 5320   7.433   0.957   6.276  0.6109  1.0739  0.0522
   40MOL0     C 5321   7.541   0.870   6.312  0.6215  0.3643  0.4093
   40MOL0     C 5322   7.612   0.902   6.426  0.5978  0.4064 -0.6136
   40MOL0     O 5323   7.711   0.816   6.456  0.1216  0.6066 -0.3545
   40MOL0     C 5324   7.822   0.871   6.519 -0.5477 -0.0023 -0.2398
   40MOL0     C 5325   7.955   0.785   6.496 -0.2813  0.0902  0.2705
   40MOL0     C 5326   8.085   0.853   6.555 -0.3645 -0.3122  0.1963
   40MOL0     C 5327   8.211   0.791   6.498  0.9987  0.1160  0.3546
   40MOL0     C 5328   8.330   0.862   6.532 -1.1945  0.1620 -0.2191
   40MOL0     C 5329   8.425   0.925   6.567  0.0110 -0.5319  0.2748
   40MOL0     C 5330   7.582   1.016   6.502  0.4418  0.8267  0.2877
   40MOL0     C 5331   7.473   1.097   6.478  0.2374 -0.2614  0.4670
   40MOL0     C 5332   7.456   1.218   6.560  1.0703 -0.5632  0.6538
   40MOL0     H 5333   7.250   1.379   6.161 -0.2468  3.1608 -1.2651
   40MOL0     H 5334   7.092   1.528   6.052 -1.3760  1.0436 -3.6837
   40MOL0     H 5335   6.763   1.296   5.855  1.0962  2.0993 -0.3825
   40MOL0     H 5336   6.641   1.348   5.976 -1.8754  1.1378 -0.4290
   40MOL0     H 5337   6.702   1.581   5.848 -3.9068  1.5201  1.2823
   40MOL0     H 5338   6.556   1.495   5.816  0.7966 -1.8534  4.6450
   40MOL0     H 5339   6.675   1.376   5.635  0.0466  0.0112  0.3516
   40MOL0     H 5340   6.826   1.471   5.679 -0.0039  0.6424  1.9766
   40MOL0     H 5341   6.681   1.681   5.651 -1.0106 -1.8392  1.9764
   40MOL0     H 5342   6.759   1.608   5.510  1.6556  0.5204  1.1365
   40MOL0     H 5343   6.555   1.501   5.437  1.4608  0.5007 -1.2352
   40MOL0     H 5344   6.476   1.538   5.582  0.4476 -0.1000  0.0882
   40MOL0     H 5345   6.449   1.770   5.534 -2.9053 -3.8167  0.2088
   40MOL0     H 5346   6.590   1.763   5.423  0.5670 -0.8834 -2.3492
   40MOL0     H 5347   6.437   1.621   5.280  3.0828 -1.0583  1.9306
   40MOL0     H 5348   6.359   1.782   5.298 -0.5142  0.5876  1.9571
   40MOL0     H 5349   6.259   1.607   5.492 -1.1293 -0.8662 -0.7002
   40MOL0     H 5350   6.177   1.709   5.367  0.7347  0.6622 -2.4766
   40MOL0     H 5351   6.336   1.346   5.381 -1.3198  2.9078  2.7794
   40MOL0     H 5352   6.439   1.243   5.127 -1.2032  3.3959  2.8200
   40MOL0     H 5353   6.306   1.151   5.188  1.9848  0.1022  0.1322
   40MOL0     H 5354   6.157   1.204   4.984  0.2191  1.4807  1.9129
   40MOL0     H 5355   6.296   1.283   4.910  0.6490  0.4570  0.9346
   40MOL0     H 5356   6.269   0.991   4.969  1.3689  0.0672  3.6025
   40MOL0     H 5357   6.425   1.071   4.918 -0.0186 -0.8027 -6.0796
   40MOL0     H 5358   6.368   1.119   4.703  0.7898 -0.5983 -0.7177
   40MOL0     H 5359   6.201   1.140   4.731 -1.0101 -1.2805 -1.6433
   40MOL0     H 5360   6.257   0.683   4.737  0.7897  1.0854  2.2038
   40MOL0     H 5361   6.082   0.557   4.834  2.7419  1.0596  2.9220
   40MOL0     H 5362   5.955   0.360   5.150 -0.7438  0.0318  0.2993
   40MOL0     H 5363   5.823   0.204   5.292 -2.6814 -2.8080  1.1212
   40MOL0     H 5364   5.642   0.016   5.319  0.6052 -1.5475  2.9644
   40MOL0     H 5365   5.654   0.114   5.462  0.8958 -2.5343 -0.6261
   40MOL0     H 5366   5.502  -0.059   5.502 -4.1053 -1.3103  0.5135
   40MOL0     H 5367   5.404   0.073   5.500 -0.1586 -1.3817 -0.3017
   40MOL0     H 5368   5.317   0.030   5.270 -2.8548 -1.8521 -1.5565
   40MOL0     H 5369   5.440  -0.089   5.231 -0.6270 -1.0753  0.9071
   40MOL0     H 5370   5.223  -0.105   5.439  0.9579  2.9542 -1.2558
   40MOL0     H 5371   5.350  -0.227   5.425 -1.1012 -0.3416 -1.7690
   40MOL0     H 5372   5.255  -0.244   5.174  1.4287 -0.6818  0.7278
   40MOL0     H 5373   5.117  -0.172   5.249  0.7677  1.6703  0.2205
   40MOL0     H 5374   5.097  -0.425   5.245  1.7532  0.4026 -1.1896
   40MOL0     H 5375   5.245  -0.433   5.340 -0.5359 -2.0410 -1.8093
   40MOL0     H 5376   5.133  -0.338   5.541 -0.9678 -2.5834  1.0893
   40MOL0     H 5377   5.045  -0.466   5.468 -3.0104  1.8966  2.6454
   40MOL0     H 5378   4.915  -0.265   5.557  1.4199  0.8173  1.0610
   40MOL0     H 5379   4.994  -0.167   5.425  0.4086  0.8538  1.9551
   40MOL0     H 5380   5.457   0.336   5.116  1.3318 -1.3281  2.8683
   40MOL0     H 5381   5.580   0.482   4.954 -1.3120 -0.8119 -0.8137
   40MOL0     H 5382   5.844   0.917   4.905  1.1823  5.4600 -1.4971
   40MOL0     H 5383   6.033   1.043   4.834  0.5748  0.2583 -0.1783
   40MOL0     H 5384   6.807   1.191   6.064  0.8056 -0.5086  1.0722
   40MOL0     H 5385   6.985   1.047   6.123  1.2441  0.1185  1.0338
   40MOL0     H 5386   7.372   0.937   6.189  2.1675  1.5448 -1.2020
   40MOL0     H 5387   7.568   0.789   6.246  0.4449  1.1916 -0.7199
   40MOL0     H 5388   7.812   0.887   6.627 -1.2560 -1.6403 -0.0390
   40MOL0     H 5389   7.843   0.969   6.474 -2.6685  1.2629  1.3120
   40MOL0     H 5390   7.964   0.780   6.387 -0.0268  3.9849 -0.0105
   40MOL0     H 5391   7.932   0.683   6.530  1.1574 -1.4110 -2.8518
   40MOL0     H 5392   8.092   0.848   6.664 -1.5556 -1.5133  0.2545
   40MOL0     H 5393   8.068   0.959   6.536 -1.2787  0.0159  2.5403
   40MOL0     H 5394   8.231   0.690   6.533  3.5332  0.5444  0.3007
   40MOL0     H 5395   8.212   0.794   6.388  1.5354  1.0410  0.3744
   40MOL0     H 5396   8.509   0.969   6.618  0.5759 -0.9734 -0.2606
   40MOL0     H 5397   7.645   1.038   6.588  0.9818  0.2063  0.0561
   40MOL0     H 5398   7.459   1.309   6.498  4.5256 -0.9265  0.0593
   40MOL0     H 5399   7.369   1.198   6.623 -0.2845 -0.2743 -1.0470
   40MOL0     H 5400   7.551   1.225   6.613  2.0000  1.5291 -1.1035
   41MOL0     O 5401   7.888   7.615   2.744 -0.9445  0.0849 -0.2758
   41MOL0     C 5402   7.917   7.635   2.627 -0.4532 -1.0016  0.2159
   41MOL0     O 5403   7.862   7.560   2.523  0.2180  0.0095  0.0098
   41MOL0     C 5404   7.765   7.460   2.543 -0.5486  0.5970  0.7359
   41MOL0     C 5405   7.635   7.471   2.486  0.2281  0.6541  0.9219
   41MOL0     C 5406   7.542   7.371   2.520 -0.3511 -0.7443 -0.2446
   41MOL0     C 5407   7.567   7.269   2.619  0.2855  0.7957 -0.7934
   41MOL0     O 5408   7.484   7.177   2.670 -0.0138 -0.4995 -0.3828
   41MOL0     C 5409   7.347   7.212   2.649 -0.2035 -0.2699 -0.2324
   41MOL0     C 5410   7.249   7.124   2.712 -0.4690  1.5032 -0.4830
   41MOL0     C 5411   7.239   7.140   2.862 -0.2930  0.3486  0.5903
   41MOL0     C 5412   7.125   7.055   2.925  0.4572 -0.0300 -0.1313
   41MOL0     C 5413   7.123   7.089   3.082  1.6752 -0.0359 -0.5346
   41MOL0     C 5414   6.985   7.062   3.138  0.4836 -0.3990  0.4772
   41MOL0     C 5415   6.939   6.913   3.141 -0.4784  0.0305  0.0885
   41MOL0     C 5416   7.014   6.814   3.223 -0.0962  0.3427  0.0869
   41MOL0     N 5417   6.977   6.821   3.364 -1.0051 -0.0297 -0.5065
   41MOL0     C 5418   7.030   6.745   3.465  0.6200 -0.7629 -0.3458
   41MOL0     C 5419   6.990   6.800   3.578 -0.2058 -0.4388 -0.0638
   41MOL0     C 5420   7.033   6.766   3.714  0.1031 -0.0729 -0.8231
   41MOL0     C 5421   7.062   6.892   3.807 -0.1081 -0.3461 -0.0270
   41MOL0     C 5422   7.189   6.960   3.773  0.4246 -0.3817 -0.0599
   41MOL0     C 5423   7.153   7.063   3.663 -0.4696 -0.3035 -0.9046
   41MOL0     O 5424   7.274   7.138   3.644 -0.2411 -0.4271  0.4795
   41MOL0     C 5425   7.279   7.243   3.555  0.0338  0.4629  0.0954
   41MOL0     C 5426   7.393   7.323   3.535  0.7875  0.1269 -0.2100
   41MOL0     C 5427   7.388   7.444   3.461  0.4324 -0.0913 -0.1282
   41MOL0     C 5428   7.276   7.476   3.393 -0.3874 -0.2462  0.2388
   41MOL0     C 5429   7.276   7.594   3.306 -0.0028 -0.3922 -0.0102
   41MOL0     O 5430   7.393   7.651   3.270 -0.2208  0.2060 -0.7839
   41MOL0     C 5431   7.391   7.770   3.202 -0.2448  0.0302 -0.0138
   41MOL0     C 5432   7.285   7.856   3.188 -0.0043  0.5542  0.1240
   41MOL0     C 5433   7.303   7.975   3.115 -0.0683  0.6150 -0.4766
   41MOL0     C 5434   7.425   7.994   3.052  0.2046  0.0566  0.3334
   41MOL0     O 5435   7.439   8.107   2.969 -0.4787  0.5979  0.3530
   41MOL0     C 5436   7.438   8.077   2.822 -0.1798 -0.4797 -0.9134
   41MOL0     C 5437   7.554   7.979   2.786 -0.4319  0.5459  0.2012
   41MOL0     C 5438   7.567   7.974   2.634 -0.4464  0.4054  0.1897
   41MOL0     C 5439   7.680   7.883   2.595 -0.1456  0.9500 -0.1505
   41MOL0     C 5440   7.693   7.872   2.445 -0.1241  1.3789  0.1880
   41MOL0     C 5441   7.740   7.985   2.364 -0.6931 -0.9166 -0.0971
   41MOL0     C 5442   7.745   7.953   2.213 -0.5436 -1.0487  0.1291
   41MOL0     C 5443   7.739   8.084   2.127 -0.6920  0.4397 -0.8005
   41MOL0    Cl 5444   7.880   8.179   2.164  0.3134 -0.5526 -0.3347
   41MOL0     C 5445   7.535   7.917   3.083 -0.4104  1.2647 -0.1362
   41MOL0     C 5446   7.512   7.797   3.149  0.3854 -0.5996 -1.0066
   41MOL0     O 5447   7.169   7.615   3.252  0.3143 -0.5543  0.2346
   41MOL0     C 5448   7.159   7.392   3.394  0.0104 -0.4803 -0.9149
   41MOL0     C 5449   7.164   7.279   3.479  0.5358  0.0309  0.8950
   41MOL0     N 5450   6.903   6.903   3.551 -0.7070 -0.0300  0.6433
   41MOL0     N 5451   6.891   6.912   3.426  1.0238  0.1581 -0.6607
   41MOL0     C 5452   7.702   7.260   2.667  0.5428  0.2196  0.3932
   41MOL0     C 5453   7.798   7.354   2.629 -0.4057  0.2182  1.0487
   41MOL0     C 5454   8.026   7.738   2.589 -0.2238  0.1517  0.2253
   41MOL0     C 5455   8.071   7.740   2.454  0.9615 -0.5325 -0.3058
   41MOL0     C 5456   8.162   7.838   2.416  0.1996 -0.2581 -0.0590
   41MOL0     C 5457   8.224   7.931   2.506 -0.7739  0.1507  0.6051
   41MOL0     O 5458   8.316   8.029   2.467 -0.0183  0.2634 -0.0745
   41MOL0     C 5459   8.284   8.102   2.351 -0.4394 -0.0764 -0.1602
   41MOL0     C 5460   8.377   8.221   2.338  0.0717 -0.3325  0.1337
   41MOL0     C 5461   8.487   8.180   2.247 -1.2579  0.3200  0.1462
   41MOL0     C 5462   8.587   8.301   2.235  0.1999 -0.7067 -0.3240
   41MOL0     C 5463   8.696   8.265   2.148  0.3038  0.8430 -0.5295
   41MOL0     C 5464   8.782   8.247   2.062  0.2144  0.4369 -0.1619
   41MOL0     C 5465   8.184   7.919   2.639  0.5592 -0.5913 -0.4561
   41MOL0     C 5466   8.088   7.832   2.676 -0.7478 -0.8773  0.0594
   41MOL0     C 5467   8.063   7.829   2.824 -0.5965  0.7975  0.0460
   41MOL0     H 5468   7.610   7.553   2.419  0.4972  0.6896  0.8612
   41MOL0     H 5469   7.447   7.361   2.468 -0.7809  1.7885 -0.0981
   41MOL0     H 5470   7.336   7.315   2.685 -3.5083 -1.3190  2.2543
   41MOL0     H 5471   7.330   7.213   2.541 -1.8363  1.4269 -0.0112
   41MOL0     H 5472   7.282   7.020   2.702 -2.6348  0.9844 -3.2487
   41MOL0     H 5473   7.152   7.141   2.664 -1.3962  0.4775  0.9341
   41MOL0     H 5474   7.200   7.238   2.891  0.0767 -0.1615  2.9656
   41MOL0     H 5475   7.331   7.115   2.916  1.4152 -0.5978 -2.4844
   41MOL0     H 5476   7.032   7.090   2.879 -0.3221 -0.6189  0.9630
   41MOL0     H 5477   7.130   6.946   2.927  1.7921  0.0307  0.7245
   41MOL0     H 5478   7.199   7.042   3.146  3.2620  4.9389  1.6866
   41MOL0     H 5479   7.146   7.193   3.104 -2.2630  0.7520  0.4893
   41MOL0     H 5480   6.992   7.096   3.242  3.8020 -0.4155  0.3648
   41MOL0     H 5481   6.916   7.120   3.075 -0.1123 -0.3793  1.1354
   41MOL0     H 5482   6.945   6.874   3.039  0.6985 -1.0124  0.5275
   41MOL0     H 5483   6.832   6.904   3.163 -0.2155 -3.4706  0.6029
   41MOL0     H 5484   7.011   6.712   3.183  3.0202  1.4667 -3.7031
   41MOL0     H 5485   7.121   6.834   3.215 -0.0214 -0.6495 -2.1885
   41MOL0     H 5486   7.091   6.657   3.448 -0.4723 -1.6386  0.1510
   41MOL0     H 5487   6.963   6.701   3.767  1.7067  0.7271  2.5989
   41MOL0     H 5488   7.131   6.718   3.704  1.2507  1.5695  1.4398
   41MOL0     H 5489   6.969   6.950   3.807 -0.3755 -0.7655  0.2085
   41MOL0     H 5490   7.072   6.847   3.906  1.6276 -2.1403 -0.9638
   41MOL0     H 5491   7.266   6.884   3.753  0.8114 -0.8242  2.6973
   41MOL0     H 5492   7.226   7.013   3.861  2.8504 -2.8823  0.5897
   41MOL0     H 5493   7.082   7.136   3.701  0.0647  0.2797 -1.0175
   41MOL0     H 5494   7.128   7.017   3.567 -4.0511  1.3372 -0.8968
   41MOL0     H 5495   7.484   7.287   3.583 -0.2795 -2.8971 -0.2087
   41MOL0     H 5496   7.476   7.503   3.439 -0.1689  0.3096 -1.6590
   41MOL0     H 5497   7.183   7.844   3.222 -1.0489  2.6371 -2.0601
   41MOL0     H 5498   7.231   8.049   3.084 -0.9418 -0.0146 -0.0045
   41MOL0     H 5499   7.342   8.037   2.789 -0.4323  0.7502 -1.6934
   41MOL0     H 5500   7.457   8.177   2.783  2.7446 -0.1415  1.0381
   41MOL0     H 5501   7.655   8.008   2.816  0.5564  1.8219 -3.7321
   41MOL0     H 5502   7.544   7.879   2.829  5.2518 -0.9654 -1.1327
   41MOL0     H 5503   7.476   7.947   2.580 -0.2482  0.2423 -0.0597
   41MOL0     H 5504   7.605   8.071   2.599  1.8541 -1.0967 -1.7765
   41MOL0     H 5505   7.644   7.787   2.634 -0.5504  0.9969 -0.4067
   41MOL0     H 5506   7.775   7.906   2.643  1.1932  2.6502 -3.3160
   41MOL0     H 5507   7.593   7.843   2.413 -0.1849  1.2377  0.5053
   41MOL0     H 5508   7.752   7.783   2.421 -0.3449  1.5624 -1.1631
   41MOL0     H 5509   7.675   8.072   2.369  4.4893  3.3536  2.3176
   41MOL0     H 5510   7.838   8.019   2.398 -0.4081  0.6436 -2.3127
   41MOL0     H 5511   7.667   7.879   2.194 -0.5590 -0.8522 -0.6076
   41MOL0     H 5512   7.840   7.909   2.180 -0.5464 -0.9406 -0.0211
   41MOL0     H 5513   7.765   8.042   2.029  4.3238 -0.2424  0.5396
   41MOL0     H 5514   7.641   8.133   2.131  0.0439  2.0930 -1.8628
   41MOL0     H 5515   7.632   7.956   3.055 -0.4094  1.2433 -0.1631
   41MOL0     H 5516   7.590   7.729   3.182  1.9146  1.3074 -0.4995
   41MOL0     H 5517   7.058   7.412   3.360 -0.4580  3.3975  1.9963
   41MOL0     H 5518   7.070   7.224   3.488  0.1313  0.6378  0.4434
   41MOL0     H 5519   7.725   7.169   2.722 -0.1857 -0.0800  0.2169
   41MOL0     H 5520   7.897   7.373   2.670 -0.2169  0.3314  0.5540
   41MOL0     H 5521   8.050   7.655   2.390 -0.9133  0.4287 -1.0372
   41MOL0     H 5522   8.189   7.835   2.311  1.5259 -1.4620  0.2976
   41MOL0     H 5523   8.180   8.131   2.372 -0.8595 -2.5892  1.6345
   41MOL0     H 5524   8.288   8.043   2.259 -2.2063  2.0412 -1.7136
   41MOL0     H 5525   8.416   8.246   2.437  0.9737  1.1211 -0.5433
   41MOL0     H 5526   8.325   8.310   2.300 -1.4916 -0.9245  0.8097
   41MOL0     H 5527   8.459   8.148   2.146  2.0027  0.1854 -0.8214
   41MOL0     H 5528   8.534   8.088   2.283 -2.4989 -1.0732 -1.5932
   41MOL0     H 5529   8.541   8.390   2.193 -0.8318 -0.2817  1.5641
   41MOL0     H 5530   8.622   8.322   2.337 -0.6395 -1.8572  0.2351
   41MOL0     H 5531   8.861   8.237   1.990  1.0130  2.0128  0.4415
   41MOL0     H 5532   8.223   7.989   2.712 -1.2587  2.2656 -1.9676
   41MOL0     H 5533   8.112   7.913   2.874  0.4521  0.3963 -0.2724
   41MOL0     H 5534   7.956   7.838   2.840 -1.1245 -2.9095 -0.3907
   41MOL0     H 5535   8.108   7.738   2.865  2.9478  2.7034  0.8466
   42MOL0     O 5536   4.481   4.433   8.938  0.2049 -0.3447 -0.4005
   42MOL0     C 5537   4.548   4.335   8.925 -0.2076  0.2469 -0.7884
   42MOL0     O 5538   4.662   4.321   8.854  0.3067  0.0271 -0.0974
   42MOL0     C 5539   4.725   4.436   8.807 -0.2896 -0.9781 -0.9725
   42MOL0     C 5540   4.800   4.437   8.691  0.0339 -0.0768 -0.1303
   42MOL0     C 5541   4.893   4.535   8.664 -0.2112 -0.4874  0.4591
   42MOL0     C 5542   4.898   4.651   8.748 -0.9442 -0.1811 -0.3172
   42MOL0     O 5543   4.985   4.757   8.712  0.9294  0.0112  0.6025
   42MOL0     C 5544   4.921   4.883   8.734 -0.2235  0.0136  0.5449
   42MOL0     C 5545   5.008   5.007   8.695  0.3062  0.6176  0.8033
   42MOL0     C 5546   5.124   4.998   8.779 -0.0708 -0.2643 -0.2108
   42MOL0     C 5547   5.208   5.122   8.764 -0.7703 -0.3073  0.3036
   42MOL0     C 5548   5.325   5.106   8.866  0.5795 -0.1058 -1.3917
   42MOL0     C 5549   5.431   5.217   8.869 -0.7763 -0.3845 -0.0691
   42MOL0     C 5550   5.377   5.363   8.875  0.0401 -0.1917  0.1751
   42MOL0     C 5551   5.347   5.416   8.732  0.9673 -0.5635 -0.2557
   42MOL0     N 5552   5.353   5.564   8.736  0.2129 -0.7623 -0.1867
   42MOL0     C 5553   5.460   5.638   8.708 -0.2873 -1.5387  0.0638
   42MOL0     C 5554   5.418   5.769   8.697  0.2929  0.0309 -0.6857
   42MOL0     C 5555   5.491   5.886   8.642  0.1187 -0.0428  0.2745
   42MOL0     C 5556   5.452   5.922   8.495  0.8013  0.4739  0.6219
   42MOL0     C 5557   5.357   6.044   8.477  0.5961  1.0834  0.0564
   42MOL0     C 5558   5.332   6.070   8.320  0.2290  0.0762 -0.0515
   42MOL0     O 5559   5.249   6.189   8.341 -0.0191  1.2855 -0.2072
   42MOL0     C 5560   5.240   6.270   8.228  0.5362  0.3576  0.1339
   42MOL0     C 5561   5.165   6.387   8.239  0.1404 -0.4982 -0.9041
   42MOL0     C 5562   5.139   6.474   8.129  0.1813  0.1923 -0.2165
   42MOL0     C 5563   5.191   6.439   8.004  1.8196  0.2481  1.1660
   42MOL0     C 5564   5.166   6.523   7.884 -0.3440  0.1692  0.4604
   42MOL0     O 5565   5.266   6.538   7.787 -0.0303  0.0410  0.0290
   42MOL0     C 5566   5.226   6.603   7.674  0.5854  0.0807 -0.8237
   42MOL0     C 5567   5.231   6.737   7.663 -0.0285 -0.5370  0.5796
   42MOL0     C 5568   5.184   6.803   7.546 -0.3846 -0.4079  0.2136
   42MOL0     C 5569   5.139   6.724   7.435  1.1624 -0.2354  0.7114
   42MOL0     O 5570   5.088   6.779   7.318  0.1646  0.4695 -0.5070
   42MOL0     C 5571   5.159   6.890   7.258 -0.4076  0.2820  0.2834
   42MOL0     C 5572   5.286   6.831   7.189 -0.7265 -0.4184 -0.4962
   42MOL0     C 5573   5.310   6.921   7.064  0.0328 -0.1925  0.3819
   42MOL0     C 5574   5.428   6.874   6.984  0.2951  0.2513 -0.3644
   42MOL0     C 5575   5.441   6.926   6.837  0.1777 -0.3180 -0.1362
   42MOL0     C 5576   5.498   7.069   6.836  0.6485  0.2886  0.7273
   42MOL0     C 5577   5.494   7.147   6.700 -0.2238  0.0211 -0.2937
   42MOL0     C 5578   5.572   7.273   6.709 -0.1864 -1.1233  0.3050
   42MOL0    Cl 5579   5.497   7.383   6.837 -0.3049 -0.2338  0.0221
   42MOL0     C 5580   5.156   6.594   7.443  0.3656 -0.2949 -0.3769
   42MOL0     C 5581   5.205   6.532   7.562  0.2702  0.0003 -0.6243
   42MOL0     O 5582   5.054   6.567   7.880 -0.0451 -0.0695 -0.9131
   42MOL0     C 5583   5.271   6.317   7.986 -0.1810 -0.6489 -0.4001
   42MOL0     C 5584   5.283   6.236   8.095 -0.9760 -0.0619 -0.3988
   42MOL0     N 5585   5.287   5.772   8.731  0.4527  0.7215 -0.2382
   42MOL0     N 5586   5.249   5.654   8.746 -0.4701  0.6765 -0.9183
   42MOL0     C 5587   4.803   4.664   8.856 -0.9982  0.1754  0.6676
   42MOL0     C 5588   4.726   4.554   8.886  0.4406 -0.4695 -0.0356
   42MOL0     C 5589   4.503   4.211   9.001  0.2295  0.4655 -0.5204
   42MOL0     C 5590   4.367   4.209   9.048  0.7304 -0.5642  0.3735
   42MOL0     C 5591   4.316   4.097   9.117  0.5096 -1.1130  1.3670
   42MOL0     C 5592   4.380   3.980   9.132 -0.7470  0.1516 -0.2285
   42MOL0     O 5593   4.310   3.876   9.189  0.0612 -0.2513  1.0670
   42MOL0     C 5594   4.372   3.757   9.241  1.0697 -0.2856 -0.9931
   42MOL0     C 5595   4.343   3.709   9.377  0.0978 -0.2843 -0.4147
   42MOL0     C 5596   4.328   3.560   9.406 -0.1646 -0.2452  0.7403
   42MOL0     C 5597   4.295   3.529   9.551 -0.1073  0.7761  0.3818
   42MOL0     C 5598   4.173   3.453   9.573 -0.0133  0.3228  0.2689
   42MOL0     C 5599   4.081   3.384   9.587 -0.1689 -0.0574  0.4186
   42MOL0     C 5600   4.517   3.968   9.084  0.5379  0.0300 -0.0501
   42MOL0     C 5601   4.579   4.084   9.025  1.2615  0.2598 -0.0034
   42MOL0     C 5602   4.731   4.078   9.022 -0.0166  0.1685 -0.0240
   42MOL0     H 5603   4.792   4.353   8.622 -2.3710 -0.4950  0.5621
   42MOL0     H 5604   4.945   4.531   8.569  0.2190  0.5223  0.6326
   42MOL0     H 5605   4.832   4.893   8.671  1.5752 -1.0374 -2.3892
   42MOL0     H 5606   4.883   4.895   8.836 -2.3096  3.6231 -0.4767
   42MOL0     H 5607   4.944   5.095   8.703 -3.5674 -1.5536 -2.2998
   42MOL0     H 5608   5.044   5.009   8.592  0.7116  0.4217  0.9400
   42MOL0     H 5609   5.190   4.912   8.765 -0.0677  0.0150 -2.1155
   42MOL0     H 5610   5.087   4.991   8.882 -2.9659  1.2250 -1.0586
   42MOL0     H 5611   5.238   5.138   8.660  0.2169  1.4176  0.8214
   42MOL0     H 5612   5.153   5.213   8.787  0.6004  0.9780 -1.2574
   42MOL0     H 5613   5.277   5.100   8.964  1.0550  2.7086 -0.9076
   42MOL0     H 5614   5.380   5.015   8.841 -0.3537 -1.1555  0.1878
   42MOL0     H 5615   5.496   5.205   8.956  0.6770  0.3091 -1.0103
   42MOL0     H 5616   5.503   5.195   8.789 -0.0783  2.3177 -0.2840
   42MOL0     H 5617   5.455   5.432   8.908 -0.8327  1.2402 -0.6644
   42MOL0     H 5618   5.292   5.363   8.943  0.3315  1.3440  0.5830
   42MOL0     H 5619   5.423   5.384   8.661 -0.6853 -2.7199 -1.1601
   42MOL0     H 5620   5.251   5.383   8.692  1.5017  0.1732 -2.2245
   42MOL0     H 5621   5.562   5.608   8.687  1.7935  2.3942  3.2700
   42MOL0     H 5622   5.489   5.975   8.705 -2.2614 -0.1119  0.3903
   42MOL0     H 5623   5.595   5.853   8.630 -0.2740 -1.0832 -0.4076
   42MOL0     H 5624   5.545   5.955   8.448  1.8764 -1.6164  1.1560
   42MOL0     H 5625   5.414   5.842   8.430 -3.0088  2.1593  0.4917
   42MOL0     H 5626   5.411   6.128   8.523  1.6250  0.3204  0.2873
   42MOL0     H 5627   5.267   6.017   8.533  0.3238  1.0741 -0.3855
   42MOL0     H 5628   5.274   5.990   8.273 -0.0834  0.0959  0.2935
   42MOL0     H 5629   5.423   6.091   8.262 -0.4138  3.1604 -0.1240
   42MOL0     H 5630   5.113   6.405   8.333 -0.4423 -0.9077 -1.1401
   42MOL0     H 5631   5.068   6.555   8.141 -0.2022 -0.4887  3.1851
   42MOL0     H 5632   5.250   6.805   7.745 -1.1343 -0.0732  0.4691
   42MOL0     H 5633   5.175   6.910   7.532 -0.6881 -0.4543  0.0454
   42MOL0     H 5634   5.096   6.940   7.184 -0.1835  0.5124  0.2455
   42MOL0     H 5635   5.185   6.974   7.323 -1.5245  0.9284 -0.0737
   42MOL0     H 5636   5.374   6.834   7.253  0.1363 -1.2315 -1.6211
   42MOL0     H 5637   5.272   6.725   7.166  0.6664 -0.2102 -2.4845
   42MOL0     H 5638   5.226   6.916   6.994  0.4777 -1.1956 -0.0988
   42MOL0     H 5639   5.322   7.022   7.104  3.2229 -1.3483  2.7442
   42MOL0     H 5640   5.415   6.765   6.980 -1.0868  0.2620  1.8633
   42MOL0     H 5641   5.522   6.897   7.035  0.2205  1.1323 -0.6207
   42MOL0     H 5642   5.343   6.921   6.788 -0.1461  1.0839  0.3183
   42MOL0     H 5643   5.502   6.855   6.780  0.6196 -1.0558  1.2050
   42MOL0     H 5644   5.441   7.123   6.911  3.3694  0.2097  3.0083
   42MOL0     H 5645   5.602   7.071   6.871 -0.2098  0.8331  3.4695
   42MOL0     H 5646   5.391   7.166   6.670  0.4893  4.0901 -0.6771
   42MOL0     H 5647   5.538   7.086   6.621  0.9242 -0.9695  1.0569
   42MOL0     H 5648   5.675   7.255   6.741  1.2276 -0.2951 -3.2263
   42MOL0     H 5649   5.575   7.323   6.611  0.1263  1.0943  1.3815
   42MOL0     H 5650   5.130   6.536   7.355  2.1842 -2.4064  0.3986
   42MOL0     H 5651   5.225   6.425   7.568  3.1272  0.5128  1.9421
   42MOL0     H 5652   5.316   6.273   7.898 -0.8382 -2.5411  0.1598
   42MOL0     H 5653   5.340   6.145   8.079 -0.1233  0.3433  0.2414
   42MOL0     H 5654   4.818   4.743   8.930 -2.1045  0.0881  0.9998
   42MOL0     H 5655   4.682   4.556   8.986 -0.7194  3.1757 -0.4485
   42MOL0     H 5656   4.309   4.299   9.032  0.4574 -1.2233 -3.1703
   42MOL0     H 5657   4.215   4.106   9.156  0.1020  0.6536  0.0702
   42MOL0     H 5658   4.475   3.791   9.258  0.5572  0.0044  1.8850
   42MOL0     H 5659   4.365   3.678   9.165 -1.3685 -2.8423  1.6822
   42MOL0     H 5660   4.252   3.767   9.398  0.5016  0.6360 -1.1254
   42MOL0     H 5661   4.421   3.738   9.447 -1.1372 -1.1247  1.3699
   42MOL0     H 5662   4.429   3.520   9.392 -0.1721 -0.6275  1.7119
   42MOL0     H 5663   4.273   3.499   9.334  1.1309 -2.3415  1.4249
   42MOL0     H 5664   4.374   3.464   9.590 -0.6284  0.3953  0.8299
   42MOL0     H 5665   4.304   3.620   9.610 -0.1668  0.7441  0.4397
   42MOL0     H 5666   4.002   3.314   9.600 -0.4710 -0.4991 -2.9471
   42MOL0     H 5667   4.586   3.886   9.097  0.9843  0.6520  1.9595
   42MOL0     H 5668   4.761   4.180   9.047  1.1299  0.1927 -1.3785
   42MOL0     H 5669   4.774   4.005   9.092 -0.7265  0.5119  0.7955
   42MOL0     H 5670   4.756   4.056   8.918 -1.7618  2.9643 -1.1432
   43MOL0     O 5671   8.433   6.124  10.965 -0.3089  0.0651 -1.1143
   43MOL0     C 5672   8.335   6.193  10.998 -0.0286  1.2315 -0.3293
   43MOL0     O 5673   8.330   6.329  10.997 -0.0217 -0.9427  0.4018
   43MOL0     C 5674   8.452   6.391  10.965 -0.2649 -0.3580 -0.2276
   43MOL0     C 5675   8.479   6.411  10.832 -1.1860  0.8240 -0.3920
   43MOL0     C 5676   8.598   6.471  10.799  0.0782  0.7652 -0.4950
   43MOL0     C 5677   8.689   6.500  10.894  0.5497 -0.9415 -0.3719
   43MOL0     O 5678   8.806   6.557  10.856 -0.1903  0.5926  0.2040
   43MOL0     C 5679   8.885   6.479  10.762  1.1313  0.9631  0.7314
   43MOL0     C 5680   9.022   6.538  10.711 -0.4506  0.0043 -0.2634
   43MOL0     C 5681   9.094   6.475  10.597  0.3119  0.3994  0.6094
   43MOL0     C 5682   9.043   6.510  10.460 -0.7821 -0.7545  0.2637
   43MOL0     C 5683   9.147   6.576  10.364 -0.4002 -0.0287 -0.1804
   43MOL0     C 5684   9.197   6.718  10.416 -0.2111 -0.4804 -0.5639
   43MOL0     C 5685   9.342   6.736  10.366  0.2875  0.1741  0.2168
   43MOL0     C 5686   9.443   6.687  10.465 -0.6325 -0.7880 -0.2915
   43MOL0     N 5687   9.587   6.708  10.412 -0.0878  0.7214  0.8097
   43MOL0     C 5688   9.643   6.667  10.289 -0.6134 -0.0405 -0.1806
   43MOL0     C 5689   9.772   6.706  10.296 -0.7114 -0.3704 -1.0369
   43MOL0     C 5690   9.885   6.658  10.199 -0.0347 -0.6214  0.3223
   43MOL0     C 5691   9.964   6.540  10.262  0.0420  0.5937  0.5160
   43MOL0     C 5692  10.063   6.479  10.168 -0.5018  0.2395 -0.2538
   43MOL0     C 5693  10.187   6.557  10.143  1.6145  0.2618 -0.7169
   43MOL0     O 5694  10.286   6.486  10.066  0.3457  0.2427  0.0686
   43MOL0     C 5695  10.416   6.513  10.088 -0.9290  0.5044  0.0897
   43MOL0     C 5696  10.462   6.632  10.159 -0.3178 -0.7648  0.4484
   43MOL0     C 5697  10.594   6.676  10.139 -0.4362  0.4900  0.6351
   43MOL0     C 5698  10.675   6.611  10.048  0.5358  0.2063  0.4503
   43MOL0     C 5699  10.794   6.673   9.987 -0.6624 -0.0355  0.1663
   43MOL0     O 5700  10.832   6.798  10.039 -0.6401 -0.2035 -0.5166
   43MOL0     C 5701  10.919   6.885   9.975  0.0083 -0.7858 -0.1792
   43MOL0     C 5702  11.020   6.951  10.050 -0.7669 -1.0654 -0.6003
   43MOL0     C 5703  11.110   7.041   9.977 -0.1178  0.1486  0.4027
   43MOL0     C 5704  11.107   7.049   9.839 -0.1415 -0.4734 -1.3370
   43MOL0     O 5705  11.197   7.126   9.776  0.1094  0.1547  0.0297
   43MOL0     C 5706  11.221   7.111   9.638 -0.6503 -0.5076  0.8683
   43MOL0     C 5707  11.355   7.196   9.607 -0.1898  0.0958  0.1125
   43MOL0     C 5708  11.376   7.213   9.455 -0.0109 -0.4288  0.1624
   43MOL0     C 5709  11.507   7.296   9.447 -0.9142 -0.8285 -0.1015
   43MOL0     C 5710  11.543   7.329   9.303 -0.6754 -0.1847  0.3950
   43MOL0     C 5711  11.661   7.420   9.304  1.0630  0.4038 -1.2097
   43MOL0     C 5712  11.670   7.500   9.169  0.1948  0.3599  0.3617
   43MOL0     C 5713  11.665   7.411   9.042 -1.0477  0.1312 -0.0712
   43MOL0    Cl 5714  11.821   7.321   9.017  0.1615 -0.1528  0.3075
   43MOL0     C 5715  11.012   6.980   9.773  0.6052 -0.3000  0.5433
   43MOL0     C 5716  10.914   6.901   9.837 -0.5604 -0.3816 -0.5856
   43MOL0     O 5717  10.846   6.616   9.890 -1.0061  0.0201  0.0506
   43MOL0     C 5718  10.632   6.487   9.995 -0.2127  0.2689 -0.9542
   43MOL0     C 5719  10.507   6.439  10.019  0.6492  0.1451 -0.6044
   43MOL0     N 5720   9.796   6.783  10.416 -0.6846 -0.8691 -0.6817
   43MOL0     N 5721   9.684   6.778  10.480 -0.8139  0.5306  0.1746
   43MOL0     C 5722   8.666   6.470  11.030  0.4760  0.3744 -0.3806
   43MOL0     C 5723   8.545   6.411  11.062 -0.5754  0.6295 -0.1471
   43MOL0     C 5724   8.219   6.127  11.053  0.3787  0.0940  1.1659
   43MOL0     C 5725   8.137   6.199  11.143  0.2791  0.3410  0.6059
   43MOL0     C 5726   8.029   6.148  11.207  0.2307  0.7370 -0.5826
   43MOL0     C 5727   7.999   6.011  11.188  0.0719 -0.3299  0.7145
   43MOL0     O 5728   7.908   5.938  11.256  0.9173 -0.1600  1.2919
   43MOL0     C 5729   7.870   5.977  11.386 -0.1385 -0.4556 -0.1711
   43MOL0     C 5730   7.823   5.849  11.441 -0.0511 -0.3371  1.1900
   43MOL0     C 5731   7.695   5.803  11.365  0.2569  0.0544 -0.8124
   43MOL0     C 5732   7.596   5.728  11.449 -0.1428 -0.3075  0.2203
   43MOL0     C 5733   7.486   5.822  11.486  0.3728 -0.5350 -0.2984
   43MOL0     C 5734   7.414   5.898  11.540  0.4443  0.2502 -0.1409
   43MOL0     C 5735   8.071   5.929  11.094  0.7610 -1.0026 -0.1061
   43MOL0     C 5736   8.189   5.989  11.034 -0.5234 -0.2330 -0.3343
   43MOL0     C 5737   8.274   5.892  10.951  0.0174 -0.1782  0.2004
   43MOL0     H 5738   8.404   6.387  10.757 -4.2688  1.9403  2.1031
   43MOL0     H 5739   8.612   6.497  10.694 -0.0420  3.2780  0.0324
   43MOL0     H 5740   8.906   6.381  10.805  0.4666 -0.7838 -2.5621
   43MOL0     H 5741   8.823   6.470  10.673 -0.6134 -2.7224  2.1093
   43MOL0     H 5742   9.081   6.539  10.803 -2.0857  2.3847  0.8681
   43MOL0     H 5743   9.015   6.642  10.677  0.7651  0.7341  1.5797
   43MOL0     H 5744   9.094   6.367  10.613  3.3547 -0.2062 -2.3640
   43MOL0     H 5745   9.200   6.500  10.598  0.2869  0.5572 -0.0603
   43MOL0     H 5746   8.992   6.428  10.407  0.7052 -1.9794  0.6791
   43MOL0     H 5747   8.966   6.587  10.473  1.1162  1.1701  0.6367
   43MOL0     H 5748   9.229   6.505  10.357  1.1990  1.7291 -0.1601
   43MOL0     H 5749   9.107   6.594  10.264  0.1026  1.3596 -0.1578
   43MOL0     H 5750   9.131   6.796  10.377 -0.6305 -1.2277 -1.4029
   43MOL0     H 5751   9.198   6.735  10.524 -3.1252  1.6397 -0.7414
   43MOL0     H 5752   9.361   6.843  10.355 -1.4529  0.6515  1.5638
   43MOL0     H 5753   9.357   6.687  10.269  0.6510  2.1242 -0.7523
   43MOL0     H 5754   9.428   6.754  10.550  0.9448  1.1086 -1.4259
   43MOL0     H 5755   9.424   6.581  10.486 -2.6622 -0.9818 -2.6989
   43MOL0     H 5756   9.583   6.603  10.225 -1.7056  0.4402  0.3525
   43MOL0     H 5757   9.826   6.621  10.114  3.1610  0.4238 -2.5276
   43MOL0     H 5758   9.948   6.742  10.170 -1.5910 -0.2582 -2.3790
   43MOL0     H 5759  10.020   6.578  10.348  3.5741  1.4934 -1.9938
   43MOL0     H 5760   9.896   6.460  10.294  2.1253 -0.7051  1.9747
   43MOL0     H 5761  10.012   6.459  10.074  0.1770  1.2374 -0.8518
   43MOL0     H 5762  10.101   6.386  10.211 -1.7890 -0.1795  0.0471
   43MOL0     H 5763  10.216   6.587  10.244  3.1140  0.4965 -1.1969
   43MOL0     H 5764  10.164   6.654  10.098  3.1621  2.1786  2.2652
   43MOL0     H 5765  10.397   6.692  10.223  2.6911  3.0343  0.3324
   43MOL0     H 5766  10.637   6.767  10.180  0.4729  1.4866 -2.2571
   43MOL0     H 5767  11.037   6.942  10.156 -0.6881  3.3637 -0.0804
   43MOL0     H 5768  11.187   7.090  10.036  0.0794 -0.8621  0.9984
   43MOL0     H 5769  11.258   7.010   9.616  0.2615  0.3497 -1.9222
   43MOL0     H 5770  11.136   7.149   9.581  0.7040  1.4963  0.0924
   43MOL0     H 5771  11.345   7.299   9.644 -1.8954 -0.4019  1.1687
   43MOL0     H 5772  11.439   7.141   9.650  2.5243  3.6141 -0.2519
   43MOL0     H 5773  11.400   7.113   9.420  0.8806  0.2802 -1.3476
   43MOL0     H 5774  11.302   7.265   9.393  0.1075  0.8140  1.0195
   43MOL0     H 5775  11.593   7.244   9.491  1.5237  0.3052 -3.1292
   43MOL0     H 5776  11.489   7.390   9.500  0.2073 -0.8427  0.3376
   43MOL0     H 5777  11.457   7.378   9.256  0.2848 -1.5730 -3.1146
   43MOL0     H 5778  11.566   7.238   9.247 -1.3564 -2.1257  3.0476
   43MOL0     H 5779  11.644   7.499   9.377 -0.7642  2.0213 -3.2346
   43MOL0     H 5780  11.756   7.370   9.324 -0.5706 -2.3461  0.4273
   43MOL0     H 5781  11.765   7.554   9.168  0.0400  0.6298  0.4614
   43MOL0     H 5782  11.595   7.578   9.159  2.2603  2.2560 -1.5336
   43MOL0     H 5783  11.567   7.362   9.041 -1.0521  0.1418 -0.2988
   43MOL0     H 5784  11.674   7.471   8.951  0.1111 -2.9718 -2.1875
   43MOL0     H 5785  11.019   6.987   9.665  0.9614 -0.7500  0.5316
   43MOL0     H 5786  10.842   6.858   9.767 -0.8502  1.2743 -1.3382
   43MOL0     H 5787  10.696   6.426   9.931 -0.8429 -0.1103 -1.2308
   43MOL0     H 5788  10.483   6.350   9.961  0.8466  1.4185 -2.7322
   43MOL0     H 5789   8.737   6.500  11.107  3.4666 -3.1897 -1.4469
   43MOL0     H 5790   8.519   6.389  11.165  1.2518  0.8324  0.3924
   43MOL0     H 5791   8.155   6.302  11.170  2.4282 -0.3878  2.2130
   43MOL0     H 5792   7.977   6.216  11.275  0.2324  1.5902 -1.4237
   43MOL0     H 5793   7.797   6.057  11.399  0.1534 -0.4529  1.7321
   43MOL0     H 5794   7.953   6.020  11.442  0.1134  2.4893 -2.5918
   43MOL0     H 5795   7.794   5.862  11.545  0.6480 -2.5622  1.7038
   43MOL0     H 5796   7.901   5.773  11.444  0.1167 -0.2612 -0.2730
   43MOL0     H 5797   7.734   5.728  11.296 -0.6329 -0.4343 -0.8002
   43MOL0     H 5798   7.650   5.884  11.307  1.7012  2.1218  0.7897
   43MOL0     H 5799   7.559   5.651  11.380  1.6567 -1.5506  0.5715
   43MOL0     H 5800   7.636   5.674  11.535 -2.6660 -0.1913  1.5688
   43MOL0     H 5801   7.359   5.971  11.595 -0.1454 -2.1431  2.6683
   43MOL0     H 5802   8.033   5.828  11.082  1.3368 -1.4503  1.5778
   43MOL0     H 5803   8.365   5.860  11.002 -0.9828 -2.9656  0.4265
   43MOL0     H 5804   8.215   5.801  10.940 -2.1215  1.3048 -1.6831
   43MOL0     H 5805   8.284   5.911  10.843 -0.2017 -1.0285  0.0241
   44MOL0     O 5806   9.588   4.819   6.050 -1.0638 -0.1616  0.0542
   44MOL0     C 5807   9.576   4.885   5.947  0.4076 -0.2550  0.5122
   44MOL0     O 5808   9.600   4.844   5.822 -0.6988 -0.9506  0.3324
   44MOL0     C 5809   9.594   4.706   5.808  0.1212  0.4161 -0.1141
   44MOL0     C 5810   9.471   4.651   5.771  0.7547  0.7272  0.7838
   44MOL0     C 5811   9.457   4.513   5.780 -0.4895  0.2530  0.3244
   44MOL0     C 5812   9.573   4.438   5.779 -0.5248  0.4851  0.6641
   44MOL0     O 5813   9.581   4.303   5.748  0.4671 -0.4954 -0.3471
   44MOL0     C 5814   9.455   4.227   5.752  0.5118 -0.6363  0.0556
   44MOL0     C 5815   9.488   4.085   5.724 -0.5561 -0.2511 -0.9092
   44MOL0     C 5816   9.527   4.058   5.582  1.0040  1.0258  0.1585
   44MOL0     C 5817   9.406   4.071   5.488  0.4685 -0.0214  0.3230
   44MOL0     C 5818   9.458   4.044   5.346  0.3088  0.0144 -0.4952
   44MOL0     C 5819   9.540   4.153   5.271 -0.0578 -0.3963 -0.0507
   44MOL0     C 5820   9.555   4.087   5.128  0.0527 -0.0430  0.4491
   44MOL0     C 5821   9.684   4.149   5.063 -0.6988  0.3383 -0.0166
   44MOL0     N 5822   9.714   4.098   4.929 -0.2317  0.5779 -0.1530
   44MOL0     C 5823   9.833   4.086   4.856  0.0307 -0.6485  0.0564
   44MOL0     C 5824   9.792   4.037   4.746 -0.4787  0.3134 -0.4892
   44MOL0     C 5825   9.881   4.001   4.634  1.0420  0.5423  0.1443
   44MOL0     C 5826   9.837   4.051   4.497 -0.8196  0.1031  0.0760
   44MOL0     C 5827   9.935   4.023   4.385  0.1333 -0.3733  0.5399
   44MOL0     C 5828   9.883   4.094   4.259  0.2379  0.8294 -0.4747
   44MOL0     O 5829   9.769   4.022   4.218  0.8361 -0.5034  0.4080
   44MOL0     C 5830   9.696   4.080   4.120 -0.9075 -0.8859 -0.3761
   44MOL0     C 5831   9.740   4.099   3.990  0.1791 -0.3960  0.4550
   44MOL0     C 5832   9.663   4.176   3.896  0.3127 -0.0387 -0.7959
   44MOL0     C 5833   9.548   4.247   3.939  0.1733  0.7329  0.7764
   44MOL0     C 5834   9.474   4.331   3.844  1.2779 -0.1237  0.2427
   44MOL0     O 5835   9.426   4.454   3.883 -0.6423 -0.0796 -0.1803
   44MOL0     C 5836   9.379   4.538   3.783 -0.2679  0.8377 -0.3119
   44MOL0     C 5837   9.471   4.591   3.700  1.4245 -0.5686  0.7712
   44MOL0     C 5838   9.442   4.677   3.591 -0.3300  1.7234  0.2018
   44MOL0     C 5839   9.308   4.711   3.565  0.4908  0.6452  0.4105
   44MOL0     O 5840   9.251   4.783   3.463 -0.2213  0.3535 -0.2957
   44MOL0     C 5841   9.340   4.835   3.369  0.6988  0.0228 -0.0497
   44MOL0     C 5842   9.363   4.733   3.253  0.8469  0.3329 -0.2174
   44MOL0     C 5843   9.234   4.722   3.173 -0.7266 -0.2641  0.2286
   44MOL0     C 5844   9.279   4.664   3.038 -0.3025  0.3125  0.3318
   44MOL0     C 5845   9.185   4.664   2.926  0.2155 -0.8448 -0.6094
   44MOL0     C 5846   9.186   4.799   2.859 -0.0336 -0.4601 -0.4855
   44MOL0     C 5847   9.126   4.801   2.719  0.1836 -0.2076  0.1368
   44MOL0     C 5848   8.987   4.749   2.722 -0.7231  0.3738 -0.4773
   44MOL0    Cl 5849   8.893   4.827   2.850 -0.4199  0.2469 -0.1122
   44MOL0     C 5850   9.218   4.656   3.662 -0.2936 -0.2771 -0.3879
   44MOL0     C 5851   9.249   4.564   3.765 -0.0747 -0.2663  0.0703
   44MOL0     O 5852   9.454   4.280   3.734 -0.0342 -0.2842 -0.1555
   44MOL0     C 5853   9.512   4.233   4.074 -1.1206 -0.0685 -0.2232
   44MOL0     C 5854   9.578   4.144   4.166  0.5332 -0.2129 -0.2909
   44MOL0     N 5855   9.658   4.023   4.744  0.5498  0.4133  0.0526
   44MOL0     N 5856   9.612   4.061   4.859 -0.2220  0.4757 -0.1173
   44MOL0     C 5857   9.700   4.495   5.809  0.0197 -0.3765 -0.8823
   44MOL0     C 5858   9.709   4.633   5.818  0.7261  0.6914  0.8048
   44MOL0     C 5859   9.561   5.028   5.966 -0.7454  0.0512  0.7597
   44MOL0     C 5860   9.646   5.123   5.895  0.0528  0.4100 -1.2019
   44MOL0     C 5861   9.647   5.256   5.936 -0.2434  0.0551 -0.3617
   44MOL0     C 5862   9.569   5.304   6.037  0.1245  0.3770 -0.1064
   44MOL0     O 5863   9.583   5.435   6.068  0.6692  0.2831  0.1149
   44MOL0     C 5864   9.456   5.505   6.071  0.3312  0.6920  1.0619
   44MOL0     C 5865   9.498   5.652   6.085 -0.7448  0.9113 -0.0399
   44MOL0     C 5866   9.373   5.729   6.134  0.2809 -0.2412 -0.0778
   44MOL0     C 5867   9.389   5.876   6.114  0.7496 -0.9296 -0.7478
   44MOL0     C 5868   9.363   5.908   5.978  0.4158  0.5028  0.5789
   44MOL0     C 5869   9.337   5.937   5.861 -0.7854  0.2710  0.7553
   44MOL0     C 5870   9.478   5.220   6.096  0.6254 -0.4659  0.4497
   44MOL0     C 5871   9.471   5.088   6.060 -0.1982  0.5391 -0.4560
   44MOL0     C 5872   9.365   5.012   6.130 -0.8162  0.3471 -0.0691
   44MOL0     H 5873   9.385   4.717   5.768  0.0240 -0.1456  1.6498
   44MOL0     H 5874   9.365   4.455   5.779 -0.6879  0.5679 -0.0734
   44MOL0     H 5875   9.418   4.241   5.854 -2.3988  1.5383 -1.1479
   44MOL0     H 5876   9.381   4.256   5.676  1.0102 -1.9330 -0.9694
   44MOL0     H 5877   9.395   4.027   5.733  0.7525 -2.4753 -0.9899
   44MOL0     H 5878   9.555   4.046   5.801 -3.1121  0.9412  2.1499
   44MOL0     H 5879   9.579   3.964   5.562 -1.1210 -0.4781  1.3449
   44MOL0     H 5880   9.591   4.139   5.544 -0.7550  1.4287 -2.1683
   44MOL0     H 5881   9.328   3.998   5.511 -0.2913 -0.3880 -2.9638
   44MOL0     H 5882   9.351   4.166   5.490  4.1052  2.2833  1.2007
   44MOL0     H 5883   9.511   3.949   5.353 -2.1050 -1.3010  1.4352
   44MOL0     H 5884   9.366   4.029   5.288  1.2689 -2.6944 -1.5031
   44MOL0     H 5885   9.490   4.250   5.274 -0.0811 -0.3083 -2.0407
   44MOL0     H 5886   9.642   4.143   5.311 -0.1122 -0.9357 -0.0304
   44MOL0     H 5887   9.472   4.127   5.068  2.6038  1.7755 -2.1609
   44MOL0     H 5888   9.563   3.978   5.123  4.6867 -0.0297  2.7366
   44MOL0     H 5889   9.694   4.258   5.064  1.4789  0.2197 -1.5952
   44MOL0     H 5890   9.774   4.121   5.119 -0.6568 -2.9148 -1.5120
   44MOL0     H 5891   9.930   4.126   4.884  0.4794 -1.6867  0.0337
   44MOL0     H 5892   9.979   4.044   4.655  0.5819  0.0129  4.1331
   44MOL0     H 5893   9.878   3.892   4.626  1.5061  0.5001  0.5290
   44MOL0     H 5894   9.737   4.017   4.469 -1.4522  3.2108 -1.9216
   44MOL0     H 5895   9.837   4.161   4.493  1.1588  0.1185 -0.7775
   44MOL0     H 5896   9.941   3.914   4.372 -1.8667 -0.7326  2.2027
   44MOL0     H 5897  10.032   4.072   4.397  0.5982  0.5316 -4.6309
   44MOL0     H 5898   9.964   4.090   4.186 -0.0740  1.2836 -0.8549
   44MOL0     H 5899   9.868   4.203   4.258  2.0504  1.1881 -3.8457
   44MOL0     H 5900   9.840   4.067   3.964  1.6249  1.1711  3.4695
   44MOL0     H 5901   9.708   4.175   3.797 -0.5165 -3.1057 -1.2559
   44MOL0     H 5902   9.575   4.571   3.726  1.9533  1.5526  0.4948
   44MOL0     H 5903   9.522   4.708   3.524  0.6571 -1.8445 -0.5036
   44MOL0     H 5904   9.283   4.925   3.343 -2.9549 -2.0421  0.0882
   44MOL0     H 5905   9.428   4.874   3.420 -0.8313  2.5253  0.8921
   44MOL0     H 5906   9.437   4.771   3.182 -1.7308 -0.8532 -3.7922
   44MOL0     H 5907   9.402   4.635   3.283  1.8832 -0.1270 -2.8417
   44MOL0     H 5908   9.157   4.669   3.231 -1.2490 -0.7797 -0.9136
   44MOL0     H 5909   9.191   4.821   3.154 -0.3549 -0.0332  0.5687
   44MOL0     H 5910   9.294   4.557   3.055 -0.2605 -0.1949 -2.4361
   44MOL0     H 5911   9.375   4.711   3.014 -0.6700  2.0064  1.8787
   44MOL0     H 5912   9.091   4.644   2.979 -0.5508  1.7841 -0.8540
   44MOL0     H 5913   9.205   4.572   2.870  1.7932 -1.9206  1.5557
   44MOL0     H 5914   9.144   4.882   2.917  1.7230 -0.2609  0.5812
   44MOL0     H 5915   9.290   4.832   2.859 -0.8967  2.6328 -1.7309
   44MOL0     H 5916   9.185   4.736   2.653  2.0981 -0.1584  1.7017
   44MOL0     H 5917   9.132   4.896   2.666  0.1690 -0.2619  0.0371
   44MOL0     H 5918   8.934   4.751   2.627 -1.0056 -1.5935 -0.3947
   44MOL0     H 5919   9.000   4.642   2.744  0.6381  0.6497  0.2130
   44MOL0     H 5920   9.114   4.682   3.642  0.1854  3.3872  1.1212
   44MOL0     H 5921   9.165   4.521   3.818  0.5183 -0.3538  0.9505
   44MOL0     H 5922   9.432   4.297   4.110 -1.0478 -1.8375  3.5692
   44MOL0     H 5923   9.552   4.132   4.270  1.8651  0.2424  0.1200
   44MOL0     H 5924   9.789   4.433   5.807 -0.1494 -0.6178 -1.7444
   44MOL0     H 5925   9.803   4.687   5.811  0.0677  1.7038 -0.8478
   44MOL0     H 5926   9.710   5.088   5.815  0.9858 -1.5776  0.3232
   44MOL0     H 5927   9.719   5.323   5.890 -0.9708 -0.4059 -2.2651
   44MOL0     H 5928   9.400   5.470   6.158 -1.6937 -2.2773 -1.2424
   44MOL0     H 5929   9.411   5.482   5.974  2.9170  0.9676 -0.2904
   44MOL0     H 5930   9.534   5.686   5.987  0.2322  1.4891  0.5054
   44MOL0     H 5931   9.581   5.670   6.154 -0.9527  0.7871  0.2375
   44MOL0     H 5932   9.350   5.703   6.237  1.0747 -2.3326 -0.3661
   44MOL0     H 5933   9.287   5.700   6.072  0.5127  1.1267 -1.0831
   44MOL0     H 5934   9.320   5.926   6.182  1.9725 -0.3835  0.1318
   44MOL0     H 5935   9.491   5.906   6.143  0.1083 -0.1476  0.8126
   44MOL0     H 5936   9.317   5.983   5.767  0.0539 -0.0593  0.4052
   44MOL0     H 5937   9.413   5.249   6.178 -0.3731 -0.0998 -0.4404
   44MOL0     H 5938   9.279   4.992   6.065 -1.9858  1.6088  1.0242
   44MOL0     H 5939   9.408   4.919   6.169 -2.2566  0.1986  1.2665
   44MOL0     H 5940   9.327   5.068   6.216 -3.4041 -0.1402 -0.7944
   45MOL0     O 5941  10.788   9.865   3.852 -0.4992 -0.4465 -0.2447
   45MOL0     C 5942  10.720   9.895   3.949  0.5417  0.4002  0.5565
   45MOL0     O 5943  10.713  10.022   4.003  0.0790 -0.2158 -0.6037
   45MOL0     C 5944  10.736  10.119   3.904  0.6464 -1.0300 -0.4844
   45MOL0     C 5945  10.657  10.150   3.795 -1.2414  0.4149 -0.4219
   45MOL0     C 5946  10.702  10.256   3.707  0.1353  1.0299  0.6517
   45MOL0     C 5947  10.834  10.309   3.722 -0.1871 -0.2286 -0.4667
   45MOL0     O 5948  10.898  10.390   3.632  0.3984  0.3482  0.2541
   45MOL0     C 5949  10.895  10.361   3.487  0.6773  0.2985 -0.7405
   45MOL0     C 5950  11.004  10.438   3.416 -0.5335 -1.1629 -0.5564
   45MOL0     C 5951  11.130  10.358   3.409 -0.6069 -0.8436 -0.7979
   45MOL0     C 5952  11.251  10.442   3.357  0.7436 -0.4413 -0.2459
   45MOL0     C 5953  11.325  10.514   3.466  0.8036 -0.0554  0.3836
   45MOL0     C 5954  11.409  10.613   3.402  0.6366 -0.5185 -0.4455
   45MOL0     C 5955  11.521  10.568   3.310 -0.1929  0.1228 -0.1920
   45MOL0     C 5956  11.650  10.647   3.333  0.7244  0.0243  0.2021
   45MOL0     N 5957  11.636  10.786   3.279  0.2073  0.7540  1.0086
   45MOL0     C 5958  11.729  10.887   3.293  0.2315 -0.5476 -0.0539
   45MOL0     C 5959  11.711  10.978   3.195 -0.5794 -1.0350 -0.7482
   45MOL0     C 5960  11.809  11.089   3.145  0.2580  0.7250  0.4718
   45MOL0     C 5961  11.839  11.183   3.263 -0.0418  0.2896 -0.0783
   45MOL0     C 5962  11.951  11.279   3.230  0.2632 -0.5067 -1.1586
   45MOL0     C 5963  12.060  11.214   3.139  0.1603  0.1864  0.0243
   45MOL0     O 5964  12.187  11.292   3.141  0.7065 -0.5479 -0.4151
   45MOL0     C 5965  12.209  11.397   3.057  0.7215  0.0958 -0.0275
   45MOL0     C 5966  12.113  11.463   2.988  0.0562  0.0810 -0.1769
   45MOL0     C 5967  12.149  11.574   2.904 -0.1324  0.3628 -0.5919
   45MOL0     C 5968  12.286  11.607   2.893  0.1949 -0.0581 -0.4398
   45MOL0     C 5969  12.328  11.734   2.815  0.0991  0.5333 -0.5853
   45MOL0     O 5970  12.228  11.787   2.743 -0.1583  1.1481  1.1503
   45MOL0     C 5971  12.264  11.893   2.660  0.4108 -0.9870  0.3396
   45MOL0     C 5972  12.273  12.023   2.714  1.1565  0.2532 -0.2615
   45MOL0     C 5973  12.304  12.133   2.634  1.0325 -0.3134  0.2844
   45MOL0     C 5974  12.318  12.120   2.501 -0.4049  0.4973  0.4286
   45MOL0     O 5975  12.358  12.227   2.417 -0.3521  0.0805 -1.2322
   45MOL0     C 5976  12.313  12.221   2.285  0.1221  0.0577 -0.1545
   45MOL0     C 5977  12.382  12.346   2.221  0.3664  0.0797 -0.7041
   45MOL0     C 5978  12.308  12.471   2.266 -0.3432 -0.5694 -0.3858
   45MOL0     C 5979  12.366  12.599   2.215  0.1520  0.1004  0.2927
   45MOL0     C 5980  12.289  12.724   2.257  0.6700  1.2016 -0.8710
   45MOL0     C 5981  12.343  12.840   2.172 -0.5065 -0.3098 -0.3973
   45MOL0     C 5982  12.277  12.976   2.221  0.1127  0.3092  0.8312
   45MOL0     C 5983  12.281  13.003   2.380  0.6369 -0.3769 -0.8444
   45MOL0    Cl 5984  12.221  13.172   2.405 -0.6726 -0.1013 -0.4389
   45MOL0     C 5985  12.309  11.989   2.447 -0.5930  0.0469  0.5676
   45MOL0     C 5986  12.288  11.878   2.525  1.0350 -0.0631  0.5664
   45MOL0     O 5987  12.438  11.787   2.838 -0.1965  0.6857 -0.4161
   45MOL0     C 5988  12.375  11.534   2.963 -0.2513  0.3673  0.9161
   45MOL0     C 5989  12.340  11.429   3.043 -0.6884  0.2993 -0.0540
   45MOL0     N 5990  11.594  10.939   3.129 -0.5569  0.6909 -0.4679
   45MOL0     N 5991  11.552  10.828   3.178 -0.5678  0.4246 -0.4730
   45MOL0     C 5992  10.900  10.285   3.844  0.4110  0.8907  0.0617
   45MOL0     C 5993  10.848  10.190   3.933  0.1177 -0.0489  0.9519
   45MOL0     C 5994  10.645   9.778   4.001  0.5822  0.6314 -0.0485
   45MOL0     C 5995  10.563   9.815   4.105 -0.2195  0.0793  0.0471
   45MOL0     C 5996  10.498   9.724   4.175 -0.2306 -0.6523 -0.9452
   45MOL0     C 5997  10.521   9.591   4.158 -0.3886 -0.0680  0.3578
   45MOL0     O 5998  10.478   9.500   4.251  0.3222 -0.0447  0.2297
   45MOL0     C 5999  10.350   9.524   4.309  0.1724 -0.4732 -0.7204
   45MOL0     C 6000  10.317   9.394   4.383 -0.0274 -1.0324 -0.1448
   45MOL0     C 6001  10.166   9.367   4.406 -0.5258  1.1465  0.4870
   45MOL0     C 6002  10.141   9.277   4.527  0.4558 -0.2782 -0.0356
   45MOL0     C 6003  10.175   9.143   4.492 -0.1475 -0.0060 -0.6411
   45MOL0     C 6004  10.225   9.033   4.451 -0.1593 -0.4435 -1.0414
   45MOL0     C 6005  10.615   9.548   4.066 -0.5337  0.8358  0.1233
   45MOL0     C 6006  10.679   9.640   3.981  0.0006 -0.6786 -0.3151
   45MOL0     C 6007  10.792   9.591   3.898 -0.8994  0.5015 -0.3650
   45MOL0     H 6008  10.570  10.087   3.780 -1.5858  1.0544 -1.2354
   45MOL0     H 6009  10.626  10.275   3.633 -0.8822 -1.7093  0.8560
   45MOL0     H 6010  10.907  10.253   3.472  3.7487  0.1262  1.9250
   45MOL0     H 6011  10.798  10.396   3.453  0.5903 -0.6061 -1.4761
   45MOL0     H 6012  11.015  10.536   3.463 -3.7275  0.7206 -3.3414
   45MOL0     H 6013  10.972  10.453   3.313  2.5429 -0.4175 -1.5160
   45MOL0     H 6014  11.109  10.279   3.335  0.3251 -2.0527  0.1842
   45MOL0     H 6015  11.160  10.318   3.506 -0.4105  1.9475  0.3836
   45MOL0     H 6016  11.320  10.368   3.317  1.5992  0.9892 -1.4932
   45MOL0     H 6017  11.213  10.503   3.275  0.5398 -1.7453 -1.1571
   45MOL0     H 6018  11.257  10.577   3.524  2.0033  2.6579 -0.9800
   45MOL0     H 6019  11.375  10.441   3.531  1.0454 -0.8202 -0.6318
   45MOL0     H 6020  11.338  10.677   3.347  0.6876  0.7799  0.9359
   45MOL0     H 6021  11.452  10.672   3.484 -2.8697  0.2196  1.0683
   45MOL0     H 6022  11.487  10.572   3.206  0.4759 -0.3381 -0.4339
   45MOL0     H 6023  11.538  10.462   3.330 -1.2499  0.4904  3.5859
   45MOL0     H 6024  11.679  10.640   3.438  0.2569  0.2034  0.3456
   45MOL0     H 6025  11.728  10.599   3.275  1.4280 -1.0599  1.9770
   45MOL0     H 6026  11.814  10.889   3.362  0.3576  1.7944 -0.1887
   45MOL0     H 6027  11.902  11.044   3.110  0.5929  2.4792 -1.1237
   45MOL0     H 6028  11.774  11.142   3.056  0.0578 -2.1211 -1.2693
   45MOL0     H 6029  11.745  11.234   3.283 -0.1970  0.4079 -1.0426
   45MOL0     H 6030  11.880  11.120   3.342 -2.6796 -1.3244  0.1222
   45MOL0     H 6031  11.987  11.319   3.325  1.2820 -0.6914 -1.4520
   45MOL0     H 6032  11.920  11.368   3.175  1.5511  0.8967  0.2707
   45MOL0     H 6033  12.024  11.190   3.039  1.4045 -2.3486  0.1007
   45MOL0     H 6034  12.090  11.121   3.189  0.1914 -0.2111 -0.7337
   45MOL0     H 6035  12.012  11.426   2.993 -0.0194  0.2965 -0.1011
   45MOL0     H 6036  12.081  11.635   2.846 -1.8271 -0.1437  0.7779
   45MOL0     H 6037  12.279  12.037   2.821 -1.3708 -3.0177  0.4747
   45MOL0     H 6038  12.331  12.226   2.684 -0.0235  0.0457  0.2109
   45MOL0     H 6039  12.347  12.131   2.235  0.8610 -0.5361  1.3425
   45MOL0     H 6040  12.208  12.245   2.268  1.2578  3.1239 -4.5495
   45MOL0     H 6041  12.486  12.356   2.252  0.3098 -2.0655  0.3725
   45MOL0     H 6042  12.385  12.335   2.112 -0.5582  1.6751 -0.9174
   45MOL0     H 6043  12.204  12.462   2.236 -0.5344  0.3334 -0.0378
   45MOL0     H 6044  12.319  12.483   2.374  1.0403  2.2890 -0.7506
   45MOL0     H 6045  12.374  12.584   2.107  2.0702 -0.3057  0.4440
   45MOL0     H 6046  12.471  12.617   2.241  0.4708  0.8092 -1.3482
   45MOL0     H 6047  12.292  12.726   2.366  0.2248 -0.6623 -0.7981
   45MOL0     H 6048  12.186  12.717   2.221  1.4952  0.5835 -3.3617
   45MOL0     H 6049  12.449  12.853   2.194 -0.7283  0.0655  0.5112
   45MOL0     H 6050  12.321  12.822   2.067 -2.4088 -0.6574  0.0135
   45MOL0     H 6051  12.177  12.975   2.178  0.7835 -2.0666 -0.8961
   45MOL0     H 6052  12.327  13.053   2.162 -0.2172  0.0151  0.1601
   45MOL0     H 6053  12.204  12.943   2.429 -0.9015  1.6358 -0.6702
   45MOL0     H 6054  12.382  12.988   2.418  0.9195 -0.4423 -1.6025
   45MOL0     H 6055  12.315  11.966   2.341 -3.6237  2.6924 -0.3379
   45MOL0     H 6056  12.291  11.784   2.471  0.9211 -0.6394  1.5439
   45MOL0     H 6057  12.480  11.561   2.957 -0.2095 -0.0311 -0.5410
   45MOL0     H 6058  12.425  11.387   3.096 -1.1284  0.7222  1.0219
   45MOL0     H 6059  10.995  10.326   3.876  0.7764 -0.7455  1.2607
   45MOL0     H 6060  10.902  10.180   4.027  5.0640 -0.0695 -1.5543
   45MOL0     H 6061  10.551   9.921   4.126 -4.6874 -0.5089  1.6584
   45MOL0     H 6062  10.440   9.763   4.258  1.5428 -0.5446  0.2919
   45MOL0     H 6063  10.268   9.553   4.242 -2.2032 -3.2509  0.7419
   45MOL0     H 6064  10.343   9.584   4.400 -3.4362 -0.4490 -0.8792
   45MOL0     H 6065  10.363   9.398   4.482  1.6301  2.9810 -0.8640
   45MOL0     H 6066  10.359   9.309   4.329  1.5868 -0.3981  0.0733
   45MOL0     H 6067  10.124   9.322   4.316 -0.0836 -0.7395  1.1892
   45MOL0     H 6068  10.112   9.461   4.423 -1.9457  0.2415  1.2402
   45MOL0     H 6069  10.182   9.318   4.620  1.3324  1.6723 -1.2140
   45MOL0     H 6070  10.032   9.275   4.538  0.4801  1.5474  0.8187
   45MOL0     H 6071  10.252   8.937   4.413 -0.7666 -2.2122  2.6091
   45MOL0     H 6072  10.656   9.449   4.083  1.3925  1.1956 -1.9296
   45MOL0     H 6073  10.884   9.648   3.918  0.3508 -1.3248 -0.6977
   45MOL0     H 6074  10.818   9.485   3.906 -1.0616  0.4019 -1.0890
   45MOL0     H 6075  10.752   9.603   3.798 -0.9824 -2.2564 -0.7268
   46MOL0     O 6076  10.552   1.486   2.412  0.6703  0.8816 -0.6027
   46MOL0     C 6077  10.672   1.483   2.372 -0.0655  0.4104 -0.8360
   46MOL0     O 6078  10.722   1.378   2.299 -0.9947 -0.1456 -0.0901
   46MOL0     C 6079  10.640   1.295   2.224  0.4962 -0.1560 -0.0945
   46MOL0     C 6080  10.668   1.158   2.226  0.3721  0.6083 -0.4085
   46MOL0     C 6081  10.592   1.057   2.160 -1.0270 -0.2839 -0.4993
   46MOL0     C 6082  10.499   1.100   2.074  1.4199  0.5575 -0.5334
   46MOL0     O 6083  10.428   0.998   1.998  0.2989 -0.1150  0.3216
   46MOL0     C 6084  10.329   1.052   1.900  0.1957 -0.3146 -0.1803
   46MOL0     C 6085  10.302   0.933   1.811  0.5901 -0.4581  0.2823
   46MOL0     C 6086  10.415   0.868   1.740  0.9051  0.1333  0.2466
   46MOL0     C 6087  10.494   0.969   1.666  0.5170  0.5154  0.2845
   46MOL0     C 6088  10.596   0.903   1.572  0.8185  0.8421  0.2597
   46MOL0     C 6089  10.547   0.793   1.473  0.9769 -0.2466  0.7274
   46MOL0     C 6090  10.634   0.771   1.344 -0.2039  0.6806 -0.0269
   46MOL0     C 6091  10.642   0.892   1.262 -0.1472  0.2885  0.1958
   46MOL0     N 6092  10.629   0.869   1.118  0.1692 -0.0926  0.0756
   46MOL0     C 6093  10.515   0.831   1.052 -0.4248  0.6247 -0.0723
   46MOL0     C 6094  10.543   0.848   0.925  1.2622 -0.2386 -0.3938
   46MOL0     C 6095  10.452   0.798   0.813  0.5319 -0.9449 -0.6110
   46MOL0     C 6096  10.492   0.655   0.764 -0.4115  0.5378  0.8990
   46MOL0     C 6097  10.513   0.553   0.887  0.6660 -0.1433 -1.2352
   46MOL0     C 6098  10.386   0.515   0.964  0.7072 -0.1230 -0.5123
   46MOL0     O 6099  10.279   0.513   0.872  0.5736  0.0595  0.2609
   46MOL0     C 6100  10.252   0.392   0.801 -0.1311 -0.2924 -0.3834
   46MOL0     C 6101  10.140   0.396   0.724 -0.7041 -0.8506  0.7274
   46MOL0     C 6102  10.112   0.290   0.640 -0.4905  0.5231  0.7409
   46MOL0     C 6103  10.200   0.181   0.634 -0.8237 -0.2054  0.0921
   46MOL0     C 6104  10.181   0.067   0.537  0.3084  0.7504 -0.9058
   46MOL0     O 6105  10.103   0.097   0.438 -0.1294 -0.1486  0.3905
   46MOL0     C 6106  10.088   0.005   0.345  0.4035  0.1171  0.4136
   46MOL0     C 6107  10.179  -0.016   0.244 -1.0799 -0.2654  0.3309
   46MOL0     C 6108  10.174  -0.127   0.160  1.0721 -0.3279 -0.4202
   46MOL0     C 6109  10.059  -0.207   0.161  0.7535  0.3241 -0.3319
   46MOL0     O 6110  10.049  -0.290   0.052 -0.3942  0.4652 -0.3997
   46MOL0     C 6111   9.927  -0.369   0.056 -1.2286 -0.2533  0.0673
   46MOL0     C 6112   9.951  -0.498  -0.024 -0.8592 -0.3782 -0.5971
   46MOL0     C 6113   9.826  -0.584  -0.027  0.1188  0.6575  0.6634
   46MOL0     C 6114   9.856  -0.697  -0.128  0.0951  0.0476  0.5884
   46MOL0     C 6115   9.742  -0.798  -0.151  0.7512  0.3411  0.1134
   46MOL0     C 6116   9.615  -0.736  -0.221 -1.0210  0.3309 -0.0872
   46MOL0     C 6117   9.521  -0.843  -0.277 -1.4634 -0.8436  0.1624
   46MOL0     C 6118   9.554  -0.890  -0.415 -0.7532  0.5169 -0.0881
   46MOL0    Cl 6119   9.524  -0.746  -0.520  0.1794  0.0256  0.0774
   46MOL0     C 6120   9.962  -0.191   0.266 -0.3591 -0.5083 -0.2107
   46MOL0     C 6121   9.976  -0.083   0.356 -0.5285 -0.3208 -0.0449
   46MOL0     O 6122  10.223  -0.046   0.559  0.1668  0.4644  0.5211
   46MOL0     C 6123  10.305   0.171   0.728  0.3950  0.3911  0.8045
   46MOL0     C 6124  10.338   0.283   0.801  0.3168  0.9710  1.9906
   46MOL0     N 6125  10.670   0.899   0.909  0.0673  0.9047 -0.1364
   46MOL0     N 6126  10.716   0.902   1.024  0.5150  0.0754  0.1721
   46MOL0     C 6127  10.465   1.237   2.074 -0.0898 -0.0637  0.2902
   46MOL0     C 6128  10.529   1.332   2.152 -0.0148  0.6095  0.3708
   46MOL0     C 6129  10.760   1.592   2.403 -0.2970  0.3540  0.2616
   46MOL0     C 6130  10.893   1.577   2.363 -0.5487 -0.2716  0.4518
   46MOL0     C 6131  10.992   1.680   2.398  0.4641  0.5166  0.4278
   46MOL0     C 6132  10.953   1.796   2.463  0.1238 -0.1921  0.6843
   46MOL0     O 6133  11.031   1.903   2.479 -0.1120  0.8080  0.0090
   46MOL0     C 6134  11.086   1.927   2.611  0.7022 -0.3688 -1.6578
   46MOL0     C 6135  11.239   1.902   2.612  0.4293 -0.0028 -0.1607
   46MOL0     C 6136  11.309   1.966   2.493  1.0213 -0.4710 -0.9944
   46MOL0     C 6137  11.294   2.126   2.495  0.5421 -0.2392 -0.2984
   46MOL0     C 6138  11.336   2.168   2.362 -0.5325 -0.4401  0.6247
   46MOL0     C 6139  11.362   2.203   2.250  0.2632  0.1166 -0.4606
   46MOL0     C 6140  10.826   1.812   2.511  0.3506 -1.1277  0.2479
   46MOL0     C 6141  10.727   1.714   2.476 -0.0938  0.4916 -0.3978
   46MOL0     C 6142  10.585   1.752   2.517 -0.5351 -0.3758  0.3734
   46MOL0     H 6143  10.748   1.124   2.290 -0.0694  0.8179  0.2711
   46MOL0     H 6144  10.591   0.949   2.172 -0.4633 -0.3365 -0.8887
   46MOL0     H 6145  10.240   1.090   1.951  2.4661  2.3005  2.1401
   46MOL0     H 6146  10.367   1.130   1.834 -1.0015  2.5574  2.2960
   46MOL0     H 6147  10.241   0.975   1.731 -0.2748 -0.5002  0.9004
   46MOL0     H 6148  10.234   0.862   1.861 -0.6633 -1.1829 -2.2936
   46MOL0     H 6149  10.381   0.789   1.673  3.8741 -1.3735  0.3545
   46MOL0     H 6150  10.466   0.813   1.819 -1.2324  1.0453  2.3794
   46MOL0     H 6151  10.414   1.021   1.613 -0.3862  0.1506  1.2566
   46MOL0     H 6152  10.543   1.042   1.731 -2.3007  2.8426  0.0093
   46MOL0     H 6153  10.630   0.985   1.508 -2.6295  1.6693 -0.7433
   46MOL0     H 6154  10.675   0.859   1.633  0.3722 -3.7394 -2.0338
   46MOL0     H 6155  10.553   0.696   1.524 -2.6813 -0.7798  0.4264
   46MOL0     H 6156  10.447   0.809   1.431  2.0046 -1.1322 -2.2745
   46MOL0     H 6157  10.594   0.688   1.285  0.9506  0.4284 -0.4722
   46MOL0     H 6158  10.733   0.740   1.376  0.2236 -2.3828 -3.6093
   46MOL0     H 6159  10.563   0.961   1.295 -0.2413  0.0776  0.4113
   46MOL0     H 6160  10.737   0.941   1.286  0.9318 -2.1031  1.0482
   46MOL0     H 6161  10.430   0.779   1.095  1.9667 -0.3536  4.0250
   46MOL0     H 6162  10.345   0.795   0.838  0.7947  0.3098  0.7574
   46MOL0     H 6163  10.465   0.863   0.726  2.4706  0.2968  0.5292
   46MOL0     H 6164  10.412   0.617   0.700 -0.7298  0.3804  1.3806
   46MOL0     H 6165  10.583   0.660   0.704  0.3532  3.8273  2.0877
   46MOL0     H 6166  10.584   0.591   0.961 -0.8926  0.8668 -0.1929
   46MOL0     H 6167  10.559   0.463   0.848  0.6118  0.0558 -1.7604
   46MOL0     H 6168  10.366   0.587   1.044  0.8278  1.3417 -1.7573
   46MOL0     H 6169  10.412   0.416   1.004  2.3208 -0.1066 -1.4174
   46MOL0     H 6170  10.072   0.480   0.735 -0.7519 -0.0363 -3.7804
   46MOL0     H 6171  10.022   0.293   0.580  0.3551  1.1381 -0.5419
   46MOL0     H 6172  10.266   0.048   0.241 -1.5611  0.6942  3.2488
   46MOL0     H 6173  10.257  -0.145   0.093  0.3953  0.7680 -1.6120
   46MOL0     H 6174   9.910  -0.410   0.156 -2.6037  3.3220  1.4729
   46MOL0     H 6175   9.836  -0.315   0.028 -1.1588 -0.5307 -0.7122
   46MOL0     H 6176   9.985  -0.479  -0.127 -4.0950 -0.7652 -1.8419
   46MOL0     H 6177  10.038  -0.548   0.019 -0.8952  0.7140  0.8329
   46MOL0     H 6178   9.798  -0.627   0.069 -2.3988 -0.3989 -0.4549
   46MOL0     H 6179   9.742  -0.520  -0.059  0.5541 -0.1971 -2.5618
   46MOL0     H 6180   9.941  -0.755  -0.089 -1.3579 -1.4278  1.7138
   46MOL0     H 6181   9.887  -0.653  -0.223 -3.5274 -0.6825 -1.1246
   46MOL0     H 6182   9.717  -0.833  -0.050  1.6860 -1.1746 -0.1442
   46MOL0     H 6183   9.772  -0.874  -0.223 -2.3505 -0.2414 -0.6908
   46MOL0     H 6184   9.554  -0.681  -0.149  1.3511  1.1726  1.3493
   46MOL0     H 6185   9.642  -0.669  -0.303 -4.1382 -2.2069 -3.5565
   46MOL0     H 6186   9.425  -0.790  -0.283  0.3640  3.5515  3.6802
   46MOL0     H 6187   9.507  -0.924  -0.205 -3.1623 -1.1928 -0.5065
   46MOL0     H 6188   9.661  -0.915  -0.407 -0.9487 -1.3421 -2.2456
   46MOL0     H 6189   9.496  -0.980  -0.434 -2.3143  1.2755  0.8812
   46MOL0     H 6190   9.876  -0.254   0.288  1.9896 -3.4838  1.0263
   46MOL0     H 6191   9.894  -0.067   0.425  0.1058 -0.5261  0.7680
   46MOL0     H 6192  10.378   0.091   0.721 -0.2113 -0.0362 -1.1207
   46MOL0     H 6193  10.431   0.262   0.853  2.4451 -4.3045 -2.9169
   46MOL0     H 6194  10.399   1.281   2.000  0.9261 -3.3654 -2.8524
   46MOL0     H 6195  10.504   1.436   2.136  2.1906  0.8588 -2.1328
   46MOL0     H 6196  10.927   1.488   2.311  0.5159  2.2348 -3.5858
   46MOL0     H 6197  11.095   1.678   2.364  0.5772  1.5902  0.6891
   46MOL0     H 6198  11.046   1.877   2.699  3.6283  0.7441  0.4872
   46MOL0     H 6199  11.061   2.032   2.628 -0.3550 -0.6651 -1.3561
   46MOL0     H 6200  11.250   1.793   2.610 -1.5712 -0.2462 -1.9050
   46MOL0     H 6201  11.281   1.939   2.706  0.0786  1.2987 -0.4944
   46MOL0     H 6202  11.266   1.936   2.396 -0.0737  1.7096 -1.2429
   46MOL0     H 6203  11.415   1.940   2.492  0.5993 -2.4566  0.5657
   46MOL0     H 6204  11.192   2.161   2.516  0.4563 -1.9743  2.6805
   46MOL0     H 6205  11.351   2.175   2.574 -1.3798 -0.2714  1.1971
   46MOL0     H 6206  11.386   2.221   2.147 -1.8044 -0.4030 -1.0808
   46MOL0     H 6207  10.794   1.911   2.542 -2.1121 -1.4102 -1.0404
   46MOL0     H 6208  10.581   1.850   2.565 -0.2475  1.6467 -3.3792
   46MOL0     H 6209  10.515   1.758   2.433  1.2163  2.2977 -1.0370
   46MOL0     H 6210  10.553   1.680   2.593 -0.4643 -3.6660 -2.5029
   47MOL0     O 6211   0.855   6.389  11.072 -0.5146  1.0240 -0.3265
   47MOL0     C 6212   0.846   6.317  11.172  1.8123  0.2989 -0.1637
   47MOL0     O 6213   0.735   6.235  11.201 -0.4846 -1.0262 -0.3575
   47MOL0     C 6214   0.634   6.229  11.108  0.6627 -0.6466 -0.4482
   47MOL0     C 6215   0.665   6.190  10.979  1.0525  0.5599  0.5091
   47MOL0     C 6216   0.579   6.206  10.873 -0.3217 -0.6095  0.7011
   47MOL0     C 6217   0.445   6.239  10.890 -0.7247 -0.1366  0.0585
   47MOL0     O 6218   0.343   6.252  10.797  0.2690  0.8039  0.4267
   47MOL0     C 6219   0.368   6.325  10.676  0.3120  0.0024  0.6297
   47MOL0     C 6220   0.371   6.227  10.565  0.3381  0.8169  0.1610
   47MOL0     C 6221   0.228   6.181  10.544  0.4352 -1.0316 -0.6450
   47MOL0     C 6222   0.229   6.051  10.458  0.3143  0.4985  0.9823
   47MOL0     C 6223   0.096   5.973  10.469 -0.0731  0.0949  0.5066
   47MOL0     C 6224   0.111   5.848  10.375  0.8947  0.6429 -0.7672
   47MOL0     C 6225  -0.031   5.808  10.321  0.8050 -0.2544 -0.4629
   47MOL0     C 6226  -0.030   5.673  10.255 -0.1044 -0.1165  1.1082
   47MOL0     N 6227  -0.010   5.679  10.114 -1.0997  0.2583  0.3974
   47MOL0     C 6228   0.089   5.613  10.049 -0.0366  0.0080 -1.2041
   47MOL0     C 6229   0.067   5.657   9.923 -1.0442 -0.3451  0.0355
   47MOL0     C 6230   0.154   5.626   9.802 -0.7152 -1.2790  0.0421
   47MOL0     C 6231   0.290   5.561   9.842 -0.5738  0.4170 -0.5477
   47MOL0     C 6232   0.396   5.590   9.732  0.9624 -0.0652 -0.9820
   47MOL0     C 6233   0.529   5.523   9.770 -0.1172 -0.1244  0.1657
   47MOL0     O 6234   0.596   5.600   9.874 -0.2821  0.7894 -0.3818
   47MOL0     C 6235   0.727   5.565   9.903 -0.5521 -0.5970  0.6181
   47MOL0     C 6236   0.805   5.647   9.986 -0.3358  0.1578  0.0082
   47MOL0     C 6237   0.940   5.617  10.004 -0.6802  0.3910 -0.8468
   47MOL0     C 6238   1.005   5.510   9.957 -1.1381 -0.0846  0.2450
   47MOL0     C 6239   1.147   5.481   9.969 -0.1764 -0.0689  0.2554
   47MOL0     O 6240   1.222   5.599   9.981 -0.3403  0.4072  0.1748
   47MOL0     C 6241   1.353   5.580  10.009 -0.5875 -1.1119 -0.2200
   47MOL0     C 6242   1.436   5.466   9.996  0.6374  0.1499 -1.2053
   47MOL0     C 6243   1.556   5.460  10.045 -0.2470 -0.1391  0.5966
   47MOL0     C 6244   1.620   5.571  10.097 -0.8349 -0.4033 -0.3829
   47MOL0     O 6245   1.759   5.558  10.124  0.1474  1.0559  0.3836
   47MOL0     C 6246   1.797   5.642  10.232  0.8331  0.6759 -0.2412
   47MOL0     C 6247   1.938   5.620  10.286  0.5574  0.1607  0.6006
   47MOL0     C 6248   1.981   5.707  10.398  0.4262 -0.4969  0.6642
   47MOL0     C 6249   1.995   5.855  10.380  0.7876  0.9535  0.6599
   47MOL0     C 6250   2.082   5.917  10.484 -0.0181  0.0544 -0.9230
   47MOL0     C 6251   2.021   5.898  10.629 -0.4546 -0.1332  0.4183
   47MOL0     C 6252   2.082   5.985  10.739 -0.5124  0.1567  1.1158
   47MOL0     C 6253   2.225   5.945  10.773 -0.4596  1.0664 -0.3044
   47MOL0    Cl 6254   2.209   5.798  10.866 -0.4858  0.1115 -0.1938
   47MOL0     C 6255   1.547   5.689  10.115 -0.5814  0.2931  0.5888
   47MOL0     C 6256   1.414   5.696  10.063  1.1736  0.8738 -0.5485
   47MOL0     O 6257   1.175   5.367   9.993  0.0427  0.0892 -0.3577
   47MOL0     C 6258   0.925   5.426   9.880 -0.4551  0.0410  1.1204
   47MOL0     C 6259   0.792   5.454   9.859 -0.3359  0.4142 -0.0398
   47MOL0     N 6260  -0.046   5.733   9.910  0.0822 -0.5006 -0.4085
   47MOL0     N 6261  -0.095   5.745  10.029 -1.1502  0.1920  0.6542
   47MOL0     C 6262   0.414   6.294  11.018  0.1802 -0.1745  1.4736
   47MOL0     C 6263   0.500   6.281  11.126 -1.3607  0.1438  0.0028
   47MOL0     C 6264   0.957   6.328  11.272 -0.7342 -0.1401  0.5711
   47MOL0     C 6265   0.935   6.325  11.408  0.2987 -0.0793  0.1418
   47MOL0     C 6266   1.041   6.338  11.504  1.1890  0.1757  0.2793
   47MOL0     C 6267   1.175   6.352  11.464 -0.4351  0.5778  0.2599
   47MOL0     O 6268   1.274   6.369  11.561  0.0203  0.1998 -0.5935
   47MOL0     C 6269   1.400   6.429  11.539  0.2939 -0.3689 -0.4802
   47MOL0     C 6270   1.402   6.584  11.546 -0.7240  0.1154 -1.1393
   47MOL0     C 6271   1.334   6.649  11.435  0.7537 -0.6818  0.0336
   47MOL0     C 6272   1.437   6.715  11.337 -0.4562  0.1979  0.2353
   47MOL0     C 6273   1.520   6.829  11.397 -0.0732  0.9413 -0.1292
   47MOL0     C 6274   1.594   6.888  11.466  0.4540 -0.3809  0.6589
   47MOL0     C 6275   1.202   6.329  11.325 -0.4004  0.3474  0.3901
   47MOL0     C 6276   1.094   6.334  11.230  0.4592 -0.7453  0.2810
   47MOL0     C 6277   1.138   6.371  11.088 -0.1057  0.4236 -0.0723
   47MOL0     H 6278   0.766   6.151  10.969 -0.0025 -3.6869  3.4652
   47MOL0     H 6279   0.609   6.171  10.775  0.7986 -0.1481  0.8673
   47MOL0     H 6280   0.290   6.398  10.656 -0.5595 -0.7721  1.0932
   47MOL0     H 6281   0.461   6.382  10.673 -1.0335  2.2555 -0.6733
   47MOL0     H 6282   0.444   6.149  10.586  0.8107  0.6964 -1.7638
   47MOL0     H 6283   0.402   6.274  10.471  1.2000 -1.3593 -0.6969
   47MOL0     H 6284   0.185   6.261  10.483  0.4731  0.8303  1.5925
   47MOL0     H 6285   0.161   6.178  10.631  1.4078 -0.2543  0.1609
   47MOL0     H 6286   0.246   6.073  10.353 -1.9122 -2.6667 -0.1772
   47MOL0     H 6287   0.309   5.987  10.498 -1.0833 -1.4244  0.8149
   47MOL0     H 6288   0.073   5.945  10.572 -1.0321  2.3643  0.9742
   47MOL0     H 6289   0.013   6.037  10.437 -0.3628  0.8056  2.5606
   47MOL0     H 6290   0.171   5.866  10.285  0.7514 -1.1988 -1.2814
   47MOL0     H 6291   0.165   5.770  10.428 -0.2553  0.9091  0.8652
   47MOL0     H 6292  -0.078   5.879  10.253  4.4759  1.0063 -1.9395
   47MOL0     H 6293  -0.102   5.802  10.404  0.5119 -2.9545 -0.8221
   47MOL0     H 6294   0.036   5.607  10.311  2.1319  1.2812  0.2665
   47MOL0     H 6295  -0.134   5.647  10.277 -0.5468 -1.7364 -2.2490
   47MOL0     H 6296   0.151   5.539  10.098 -2.0128 -0.1482  1.2420
   47MOL0     H 6297   0.096   5.561   9.735  3.2991 -3.2772 -1.8098
   47MOL0     H 6298   0.172   5.721   9.751 -1.3096 -2.0362 -1.6502
   47MOL0     H 6299   0.331   5.595   9.937  0.6465 -1.4118 -0.3727
   47MOL0     H 6300   0.271   5.457   9.873  0.5973  0.2684 -0.2802
   47MOL0     H 6301   0.412   5.698   9.740  0.1431 -0.0655  1.4879
   47MOL0     H 6302   0.366   5.576   9.628  0.1904 -0.1726 -0.7474
   47MOL0     H 6303   0.591   5.512   9.680 -3.7173 -0.5952 -2.4848
   47MOL0     H 6304   0.512   5.423   9.811 -0.4196 -0.8794 -1.6995
   47MOL0     H 6305   0.756   5.719  10.051 -1.9395  1.3201 -2.3403
   47MOL0     H 6306   0.995   5.680  10.074 -0.3122 -0.3349 -0.4757
   47MOL0     H 6307   1.409   5.374   9.946  1.6808 -0.3555 -0.8633
   47MOL0     H 6308   1.622   5.374  10.031  1.5085  1.1238  0.7057
   47MOL0     H 6309   1.790   5.745  10.194  2.1689  0.8528 -0.0706
   47MOL0     H 6310   1.732   5.629  10.319  2.3631 -0.6870  0.7757
   47MOL0     H 6311   1.940   5.514  10.311  2.4566 -0.6477 -2.3879
   47MOL0     H 6312   2.008   5.640  10.204 -0.6882  2.1577 -0.0318
   47MOL0     H 6313   1.912   5.692  10.482 -0.0892  0.5088  0.4350
   47MOL0     H 6314   2.078   5.668  10.428  2.5842  4.1714  0.6180
   47MOL0     H 6315   1.903   5.913  10.369  2.1971  3.1192 -0.3345
   47MOL0     H 6316   2.037   5.850  10.279 -3.0742 -0.6005 -1.0888
   47MOL0     H 6317   2.092   6.023  10.459  0.0516 -0.4162 -3.0852
   47MOL0     H 6318   2.183   5.876  10.494 -0.0584  0.4620  2.6331
   47MOL0     H 6319   1.916   5.928  10.622 -0.0372  1.2923 -0.0190
   47MOL0     H 6320   2.016   5.792  10.654  0.8458  0.2404  2.4442
   47MOL0     H 6321   2.022   5.975  10.830 -0.7066  1.9551  1.2200
   47MOL0     H 6322   2.081   6.089  10.705 -0.5912 -0.5696 -1.2863
   47MOL0     H 6323   2.299   5.926  10.695  2.2527  0.3312  2.2525
   47MOL0     H 6324   2.268   6.017  10.843  0.0509  1.0644 -0.6117
   47MOL0     H 6325   1.579   5.783  10.160 -2.5422  1.3991 -0.1766
   47MOL0     H 6326   1.364   5.792  10.062 -0.7036 -0.0338 -2.7003
   47MOL0     H 6327   0.962   5.344   9.820 -1.0282  0.0023  0.8064
   47MOL0     H 6328   0.735   5.380   9.804 -0.3408 -0.5694  1.2359
   47MOL0     H 6329   0.314   6.332  11.039 -0.0941 -0.6318  1.0370
   47MOL0     H 6330   0.470   6.331  11.217 -3.7720 -2.0854  0.5293
   47MOL0     H 6331   0.833   6.317  11.442  0.6734 -0.1888  1.2871
   47MOL0     H 6332   1.003   6.344  11.605 -1.0565  0.3115 -0.5255
   47MOL0     H 6333   1.451   6.381  11.455 -1.5958 -3.7023  0.0697
   47MOL0     H 6334   1.465   6.403  11.623 -1.1936 -1.7018  0.3133
   47MOL0     H 6335   1.504   6.613  11.573 -1.3524 -0.5596  2.3538
   47MOL0     H 6336   1.342   6.624  11.628 -0.7404  0.3343 -1.2560
   47MOL0     H 6337   1.287   6.735  11.483 -0.9155 -0.3289 -2.0858
   47MOL0     H 6338   1.272   6.574  11.384 -0.5904 -0.2517  0.9857
   47MOL0     H 6339   1.505   6.636  11.304  0.5606  1.2406 -0.2409
   47MOL0     H 6340   1.394   6.764  11.249 -1.0201 -2.0606 -0.8049
   47MOL0     H 6341   1.651   6.961  11.521 -1.4755 -1.5595  4.6282
   47MOL0     H 6342   1.306   6.339  11.294 -0.4927  2.7021  0.6974
   47MOL0     H 6343   1.096   6.468  11.059  2.2501  1.4636 -0.2377
   47MOL0     H 6344   1.245   6.396  11.092 -0.4027  1.6438  1.8874
   47MOL0     H 6345   1.117   6.289  11.019 -4.0876 -1.5802  3.0759
   48MOL0     O 6346   5.537   1.618  10.365 -0.2155 -0.1999  0.2260
   48MOL0     C 6347   5.579   1.564  10.266  0.3678  0.7509  0.2855
   48MOL0     O 6348   5.711   1.547  10.239 -0.1337 -0.3745  0.1975
   48MOL0     C 6349   5.815   1.599  10.310 -0.7139  0.0264 -0.0056
   48MOL0     C 6350   5.817   1.668  10.429  0.1206  0.5840  0.9640
   48MOL0     C 6351   5.938   1.715  10.484  0.5145 -0.7333 -0.0022
   48MOL0     C 6352   6.064   1.680  10.432  0.1621  0.9690 -0.5116
   48MOL0     O 6353   6.173   1.708  10.511  0.6744  0.1033 -0.9315
   48MOL0     C 6354   6.288   1.617  10.494 -0.2835 -0.8290 -0.0202
   48MOL0     C 6355   6.410   1.698  10.521  0.3748  0.0560 -0.7645
   48MOL0     C 6356   6.529   1.619  10.568  0.1114  0.7052  0.5784
   48MOL0     C 6357   6.628   1.701  10.660  0.8258 -0.4245  1.1955
   48MOL0     C 6358   6.735   1.602  10.708  0.1783 -0.5205  0.0041
   48MOL0     C 6359   6.683   1.499  10.799 -0.1501  0.1719 -0.5797
   48MOL0     C 6360   6.795   1.426  10.872  1.4059  0.2417  0.9190
   48MOL0     C 6361   6.738   1.325  10.966  0.3950 -0.4959  0.0773
   48MOL0     N 6362   6.839   1.237  11.033 -0.3242  0.5126  0.2142
   48MOL0     C 6363   6.833   1.097  11.042 -0.7445 -0.0298  0.0357
   48MOL0     C 6364   6.943   1.057  11.113 -0.3204 -0.4712 -0.1505
   48MOL0     C 6365   6.959   0.920  11.159  0.0570  0.6919 -0.3416
   48MOL0     C 6366   6.971   0.809  11.052  0.6086  0.0823 -0.7441
   48MOL0     C 6367   7.027   0.686  11.116  0.2507 -0.2190  0.0536
   48MOL0     C 6368   6.968   0.636  11.247 -0.2394 -0.3080 -1.4432
   48MOL0     O 6369   7.035   0.529  11.302 -0.4004  0.3013  0.4336
   48MOL0     C 6370   7.012   0.399  11.254 -0.5977  0.0484  0.2774
   48MOL0     C 6371   7.094   0.291  11.302  0.4184 -0.0411  0.3075
   48MOL0     C 6372   7.059   0.156  11.270 -0.2613 -0.0864  0.2460
   48MOL0     C 6373   6.958   0.139  11.181 -0.9982  0.6415  0.3160
   48MOL0     C 6374   6.924  -0.004  11.142  0.5919  0.5566 -0.4196
   48MOL0     O 6375   6.990  -0.105  11.216  0.5091 -0.8026  0.4181
   48MOL0     C 6376   6.978  -0.240  11.204 -1.0737 -0.1844  0.0428
   48MOL0     C 6377   6.872  -0.312  11.137 -0.1068 -0.0271 -0.3310
   48MOL0     C 6378   6.872  -0.449  11.130 -0.2860  0.3823 -0.9475
   48MOL0     C 6379   6.979  -0.529  11.183  0.4976  0.2956  0.0713
   48MOL0     O 6380   6.977  -0.671  11.183 -0.3194  0.0978 -0.4807
   48MOL0     C 6381   6.862  -0.748  11.168  0.0846 -0.7159 -0.6579
   48MOL0     C 6382   6.904  -0.897  11.194 -0.0980 -0.0241 -0.4278
   48MOL0     C 6383   6.996  -0.950  11.074 -0.0947 -0.5409 -0.4559
   48MOL0     C 6384   7.076  -1.074  11.112  0.2630  0.2137 -0.4040
   48MOL0     C 6385   7.137  -1.136  10.983  0.2150 -0.3278 -0.2655
   48MOL0     C 6386   7.222  -1.259  11.015 -0.0666  0.3936 -0.2596
   48MOL0     C 6387   7.272  -1.337  10.896  1.0045  0.0364  0.0809
   48MOL0     C 6388   7.148  -1.418  10.836 -0.8576 -0.0632 -0.9759
   48MOL0    Cl 6389   7.225  -1.525  10.714 -0.0646  0.1326  0.3804
   48MOL0     C 6390   7.088  -0.460  11.248  0.1806  0.5459  0.1289
   48MOL0     C 6391   7.074  -0.319  11.263  1.3069  0.4554 -0.2019
   48MOL0     O 6392   6.846  -0.020  11.048 -0.0106 -0.0932 -0.1946
   48MOL0     C 6393   6.883   0.249  11.130  0.2461 -0.2401 -0.0176
   48MOL0     C 6394   6.904   0.378  11.168 -0.4224 -0.0412 -0.1746
   48MOL0     N 6395   7.023   1.168  11.144  0.4232  0.4725 -0.5428
   48MOL0     N 6396   6.949   1.270  11.102  0.4591  0.8846 -0.5855
   48MOL0     C 6397   6.061   1.608  10.308  0.0532  0.8387  0.0763
   48MOL0     C 6398   5.941   1.577  10.245 -0.1122 -0.3676 -0.0997
   48MOL0     C 6399   5.480   1.500  10.176 -0.2006 -0.7068  0.2661
   48MOL0     C 6400   5.365   1.455  10.236  2.0176  0.1187 -0.0403
   48MOL0     C 6401   5.273   1.388  10.167 -0.1113  0.0913 -0.3557
   48MOL0     C 6402   5.290   1.357  10.034 -0.2586 -0.0416  0.1561
   48MOL0     O 6403   5.199   1.287   9.964 -0.7547 -0.0876  0.8322
   48MOL0     C 6404   5.073   1.267  10.024  0.6682  0.4052  0.2893
   48MOL0     C 6405   4.982   1.209   9.920  0.2713 -0.3116 -0.7306
   48MOL0     C 6406   4.833   1.199   9.960 -0.5214 -0.3839 -0.2860
   48MOL0     C 6407   4.770   1.054   9.953 -0.5208 -0.3872 -0.3402
   48MOL0     C 6408   4.813   0.972  10.060 -0.2958  0.2044 -0.2929
   48MOL0     C 6409   4.877   0.897  10.149  0.6065 -0.1326  0.8738
   48MOL0     C 6410   5.403   1.395   9.980  0.3042 -0.3264 -0.1194
   48MOL0     C 6411   5.504   1.472  10.036  1.0420  0.4993 -0.8663
   48MOL0     C 6412   5.619   1.510   9.955 -0.3752 -0.0480 -0.6321
   48MOL0     H 6413   5.728   1.707  10.478 -1.3835  2.1892 -2.6732
   48MOL0     H 6414   5.938   1.764  10.581 -0.6825 -3.2506  1.3640
   48MOL0     H 6415   6.273   1.535  10.565 -0.5816 -0.7749 -0.0231
   48MOL0     H 6416   6.294   1.570  10.395  3.4070 -2.0840  0.6152
   48MOL0     H 6417   6.378   1.767  10.600  1.3883 -1.0980  0.7077
   48MOL0     H 6418   6.433   1.739  10.422 -0.7565 -0.7592 -1.3949
   48MOL0     H 6419   6.574   1.571  10.481  0.2155  0.5725  0.7041
   48MOL0     H 6420   6.487   1.529  10.614 -1.8848 -0.3137 -2.9111
   48MOL0     H 6421   6.666   1.774  10.588  1.1881 -1.4235  0.3499
   48MOL0     H 6422   6.582   1.751  10.746 -3.1947 -1.4904 -0.0991
   48MOL0     H 6423   6.779   1.557  10.619  2.9509  4.2237 -1.3550
   48MOL0     H 6424   6.823   1.651  10.751  1.0072  0.3486 -2.5562
   48MOL0     H 6425   6.616   1.536  10.878 -1.0565 -2.5391  0.0353
   48MOL0     H 6426   6.632   1.424  10.738  1.2409  0.3166 -1.9633
   48MOL0     H 6427   6.856   1.486  10.940 -1.7472  1.3946  2.9863
   48MOL0     H 6428   6.855   1.365  10.804  0.6847 -1.7717  1.9981
   48MOL0     H 6429   6.678   1.382  11.037  0.4543  1.6630 -1.4891
   48MOL0     H 6430   6.674   1.256  10.911 -0.5995  1.8765 -1.9514
   48MOL0     H 6431   6.747   1.047  11.000  0.0361 -1.3258 -0.0791
   48MOL0     H 6432   7.053   0.916  11.215 -0.9299 -0.1367  1.3130
   48MOL0     H 6433   6.871   0.892  11.218 -1.8681 -1.8142 -4.0137
   48MOL0     H 6434   6.871   0.805  11.008  0.5002 -0.2563 -0.4672
   48MOL0     H 6435   7.045   0.831  10.974 -0.3318 -0.3225 -1.7719
   48MOL0     H 6436   7.136   0.690  11.121  0.3433  0.8436 -1.8346
   48MOL0     H 6437   7.018   0.604  11.043  1.3211 -0.6186  0.3477
   48MOL0     H 6438   6.860   0.614  11.246 -0.2192 -0.5732  0.1603
   48MOL0     H 6439   6.981   0.710  11.327 -0.0628 -3.4693  1.6896
   48MOL0     H 6440   7.166   0.323  11.376 -1.4478 -0.9241  2.6405
   48MOL0     H 6441   7.123   0.074  11.301 -2.6906 -2.4837 -0.6756
   48MOL0     H 6442   6.781  -0.273  11.093  0.7733  1.9564 -0.5115
   48MOL0     H 6443   6.790  -0.507  11.090 -0.3716  0.5311 -0.9914
   48MOL0     H 6444   6.790  -0.721  11.246  1.2823  2.4350 -0.4984
   48MOL0     H 6445   6.817  -0.720  11.073 -3.6294 -1.5436  0.6944
   48MOL0     H 6446   6.959  -0.910  11.287  0.3069  0.7864 -0.5445
   48MOL0     H 6447   6.814  -0.959  11.202 -0.2024 -0.1728 -2.3328
   48MOL0     H 6448   6.924  -0.969  10.994 -3.1965 -1.2971  2.2887
   48MOL0     H 6449   7.057  -0.863  11.045 -1.5792  2.4945  4.3374
   48MOL0     H 6450   7.030  -1.149  11.177  0.1637  0.1486 -0.5468
   48MOL0     H 6451   7.155  -1.033  11.174 -0.3845  3.3138 -1.4414
   48MOL0     H 6452   7.188  -1.056  10.929  2.0523 -1.2187  0.0882
   48MOL0     H 6453   7.056  -1.163  10.915 -0.8802  2.0421 -0.0038
   48MOL0     H 6454   7.300  -1.222  11.082 -1.4446  0.3417  1.4452
   48MOL0     H 6455   7.154  -1.322  11.072 -1.1139  1.1396 -0.6528
   48MOL0     H 6456   7.346  -1.409  10.931  3.6592  0.6788 -3.6829
   48MOL0     H 6457   7.318  -1.279  10.816  1.3440 -0.5274 -0.1356
   48MOL0     H 6458   7.079  -1.466  10.906 -0.4546  1.8809  0.8493
   48MOL0     H 6459   7.093  -1.347  10.774  1.5088  1.9353 -0.9154
   48MOL0     H 6460   7.164  -0.519  11.297 -0.0991  0.6567  0.7017
   48MOL0     H 6461   7.149  -0.256  11.310  2.6514  0.3694 -2.1328
   48MOL0     H 6462   6.794   0.235  11.070 -0.6856 -0.6414  1.4121
   48MOL0     H 6463   6.838   0.451  11.124  1.6210  2.6872  1.0345
   48MOL0     H 6464   6.141   1.574  10.243 -1.5482 -0.1923 -1.4937
   48MOL0     H 6465   5.933   1.527  10.148 -3.2981 -0.1118 -0.0693
   48MOL0     H 6466   5.343   1.467  10.342 -0.4346 -1.2593 -0.3129
   48MOL0     H 6467   5.183   1.357  10.219  0.5610 -1.3060  0.0185
   48MOL0     H 6468   5.030   1.361  10.061 -0.2350 -0.0780  0.4858
   48MOL0     H 6469   5.073   1.202  10.112 -3.6726  3.0657  2.6436
   48MOL0     H 6470   5.013   1.106   9.898 -1.4515 -0.8392 -0.8742
   48MOL0     H 6471   4.991   1.275   9.833 -0.6246  0.5472 -0.1849
   48MOL0     H 6472   4.771   1.256   9.891 -1.5455 -3.2568 -1.9220
   48MOL0     H 6473   4.823   1.240  10.060 -1.3498  0.0033 -0.5227
   48MOL0     H 6474   4.662   1.064   9.941 -0.5177  0.2425  0.1122
   48MOL0     H 6475   4.809   1.018   9.857  0.0785 -0.7247  0.0320
   48MOL0     H 6476   4.940   0.857  10.225 -0.9258 -4.8199 -0.0007
   48MOL0     H 6477   5.427   1.354   9.882 -2.1874 -0.9775 -0.5164
   48MOL0     H 6478   5.589   1.517   9.850 -0.0018  0.2623 -0.7202
   48MOL0     H 6479   5.649   1.602  10.006 -3.3678 -0.1521  1.6160
   48MOL0     H 6480   5.696   1.434   9.971  0.7921  1.2552  0.1571
   49MOL0     O 6481   6.768   9.632   8.944  0.4669  0.0025 -0.2183
   49MOL0     C 6482   6.708   9.645   8.837 -0.0163  0.1052 -0.7502
   49MOL0     O 6483   6.583   9.700   8.826  0.5665 -0.0663 -0.2251
   49MOL0     C 6484   6.539   9.755   8.943  0.2850 -0.2039  1.1064
   49MOL0     C 6485   6.464   9.679   9.036  0.5384 -0.0951 -0.3741
   49MOL0     C 6486   6.414   9.737   9.159 -0.1109 -0.6209  0.4721
   49MOL0     C 6487   6.428   9.877   9.186  0.0664 -0.4752 -0.3121
   49MOL0     O 6488   6.360   9.946   9.283  0.2738  1.0691  0.3910
   49MOL0     C 6489   6.355   9.900   9.417 -0.1623 -0.6442 -0.3535
   49MOL0     C 6490   6.266  10.004   9.495  0.2726  0.2783  0.7105
   49MOL0     C 6491   6.121  10.017   9.443 -0.2556 -0.0110 -0.3179
   49MOL0     C 6492   5.999   9.953   9.516 -0.0608 -0.8766  0.7602
   49MOL0     C 6493   5.892   9.954   9.423 -0.1676 -0.4054  0.5605
   49MOL0     C 6494   5.756   9.918   9.496  0.7515 -0.3516 -0.3554
   49MOL0     C 6495   5.634   9.927   9.400  0.0132 -0.2918  0.3421
   49MOL0     C 6496   5.554   9.798   9.399  0.3905 -0.3525  0.5707
   49MOL0     N 6497   5.492   9.760   9.520  0.2163  0.5761 -0.4118
   49MOL0     C 6498   5.376   9.810   9.575  1.1547  0.4302 -0.3453
   49MOL0     C 6499   5.362   9.742   9.698 -0.7292  0.3800  0.0824
   49MOL0     C 6500   5.260   9.755   9.805  0.1239  0.8819 -0.1385
   49MOL0     C 6501   5.146   9.640   9.795 -0.0009 -0.4147  0.0298
   49MOL0     C 6502   5.061   9.636   9.674 -0.1284 -0.3795  0.6976
   49MOL0     C 6503   4.949   9.739   9.657  0.5674 -0.4367  2.0907
   49MOL0     O 6504   4.982   9.871   9.682 -0.3125 -0.2733  0.3740
   49MOL0     C 6505   4.889   9.972   9.660 -0.0301  0.3115 -0.3502
   49MOL0     C 6506   4.914  10.096   9.699 -1.2235 -0.6870 -0.3161
   49MOL0     C 6507   4.827  10.209   9.681  0.4526 -0.4784  0.5131
   49MOL0     C 6508   4.702  10.193   9.609 -0.4702  0.3720 -0.1298
   49MOL0     C 6509   4.611  10.298   9.573  0.3078  0.9037  0.2503
   49MOL0     O 6510   4.501  10.257   9.502 -0.4717 -0.2174 -0.5669
   49MOL0     C 6511   4.388  10.336   9.489 -0.6073  0.2540 -0.3768
   49MOL0     C 6512   4.361  10.447   9.569  0.4959 -0.8461  0.2595
   49MOL0     C 6513   4.225  10.497   9.559 -0.1315  0.2382  0.4521
   49MOL0     C 6514   4.137  10.456   9.461 -0.1773 -0.1911 -0.0357
   49MOL0     O 6515   4.015  10.525   9.449 -0.8522  0.5319 -0.0191
   49MOL0     C 6516   4.030  10.659   9.398  0.3308 -0.8012  0.9586
   49MOL0     C 6517   3.951  10.678   9.272  0.2568  0.0643 -0.4860
   49MOL0     C 6518   3.997  10.814   9.207  0.6486 -0.2856 -0.6438
   49MOL0     C 6519   3.909  10.849   9.086 -0.3270  0.0029 -0.0539
   49MOL0     C 6520   3.956  10.782   8.956 -0.0518  0.3016 -0.3659
   49MOL0     C 6521   3.883  10.834   8.831  0.1635 -0.8332  0.4078
   49MOL0     C 6522   3.956  10.769   8.705  0.6843 -0.4947  0.1294
   49MOL0     C 6523   3.887  10.801   8.573  0.0355 -0.2018 -0.0368
   49MOL0    Cl 6524   3.717  10.753   8.556  0.1921 -0.2982  0.3120
   49MOL0     C 6525   4.178  10.354   9.374  0.5973  0.2601 -1.0592
   49MOL0     C 6526   4.301  10.295   9.391 -0.1701 -0.2930  0.2711
   49MOL0     O 6527   4.653  10.409   9.591 -0.2105  0.5167 -0.3188
   49MOL0     C 6528   4.676  10.058   9.573  0.3898 -0.7962 -1.2274
   49MOL0     C 6529   4.767   9.954   9.600  0.5125 -0.3973 -0.1513
   49MOL0     N 6530   5.468   9.662   9.713 -0.3477  0.4685 -0.0285
   49MOL0     N 6531   5.548   9.677   9.616  0.7816  0.2556 -1.0370
   49MOL0     C 6532   6.504   9.947   9.088 -0.9456  0.3152  0.2708
   49MOL0     C 6533   6.551   9.892   8.967 -0.4648  0.1887 -0.1081
   49MOL0     C 6534   6.766   9.576   8.721  0.2490  0.6750  1.1111
   49MOL0     C 6535   6.828   9.443   8.740  0.6777 -0.1459 -0.3038
   49MOL0     C 6536   6.901   9.381   8.639 -0.8685 -0.5720 -0.1106
   49MOL0     C 6537   6.899   9.432   8.516  0.7041  0.5134  0.6329
   49MOL0     O 6538   6.950   9.369   8.404  0.5387 -0.9461  0.1753
   49MOL0     C 6539   7.050   9.259   8.414  0.2394 -0.7941 -0.0988
   49MOL0     C 6540   7.139   9.246   8.284 -0.2538 -1.0276 -0.3216
   49MOL0     C 6541   7.057   9.236   8.159 -0.0945  0.0436 -0.4986
   49MOL0     C 6542   7.127   9.169   8.033  0.3897 -0.0895 -0.6386
   49MOL0     C 6543   7.216   9.266   7.970 -0.6515  0.4517  0.3504
   49MOL0     C 6544   7.284   9.347   7.917 -0.1548 -0.2218 -0.4978
   49MOL0     C 6545   6.849   9.557   8.487  0.1170  0.6980 -0.3602
   49MOL0     C 6546   6.776   9.634   8.588  1.0807  0.3915  0.4722
   49MOL0     C 6547   6.714   9.768   8.572  0.8674  0.1350  0.0204
   49MOL0     H 6548   6.455   9.573   9.015  2.4779 -0.2811 -0.4566
   49MOL0     H 6549   6.349   9.680   9.225 -1.9945  0.4393 -0.3871
   49MOL0     H 6550   6.314   9.799   9.430  1.3903 -1.2367  0.2476
   49MOL0     H 6551   6.458   9.895   9.454 -0.9994 -0.0857  2.2383
   49MOL0     H 6552   6.317  10.100   9.483 -0.3444  0.4771 -0.4020
   49MOL0     H 6553   6.266   9.963   9.597 -1.7407 -2.5546 -0.2972
   49MOL0     H 6554   6.114   9.978   9.341  2.0996  0.1457 -0.5788
   49MOL0     H 6555   6.089  10.121   9.427 -3.4346 -1.2644 -3.3142
   49MOL0     H 6556   6.022   9.854   9.555 -0.6727 -1.0373  0.7302
   49MOL0     H 6557   5.978  10.029   9.592  2.8411 -0.3999  1.1876
   49MOL0     H 6558   5.891  10.047   9.365  0.4007 -1.0721 -0.5649
   49MOL0     H 6559   5.910   9.885   9.340 -4.0292 -3.8901  2.3095
   49MOL0     H 6560   5.775   9.822   9.544  1.8877 -0.0353 -0.1439
   49MOL0     H 6561   5.728   9.983   9.579 -0.8581 -2.3147  0.7348
   49MOL0     H 6562   5.676   9.927   9.299 -0.4412  0.6101  0.1422
   49MOL0     H 6563   5.570  10.015   9.412 -1.7164 -1.0975 -2.0191
   49MOL0     H 6564   5.482   9.807   9.318  1.0177  0.7642  0.1079
   49MOL0     H 6565   5.616   9.714   9.367 -0.5811 -0.4026 -1.2930
   49MOL0     H 6566   5.307   9.891   9.552  1.0899  0.2315 -0.8535
   49MOL0     H 6567   5.314   9.740   9.899  3.2675  0.4166 -1.8676
   49MOL0     H 6568   5.215   9.854   9.813  1.3499  1.8810 -3.6307
   49MOL0     H 6569   5.192   9.541   9.808  1.2190 -0.6046 -4.1580
   49MOL0     H 6570   5.082   9.644   9.883  1.3867  1.0212  1.0150
   49MOL0     H 6571   5.010   9.540   9.660 -0.0559 -0.1498 -1.5454
   49MOL0     H 6572   5.123   9.635   9.584 -2.6129 -2.6218 -1.1504
   49MOL0     H 6573   4.876   9.706   9.731  0.3010 -1.2759  1.4643
   49MOL0     H 6574   4.908   9.722   9.557  0.9621 -0.0678  1.8641
   49MOL0     H 6575   5.011  10.101   9.746 -1.1815 -2.3821 -0.1585
   49MOL0     H 6576   4.864  10.308   9.706  2.0908 -0.9673  0.1189
   49MOL0     H 6577   4.438  10.475   9.641 -0.8832 -0.7658  1.7528
   49MOL0     H 6578   4.199  10.566   9.638  1.1294 -0.8722  1.9081
   49MOL0     H 6579   3.997  10.730   9.474 -1.2387 -0.8369  0.3704
   49MOL0     H 6580   4.134  10.682   9.373 -0.0894  1.2654  0.9309
   49MOL0     H 6581   3.974  10.599   9.201 -0.8772 -2.3215  1.6418
   49MOL0     H 6582   3.847  10.673   9.305 -0.3332  2.1011 -1.8329
   49MOL0     H 6583   3.974  10.893   9.279 -0.2674 -2.0823  1.1549
   49MOL0     H 6584   4.104  10.820   9.187  0.7359 -2.7453 -1.2338
   49MOL0     H 6585   3.896  10.956   9.067 -5.6014 -0.6826 -1.7038
   49MOL0     H 6586   3.807  10.823   9.115  0.5104 -1.7743  1.5535
   49MOL0     H 6587   3.943  10.678   8.986  2.6284  0.4888  1.8399
   49MOL0     H 6588   4.063  10.802   8.949  0.0081 -0.5408 -2.9576
   49MOL0     H 6589   3.779  10.801   8.832 -0.2045 -0.0089 -2.1427
   49MOL0     H 6590   3.881  10.943   8.830  2.2426 -0.7351  1.5596
   49MOL0     H 6591   3.946  10.660   8.708 -4.8482 -0.2586 -0.6749
   49MOL0     H 6592   4.056  10.814   8.696 -0.3320  1.4246 -2.6012
   49MOL0     H 6593   3.890  10.909   8.557 -1.6424 -0.2874 -1.2427
   49MOL0     H 6594   3.952  10.760   8.496  4.7329  2.7992  1.8711
   49MOL0     H 6595   4.127  10.341   9.279 -2.2999  0.6969  0.3126
   49MOL0     H 6596   4.339  10.209   9.338 -0.3812 -0.5048  0.4598
   49MOL0     H 6597   4.578  10.033   9.534 -1.4091  1.3487  1.5400
   49MOL0     H 6598   4.728   9.856   9.575  0.1786 -0.3111  0.0155
   49MOL0     H 6599   6.511  10.053   9.110 -0.4780 -0.4565  4.8916
   49MOL0     H 6600   6.592   9.965   8.898 -3.3659  2.9946  0.8522
   49MOL0     H 6601   6.823   9.407   8.842 -0.5065  2.0809  0.4857
   49MOL0     H 6602   6.959   9.290   8.656  1.2148  1.2211  3.6884
   49MOL0     H 6603   7.001   9.167   8.446  2.7042 -1.8931  0.8011
   49MOL0     H 6604   7.125   9.281   8.491 -0.7511  0.5640  0.5261
   49MOL0     H 6605   7.195   9.153   8.294  0.4460 -0.9074 -2.6262
   49MOL0     H 6606   7.201   9.336   8.275  0.6466 -1.2735  2.3570
   49MOL0     H 6607   7.028   9.339   8.135  2.1752  0.9185  0.2674
   49MOL0     H 6608   6.968   9.180   8.188  0.5403 -0.2982  0.8317
   49MOL0     H 6609   7.172   9.078   8.074 -1.8675 -0.0728  2.2261
   49MOL0     H 6610   7.045   9.133   7.971  1.0383 -3.3799  0.1910
   49MOL0     H 6611   7.356   9.406   7.864 -1.6418  1.2921 -0.9249
   49MOL0     H 6612   6.861   9.588   8.384  1.6120  1.8877  0.1398
   49MOL0     H 6613   6.744   9.813   8.477  2.0748 -1.2477 -0.2942
   49MOL0     H 6614   6.606   9.755   8.587  0.7078  2.2922  0.9596
   49MOL0     H 6615   6.747   9.826   8.658  0.9777 -0.7311  0.5765
   50MOL0     O 6616   7.360   3.520   9.355 -0.8589  0.3147 -0.2180
   50MOL0     C 6617   7.446   3.507   9.440 -0.1105  0.6643  0.0607
   50MOL0     O 6618   7.444   3.406   9.535 -1.0231 -1.0032  0.1130
   50MOL0     C 6619   7.337   3.325   9.554 -0.6601  0.0986  0.4804
   50MOL0     C 6620   7.221   3.373   9.615 -0.6436 -1.1197  0.5779
   50MOL0     C 6621   7.110   3.297   9.640 -0.6092 -0.2500 -0.6187
   50MOL0     C 6622   7.109   3.167   9.595  0.0349 -0.5689  0.1451
   50MOL0     O 6623   6.994   3.099   9.617  0.6504 -0.5863  0.1405
   50MOL0     C 6624   6.910   3.069   9.509 -0.9092 -0.4138  0.1145
   50MOL0     C 6625   6.803   2.966   9.534  0.3240 -0.5481 -0.8577
   50MOL0     C 6626   6.868   2.818   9.552  0.3101 -1.3122 -0.2627
   50MOL0     C 6627   6.941   2.805   9.681 -0.3838 -0.1766  0.3892
   50MOL0     C 6628   7.004   2.660   9.706  0.2307  0.3831 -0.2953
   50MOL0     C 6629   6.907   2.541   9.739 -0.8600 -0.4139  0.6127
   50MOL0     C 6630   6.976   2.419   9.680  0.3105  0.4727  1.2927
   50MOL0     C 6631   7.115   2.388   9.741  0.0953  0.2515 -0.1103
   50MOL0     N 6632   7.119   2.356   9.880  0.7660 -0.1926 -0.1913
   50MOL0     C 6633   7.126   2.225   9.911 -0.0496  0.3385 -0.0152
   50MOL0     C 6634   7.113   2.238  10.050 -0.5635 -0.3463  0.4334
   50MOL0     C 6635   7.133   2.121  10.142  0.3074 -0.4913 -0.3764
   50MOL0     C 6636   7.016   2.023  10.143  0.1017  0.6037  0.1505
   50MOL0     C 6637   7.003   1.934  10.025  0.1062 -0.2242 -0.9937
   50MOL0     C 6638   6.875   1.983   9.944  0.5954 -0.0633  0.0390
   50MOL0     O 6639   6.883   1.956   9.801  0.0525  0.1753 -0.3775
   50MOL0     C 6640   6.896   1.833   9.757  0.4017  0.4525  0.1497
   50MOL0     C 6641   7.015   1.784   9.692 -0.4694  0.4660 -0.4246
   50MOL0     C 6642   7.022   1.650   9.650 -0.4388  0.0875 -0.3040
   50MOL0     C 6643   6.917   1.565   9.661  0.9050 -0.4920 -0.3121
   50MOL0     C 6644   6.924   1.418   9.640  0.3264 -0.2712 -0.2153
   50MOL0     O 6645   7.049   1.366   9.633  0.1312  0.6879  0.0337
   50MOL0     C 6646   7.059   1.244   9.569 -0.4796  0.4099 -0.1096
   50MOL0     C 6647   7.109   1.135   9.642 -0.2018 -0.2841 -1.3346
   50MOL0     C 6648   7.130   1.009   9.592 -0.3281 -0.5785  0.4209
   50MOL0     C 6649   7.097   0.991   9.457 -0.0413 -0.6896 -0.1674
   50MOL0     O 6650   7.133   0.873   9.397  0.7741 -0.3144 -0.1559
   50MOL0     C 6651   7.021   0.777   9.391 -1.1617  0.1440  0.9421
   50MOL0     C 6652   7.092   0.642   9.384 -0.3741  0.0486  0.3508
   50MOL0     C 6653   7.165   0.615   9.247  1.0965 -0.3902  0.1304
   50MOL0     C 6654   7.242   0.475   9.261 -0.0632  0.5295 -0.4906
   50MOL0     C 6655   7.258   0.404   9.120  0.2816 -0.3761  0.1181
   50MOL0     C 6656   7.303   0.264   9.127 -0.6161  0.5640 -0.5392
   50MOL0     C 6657   7.447   0.263   9.172 -0.2022 -0.6325 -0.4093
   50MOL0     C 6658   7.519   0.147   9.117  0.5225 -0.0440  0.9466
   50MOL0    Cl 6659   7.435   0.001   9.182 -0.0303  0.7338 -0.5988
   50MOL0     C 6660   7.046   1.091   9.384  0.6752  0.3352  0.7591
   50MOL0     C 6661   7.032   1.220   9.437  0.4240 -0.4941  0.6807
   50MOL0     O 6662   6.818   1.356   9.622 -0.3186  0.2168  0.5634
   50MOL0     C 6663   6.791   1.618   9.705 -0.4048 -0.3203  0.0224
   50MOL0     C 6664   6.779   1.753   9.747  0.6246  0.2420 -0.1162
   50MOL0     N 6665   7.077   2.366  10.091  0.2514  0.2975 -0.4010
   50MOL0     N 6666   7.081   2.442   9.986 -0.7449  0.5657 -0.8784
   50MOL0     C 6667   7.221   3.105   9.544  0.0076  0.1687 -0.6860
   50MOL0     C 6668   7.337   3.187   9.513 -0.7722 -0.5804 -0.1324
   50MOL0     C 6669   7.557   3.600   9.435  0.5149  0.1818 -0.5846
   50MOL0     C 6670   7.613   3.654   9.555 -0.6629 -0.1183 -0.1305
   50MOL0     C 6671   7.725   3.743   9.554 -0.0724 -0.8941  0.3216
   50MOL0     C 6672   7.769   3.795   9.429 -0.0888  0.5585  0.9293
   50MOL0     O 6673   7.863   3.889   9.437  0.7309  0.1537 -0.1506
   50MOL0     C 6674   7.940   3.946   9.324  0.2794  0.3171  0.5213
   50MOL0     C 6675   8.050   3.861   9.267  0.0890 -0.2659  0.2934
   50MOL0     C 6676   8.152   3.949   9.176  0.0668 -0.2647  0.0108
   50MOL0     C 6677   8.256   4.014   9.260 -0.3331  0.1806  0.6470
   50MOL0     C 6678   8.352   3.918   9.323 -0.8036  0.5138  0.1125
   50MOL0     C 6679   8.434   3.837   9.369 -0.1972 -0.2164 -0.3860
   50MOL0     C 6680   7.714   3.743   9.315 -0.7541 -0.3255 -0.2176
   50MOL0     C 6681   7.618   3.642   9.313 -0.4221  0.2604  0.2406
   50MOL0     C 6682   7.583   3.572   9.184  0.9222 -0.3363 -0.5341
   50MOL0     H 6683   7.209   3.467   9.667 -1.1156 -1.2582  0.7229
   50MOL0     H 6684   7.018   3.324   9.690 -0.6887 -1.3162 -0.1655
   50MOL0     H 6685   6.844   3.154   9.488 -2.0183 -1.6646 -1.7262
   50MOL0     H 6686   6.975   3.046   9.424  1.9470  0.5400  1.8811
   50MOL0     H 6687   6.728   2.959   9.455 -1.0182 -0.9976  0.4314
   50MOL0     H 6688   6.746   2.989   9.624  1.6906 -1.6805  0.3560
   50MOL0     H 6689   6.942   2.790   9.476  0.1724 -2.5642  0.0433
   50MOL0     H 6690   6.783   2.750   9.554 -0.6057 -0.2250 -0.8400
   50MOL0     H 6691   7.034   2.861   9.672 -0.4853 -0.0279  0.2536
   50MOL0     H 6692   6.910   2.862   9.769 -1.8652  0.0903 -0.2801
   50MOL0     H 6693   7.072   2.648   9.621  2.3354  1.0745  1.2137
   50MOL0     H 6694   7.060   2.677   9.798  0.0677  2.9943 -0.6215
   50MOL0     H 6695   6.898   2.534   9.847  0.8124  1.1520  0.8969
   50MOL0     H 6696   6.811   2.550   9.688  0.7126 -0.6913 -2.7141
   50MOL0     H 6697   6.972   2.440   9.572  1.5322 -2.5427  0.5765
   50MOL0     H 6698   6.922   2.325   9.692  3.0697 -1.3265  0.5204
   50MOL0     H 6699   7.163   2.303   9.692 -0.2494 -0.1381  0.2197
   50MOL0     H 6700   7.184   2.474   9.734  1.0346 -0.2590  2.0059
   50MOL0     H 6701   7.116   2.138   9.848  0.1546  0.7239 -0.5884
   50MOL0     H 6702   7.229   2.070  10.130 -1.0649 -3.1830 -0.6813
   50MOL0     H 6703   7.144   2.161  10.243  3.5227  1.1197 -1.2338
   50MOL0     H 6704   7.052   1.964  10.228 -1.5122  0.4909  0.7845
   50MOL0     H 6705   6.919   2.070  10.161 -1.1240 -1.3797 -0.9092
   50MOL0     H 6706   6.993   1.831  10.060 -0.7097 -1.4853 -4.5282
   50MOL0     H 6707   7.092   1.933   9.962  1.2229 -0.0343  0.5147
   50MOL0     H 6708   6.879   2.092   9.938  3.0710  0.0900  2.6899
   50MOL0     H 6709   6.784   1.939   9.986  0.9926 -1.0357 -0.0902
   50MOL0     H 6710   7.100   1.851   9.680 -0.6121  0.6662 -0.3169
   50MOL0     H 6711   7.109   1.612   9.598 -1.1664 -3.3350  0.7016
   50MOL0     H 6712   7.135   1.144   9.746  1.4652  2.5912 -1.8856
   50MOL0     H 6713   7.177   0.934   9.654 -1.7319 -2.5996 -0.8302
   50MOL0     H 6714   6.960   0.793   9.480 -0.4327  1.6418  1.2101
   50MOL0     H 6715   6.970   0.785   9.294  1.3704  2.5088 -0.3230
   50MOL0     H 6716   7.155   0.646   9.473 -2.8546  3.1877  2.1766
   50MOL0     H 6717   7.024   0.559   9.403  1.5801 -1.3860  1.5227
   50MOL0     H 6718   7.093   0.596   9.167  1.1632 -2.3908  0.4929
   50MOL0     H 6719   7.231   0.700   9.228  0.7966 -0.4176 -1.1492
   50MOL0     H 6720   7.185   0.412   9.330  2.7625 -0.9589  0.6641
   50MOL0     H 6721   7.347   0.486   9.291  0.3459 -3.7561  0.2532
   50MOL0     H 6722   7.332   0.460   9.063  1.7674 -4.0422 -1.8773
   50MOL0     H 6723   7.167   0.400   9.058  1.1826  0.4042 -1.3076
   50MOL0     H 6724   7.241   0.207   9.198 -0.5485 -0.0087 -0.9317
   50MOL0     H 6725   7.288   0.214   9.031 -3.6294 -1.6332  0.9077
   50MOL0     H 6726   7.449   0.240   9.279 -1.2451 -0.8942 -0.4282
   50MOL0     H 6727   7.495   0.360   9.155 -0.0636 -0.8923 -1.5198
   50MOL0     H 6728   7.520   0.145   9.008  0.7770 -2.3957  0.9353
   50MOL0     H 6729   7.622   0.144   9.155  1.5040  0.3505 -1.4767
   50MOL0     H 6730   7.021   1.053   9.285  0.9199  0.3552  0.6868
   50MOL0     H 6731   6.994   1.310   9.389 -0.6727 -1.0669  0.4660
   50MOL0     H 6732   6.699   1.561   9.693 -2.5001  2.8789 -0.3245
   50MOL0     H 6733   6.680   1.795   9.762  1.5585  3.7754 -2.4568
   50MOL0     H 6734   7.220   2.998   9.530 -0.6122  0.3888 -2.6955
   50MOL0     H 6735   7.428   3.156   9.464 -1.2504  1.9038 -2.9059
   50MOL0     H 6736   7.572   3.635   9.654  2.7281  1.9395  1.8695
   50MOL0     H 6737   7.773   3.789   9.639  0.8250  1.7590 -1.5037
   50MOL0     H 6738   7.976   4.044   9.358 -0.4457  0.1719  1.7685
   50MOL0     H 6739   7.861   3.982   9.257 -0.3539  3.1174  2.5640
   50MOL0     H 6740   8.002   3.780   9.213  2.0148 -1.1952 -0.0975
   50MOL0     H 6741   8.109   3.820   9.349  1.9839  1.6510 -0.0173
   50MOL0     H 6742   8.095   4.032   9.134 -0.3712  0.8663  2.6420
   50MOL0     H 6743   8.194   3.885   9.097  0.0025  1.9241 -1.8799
   50MOL0     H 6744   8.323   4.071   9.195 -3.6141  0.3736 -2.9243
   50MOL0     H 6745   8.207   4.083   9.330 -3.0003 -0.6257 -0.3396
   50MOL0     H 6746   8.491   3.767   9.427 -2.7996  2.0034  5.7622
   50MOL0     H 6747   7.750   3.786   9.222  2.1663 -0.1446  0.8783
   50MOL0     H 6748   7.646   3.597   9.098 -0.5765 -0.1328 -1.6122
   50MOL0     H 6749   7.606   3.466   9.201  1.9601 -0.2864 -1.5193
   50MOL0     H 6750   7.479   3.594   9.159  0.7860 -1.2981 -0.8674
   51MOL0     O 6751   6.169   6.963   2.395 -0.3225 -0.2996  1.0408
   51MOL0     C 6752   6.186   7.037   2.490 -0.5752  0.8223  0.5952
   51MOL0     O 6753   6.282   7.131   2.500  0.0690  0.1933 -0.3226
   51MOL0     C 6754   6.335   7.195   2.387  0.1133 -0.8360 -0.1916
   51MOL0     C 6755   6.477   7.199   2.375 -0.3395 -0.3121 -0.6041
   51MOL0     C 6756   6.536   7.268   2.269  0.7696  0.6284 -0.5217
   51MOL0     C 6757   6.466   7.336   2.171  1.1012  0.1387 -0.1940
   51MOL0     O 6758   6.526   7.408   2.068 -0.1602 -0.2667 -0.7512
   51MOL0     C 6759   6.661   7.452   2.085  0.1106  0.4455 -0.3572
   51MOL0     C 6760   6.709   7.514   1.949 -0.1086  0.6353  0.5752
   51MOL0     C 6761   6.833   7.604   1.965  0.3214 -1.3590 -0.5396
   51MOL0     C 6762   6.854   7.683   1.841 -0.6458  0.7084 -0.2968
   51MOL0     C 6763   6.994   7.747   1.849 -0.2062 -0.4375  1.0994
   51MOL0     C 6764   7.035   7.817   1.716  0.4672  0.4076 -0.8597
   51MOL0     C 6765   6.958   7.946   1.707 -0.1921  0.2929  0.4452
   51MOL0     C 6766   7.006   8.032   1.591  1.0002 -0.3518  0.9222
   51MOL0     N 6767   6.939   7.997   1.470 -0.4957 -0.0206 -0.1844
   51MOL0     C 6768   6.906   8.092   1.380 -0.9530  0.1035 -0.0363
   51MOL0     C 6769   6.871   8.022   1.271 -0.1778 -0.3949 -0.2763
   51MOL0     C 6770   6.827   8.074   1.140  0.1210  0.4647  0.3527
   51MOL0     C 6771   6.940   8.096   1.048 -0.8484  0.3609  0.1977
   51MOL0     C 6772   6.970   7.973   0.954 -0.5493  0.1602 -0.1296
   51MOL0     C 6773   7.097   7.999   0.869  0.0640  0.4202 -0.2572
   51MOL0     O 6774   7.209   8.006   0.962  0.0606  0.7599  0.2858
   51MOL0     C 6775   7.331   8.026   0.917  0.0783  0.1143 -0.0523
   51MOL0     C 6776   7.435   8.035   1.005  0.0763 -0.5272  0.3318
   51MOL0     C 6777   7.573   8.058   0.967  0.8575  0.4903 -0.2644
   51MOL0     C 6778   7.602   8.061   0.833  0.1372  0.5697 -0.2579
   51MOL0     C 6779   7.745   8.075   0.788 -0.4794 -0.2927  0.4159
   51MOL0     O 6780   7.828   8.145   0.873  0.3548 -1.4115  0.2801
   51MOL0     C 6781   7.959   8.133   0.851  0.1766 -0.1741 -0.3246
   51MOL0     C 6782   8.033   8.026   0.888  0.0938  0.4745 -0.1971
   51MOL0     C 6783   8.167   8.015   0.853 -0.8062 -0.2466  0.2562
   51MOL0     C 6784   8.236   8.118   0.783  1.0990  0.2270 -0.3963
   51MOL0     O 6785   8.369   8.107   0.746 -0.1605  0.8382  0.2182
   51MOL0     C 6786   8.432   8.237   0.721  0.4222  0.4608  0.2186
   51MOL0     C 6787   8.420   8.284   0.575 -0.1289  0.5630 -1.1981
   51MOL0     C 6788   8.387   8.432   0.552 -0.0810  0.4225  1.0705
   51MOL0     C 6789   8.445   8.523   0.648  0.4096 -0.4540 -0.8865
   51MOL0     C 6790   8.457   8.668   0.605 -0.3438  0.9476  0.0016
   51MOL0     C 6791   8.538   8.767   0.676 -0.2636 -1.5396 -0.7571
   51MOL0     C 6792   8.471   8.799   0.809  0.2436  0.2858  0.1801
   51MOL0     C 6793   8.554   8.868   0.920  0.3703  0.2525  0.4376
   51MOL0    Cl 6794   8.690   8.766   0.960  0.2792 -0.6843 -0.6919
   51MOL0     C 6795   8.154   8.223   0.750  0.9504  0.4689  1.0924
   51MOL0     C 6796   8.025   8.238   0.784 -0.2233 -0.7442  0.4830
   51MOL0     O 6797   7.781   8.018   0.682 -0.1008 -0.1545 -0.4825
   51MOL0     C 6798   7.498   8.035   0.739 -0.1249  0.3217 -0.1290
   51MOL0     C 6799   7.367   8.014   0.777  0.0050 -0.3666 -0.2891
   51MOL0     N 6800   6.893   7.891   1.286 -0.1647  0.4882  0.8948
   51MOL0     N 6801   6.930   7.875   1.411 -0.7905 -0.0524  0.4792
   51MOL0     C 6802   6.330   7.325   2.176 -0.1226  0.1273  0.3545
   51MOL0     C 6803   6.267   7.252   2.278  0.4500 -0.6501 -0.6306
   51MOL0     C 6804   6.136   6.975   2.613 -1.0324  0.1267  0.6953
   51MOL0     C 6805   6.229   6.972   2.713  0.3424 -0.3736  0.4940
   51MOL0     C 6806   6.199   6.903   2.830 -0.3487  0.2758  0.5102
   51MOL0     C 6807   6.084   6.834   2.847  0.5818  0.3346 -1.0152
   51MOL0     O 6808   6.054   6.765   2.965  0.4209 -0.3960 -0.4309
   51MOL0     C 6809   5.948   6.664   2.957  0.0755  0.3001 -0.1307
   51MOL0     C 6810   5.906   6.596   3.092  0.4039  0.1200 -0.1774
   51MOL0     C 6811   6.026   6.512   3.138 -1.1293  0.3101 -0.6050
   51MOL0     C 6812   6.004   6.423   3.259  0.0339  1.0186  0.1067
   51MOL0     C 6813   6.125   6.411   3.334 -0.4696  0.1929 -0.7173
   51MOL0     C 6814   6.223   6.386   3.408  0.3297 -0.5686 -0.1064
   51MOL0     C 6815   5.985   6.838   2.749 -0.2142  0.1483  0.0293
   51MOL0     C 6816   6.017   6.903   2.630  0.4376  0.8103 -0.4930
   51MOL0     C 6817   5.901   6.905   2.532  0.0725 -0.1277  0.3078
   51MOL0     H 6818   6.545   7.148   2.442 -1.6242  0.3314  1.2849
   51MOL0     H 6819   6.642   7.250   2.253  0.1573 -0.6561 -4.3393
   51MOL0     H 6820   6.683   7.515   2.171  1.1650 -1.2642  0.6923
   51MOL0     H 6821   6.727   7.367   2.106 -1.6264 -0.9297 -0.2185
   51MOL0     H 6822   6.615   7.562   1.919 -1.7797 -1.5996  1.8797
   51MOL0     H 6823   6.738   7.441   1.874 -0.6367 -0.5693  1.4974
   51MOL0     H 6824   6.924   7.550   1.993  0.3053  0.0262  2.5209
   51MOL0     H 6825   6.807   7.679   2.040  0.9838 -0.5580 -1.0868
   51MOL0     H 6826   6.865   7.620   1.753  1.9553  2.7144 -1.5339
   51MOL0     H 6827   6.772   7.755   1.830 -1.3725  0.5827  3.0366
   51MOL0     H 6828   7.011   7.821   1.928  0.2776  3.6247 -2.3939
   51MOL0     H 6829   7.069   7.670   1.863  0.6865  0.3245  0.6395
   51MOL0     H 6830   7.143   7.832   1.721  0.1279  3.2867 -0.5026
   51MOL0     H 6831   7.025   7.749   1.631  0.6110  0.5548 -0.9937
   51MOL0     H 6832   6.972   8.007   1.796  3.1227 -1.5354  1.3360
   51MOL0     H 6833   6.852   7.918   1.704 -0.3086  0.7438  0.2087
   51MOL0     H 6834   6.989   8.139   1.608 -0.0125  0.0143 -1.9329
   51MOL0     H 6835   7.114   8.025   1.580  1.2167  1.7797  1.2081
   51MOL0     H 6836   6.898   8.200   1.389  0.6682  0.1580  0.9180
   51MOL0     H 6837   6.751   8.009   1.097 -2.3657  4.1904 -1.4068
   51MOL0     H 6838   6.785   8.173   1.155  0.1066  0.7953 -1.5781
   51MOL0     H 6839   6.931   8.185   0.985  1.1874  0.2102 -0.3873
   51MOL0     H 6840   7.029   8.122   1.107  0.7190 -1.1581 -1.3817
   51MOL0     H 6841   6.893   7.966   0.876  0.9575 -1.9183 -1.5246
   51MOL0     H 6842   6.959   7.872   0.994 -1.8891  0.4089  0.2059
   51MOL0     H 6843   7.083   8.095   0.817  0.3178 -0.5174 -2.1615
   51MOL0     H 6844   7.112   7.921   0.793  0.4496  0.9233 -0.7093
   51MOL0     H 6845   7.397   8.027   1.106 -3.5545  2.9715 -0.5473
   51MOL0     H 6846   7.651   8.074   1.041 -1.5398 -0.1274  2.6140
   51MOL0     H 6847   7.975   7.951   0.941  0.7079 -0.5564 -0.9481
   51MOL0     H 6848   8.222   7.924   0.877 -2.2275 -0.6760  2.1524
   51MOL0     H 6849   8.397   8.305   0.800  1.0173 -0.5388  1.3856
   51MOL0     H 6850   8.539   8.227   0.737  0.9842  0.9839 -2.6543
   51MOL0     H 6851   8.518   8.263   0.531  0.3278 -1.0547  0.4835
   51MOL0     H 6852   8.350   8.224   0.515 -2.4782  2.2939 -0.3144
   51MOL0     H 6853   8.443   8.453   0.460 -0.7677  0.3622  0.6275
   51MOL0     H 6854   8.278   8.444   0.542 -0.2833 -2.3155 -1.1125
   51MOL0     H 6855   8.540   8.487   0.687 -0.2840 -0.3560  1.0046
   51MOL0     H 6856   8.368   8.522   0.726 -1.7088  2.0704 -2.7662
   51MOL0     H 6857   8.358   8.714   0.594 -2.1750 -3.1287 -3.2222
   51MOL0     H 6858   8.502   8.655   0.506  0.3627 -1.3182  0.5553
   51MOL0     H 6859   8.629   8.713   0.705 -0.2612 -0.2274  2.0073
   51MOL0     H 6860   8.575   8.855   0.623 -1.1749  0.4468  1.6971
   51MOL0     H 6861   8.428   8.709   0.854  1.5003  0.9030  2.8075
   51MOL0     H 6862   8.389   8.870   0.793  0.1433  0.5620  1.7407
   51MOL0     H 6863   8.579   8.972   0.900  0.6397  0.4893  1.9263
   51MOL0     H 6864   8.483   8.874   1.003 -0.8711  2.7312 -0.7070
   51MOL0     H 6865   8.198   8.302   0.690  1.2051 -0.7651 -0.4028
   51MOL0     H 6866   7.969   8.324   0.749 -2.0354 -1.8294  0.5702
   51MOL0     H 6867   7.510   8.026   0.631 -2.0181  3.3682 -0.7248
   51MOL0     H 6868   7.293   8.014   0.698 -0.6576  3.1224  0.1774
   51MOL0     H 6869   6.262   7.368   2.102 -1.5312 -0.8213  1.0497
   51MOL0     H 6870   6.160   7.239   2.285  0.3286 -0.0516 -1.2232
   51MOL0     H 6871   6.326   7.021   2.705  0.8289 -1.0998  1.7390
   51MOL0     H 6872   6.275   6.894   2.907  0.4931 -0.2789 -0.3566
   51MOL0     H 6873   5.962   6.578   2.890 -3.3670 -1.6064  1.3230
   51MOL0     H 6874   5.859   6.723   2.936 -2.0722 -2.0688  1.7190
   51MOL0     H 6875   5.836   6.515   3.069  1.5860 -0.5773 -1.4933
   51MOL0     H 6876   5.876   6.665   3.171  2.3538 -0.6298  1.2964
   51MOL0     H 6877   6.111   6.576   3.164 -2.5407  2.1082 -0.2076
   51MOL0     H 6878   6.052   6.453   3.049  1.7559  1.1263 -0.4042
   51MOL0     H 6879   5.920   6.464   3.317 -4.1672 -5.3348 -0.4234
   51MOL0     H 6880   5.963   6.323   3.240 -0.4170  1.2355 -0.0823
   51MOL0     H 6881   6.312   6.368   3.464  0.9887  3.9460  0.6488
   51MOL0     H 6882   5.883   6.806   2.768 -0.9278  1.4934 -1.3585
   51MOL0     H 6883   5.810   6.937   2.583 -2.1871 -2.7464 -1.7944
   51MOL0     H 6884   5.920   6.969   2.446 -0.6082 -0.3975 -0.0490
   51MOL0     H 6885   5.883   6.808   2.484 -0.7528  0.7830 -1.3026
   52MOL0     O 6886   9.575   3.786   9.375 -0.1682 -0.1490  0.6950
   52MOL0     C 6887   9.479   3.712   9.359  0.8817 -0.8160  0.1474
   52MOL0     O 6888   9.477   3.577   9.330  0.3154 -0.4740  1.3919
   52MOL0     C 6889   9.610   3.539   9.307 -0.2137  0.4220  0.1527
   52MOL0     C 6890   9.682   3.547   9.180  0.0033  0.0652 -0.6425
   52MOL0     C 6891   9.812   3.522   9.157  0.2155  0.3745  0.3635
   52MOL0     C 6892   9.886   3.462   9.261  0.1772 -0.0285 -0.5721
   52MOL0     O 6893  10.022   3.432   9.260  0.6017  0.0330 -0.2754
   52MOL0     C 6894  10.119   3.501   9.177 -0.5507 -0.2131 -0.0570
   52MOL0     C 6895  10.258   3.463   9.209 -0.0762 -0.0767 -1.0175
   52MOL0     C 6896  10.299   3.310   9.210  0.9987  0.6248 -0.3131
   52MOL0     C 6897  10.406   3.300   9.328 -0.4182 -0.7367  0.4884
   52MOL0     C 6898  10.454   3.156   9.347  0.6479  0.2783  0.2558
   52MOL0     C 6899  10.347   3.058   9.399  1.2468 -0.0823  0.0603
   52MOL0     C 6900  10.400   2.916   9.437 -0.0030  0.9337  0.1282
   52MOL0     C 6901  10.455   2.848   9.311  0.2236  0.3200  0.1229
   52MOL0     N 6902  10.512   2.711   9.328  0.5325  0.9174  0.3422
   52MOL0     C 6903  10.608   2.638   9.262 -0.4795  0.4960  0.2868
   52MOL0     C 6904  10.604   2.516   9.310  0.2629  0.4123 -0.5736
   52MOL0     C 6905  10.692   2.414   9.244 -1.0406 -0.2094 -0.2105
   52MOL0     C 6906  10.611   2.290   9.205  0.7417  0.2913  1.3310
   52MOL0     C 6907  10.494   2.320   9.103  0.5759  0.8948  0.8033
   52MOL0     C 6908  10.385   2.216   9.123  0.3517  0.7467  0.1626
   52MOL0     O 6909  10.275   2.241   9.030  0.2896  0.5134 -0.7936
   52MOL0     C 6910  10.186   2.140   9.038  0.3061 -0.3776 -0.4296
   52MOL0     C 6911  10.070   2.156   8.961 -0.5063 -0.7107  0.7775
   52MOL0     C 6912   9.966   2.070   8.957 -0.2548  0.5799  0.4390
   52MOL0     C 6913   9.980   1.949   9.029 -0.2222 -0.0241  0.4820
   52MOL0     C 6914   9.861   1.852   9.027 -0.4839  0.2073  0.0827
   52MOL0     O 6915   9.736   1.911   9.019 -0.0624  0.4681 -0.0757
   52MOL0     C 6916   9.621   1.847   8.978 -0.6444 -0.5031 -0.8707
   52MOL0     C 6917   9.501   1.915   8.998 -0.3413  1.0028  0.2086
   52MOL0     C 6918   9.380   1.863   8.948 -0.4873  0.2476  0.0550
   52MOL0     C 6919   9.373   1.745   8.885  0.5390  0.1613  0.8590
   52MOL0     O 6920   9.250   1.685   8.870 -0.4062 -0.1152  0.2201
   52MOL0     C 6921   9.232   1.562   8.790 -0.7211 -0.3666  0.0801
   52MOL0     C 6922   9.090   1.547   8.742  0.3286  0.4714 -0.3026
   52MOL0     C 6923   9.046   1.422   8.661  0.1037  0.4840 -0.8817
   52MOL0     C 6924   8.898   1.422   8.634 -0.4030  0.0457 -0.1172
   52MOL0     C 6925   8.859   1.297   8.547 -0.8026  1.6833 -1.0211
   52MOL0     C 6926   8.729   1.299   8.474 -0.6831 -0.1329  0.3946
   52MOL0     C 6927   8.694   1.165   8.397 -0.6254 -0.0966  0.3531
   52MOL0     C 6928   8.559   1.168   8.337 -0.3301  0.0875  0.1309
   52MOL0    Cl 6929   8.426   1.158   8.456 -0.7935 -0.0633  0.4579
   52MOL0     C 6930   9.492   1.676   8.859 -0.3354 -0.0113 -0.4396
   52MOL0     C 6931   9.615   1.729   8.903  0.4552  0.5584  0.0244
   52MOL0     O 6932   9.886   1.739   9.056  0.7959 -0.2931  0.9279
   52MOL0     C 6933  10.090   1.931   9.116  0.6109  0.3690  0.3021
   52MOL0     C 6934  10.195   2.023   9.109  0.0143  0.8675 -0.6066
   52MOL0     N 6935  10.517   2.515   9.420 -0.6902  0.3945 -0.7100
   52MOL0     N 6936  10.475   2.637   9.436  0.3622  0.9854  0.1727
   52MOL0     C 6937   9.815   3.418   9.375  0.4174 -0.7548 -0.4812
   52MOL0     C 6938   9.687   3.455   9.398  0.1936 -0.4238 -0.9768
   52MOL0     C 6939   9.346   3.769   9.373  0.2047 -0.0078 -0.9434
   52MOL0     C 6940   9.241   3.681   9.415  0.6007  0.3877 -0.7450
   52MOL0     C 6941   9.114   3.742   9.422  0.2057  0.8697  0.4570
   52MOL0     C 6942   9.092   3.877   9.420  0.3046 -0.6898  0.2939
   52MOL0     O 6943   8.955   3.914   9.426  0.4189 -0.4410  0.0133
   52MOL0     C 6944   8.923   4.020   9.336  0.5009 -0.7837  0.2527
   52MOL0     C 6945   8.780   4.003   9.296  0.1331  0.0593  0.0628
   52MOL0     C 6946   8.721   4.127   9.234  0.0868 -0.4958  0.1348
   52MOL0     C 6947   8.773   4.150   9.091 -0.0858 -1.4656 -0.1520
   52MOL0     C 6948   8.717   4.058   8.994  0.3331 -0.1761 -0.0061
   52MOL0     C 6949   8.678   3.970   8.918 -0.5751  0.4856 -1.1689
   52MOL0     C 6950   9.197   3.961   9.400 -0.3766  0.5992 -0.6935
   52MOL0     C 6951   9.322   3.909   9.372 -0.0046 -0.1740 -0.7113
   52MOL0     C 6952   9.430   4.008   9.354  0.3276 -0.1187  0.3158
   52MOL0     H 6953   9.628   3.593   9.098  0.8853  3.6885  0.5819
   52MOL0     H 6954   9.861   3.541   9.062 -2.7178  1.6003 -1.0202
   52MOL0     H 6955  10.098   3.480   9.072  3.2208 -0.1376 -0.9497
   52MOL0     H 6956  10.118   3.611   9.176 -0.1104 -0.2015  0.4002
   52MOL0     H 6957  10.289   3.517   9.299 -3.4401  0.6609 -0.1660
   52MOL0     H 6958  10.336   3.497   9.141  0.1793 -1.8569 -1.6720
   52MOL0     H 6959  10.340   3.281   9.112  0.3793  0.6928 -0.5981
   52MOL0     H 6960  10.206   3.258   9.237  1.1226  0.1820 -0.7203
   52MOL0     H 6961  10.490   3.365   9.300 -1.8223  1.9836  2.1945
   52MOL0     H 6962  10.362   3.344   9.418  0.0003 -3.1751  1.9682
   52MOL0     H 6963  10.496   3.115   9.255  0.9589  0.9577  0.0911
   52MOL0     H 6964  10.537   3.154   9.418 -0.7087 -2.7053  1.9323
   52MOL0     H 6965  10.299   3.107   9.484  2.0025  0.3195  0.2652
   52MOL0     H 6966  10.269   3.058   9.323  0.9104  0.9784  0.3979
   52MOL0     H 6967  10.305   2.869   9.463 -1.7608  3.0531 -2.0083
   52MOL0     H 6968  10.476   2.928   9.515  0.3129  1.9579 -0.3123
   52MOL0     H 6969  10.374   2.851   9.237  1.0473 -0.9325 -0.8826
   52MOL0     H 6970  10.541   2.909   9.281 -0.3517  1.1604  0.1377
   52MOL0     H 6971  10.655   2.674   9.171 -1.2604  1.0097  0.0719
   52MOL0     H 6972  10.751   2.459   9.163  1.6992 -0.9260  1.2798
   52MOL0     H 6973  10.766   2.382   9.318  1.2093  3.5046 -0.5864
   52MOL0     H 6974  10.673   2.212   9.161  2.5179  3.2228 -1.7513
   52MOL0     H 6975  10.575   2.253   9.302  0.2130  0.9707  1.4041
   52MOL0     H 6976  10.518   2.302   8.998 -0.3668  0.4426  0.6581
   52MOL0     H 6977  10.460   2.423   9.120  1.1612  1.8540 -3.0551
   52MOL0     H 6978  10.345   2.215   9.225 -2.0425 -2.8244 -0.6150
   52MOL0     H 6979  10.432   2.118   9.110 -1.2413 -0.3073  1.8033
   52MOL0     H 6980  10.056   2.250   8.908 -0.5485 -1.4107 -0.4958
   52MOL0     H 6981   9.881   2.090   8.894 -0.1499  0.6522  0.3203
   52MOL0     H 6982   9.499   2.014   9.041 -2.4653  0.4847  1.4367
   52MOL0     H 6983   9.282   1.908   8.959 -0.0591  2.0759 -2.5914
   52MOL0     H 6984   9.294   1.565   8.700  1.0396  0.4322  1.2602
   52MOL0     H 6985   9.264   1.480   8.854 -1.2422 -0.5476  0.1117
   52MOL0     H 6986   9.031   1.546   8.834  0.8968  0.1429  0.0597
   52MOL0     H 6987   9.080   1.635   8.677 -0.1723  1.3018  0.8553
   52MOL0     H 6988   9.097   1.431   8.565 -0.1172  2.9275 -0.8409
   52MOL0     H 6989   9.068   1.329   8.715 -3.6015  0.9992  1.8871
   52MOL0     H 6990   8.872   1.510   8.576 -3.2295 -0.2139  0.6242
   52MOL0     H 6991   8.848   1.428   8.731 -1.8440  0.7209 -0.8784
   52MOL0     H 6992   8.847   1.215   8.620 -1.7235  2.2530 -0.5158
   52MOL0     H 6993   8.937   1.279   8.473 -1.2806  3.5416 -2.0361
   52MOL0     H 6994   8.650   1.324   8.546 -0.1625 -0.5563  1.1314
   52MOL0     H 6995   8.735   1.385   8.407  1.1018  1.6852  2.7350
   52MOL0     H 6996   8.699   1.087   8.474  0.6007  0.4963  0.8870
   52MOL0     H 6997   8.760   1.133   8.316  0.6619  0.5578  1.1253
   52MOL0     H 6998   8.564   1.259   8.276  1.4020  0.6918  1.0790
   52MOL0     H 6999   8.545   1.093   8.259  1.2130  0.7451 -0.8219
   52MOL0     H 7000   9.501   1.585   8.801  3.3672  0.5128 -0.9705
   52MOL0     H 7001   9.698   1.669   8.867  0.4757 -0.2787  1.4043
   52MOL0     H 7002  10.086   1.849   9.187 -0.6253  0.6571  0.6021
   52MOL0     H 7003  10.275   2.005   9.180  1.1724  0.7743 -1.8868
   52MOL0     H 7004   9.866   3.354   9.446  0.8734  0.0987 -0.0320
   52MOL0     H 7005   9.639   3.425   9.491  1.6147 -0.9180 -0.3675
   52MOL0     H 7006   9.256   3.575   9.434 -1.3120  0.1880 -0.0845
   52MOL0     H 7007   9.031   3.673   9.439 -0.3203  0.6420 -2.4739
   52MOL0     H 7008   8.983   4.029   9.245  0.4169  2.4876  0.4086
   52MOL0     H 7009   8.934   4.122   9.373 -1.1797 -0.8416  1.0096
   52MOL0     H 7010   8.726   3.979   9.388 -1.9703  1.4300 -0.7375
   52MOL0     H 7011   8.776   3.914   9.232  1.7570 -0.0773  0.0885
   52MOL0     H 7012   8.745   4.221   9.284 -2.7744  0.8506 -0.7800
   52MOL0     H 7013   8.612   4.121   9.226  0.0460 -1.6038  1.1020
   52MOL0     H 7014   8.749   4.254   9.068 -0.4359 -1.1828  1.3805
   52MOL0     H 7015   8.881   4.146   9.077 -0.1679 -2.1668 -0.6094
   52MOL0     H 7016   8.655   3.887   8.854 -0.5137  1.5900 -2.6726
   52MOL0     H 7017   9.181   4.068   9.407  0.0384  0.5365  2.9393
   52MOL0     H 7018   9.380   4.105   9.340 -3.8439 -1.9388  1.0234
   52MOL0     H 7019   9.492   4.010   9.444  2.2862 -0.0118 -0.9757
   52MOL0     H 7020   9.485   3.980   9.264 -0.7205  1.2660 -0.8210
   53MOL0     O 7021   1.858   6.417   8.520  0.3338 -0.6309  0.0960
   53MOL0     C 7022   1.841   6.335   8.605 -0.5924  0.1684  0.2684
   53MOL0     O 7023   1.874   6.352   8.743  0.6867 -0.2885 -0.5255
   53MOL0     C 7024   1.918   6.481   8.772 -0.4829  0.0466  0.3741
   53MOL0     C 7025   2.053   6.513   8.748 -0.3087 -0.7549  0.1843
   53MOL0     C 7026   2.095   6.647   8.777 -0.4654 -0.8688 -0.0028
   53MOL0     C 7027   2.008   6.744   8.827  0.4125 -0.3524 -0.0665
   53MOL0     O 7028   2.065   6.869   8.858 -0.1862  0.5296 -0.0605
   53MOL0     C 7029   1.999   6.957   8.947  0.0559 -0.0710 -0.7049
   53MOL0     C 7030   2.101   7.041   9.013 -2.0616 -0.4481  0.6642
   53MOL0     C 7031   2.060   7.100   9.143 -0.4361 -0.1567  0.3906
   53MOL0     C 7032   2.168   7.198   9.202  0.1678 -0.2294 -1.7666
   53MOL0     C 7033   2.114   7.266   9.334  0.0065 -0.1010 -0.1328
   53MOL0     C 7034   2.147   7.189   9.454  0.0257 -0.2398 -0.4671
   53MOL0     C 7035   2.294   7.206   9.503  0.2532 -0.8513 -0.3910
   53MOL0     C 7036   2.316   7.345   9.563 -0.5380 -0.0460 -0.0925
   53MOL0     N 7037   2.434   7.367   9.660 -0.3658  0.6606  0.8030
   53MOL0     C 7038   2.447   7.324   9.783  0.0775  0.4234  0.1042
   53MOL0     C 7039   2.568   7.363   9.823  0.2288 -0.3225  0.6381
   53MOL0     C 7040   2.634   7.355   9.948  0.3030  0.2827  0.3194
   53MOL0     C 7041   2.672   7.211   9.978 -0.6927 -0.9483  0.9844
   53MOL0     C 7042   2.561   7.102   9.984  0.3645 -0.3483 -0.4927
   53MOL0     C 7043   2.610   6.963  10.034 -0.4078 -0.2362  0.9414
   53MOL0     O 7044   2.699   6.908   9.937 -0.5732 -0.4212  0.4433
   53MOL0     C 7045   2.628   6.891   9.818  0.3279 -1.2385  0.0584
   53MOL0     C 7046   2.652   6.981   9.710  0.0270 -0.2767  0.6143
   53MOL0     C 7047   2.581   6.964   9.589  0.1308 -0.2078  0.5125
   53MOL0     C 7048   2.509   6.851   9.570  0.5286  0.5671  0.0781
   53MOL0     C 7049   2.430   6.817   9.445 -0.5525 -0.0032  0.3394
   53MOL0     O 7050   2.445   6.919   9.345 -0.4891  0.6292 -0.3323
   53MOL0     C 7051   2.460   6.879   9.212  0.1032 -0.1971 -0.4820
   53MOL0     C 7052   2.352   6.825   9.135 -0.2547 -0.2387 -0.2856
   53MOL0     C 7053   2.361   6.796   9.005 -0.3830 -0.1142  1.2632
   53MOL0     C 7054   2.482   6.796   8.938 -1.0336 -0.3087  0.7475
   53MOL0     O 7055   2.490   6.769   8.803  0.4988 -0.3970 -0.4060
   53MOL0     C 7056   2.613   6.786   8.722 -0.4252 -0.3458 -0.7333
   53MOL0     C 7057   2.597   6.784   8.572 -0.1923 -0.5633  0.5612
   53MOL0     C 7058   2.517   6.906   8.526  0.2803  0.5092 -0.1384
   53MOL0     C 7059   2.364   6.902   8.535  0.1656  0.6033 -0.0074
   53MOL0     C 7060   2.303   7.037   8.541  1.2238  0.3279  0.3803
   53MOL0     C 7061   2.349   7.127   8.424  0.1696  0.2928 -0.7014
   53MOL0     C 7062   2.241   7.237   8.372  0.0198 -0.3202  0.6680
   53MOL0     C 7063   2.217   7.355   8.468  0.3881 -0.1544  0.2388
   53MOL0    Cl 7064   2.373   7.444   8.501  0.0172  0.6878  0.0106
   53MOL0     C 7065   2.603   6.830   9.012  0.7409  0.3544 -1.1015
   53MOL0     C 7066   2.581   6.874   9.141 -0.2227  0.4003  0.2085
   53MOL0     O 7067   2.366   6.711   9.433 -0.5462 -0.6131  0.4304
   53MOL0     C 7068   2.498   6.751   9.672  1.3793 -0.3866  0.6690
   53MOL0     C 7069   2.555   6.776   9.795  0.6963  0.6492  0.5212
   53MOL0     N 7070   2.616   7.451   9.727  0.2376  1.2071 -0.0324
   53MOL0     N 7071   2.534   7.453   9.626 -0.2827  0.2135  0.7869
   53MOL0     C 7072   1.876   6.705   8.866 -0.0759  0.2249 -0.6433
   53MOL0     C 7073   1.832   6.576   8.833 -0.7998 -0.6450 -0.7103
   53MOL0     C 7074   1.800   6.198   8.564  0.2683  0.7398 -0.0920
   53MOL0     C 7075   1.857   6.087   8.621  0.3158 -0.1740  0.8912
   53MOL0     C 7076   1.826   5.957   8.578  0.4322  0.2301 -0.3724
   53MOL0     C 7077   1.719   5.927   8.488  0.5967 -0.5070 -0.0258
   53MOL0     O 7078   1.683   5.801   8.442  0.0997  0.3528  0.3068
   53MOL0     C 7079   1.768   5.749   8.340 -0.2369  0.1452  0.5400
   53MOL0     C 7080   1.881   5.668   8.405  0.4767 -0.1586  0.0794
   53MOL0     C 7081   1.891   5.526   8.334  0.0658  0.4827 -0.1664
   53MOL0     C 7082   1.800   5.420   8.401 -0.7038  0.1932  0.6136
   53MOL0     C 7083   1.665   5.433   8.352  0.3783 -0.0029  0.0379
   53MOL0     C 7084   1.552   5.447   8.318 -1.2763  0.4713  0.1010
   53MOL0     C 7085   1.660   6.037   8.434 -1.7427 -0.3152  0.1587
   53MOL0     C 7086   1.699   6.169   8.466 -0.2092 -0.2329  0.7992
   53MOL0     C 7087   1.634   6.282   8.391  0.2005  0.3120  0.2170
   53MOL0     H 7088   2.107   6.425   8.715 -3.1407 -2.8761  0.8325
   53MOL0     H 7089   2.197   6.675   8.754 -0.9888  0.2977 -1.0097
   53MOL0     H 7090   1.932   7.026   8.895  2.3362  1.8671 -1.2099
   53MOL0     H 7091   1.943   6.907   9.027  0.1877  0.4313 -0.2961
   53MOL0     H 7092   2.117   7.127   8.947 -1.5627 -2.2597 -1.7072
   53MOL0     H 7093   2.193   6.984   9.025 -1.3712  0.3635 -0.5802
   53MOL0     H 7094   2.040   7.019   9.212 -3.5507 -3.1677 -3.5512
   53MOL0     H 7095   1.967   7.158   9.130 -0.5512 -0.1546  1.2078
   53MOL0     H 7096   2.256   7.136   9.224 -0.4989 -1.0582 -1.4134
   53MOL0     H 7097   2.191   7.285   9.138  0.9342  0.5189 -0.5157
   53MOL0     H 7098   2.134   7.374   9.334 -0.9811  0.1886 -3.3073
   53MOL0     H 7099   2.005   7.260   9.324 -0.2932  1.0237  1.9006
   53MOL0     H 7100   2.073   7.213   9.531 -0.6352  0.3637 -1.2769
   53MOL0     H 7101   2.132   7.084   9.431  2.8917 -0.4543 -1.6911
   53MOL0     H 7102   2.362   7.190   9.419  1.2636 -0.8004  0.3976
   53MOL0     H 7103   2.300   7.137   9.588 -0.0477 -1.7481 -1.0893
   53MOL0     H 7104   2.312   7.417   9.480  0.3092  0.2934  0.1494
   53MOL0     H 7105   2.222   7.363   9.616 -1.0466  0.5189 -1.1398
   53MOL0     H 7106   2.383   7.266   9.847  0.9719  0.8712  1.4480
   53MOL0     H 7107   2.727   7.412   9.942  1.0124 -0.9862 -1.5749
   53MOL0     H 7108   2.557   7.389  10.017  0.8549 -0.3607  1.2756
   53MOL0     H 7109   2.749   7.188   9.903  0.4381  3.2749  0.5518
   53MOL0     H 7110   2.728   7.217  10.071  1.3216  2.9413 -0.2390
   53MOL0     H 7111   2.512   7.076   9.890  0.0250  0.1897 -0.4712
   53MOL0     H 7112   2.485   7.123  10.060  0.9375  3.2906 -0.7485
   53MOL0     H 7113   2.519   6.904  10.049 -1.0025 -0.0396 -1.5379
   53MOL0     H 7114   2.668   6.975  10.126 -0.0428  2.4884  0.4183
   53MOL0     H 7115   2.715   7.069   9.705 -0.6621  0.2142  0.5360
   53MOL0     H 7116   2.591   7.036   9.509 -0.2722  0.1552  0.7842
   53MOL0     H 7117   2.250   6.813   9.171 -0.7754 -0.2348 -1.7190
   53MOL0     H 7118   2.275   6.761   8.948  0.0183 -1.5901  1.5313
   53MOL0     H 7119   2.664   6.880   8.745 -0.2695 -0.0895 -2.0178
   53MOL0     H 7120   2.673   6.700   8.752 -1.4348 -0.0662  2.4374
   53MOL0     H 7121   2.704   6.789   8.546 -0.7114  1.1302 -1.5485
   53MOL0     H 7122   2.537   6.695   8.549 -0.7502 -0.3473  1.1713
   53MOL0     H 7123   2.561   6.980   8.593 -1.5743  1.2564  0.3280
   53MOL0     H 7124   2.554   6.926   8.425  2.0703  0.5450  0.4904
   53MOL0     H 7125   2.329   6.835   8.614 -0.2021  2.2521  1.2634
   53MOL0     H 7126   2.330   6.853   8.443  0.3625  4.1427 -2.1727
   53MOL0     H 7127   2.341   7.090   8.628 -1.2605  0.5722  1.4139
   53MOL0     H 7128   2.193   7.029   8.542  1.1455  1.0860 -0.6729
   53MOL0     H 7129   2.445   7.169   8.453 -1.9112  2.9330  3.2223
   53MOL0     H 7130   2.379   7.070   8.335  2.0921  4.5886 -3.0793
   53MOL0     H 7131   2.152   7.175   8.358 -1.8421  0.5666  6.0267
   53MOL0     H 7132   2.271   7.282   8.277 -2.6730  0.2163 -0.0139
   53MOL0     H 7133   2.155   7.430   8.419  1.7676 -0.6033 -2.4109
   53MOL0     H 7134   2.171   7.305   8.554 -0.8490  1.9708  0.8662
   53MOL0     H 7135   2.690   6.843   8.948  1.2205  0.8543 -0.3628
   53MOL0     H 7136   2.673   6.887   9.197 -1.4191 -1.3503  2.7534
   53MOL0     H 7137   2.455   6.653   9.653  2.2836 -0.8579  1.0463
   53MOL0     H 7138   2.542   6.702   9.873  3.6999 -1.1887 -0.5609
   53MOL0     H 7139   1.787   6.756   8.904  1.8562  2.9724  0.5077
   53MOL0     H 7140   1.734   6.540   8.866  0.3921 -1.6588  2.1108
   53MOL0     H 7141   1.934   6.104   8.696 -0.1342  1.1895  1.0628
   53MOL0     H 7142   1.877   5.877   8.631  0.3118  0.6408  0.3856
   53MOL0     H 7143   1.806   5.826   8.272 -0.0146  1.4305  2.0665
   53MOL0     H 7144   1.709   5.685   8.273  0.9796 -0.3979 -0.0469
   53MOL0     H 7145   1.853   5.661   8.511 -1.2713 -0.4671 -0.3654
   53MOL0     H 7146   1.976   5.719   8.387 -0.4097  1.2119 -0.8661
   53MOL0     H 7147   1.993   5.485   8.334  0.2214  0.8664 -0.0583
   53MOL0     H 7148   1.855   5.527   8.230 -0.0884 -1.9831 -0.1829
   53MOL0     H 7149   1.826   5.315   8.382 -4.1137 -0.5585 -0.6066
   53MOL0     H 7150   1.793   5.431   8.510  3.5491  0.4465  1.0324
   53MOL0     H 7151   1.459   5.466   8.268  0.5276  0.6583 -3.5633
   53MOL0     H 7152   1.581   6.018   8.362  0.4821  2.7756 -3.4800
   53MOL0     H 7153   1.710   6.343   8.343  0.3532 -0.6991 -0.8567
   53MOL0     H 7154   1.564   6.244   8.316 -0.8734 -2.0695  2.2633
   53MOL0     H 7155   1.576   6.348   8.457 -0.6276 -0.0425 -0.1364
   54MOL0     O 7156   8.248   6.019   3.334  0.0551 -0.5324 -0.2490
   54MOL0     C 7157   8.192   5.997   3.226 -0.4448  0.2447  0.9290
   54MOL0     O 7158   8.198   5.874   3.165 -0.0664 -0.5262  0.2043
   54MOL0     C 7159   8.276   5.780   3.208 -0.2464  0.0512  0.9656
   54MOL0     C 7160   8.410   5.806   3.234 -0.5161 -0.3838 -0.2332
   54MOL0     C 7161   8.492   5.700   3.280 -0.1642  0.0923  0.4396
   54MOL0     C 7162   8.441   5.578   3.312 -0.3389 -0.3083 -0.2350
   54MOL0     O 7163   8.519   5.479   3.367 -0.0064  0.3396 -0.6959
   54MOL0     C 7164   8.457   5.369   3.432 -0.0861  1.1806  0.1799
   54MOL0     C 7165   8.562   5.282   3.507  0.9813  0.1422 -0.0629
   54MOL0     C 7166   8.618   5.357   3.624 -1.5889  0.3051 -0.2950
   54MOL0     C 7167   8.514   5.393   3.732  1.2161  0.1717 -0.9807
   54MOL0     C 7168   8.584   5.399   3.880  0.1841 -0.2951  0.1185
   54MOL0     C 7169   8.483   5.393   4.000 -0.5652  0.0363 -0.5562
   54MOL0     C 7170   8.558   5.368   4.134 -0.5631 -0.5260 -0.0446
   54MOL0     C 7171   8.590   5.227   4.168 -0.0568  0.1637 -0.4820
   54MOL0     N 7172   8.688   5.206   4.272  0.4566 -0.4789 -0.7535
   54MOL0     C 7173   8.826   5.196   4.257  0.0197  0.4678 -0.0078
   54MOL0     C 7174   8.881   5.233   4.367  0.3783  0.0232 -0.0739
   54MOL0     C 7175   9.025   5.236   4.409  0.1621  0.0785  1.3926
   54MOL0     C 7176   9.090   5.102   4.407 -0.9827 -0.2619  1.3653
   54MOL0     C 7177   9.243   5.110   4.441  0.4744  0.2244 -0.9060
   54MOL0     C 7178   9.279   5.031   4.557  0.7698 -0.9220  0.4582
   54MOL0     O 7179   9.421   5.035   4.599 -0.1314  0.2613  0.0081
   54MOL0     C 7180   9.504   4.956   4.517  0.4125 -0.6234 -0.1041
   54MOL0     C 7181   9.622   5.012   4.490  0.1451  0.2572  0.1912
   54MOL0     C 7182   9.705   4.961   4.396  0.7145 -0.5647 -0.5230
   54MOL0     C 7183   9.680   4.839   4.337 -0.6648  0.5129 -0.3131
   54MOL0     C 7184   9.775   4.775   4.245 -0.2859 -0.1448 -0.6671
   54MOL0     O 7185   9.757   4.648   4.202 -0.1004 -0.2980 -0.6911
   54MOL0     C 7186   9.806   4.596   4.081  0.5115 -0.7387 -0.6092
   54MOL0     C 7187   9.809   4.675   3.969  0.1918 -1.0588  0.0541
   54MOL0     C 7188   9.863   4.631   3.851  0.9626 -0.3404 -0.3584
   54MOL0     C 7189   9.927   4.506   3.850 -0.3232  0.0920 -0.2093
   54MOL0     O 7190  10.004   4.457   3.748  0.0726  0.1099 -0.1360
   54MOL0     C 7191  10.081   4.544   3.675 -0.6102  0.2090  0.6287
   54MOL0     C 7192  10.219   4.470   3.644  0.5227 -0.3083  0.3582
   54MOL0     C 7193  10.211   4.370   3.543 -0.8360  0.9369  0.0931
   54MOL0     C 7194  10.332   4.268   3.554  0.7965 -0.5035 -0.5906
   54MOL0     C 7195  10.306   4.155   3.454  0.2527  0.6723 -0.4831
   54MOL0     C 7196  10.279   4.176   3.307  0.3932  0.9086  0.5645
   54MOL0     C 7197  10.393   4.240   3.233 -0.4680 -0.3559  0.3501
   54MOL0     C 7198  10.344   4.318   3.104 -0.0319 -0.6102 -0.0944
   54MOL0    Cl 7199  10.470   4.417   3.020 -0.2629  0.5842  0.2786
   54MOL0     C 7200   9.923   4.430   3.963 -0.3800 -0.6316  1.6955
   54MOL0     C 7201   9.864   4.473   4.081 -0.7037 -0.4827  0.1187
   54MOL0     O 7202   9.879   4.839   4.217  0.2471  0.3554 -0.2584
   54MOL0     C 7203   9.562   4.779   4.373  0.2515  0.5376 -0.1518
   54MOL0     C 7204   9.470   4.841   4.448 -0.1695  0.0665  0.0301
   54MOL0     N 7205   8.775   5.262   4.462  0.3719  0.6130 -0.1117
   54MOL0     N 7206   8.662   5.234   4.405 -0.4572 -0.1811 -0.1669
   54MOL0     C 7207   8.302   5.562   3.292 -0.0435 -0.1519  0.3924
   54MOL0     C 7208   8.218   5.662   3.244 -0.1443 -0.0432  0.4038
   54MOL0     C 7209   8.093   6.097   3.161 -0.8822 -0.1430  0.7569
   54MOL0     C 7210   7.966   6.051   3.125 -0.0824  0.2994  0.3685
   54MOL0     C 7211   7.869   6.137   3.085  0.1009 -0.5251 -1.1983
   54MOL0     C 7212   7.902   6.266   3.044 -0.4001  0.1402  0.1410
   54MOL0     O 7213   7.798   6.340   3.000 -0.0220 -0.3375  0.2396
   54MOL0     C 7214   7.806   6.484   2.996 -0.4340 -0.2609  0.1332
   54MOL0     C 7215   7.661   6.545   3.015 -0.3951 -0.5657 -0.6543
   54MOL0     C 7216   7.585   6.528   3.145  0.5831  0.0739  0.1702
   54MOL0     C 7217   7.442   6.587   3.126 -0.4522 -0.2236 -0.7930
   54MOL0     C 7218   7.451   6.731   3.090 -0.3162  0.6876  0.5545
   54MOL0     C 7219   7.449   6.848   3.048 -0.3896 -0.7286 -0.3543
   54MOL0     C 7220   8.036   6.313   3.055  0.5467 -0.3722  0.0611
   54MOL0     C 7221   8.128   6.233   3.116 -0.9718 -0.9576 -1.0545
   54MOL0     C 7222   8.275   6.286   3.118  0.9489  0.2752  0.1310
   54MOL0     H 7223   8.452   5.901   3.202 -1.2084  0.4002  1.1226
   54MOL0     H 7224   8.597   5.723   3.294 -0.7453  3.0855  0.4259
   54MOL0     H 7225   8.376   5.411   3.492 -0.3404 -0.2831  0.9179
   54MOL0     H 7226   8.413   5.305   3.355 -0.0383  1.4945 -0.1084
   54MOL0     H 7227   8.638   5.236   3.443  1.2922 -0.9819  1.0573
   54MOL0     H 7228   8.509   5.199   3.556 -0.0414  2.3884  2.9675
   54MOL0     H 7229   8.673   5.448   3.601 -2.6056  1.0560  0.1612
   54MOL0     H 7230   8.693   5.285   3.661 -0.5199  1.8953  0.7641
   54MOL0     H 7231   8.479   5.495   3.715  3.3118  1.0123 -0.4744
   54MOL0     H 7232   8.422   5.334   3.742  0.7304  1.2101  1.0990
   54MOL0     H 7233   8.645   5.309   3.894 -0.9864 -1.3450 -1.1910
   54MOL0     H 7234   8.649   5.487   3.880 -0.3839  0.1410 -0.3948
   54MOL0     H 7235   8.423   5.483   4.018  0.8448  0.3414  3.7407
   54MOL0     H 7236   8.416   5.311   3.973 -0.9768  1.1302 -3.1934
   54MOL0     H 7237   8.518   5.428   4.216  1.9571  1.4628 -0.1447
   54MOL0     H 7238   8.653   5.420   4.119 -1.8373  3.0490  2.9092
   54MOL0     H 7239   8.506   5.169   4.207  1.7914 -1.5861  1.1864
   54MOL0     H 7240   8.620   5.177   4.075  2.3120  1.0510 -0.2677
   54MOL0     H 7241   8.890   5.175   4.172 -0.0731  3.5857 -0.9725
   54MOL0     H 7242   9.067   5.309   4.339 -1.2449  1.0600  1.5440
   54MOL0     H 7243   9.033   5.281   4.508  1.0310 -0.1965  1.4618
   54MOL0     H 7244   9.034   5.041   4.479  0.1787 -3.0250  0.0966
   54MOL0     H 7245   9.086   5.060   4.306  0.6952  0.6777  0.8654
   54MOL0     H 7246   9.268   5.213   4.468  3.6695 -1.2630  2.6012
   54MOL0     H 7247   9.304   5.091   4.352  1.5110  4.9276 -1.4470
   54MOL0     H 7248   9.250   4.929   4.530  1.1772 -0.9479  0.1208
   54MOL0     H 7249   9.223   5.057   4.647 -2.6583 -3.1154 -0.8366
   54MOL0     H 7250   9.633   5.100   4.552  2.8256  0.6167 -0.6391
   54MOL0     H 7251   9.794   5.018   4.370 -0.6751  2.4306  0.8399
   54MOL0     H 7252   9.776   4.779   3.971 -0.4026 -1.2409  0.0818
   54MOL0     H 7253   9.866   4.699   3.766 -1.3303  2.7302  1.8080
   54MOL0     H 7254  10.032   4.560   3.579 -3.6586 -2.1981  1.6155
   54MOL0     H 7255  10.101   4.632   3.736  2.2495 -0.3605  0.6643
   54MOL0     H 7256  10.291   4.549   3.618 -0.7811  0.8405  0.1012
   54MOL0     H 7257  10.249   4.426   3.739 -1.6108 -0.5374  0.9711
   54MOL0     H 7258  10.119   4.311   3.553  0.7523 -1.6131  0.6868
   54MOL0     H 7259  10.203   4.428   3.450 -3.2605 -0.4956 -0.6809
   54MOL0     H 7260  10.336   4.222   3.653 -0.2126  0.5801 -0.0189
   54MOL0     H 7261  10.428   4.313   3.526 -0.0945  0.9606 -1.4181
   54MOL0     H 7262  10.230   4.088   3.496  1.1118 -0.3923 -0.5877
   54MOL0     H 7263  10.396   4.093   3.450 -0.1949  0.0229 -0.6319
   54MOL0     H 7264  10.274   4.074   3.269  1.7592  0.2269  2.1309
   54MOL0     H 7265  10.192   4.241   3.294 -0.1574  0.0540 -0.1542
   54MOL0     H 7266  10.471   4.168   3.205 -0.2411 -0.2999  0.8239
   54MOL0     H 7267  10.446   4.308   3.300 -2.0686  1.4341 -0.1076
   54MOL0     H 7268  10.310   4.248   3.026  0.6962 -0.8153 -0.2395
   54MOL0     H 7269  10.259   4.383   3.127  1.5703  1.7428 -0.4402
   54MOL0     H 7270   9.960   4.329   3.951 -2.1379 -1.1580  0.3216
   54MOL0     H 7271   9.860   4.409   4.168 -1.3195 -0.5670  0.0265
   54MOL0     H 7272   9.553   4.675   4.342 -0.7599  0.5025  0.2312
   54MOL0     H 7273   9.386   4.779   4.476 -0.6601 -0.6617 -2.7958
   54MOL0     H 7274   8.265   5.462   3.312 -4.8612  1.4175  0.6658
   54MOL0     H 7275   8.111   5.645   3.239 -0.1225  0.0354 -0.4850
   54MOL0     H 7276   7.926   5.952   3.142 -2.7457  0.6365 -2.7537
   54MOL0     H 7277   7.767   6.105   3.066  0.6127 -1.0550 -3.3349
   54MOL0     H 7278   7.852   6.521   2.904 -2.6032  0.4354 -0.7392
   54MOL0     H 7279   7.875   6.502   3.079 -0.4302  0.9163 -0.1082
   54MOL0     H 7280   7.595   6.516   2.933 -3.6783  1.0513  1.2317
   54MOL0     H 7281   7.679   6.653   3.008  1.4272  0.1521  6.7157
   54MOL0     H 7282   7.633   6.577   3.229 -0.5038  0.4155  0.6125
   54MOL0     H 7283   7.570   6.423   3.170 -0.9815 -0.0939 -1.2331
   54MOL0     H 7284   7.385   6.524   3.057 -0.4404 -0.7094 -0.3646
   54MOL0     H 7285   7.391   6.599   3.222  0.6325  1.8569 -0.3945
   54MOL0     H 7286   7.461   6.946   3.007 -0.2041 -1.3081 -1.7208
   54MOL0     H 7287   8.065   6.408   3.012 -1.3701 -0.9915 -2.8925
   54MOL0     H 7288   8.331   6.231   3.194 -1.4145  0.9513  2.4986
   54MOL0     H 7289   8.325   6.265   3.023  0.3564 -0.2987 -0.0558
   54MOL0     H 7290   8.281   6.391   3.151  2.1458  0.7357 -1.4227
   55MOL0     O 7291   0.977   5.695   6.917  0.2199  0.4676 -0.5624
   55MOL0     C 7292   0.902   5.698   7.014 -1.3197  0.5200 -0.2486
   55MOL0     O 7293   0.790   5.626   7.033  0.5814  0.1454 -0.5363
   55MOL0     C 7294   0.746   5.535   6.937  0.7065  0.8303 -0.5126
   55MOL0     C 7295   0.822   5.420   6.902  0.8247  0.6168 -0.2734
   55MOL0     C 7296   0.768   5.330   6.815  0.4149  1.0815  0.0388
   55MOL0     C 7297   0.642   5.351   6.748  0.3760 -0.4995 -0.1578
   55MOL0     O 7298   0.584   5.268   6.660 -0.1892 -0.1500 -0.1058
   55MOL0     C 7299   0.680   5.186   6.590 -0.4557 -0.3614 -0.3246
   55MOL0     C 7300   0.606   5.071   6.518 -0.7181 -0.0483 -0.2343
   55MOL0     C 7301   0.702   5.013   6.417  0.1082 -0.4777  0.7020
   55MOL0     C 7302   0.656   4.869   6.406 -0.2230 -0.0462 -0.3447
   55MOL0     C 7303   0.740   4.804   6.288 -0.3503 -0.1064  1.0954
   55MOL0     C 7304   0.702   4.656   6.260  0.8364 -1.0063  0.4019
   55MOL0     C 7305   0.782   4.610   6.140  1.4602 -0.3569 -0.4737
   55MOL0     C 7306   0.770   4.451   6.134 -0.4972 -1.2226 -0.1937
   55MOL0     N 7307   0.824   4.416   5.993  0.2454  0.0190 -0.4517
   55MOL0     C 7308   0.952   4.367   5.971  0.0031  0.7271  0.1179
   55MOL0     C 7309   0.960   4.358   5.836 -0.1956  0.4497 -1.0179
   55MOL0     C 7310   1.088   4.316   5.752  0.5057  0.4623  0.9013
   55MOL0     C 7311   1.117   4.171   5.775 -0.0722 -0.5559  0.1198
   55MOL0     C 7312   1.002   4.069   5.776  0.6786 -0.0446  1.0384
   55MOL0     C 7313   0.942   4.065   5.630  1.1415  0.0629 -0.3599
   55MOL0     O 7314   0.851   3.958   5.652  0.5262  0.4219  0.4988
   55MOL0     C 7315   0.770   3.910   5.545 -0.1225 -0.0886  0.1381
   55MOL0     C 7316   0.628   3.901   5.556 -0.4169 -0.1729 -0.2003
   55MOL0     C 7317   0.552   3.850   5.456  0.3368  0.2159 -0.8475
   55MOL0     C 7318   0.608   3.801   5.334  0.2632 -0.5206 -0.0557
   55MOL0     C 7319   0.517   3.761   5.231 -0.7904 -0.0223  1.0310
   55MOL0     O 7320   0.572   3.729   5.115 -0.4550  0.1964  0.5186
   55MOL0     C 7321   0.484   3.665   5.028 -0.2667  0.4509 -0.0060
   55MOL0     C 7322   0.515   3.534   4.981 -0.2064 -0.5930  0.6929
   55MOL0     C 7323   0.420   3.462   4.900 -0.7051  0.1961  0.1420
   55MOL0     C 7324   0.309   3.526   4.856  0.3239 -0.6015  0.6684
   55MOL0     O 7325   0.214   3.468   4.772  0.3903  0.0602  0.6988
   55MOL0     C 7326   0.259   3.440   4.641 -0.0413 -1.3724 -0.0497
   55MOL0     C 7327   0.156   3.358   4.575 -1.1549  0.1349  0.1971
   55MOL0     C 7328   0.148   3.384   4.425  0.3882 -0.0780 -0.0663
   55MOL0     C 7329   0.037   3.308   4.362 -0.5776 -0.2546 -1.0255
   55MOL0     C 7330   0.042   3.322   4.205 -0.6122  1.1846  0.1138
   55MOL0     C 7331   0.043   3.467   4.146 -0.4877  0.2432 -0.4391
   55MOL0     C 7332  -0.075   3.567   4.179 -0.3167  0.4797  0.0044
   55MOL0     C 7333  -0.138   3.604   4.049  0.2409 -0.7247  0.3775
   55MOL0    Cl 7334  -0.251   3.482   3.970 -0.2246 -0.0778  0.4717
   55MOL0     C 7335   0.290   3.665   4.883 -0.4108  0.3666  0.8693
   55MOL0     C 7336   0.378   3.733   4.971 -0.1569  0.5514  0.0921
   55MOL0     O 7337   0.395   3.765   5.253  0.1115 -0.3179 -0.1373
   55MOL0     C 7338   0.749   3.817   5.323  1.1643  0.8710  0.8789
   55MOL0     C 7339   0.831   3.871   5.422  0.2774 -0.2565  0.9333
   55MOL0     N 7340   0.835   4.405   5.786  0.1834  0.8035 -0.3875
   55MOL0     N 7341   0.752   4.438   5.881 -0.3018 -0.5551  0.5890
   55MOL0     C 7342   0.576   5.477   6.774 -0.2239  1.4034  0.9507
   55MOL0     C 7343   0.628   5.565   6.865  0.7711 -0.1974 -0.8436
   55MOL0     C 7344   0.941   5.797   7.126  0.7925 -0.4451 -0.4665
   55MOL0     C 7345   0.956   5.935   7.101 -0.0469  0.6237 -0.5206
   55MOL0     C 7346   0.979   6.032   7.201 -0.6556  0.0713  0.1891
   55MOL0     C 7347   0.991   5.987   7.333 -0.7176  0.1262 -0.2829
   55MOL0     O 7348   1.016   6.082   7.439  0.8359  0.6302  0.9374
   55MOL0     C 7349   1.047   6.212   7.403 -0.7065 -0.6786 -0.6491
   55MOL0     C 7350   1.080   6.287   7.537 -0.5324 -0.4127  0.6265
   55MOL0     C 7351   1.128   6.428   7.504 -0.5365 -0.7982  0.2860
   55MOL0     C 7352   1.238   6.469   7.609 -0.3946 -0.2377  0.4598
   55MOL0     C 7353   1.168   6.502   7.724  0.1661 -0.7129 -0.8019
   55MOL0     C 7354   1.085   6.529   7.812 -0.4012  0.4768 -0.1039
   55MOL0     C 7355   0.992   5.851   7.365 -0.4171  0.3660 -0.2020
   55MOL0     C 7356   0.965   5.754   7.264  0.3751 -0.2929  0.4636
   55MOL0     C 7357   0.936   5.610   7.308  0.3040  0.1048  0.7727
   55MOL0     H 7358   0.916   5.410   6.956 -0.2760  0.8192  1.7802
   55MOL0     H 7359   0.825   5.238   6.808  1.4290  1.6238  0.8696
   55MOL0     H 7360   0.724   5.255   6.518 -0.3386  0.8547  0.8573
   55MOL0     H 7361   0.752   5.132   6.652 -1.0858  1.4369  2.1640
   55MOL0     H 7362   0.524   5.120   6.465 -0.3811  2.5738  1.4987
   55MOL0     H 7363   0.562   5.003   6.592 -2.4846  0.5228 -0.7134
   55MOL0     H 7364   0.808   5.026   6.442 -0.1182  2.7545  0.4349
   55MOL0     H 7365   0.685   5.061   6.320 -4.0014 -0.7121  1.1011
   55MOL0     H 7366   0.692   4.824   6.499  2.0766 -1.5622 -1.8533
   55MOL0     H 7367   0.549   4.852   6.392 -0.1976  1.2237 -2.6262
   55MOL0     H 7368   0.723   4.867   6.200  1.1477 -1.2053 -0.0378
   55MOL0     H 7369   0.848   4.808   6.303  0.0307 -1.6101 -0.8464
   55MOL0     H 7370   0.750   4.600   6.340 -1.6571 -0.4911  2.3558
   55MOL0     H 7371   0.594   4.642   6.249  0.4935  1.0475  0.6917
   55MOL0     H 7372   0.886   4.633   6.168  0.5779  0.6046  2.3957
   55MOL0     H 7373   0.750   4.660   6.049 -0.5693 -2.5137 -1.0299
   55MOL0     H 7374   0.829   4.410   6.217 -0.5416  0.0186  0.4670
   55MOL0     H 7375   0.666   4.416   6.138 -1.3018  1.1057  2.7033
   55MOL0     H 7376   1.031   4.352   6.044 -0.9060 -1.0295  0.8015
   55MOL0     H 7377   1.064   4.330   5.646  0.6430 -1.1324  0.6344
   55MOL0     H 7378   1.176   4.374   5.780 -0.3108  1.7044  0.9454
   55MOL0     H 7379   1.191   4.127   5.708 -1.5392  0.5822 -2.4032
   55MOL0     H 7380   1.163   4.154   5.873  0.2128 -2.0353 -0.2417
   55MOL0     H 7381   0.931   4.088   5.857  0.3077  0.6461  0.5620
   55MOL0     H 7382   1.043   3.970   5.799 -1.0682 -0.4103  2.8934
   55MOL0     H 7383   1.026   4.040   5.564 -0.4038  1.1496 -2.9095
   55MOL0     H 7384   0.901   4.162   5.601  0.6909  0.1994  0.6972
   55MOL0     H 7385   0.577   3.940   5.643 -3.7684 -0.6350 -1.7719
   55MOL0     H 7386   0.445   3.836   5.465  0.2384  1.6699  0.7027
   55MOL0     H 7387   0.596   3.474   5.022  0.0031 -2.0942 -1.7528
   55MOL0     H 7388   0.441   3.361   4.865 -1.3465  0.3848 -0.8324
   55MOL0     H 7389   0.270   3.536   4.590 -2.1145 -0.3794  1.2043
   55MOL0     H 7390   0.353   3.386   4.659  0.8603  0.4379  0.9705
   55MOL0     H 7391   0.168   3.252   4.597  0.8984  1.0404  4.5056
   55MOL0     H 7392   0.061   3.390   4.619 -0.0809 -0.8211  3.4738
   55MOL0     H 7393   0.148   3.489   4.394  1.8230  0.8064  2.6298
   55MOL0     H 7394   0.243   3.345   4.388  0.5753  1.2336 -1.0090
   55MOL0     H 7395  -0.058   3.334   4.410  0.4652 -1.8531  2.2057
   55MOL0     H 7396   0.033   3.202   4.389 -3.2961 -0.4434 -1.8550
   55MOL0     H 7397  -0.043   3.268   4.164  0.0866 -0.9619  1.3402
   55MOL0     H 7398   0.122   3.261   4.162 -1.7588 -1.8074  1.9165
   55MOL0     H 7399   0.140   3.509   4.176 -2.0948  3.2244  1.0856
   55MOL0     H 7400   0.051   3.452   4.038  2.4346 -1.1356 -0.1313
   55MOL0     H 7401  -0.036   3.657   4.227 -0.9741  1.5426 -1.3829
   55MOL0     H 7402  -0.158   3.525   4.237 -1.1367  0.0888 -1.4036
   55MOL0     H 7403  -0.203   3.687   4.080  0.6414  0.8811 -2.7275
   55MOL0     H 7404  -0.051   3.631   3.989 -1.2624  1.4898 -0.9560
   55MOL0     H 7405   0.203   3.723   4.852 -0.5231  0.6971  1.7574
   55MOL0     H 7406   0.360   3.836   5.000 -2.1116  0.1883  0.3718
   55MOL0     H 7407   0.789   3.807   5.223 -0.4296  1.2070  0.1729
   55MOL0     H 7408   0.938   3.872   5.404  0.2960  0.7600  1.0266
   55MOL0     H 7409   0.486   5.500   6.718  3.0538  1.6774 -5.0014
   55MOL0     H 7410   0.578   5.658   6.887  2.3014 -0.0052  2.3613
   55MOL0     H 7411   0.956   5.969   6.998 -1.3388  0.2229 -0.6670
   55MOL0     H 7412   0.984   6.138   7.177 -1.9408  0.9855  3.4869
   55MOL0     H 7413   0.963   6.258   7.352 -0.7018  1.2092  0.9426
   55MOL0     H 7414   1.127   6.213   7.328 -1.1151 -1.6572 -1.1076
   55MOL0     H 7415   1.149   6.224   7.594  1.5119  1.6825  0.6024
   55MOL0     H 7416   0.989   6.295   7.598 -1.3679 -0.9904 -0.5097
   55MOL0     H 7417   1.051   6.505   7.496  0.9328  0.8558  1.3800
   55MOL0     H 7418   1.178   6.436   7.407  1.3485  0.3819  1.3093
   55MOL0     H 7419   1.311   6.389   7.622  1.1391  1.1180  0.6014
   55MOL0     H 7420   1.297   6.555   7.576 -1.1131  0.6742  1.4629
   55MOL0     H 7421   1.000   6.547   7.875 -2.5860 -0.4267 -2.6145
   55MOL0     H 7422   0.991   5.810   7.466 -1.0342 -0.6505 -0.6046
   55MOL0     H 7423   1.019   5.558   7.357  1.9113  2.2454  0.4465
   55MOL0     H 7424   0.853   5.612   7.379 -2.1844 -0.8838 -1.8995
   55MOL0     H 7425   0.901   5.555   7.221  0.9836  1.0225 -0.1058
   56MOL0     O 7426   6.632   1.040  10.575 -0.8186 -0.2831  0.1981
   56MOL0     C 7427   6.728   1.033  10.652  0.0317 -0.6132  0.0833
   56MOL0     O 7428   6.739   0.941  10.756  0.1367 -0.7342 -0.1649
   56MOL0     C 7429   6.644   0.841  10.765 -0.5283 -0.0132  0.2686
   56MOL0     C 7430   6.593   0.813  10.892  0.1208  0.0117  0.3998
   56MOL0     C 7431   6.512   0.706  10.913  0.4062  0.9952 -0.0489
   56MOL0     C 7432   6.463   0.627  10.807 -0.2937  0.1433  0.9990
   56MOL0     O 7433   6.356   0.540  10.832 -0.4518 -0.0916  0.1258
   56MOL0     C 7434   6.251   0.563  10.733  1.0445 -1.2034  0.0242
   56MOL0     C 7435   6.112   0.509  10.789  0.2032  0.7355  0.1394
   56MOL0     C 7436   6.128   0.356  10.807  0.2725  0.3689  0.3341
   56MOL0     C 7437   5.995   0.299  10.823  0.2101 -0.9276 -0.9510
   56MOL0     C 7438   6.010   0.148  10.854  0.3381  0.2378 -0.1068
   56MOL0     C 7439   5.923   0.085  10.965 -0.8698 -0.9069  1.3229
   56MOL0     C 7440   5.953  -0.063  10.992  0.0728 -0.7985 -0.0395
   56MOL0     C 7441   5.870  -0.127  11.112 -0.5128  0.2710 -0.6797
   56MOL0     N 7442   5.728  -0.095  11.106 -0.6390 -0.5672 -0.6420
   56MOL0     C 7443   5.635  -0.157  11.028 -0.2217  1.1741 -0.0008
   56MOL0     C 7444   5.525  -0.087  11.030  0.7200 -1.0863  0.0628
   56MOL0     C 7445   5.375  -0.117  10.983 -0.3696  0.6555  0.2888
   56MOL0     C 7446   5.353  -0.094  10.841  0.6146  0.3714  0.3657
   56MOL0     C 7447   5.282   0.043  10.822  0.0659  0.5274 -0.3608
   56MOL0     C 7448   5.130   0.033  10.855  0.5679  0.1945 -0.2314
   56MOL0     O 7449   5.070  -0.088  10.797  0.2751  0.0712 -0.4960
   56MOL0     C 7450   4.933  -0.115  10.807  0.7007  0.2256 -0.1454
   56MOL0     C 7451   4.840  -0.031  10.867 -0.0613  0.6715  0.0392
   56MOL0     C 7452   4.706  -0.071  10.888  0.0156 -0.9130 -0.2746
   56MOL0     C 7453   4.671  -0.213  10.849  0.8697 -0.4922 -0.0160
   56MOL0     C 7454   4.534  -0.252  10.867  0.0479 -0.7149  0.5995
   56MOL0     O 7455   4.442  -0.154  10.858 -0.1328 -0.5692  0.3675
   56MOL0     C 7456   4.311  -0.183  10.881  0.3049  1.1370 -0.6149
   56MOL0     C 7457   4.222  -0.127  10.970 -0.7921  0.2689  0.2073
   56MOL0     C 7458   4.086  -0.151  10.978  0.5122  0.0527  0.0679
   56MOL0     C 7459   4.023  -0.246  10.892 -1.1646 -0.8145 -0.8562
   56MOL0     O 7460   3.888  -0.264  10.895  0.0740 -0.2950  0.2597
   56MOL0     C 7461   3.844  -0.207  10.772 -0.0002 -0.5234 -0.7326
   56MOL0     C 7462   3.698  -0.235  10.749 -0.1738  0.6489  0.9633
   56MOL0     C 7463   3.599  -0.205  10.859  0.5408 -0.3319  0.3202
   56MOL0     C 7464   3.596  -0.056  10.908  0.5406 -0.4026 -0.6207
   56MOL0     C 7465   3.477  -0.022  11.011 -1.3279  0.0636  1.2291
   56MOL0     C 7466   3.484   0.120  11.076 -0.0382 -0.4647  0.0197
   56MOL0     C 7467   3.449   0.235  10.973  0.0127  0.0054 -0.0028
   56MOL0     C 7468   3.313   0.255  10.932 -0.6860 -0.4177  0.0209
   56MOL0    Cl 7469   3.189   0.213  11.060 -0.1575  0.0914 -0.6242
   56MOL0     C 7470   4.110  -0.321  10.808  0.0690 -0.1223  1.1351
   56MOL0     C 7471   4.245  -0.284  10.801  0.3402 -0.2657 -0.5367
   56MOL0     O 7472   4.514  -0.369  10.907  0.2420  0.2113  0.0099
   56MOL0     C 7473   4.774  -0.297  10.797  0.1372  0.0290  0.6573
   56MOL0     C 7474   4.902  -0.252  10.779 -0.6577 -0.5120  0.0517
   56MOL0     N 7475   5.549   0.019  11.118 -0.4559 -0.2039  0.2641
   56MOL0     N 7476   5.671   0.016  11.161 -0.3206 -0.3937  0.3057
   56MOL0     C 7477   6.524   0.650  10.683  0.1880 -0.0417  0.1522
   56MOL0     C 7478   6.607   0.759  10.661  0.4143  0.7692 -0.1633
   56MOL0     C 7479   6.848   1.129  10.654  0.3940 -0.4026  0.8003
   56MOL0     C 7480   6.965   1.105  10.727 -1.0908 -0.1942 -0.8673
   56MOL0     C 7481   7.071   1.200  10.728 -0.0675  0.2968  0.7716
   56MOL0     C 7482   7.067   1.319  10.658  1.2398  1.0688  0.2533
   56MOL0     O 7483   7.150   1.423  10.669  0.1327 -0.4635 -0.6651
   56MOL0     C 7484   7.268   1.412  10.753  0.0662  0.8269  0.1178
   56MOL0     C 7485   7.240   1.447  10.897 -0.0993 -0.6162  0.0735
   56MOL0     C 7486   7.367   1.482  10.993  0.5364  0.1450  0.7619
   56MOL0     C 7487   7.489   1.554  10.929 -1.0405  0.6258 -1.2149
   56MOL0     C 7488   7.434   1.683  10.888 -0.7987  0.6321  0.4295
   56MOL0     C 7489   7.392   1.781  10.832  0.0248 -1.1119  0.3547
   56MOL0     C 7490   6.959   1.323  10.564 -0.8325 -0.5714 -0.2987
   56MOL0     C 7491   6.849   1.239  10.561 -0.4267  0.3336 -0.8713
   56MOL0     C 7492   6.729   1.283  10.481 -0.7696 -0.4169 -0.2518
   56MOL0     H 7493   6.622   0.858  10.986 -1.7910 -1.1931  1.6371
   56MOL0     H 7494   6.467   0.672  11.006 -2.3150  3.0244 -0.5262
   56MOL0     H 7495   6.250   0.669  10.708  5.5279 -0.8887  0.4109
   56MOL0     H 7496   6.290   0.513  10.644  2.9494  0.1267  0.0690
   56MOL0     H 7497   6.035   0.521  10.711  0.4184  0.3206 -0.1410
   56MOL0     H 7498   6.073   0.554  10.880  0.4529  2.0719 -0.3831
   56MOL0     H 7499   6.195   0.340  10.891 -0.7319  0.0254  1.0870
   56MOL0     H 7500   6.185   0.318  10.721  0.2270 -0.0104  0.4712
   56MOL0     H 7501   5.933   0.346  10.900  1.0327  0.1256 -0.9101
   56MOL0     H 7502   5.926   0.308  10.737  0.4292  3.0766 -0.8753
   56MOL0     H 7503   5.996   0.089  10.763  0.2579  0.1174 -0.0171
   56MOL0     H 7504   6.111   0.135  10.894  0.5177 -0.9155 -0.8960
   56MOL0     H 7505   5.921   0.148  11.054  1.2965  0.6727  0.3424
   56MOL0     H 7506   5.828   0.083  10.912 -0.8475 -3.7694  1.2153
   56MOL0     H 7507   6.059  -0.055  11.019  0.4262  2.5530 -1.7618
   56MOL0     H 7508   5.949  -0.125  10.902  1.5124  1.1616 -1.5583
   56MOL0     H 7509   5.884  -0.235  11.095  1.3696  0.5291 -1.0050
   56MOL0     H 7510   5.917  -0.104  11.208  0.8734 -1.4665 -0.8599
   56MOL0     H 7511   5.663  -0.251  10.980  0.7070  1.7180 -0.5762
   56MOL0     H 7512   5.372  -0.226  10.983  2.3197  0.4942  1.3599
   56MOL0     H 7513   5.293  -0.083  11.047 -0.3869  0.4662  0.3667
   56MOL0     H 7514   5.445  -0.096  10.781 -0.1551  2.5275 -1.0157
   56MOL0     H 7515   5.290  -0.174  10.802  2.4293 -2.0633  2.1728
   56MOL0     H 7516   5.297   0.067  10.717 -1.5731 -0.8668 -0.9724
   56MOL0     H 7517   5.324   0.120  10.888 -2.5085  1.2978  0.5226
   56MOL0     H 7518   5.074   0.118  10.816  0.9582 -0.1457 -1.5835
   56MOL0     H 7519   5.127   0.032  10.964 -0.1449 -3.0183 -0.1842
   56MOL0     H 7520   4.876   0.067  10.895 -0.0291  0.3061  1.3737
   56MOL0     H 7521   4.632  -0.009  10.938  1.8940  1.2176  0.0151
   56MOL0     H 7522   4.274  -0.052  11.028 -0.6142  0.4019 -0.1220
   56MOL0     H 7523   4.028  -0.094  11.050  1.7680  0.4268  0.8182
   56MOL0     H 7524   3.861  -0.099  10.780 -0.4628 -0.5679  1.0528
   56MOL0     H 7525   3.891  -0.260  10.688 -0.7972 -0.6911 -1.0844
   56MOL0     H 7526   3.673  -0.178  10.659  0.1040 -0.1300  0.3846
   56MOL0     H 7527   3.699  -0.340  10.719  2.7499  0.5663  1.0309
   56MOL0     H 7528   3.494  -0.233  10.849  0.3799 -0.5186  2.2753
   56MOL0     H 7529   3.630  -0.261  10.947 -3.1806  0.0019  2.0054
   56MOL0     H 7530   3.569   0.019  10.833 -1.7348 -1.4370 -0.9227
   56MOL0     H 7531   3.692  -0.038  10.958 -0.5705  2.1835  0.7524
   56MOL0     H 7532   3.491  -0.100  11.086 -1.3721 -0.5636  0.5990
   56MOL0     H 7533   3.381  -0.028  10.960 -0.2236 -0.6323 -0.8941
   56MOL0     H 7534   3.415   0.127  11.161  0.2852  1.2605  0.1776
   56MOL0     H 7535   3.581   0.147  11.120 -0.1901  2.6487 -1.2781
   56MOL0     H 7536   3.515   0.221  10.886  0.8162  2.3793  0.1553
   56MOL0     H 7537   3.484   0.327  11.022  0.2808  0.4533 -1.0083
   56MOL0     H 7538   3.302   0.355  10.891  2.2210 -0.9561 -2.3967
   56MOL0     H 7539   3.288   0.193  10.846  2.9553 -1.2751 -0.5931
   56MOL0     H 7540   4.084  -0.401  10.739 -1.2030  1.1818  0.0376
   56MOL0     H 7541   4.309  -0.338  10.731  3.7207  4.2859 -1.4304
   56MOL0     H 7542   4.753  -0.393  10.751  1.3645  0.1338 -0.1728
   56MOL0     H 7543   4.979  -0.312  10.730  1.3369  2.0193 -0.0885
   56MOL0     H 7544   6.496   0.579  10.605  2.0196  1.2032 -1.7587
   56MOL0     H 7545   6.655   0.770  10.565 -0.8353 -3.6860 -1.5666
   56MOL0     H 7546   6.970   1.018  10.792  1.2870  1.5355  1.4529
   56MOL0     H 7547   7.155   1.171  10.790 -0.2512  0.7661  1.2431
   56MOL0     H 7548   7.338   1.485  10.712 -0.3479 -0.9249 -4.1679
   56MOL0     H 7549   7.321   1.316  10.751 -2.3191 -0.5401 -0.6340
   56MOL0     H 7550   7.197   1.360  10.946  1.4700  1.3297  5.6621
   56MOL0     H 7551   7.169   1.529  10.912 -0.2326 -0.9292  1.2599
   56MOL0     H 7552   7.387   1.378  11.021 -1.4349 -1.0546 -1.8640
   56MOL0     H 7553   7.335   1.547  11.075  1.7971  0.9219  0.6683
   56MOL0     H 7554   7.572   1.570  10.998  0.1453  0.0786 -2.4470
   56MOL0     H 7555   7.524   1.488  10.848 -1.5226 -1.8873  0.5259
   56MOL0     H 7556   7.343   1.862  10.782  0.6213 -0.3510  0.9877
   56MOL0     H 7557   6.969   1.401  10.489  2.4710 -2.4440 -1.9742
   56MOL0     H 7558   6.631   1.290  10.527 -1.4266 -0.3486 -1.6126
   56MOL0     H 7559   6.747   1.381  10.435  1.3832 -1.2725 -1.4199
   56MOL0     H 7560   6.712   1.209  10.403 -0.9243 -1.0375  0.3653
   57MOL0     O 7561   8.262   3.398  10.880 -0.3083 -0.0855 -0.1519
   57MOL0     C 7562   8.288   3.482  10.965 -1.0527  0.4927  0.6383
   57MOL0     O 7563   8.208   3.524  11.072 -0.1522  0.5011  0.5478
   57MOL0     C 7564   8.103   3.437  11.110  0.1841 -0.6323  1.1130
   57MOL0     C 7565   7.971   3.475  11.070 -0.4180  0.7183  0.1719
   57MOL0     C 7566   7.858   3.394  11.117  0.3970 -0.4375 -0.6744
   57MOL0     C 7567   7.872   3.287  11.202  0.3227 -0.0419  0.2242
   57MOL0     O 7568   7.755   3.220  11.225  0.2408 -0.6006  0.6529
   57MOL0     C 7569   7.763   3.124  11.337 -0.0747 -0.4924 -0.2963
   57MOL0     C 7570   7.632   3.141  11.417  0.1500 -0.5568  0.4981
   57MOL0     C 7571   7.612   3.272  11.492 -1.0639 -0.4632 -0.1661
   57MOL0     C 7572   7.560   3.260  11.629  0.3574 -0.3390 -0.3482
   57MOL0     C 7573   7.560   3.395  11.709  0.1929 -0.4822 -1.0143
   57MOL0     C 7574   7.477   3.393  11.835 -0.2423 -0.0857 -0.4407
   57MOL0     C 7575   7.334   3.426  11.801 -0.1531  0.1057 -0.2429
   57MOL0     C 7576   7.231   3.395  11.917 -0.0007 -0.6820 -0.3644
   57MOL0     N 7577   7.261   3.475  12.033 -1.1454  0.7347  0.3106
   57MOL0     C 7578   7.365   3.446  12.119  0.4599  0.4291 -0.6157
   57MOL0     C 7579   7.355   3.534  12.214  0.3459 -0.7430 -0.3341
   57MOL0     C 7580   7.470   3.560  12.309  0.5808  0.2971  0.6666
   57MOL0     C 7581   7.596   3.603  12.236  0.9034  0.2484 -0.1419
   57MOL0     C 7582   7.573   3.715  12.136 -0.5108  0.9021  0.5426
   57MOL0     C 7583   7.525   3.850  12.196  0.4928  0.1019 -0.2860
   57MOL0     O 7584   7.636   3.887  12.285 -0.0761  0.1650 -0.1067
   57MOL0     C 7585   7.747   3.938  12.227 -0.0526  0.3104 -0.4139
   57MOL0     C 7586   7.877   3.895  12.260 -0.2245  0.5955  0.5725
   57MOL0     C 7587   7.993   3.942  12.197  0.5460 -0.1554 -0.5507
   57MOL0     C 7588   7.978   4.051  12.102 -0.4907  1.2748 -0.6834
   57MOL0     C 7589   8.096   4.104  12.038 -0.2257 -0.1427  1.5723
   57MOL0     O 7590   8.081   4.163  11.914 -0.3564  0.3844  0.2046
   57MOL0     C 7591   8.198   4.170  11.846 -0.7912 -0.1353 -0.0719
   57MOL0     C 7592   8.216   4.081  11.739  0.6228 -0.7118  0.3650
   57MOL0     C 7593   8.334   4.094  11.659 -0.0857  0.3139  0.5881
   57MOL0     C 7594   8.431   4.187  11.692 -1.1535  0.4882  0.0435
   57MOL0     O 7595   8.543   4.231  11.615 -0.3261  0.0231 -0.2498
   57MOL0     C 7596   8.597   4.140  11.516  0.4663  0.3512 -0.4564
   57MOL0     C 7597   8.721   4.191  11.433  0.3425 -0.9061 -0.9376
   57MOL0     C 7598   8.850   4.196  11.521 -0.7146 -0.8337  0.0993
   57MOL0     C 7599   8.837   4.280  11.646  0.4657 -1.0726 -0.3938
   57MOL0     C 7600   8.969   4.290  11.723  0.3823 -0.7282 -0.2161
   57MOL0     C 7601   8.952   4.373  11.847 -0.0042  0.2009  0.3998
   57MOL0     C 7602   8.931   4.533  11.823 -0.6264 -0.2200  0.3589
   57MOL0     C 7603   8.828   4.587  11.921 -0.3569  0.2344  0.7347
   57MOL0    Cl 7604   8.893   4.586  12.087 -0.0307 -0.1110 -0.3287
   57MOL0     C 7605   8.409   4.267  11.798 -0.4275 -0.3870  0.2234
   57MOL0     C 7606   8.293   4.265  11.881 -0.2303  0.2797 -0.3241
   57MOL0     O 7607   8.199   4.065  12.085  0.9444 -0.4064 -0.0699
   57MOL0     C 7608   7.851   4.099  12.071  0.3358 -0.4493 -0.4346
   57MOL0     C 7609   7.744   4.044  12.135  0.8014 -0.2156 -0.2064
   57MOL0     N 7610   7.245   3.616  12.188  0.6591 -0.1993 -0.4830
   57MOL0     N 7611   7.185   3.571  12.084  0.7086 -0.2774 -0.9711
   57MOL0     C 7612   7.999   3.252  11.236  0.7899 -0.1978  0.2590
   57MOL0     C 7613   8.113   3.320  11.183  0.3413  0.6091 -0.0357
   57MOL0     C 7614   8.432   3.533  10.965 -0.2941 -0.2527 -0.1231
   57MOL0     C 7615   8.476   3.583  11.087  0.3256 -0.4171  0.0466
   57MOL0     C 7616   8.603   3.631  11.102 -1.0033  0.6431  0.2518
   57MOL0     C 7617   8.685   3.643  10.996 -0.4486  0.1050  1.1790
   57MOL0     O 7618   8.812   3.699  11.012 -0.7118 -0.4594  0.8412
   57MOL0     C 7619   8.902   3.728  10.894  0.3630  0.6116  0.4930
   57MOL0     C 7620   8.872   3.864  10.822  0.0650  0.1490 -0.5466
   57MOL0     C 7621   8.888   3.980  10.925  0.3138 -0.3342 -0.3558
   57MOL0     C 7622   8.839   4.105  10.856 -0.7437  0.8127 -0.3323
   57MOL0     C 7623   8.840   4.218  10.949  0.5418 -0.2225  0.1763
   57MOL0     C 7624   8.838   4.308  11.029 -0.4864 -0.5347 -0.3770
   57MOL0     C 7625   8.643   3.597  10.871  0.6071 -0.5109  1.0411
   57MOL0     C 7626   8.517   3.539  10.853  0.5573 -0.0030 -0.0396
   57MOL0     C 7627   8.480   3.495  10.715  0.3677 -0.5606  0.6125
   57MOL0     H 7628   7.943   3.566  11.018  0.3829  3.1300  3.5849
   57MOL0     H 7629   7.754   3.412  11.094 -0.2208 -3.0116 -0.2423
   57MOL0     H 7630   7.765   3.021  11.298  2.8640 -0.7024  0.1429
   57MOL0     H 7631   7.842   3.140  11.410  1.1197 -0.5291 -1.5375
   57MOL0     H 7632   7.618   3.048  11.471  0.7422 -2.7920 -2.8596
   57MOL0     H 7633   7.553   3.140  11.341  1.5986  1.6670 -1.1983
   57MOL0     H 7634   7.533   3.322  11.435 -1.4412 -1.3466 -0.4409
   57MOL0     H 7635   7.706   3.327  11.491 -2.4381  2.1495  1.9491
   57MOL0     H 7636   7.463   3.211  11.618  0.3018 -0.2595 -0.2136
   57MOL0     H 7637   7.635   3.188  11.664  1.9645  0.6318 -1.6146
   57MOL0     H 7638   7.660   3.425  11.740  0.9493 -1.9548 -1.8532
   57MOL0     H 7639   7.515   3.474  11.648 -1.8323 -2.1701 -1.8568
   57MOL0     H 7640   7.483   3.298  11.890  0.7527  0.0407 -0.3002
   57MOL0     H 7641   7.512   3.476  11.897 -2.5321  0.4558  0.1942
   57MOL0     H 7642   7.310   3.375  11.708 -5.3400 -0.4183  1.0789
   57MOL0     H 7643   7.328   3.532  11.776  0.1131  0.6473  1.7887
   57MOL0     H 7644   7.126   3.403  11.887  0.2711 -2.6603 -2.0431
   57MOL0     H 7645   7.240   3.289  11.944  0.6076 -0.5793 -0.1685
   57MOL0     H 7646   7.436   3.364  12.117 -1.2644 -1.1501 -0.4206
   57MOL0     H 7647   7.445   3.647  12.370 -1.5954 -0.0861  0.3961
   57MOL0     H 7648   7.470   3.466  12.364  0.2936 -0.8833 -1.2626
   57MOL0     H 7649   7.677   3.620  12.308 -0.6316  1.1304  1.4401
   57MOL0     H 7650   7.624   3.515  12.178  2.9511  0.1330  0.9293
   57MOL0     H 7651   7.506   3.684  12.055 -0.6888 -2.0601  1.7013
   57MOL0     H 7652   7.670   3.726  12.087 -0.5592 -0.1956  0.1633
   57MOL0     H 7653   7.427   3.837  12.244 -0.9791  0.7733 -2.9115
   57MOL0     H 7654   7.507   3.917  12.111 -1.1024  0.4096  0.2508
   57MOL0     H 7655   7.894   3.818  12.335  0.3908  0.8705  0.7267
   57MOL0     H 7656   8.093   3.904  12.214  0.4644 -1.3394 -2.3512
   57MOL0     H 7657   8.133   4.014  11.719 -1.8104  1.8338  1.2383
   57MOL0     H 7658   8.345   4.038  11.566 -1.7940  0.4175  0.2895
   57MOL0     H 7659   8.619   4.046  11.568 -0.3681  0.7976  0.7420
   57MOL0     H 7660   8.522   4.135  11.436  0.7651  1.3120 -0.8153
   57MOL0     H 7661   8.747   4.119  11.355 -1.3629 -1.9187 -0.6293
   57MOL0     H 7662   8.702   4.286  11.382 -1.4703 -1.5278 -1.5057
   57MOL0     H 7663   8.877   4.095  11.553 -0.5072 -1.0132 -0.6388
   57MOL0     H 7664   8.923   4.257  11.466  1.0818  1.3990  4.3960
   57MOL0     H 7665   8.767   4.232  11.715 -2.6712  0.2995 -2.4051
   57MOL0     H 7666   8.811   4.385  11.631  2.5428 -0.5342 -0.5955
   57MOL0     H 7667   9.048   4.344  11.670  1.5243 -0.3833  1.7206
   57MOL0     H 7668   9.010   4.192  11.751  2.0469  0.1162  0.4468
   57MOL0     H 7669   8.874   4.329  11.910 -0.7012 -0.8482 -1.1375
   57MOL0     H 7670   9.047   4.354  11.899 -0.4784 -4.0148  0.1221
   57MOL0     H 7671   8.893   4.553  11.722  0.2589 -1.5567 -0.2732
   57MOL0     H 7672   9.022   4.594  11.818 -1.1028  0.5536 -5.0978
   57MOL0     H 7673   8.825   4.688  11.878  2.1475  0.0681  0.0200
   57MOL0     H 7674   8.726   4.549  11.910 -1.2807  3.1175 -2.5510
   57MOL0     H 7675   8.487   4.340  11.816 -1.6623  0.8366  0.8639
   57MOL0     H 7676   8.289   4.334  11.965  0.3604  0.8277 -0.7307
   57MOL0     H 7677   7.835   4.184  12.005 -1.4784  1.0609  1.7839
   57MOL0     H 7678   7.646   4.080  12.104 -0.8564 -3.2805  1.0719
   57MOL0     H 7679   8.015   3.163  11.296 -1.9671  0.1629  1.6465
   57MOL0     H 7680   8.216   3.291  11.202 -0.7668 -2.1830  2.7686
   57MOL0     H 7681   8.422   3.577  11.181 -0.3662  1.0513 -0.2358
   57MOL0     H 7682   8.633   3.667  11.200 -0.7175 -1.3750  0.9405
   57MOL0     H 7683   8.907   3.648  10.820  0.3935  1.4700 -0.4594
   57MOL0     H 7684   9.007   3.727  10.924  1.3836  0.0763 -2.6954
   57MOL0     H 7685   8.772   3.861  10.778  1.2257 -1.2028 -3.3186
   57MOL0     H 7686   8.937   3.867  10.734 -1.9370  2.0437 -2.0854
   57MOL0     H 7687   8.989   3.993  10.966  0.1243 -0.7304  0.2516
   57MOL0     H 7688   8.820   3.961  11.009 -1.2898 -0.4582 -1.6392
   57MOL0     H 7689   8.905   4.132  10.773  0.6792 -4.3896 -1.2100
   57MOL0     H 7690   8.736   4.096  10.818 -1.0242 -0.0458  0.6059
   57MOL0     H 7691   8.859   4.384  11.101  2.4084 -0.7377 -0.9001
   57MOL0     H 7692   8.708   3.615  10.786 -0.1615 -1.7345  0.1648
   57MOL0     H 7693   8.377   3.513  10.685  1.4167  1.3113 -2.3740
   57MOL0     H 7694   8.548   3.540  10.642  0.0413 -2.3975 -0.9044
   57MOL0     H 7695   8.492   3.387  10.705  0.3883 -0.3729 -2.7764
   58MOL0     O 7696   0.373   3.071  10.383  0.2050 -0.4151 -0.2221
   58MOL0     C 7697   0.493   3.099  10.404 -0.8068  1.4553  0.0707
   58MOL0     O 7698   0.602   3.035  10.344 -0.3774  0.7167 -0.3061
   58MOL0     C 7699   0.578   2.905  10.311  0.0986 -0.2594 -0.3336
   58MOL0     C 7700   0.511   2.865  10.195 -0.3991  0.0812 -1.1966
   58MOL0     C 7701   0.475   2.733  10.176  0.1797  0.0112  0.5171
   58MOL0     C 7702   0.511   2.632  10.261  0.7511 -0.2373  0.4256
   58MOL0     O 7703   0.480   2.506  10.216  0.8578  0.2225  0.3233
   58MOL0     C 7704   0.512   2.388  10.295 -1.0041  0.1185 -0.0974
   58MOL0     C 7705   0.453   2.268  10.224 -0.4925  0.0602 -0.3383
   58MOL0     C 7706   0.466   2.268  10.073 -0.0123  0.3345 -0.0961
   58MOL0     C 7707   0.437   2.133  10.022  0.5460  0.2768  0.6712
   58MOL0     C 7708   0.461   2.115   9.871 -0.9678 -0.2044  0.1604
   58MOL0     C 7709   0.563   2.001   9.840  0.0758 -0.3443  0.4077
   58MOL0     C 7710   0.707   2.046   9.875  1.0223  0.3246  0.0424
   58MOL0     C 7711   0.819   1.967   9.798  0.6991 -1.0534  0.1965
   58MOL0     N 7712   0.883   1.861   9.870  0.7124  0.0423  0.2777
   58MOL0     C 7713   1.009   1.821   9.835 -0.8471 -0.1684 -0.7700
   58MOL0     C 7714   1.024   1.695   9.891  0.9936  0.6245  0.4589
   58MOL0     C 7715   1.152   1.616   9.877 -0.1064  0.5903 -0.9894
   58MOL0     C 7716   1.213   1.549  10.001 -0.3631 -0.3680 -0.1828
   58MOL0     C 7717   1.248   1.642  10.115  0.7815 -0.3719 -0.0510
   58MOL0     C 7718   1.342   1.753  10.099 -0.2983 -0.7341  0.8393
   58MOL0     O 7719   1.369   1.800  10.235  0.0117 -0.2959  0.2608
   58MOL0     C 7720   1.413   1.927  10.238  0.0453 -0.6475 -0.3305
   58MOL0     C 7721   1.550   1.930  10.228  0.6133 -0.4036  0.3897
   58MOL0     C 7722   1.616   2.049  10.251  0.0264 -0.4947 -0.2797
   58MOL0     C 7723   1.533   2.162  10.283 -0.1134 -0.3389 -0.0985
   58MOL0     C 7724   1.600   2.285  10.330 -0.5112 -0.0500  0.9625
   58MOL0     O 7725   1.739   2.282  10.348  0.6690  0.8220 -0.5119
   58MOL0     C 7726   1.792   2.406  10.355  0.8692  0.3680  0.5604
   58MOL0     C 7727   1.817   2.467  10.476  0.1815  0.0677 -0.2836
   58MOL0     C 7728   1.874   2.594  10.486  0.0113  0.0692  0.4714
   58MOL0     C 7729   1.907   2.661  10.371 -0.4961 -0.3533  0.0989
   58MOL0     O 7730   1.960   2.783  10.377 -1.0112 -0.2720  0.2182
   58MOL0     C 7731   1.899   2.884  10.295 -0.0812 -0.0535  0.5498
   58MOL0     C 7732   1.953   3.029  10.319 -0.3869  0.2633  1.7096
   58MOL0     C 7733   1.897   3.113  10.203 -0.1389  0.3109  0.6158
   58MOL0     C 7734   1.942   3.256  10.231  0.5082  0.0066  0.8867
   58MOL0     C 7735   1.880   3.354  10.128 -0.1819  0.9304 -0.2374
   58MOL0     C 7736   1.950   3.486  10.114 -1.2330 -1.0569 -0.0838
   58MOL0     C 7737   1.875   3.574  10.011 -0.4370  0.0811 -0.7229
   58MOL0     C 7738   1.934   3.712   9.994  0.8230 -0.4179 -0.3357
   58MOL0    Cl 7739   1.858   3.832  10.096  0.3035 -0.4449  0.1198
   58MOL0     C 7740   1.879   2.600  10.247  0.3821 -0.4174 -0.0015
   58MOL0     C 7741   1.828   2.469  10.237 -0.0405 -0.5717  0.7010
   58MOL0     O 7742   1.530   2.384  10.325  0.4370 -0.4920  0.7512
   58MOL0     C 7743   1.388   2.152  10.284  0.0293 -0.8852  0.9899
   58MOL0     C 7744   1.333   2.035  10.263  0.0184 -0.4134  0.5748
   58MOL0     N 7745   0.907   1.667   9.957  0.0818  0.1011 -0.8744
   58MOL0     N 7746   0.823   1.760   9.934  0.9094 -0.6521 -0.9913
   58MOL0     C 7747   0.597   2.666  10.372 -0.0306 -0.4167 -0.0160
   58MOL0     C 7748   0.613   2.804  10.400  0.0054  0.2592  0.3959
   58MOL0     C 7749   0.530   3.225  10.471 -0.7277 -0.4314 -0.8223
   58MOL0     C 7750   0.641   3.218  10.564 -0.8356  0.1721  0.8523
   58MOL0     C 7751   0.689   3.344  10.634 -0.4352  0.6729  0.8549
   58MOL0     C 7752   0.616   3.463  10.618  0.7186 -0.6650  0.1854
   58MOL0     O 7753   0.617   3.574  10.692 -0.3927 -0.7427  0.6934
   58MOL0     C 7754   0.739   3.614  10.755 -0.4814 -0.1503 -0.0226
   58MOL0     C 7755   0.716   3.753  10.805  0.1525  0.6405 -0.8121
   58MOL0     C 7756   0.833   3.816  10.891  0.1695  0.2350  0.2742
   58MOL0     C 7757   0.904   3.717  10.983  0.0268 -0.2195  0.9333
   58MOL0     C 7758   1.000   3.801  11.069  0.5857 -0.0709  0.7529
   58MOL0     C 7759   1.084   3.875  11.123  0.5126 -0.0718  0.7711
   58MOL0     C 7760   0.507   3.462  10.540  0.1601 -0.9440 -1.0751
   58MOL0     C 7761   0.465   3.350  10.464 -0.5136  0.2832 -0.7165
   58MOL0     C 7762   0.348   3.370  10.376 -0.2539  0.1918  0.1038
   58MOL0     H 7763   0.509   2.937  10.113  0.2838  0.3685 -0.9693
   58MOL0     H 7764   0.420   2.701  10.088  1.9627 -0.2084 -0.5660
   58MOL0     H 7765   0.620   2.385  10.309 -0.9559  0.4902 -0.3740
   58MOL0     H 7766   0.461   2.392  10.392  1.2242 -1.7083  1.2319
   58MOL0     H 7767   0.350   2.266  10.260 -0.7440  4.9314 -0.0980
   58MOL0     H 7768   0.525   2.190  10.251  1.2734  1.2663 -1.3513
   58MOL0     H 7769   0.568   2.289  10.037 -0.1415  3.3075  1.0251
   58MOL0     H 7770   0.400   2.339  10.022  1.2931 -0.5129 -3.1872
   58MOL0     H 7771   0.506   2.067  10.075 -0.5455 -1.4961 -0.0327
   58MOL0     H 7772   0.337   2.102  10.053 -0.0868  0.5406 -1.0062
   58MOL0     H 7773   0.367   2.079   9.828 -0.0359 -1.2738 -1.0636
   58MOL0     H 7774   0.496   2.209   9.829 -1.1472  0.3408  1.1845
   58MOL0     H 7775   0.549   1.919   9.911  1.6891  0.1063  1.3060
   58MOL0     H 7776   0.553   1.970   9.736 -3.1131 -0.7967  0.7680
   58MOL0     H 7777   0.715   2.016   9.980 -1.8896 -2.3316 -0.3386
   58MOL0     H 7778   0.718   2.153   9.856 -1.6234  1.0062  1.7427
   58MOL0     H 7779   0.777   1.923   9.707 -3.5603 -0.7768  1.8165
   58MOL0     H 7780   0.903   2.035   9.779 -0.0381  0.2821  1.5537
   58MOL0     H 7781   1.077   1.868   9.764  0.5727  0.8601  1.1782
   58MOL0     H 7782   1.127   1.538   9.804 -1.4401  2.1248 -2.2471
   58MOL0     H 7783   1.237   1.676   9.843  1.8581 -0.5950  1.4779
   58MOL0     H 7784   1.137   1.481  10.039 -0.0938 -0.3625  0.3665
   58MOL0     H 7785   1.301   1.499   9.959 -0.7548  0.6638 -2.4077
   58MOL0     H 7786   1.278   1.580  10.199 -2.5769  1.2286  2.5876
   58MOL0     H 7787   1.162   1.701  10.148  1.7034  1.5996 -0.9926
   58MOL0     H 7788   1.312   1.831  10.029  2.8196 -0.1670 -0.0192
   58MOL0     H 7789   1.434   1.708  10.061 -0.1934 -0.9201  1.3036
   58MOL0     H 7790   1.615   1.843  10.227  3.7979  1.7236  2.3968
   58MOL0     H 7791   1.720   2.061  10.276 -0.5418 -0.0009  2.1091
   58MOL0     H 7792   1.800   2.412  10.568 -0.1018 -2.9397 -1.9909
   58MOL0     H 7793   1.903   2.640  10.580 -2.2089  2.2001  0.2290
   58MOL0     H 7794   1.907   2.869  10.187  0.3606  4.4941 -0.2708
   58MOL0     H 7795   1.792   2.876  10.315 -0.7854  1.0355 -2.3113
   58MOL0     H 7796   1.918   3.078  10.410 -1.2655  1.9793  0.5058
   58MOL0     H 7797   2.062   3.019  10.316 -0.4320 -0.2771 -1.0892
   58MOL0     H 7798   1.956   3.083  10.117 -1.6053 -0.5875 -0.1058
   58MOL0     H 7799   1.790   3.102  10.187 -0.3612 -2.6137  3.1042
   58MOL0     H 7800   2.051   3.251  10.227  0.5857 -1.1747  3.2070
   58MOL0     H 7801   1.913   3.282  10.333 -0.0913 -2.0173  1.2738
   58MOL0     H 7802   1.780   3.374  10.167 -0.0732  1.8037 -0.4040
   58MOL0     H 7803   1.873   3.307  10.029  2.5677 -1.2058  0.4598
   58MOL0     H 7804   1.966   3.546  10.205  1.1902  1.4885 -1.9993
   58MOL0     H 7805   2.052   3.463  10.082  0.0218  0.6554  2.2812
   58MOL0     H 7806   1.782   3.569  10.068  2.1541  0.0601  3.9798
   58MOL0     H 7807   1.865   3.523   9.915  2.7962 -0.2981 -0.9550
   58MOL0     H 7808   2.042   3.718  10.013  0.7320  2.5722 -0.2903
   58MOL0     H 7809   1.929   3.745   9.890  0.6691  2.2621  0.4500
   58MOL0     H 7810   1.914   2.639  10.152  1.7084 -3.3182 -0.8267
   58MOL0     H 7811   1.787   2.417  10.151  0.0003  1.5172 -0.6572
   58MOL0     H 7812   1.326   2.237  10.312  0.9375  0.4951 -0.9341
   58MOL0     H 7813   1.226   2.019  10.265  0.2595 -2.0893  1.8916
   58MOL0     H 7814   0.600   2.592  10.451 -1.7656 -1.1222 -0.5642
   58MOL0     H 7815   0.649   2.831  10.498  0.0940  0.7574  0.2298
   58MOL0     H 7816   0.692   3.122  10.572 -0.3716  0.4722  1.7227
   58MOL0     H 7817   0.774   3.345  10.701 -0.9652 -0.1169  1.5515
   58MOL0     H 7818   0.817   3.621  10.680 -2.2294 -0.1541 -1.9297
   58MOL0     H 7819   0.756   3.544  10.837 -5.1027  0.5805  1.8838
   58MOL0     H 7820   0.626   3.753  10.866  1.1182  1.3107  0.6829
   58MOL0     H 7821   0.687   3.819  10.722  0.3960  1.3002 -0.3856
   58MOL0     H 7822   0.787   3.897  10.948 -2.5069 -0.8333 -0.2089
   58MOL0     H 7823   0.913   3.860  10.830 -0.4479  0.9221 -0.0625
   58MOL0     H 7824   0.823   3.674  11.043 -0.1628 -2.6073 -0.8708
   58MOL0     H 7825   0.958   3.640  10.928 -0.6453  0.0616 -0.1578
   58MOL0     H 7826   1.159   3.931  11.175  0.3915 -0.7418  1.7122
   58MOL0     H 7827   0.435   3.543  10.547  1.3072  0.1571 -1.6565
   58MOL0     H 7828   0.348   3.317  10.281  0.7693  1.8366 -0.8633
   58MOL0     H 7829   0.261   3.331  10.430 -0.5834 -2.6317 -2.2129
   58MOL0     H 7830   0.322   3.472  10.345  2.8660  0.3150 -2.6226
   59MOL0     O 7831   3.119   1.494   3.759  0.3964 -0.8587  0.0204
   59MOL0     C 7832   3.119   1.586   3.674 -0.4831 -0.1560  0.4099
   59MOL0     O 7833   3.101   1.716   3.704 -0.4909  0.3738  0.0071
   59MOL0     C 7834   3.040   1.737   3.826  0.5516  0.4956 -0.1152
   59MOL0     C 7835   2.922   1.676   3.867  0.5851 -0.2215  0.9141
   59MOL0     C 7836   2.859   1.710   3.988  0.5970 -0.3440  0.4361
   59MOL0     C 7837   2.920   1.799   4.070  0.1185  0.2204 -0.0591
   59MOL0     O 7838   2.874   1.840   4.187  0.0828  0.1778 -0.0708
   59MOL0     C 7839   2.738   1.808   4.223 -0.1155  0.0969 -0.6691
   59MOL0     C 7840   2.647   1.896   4.138 -0.1881  0.3407  0.3841
   59MOL0     C 7841   2.500   1.903   4.194  0.2870  0.7037 -0.0314
   59MOL0     C 7842   2.495   1.972   4.336  0.0004  0.1894 -0.2734
   59MOL0     C 7843   2.363   1.949   4.418  0.1040  0.0526 -0.5517
   59MOL0     C 7844   2.360   2.033   4.553 -0.8944  0.2504 -0.5788
   59MOL0     C 7845   2.235   2.018   4.641 -0.3196  0.0289 -0.1300
   59MOL0     C 7846   2.190   1.878   4.683  0.0010  0.7518 -0.2028
   59MOL0     N 7847   2.043   1.871   4.717 -0.4206  0.2999  0.1589
   59MOL0     C 7848   1.999   1.815   4.835  0.0780 -0.9309 -0.2183
   59MOL0     C 7849   1.867   1.808   4.819 -0.5480  0.5327  0.9211
   59MOL0     C 7850   1.768   1.746   4.913  0.2329  0.3365 -0.1802
   59MOL0     C 7851   1.746   1.836   5.026  0.5570  0.4047  0.5946
   59MOL0     C 7852   1.604   1.830   5.081  0.6997 -0.1092  0.1876
   59MOL0     C 7853   1.557   1.959   5.145  0.3656  1.2358  0.3182
   59MOL0     O 7854   1.669   2.010   5.214 -0.2746 -0.2259  0.8254
   59MOL0     C 7855   1.639   2.131   5.272 -0.3007 -0.4617 -0.6757
   59MOL0     C 7856   1.622   2.145   5.410 -1.2874  0.5520 -0.7121
   59MOL0     C 7857   1.602   2.266   5.466 -0.6038 -0.7058 -0.4748
   59MOL0     C 7858   1.577   2.381   5.387 -0.8013 -0.1824 -0.5539
   59MOL0     C 7859   1.542   2.510   5.456  0.5538 -0.2746 -0.0870
   59MOL0     O 7860   1.515   2.506   5.583  0.1178  0.2367 -0.1672
   59MOL0     C 7861   1.460   2.622   5.640 -0.0495  0.3447 -0.0013
   59MOL0     C 7862   1.322   2.651   5.633 -0.9204  0.5775 -0.5202
   59MOL0     C 7863   1.273   2.769   5.678  1.1185 -0.3493 -0.0032
   59MOL0     C 7864   1.348   2.855   5.742 -0.1567  0.1307  0.8719
   59MOL0     O 7865   1.301   2.967   5.798 -0.7037 -0.2925 -0.7176
   59MOL0     C 7866   1.218   2.949   5.915 -1.0969  0.7022 -0.0757
   59MOL0     C 7867   1.085   3.023   5.910  0.0547 -0.4593 -0.4098
   59MOL0     C 7868   1.096   3.163   5.846  0.8514  0.4363 -0.3643
   59MOL0     C 7869   0.975   3.249   5.883  1.0709 -0.9413  0.1157
   59MOL0     C 7870   0.981   3.388   5.833  0.2715 -0.1379  0.2302
   59MOL0     C 7871   0.853   3.476   5.861  0.3700  0.1294  0.6570
   59MOL0     C 7872   0.870   3.635   5.833  0.8757 -0.3768  0.6162
   59MOL0     C 7873   0.746   3.703   5.895  0.0079 -0.0088  0.2974
   59MOL0    Cl 7874   0.589   3.639   5.848 -0.4128 -0.1347 -0.2694
   59MOL0     C 7875   1.490   2.832   5.765 -0.1435  0.4122  0.1307
   59MOL0     C 7876   1.547   2.709   5.708  0.0961  0.0892 -0.6070
   59MOL0     O 7877   1.556   2.615   5.386  1.0324  0.4146 -0.6698
   59MOL0     C 7878   1.599   2.371   5.243 -0.0286  0.3135 -0.5649
   59MOL0     C 7879   1.647   2.249   5.197  0.4897  0.8474  0.2417
   59MOL0     N 7880   1.833   1.867   4.698  0.5756 -0.3349  0.0655
   59MOL0     N 7881   1.938   1.907   4.633 -0.2025  0.0132 -0.3452
   59MOL0     C 7882   3.037   1.858   4.039 -0.6161  0.1768  0.0553
   59MOL0     C 7883   3.097   1.830   3.917 -0.9427  0.4525 -0.0578
   59MOL0     C 7884   3.139   1.563   3.532 -0.1000  0.6708  0.1090
   59MOL0     C 7885   3.220   1.654   3.456 -0.0698 -0.1514 -0.3060
   59MOL0     C 7886   3.232   1.641   3.321  0.3523  0.5672  0.0446
   59MOL0     C 7887   3.173   1.540   3.244  0.0570 -0.0289 -0.0983
   59MOL0     O 7888   3.181   1.544   3.101  0.2124  0.6578 -0.2339
   59MOL0     C 7889   3.232   1.412   3.061 -0.5597 -0.6138 -0.2168
   59MOL0     C 7890   3.296   1.416   2.923  0.0956  0.2572  0.2015
   59MOL0     C 7891   3.215   1.493   2.819 -0.3090  0.5737  0.9845
   59MOL0     C 7892   3.271   1.487   2.676 -0.5580 -0.2287  0.7235
   59MOL0     C 7893   3.270   1.350   2.610  0.4395 -0.6427  0.1463
   59MOL0     C 7894   3.286   1.241   2.565 -0.4988  0.4534  0.1805
   59MOL0     C 7895   3.094   1.444   3.314 -0.0772  1.1007 -0.8722
   59MOL0     C 7896   3.074   1.456   3.449  0.2947  0.1366 -0.1104
   59MOL0     C 7897   2.991   1.341   3.509  0.3670  0.3134 -0.0436
   59MOL0     H 7898   2.853   1.620   3.804 -2.6857  1.0615  3.0845
   59MOL0     H 7899   2.761   1.672   4.015  1.2977 -0.9042  2.3192
   59MOL0     H 7900   2.709   1.703   4.208  0.3832 -0.4590  1.6894
   59MOL0     H 7901   2.724   1.802   4.332 -2.1232 -1.7755 -0.9632
   59MOL0     H 7902   2.642   1.873   4.031 -1.8172  0.2200  0.4644
   59MOL0     H 7903   2.685   1.997   4.156  3.1837 -0.9679  1.4253
   59MOL0     H 7904   2.448   1.811   4.222 -0.8662  2.1657  3.1506
   59MOL0     H 7905   2.439   1.965   4.128 -0.7837  3.3084  3.1217
   59MOL0     H 7906   2.580   1.945   4.401 -2.3769  1.0772  3.5494
   59MOL0     H 7907   2.512   2.077   4.310 -2.6086  0.5149 -0.8630
   59MOL0     H 7908   2.273   1.977   4.363 -0.2670  0.7563  0.3901
   59MOL0     H 7909   2.352   1.842   4.438  3.8178 -0.3187  0.3669
   59MOL0     H 7910   2.441   1.999   4.618 -2.1977  3.6993  3.2193
   59MOL0     H 7911   2.379   2.137   4.526 -0.9800 -0.1755 -2.4875
   59MOL0     H 7912   2.158   2.069   4.584  0.7758 -0.8835 -2.5360
   59MOL0     H 7913   2.234   2.074   4.735 -0.2817 -1.4122  0.7657
   59MOL0     H 7914   2.212   1.795   4.616  3.5139  0.9531  0.5245
   59MOL0     H 7915   2.248   1.857   4.774 -0.9962  2.8909  1.0102
   59MOL0     H 7916   2.054   1.787   4.924 -2.7068  0.4580  2.0935
   59MOL0     H 7917   1.680   1.725   4.851  1.9932  1.2379 -3.2387
   59MOL0     H 7918   1.806   1.649   4.945  0.5066  0.3384 -0.4931
   59MOL0     H 7919   1.815   1.808   5.106 -1.0739  0.5851  2.1313
   59MOL0     H 7920   1.756   1.938   4.988  2.7384 -0.0288 -0.1591
   59MOL0     H 7921   1.606   1.760   5.165  4.4766  0.4362  0.7333
   59MOL0     H 7922   1.538   1.798   5.000  1.2645  3.2733 -1.8132
   59MOL0     H 7923   1.481   1.940   5.221  2.2042 -2.8821  1.3934
   59MOL0     H 7924   1.518   2.037   5.078  0.2297  2.4345  1.7464
   59MOL0     H 7925   1.625   2.052   5.466 -1.6731 -2.6524 -5.4283
   59MOL0     H 7926   1.583   2.276   5.573 -2.0859  0.4108 -0.8022
   59MOL0     H 7927   1.254   2.584   5.582  0.3032 -2.1338  1.1586
   59MOL0     H 7928   1.170   2.797   5.657  1.2501  1.9066  1.9199
   59MOL0     H 7929   1.203   2.844   5.940  1.0234  0.1237 -1.0293
   59MOL0     H 7930   1.270   2.992   6.001  1.2965 -0.0665 -1.0638
   59MOL0     H 7931   1.021   2.968   5.840  0.0255 -0.5659 -0.2983
   59MOL0     H 7932   1.029   3.020   6.004 -3.7760 -2.0138 -2.5318
   59MOL0     H 7933   1.193   3.207   5.871  1.7890  0.6117 -3.7763
   59MOL0     H 7934   1.096   3.158   5.737  0.3602 -0.7413 -0.3301
   59MOL0     H 7935   0.958   3.246   5.991 -2.6917 -2.7452 -0.3669
   59MOL0     H 7936   0.882   3.206   5.844  1.2372 -3.0708  1.8938
   59MOL0     H 7937   1.015   3.389   5.729  1.7764 -2.4943  0.6226
   59MOL0     H 7938   1.059   3.440   5.890  0.6785 -1.1962  0.6651
   59MOL0     H 7939   0.761   3.444   5.809  0.8131 -0.7278  0.3731
   59MOL0     H 7940   0.836   3.462   5.968  0.3308 -3.1373  0.3368
   59MOL0     H 7941   0.873   3.656   5.726 -2.9552  2.4982  0.8633
   59MOL0     H 7942   0.962   3.664   5.885 -2.3921  3.5707  5.0464
   59MOL0     H 7943   0.758   3.710   6.004 -0.2549  1.4122  0.2560
   59MOL0     H 7944   0.743   3.807   5.860 -1.1197 -0.6458 -1.6304
   59MOL0     H 7945   1.551   2.914   5.802  2.4302 -0.3005 -2.2192
   59MOL0     H 7946   1.651   2.680   5.714  0.6884  2.0576 -0.8729
   59MOL0     H 7947   1.609   2.457   5.177  3.6321 -0.4136 -1.1561
   59MOL0     H 7948   1.662   2.250   5.090  0.8581  3.5192  0.2627
   59MOL0     H 7949   3.078   1.933   4.106 -1.6223  0.8757 -0.0936
   59MOL0     H 7950   3.185   1.887   3.889 -1.1548  1.0214  0.4183
   59MOL0     H 7951   3.261   1.738   3.510 -0.8717 -1.0966  1.8980
   59MOL0     H 7952   3.271   1.728   3.269  2.7556  0.2851  1.2312
   59MOL0     H 7953   3.132   1.367   3.060 -1.4450  1.1722  1.1320
   59MOL0     H 7954   3.300   1.365   3.132  0.9479  1.9462  0.1541
   59MOL0     H 7955   3.306   1.317   2.878  2.5389  1.1537 -1.4469
   59MOL0     H 7956   3.399   1.453   2.932  0.6963 -1.3736  0.3507
   59MOL0     H 7957   3.210   1.597   2.855  1.0480  1.1269 -0.3299
   59MOL0     H 7958   3.112   1.455   2.824 -0.3292  0.5582  0.4482
   59MOL0     H 7959   3.205   1.551   2.617  0.0453 -2.3918 -2.5351
   59MOL0     H 7960   3.374   1.523   2.669  0.0667 -1.8711  1.1131
   59MOL0     H 7961   3.307   1.143   2.527  0.1376  0.2292  1.0657
   59MOL0     H 7962   3.050   1.360   3.260  1.6537 -0.0406 -0.5823
   59MOL0     H 7963   3.040   1.293   3.594  0.0554 -0.2406 -0.1752
   59MOL0     H 7964   2.885   1.367   3.522 -0.4639 -2.1246 -1.2491
   59MOL0     H 7965   2.986   1.257   3.439 -0.5536 -2.4743  3.0791
   60MOL0     O 7966  11.128   2.984   6.460  0.7706 -0.0335 -0.8617
   60MOL0     C 7967  11.023   3.036   6.498 -0.5191 -0.9598 -0.1413
   60MOL0     O 7968  10.973   3.055   6.626 -0.7872 -0.0857  0.5613
   60MOL0     C 7969  11.047   3.009   6.728 -0.6083 -0.0290 -0.5209
   60MOL0     C 7970  11.187   3.028   6.752  0.4988 -1.3162 -0.2207
   60MOL0     C 7971  11.245   2.983   6.874 -0.5186 -0.9423 -0.2547
   60MOL0     C 7972  11.169   2.916   6.966  0.2775  0.8803 -0.2420
   60MOL0     O 7973  11.211   2.845   7.079  0.5337  0.9559  0.4166
   60MOL0     C 7974  11.326   2.903   7.144  1.2018 -0.6670 -0.5321
   60MOL0     C 7975  11.296   2.884   7.292  0.9244 -0.6558 -0.1710
   60MOL0     C 7976  11.421   2.901   7.375 -0.5698 -0.1498 -0.3096
   60MOL0     C 7977  11.385   2.993   7.481 -0.2965  0.3860 -0.2638
   60MOL0     C 7978  11.486   2.991   7.599 -0.1904 -0.0026 -0.1639
   60MOL0     C 7979  11.435   3.098   7.693 -0.2349 -0.3874  0.3506
   60MOL0     C 7980  11.527   3.121   7.817 -0.5924  0.5009 -0.6920
   60MOL0     C 7981  11.519   3.014   7.929 -0.6645  0.2410  0.0611
   60MOL0     N 7982  11.403   3.042   8.015 -0.7688 -1.0421 -0.4685
   60MOL0     C 7983  11.290   2.972   8.018 -0.2126 -0.2240  0.2974
   60MOL0     C 7984  11.247   2.976   8.147 -0.2439 -0.5269 -1.4000
   60MOL0     C 7985  11.107   2.928   8.209 -0.7218  1.3411 -0.4323
   60MOL0     C 7986  11.025   3.040   8.272  0.2338  0.0540  0.3680
   60MOL0     C 7987  11.017   3.183   8.206 -0.2149  0.8755  0.0907
   60MOL0     C 7988  10.927   3.158   8.080 -0.1177  0.4580 -0.6279
   60MOL0     O 7989  10.793   3.122   8.117  0.4320  0.6468  0.1513
   60MOL0     C 7990  10.698   3.226   8.130  0.5878  0.2146  0.4935
   60MOL0     C 7991  10.564   3.191   8.125 -0.8233  0.1414 -0.2870
   60MOL0     C 7992  10.465   3.288   8.155  0.1224 -0.3113 -0.4026
   60MOL0     C 7993  10.502   3.423   8.182  0.4974  0.8081  0.0412
   60MOL0     C 7994  10.389   3.514   8.229 -0.1737  0.2115  0.0548
   60MOL0     O 7995  10.257   3.475   8.216  0.5798 -0.7853 -0.9372
   60MOL0     C 7996  10.168   3.580   8.231  0.0050 -0.5030 -0.0472
   60MOL0     C 7997  10.154   3.690   8.146 -0.0045 -0.3212 -0.1545
   60MOL0     C 7998  10.047   3.770   8.161 -0.4792 -0.3230 -0.3482
   60MOL0     C 7999   9.953   3.761   8.265 -0.4594  0.1743 -0.8243
   60MOL0     O 8000   9.850   3.848   8.284 -0.1845  0.6188 -0.0791
   60MOL0     C 8001   9.844   3.979   8.230 -0.1354 -0.5374 -0.3063
   60MOL0     C 8002   9.917   4.067   8.332  1.0337 -0.0645 -0.7267
   60MOL0     C 8003   9.827   4.109   8.449  0.5519 -0.1720 -0.1118
   60MOL0     C 8004   9.914   4.219   8.510  1.0928 -0.1493  0.0174
   60MOL0     C 8005   9.842   4.296   8.626 -0.7640  0.5041 -0.4101
   60MOL0     C 8006   9.872   4.220   8.762 -0.2576 -0.9231 -1.2510
   60MOL0     C 8007   9.790   4.282   8.873 -0.4291  0.3955 -0.2512
   60MOL0     C 8008   9.826   4.215   9.009  0.2030 -1.7331 -1.0184
   60MOL0    Cl 8009   9.790   4.344   9.129 -0.4439 -0.0350 -0.6486
   60MOL0     C 8010   9.962   3.638   8.347 -0.7351  0.2766 -0.1687
   60MOL0     C 8011  10.063   3.549   8.320  0.0459  0.8233 -0.6192
   60MOL0     O 8012  10.430   3.622   8.270  0.3202  0.5706  0.7404
   60MOL0     C 8013  10.636   3.458   8.188  0.1955 -0.0229  0.1937
   60MOL0     C 8014  10.730   3.354   8.171 -0.0237 -1.0085  0.6201
   60MOL0     N 8015  11.337   3.050   8.222 -0.1496 -0.6371 -0.8134
   60MOL0     N 8016  11.435   3.086   8.145 -0.2749  0.2046 -0.0901
   60MOL0     C 8017  11.032   2.896   6.940  0.3161 -0.0393  0.4829
   60MOL0     C 8018  10.974   2.935   6.828 -0.2138 -0.6980  0.3500
   60MOL0     C 8019  10.919   3.060   6.396 -0.8662  0.0574 -0.3619
   60MOL0     C 8020  10.830   2.960   6.368 -0.1291  0.1585 -0.0164
   60MOL0     C 8021  10.750   2.955   6.260  0.5257  0.5873 -0.1504
   60MOL0     C 8022  10.742   3.065   6.186  0.6833  0.4575  0.0454
   60MOL0     O 8023  10.654   3.050   6.076  0.4297 -0.0657  0.1569
   60MOL0     C 8024  10.664   3.140   5.964 -0.6720 -0.1986 -1.1626
   60MOL0     C 8025  10.602   3.079   5.852  0.9017 -0.1863  0.4350
   60MOL0     C 8026  10.603   3.169   5.728 -0.1720  0.7064  0.6309
   60MOL0     C 8027  10.536   3.113   5.599  0.1475 -0.3616 -0.4066
   60MOL0     C 8028  10.395   3.076   5.603  0.2041  0.6834  0.3120
   60MOL0     C 8029  10.290   3.018   5.606  0.1273  0.4897  0.9420
   60MOL0     C 8030  10.817   3.183   6.214 -0.2548 -0.0441 -0.5301
   60MOL0     C 8031  10.913   3.172   6.320  0.6117 -0.1070  0.8266
   60MOL0     C 8032  11.001   3.293   6.356 -0.5257 -0.3761 -0.4352
   60MOL0     H 8033  11.253   3.081   6.684  0.4413 -0.3106  0.4795
   60MOL0     H 8034  11.353   2.984   6.886 -0.3227 -0.6987 -1.8917
   60MOL0     H 8035  11.412   2.844   7.111  1.2502 -0.3930 -0.8893
   60MOL0     H 8036  11.340   3.008   7.119 -3.0619  0.5039  1.1225
   60MOL0     H 8037  11.247   2.793   7.329  0.3924  0.6412  2.6131
   60MOL0     H 8038  11.221   2.961   7.311  0.2095 -1.0203 -1.4266
   60MOL0     H 8039  11.509   2.939   7.324  2.5560 -0.9101  3.9705
   60MOL0     H 8040  11.443   2.798   7.403 -2.1474 -0.7704 -1.1961
   60MOL0     H 8041  11.370   3.086   7.426 -1.2088 -1.3148 -3.0793
   60MOL0     H 8042  11.286   2.974   7.524  1.1668 -2.8561  2.1243
   60MOL0     H 8043  11.503   2.897   7.652 -0.7050  0.3945  0.7228
   60MOL0     H 8044  11.584   3.017   7.557  0.5421 -0.4806  1.1770
   60MOL0     H 8045  11.414   3.195   7.647 -2.0597 -0.8161  0.2103
   60MOL0     H 8046  11.339   3.074   7.738 -0.9584  0.6271 -0.5904
   60MOL0     H 8047  11.488   3.210   7.866 -2.6635 -0.6901 -0.0299
   60MOL0     H 8048  11.628   3.149   7.788 -0.1772  2.0637  1.9498
   60MOL0     H 8049  11.518   2.912   7.889 -1.3170 -0.4814  1.8185
   60MOL0     H 8050  11.615   3.026   7.981  0.9909 -3.6331 -1.6743
   60MOL0     H 8051  11.264   2.923   7.924  0.0925  1.5663 -0.7602
   60MOL0     H 8052  11.052   2.870   8.135  2.3140 -0.6548 -1.3433
   60MOL0     H 8053  11.135   2.857   8.288 -2.3161 -0.2487 -1.2267
   60MOL0     H 8054  10.923   3.003   8.286 -0.6857  2.2733 -0.0986
   60MOL0     H 8055  11.075   3.049   8.369 -1.1851 -1.9361  1.3633
   60MOL0     H 8056  11.121   3.208   8.183 -0.0521  0.9556  0.8925
   60MOL0     H 8057  10.975   3.248   8.282 -2.0996  1.3003 -1.2314
   60MOL0     H 8058  10.974   3.087   8.011  2.4088  1.2529  0.1590
   60MOL0     H 8059  10.920   3.254   8.028 -3.6305  0.1369 -0.9640
   60MOL0     H 8060  10.533   3.088   8.110  0.2857 -0.5257  1.5557
   60MOL0     H 8061  10.360   3.260   8.158 -0.2096  0.9851  1.9920
   60MOL0     H 8062  10.224   3.692   8.062 -0.6336 -0.2289 -0.6823
   60MOL0     H 8063  10.027   3.857   8.099 -2.1992 -1.9011 -2.1667
   60MOL0     H 8064   9.881   3.985   8.128 -1.1980 -3.7814 -0.9867
   60MOL0     H 8065   9.738   4.004   8.234 -0.0764 -0.3932  0.9816
   60MOL0     H 8066  10.004   4.020   8.379 -0.7305 -1.7475  1.0876
   60MOL0     H 8067   9.942   4.151   8.267  0.9538  0.6592  0.1389
   60MOL0     H 8068   9.729   4.150   8.422  0.1965  0.0519  1.4593
   60MOL0     H 8069   9.801   4.019   8.505  0.3213 -1.8454 -2.7033
   60MOL0     H 8070   9.939   4.296   8.436  5.6991  1.9577  3.2674
   60MOL0     H 8071  10.016   4.195   8.541  1.7654  0.2311 -1.7501
   60MOL0     H 8072   9.734   4.299   8.609 -0.8547  0.1387  0.0863
   60MOL0     H 8073   9.884   4.395   8.644 -1.8893  0.7505  1.0226
   60MOL0     H 8074   9.860   4.111   8.758  2.7786 -1.3222 -3.1341
   60MOL0     H 8075   9.979   4.233   8.783 -0.2572 -0.3468 -1.6104
   60MOL0     H 8076   9.681   4.274   8.874 -0.2922 -2.0874  1.0298
   60MOL0     H 8077   9.818   4.388   8.869  2.3421 -0.2955 -1.0832
   60MOL0     H 8078   9.762   4.128   9.024 -0.1216 -1.4497 -0.7155
   60MOL0     H 8079   9.927   4.174   9.011 -0.2720 -2.9414 -0.4065
   60MOL0     H 8080   9.890   3.602   8.420  1.0913  0.2324  1.6975
   60MOL0     H 8081  10.073   3.458   8.377  2.3000  1.9963  0.9987
   60MOL0     H 8082  10.658   3.561   8.216 -0.6948 -1.1463  6.6159
   60MOL0     H 8083  10.830   3.387   8.145 -1.4723  3.0302 -0.4504
   60MOL0     H 8084  10.968   2.839   7.007 -0.9423 -2.3722 -2.4204
   60MOL0     H 8085  10.868   2.912   6.821 -0.0855 -1.0380 -0.6380
   60MOL0     H 8086  10.825   2.871   6.431  1.3947 -0.6502 -0.9767
   60MOL0     H 8087  10.692   2.867   6.232  2.5332 -0.6732 -0.5916
   60MOL0     H 8088  10.768   3.153   5.931  0.1811 -0.2574  1.2752
   60MOL0     H 8089  10.614   3.234   5.986  1.2269 -0.2357  5.0808
   60MOL0     H 8090  10.496   3.068   5.880  0.4773  3.2272  0.5055
   60MOL0     H 8091  10.643   2.978   5.841 -3.9665 -2.8615  3.3544
   60MOL0     H 8092  10.710   3.176   5.708 -0.2934  2.5432  0.5138
   60MOL0     H 8093  10.560   3.269   5.737  2.0052  1.9826 -1.8624
   60MOL0     H 8094  10.548   3.191   5.524  0.5997 -0.7557 -0.7492
   60MOL0     H 8095  10.592   3.023   5.570  0.1470 -1.2401  2.0306
   60MOL0     H 8096  10.197   2.964   5.608 -0.3005  1.1711  0.1741
   60MOL0     H 8097  10.817   3.272   6.153  4.0887 -0.7687 -1.8747
   60MOL0     H 8098  10.945   3.386   6.361 -2.1260 -1.2677 -1.0360
   60MOL0     H 8099  11.051   3.281   6.452  0.4259 -0.0795 -0.8784
   60MOL0     H 8100  11.077   3.309   6.279  2.4483  0.2679  2.4197
   61MOL0     O 8101   8.516   3.052   6.143  0.5806 -0.2943 -0.0680
   61MOL0     C 8102   8.514   3.158   6.080 -0.2954  0.5159 -0.6071
   61MOL0     O 8103   8.611   3.253   6.104  0.5766 -0.0783  0.2316
   61MOL0     C 8104   8.681   3.256   6.222  1.0367  0.1484  0.1546
   61MOL0     C 8105   8.806   3.203   6.226 -0.7176  0.7843 -0.0109
   61MOL0     C 8106   8.891   3.219   6.333 -0.5363 -0.9849 -0.0764
   61MOL0     C 8107   8.842   3.272   6.447  0.2273 -0.8843 -0.1276
   61MOL0     O 8108   8.935   3.292   6.547 -0.2945 -0.0195  0.5518
   61MOL0     C 8109   8.886   3.326   6.685 -0.8259  0.5900 -0.0288
   61MOL0     C 8110   8.862   3.473   6.717 -0.3190  0.6403  0.1211
   61MOL0     C 8111   8.982   3.536   6.766 -0.5926 -0.4854 -0.2449
   61MOL0     C 8112   8.987   3.690   6.741  0.1782 -0.6023 -0.1516
   61MOL0     C 8113   9.112   3.745   6.814 -0.5395 -0.0257 -0.7086
   61MOL0     C 8114   9.118   3.883   6.781  0.3350 -1.2612  0.3278
   61MOL0     C 8115   9.247   3.950   6.839  0.0457 -0.3960  0.3375
   61MOL0     C 8116   9.235   4.103   6.864  0.5373  0.4948 -0.2923
   61MOL0     N 8117   9.362   4.182   6.851  1.0975 -0.3305  0.5773
   61MOL0     C 8118   9.396   4.273   6.938  0.4924  0.2972 -0.3695
   61MOL0     C 8119   9.498   4.338   6.879 -0.0895 -0.4244  0.2121
   61MOL0     C 8120   9.550   4.463   6.943  1.3040 -0.8381 -0.0395
   61MOL0     C 8121   9.521   4.575   6.842 -0.4962 -1.8648  0.2154
   61MOL0     C 8122   9.575   4.708   6.895  0.4302  0.3712  0.9374
   61MOL0     C 8123   9.484   4.796   6.975 -0.5697 -0.2865  0.0727
   61MOL0     O 8124   9.531   4.932   6.986  0.1920  0.0359 -0.2397
   61MOL0     C 8125   9.473   5.015   7.076  0.7556  0.1096  0.2538
   61MOL0     C 8126   9.509   5.148   7.070  0.8197  0.5253  0.6260
   61MOL0     C 8127   9.448   5.248   7.148  0.3552  0.2644 -0.6604
   61MOL0     C 8128   9.340   5.210   7.237 -0.1881  0.5296 -0.8960
   61MOL0     C 8129   9.251   5.306   7.313  0.0499  0.1658 -0.5869
   61MOL0     O 8130   9.262   5.434   7.261 -0.2226  0.6358 -0.2303
   61MOL0     C 8131   9.180   5.534   7.307  0.3933  0.1182  0.6747
   61MOL0     C 8132   9.229   5.611   7.413 -0.6111  0.5165  0.0661
   61MOL0     C 8133   9.156   5.719   7.456 -0.1188 -0.4115  0.0473
   61MOL0     C 8134   9.030   5.747   7.409  0.3602 -0.8015  0.9328
   61MOL0     O 8135   8.963   5.832   7.491  0.5946 -0.6507 -0.4807
   61MOL0     C 8136   8.824   5.804   7.509 -0.4312 -0.3952  0.1868
   61MOL0     C 8137   8.757   5.922   7.587 -0.6467  0.3246  0.5172
   61MOL0     C 8138   8.827   5.954   7.715 -0.1855 -0.0143 -1.1499
   61MOL0     C 8139   8.746   6.038   7.805 -0.5771 -0.4587  0.3558
   61MOL0     C 8140   8.678   5.979   7.921  0.3995 -0.3675  0.7395
   61MOL0     C 8141   8.792   5.947   8.024  0.1184  1.1551  0.5177
   61MOL0     C 8142   8.818   6.051   8.127 -0.5296  0.2898 -0.3210
   61MOL0     C 8143   8.944   6.043   8.205 -0.3141  0.1047 -0.5077
   61MOL0    Cl 8144   8.947   6.150   8.343  0.0837 -0.3318 -0.3977
   61MOL0     C 8145   8.986   5.675   7.290 -0.4561 -0.3000 -0.9212
   61MOL0     C 8146   9.057   5.565   7.250 -0.1484  0.1472 -0.7159
   61MOL0     O 8147   9.167   5.264   7.399  0.1540  0.3896  0.5887
   61MOL0     C 8148   9.317   5.075   7.252 -0.8452  0.0928 -0.6423
   61MOL0     C 8149   9.371   4.977   7.163  0.0667 -0.9707  0.5747
   61MOL0     N 8150   9.515   4.296   6.747 -0.0084 -0.1817 -0.3240
   61MOL0     N 8151   9.431   4.195   6.728 -0.4347 -0.4223 -0.5704
   61MOL0     C 8152   8.712   3.323   6.451 -0.1789 -0.2809  0.4553
   61MOL0     C 8153   8.628   3.310   6.338  0.2523 -0.0183  0.3736
   61MOL0     C 8154   8.409   3.175   5.985  0.4291 -0.4063 -0.0027
   61MOL0     C 8155   8.446   3.246   5.870  0.8061  0.1153 -0.0640
   61MOL0     C 8156   8.370   3.235   5.751 -0.3756  0.7591 -0.8356
   61MOL0     C 8157   8.249   3.166   5.751  0.2544  0.1837  0.1138
   61MOL0     O 8158   8.174   3.188   5.635  0.8347 -0.2086  0.0285
   61MOL0     C 8159   8.038   3.126   5.615 -0.5896 -0.5224  0.3896
   61MOL0     C 8160   7.990   3.138   5.469  0.8750 -0.2911 -0.2596
   61MOL0     C 8161   7.841   3.083   5.457  0.1922 -0.7974  0.5323
   61MOL0     C 8162   7.753   3.120   5.343 -1.2789  0.1084  0.4316
   61MOL0     C 8163   7.715   3.268   5.329 -0.1750  1.1679  0.3821
   61MOL0     C 8164   7.711   3.381   5.279  0.1397  0.0114  0.2676
   61MOL0     C 8165   8.205   3.103   5.869  0.4972  0.0308 -0.2742
   61MOL0     C 8166   8.283   3.104   5.987 -0.0154  0.6949 -0.4248
   61MOL0     C 8167   8.221   3.030   6.112 -0.5843 -0.1580  0.4838
   61MOL0     H 8168   8.854   3.136   6.154  1.3949 -1.5813  3.3291
   61MOL0     H 8169   8.992   3.179   6.337  0.1466  0.6639  3.4789
   61MOL0     H 8170   8.790   3.273   6.699  0.2021 -1.3037  0.2617
   61MOL0     H 8171   8.962   3.282   6.751  0.1799  2.1884 -0.0925
   61MOL0     H 8172   8.776   3.477   6.785 -0.7518  0.1714 -0.3927
   61MOL0     H 8173   8.834   3.529   6.627 -0.4745 -0.8097 -0.7616
   61MOL0     H 8174   9.070   3.496   6.714  1.4684  1.8938  1.1867
   61MOL0     H 8175   8.990   3.520   6.874  0.9377  1.0689 -0.0826
   61MOL0     H 8176   8.989   3.712   6.634 -1.7013  4.0324  0.5388
   61MOL0     H 8177   8.893   3.742   6.762  1.2152  1.3496 -0.1164
   61MOL0     H 8178   9.112   3.723   6.921  0.6594  2.0010 -0.2526
   61MOL0     H 8179   9.202   3.692   6.783  0.7746  1.4831  0.3635
   61MOL0     H 8180   9.113   3.907   6.674  0.7686 -0.4295  0.4881
   61MOL0     H 8181   9.030   3.933   6.823  2.3005  1.4489  1.5135
   61MOL0     H 8182   9.335   3.919   6.782 -0.2295  0.2888 -0.4680
   61MOL0     H 8183   9.257   3.888   6.929 -2.0822 -1.2001  0.0797
   61MOL0     H 8184   9.167   4.144   6.788  0.3474 -0.8348 -0.8738
   61MOL0     H 8185   9.178   4.118   6.956 -0.7313 -3.4403 -0.2499
   61MOL0     H 8186   9.343   4.295   7.030  2.0241 -1.0029  0.8990
   61MOL0     H 8187   9.509   4.495   7.039  1.9813 -2.5803  0.8834
   61MOL0     H 8188   9.656   4.458   6.972  0.7673 -0.6080  2.1438
   61MOL0     H 8189   9.580   4.556   6.752  0.4779 -0.4440  0.5201
   61MOL0     H 8190   9.416   4.595   6.819 -0.3225  2.5514  2.2233
   61MOL0     H 8191   9.605   4.768   6.808  1.5742 -0.5862  0.6409
   61MOL0     H 8192   9.675   4.689   6.935  0.9844 -0.2364 -0.6667
   61MOL0     H 8193   9.459   4.753   7.072 -1.3393 -0.5095 -0.2174
   61MOL0     H 8194   9.387   4.804   6.924 -0.5386 -0.7886 -0.0703
   61MOL0     H 8195   9.583   5.181   6.998 -1.9355  0.0794 -2.6843
   61MOL0     H 8196   9.493   5.347   7.146  4.6365 -1.4330  0.3623
   61MOL0     H 8197   9.320   5.580   7.464 -0.6811  1.6120  0.8962
   61MOL0     H 8198   9.185   5.770   7.547  2.2041 -1.5165 -0.0054
   61MOL0     H 8199   8.771   5.791   7.414  2.2133 -2.0044 -1.1717
   61MOL0     H 8200   8.822   5.709   7.564 -0.6866  0.5043  1.7826
   61MOL0     H 8201   8.757   6.009   7.521  2.2677  0.5120  0.6342
   61MOL0     H 8202   8.654   5.885   7.591  0.4208 -3.4325 -1.4819
   61MOL0     H 8203   8.849   5.864   7.773 -0.1308  0.7565  0.0682
   61MOL0     H 8204   8.916   6.013   7.694  1.4207 -1.3807  1.3731
   61MOL0     H 8205   8.671   6.089   7.744 -3.4206 -2.8019  1.6346
   61MOL0     H 8206   8.811   6.113   7.852  1.5367 -2.4489  0.7962
   61MOL0     H 8207   8.626   5.893   7.878  1.0665 -1.4219  1.9725
   61MOL0     H 8208   8.605   6.046   7.967 -1.1263 -1.7467  0.3987
   61MOL0     H 8209   8.759   5.857   8.076  0.8623 -0.6764 -2.0168
   61MOL0     H 8210   8.888   5.922   7.978 -0.0899 -3.4556  2.0693
   61MOL0     H 8211   8.735   6.036   8.197  0.5381 -1.5912  0.6359
   61MOL0     H 8212   8.823   6.151   8.083 -1.6595 -0.1484 -1.5029
   61MOL0     H 8213   8.943   5.938   8.238 -0.7261  0.3947  0.4459
   61MOL0     H 8214   9.028   6.057   8.137 -0.0660  2.9378  0.2461
   61MOL0     H 8215   8.889   5.689   7.245 -1.6015 -2.0570  0.8103
   61MOL0     H 8216   9.001   5.506   7.178 -1.3728  3.1200 -2.3935
   61MOL0     H 8217   9.248   5.053   7.333  2.2336 -0.9425  1.8640
   61MOL0     H 8218   9.330   4.876   7.165 -1.1823 -0.4877  0.5589
   61MOL0     H 8219   8.667   3.373   6.537 -0.4252  0.3232 -0.0173
   61MOL0     H 8220   8.527   3.350   6.350 -0.5738 -1.7395 -0.4570
   61MOL0     H 8221   8.534   3.308   5.885  1.7370 -1.0857 -0.4018
   61MOL0     H 8222   8.405   3.304   5.675  0.6984  0.9869 -0.1616
   61MOL0     H 8223   7.966   3.155   5.692  0.8664  0.4712  1.4206
   61MOL0     H 8224   8.053   3.021   5.641 -2.6661 -0.5226  1.8324
   61MOL0     H 8225   8.050   3.069   5.410  2.2707  0.1829  0.5493
   61MOL0     H 8226   7.970   3.236   5.422 -1.0623  0.0177  1.0888
   61MOL0     H 8227   7.781   3.115   5.542 -0.1803  4.1677 -1.2977
   61MOL0     H 8228   7.833   2.974   5.456  1.4334 -0.9109 -1.1411
   61MOL0     H 8229   7.804   3.088   5.252 -0.4598  1.2584  0.4793
   61MOL0     H 8230   7.661   3.064   5.364 -0.7993 -1.1401 -0.6463
   61MOL0     H 8231   7.681   3.482   5.259 -1.9223 -0.5854  0.0733
   61MOL0     H 8232   8.104   3.063   5.877  1.5056 -2.5074  1.1114
   61MOL0     H 8233   8.196   2.927   6.084 -0.9599 -0.2933  1.2734
   61MOL0     H 8234   8.299   3.032   6.189  1.5466  0.5225 -1.5533
   61MOL0     H 8235   8.135   3.089   6.146 -0.9707 -0.8356  0.7060
   62MOL0     O 8236   2.718  10.973   3.995  0.2999  0.6621 -0.9274
   62MOL0     C 8237   2.786  10.939   3.898 -0.9451 -0.3915 -0.3550
   62MOL0     O 8238   2.753  10.910   3.768 -0.3088  1.2680  0.5048
   62MOL0     C 8239   2.622  10.921   3.727 -0.6207  0.5458  0.5306
   62MOL0     C 8240   2.503  10.875   3.782 -0.1286  0.7283  0.3090
   62MOL0     C 8241   2.391  10.867   3.706  0.0192  0.9931  0.1445
   62MOL0     C 8242   2.379  10.923   3.580 -0.6644  0.5029 -0.7120
   62MOL0     O 8243   2.260  10.924   3.509  0.6671  0.2525  0.0427
   62MOL0     C 8244   2.251  10.826   3.397  0.7888 -0.1500  0.0235
   62MOL0     C 8245   2.245  10.895   3.256 -0.4841 -0.9075 -0.1976
   62MOL0     C 8246   2.263  10.793   3.149  0.0364  0.4383 -0.7885
   62MOL0     C 8247   2.261  10.872   3.012  0.4900  0.3353  0.2054
   62MOL0     C 8248   2.276  10.790   2.885  0.0208  0.1287  0.0976
   62MOL0     C 8249   2.158  10.690   2.868  0.4603  0.2982 -0.1684
   62MOL0     C 8250   2.160  10.618   2.733  0.4239  1.2182 -0.5140
   62MOL0     C 8251   2.283  10.511   2.721 -1.4822 -0.7073 -0.4427
   62MOL0     N 8252   2.262  10.381   2.790  0.2992  0.5931  0.1500
   62MOL0     C 8253   2.137  10.327   2.834  0.2342 -1.6544  0.6229
   62MOL0     C 8254   2.162  10.224   2.907  0.7406  0.7144  0.3249
   62MOL0     C 8255   2.067  10.126   2.975  0.0674  0.0759  0.4714
   62MOL0     C 8256   2.118   9.974   2.998  0.6740  0.6520  0.3565
   62MOL0     C 8257   2.122   9.900   2.864  0.4955  0.5547 -0.5580
   62MOL0     C 8258   2.191   9.759   2.877 -0.2113 -0.4286 -0.0339
   62MOL0     O 8259   2.205   9.716   2.745  0.1542  0.1809 -0.8271
   62MOL0     C 8260   2.203   9.581   2.730 -0.0378 -0.7432  0.2177
   62MOL0     C 8261   2.315   9.506   2.721 -0.7620 -0.6090 -0.1470
   62MOL0     C 8262   2.304   9.365   2.711 -0.3539  1.5318  1.0914
   62MOL0     C 8263   2.174   9.304   2.695 -0.2764 -0.1535 -0.6409
   62MOL0     C 8264   2.162   9.158   2.671  0.4475  0.1761  0.3876
   62MOL0     O 8265   2.277   9.091   2.632 -0.0961 -0.0423  0.0836
   62MOL0     C 8266   2.262   8.963   2.580 -1.0384  0.7476  0.3427
   62MOL0     C 8267   2.225   8.959   2.444  0.0121  0.3438  0.3595
   62MOL0     C 8268   2.213   8.834   2.382  0.2528 -0.4144 -0.5396
   62MOL0     C 8269   2.221   8.717   2.455  0.7174  0.8355 -0.2457
   62MOL0     O 8270   2.181   8.594   2.411 -0.3222  0.4958 -0.5003
   62MOL0     C 8271   2.285   8.519   2.354  1.4924 -0.1878  0.3308
   62MOL0     C 8272   2.269   8.369   2.363  0.9522 -0.2063 -0.2421
   62MOL0     C 8273   2.263   8.329   2.508  0.5742  0.8390  0.3687
   62MOL0     C 8274   2.243   8.176   2.525  0.7387 -0.1511  0.1931
   62MOL0     C 8275   2.229   8.151   2.678  0.6271  0.2258 -0.0322
   62MOL0     C 8276   2.176   8.011   2.708 -0.9657  0.5656  0.3599
   62MOL0     C 8277   2.258   7.883   2.674  0.1583 -0.6728 -0.0123
   62MOL0     C 8278   2.287   7.801   2.798 -0.2979  0.3866 -0.7264
   62MOL0    Cl 8279   2.374   7.894   2.922  0.0600  0.3007  0.2498
   62MOL0     C 8280   2.258   8.727   2.592 -0.7738  0.3455 -1.0335
   62MOL0     C 8281   2.276   8.851   2.653  0.6404 -0.4000 -0.6377
   62MOL0     O 8282   2.053   9.106   2.701 -1.2915  0.3847  0.4578
   62MOL0     C 8283   2.066   9.387   2.692 -0.3309  0.7262 -0.7658
   62MOL0     C 8284   2.081   9.522   2.713 -0.3766 -0.0335  0.2750
   62MOL0     N 8285   2.300  10.216   2.912  0.6430  0.4241 -0.4220
   62MOL0     N 8286   2.359  10.312   2.842 -1.0421 -0.2563  0.3452
   62MOL0     C 8287   2.489  10.986   3.529  0.3246  0.8520  0.2263
   62MOL0     C 8288   2.615  10.971   3.595 -0.0213 -0.7214 -0.2738
   62MOL0     C 8289   2.926  10.890   3.927  0.1510 -0.3837 -0.6252
   62MOL0     C 8290   2.952  10.791   4.019 -0.5702  0.2288  0.3430
   62MOL0     C 8291   3.075  10.738   4.034  0.2835  0.5947 -0.4531
   62MOL0     C 8292   3.187  10.802   3.977  0.0718 -0.2646 -0.0742
   62MOL0     O 8293   3.319  10.766   3.988  0.0794 -0.5197 -0.1483
   62MOL0     C 8294   3.362  10.657   4.071 -0.3162 -0.8795  0.6236
   62MOL0     C 8295   3.507  10.616   4.043  1.3984 -0.0927  0.8169
   62MOL0     C 8296   3.605  10.727   4.045  0.7853 -0.2891  0.4480
   62MOL0     C 8297   3.625  10.782   4.186 -0.4773  0.2160 -0.1902
   62MOL0     C 8298   3.675  10.689   4.291  0.4130  0.4703  0.3015
   62MOL0     C 8299   3.713  10.610   4.377  0.5212  0.2745  0.2931
   62MOL0     C 8300   3.165  10.897   3.878 -1.0389  0.4283  0.6757
   62MOL0     C 8301   3.037  10.952   3.857  0.3762  0.5006 -0.2047
   62MOL0     C 8302   3.015  11.075   3.773 -0.4647 -0.2994  0.3114
   62MOL0     H 8303   2.502  10.823   3.878  1.9757  2.1683  1.1778
   62MOL0     H 8304   2.300  10.827   3.750  1.4905 -0.1617  2.3187
   62MOL0     H 8305   2.335  10.756   3.403 -0.2816 -1.4301  0.4729
   62MOL0     H 8306   2.160  10.771   3.420  0.9660  0.9726  4.3478
   62MOL0     H 8307   2.328  10.966   3.250  0.4013 -1.9975 -1.6661
   62MOL0     H 8308   2.156  10.958   3.252  0.0665  0.2808  3.2762
   62MOL0     H 8309   2.180  10.720   3.147 -1.2162  1.7005  1.3279
   62MOL0     H 8310   2.360  10.742   3.144 -0.8839 -2.4866  4.2547
   62MOL0     H 8311   2.163  10.919   3.013  1.0099  1.5512  3.0484
   62MOL0     H 8312   2.351  10.934   3.011  3.2045 -3.2597  0.7080
   62MOL0     H 8313   2.276  10.853   2.796  0.4834  1.2534  0.8742
   62MOL0     H 8314   2.368  10.731   2.885  1.1165  1.6995 -2.2745
   62MOL0     H 8315   2.166  10.613   2.945 -1.8552  0.3938  0.2297
   62MOL0     H 8316   2.069  10.752   2.885  0.4590  0.9457 -2.2967
   62MOL0     H 8317   2.166  10.687   2.649  3.0640  1.2245 -0.4090
   62MOL0     H 8318   2.067  10.562   2.717  1.3781 -0.1132 -1.5183
   62MOL0     H 8319   2.309  10.503   2.615 -2.5765 -0.5693 -0.7447
   62MOL0     H 8320   2.371  10.554   2.769 -1.3013 -0.7472 -0.7370
   62MOL0     H 8321   2.042  10.370   2.801  1.9139  0.0867 -2.3752
   62MOL0     H 8322   2.051  10.167   3.074  0.3656 -3.1001  1.9641
   62MOL0     H 8323   1.969  10.132   2.926 -1.5589  4.6485  3.6047
   62MOL0     H 8324   2.221   9.973   3.033  0.7735 -2.8414  0.3034
   62MOL0     H 8325   2.066   9.918   3.076 -0.3024  0.0754 -0.6766
   62MOL0     H 8326   2.180   9.966   2.798 -1.1654  0.4628 -2.2006
   62MOL0     H 8327   2.020   9.883   2.828 -0.1553  0.6857  1.1649
   62MOL0     H 8328   2.131   9.696   2.943 -0.4736  2.1312  2.3846
   62MOL0     H 8329   2.290   9.760   2.924  0.7918 -0.0280 -2.0328
   62MOL0     H 8330   2.416   9.546   2.729 -0.2040 -2.1693  1.2451
   62MOL0     H 8331   2.382   9.298   2.676 -2.4600  0.8400 -3.0152
   62MOL0     H 8332   2.215   9.050   2.385  1.7573  2.3616  2.8971
   62MOL0     H 8333   2.195   8.825   2.276  1.5990 -0.9593 -0.7347
   62MOL0     H 8334   2.297   8.560   2.253  2.6019  1.1123  0.9566
   62MOL0     H 8335   2.383   8.540   2.399  1.4805 -1.5072  1.0109
   62MOL0     H 8336   2.172   8.339   2.321  0.7141  0.2467 -0.0314
   62MOL0     H 8337   2.350   8.315   2.313  1.9659 -0.6578  1.7868
   62MOL0     H 8338   2.360   8.355   2.553  0.6341  0.2626  0.5806
   62MOL0     H 8339   2.195   8.389   2.568 -0.5200  0.6081 -0.6070
   62MOL0     H 8340   2.327   8.114   2.494  0.2680 -1.1811  0.9055
   62MOL0     H 8341   2.158   8.138   2.468  0.3280 -2.5739  2.2491
   62MOL0     H 8342   2.162   8.224   2.724  1.6858  0.5316  1.0683
   62MOL0     H 8343   2.328   8.165   2.722  1.8269 -3.7834 -0.9724
   62MOL0     H 8344   2.143   8.005   2.812 -1.5662 -0.1556  0.1407
   62MOL0     H 8345   2.083   8.003   2.651  0.0429  2.9125 -1.8088
   62MOL0     H 8346   2.351   7.904   2.620 -0.3499  0.3113 -0.5290
   62MOL0     H 8347   2.197   7.829   2.601 -2.8233  3.3252 -0.7709
   62MOL0     H 8348   2.191   7.772   2.844  1.0629 -2.2646  0.6722
   62MOL0     H 8349   2.348   7.712   2.782  2.0466  2.0272 -1.3909
   62MOL0     H 8350   2.261   8.634   2.647  1.1859  1.6092  1.1661
   62MOL0     H 8351   2.301   8.848   2.759 -3.8528 -1.2398  0.6273
   62MOL0     H 8352   1.962   9.355   2.683 -0.4623  0.4083  1.3003
   62MOL0     H 8353   1.991   9.581   2.715 -0.0226  0.6035 -1.2888
   62MOL0     H 8354   2.480  11.020   3.427  1.1388 -0.2051 -0.2114
   62MOL0     H 8355   2.707  11.008   3.551  3.2482  1.0795  6.6635
   62MOL0     H 8356   2.869  10.748   4.074  2.1128 -1.8635  3.1148
   62MOL0     H 8357   3.066  10.654   4.103 -0.7756  1.9946  1.2065
   62MOL0     H 8358   3.294  10.572   4.057  0.0120 -1.2998  1.5074
   62MOL0     H 8359   3.358  10.687   4.177  0.8823 -1.1799  0.7661
   62MOL0     H 8360   3.506  10.576   3.941 -0.7219  0.3377  0.6229
   62MOL0     H 8361   3.536  10.537   4.112  0.9317  0.1858  1.3304
   62MOL0     H 8362   3.559  10.807   3.987  2.8953 -1.5949 -3.3259
   62MOL0     H 8363   3.703  10.699   4.005  1.5840 -1.6561  3.0942
   62MOL0     H 8364   3.703  10.858   4.178  1.4535 -1.4845  1.4106
   62MOL0     H 8365   3.536  10.832   4.224  1.7635  1.8321  3.4115
   62MOL0     H 8366   3.750  10.558   4.463  0.1332 -0.7051 -0.1114
   62MOL0     H 8367   3.261  10.925   3.835  1.5341  0.2054  5.5888
   62MOL0     H 8368   2.972  11.067   3.673  1.1184  1.6322 -0.5926
   62MOL0     H 8369   2.938  11.136   3.820 -2.9130 -2.5507 -0.5093
   62MOL0     H 8370   3.107  11.128   3.750 -0.4023 -0.5886 -0.1164
   63MOL0     O 8371   1.317   1.894   9.525  0.4521 -0.4886 -0.9607
   63MOL0     C 8372   1.265   1.903   9.415  0.1440 -0.5002 -0.1208
   63MOL0     O 8373   1.311   1.865   9.293 -0.7801  0.1381  0.8950
   63MOL0     C 8374   1.436   1.807   9.269 -0.4564 -0.0538  0.9716
   63MOL0     C 8375   1.531   1.778   9.360 -0.2630  0.6628  0.1869
   63MOL0     C 8376   1.650   1.708   9.324  0.2521 -0.4713 -0.0374
   63MOL0     C 8377   1.686   1.689   9.197 -0.1438  0.6342  0.2514
   63MOL0     O 8378   1.816   1.641   9.191  0.0852 -0.1219  0.1058
   63MOL0     C 8379   1.869   1.577   9.077  0.4341  0.1321  0.4819
   63MOL0     C 8380   2.002   1.519   9.112  0.4975 -0.2723 -0.4353
   63MOL0     C 8381   2.089   1.596   9.220 -0.4321  0.3997  0.2671
   63MOL0     C 8382   2.097   1.752   9.206  0.9024 -0.1421 -0.3194
   63MOL0     C 8383   2.179   1.789   9.085 -0.3473 -0.1393 -0.4419
   63MOL0     C 8384   2.222   1.932   9.096  0.6497  0.0718 -0.6181
   63MOL0     C 8385   2.312   1.973   8.979  0.2337 -0.0824  0.2071
   63MOL0     C 8386   2.358   2.120   8.977  1.0587  0.6635 -1.0860
   63MOL0     N 8387   2.409   2.155   8.850 -0.1723 -0.3810  0.4736
   63MOL0     C 8388   2.539   2.201   8.828  0.8330  1.1798  0.6882
   63MOL0     C 8389   2.546   2.173   8.688 -0.2340  0.0272  0.2659
   63MOL0     C 8390   2.655   2.182   8.583  0.8767 -0.2404  0.3642
   63MOL0     C 8391   2.742   2.050   8.590  0.3952 -0.4781  0.6239
   63MOL0     C 8392   2.860   2.063   8.683  0.0350 -0.7697  0.0651
   63MOL0     C 8393   2.927   1.923   8.701  0.0347 -0.2627 -0.6872
   63MOL0     O 8394   3.012   1.934   8.812 -0.1613 -0.2416  0.3694
   63MOL0     C 8395   3.096   1.824   8.839  0.0073 -1.1859 -0.3396
   63MOL0     C 8396   3.198   1.847   8.928 -0.1566  0.0231 -0.6635
   63MOL0     C 8397   3.297   1.749   8.955 -0.6426  0.0877  0.0122
   63MOL0     C 8398   3.293   1.619   8.889 -0.1343 -1.0067 -0.1046
   63MOL0     C 8399   3.377   1.505   8.940  0.3667 -0.7224  0.0881
   63MOL0     O 8400   3.419   1.416   8.851 -0.3794  0.7299  0.1048
   63MOL0     C 8401   3.505   1.316   8.891  0.2897 -0.8035 -0.5534
   63MOL0     C 8402   3.617   1.328   8.971  0.7048  0.4557  0.3372
   63MOL0     C 8403   3.694   1.222   9.000  0.6042 -0.4445  0.4804
   63MOL0     C 8404   3.658   1.095   8.959 -0.2486  0.0560 -0.2280
   63MOL0     O 8405   3.756   1.009   8.978  0.4364  0.2315 -0.7995
   63MOL0     C 8406   3.740   0.866   8.961 -0.4237  0.1645  0.3698
   63MOL0     C 8407   3.833   0.789   9.047  0.3674  0.1080 -0.8644
   63MOL0     C 8408   3.957   0.865   9.103  0.2839 -0.5412 -0.0645
   63MOL0     C 8409   4.056   0.764   9.171  0.1831 -0.1961 -0.1132
   63MOL0     C 8410   3.999   0.721   9.303 -0.3423 -0.3240  0.5282
   63MOL0     C 8411   4.092   0.612   9.364  1.8772 -0.5392 -0.1133
   63MOL0     C 8412   4.046   0.586   9.507  0.1563 -0.7113 -0.6292
   63MOL0     C 8413   4.143   0.476   9.570  0.0210 -0.0514 -0.7768
   63MOL0    Cl 8414   4.085   0.438   9.733  0.1202 -0.0511  0.2442
   63MOL0     C 8415   3.539   1.069   8.888  0.3644  1.1529  0.9045
   63MOL0     C 8416   3.461   1.183   8.848 -0.2995 -1.0828  0.6570
   63MOL0     O 8417   3.390   1.500   9.061 -0.6463 -0.4711 -0.6581
   63MOL0     C 8418   3.185   1.603   8.797 -1.2853  0.9647 -0.1688
   63MOL0     C 8419   3.087   1.700   8.775 -0.2865 -0.2436 -0.3422
   63MOL0     N 8420   2.418   2.146   8.637 -0.5081 -0.1057  0.0188
   63MOL0     N 8421   2.340   2.140   8.728  0.8199  0.0774  0.8256
   63MOL0     C 8422   1.596   1.714   9.099 -0.6534  0.1950 -0.1316
   63MOL0     C 8423   1.471   1.775   9.135 -0.1562 -0.7378  0.0087
   63MOL0     C 8424   1.133   1.974   9.433  0.2998  0.3133 -0.3064
   63MOL0     C 8425   1.119   2.071   9.531  0.1503  1.1838 -0.7144
   63MOL0     C 8426   1.004   2.136   9.560 -1.0891  0.1032  0.0330
   63MOL0     C 8427   0.888   2.112   9.493 -0.1430 -0.0236  0.6566
   63MOL0     O 8428   0.770   2.166   9.541 -0.4342 -0.3158  0.1482
   63MOL0     C 8429   0.678   2.202   9.441  0.2404  0.2168 -0.5344
   63MOL0     C 8430   0.600   2.327   9.495  0.7080  0.3619  0.8812
   63MOL0     C 8431   0.455   2.338   9.446 -1.0410  0.5226  0.0392
   63MOL0     C 8432   0.374   2.470   9.458 -0.0777 -0.9349  0.5496
   63MOL0     C 8433   0.340   2.494   9.598 -0.0701 -0.4851 -0.1629
   63MOL0     C 8434   0.294   2.496   9.707  0.2686  0.9263  0.2208
   63MOL0     C 8435   0.901   2.028   9.376  0.6753  0.6415 -1.1412
   63MOL0     C 8436   1.020   1.963   9.349 -0.3038  0.1266 -0.9443
   63MOL0     C 8437   1.010   1.893   9.217 -0.4707 -0.0140 -0.3827
   63MOL0     H 8438   1.504   1.773   9.465 -1.3334  0.3093 -0.0833
   63MOL0     H 8439   1.708   1.681   9.412 -0.3129 -1.7139 -0.0286
   63MOL0     H 8440   1.806   1.499   9.035  2.5928 -0.7772 -1.2877
   63MOL0     H 8441   1.888   1.642   8.990  0.6838  1.0217  1.1801
   63MOL0     H 8442   2.058   1.503   9.019  2.5562  0.6931  0.5805
   63MOL0     H 8443   1.977   1.420   9.152 -1.8632  0.7710  0.9131
   63MOL0     H 8444   2.192   1.563   9.206 -0.4946  1.0783 -2.2096
   63MOL0     H 8445   2.061   1.570   9.322 -1.1604  0.8341  0.1868
   63MOL0     H 8446   1.999   1.799   9.200  0.2212 -1.6279 -1.5234
   63MOL0     H 8447   2.160   1.793   9.286  1.0132  0.7744 -0.8562
   63MOL0     H 8448   2.265   1.721   9.078  0.5381  0.6383  1.8613
   63MOL0     H 8449   2.124   1.779   8.990  1.6601  1.0729 -1.8041
   63MOL0     H 8450   2.140   2.003   9.110 -0.3539 -0.8383 -1.6922
   63MOL0     H 8451   2.283   1.932   9.187 -3.1394 -1.4726  2.2017
   63MOL0     H 8452   2.260   1.955   8.885 -0.5034  2.4803  0.0727
   63MOL0     H 8453   2.400   1.907   8.981 -1.0060 -2.2597 -4.2288
   63MOL0     H 8454   2.268   2.181   8.989  1.1732  1.0744 -2.1841
   63MOL0     H 8455   2.424   2.139   9.062  0.7554 -1.5683 -0.2910
   63MOL0     H 8456   2.622   2.228   8.892  2.2071 -0.1498 -0.4531
   63MOL0     H 8457   2.613   2.194   8.482 -1.2960  0.2312  1.2570
   63MOL0     H 8458   2.707   2.276   8.605 -1.4659  0.6753  2.4836
   63MOL0     H 8459   2.689   1.957   8.608  1.2473 -1.8515 -3.0538
   63MOL0     H 8460   2.789   2.024   8.494  0.6063 -1.7414  1.0523
   63MOL0     H 8461   2.831   2.097   8.782  3.2019 -2.7819  1.8344
   63MOL0     H 8462   2.930   2.120   8.621 -0.5249 -3.8100 -3.8243
   63MOL0     H 8463   2.977   1.895   8.608 -2.1397 -0.1235 -1.9672
   63MOL0     H 8464   2.854   1.854   8.744 -0.5119  0.8346  0.2073
   63MOL0     H 8465   3.209   1.940   8.983  2.0208 -0.7125  0.2498
   63MOL0     H 8466   3.371   1.769   9.032  0.6792  0.5765 -1.3360
   63MOL0     H 8467   3.656   1.421   9.013  2.7784  1.2514 -2.9526
   63MOL0     H 8468   3.780   1.252   9.059  0.7032 -2.3888  1.3756
   63MOL0     H 8469   3.634   0.841   8.977 -0.1619 -1.8116 -0.7136
   63MOL0     H 8470   3.750   0.847   8.853  0.1169  2.5185 -0.0669
   63MOL0     H 8471   3.780   0.750   9.134  0.9889  1.5668  0.1887
   63MOL0     H 8472   3.865   0.704   8.985  0.2978 -0.2628 -0.3991
   63MOL0     H 8473   4.014   0.924   9.031 -0.9908  0.4511 -0.2914
   63MOL0     H 8474   3.931   0.936   9.182 -0.5562 -0.9210  0.0081
   63MOL0     H 8475   4.161   0.791   9.177  0.4543 -1.1774 -0.2793
   63MOL0     H 8476   4.059   0.674   9.109 -4.2253 -1.3826  1.0048
   63MOL0     H 8477   3.897   0.687   9.281 -0.0452  0.7774 -3.3933
   63MOL0     H 8478   3.987   0.811   9.365 -1.1715 -0.1111  0.0860
   63MOL0     H 8479   4.086   0.522   9.302  0.7719  1.0437 -2.4558
   63MOL0     H 8480   4.196   0.646   9.355  3.1864 -4.3451 -1.1107
   63MOL0     H 8481   3.940   0.560   9.514 -0.4431  1.2363 -1.5165
   63MOL0     H 8482   4.066   0.678   9.564  2.9239 -2.0250  0.6818
   63MOL0     H 8483   4.137   0.372   9.537 -1.2003 -1.1428  2.4019
   63MOL0     H 8484   4.247   0.507   9.565 -0.1352  0.3821 -1.4633
   63MOL0     H 8485   3.509   0.967   8.867 -0.8238  1.5278  0.7158
   63MOL0     H 8486   3.365   1.180   8.796 -1.4978 -0.6435  2.7194
   63MOL0     H 8487   3.172   1.500   8.765 -0.5511  0.5387  0.8744
   63MOL0     H 8488   3.016   1.664   8.702 -3.0888 -0.4450  2.2852
   63MOL0     H 8489   1.624   1.693   8.996 -0.6833  1.5274 -0.4254
   63MOL0     H 8490   1.397   1.807   9.062  0.3448  2.4084  0.7530
   63MOL0     H 8491   1.196   2.085   9.606 -0.8541 -0.8991  0.8014
   63MOL0     H 8492   1.016   2.198   9.649  1.1057 -0.7626  0.4106
   63MOL0     H 8493   0.599   2.126   9.437  0.1324  0.3223 -4.5551
   63MOL0     H 8494   0.722   2.215   9.341  0.9145 -0.6683 -0.3587
   63MOL0     H 8495   0.658   2.410   9.454 -1.4034  0.5291 -2.0871
   63MOL0     H 8496   0.590   2.330   9.604 -1.1297  3.0498  0.7501
   63MOL0     H 8497   0.398   2.266   9.505 -1.6283  1.4592  0.6307
   63MOL0     H 8498   0.464   2.301   9.343  2.7544 -0.6925  0.6441
   63MOL0     H 8499   0.432   2.550   9.410 -1.2816 -1.3442 -1.6926
   63MOL0     H 8500   0.278   2.457   9.409 -1.9714  3.4711  2.5560
   63MOL0     H 8501   0.245   2.487   9.802  1.5913  0.7822  0.9200
   63MOL0     H 8502   0.809   2.001   9.325 -1.0260 -0.2976  2.1395
   63MOL0     H 8503   0.912   1.859   9.181 -0.0076  0.1667 -1.8908
   63MOL0     H 8504   1.066   1.966   9.157  0.8854 -0.4348  0.3255
   63MOL0     H 8505   1.070   1.802   9.213  0.0598  0.3127  0.0716
   64MOL0     O 8506   5.620   7.793  11.173 -0.7265  0.4689  0.6300
   64MOL0     C 8507   5.584   7.830  11.286  1.0546 -0.1779 -0.1958
   64MOL0     O 8508   5.592   7.960  11.335  0.1933 -0.4098 -0.0294
   64MOL0     C 8509   5.641   8.064  11.247  0.2190 -0.3662 -0.7352
   64MOL0     C 8510   5.590   8.194  11.267 -0.6570  0.4487 -0.4003
   64MOL0     C 8511   5.631   8.306  11.192  0.5068  0.1034  1.1730
   64MOL0     C 8512   5.725   8.284  11.087  0.6838 -0.0633 -0.0248
   64MOL0     O 8513   5.760   8.375  10.992  0.1437 -0.8319  0.6306
   64MOL0     C 8514   5.679   8.488  10.964  0.6032  0.8290 -0.5118
   64MOL0     C 8515   5.734   8.568  10.841  0.8888  0.8757  0.5474
   64MOL0     C 8516   5.643   8.683  10.816  0.8109  0.3948  0.6264
   64MOL0     C 8517   5.634   8.800  10.921  0.5743  0.5992 -0.1138
   64MOL0     C 8518   5.544   8.912  10.872  0.7860 -0.0406  0.8599
   64MOL0     C 8519   5.538   9.038  10.956  0.3810  0.8022  0.6907
   64MOL0     C 8520   5.479   9.013  11.095  0.1470 -0.1455 -0.4198
   64MOL0     C 8521   5.466   9.145  11.173 -0.0095  0.1230  0.4172
   64MOL0     N 8522   5.354   9.231  11.138 -0.6663 -0.1238 -0.6385
   64MOL0     C 8523   5.304   9.329  11.216  0.4406 -0.5039  0.4015
   64MOL0     C 8524   5.200   9.372  11.141 -0.1269  0.6177 -0.9841
   64MOL0     C 8525   5.086   9.480  11.173  0.1824 -0.0285 -0.7116
   64MOL0     C 8526   5.100   9.561  11.303 -0.6438  0.2147  0.4478
   64MOL0     C 8527   5.052   9.493  11.430  0.0103 -0.4770 -0.6581
   64MOL0     C 8528   5.080   9.569  11.568 -1.0700 -0.5099  0.6203
   64MOL0     O 8529   5.101   9.709  11.561  0.3749 -0.7186 -0.3936
   64MOL0     C 8530   4.989   9.784  11.576 -0.9469 -0.8256  0.7597
   64MOL0     C 8531   4.919   9.840  11.476  1.1739 -0.5480 -0.2428
   64MOL0     C 8532   4.805   9.917  11.500 -0.2562 -0.7288 -0.7886
   64MOL0     C 8533   4.767   9.947  11.630  0.1491  1.1323 -1.1473
   64MOL0     C 8534   4.662  10.042  11.657  0.8605  0.6454  0.6080
   64MOL0     O 8535   4.622  10.122  11.548 -0.4903 -0.0629 -1.0710
   64MOL0     C 8536   4.510  10.195  11.572  0.2790  0.4609  0.7844
   64MOL0     C 8537   4.382  10.135  11.585 -0.0121 -0.5620 -0.7728
   64MOL0     C 8538   4.267  10.204  11.606 -0.5328 -1.2195  0.7132
   64MOL0     C 8539   4.277  10.346  11.628  0.0918  0.1261 -0.3430
   64MOL0     O 8540   4.165  10.418  11.675 -0.2096  0.1584  0.6078
   64MOL0     C 8541   4.031  10.369  11.658 -0.1305  0.3384 -0.4806
   64MOL0     C 8542   3.950  10.487  11.702  0.0753  0.2412 -0.6778
   64MOL0     C 8543   3.812  10.461  11.646 -0.0932 -0.3083 -1.2636
   64MOL0     C 8544   3.730  10.585  11.660 -0.2950  0.6453  0.4826
   64MOL0     C 8545   3.614  10.558  11.556 -0.7235  0.0582 -0.4882
   64MOL0     C 8546   3.522  10.678  11.575 -0.3015  0.2621 -0.8795
   64MOL0     C 8547   3.445  10.689  11.453 -0.7294 -0.3217  0.0551
   64MOL0     C 8548   3.353  10.576  11.410  0.3579  0.1185  0.4255
   64MOL0    Cl 8549   3.201  10.559  11.502 -0.2984  0.1300 -0.1177
   64MOL0     C 8550   4.401  10.410  11.610  0.4605  0.0730 -0.2407
   64MOL0     C 8551   4.513  10.332  11.578 -0.4064  0.4793  0.5251
   64MOL0     O 8552   4.605  10.033  11.767  0.6877  0.7065  0.8971
   64MOL0     C 8553   4.832   9.880  11.740 -0.3842  0.1702 -0.0659
   64MOL0     C 8554   4.942   9.800  11.706  0.4164 -0.5861 -0.5498
   64MOL0     N 8555   5.181   9.293  11.031 -0.2057 -0.3911 -0.8773
   64MOL0     N 8556   5.265   9.201  11.044  0.6672 -0.8101 -0.1126
   64MOL0     C 8557   5.791   8.160  11.083  0.6224 -0.4012 -0.4147
   64MOL0     C 8558   5.749   8.050  11.158 -0.9626 -0.6358  0.1726
   64MOL0     C 8559   5.530   7.729  11.374 -0.5386 -0.3675  0.4899
   64MOL0     C 8560   5.579   7.737  11.508 -1.1051 -0.1634 -0.1037
   64MOL0     C 8561   5.523   7.660  11.603  0.2951 -0.6410 -0.6894
   64MOL0     C 8562   5.434   7.559  11.574 -0.2407 -0.3246 -0.0150
   64MOL0     O 8563   5.379   7.476  11.673 -0.0105 -0.0401  0.4137
   64MOL0     C 8564   5.284   7.379  11.637  0.6801  0.8104 -0.4629
   64MOL0     C 8565   5.256   7.297  11.760  0.4367  0.8584  0.6282
   64MOL0     C 8566   5.188   7.169  11.723  0.2280  0.6920 -0.0671
   64MOL0     C 8567   5.185   7.071  11.845  0.5647 -0.2690 -0.5034
   64MOL0     C 8568   5.118   6.943  11.815 -0.9371 -0.1182 -0.3104
   64MOL0     C 8569   5.067   6.834  11.810  0.4268  0.4933  0.4155
   64MOL0     C 8570   5.383   7.553  11.442 -0.0977 -0.0159  0.4358
   64MOL0     C 8571   5.430   7.637  11.339 -0.5922 -0.1490 -0.2556
   64MOL0     C 8572   5.368   7.618  11.205 -0.0867  0.4971  0.4945
   64MOL0     H 8573   5.520   8.205  11.349 -0.0861  0.2557  0.1211
   64MOL0     H 8574   5.590   8.403  11.220 -1.2421  0.3824 -1.9571
   64MOL0     H 8575   5.584   8.448  10.927  2.7941 -3.8815 -1.9052
   64MOL0     H 8576   5.674   8.550  11.054  1.8158 -0.7964  0.7423
   64MOL0     H 8577   5.729   8.507  10.750 -5.5042 -0.6247  1.4668
   64MOL0     H 8578   5.834   8.609  10.858  0.0184  2.8822  1.1183
   64MOL0     H 8579   5.539   8.651  10.799 -0.1164  3.8939 -1.3955
   64MOL0     H 8580   5.665   8.724  10.717 -1.2086 -3.2438 -1.5496
   64MOL0     H 8581   5.584   8.767  11.012 -0.2020  5.1357  1.3722
   64MOL0     H 8582   5.736   8.827  10.949  1.2231 -1.2787 -0.5022
   64MOL0     H 8583   5.566   8.950  10.772 -3.4528  3.2008  0.8559
   64MOL0     H 8584   5.442   8.874  10.863  0.6879  0.6706 -2.3786
   64MOL0     H 8585   5.640   9.072  10.974  1.0127 -0.4282 -0.4772
   64MOL0     H 8586   5.477   9.114  10.906  2.1693  0.9400 -1.4394
   64MOL0     H 8587   5.550   8.951  11.151  1.4964  1.2327 -0.5062
   64MOL0     H 8588   5.378   8.974  11.083  0.5450 -0.6762 -2.5281
   64MOL0     H 8589   5.458   9.120  11.279  1.3862 -0.1116  0.4840
   64MOL0     H 8590   5.557   9.204  11.160 -0.9480  2.3819  3.0108
   64MOL0     H 8591   5.343   9.371  11.308 -1.0962 -0.8488  1.2421
   64MOL0     H 8592   5.087   9.561  11.100 -4.7339  1.1105  0.1027
   64MOL0     H 8593   4.987   9.432  11.175  0.1922 -0.9315  6.6938
   64MOL0     H 8594   5.209   9.571  11.316 -0.0823 -2.6791 -1.2400
   64MOL0     H 8595   5.055   9.660  11.288  1.1948  0.6994 -2.7428
   64MOL0     H 8596   5.111   9.401  11.438  3.5907  1.6434 -0.5431
   64MOL0     H 8597   4.945   9.476  11.422  0.2149 -1.9292 -0.6056
   64MOL0     H 8598   5.168   9.524  11.615 -0.7600 -0.3171  0.2300
   64MOL0     H 8599   4.997   9.552  11.637 -2.0418  3.6174  0.6912
   64MOL0     H 8600   4.964   9.829  11.378  3.3269  0.2066  0.6108
   64MOL0     H 8601   4.760   9.963  11.412 -0.1009  0.7623 -0.1261
   64MOL0     H 8602   4.394  10.028  11.592  3.3368 -0.2886 -0.7569
   64MOL0     H 8603   4.166  10.166  11.616 -0.3872 -2.0820 -0.7405
   64MOL0     H 8604   4.020  10.337  11.554 -0.0741  0.7963 -0.6326
   64MOL0     H 8605   4.013  10.284  11.724  0.2971  1.8550  1.7205
   64MOL0     H 8606   3.952  10.489  11.811 -2.1091  1.4549 -0.6061
   64MOL0     H 8607   3.987  10.586  11.673  0.2717  0.1360 -0.7922
   64MOL0     H 8608   3.809  10.429  11.542 -0.6401  0.3406 -1.4581
   64MOL0     H 8609   3.789  10.371  11.705  1.0954 -0.1167 -0.4912
   64MOL0     H 8610   3.774  10.683  11.638 -0.3348  0.8745  1.3873
   64MOL0     H 8611   3.699  10.587  11.765  1.7567 -0.7824  1.1853
   64MOL0     H 8612   3.550  10.476  11.591 -1.4062 -1.0238 -3.8985
   64MOL0     H 8613   3.652  10.546  11.455  0.2649 -1.4912  0.0247
   64MOL0     H 8614   3.452  10.665  11.658  0.3597  2.4574  0.0844
   64MOL0     H 8615   3.566  10.776  11.591  0.7365 -0.6129  2.3102
   64MOL0     H 8616   3.501  10.701  11.360 -0.6951 -2.0066 -0.1725
   64MOL0     H 8617   3.393  10.786  11.457 -2.2784 -1.1488  2.4954
   64MOL0     H 8618   3.313  10.598  11.310 -0.8591  1.6142  1.2037
   64MOL0     H 8619   3.402  10.479  11.406 -1.7311 -0.9637 -0.4527
   64MOL0     H 8620   4.418  10.515  11.630 -2.9991  0.6948  0.0546
   64MOL0     H 8621   4.606  10.380  11.548  1.3305 -2.3543  0.9586
   64MOL0     H 8622   4.798   9.904  11.840 -1.9966 -0.7391 -0.3631
   64MOL0     H 8623   4.997   9.753  11.786 -0.7557 -0.3157  0.4484
   64MOL0     H 8624   5.867   8.156  11.006  2.0713  1.4368  0.8181
   64MOL0     H 8625   5.800   7.955  11.146 -1.5672 -1.0060  0.5325
   64MOL0     H 8626   5.655   7.810  11.535 -0.2688 -1.2101  0.4631
   64MOL0     H 8627   5.541   7.699  11.703  0.4774  1.0193 -1.3356
   64MOL0     H 8628   5.326   7.302  11.572 -1.7471 -0.7346 -0.3279
   64MOL0     H 8629   5.192   7.419  11.593 -0.6762 -2.0755 -0.4814
   64MOL0     H 8630   5.198   7.348  11.837 -2.0289 -1.7316  0.6647
   64MOL0     H 8631   5.346   7.259  11.810  1.2732  1.2914 -0.4888
   64MOL0     H 8632   5.238   7.118  11.640  2.1928  2.6729 -0.1860
   64MOL0     H 8633   5.085   7.184  11.688 -0.1461 -2.8546 -0.8149
   64MOL0     H 8634   5.286   7.047  11.879  0.4386 -0.4755 -0.2716
   64MOL0     H 8635   5.125   7.115  11.925  1.1072  1.4847 -1.0195
   64MOL0     H 8636   5.011   6.744  11.796  0.3389  0.4770  0.8907
   64MOL0     H 8637   5.306   7.480  11.423  2.4285 -2.5460 -0.8988
   64MOL0     H 8638   5.330   7.710  11.162 -0.0023 -0.3018 -1.4166
   64MOL0     H 8639   5.441   7.576  11.135  0.8501 -0.3155  1.8934
   64MOL0     H 8640   5.295   7.537  11.200  3.5312 -3.1544  1.1875
   65MOL0     O 8641   8.588   4.000   5.584  0.4870  0.5550 -0.2796
   65MOL0     C 8642   8.667   3.904   5.589  1.3468 -0.8749  0.3454
   65MOL0     O 8643   8.788   3.905   5.654 -0.6079 -1.0636  0.1234
   65MOL0     C 8644   8.830   4.022   5.715  0.4817  0.1819  0.4832
   65MOL0     C 8645   8.903   4.113   5.647 -0.2383 -0.5161  1.1229
   65MOL0     C 8646   8.970   4.220   5.707  0.2168 -0.5315 -0.1702
   65MOL0     C 8647   8.955   4.256   5.840 -0.2720 -0.1597 -1.3742
   65MOL0     O 8648   9.030   4.351   5.902  0.4106 -0.1593  0.7866
   65MOL0     C 8649   8.949   4.472   5.909  0.0967  0.3728  0.0118
   65MOL0     C 8650   9.021   4.588   5.974 -0.1670  0.6731 -0.1725
   65MOL0     C 8651   8.927   4.707   5.991 -0.1156  0.2332  0.8540
   65MOL0     C 8652   8.992   4.827   6.065 -0.3656 -0.2265 -0.4086
   65MOL0     C 8653   8.913   4.950   6.104 -0.2427  0.0040  0.0892
   65MOL0     C 8654   8.819   5.008   5.997  0.0904  0.2914  0.0661
   65MOL0     C 8655   8.756   5.141   6.048  0.0361 -0.6549 -0.4896
   65MOL0     C 8656   8.826   5.275   6.015  0.2233  0.9094  0.0250
   65MOL0     N 8657   8.821   5.292   5.878 -0.1504 -0.6078  0.6360
   65MOL0     C 8658   8.916   5.268   5.789 -0.5844 -0.2588  1.4864
   65MOL0     C 8659   8.852   5.300   5.675 -0.0393 -0.1593 -0.6921
   65MOL0     C 8660   8.915   5.320   5.536 -0.6936 -0.3236 -0.9535
   65MOL0     C 8661   8.974   5.188   5.488  0.1823  0.0242  0.8296
   65MOL0     C 8662   8.882   5.064   5.491 -0.2165  0.9414  0.5737
   65MOL0     C 8663   8.929   4.957   5.394 -0.4876  0.5098 -0.7615
   65MOL0     O 8664   8.998   4.860   5.474 -0.1176  0.9566  0.0459
   65MOL0     C 8665   8.998   4.727   5.435 -0.2593  0.0671  0.3846
   65MOL0     C 8666   8.944   4.672   5.308 -1.4644  0.7684  0.1988
   65MOL0     C 8667   8.966   4.536   5.281  0.6319  0.6846  0.6604
   65MOL0     C 8668   9.038   4.457   5.367 -0.4112  1.0380 -0.8617
   65MOL0     C 8669   9.049   4.317   5.342  0.0556  0.1037 -0.5446
   65MOL0     O 8670   8.977   4.257   5.241  0.0368 -0.8024  0.0455
   65MOL0     C 8671   8.982   4.129   5.228  0.0295 -0.0897  0.4522
   65MOL0     C 8672   9.091   4.062   5.168  0.6245  0.2021 -0.0283
   65MOL0     C 8673   9.088   3.923   5.173  0.5754 -0.5154 -0.6997
   65MOL0     C 8674   8.983   3.858   5.236  0.8570 -0.0944  0.1177
   65MOL0     O 8675   8.989   3.720   5.239  0.6647  0.1434 -0.5716
   65MOL0     C 8676   8.876   3.639   5.267  0.6097 -0.4064  0.2456
   65MOL0     C 8677   8.774   3.644   5.148 -1.0347  0.0548 -0.1976
   65MOL0     C 8678   8.718   3.503   5.125  0.0189 -0.2458  0.0145
   65MOL0     C 8679   8.644   3.498   4.987 -0.4993 -0.5854  0.2656
   65MOL0     C 8680   8.558   3.377   4.978  0.4375  0.4343 -0.9073
   65MOL0     C 8681   8.635   3.236   4.980  0.3370  0.1137  0.7016
   65MOL0     C 8682   8.768   3.224   4.900 -0.4422 -0.3003 -0.0213
   65MOL0     C 8683   8.826   3.081   4.910  0.2811 -0.2607 -0.1828
   65MOL0    Cl 8684   8.848   3.029   5.088  0.2063 -0.1196  0.3241
   65MOL0     C 8685   8.874   3.926   5.282  0.0589 -0.6824  0.3082
   65MOL0     C 8686   8.869   4.060   5.280  0.0679  0.0124  0.7805
   65MOL0     O 8687   9.129   4.257   5.415  1.0042 -0.2088 -0.7704
   65MOL0     C 8688   9.114   4.522   5.471  0.1073  0.2730  0.4430
   65MOL0     C 8689   9.068   4.636   5.518  0.0175 -0.6359  0.0163
   65MOL0     N 8690   8.730   5.333   5.695 -0.0969 -0.9348  0.1092
   65MOL0     N 8691   8.708   5.334   5.819  0.2310  0.3634  0.1864
   65MOL0     C 8692   8.877   4.166   5.918 -0.4261  0.2886  1.0181
   65MOL0     C 8693   8.822   4.049   5.855 -0.4429  0.0082 -0.3424
   65MOL0     C 8694   8.606   3.779   5.545 -0.2403  0.1957 -0.2841
   65MOL0     C 8695   8.683   3.666   5.564  0.5868 -0.4339 -0.4448
   65MOL0     C 8696   8.649   3.541   5.511  0.7128 -0.3928  0.7194
   65MOL0     C 8697   8.536   3.513   5.430 -0.2165  0.2345 -0.0473
   65MOL0     O 8698   8.505   3.393   5.367  0.4803 -0.3732 -0.5799
   65MOL0     C 8699   8.551   3.272   5.422 -0.5890 -0.1357  0.0550
   65MOL0     C 8700   8.493   3.145   5.352  0.0214 -0.8459 -0.5859
   65MOL0     C 8701   8.565   3.022   5.414  0.4425  0.2929  0.8967
   65MOL0     C 8702   8.484   2.896   5.380  0.0010  0.2606  0.3482
   65MOL0     C 8703   8.502   2.855   5.241 -0.1660  0.8108 -0.8193
   65MOL0     C 8704   8.485   2.811   5.126 -0.5003 -0.7476 -0.1819
   65MOL0     C 8705   8.457   3.625   5.413  0.4030 -0.0427  0.5467
   65MOL0     C 8706   8.488   3.760   5.463  0.5735  0.3841 -0.7223
   65MOL0     C 8707   8.404   3.875   5.411  1.0698  0.4884  0.7404
   65MOL0     H 8708   8.924   4.090   5.543  0.9305 -1.0241  1.4605
   65MOL0     H 8709   9.041   4.287   5.659 -3.2079  3.3006 -0.4888
   65MOL0     H 8710   8.927   4.506   5.807  0.4890 -0.2594 -0.2895
   65MOL0     H 8711   8.856   4.446   5.960 -0.5117 -0.5633 -1.5058
   65MOL0     H 8712   9.099   4.624   5.906  1.8397  1.0113  2.1734
   65MOL0     H 8713   9.076   4.563   6.066  0.9912  3.4817 -0.0185
   65MOL0     H 8714   8.842   4.682   6.055  0.0764  1.2887  1.5347
   65MOL0     H 8715   8.881   4.732   5.895 -0.1284 -2.4899  0.0487
   65MOL0     H 8716   9.028   4.789   6.161  1.9868  1.8504 -0.3587
   65MOL0     H 8717   9.085   4.842   6.009  1.9970  0.0670  3.2089
   65MOL0     H 8718   8.846   4.918   6.184  0.0500 -0.9173 -0.0214
   65MOL0     H 8719   8.981   5.027   6.141  0.0279  0.9857 -2.3154
   65MOL0     H 8720   8.879   5.022   5.906 -1.2816  3.1397 -0.5105
   65MOL0     H 8721   8.744   4.930   5.984 -0.0590  0.3224  0.7291
   65MOL0     H 8722   8.731   5.134   6.154 -1.2586 -0.5094 -0.7733
   65MOL0     H 8723   8.659   5.146   5.998  1.3407 -4.5445 -3.9627
   65MOL0     H 8724   8.778   5.356   6.070 -0.6647 -0.5738  1.5238
   65MOL0     H 8725   8.927   5.272   6.056  0.6450 -3.7111 -0.7714
   65MOL0     H 8726   9.019   5.239   5.806 -0.7948 -3.0580 -1.1907
   65MOL0     H 8727   8.844   5.356   5.462 -0.3180 -2.2112 -2.3098
   65MOL0     H 8728   8.995   5.394   5.541 -0.3082 -0.6948 -1.5505
   65MOL0     H 8729   8.998   5.205   5.383 -1.2201 -2.5346  0.0119
   65MOL0     H 8730   9.069   5.168   5.538  0.8110  2.3727  0.6744
   65MOL0     H 8731   8.781   5.095   5.462  0.4188  0.9498 -1.8698
   65MOL0     H 8732   8.870   5.014   5.587 -1.7323 -1.6037 -0.8505
   65MOL0     H 8733   9.004   5.005   5.330  1.3193  2.2687  2.4514
   65MOL0     H 8734   8.843   4.921   5.336 -1.9323  2.5962 -0.0319
   65MOL0     H 8735   8.881   4.732   5.243 -0.7688  0.3257 -0.9031
   65MOL0     H 8736   8.912   4.489   5.199  0.9882 -0.7340  1.2022
   65MOL0     H 8737   9.171   4.116   5.119  0.0803  1.4234  0.4010
   65MOL0     H 8738   9.173   3.866   5.138  0.5246 -1.2263  0.2869
   65MOL0     H 8739   8.908   3.535   5.279 -0.4460 -0.9307 -1.1382
   65MOL0     H 8740   8.844   3.676   5.364 -0.7815  1.6884 -0.9329
   65MOL0     H 8741   8.684   3.700   5.176 -1.2036 -0.2396 -0.1441
   65MOL0     H 8742   8.816   3.688   5.057  0.1134  1.1718  0.8430
   65MOL0     H 8743   8.797   3.427   5.127 -2.8256 -3.4284  2.2788
   65MOL0     H 8744   8.646   3.477   5.204  0.7922 -1.0542  0.4763
   65MOL0     H 8745   8.711   3.505   4.901 -2.4835 -3.8544 -1.7706
   65MOL0     H 8746   8.576   3.583   4.991 -0.2246 -0.3938  2.1010
   65MOL0     H 8747   8.509   3.386   4.881  1.6070 -1.4395 -1.7308
   65MOL0     H 8748   8.489   3.378   5.063  4.4647  0.2496  2.7030
   65MOL0     H 8749   8.670   3.227   5.084  1.0534  1.8844  0.6568
   65MOL0     H 8750   8.559   3.160   4.965 -1.3205  1.6446  0.9712
   65MOL0     H 8751   8.831   3.295   4.953 -1.2157  2.4907 -2.5946
   65MOL0     H 8752   8.757   3.265   4.799  3.8383 -0.4892 -0.7372
   65MOL0     H 8753   8.770   3.014   4.844  1.4724 -0.5212 -0.9770
   65MOL0     H 8754   8.928   3.087   4.870 -0.3047 -3.1389 -2.4791
   65MOL0     H 8755   8.786   3.883   5.329 -0.2389 -1.1006 -0.6060
   65MOL0     H 8756   8.783   4.119   5.309 -0.7848  0.3220 -2.0354
   65MOL0     H 8757   9.196   4.472   5.520  2.2355  2.7776 -0.3028
   65MOL0     H 8758   9.110   4.678   5.608 -0.1427 -0.6188  0.0833
   65MOL0     H 8759   8.878   4.179   6.026 -1.7065 -3.1079  1.5601
   65MOL0     H 8760   8.754   3.993   5.919  1.8485 -2.2335  0.2742
   65MOL0     H 8761   8.777   3.672   5.618  1.0424  1.4247 -1.3427
   65MOL0     H 8762   8.730   3.468   5.515  1.3458  0.0558 -1.9484
   65MOL0     H 8763   8.530   3.264   5.529 -1.5013 -0.7256 -0.1580
   65MOL0     H 8764   8.656   3.283   5.392 -0.5772  4.5401  1.0406
   65MOL0     H 8765   8.519   3.138   5.246  2.5004 -2.2706  0.0240
   65MOL0     H 8766   8.385   3.144   5.370 -0.2332 -1.5596 -1.9926
   65MOL0     H 8767   8.559   3.042   5.521  1.1632 -2.1000  1.4268
   65MOL0     H 8768   8.666   3.014   5.372 -0.6568  0.5604 -2.0803
   65MOL0     H 8769   8.506   2.807   5.440 -1.1498  0.1014  0.5487
   65MOL0     H 8770   8.378   2.910   5.398 -0.2855  1.3222 -1.8602
   65MOL0     H 8771   8.471   2.785   5.023  2.7761  1.5878 -1.4066
   65MOL0     H 8772   8.371   3.613   5.348  1.7693 -1.9424 -1.0722
   65MOL0     H 8773   8.318   3.834   5.357 -0.3545  1.9162  1.8304
   65MOL0     H 8774   8.360   3.918   5.501  1.2772  0.3108  0.9287
   65MOL0     H 8775   8.464   3.941   5.348  1.2459  0.3931  0.8083
   66MOL0     O 8776   9.527   7.828   7.742  0.0521 -0.6944 -1.3361
   66MOL0     C 8777   9.640   7.859   7.738 -0.4228 -0.3030  0.5509
   66MOL0     O 8778   9.744   7.770   7.694  0.2287 -0.9952  0.9394
   66MOL0     C 8779   9.704   7.644   7.657  0.2582  1.2899  0.5904
   66MOL0     C 8780   9.683   7.602   7.533 -0.5075 -0.3561  1.2462
   66MOL0     C 8781   9.630   7.472   7.498 -0.3995 -0.0118 -0.1193
   66MOL0     C 8782   9.618   7.371   7.598  0.7098  0.5684  0.5217
   66MOL0     O 8783   9.588   7.241   7.578  0.2951 -0.1530  0.7589
   66MOL0     C 8784   9.463   7.218   7.512 -0.0768 -0.8105  1.6952
   66MOL0     C 8785   9.431   7.064   7.492 -0.1232 -0.4055  0.3746
   66MOL0     C 8786   9.542   6.966   7.467  0.7914 -0.4570  0.2961
   66MOL0     C 8787   9.494   6.838   7.397 -1.1546 -0.0429  0.1601
   66MOL0     C 8788   9.610   6.732   7.389 -0.2825 -0.6968  0.1719
   66MOL0     C 8789   9.718   6.774   7.284 -0.1292 -0.5467  0.0651
   66MOL0     C 8790   9.835   6.680   7.286 -0.6493 -0.0678 -0.3145
   66MOL0     C 8791   9.959   6.735   7.369 -0.3912 -0.1474  0.0304
   66MOL0     N 8792   9.923   6.736   7.517 -0.2757 -0.7590 -0.1062
   66MOL0     C 8793   9.853   6.840   7.587 -0.4178  0.1101  1.0188
   66MOL0     C 8794   9.846   6.798   7.713  1.0460 -0.6554 -0.4853
   66MOL0     C 8795   9.774   6.851   7.838  0.3960 -0.4989 -0.0009
   66MOL0     C 8796   9.678   6.974   7.802 -0.7607 -0.6911 -0.5769
   66MOL0     C 8797   9.660   7.070   7.926 -1.2267 -1.1117  0.0395
   66MOL0     C 8798   9.798   7.147   7.950 -0.2483  0.4887  0.6200
   66MOL0     O 8799   9.790   7.281   8.004  0.2067 -0.1482  0.4830
   66MOL0     C 8800   9.768   7.272   8.135  0.1995 -0.2198  0.5304
   66MOL0     C 8801   9.865   7.229   8.231  0.1761 -0.0516 -0.4635
   66MOL0     C 8802   9.845   7.232   8.362  0.4036 -0.0888 -0.2018
   66MOL0     C 8803   9.717   7.275   8.406  1.0888 -0.2830  0.3824
   66MOL0     C 8804   9.675   7.265   8.546 -0.7070  0.0112  0.1287
   66MOL0     O 8805   9.544   7.245   8.580 -0.2701 -0.5640  0.7336
   66MOL0     C 8806   9.508   7.188   8.697  0.4580  0.7894  0.5690
   66MOL0     C 8807   9.546   7.051   8.724  0.9209  0.3052 -0.1881
   66MOL0     C 8808   9.498   6.986   8.840  0.2649 -0.5769 -0.4947
   66MOL0     C 8809   9.423   7.062   8.929 -0.2725  0.2448 -0.1233
   66MOL0     O 8810   9.372   7.019   9.045  0.1738 -0.6167 -0.1617
   66MOL0     C 8811   9.460   6.953   9.140  0.0845  0.8946 -0.2537
   66MOL0     C 8812   9.374   6.925   9.267  0.4972 -0.4789 -0.5521
   66MOL0     C 8813   9.351   7.041   9.377 -0.8799 -0.3323 -0.2649
   66MOL0     C 8814   9.301   7.168   9.313 -0.2545  0.2596 -0.2581
   66MOL0     C 8815   9.271   7.270   9.424 -0.6281  0.4505 -0.2462
   66MOL0     C 8816   9.165   7.362   9.357  0.3288 -0.7362  0.5444
   66MOL0     C 8817   9.223   7.437   9.248 -0.6932 -0.7918  0.0034
   66MOL0     C 8818   9.146   7.566   9.226 -0.3272  1.5578 -0.3470
   66MOL0    Cl 8819   9.222   7.650   9.088  0.6258 -0.3190 -0.0746
   66MOL0     C 8820   9.378   7.190   8.898  0.5744  0.5756  0.6258
   66MOL0     C 8821   9.421   7.253   8.782  1.0771  0.2891 -0.3960
   66MOL0     O 8822   9.767   7.252   8.621 -0.5179 -0.6764  0.4097
   66MOL0     C 8823   9.613   7.314   8.315 -0.8949 -0.4669 -0.1651
   66MOL0     C 8824   9.640   7.312   8.176 -0.7048 -0.4484 -0.1267
   66MOL0     N 8825   9.902   6.665   7.716 -0.1900  0.4008  0.6359
   66MOL0     N 8826   9.932   6.624   7.594  0.6725 -0.2631  0.0924
   66MOL0     C 8827   9.644   7.413   7.727 -0.6110 -0.2382  0.2375
   66MOL0     C 8828   9.684   7.544   7.756 -0.5310 -0.0263  0.2578
   66MOL0     C 8829   9.672   7.995   7.779 -0.4210 -0.1358 -0.3688
   66MOL0     C 8830   9.794   8.051   7.730  0.4448 -0.0590  0.9097
   66MOL0     C 8831   9.824   8.186   7.751 -0.4694 -0.5902 -0.2888
   66MOL0     C 8832   9.743   8.265   7.823  0.7786  0.4436  0.3705
   66MOL0     O 8833   9.782   8.392   7.865 -0.4522  0.4724 -0.1285
   66MOL0     C 8834   9.684   8.500   7.871  0.1382 -0.0710 -0.3175
   66MOL0     C 8835   9.586   8.519   7.756 -0.0334 -0.5127  0.2625
   66MOL0     C 8836   9.480   8.626   7.804 -0.0912 -0.5015 -0.8662
   66MOL0     C 8837   9.521   8.765   7.739 -0.0793  0.5805 -0.5208
   66MOL0     C 8838   9.423   8.873   7.765  0.1012  1.7666  0.3062
   66MOL0     C 8839   9.345   8.959   7.797  0.1769 -0.3278 -0.0878
   66MOL0     C 8840   9.618   8.217   7.863  0.0322 -0.0366 -0.6833
   66MOL0     C 8841   9.582   8.084   7.851 -0.1726  0.5775 -0.5490
   66MOL0     C 8842   9.449   8.047   7.918 -0.4929  0.2513 -0.7990
   66MOL0     H 8843   9.703   7.675   7.455 -0.1044 -1.6299  0.1154
   66MOL0     H 8844   9.608   7.459   7.393 -1.3104 -1.8828  0.2689
   66MOL0     H 8845   9.381   7.269   7.564  0.6631  0.4796  1.6247
   66MOL0     H 8846   9.461   7.258   7.410  1.1628 -3.6228  0.4664
   66MOL0     H 8847   9.360   7.063   7.410 -0.6175  1.4718  0.7280
   66MOL0     H 8848   9.393   7.037   7.591  1.8109  1.8540  1.8579
   66MOL0     H 8849   9.587   6.926   7.558 -1.4579 -1.9518  0.8454
   66MOL0     H 8850   9.603   7.024   7.398 -2.7049  1.7335 -1.2853
   66MOL0     H 8851   9.418   6.792   7.461  3.1268 -1.1229  5.1152
   66MOL0     H 8852   9.460   6.878   7.301  0.5071  1.8741  0.3085
   66MOL0     H 8853   9.658   6.717   7.487  0.3274  0.8756  0.1527
   66MOL0     H 8854   9.568   6.641   7.345 -1.6008  0.1776 -0.4147
   66MOL0     H 8855   9.671   6.779   7.186 -3.3739  0.5887  1.5338
   66MOL0     H 8856   9.758   6.872   7.311 -0.0154 -0.5121 -0.2296
   66MOL0     H 8857   9.857   6.672   7.179 -0.1922  3.8950 -0.6411
   66MOL0     H 8858   9.805   6.582   7.326  0.0286 -0.1393  0.0296
   66MOL0     H 8859  10.034   6.658   7.346  2.6198  2.9510 -1.4287
   66MOL0     H 8860   9.990   6.837   7.343  1.1407 -1.2249 -2.8832
   66MOL0     H 8861   9.828   6.937   7.546 -2.1190  0.5855  3.0119
   66MOL0     H 8862   9.723   6.774   7.896  0.6656  0.4698  1.6060
   66MOL0     H 8863   9.850   6.884   7.911  1.3869 -0.1294 -1.1691
   66MOL0     H 8864   9.716   7.031   7.717 -4.3652  0.9098 -1.3266
   66MOL0     H 8865   9.579   6.943   7.767 -1.3764 -0.5264  0.9129
   66MOL0     H 8866   9.623   7.034   8.022  0.3145  1.2992  1.6874
   66MOL0     H 8867   9.586   7.146   7.900 -2.8320 -1.9775  1.8778
   66MOL0     H 8868   9.855   7.147   7.856  0.9698  0.2822  1.3438
   66MOL0     H 8869   9.863   7.084   8.012  0.4983  2.2754  1.7016
   66MOL0     H 8870   9.961   7.210   8.184 -1.3231  0.0097 -3.8265
   66MOL0     H 8871   9.921   7.189   8.428 -1.3698 -3.3421 -0.0855
   66MOL0     H 8872   9.608   6.999   8.652  1.7553  1.5695 -0.4106
   66MOL0     H 8873   9.518   6.881   8.858  0.9856 -0.9730 -3.1191
   66MOL0     H 8874   9.505   6.862   9.099 -1.5740 -0.0548 -0.0548
   66MOL0     H 8875   9.535   7.019   9.185 -1.0086  1.0132  1.4650
   66MOL0     H 8876   9.277   6.884   9.237 -0.7290  0.5760  1.7210
   66MOL0     H 8877   9.424   6.842   9.319  1.3934 -0.5389 -1.4897
   66MOL0     H 8878   9.272   7.010   9.447 -0.1715 -0.9857  0.2477
   66MOL0     H 8879   9.441   7.064   9.435 -1.6439  1.3826  0.3393
   66MOL0     H 8880   9.207   7.144   9.263 -0.2660 -0.6603  0.2002
   66MOL0     H 8881   9.380   7.209   9.249  1.0292  0.6566  1.5012
   66MOL0     H 8882   9.361   7.319   9.461  0.3898 -1.7418  0.3179
   66MOL0     H 8883   9.222   7.218   9.507  1.7710  0.3493  1.1864
   66MOL0     H 8884   9.072   7.316   9.322 -0.1135  0.3693  0.2125
   66MOL0     H 8885   9.129   7.433   9.432 -0.9407 -2.1006  1.2936
   66MOL0     H 8886   9.216   7.382   9.154 -0.9356 -0.2818 -0.2802
   66MOL0     H 8887   9.326   7.456   9.278 -0.0138  0.5102 -2.8417
   66MOL0     H 8888   9.040   7.550   9.204 -0.4594  0.2327  1.0274
   66MOL0     H 8889   9.147   7.628   9.316 -2.2359  0.0985  0.7592
   66MOL0     H 8890   9.301   7.236   8.960 -3.5629 -1.8042 -2.2184
   66MOL0     H 8891   9.379   7.349   8.753 -1.4680 -0.7413 -0.3735
   66MOL0     H 8892   9.520   7.354   8.354 -0.7860  0.2091 -0.5765
   66MOL0     H 8893   9.564   7.360   8.116 -0.8720 -1.3890 -0.6843
   66MOL0     H 8894   9.634   7.348   7.813 -2.2028 -0.2534  0.0715
   66MOL0     H 8895   9.694   7.569   7.861 -4.0389  2.8831  0.0926
   66MOL0     H 8896   9.851   7.997   7.655 -0.1401  3.2306 -2.1945
   66MOL0     H 8897   9.924   8.225   7.734 -0.7916  0.4412  0.0972
   66MOL0     H 8898   9.739   8.593   7.889 -1.2645  0.6471  0.4495
   66MOL0     H 8899   9.622   8.492   7.961  0.3406  1.5987  0.0121
   66MOL0     H 8900   9.527   8.427   7.756 -0.5010 -0.2337 -1.0438
   66MOL0     H 8901   9.639   8.549   7.665 -0.4464  3.1272  1.0579
   66MOL0     H 8902   9.497   8.655   7.909  2.6207 -0.2841 -1.2894
   66MOL0     H 8903   9.375   8.605   7.783 -0.8679  1.7034  0.3658
   66MOL0     H 8904   9.623   8.784   7.775 -1.0956  1.8924  1.9028
   66MOL0     H 8905   9.518   8.747   7.631 -0.8164 -1.9871 -0.1501
   66MOL0     H 8906   9.280   9.040   7.822 -0.8108 -1.3127  0.6207
   66MOL0     H 8907   9.564   8.283   7.930 -0.2660 -3.1488  2.3668
   66MOL0     H 8908   9.432   8.128   7.989  2.2288  1.2468 -1.1563
   66MOL0     H 8909   9.371   8.026   7.845 -0.0228  3.7139 -2.4928
   66MOL0     H 8910   9.463   7.957   7.979 -1.2580 -0.9613 -2.3421
   67MOL0     O 8911   7.521   4.736   4.089  0.8769  0.7126  0.1007
   67MOL0     C 8912   7.429   4.781   4.150 -0.5517 -0.0535 -0.2069
   67MOL0     O 8913   7.292   4.765   4.109 -0.0226 -0.2371  0.5242
   67MOL0     C 8914   7.264   4.668   4.013 -0.5842  0.7255  0.2375
   67MOL0     C 8915   7.302   4.533   4.030 -0.0998  0.8184  0.2258
   67MOL0     C 8916   7.257   4.429   3.934 -0.5006 -0.4942  0.2129
   67MOL0     C 8917   7.170   4.471   3.831 -0.3720 -0.0112 -0.4674
   67MOL0     O 8918   7.119   4.386   3.736  0.4390 -0.4299 -0.0616
   67MOL0     C 8919   7.120   4.247   3.749 -0.3967  0.5316 -0.6626
   67MOL0     C 8920   7.068   4.173   3.630  1.0503 -0.3503  0.2641
   67MOL0     C 8921   6.921   4.173   3.594  0.3753 -0.4398 -0.3564
   67MOL0     C 8922   6.906   4.093   3.456  0.0391 -0.5731  0.1241
   67MOL0     C 8923   6.773   4.116   3.398 -0.6196 -0.5045  1.0488
   67MOL0     C 8924   6.726   4.259   3.384 -1.2159  0.0008 -0.6425
   67MOL0     C 8925   6.833   4.352   3.329 -0.0354  0.0718  0.1222
   67MOL0     C 8926   6.792   4.495   3.304  0.2677  0.3717 -0.0297
   67MOL0     N 8927   6.707   4.538   3.408  0.3183 -0.5649 -0.6218
   67MOL0     C 8928   6.754   4.577   3.536  0.7381 -0.1053 -0.0719
   67MOL0     C 8929   6.636   4.615   3.602 -1.1347  0.7731 -0.3522
   67MOL0     C 8930   6.623   4.636   3.745  0.4202  0.2832 -0.2498
   67MOL0     C 8931   6.566   4.519   3.814  0.3670 -0.3054  0.3425
   67MOL0     C 8932   6.676   4.409   3.825 -0.0900 -0.9645  0.4323
   67MOL0     C 8933   6.682   4.340   3.956 -0.8314 -0.1888 -0.7580
   67MOL0     O 8934   6.561   4.282   3.999 -0.4762 -0.7292 -0.8118
   67MOL0     C 8935   6.540   4.224   4.123 -0.2869 -0.0999 -0.9903
   67MOL0     C 8936   6.422   4.151   4.147  0.1242 -0.8423  0.5187
   67MOL0     C 8937   6.399   4.080   4.266 -0.8198  0.2923  0.2864
   67MOL0     C 8938   6.492   4.082   4.368 -0.3527  0.8311 -0.3273
   67MOL0     C 8939   6.478   3.988   4.488 -0.7109 -0.0319  0.4767
   67MOL0     O 8940   6.590   3.977   4.580  1.2672  0.4422 -0.2731
   67MOL0     C 8941   6.617   3.860   4.654 -0.4178  0.6247 -0.4181
   67MOL0     C 8942   6.748   3.835   4.705  0.9842 -0.9305 -0.0798
   67MOL0     C 8943   6.779   3.719   4.782 -0.0474  0.2056 -0.5024
   67MOL0     C 8944   6.676   3.630   4.811  0.3631 -0.2843 -0.4423
   67MOL0     O 8945   6.710   3.526   4.895 -0.1074 -0.4329 -0.4401
   67MOL0     C 8946   6.614   3.438   4.957  0.1206 -0.5210  0.3792
   67MOL0     C 8947   6.547   3.515   5.077 -1.3691  0.2094  0.0454
   67MOL0     C 8948   6.631   3.540   5.198  0.2639 -0.3494  0.4663
   67MOL0     C 8949   6.539   3.602   5.298  0.3244  0.1381  1.0358
   67MOL0     C 8950   6.594   3.626   5.444  0.1534  0.3156  0.5640
   67MOL0     C 8951   6.510   3.716   5.527 -0.3380 -0.3725  0.3239
   67MOL0     C 8952   6.582   3.765   5.649  0.2430  0.7489 -0.5623
   67MOL0     C 8953   6.552   3.914   5.687  0.3236  0.3636  0.7144
   67MOL0    Cl 8954   6.611   3.928   5.850 -0.1997  0.0737 -0.2170
   67MOL0     C 8955   6.548   3.649   4.757  0.3441  0.1574 -0.1051
   67MOL0     C 8956   6.524   3.762   4.681 -0.6910 -0.5078  0.9779
   67MOL0     O 8957   6.366   3.955   4.512 -0.3244  0.3096  0.0959
   67MOL0     C 8958   6.606   4.170   4.356 -0.3231 -0.4648  0.5674
   67MOL0     C 8959   6.630   4.229   4.233  0.1638 -0.2744 -0.0473
   67MOL0     N 8960   6.535   4.599   3.510  0.7777  0.0813  0.5081
   67MOL0     N 8961   6.567   4.549   3.397 -0.6767  0.0258 -0.2937
   67MOL0     C 8962   7.123   4.601   3.821  0.3942  0.4538  0.6060
   67MOL0     C 8963   7.167   4.699   3.916  0.3345  0.2987  0.0218
   67MOL0     C 8964   7.440   4.841   4.283 -0.1514  0.1850 -0.5863
   67MOL0     C 8965   7.349   4.817   4.386 -0.0886 -0.1040  0.1867
   67MOL0     C 8966   7.375   4.856   4.515  0.2998  0.2191 -0.1973
   67MOL0     C 8967   7.497   4.908   4.553  0.5503  0.6513  0.1386
   67MOL0     O 8968   7.515   4.953   4.685 -0.0378 -0.0046 -0.5139
   67MOL0     C 8969   7.602   5.053   4.721 -0.4756  0.3239  1.4250
   67MOL0     C 8970   7.610   5.040   4.878  1.3498 -0.6941 -0.1278
   67MOL0     C 8971   7.473   5.067   4.945 -0.2802  0.3513 -0.3172
   67MOL0     C 8972   7.484   5.063   5.096 -0.1003 -1.4491 -0.0093
   67MOL0     C 8973   7.363   5.118   5.159  0.7597 -0.1944 -1.1022
   67MOL0     C 8974   7.255   5.154   5.204 -0.5317 -0.3598  1.2777
   67MOL0     C 8975   7.583   4.938   4.448 -0.4555 -0.4450 -0.4400
   67MOL0     C 8976   7.559   4.901   4.317  0.2900 -0.8424 -0.3391
   67MOL0     C 8977   7.667   4.950   4.215 -0.2175 -0.7799 -0.0318
   67MOL0     H 8978   7.362   4.499   4.113  0.0743 -1.5164 -0.7920
   67MOL0     H 8979   7.300   4.330   3.945 -3.1626 -1.9038 -1.0898
   67MOL0     H 8980   7.225   4.218   3.762 -0.7380 -0.3721  0.2293
   67MOL0     H 8981   7.073   4.213   3.842  2.5723 -0.3387  0.6421
   67MOL0     H 8982   7.082   4.067   3.652 -0.7460 -0.3732  1.5019
   67MOL0     H 8983   7.127   4.199   3.542  0.6073 -3.8028 -1.2424
   67MOL0     H 8984   6.878   4.274   3.585 -1.1171 -1.0124  0.1230
   67MOL0     H 8985   6.861   4.118   3.667  0.9996 -2.0939 -1.0535
   67MOL0     H 8986   6.988   4.121   3.389  0.3036 -5.7607 -2.1990
   67MOL0     H 8987   6.917   3.986   3.479  0.2661 -1.2147 -2.6448
   67MOL0     H 8988   6.766   4.090   3.292 -0.5601  1.4758  0.5283
   67MOL0     H 8989   6.707   4.058   3.463 -2.2056 -0.2656 -0.3001
   67MOL0     H 8990   6.638   4.260   3.318 -0.9062 -3.3939 -1.3194
   67MOL0     H 8991   6.690   4.280   3.486  1.7686 -1.5578  0.8547
   67MOL0     H 8992   6.860   4.304   3.235 -0.8650  0.0106 -0.0885
   67MOL0     H 8993   6.925   4.356   3.389  0.1622 -0.9557 -0.0950
   67MOL0     H 8994   6.887   4.550   3.295  0.6966 -0.6651 -3.0474
   67MOL0     H 8995   6.734   4.492   3.212 -2.0826 -4.3728  1.3128
   67MOL0     H 8996   6.857   4.569   3.572 -0.3361 -0.5785  3.2242
   67MOL0     H 8997   6.724   4.661   3.779  0.3655  2.9178 -1.7617
   67MOL0     H 8998   6.554   4.718   3.767 -1.0664 -1.7559  3.7005
   67MOL0     H 8999   6.542   4.554   3.915  2.8745  2.7802  0.0032
   67MOL0     H 9000   6.478   4.471   3.769  0.5455 -2.4852  2.0821
   67MOL0     H 9001   6.779   4.446   3.820  1.0136 -3.8093 -0.1181
   67MOL0     H 9002   6.675   4.345   3.736  1.5531 -2.2482  1.2781
   67MOL0     H 9003   6.716   4.404   4.037 -0.3202 -0.8613 -0.4297
   67MOL0     H 9004   6.764   4.269   3.942  1.3049  1.9858  0.1281
   67MOL0     H 9005   6.345   4.161   4.072  0.7899  2.8459  0.1087
   67MOL0     H 9006   6.309   4.022   4.277  0.0530 -1.1719 -0.0869
   67MOL0     H 9007   6.818   3.906   4.661 -0.0211  0.0089 -0.2212
   67MOL0     H 9008   6.878   3.705   4.823 -0.6419 -0.8520  0.6522
   67MOL0     H 9009   6.544   3.400   4.882  2.3819 -1.3998 -1.3896
   67MOL0     H 9010   6.662   3.349   4.996 -3.4216 -2.2669  1.1944
   67MOL0     H 9011   6.517   3.616   5.046 -1.4400 -0.0246 -0.6572
   67MOL0     H 9012   6.449   3.471   5.098 -0.2598 -2.7747 -0.5238
   67MOL0     H 9013   6.680   3.453   5.242  3.1921  0.9966  0.1331
   67MOL0     H 9014   6.716   3.598   5.161  1.2501 -1.9376  0.1588
   67MOL0     H 9015   6.443   3.550   5.310  0.5230 -0.0677  1.7500
   67MOL0     H 9016   6.507   3.700   5.262 -0.0332  0.1055  1.2596
   67MOL0     H 9017   6.688   3.678   5.425 -0.1394 -0.5297 -4.6078
   67MOL0     H 9018   6.610   3.534   5.501 -0.5845 -1.4056 -1.8381
   67MOL0     H 9019   6.487   3.802   5.464 -0.4304 -0.8205 -0.2676
   67MOL0     H 9020   6.413   3.672   5.555 -1.3297  1.2193 -0.4581
   67MOL0     H 9021   6.689   3.753   5.632  0.2500  1.7600 -1.3518
   67MOL0     H 9022   6.562   3.697   5.733 -0.8328  1.0141 -0.5776
   67MOL0     H 9023   6.605   3.967   5.607  2.2332 -3.1011 -0.5391
   67MOL0     H 9024   6.443   3.923   5.690  0.0123 -1.8674 -0.9492
   67MOL0     H 9025   6.470   3.574   4.759  3.1675 -3.0157  0.7835
   67MOL0     H 9026   6.425   3.759   4.636 -1.6844 -0.4993  3.0433
   67MOL0     H 9027   6.682   4.159   4.432  1.9460 -4.2630 -1.9462
   67MOL0     H 9028   6.723   4.284   4.217 -0.7874  1.2929 -0.4190
   67MOL0     H 9029   7.060   4.619   3.735 -0.0636 -2.6888  0.1676
   67MOL0     H 9030   7.146   4.805   3.920  2.2550  0.6733  0.8883
   67MOL0     H 9031   7.251   4.772   4.368 -0.1528 -0.1098  0.5349
   67MOL0     H 9032   7.309   4.819   4.593  0.9724 -1.9609 -0.6036
   67MOL0     H 9033   7.566   5.150   4.685  0.2963  0.6989  1.6548
   67MOL0     H 9034   7.694   5.034   4.665 -2.3726 -6.7251 -0.3580
   67MOL0     H 9035   7.687   5.112   4.908 -2.6477  3.0222  2.2806
   67MOL0     H 9036   7.640   4.940   4.911  0.5536 -0.4515  1.3954
   67MOL0     H 9037   7.400   4.990   4.917 -0.3353  0.2674  0.0465
   67MOL0     H 9038   7.444   5.163   4.901  1.6761  0.1737 -2.1755
   67MOL0     H 9039   7.482   4.957   5.123 -1.1976 -1.6921 -0.9789
   67MOL0     H 9040   7.578   5.111   5.125  0.6391 -2.7423 -0.2072
   67MOL0     H 9041   7.168   5.203   5.243 -1.2106  0.0539 -0.6407
   67MOL0     H 9042   7.671   4.995   4.477 -0.3429 -1.0378  0.4078
   67MOL0     H 9043   7.737   4.872   4.186  0.5171 -0.3762  0.6194
   67MOL0     H 9044   7.612   4.992   4.130 -0.7492  1.4056  1.2907
   67MOL0     H 9045   7.724   5.038   4.249  1.3871 -2.4123  1.7420
   68MOL0     O 9046   9.312   2.631   4.604  0.2914  0.5215 -0.1523
   68MOL0     C 9047   9.327   2.708   4.511 -0.9963  0.3654  0.0650
   68MOL0     O 9048   9.432   2.715   4.423  0.5621  0.0943  0.6355
   68MOL0     C 9049   9.517   2.609   4.405  0.0806 -1.0961  0.0674
   68MOL0     C 9050   9.569   2.587   4.280  0.0009  0.6502 -0.4680
   68MOL0     C 9051   9.642   2.475   4.241 -0.1576 -0.5154  0.8472
   68MOL0     C 9052   9.674   2.379   4.339 -0.3948  0.2043  0.4403
   68MOL0     O 9053   9.754   2.279   4.299 -0.4912 -0.6551 -0.0257
   68MOL0     C 9054   9.860   2.229   4.376  0.4166  0.4190  0.2232
   68MOL0     C 9055   9.923   2.116   4.293  0.2210 -0.7293 -0.5166
   68MOL0     C 9056  10.001   2.031   4.398  0.6613  0.1541  0.1643
   68MOL0     C 9057  10.060   1.907   4.342 -0.9236  0.8870  0.0002
   68MOL0     C 9058  10.138   1.826   4.441 -1.0117 -0.6720 -1.2562
   68MOL0     C 9059  10.044   1.760   4.544  0.5765 -0.2841  0.3162
   68MOL0     C 9060  10.109   1.690   4.663 -0.5614 -0.1768 -0.1446
   68MOL0     C 9061  10.183   1.556   4.631  0.5399 -1.0091 -0.3899
   68MOL0     N 9062  10.209   1.479   4.752 -1.1916 -0.7025 -0.7636
   68MOL0     C 9063  10.119   1.431   4.840  1.2440 -0.8105 -0.3009
   68MOL0     C 9064  10.183   1.327   4.912 -0.3375 -0.6206  0.3559
   68MOL0     C 9065  10.128   1.256   5.022  0.0576  1.2248  0.2132
   68MOL0     C 9066  10.202   1.243   5.160 -0.3238 -0.4389 -0.4231
   68MOL0     C 9067  10.181   1.101   5.206  0.3328 -1.4580 -0.2144
   68MOL0     C 9068  10.169   1.096   5.365  0.6612  1.3098  0.0913
   68MOL0     O 9069  10.056   1.172   5.414 -0.0431 -0.9077  0.0155
   68MOL0     C 9070  10.047   1.175   5.551 -0.1698 -0.2416  0.3279
   68MOL0     C 9071   9.962   1.269   5.610 -0.4614  0.2229 -0.5892
   68MOL0     C 9072   9.928   1.261   5.744  0.2572  0.0719  0.9807
   68MOL0     C 9073   9.992   1.165   5.832 -1.9590  0.0958  0.6629
   68MOL0     C 9074   9.971   1.165   5.977 -0.3856  0.3459  0.8339
   68MOL0     O 9075   9.857   1.226   6.022  0.6687 -0.2181 -0.4416
   68MOL0     C 9076   9.825   1.205   6.154  0.5695 -0.7531 -0.3321
   68MOL0     C 9077   9.898   1.272   6.257 -1.1551  0.3823 -0.9090
   68MOL0     C 9078   9.876   1.247   6.392 -1.7866  0.1539 -0.1362
   68MOL0     C 9079   9.776   1.153   6.429 -0.0372  1.0473  0.3103
   68MOL0     O 9080   9.748   1.126   6.561 -0.2271 -0.1740  0.4455
   68MOL0     C 9081   9.843   1.095   6.658  0.6336  0.6482 -0.7211
   68MOL0     C 9082   9.782   1.036   6.791  0.0428  0.3845  0.4703
   68MOL0     C 9083   9.712   0.902   6.754  0.4148  0.5595  0.8161
   68MOL0     C 9084   9.591   0.884   6.841 -0.2978  0.3685  0.1087
   68MOL0     C 9085   9.506   0.771   6.791 -0.8920 -0.7468 -0.4055
   68MOL0     C 9086   9.380   0.745   6.872 -0.1797  0.7398 -0.8278
   68MOL0     C 9087   9.385   0.623   6.976  0.5475 -0.1058  0.7990
   68MOL0     C 9088   9.281   0.522   6.937  0.5128  0.1678  0.1612
   68MOL0    Cl 9089   9.112   0.599   6.954 -0.0762  0.0452  0.0325
   68MOL0     C 9090   9.694   1.101   6.325  0.4860  0.3589  0.7050
   68MOL0     C 9091   9.717   1.134   6.194  0.5076  0.6120 -0.0393
   68MOL0     O 9092  10.043   1.092   6.040  0.7810  0.4777 -0.0217
   68MOL0     C 9093  10.096   1.090   5.777  0.8934  0.5261 -0.2433
   68MOL0     C 9094  10.116   1.085   5.637  0.2706  1.3882 -0.2363
   68MOL0     N 9095  10.317   1.324   4.861  0.7091  0.5332  0.3930
   68MOL0     N 9096  10.327   1.414   4.767  0.7274  0.5976  0.6295
   68MOL0     C 9097   9.630   2.403   4.476  0.0700 -0.1488 -0.2559
   68MOL0     C 9098   9.556   2.512   4.509  0.2315 -0.6348  0.7609
   68MOL0     C 9099   9.243   2.821   4.499  0.8004 -0.7431 -0.2011
   68MOL0     C 9100   9.285   2.934   4.416  0.6694 -0.4036 -0.2738
   68MOL0     C 9101   9.211   3.053   4.416 -0.6902 -0.7178  0.1112
   68MOL0     C 9102   9.092   3.062   4.493  0.4905  0.2120  0.1914
   68MOL0     O 9103   9.000   3.168   4.476  0.3696  0.5867  0.0982
   68MOL0     C 9104   9.023   3.285   4.390 -0.1143 -1.1350 -0.0215
   68MOL0     C 9105   8.928   3.381   4.458  0.3443  0.0748  0.4168
   68MOL0     C 9106   8.918   3.522   4.383  0.1411 -0.3704  0.0298
   68MOL0     C 9107   8.844   3.628   4.465  0.4028  0.0944  0.2122
   68MOL0     C 9108   8.735   3.607   4.558  0.3931 -0.3963 -0.0515
   68MOL0     C 9109   8.648   3.590   4.645  0.1836  0.1428 -0.1084
   68MOL0     C 9110   9.038   2.944   4.554 -0.2330 -0.4902  0.2882
   68MOL0     C 9111   9.117   2.831   4.565  0.0339 -0.5797 -0.5759
   68MOL0     C 9112   9.060   2.713   4.632 -0.1943 -0.9730 -0.3188
   68MOL0     H 9113   9.530   2.649   4.200 -0.0629 -2.1783 -2.7545
   68MOL0     H 9114   9.689   2.464   4.145  1.3830 -2.5884  1.7789
   68MOL0     H 9115   9.924   2.310   4.412  0.2030  0.8767 -0.4147
   68MOL0     H 9116   9.819   2.186   4.468 -0.9289 -2.6475 -1.6609
   68MOL0     H 9117   9.976   2.153   4.205 -4.0515  3.5264 -1.7092
   68MOL0     H 9118   9.836   2.064   4.253 -1.3267  2.1727 -1.1784
   68MOL0     H 9119   9.924   1.992   4.465  2.1819 -1.0247  1.2973
   68MOL0     H 9120  10.075   2.081   4.461 -0.2753  0.6628  0.8841
   68MOL0     H 9121   9.974   1.860   4.293 -0.8215  3.6958 -3.2224
   68MOL0     H 9122  10.128   1.938   4.263 -1.0363  0.0238 -0.4533
   68MOL0     H 9123  10.194   1.751   4.384  2.9009  1.2536 -0.3443
   68MOL0     H 9124  10.206   1.892   4.496  0.3559 -3.2209  0.2719
   68MOL0     H 9125   9.974   1.831   4.589  0.9920  1.1972 -1.2638
   68MOL0     H 9126   9.978   1.689   4.492 -0.8304  2.0177 -1.2085
   68MOL0     H 9127  10.032   1.650   4.729  0.0750  0.5567  1.0857
   68MOL0     H 9128  10.170   1.764   4.717  0.3460 -1.4232  0.6100
   68MOL0     H 9129  10.114   1.494   4.573  1.6608  0.4236 -3.4564
   68MOL0     H 9130  10.269   1.585   4.570  0.7973 -0.0071  0.4246
   68MOL0     H 9131  10.016   1.459   4.858  0.5448 -1.2659 -3.1859
   68MOL0     H 9132  10.023   1.285   5.034 -0.7511 -0.5354 -1.8861
   68MOL0     H 9133  10.136   1.156   4.978  1.5109  1.5884 -0.3933
   68MOL0     H 9134  10.309   1.254   5.143 -0.7668  2.0019 -2.1837
   68MOL0     H 9135  10.165   1.320   5.229  0.9066 -0.5671  0.4153
   68MOL0     H 9136  10.264   1.041   5.168  1.0742 -0.4006 -0.3178
   68MOL0     H 9137  10.088   1.062   5.165 -0.9554  2.0732 -1.0580
   68MOL0     H 9138  10.261   1.135   5.409  2.1849  1.1998 -2.7410
   68MOL0     H 9139  10.161   0.988   5.381  1.9671  1.0054 -1.0669
   68MOL0     H 9140   9.912   1.325   5.532  0.1232 -0.1692 -1.2617
   68MOL0     H 9141   9.847   1.317   5.789 -1.0170  0.4299 -1.5835
   68MOL0     H 9142   9.971   1.351   6.243 -1.4021  0.8339  0.3191
   68MOL0     H 9143   9.926   1.306   6.468 -2.6197  1.9888 -0.9532
   68MOL0     H 9144   9.905   1.020   6.606 -1.0566 -0.3157 -1.4278
   68MOL0     H 9145   9.898   1.180   6.699  0.3690  0.4409  0.0640
   68MOL0     H 9146   9.859   1.020   6.868  1.1381  2.4787 -0.1100
   68MOL0     H 9147   9.719   1.110   6.842  3.6654  2.9897  1.6234
   68MOL0     H 9148   9.684   0.902   6.649  2.7979  1.0232  0.1048
   68MOL0     H 9149   9.787   0.824   6.772  0.8961  0.7133 -0.4199
   68MOL0     H 9150   9.532   0.976   6.839 -1.6907 -0.2579  3.9418
   68MOL0     H 9151   9.615   0.866   6.947 -3.2174 -3.1658  0.3305
   68MOL0     H 9152   9.567   0.680   6.782  1.7715  0.7974  0.9807
   68MOL0     H 9153   9.473   0.810   6.695 -0.8388 -0.7353 -0.4196
   68MOL0     H 9154   9.357   0.831   6.936 -1.2138 -1.6276  2.2115
   68MOL0     H 9155   9.293   0.736   6.806 -0.6496 -0.9814 -0.0115
   68MOL0     H 9156   9.367   0.657   7.078 -0.3621  0.9379  0.3164
   68MOL0     H 9157   9.484   0.577   6.979 -0.6129 -2.7969  1.2949
   68MOL0     H 9158   9.293   0.482   6.836 -2.6438 -3.2245  0.9146
   68MOL0     H 9159   9.285   0.428   6.993 -1.0261 -0.1162 -0.1528
   68MOL0     H 9160   9.606   1.045   6.352  0.7203  0.4573  1.6924
   68MOL0     H 9161   9.643   1.107   6.119 -1.6207  0.1996  2.0813
   68MOL0     H 9162  10.145   1.021   5.844  0.1113  1.8427  1.8091
   68MOL0     H 9163  10.181   1.005   5.601 -3.3916 -2.0871  0.2070
   68MOL0     H 9164   9.662   2.348   4.564 -1.1727 -0.3322  0.1007
   68MOL0     H 9165   9.523   2.523   4.612  1.7679 -3.1550  1.5996
   68MOL0     H 9166   9.375   2.939   4.356  0.5371 -2.7549 -0.7435
   68MOL0     H 9167   9.246   3.126   4.344  1.0048 -2.9126 -1.3897
   68MOL0     H 9168   9.000   3.263   4.285 -1.0021 -2.1096  0.3593
   68MOL0     H 9169   9.126   3.320   4.375 -1.2050  2.5338  0.0181
   68MOL0     H 9170   8.955   3.400   4.562  0.6554  0.7439  0.2139
   68MOL0     H 9171   8.830   3.333   4.457  0.3935 -0.0546 -1.3604
   68MOL0     H 9172   8.877   3.519   4.282  0.1991  0.5878 -0.0319
   68MOL0     H 9173   9.023   3.553   4.378 -0.3956  1.3487 -1.9924
   68MOL0     H 9174   8.919   3.686   4.518  0.3917 -0.6851  1.1069
   68MOL0     H 9175   8.807   3.701   4.392  1.0087  2.3136  1.9989
   68MOL0     H 9176   8.568   3.574   4.714  1.1614 -1.8149  0.6584
   68MOL0     H 9177   8.935   2.955   4.586 -0.6397  0.3258 -1.2231
   68MOL0     H 9178   9.105   2.681   4.727 -0.6148 -2.9598 -0.7472
   68MOL0     H 9179   8.959   2.740   4.663  1.1269  1.1926  2.6900
   68MOL0     H 9180   9.072   2.634   4.557  2.6971  0.2395 -1.2545
   69MOL0     O 9181   0.706  10.480   3.695 -0.4158  0.1954 -0.2335
   69MOL0     C 9182   0.659  10.596   3.684  1.4914  0.3239  0.0578
   69MOL0     O 9183   0.535  10.623   3.639  0.2716 -0.2488  0.6046
   69MOL0     C 9184   0.452  10.522   3.595  0.5042  0.4324  0.7827
   69MOL0     C 9185   0.326  10.516   3.662 -0.1907  0.2013  0.8829
   69MOL0     C 9186   0.224  10.427   3.618  0.8279  0.5102  1.0017
   69MOL0     C 9187   0.247  10.347   3.507  0.0096 -0.5078 -0.4699
   69MOL0     O 9188   0.141  10.278   3.453 -0.3323  0.3868 -0.1641
   69MOL0     C 9189   0.133  10.143   3.507  0.8445  1.2932  0.1380
   69MOL0     C 9190   0.018  10.050   3.470  0.2894  0.6633  0.1533
   69MOL0     C 9191  -0.123  10.100   3.528 -0.0979 -0.6148  0.2203
   69MOL0     C 9192  -0.213   9.991   3.576  0.4046 -0.3966  0.1140
   69MOL0     C 9193  -0.355  10.053   3.595 -0.1536 -0.8374  0.6548
   69MOL0     C 9194  -0.456   9.970   3.680 -0.5173  0.1077 -0.4645
   69MOL0     C 9195  -0.502   9.842   3.600  0.0802 -0.2065 -0.1181
   69MOL0     C 9196  -0.619   9.892   3.512  0.8232  0.0408 -1.0714
   69MOL0     N 9197  -0.640   9.807   3.404 -0.9622  0.2993 -0.4404
   69MOL0     C 9198  -0.735   9.713   3.384 -0.0054  0.9089  0.2424
   69MOL0     C 9199  -0.696   9.635   3.285 -0.0918 -1.2554  0.0105
   69MOL0     C 9200  -0.759   9.503   3.248 -0.6916  0.2513 -0.5133
   69MOL0     C 9201  -0.712   9.407   3.362 -0.2999  0.3165  0.1964
   69MOL0     C 9202  -0.749   9.272   3.297  0.3666  0.0747  0.5973
   69MOL0     C 9203  -0.729   9.156   3.395 -0.1506 -0.9798  0.5183
   69MOL0     O 9204  -0.769   9.039   3.315  0.0548 -0.7192 -0.3195
   69MOL0     C 9205  -0.785   8.928   3.393  0.0151 -0.9825 -0.7550
   69MOL0     C 9206  -0.834   8.822   3.317 -0.9115 -0.4264  0.4253
   69MOL0     C 9207  -0.835   8.690   3.369  0.4051  0.3909  0.1847
   69MOL0     C 9208  -0.809   8.671   3.505  0.6632  0.7355  0.5130
   69MOL0     C 9209  -0.834   8.540   3.567  0.0591  0.1888 -0.4160
   69MOL0     O 9210  -0.814   8.529   3.703 -0.3585  0.0221  0.1758
   69MOL0     C 9211  -0.831   8.416   3.772 -0.2679 -0.2167 -1.7094
   69MOL0     C 9212  -0.806   8.434   3.908  0.8040 -0.0896  0.1266
   69MOL0     C 9213  -0.808   8.334   4.001  0.7127  0.8924  0.1306
   69MOL0     C 9214  -0.844   8.199   3.952 -0.3959  0.2918  0.0174
   69MOL0     O 9215  -0.855   8.080   4.023 -0.5400  0.6985  0.3902
   69MOL0     C 9216  -0.856   8.085   4.161  0.1103 -0.1976 -0.3774
   69MOL0     C 9217  -0.970   8.162   4.222  0.3388 -0.9974 -0.6298
   69MOL0     C 9218  -1.008   8.109   4.357 -0.0084  0.4692 -0.4172
   69MOL0     C 9219  -1.134   8.179   4.420 -1.5590  0.6883  0.6949
   69MOL0     C 9220  -1.192   8.134   4.555  0.2859 -0.7758  1.6070
   69MOL0     C 9221  -1.085   8.131   4.660 -0.3964 -0.2109 -0.7231
   69MOL0     C 9222  -1.033   8.274   4.694  0.0264  0.2650  0.0837
   69MOL0     C 9223  -0.983   8.290   4.831 -0.8418 -0.4442  0.1136
   69MOL0    Cl 9224  -0.828   8.205   4.869 -0.2876  0.1886  0.0368
   69MOL0     C 9225  -0.848   8.182   3.813 -0.8271 -0.6484 -0.2921
   69MOL0     C 9226  -0.837   8.286   3.727 -0.2919  0.1757  0.0016
   69MOL0     O 9227  -0.900   8.455   3.501 -0.5351  0.5538  0.4574
   69MOL0     C 9228  -0.756   8.773   3.582 -0.4832 -0.2016  0.9060
   69MOL0     C 9229  -0.761   8.903   3.532 -0.2467 -1.2617 -0.0086
   69MOL0     N 9230  -0.569   9.680   3.246  0.6459  0.0528 -0.3160
   69MOL0     N 9231  -0.544   9.793   3.305 -0.1343 -0.6441 -0.2632
   69MOL0     C 9232   0.361  10.353   3.436  0.1320 -0.7235  0.0745
   69MOL0     C 9233   0.471  10.441   3.478  1.6091  0.0752  0.4361
   69MOL0     C 9234   0.732  10.719   3.719  0.0217  0.4995 -0.3977
   69MOL0     C 9235   0.663  10.838   3.763 -0.1585  0.1661  0.7665
   69MOL0     C 9236   0.735  10.952   3.799  0.6153 -0.8396 -0.6735
   69MOL0     C 9237   0.870  10.949   3.802  0.5184  0.0153 -0.3433
   69MOL0     O 9238   0.937  11.058   3.844 -0.0702 -0.2924 -0.4084
   69MOL0     C 9239   0.987  11.041   3.981 -0.1688  0.8730  0.8125
   69MOL0     C 9240   1.038  11.169   4.055  0.6647  0.3139  0.6356
   69MOL0     C 9241   0.973  11.285   3.992 -0.5142 -0.7408 -0.5158
   69MOL0     C 9242   0.813  11.282   3.978 -0.2768 -0.7347 -1.4455
   69MOL0     C 9243   0.753  11.413   4.028 -0.7632  1.2064 -0.6159
   69MOL0     C 9244   0.699  11.506   4.081 -1.1519  1.2778 -0.2737
   69MOL0     C 9245   0.936  10.835   3.768 -1.1962  0.2843 -0.5785
   69MOL0     C 9246   0.875  10.716   3.729  0.9283 -0.5697  0.1592
   69MOL0     C 9247   0.961  10.601   3.674  0.1909 -1.2309  0.4029
   69MOL0     H 9248   0.314  10.578   3.751  0.6289  0.0350  1.1157
   69MOL0     H 9249   0.129  10.415   3.669  0.3011 -1.5029 -0.3560
   69MOL0     H 9250   0.214  10.087   3.458  1.3427  1.0498  1.2052
   69MOL0     H 9251   0.156  10.141   3.614  0.6767  0.2040  0.1667
   69MOL0     H 9252   0.035   9.949   3.509 -0.4825  0.5772  0.2818
   69MOL0     H 9253   0.009  10.039   3.362  3.1056  0.0155 -0.0970
   69MOL0     H 9254  -0.178  10.147   3.447 -0.5345 -1.2921  0.1124
   69MOL0     H 9255  -0.106  10.187   3.591 -1.7181  0.9340 -1.3593
   69MOL0     H 9256  -0.225   9.904   3.511 -0.2950 -2.0722  2.3871
   69MOL0     H 9257  -0.164   9.939   3.658  0.3871 -1.6991 -0.6708
   69MOL0     H 9258  -0.355  10.153   3.638 -4.3642  0.1463 -1.1032
   69MOL0     H 9259  -0.411  10.056   3.501 -1.6070 -1.8920  1.4386
   69MOL0     H 9260  -0.402   9.933   3.767 -0.5811  2.5313  0.6660
   69MOL0     H 9261  -0.538  10.026   3.725 -0.1953 -2.8328  4.4984
   69MOL0     H 9262  -0.542   9.767   3.668  2.9208 -0.4209  1.4647
   69MOL0     H 9263  -0.416   9.815   3.538  0.3714  1.2437 -0.3966
   69MOL0     H 9264  -0.704   9.896   3.581 -0.4305  1.9837 -2.5871
   69MOL0     H 9265  -0.587   9.988   3.470  2.4333  0.4807  1.0191
   69MOL0     H 9266  -0.828   9.705   3.441 -1.4407 -0.3119 -2.1150
   69MOL0     H 9267  -0.867   9.502   3.235 -0.7058 -0.3792 -0.3987
   69MOL0     H 9268  -0.714   9.482   3.151 -1.5046 -0.8521 -0.6701
   69MOL0     H 9269  -0.610   9.420   3.398 -0.9843  1.3836  1.9329
   69MOL0     H 9270  -0.766   9.420   3.457  0.4734  1.4227  0.4972
   69MOL0     H 9271  -0.698   9.248   3.203  0.6103  1.4736  0.3405
   69MOL0     H 9272  -0.856   9.267   3.278  0.0406 -2.5880  2.6416
   69MOL0     H 9273  -0.793   9.179   3.481 -1.1596  0.6255 -0.5834
   69MOL0     H 9274  -0.627   9.135   3.429  1.0096  2.6928 -0.1701
   69MOL0     H 9275  -0.860   8.835   3.212  1.3646 -1.1681 -0.2897
   69MOL0     H 9276  -0.877   8.617   3.302  0.4646  2.4912 -2.3211
   69MOL0     H 9277  -0.788   8.537   3.938  0.2064  0.5915 -1.7605
   69MOL0     H 9278  -0.781   8.366   4.101 -2.3870 -0.1521  1.4429
   69MOL0     H 9279  -0.869   7.984   4.201 -1.3433 -0.2220 -0.8584
   69MOL0     H 9280  -0.762   8.129   4.194  0.3255 -1.7896  1.3071
   69MOL0     H 9281  -0.931   8.262   4.243  1.4040 -1.2192 -1.4709
   69MOL0     H 9282  -1.061   8.172   4.163  0.5798 -0.2947 -0.8866
   69MOL0     H 9283  -1.037   8.004   4.363 -3.1626  1.3037  2.1522
   69MOL0     H 9284  -0.931   8.122   4.434 -1.9054  0.3944  1.5848
   69MOL0     H 9285  -1.211   8.176   4.343 -0.8973  1.8166 -0.0392
   69MOL0     H 9286  -1.112   8.285   4.437 -0.0931  0.6854 -0.9305
   69MOL0     H 9287  -1.230   8.031   4.551  0.9926 -1.3047  5.0702
   69MOL0     H 9288  -1.267   8.204   4.591  1.5418 -0.1484  3.1245
   69MOL0     H 9289  -1.128   8.082   4.748 -2.0776  2.1772 -0.1256
   69MOL0     H 9290  -1.010   8.058   4.629  1.4415  2.0889 -2.0114
   69MOL0     H 9291  -1.118   8.339   4.676  1.0376  1.2709 -1.3134
   69MOL0     H 9292  -0.953   8.300   4.624  0.7105 -1.1841  0.2770
   69MOL0     H 9293  -0.955   8.393   4.857  2.3129 -0.6344 -2.0271
   69MOL0     H 9294  -1.063   8.250   4.894 -0.8492  1.0243  1.0823
   69MOL0     H 9295  -0.859   8.080   3.779 -2.9848 -0.8148  0.7383
   69MOL0     H 9296  -0.811   8.266   3.624  0.7046  0.0852  0.2571
   69MOL0     H 9297  -0.725   8.757   3.684  1.8329  1.6469  0.5829
   69MOL0     H 9298  -0.745   8.984   3.603  1.0551 -2.2360  0.8483
   69MOL0     H 9299   0.350  10.309   3.337 -4.1438 -1.4429  0.6844
   69MOL0     H 9300   0.563  10.439   3.422  0.6805  1.4878 -1.2255
   69MOL0     H 9301   0.554  10.840   3.767 -0.1718  2.1377  0.6465
   69MOL0     H 9302   0.683  11.044   3.822  0.3960 -0.5733 -2.1473
   69MOL0     H 9303   1.067  10.968   3.963 -0.9910  0.5957 -2.2882
   69MOL0     H 9304   0.909  10.995   4.042  1.3395  2.4815  4.1908
   69MOL0     H 9305   1.146  11.166   4.035  0.0978 -1.6923 -2.8989
   69MOL0     H 9306   1.003  11.153   4.157 -1.8182 -2.1473 -0.4681
   69MOL0     H 9307   1.015  11.288   3.891  0.4605 -0.8016 -0.1297
   69MOL0     H 9308   1.002  11.371   4.054 -3.6443 -1.8329  2.7978
   69MOL0     H 9309   0.788  11.272   3.872  2.3830  1.7830 -2.4609
   69MOL0     H 9310   0.769  11.211   4.048 -0.8447  2.5973  1.9581
   69MOL0     H 9311   0.637  11.583   4.122 -2.8250 -0.9384  1.6200
   69MOL0     H 9312   1.044  10.825   3.758 -1.2873  1.0510 -3.2586
   69MOL0     H 9313   0.937  10.594   3.568 -1.6826 -1.3481  0.7987
   69MOL0     H 9314   1.066  10.627   3.689  0.5636 -1.8270 -0.9970
   69MOL0     H 9315   0.951  10.508   3.731 -0.6766 -0.4585  1.5477
   70MOL0     O 9316   0.819   1.490   0.896  0.2783 -0.2104  0.3667
   70MOL0     C 9317   0.849   1.588   0.830 -0.0835  0.7268  0.3116
   70MOL0     O 9318   0.959   1.596   0.740  0.1903  0.7050  0.7965
   70MOL0     C 9319   1.031   1.481   0.694 -0.1091  0.5682 -0.7544
   70MOL0     C 9320   1.156   1.503   0.623  1.3174  0.5336 -0.3353
   70MOL0     C 9321   1.227   1.390   0.578 -0.3765 -0.9401  0.0318
   70MOL0     C 9322   1.175   1.260   0.572 -0.8383 -0.6475 -0.2647
   70MOL0     O 9323   1.231   1.169   0.485  0.1307 -0.0567  0.1761
   70MOL0     C 9324   1.155   1.044   0.461 -1.0030 -0.4164  1.1645
   70MOL0     C 9325   1.229   0.944   0.375 -0.7417  0.5919 -0.2782
   70MOL0     C 9326   1.256   0.979   0.225  0.3971 -0.3142 -0.9406
   70MOL0     C 9327   1.357   1.098   0.200 -0.7016 -0.2631 -0.6803
   70MOL0     C 9328   1.377   1.136   0.054 -0.1559 -0.5193 -1.4252
   70MOL0     C 9329   1.473   1.047  -0.018  0.0796 -0.4500 -0.3753
   70MOL0     C 9330   1.474   1.089  -0.171 -0.1604 -0.5545 -0.6807
   70MOL0     C 9331   1.531   1.238  -0.204 -0.3616  0.1117  0.2466
   70MOL0     N 9332   1.673   1.238  -0.177 -0.3350  0.3555 -0.1572
   70MOL0     C 9333   1.728   1.246  -0.052 -0.6077 -1.0895 -0.6835
   70MOL0     C 9334   1.861   1.217  -0.072  0.6029  0.2179  0.4635
   70MOL0     C 9335   1.962   1.228   0.043  0.6161  1.2154  0.0398
   70MOL0     C 9336   1.927   1.159   0.169 -0.7836  0.0231 -0.6010
   70MOL0     C 9337   2.030   1.186   0.278 -0.1986 -0.3840  0.6878
   70MOL0     C 9338   1.994   1.107   0.402 -0.3080  0.6250  0.5735
   70MOL0     O 9339   2.084   1.138   0.509 -0.5649  0.8041  0.0062
   70MOL0     C 9340   2.035   1.166   0.628  0.4543  0.1797 -0.2981
   70MOL0     C 9341   2.089   1.270   0.702 -0.5364 -0.9326  0.5384
   70MOL0     C 9342   2.051   1.291   0.836  0.1063  0.0624 -0.2877
   70MOL0     C 9343   1.948   1.209   0.899  0.0195  0.7660  0.4965
   70MOL0     C 9344   1.905   1.222   1.040 -0.4681 -0.0087  0.3889
   70MOL0     O 9345   1.799   1.146   1.091 -0.3959  0.1931 -0.6520
   70MOL0     C 9346   1.757   1.179   1.215 -0.6977  0.0871 -0.6021
   70MOL0     C 9347   1.852   1.155   1.321 -0.4300 -1.4165  0.1351
   70MOL0     C 9348   1.818   1.157   1.456 -0.1328 -0.7358 -0.4134
   70MOL0     C 9349   1.684   1.192   1.494  0.7445 -0.1807  0.0641
   70MOL0     O 9350   1.653   1.199   1.623 -0.6701 -0.4018  0.1006
   70MOL0     C 9351   1.516   1.215   1.662  0.3630  0.1799 -0.4414
   70MOL0     C 9352   1.516   1.240   1.817  0.1217 -0.3094  0.0845
   70MOL0     C 9353   1.373   1.275   1.872  0.3932 -0.1869  0.4548
   70MOL0     C 9354   1.372   1.303   2.027 -0.6811  1.1117  0.0905
   70MOL0     C 9355   1.235   1.355   2.084  0.3890 -0.7260  0.9764
   70MOL0     C 9356   1.245   1.401   2.234 -0.7341 -0.0243 -0.0168
   70MOL0     C 9357   1.250   1.280   2.332  0.8988 -0.2128 -0.3212
   70MOL0     C 9358   1.383   1.246   2.373 -0.5159  0.4787  0.0856
   70MOL0    Cl 9359   1.379   1.095   2.463 -0.1435  0.3783  0.4113
   70MOL0     C 9360   1.586   1.216   1.392 -0.2038 -0.1403  0.0406
   70MOL0     C 9361   1.627   1.210   1.259  0.7462  0.3600  0.3527
   70MOL0     O 9362   1.964   1.312   1.107  0.6364  0.8296 -0.1057
   70MOL0     C 9363   1.897   1.096   0.815 -0.2145 -0.2843  0.0265
   70MOL0     C 9364   1.941   1.074   0.685 -0.9350 -0.2209 -0.4482
   70MOL0     N 9365   1.886   1.199  -0.206  0.3394 -0.9375 -0.7592
   70MOL0     N 9366   1.770   1.196  -0.256  0.1671 -0.6820  1.3666
   70MOL0     C 9367   1.049   1.242   0.636 -0.4812  0.8345 -0.7089
   70MOL0     C 9368   0.976   1.351   0.695 -0.5248 -0.4864 -0.3254
   70MOL0     C 9369   0.776   1.707   0.863 -0.5404 -0.7007  0.3737
   70MOL0     C 9370   0.634   1.686   0.893 -1.1450  0.5652 -0.5508
   70MOL0     C 9371   0.552   1.796   0.915  0.1965 -0.1255 -0.2207
   70MOL0     C 9372   0.592   1.931   0.922 -1.3084  0.0218  0.4851
   70MOL0     O 9373   0.524   2.036   0.969  0.5236 -0.4976  0.1092
   70MOL0     C 9374   0.384   2.023   0.991  0.2382  0.6113  0.3240
   70MOL0     C 9375   0.309   2.155   1.031 -0.3937  0.2528 -0.6479
   70MOL0     C 9376   0.378   2.233   1.141  0.0923 -0.3424 -1.5241
   70MOL0     C 9377   0.313   2.370   1.143 -0.0990 -0.1280  0.1965
   70MOL0     C 9378   0.167   2.362   1.171 -1.5844 -0.1558 -0.1488
   70MOL0     C 9379   0.054   2.365   1.211  0.0696  0.2482 -0.1995
   70MOL0     C 9380   0.732   1.943   0.904  0.0749  0.2921 -1.0790
   70MOL0     C 9381   0.822   1.845   0.864 -0.4226  0.6507  0.5551
   70MOL0     C 9382   0.972   1.881   0.833  0.0721  0.5035  0.7458
   70MOL0     H 9383   1.195   1.604   0.615  1.1693  0.6544  0.4164
   70MOL0     H 9384   1.324   1.415   0.535  0.2570  1.2452  2.4679
   70MOL0     H 9385   1.142   0.987   0.553 -0.6436 -2.7032 -0.1380
   70MOL0     H 9386   1.062   1.061   0.406  1.2587  0.9247 -2.6470
   70MOL0     H 9387   1.164   0.857   0.377  1.2453 -0.9372  1.0502
   70MOL0     H 9388   1.315   0.908   0.432 -2.6196 -2.1996  0.9934
   70MOL0     H 9389   1.165   1.016   0.176  0.8593  1.6604 -0.4133
   70MOL0     H 9390   1.287   0.887   0.177  0.4278 -0.3879 -0.7802
   70MOL0     H 9391   1.314   1.181   0.256 -0.5883 -1.4780  1.3291
   70MOL0     H 9392   1.452   1.074   0.249 -0.4525 -0.8737 -1.4335
   70MOL0     H 9393   1.283   1.126   0.000 -1.3254  1.5788  0.0620
   70MOL0     H 9394   1.410   1.241   0.046 -2.1367  0.5289  1.9956
   70MOL0     H 9395   1.572   1.035   0.028 -0.3765 -0.0940  0.7438
   70MOL0     H 9396   1.435   0.945  -0.030 -0.5788 -0.0117 -2.4423
   70MOL0     H 9397   1.373   1.082  -0.213 -0.1890 -1.4813 -0.4866
   70MOL0     H 9398   1.535   1.012  -0.220 -0.0168 -0.9158  0.0464
   70MOL0     H 9399   1.512   1.253  -0.310 -0.4418  1.3749  0.4232
   70MOL0     H 9400   1.473   1.326  -0.173 -1.9967 -0.6126 -0.6508
   70MOL0     H 9401   1.679   1.267   0.042  1.3659  2.9020 -0.3089
   70MOL0     H 9402   2.061   1.194   0.011  0.3431 -1.8919  2.1169
   70MOL0     H 9403   1.965   1.335   0.063 -3.7559  1.4605  0.2938
   70MOL0     H 9404   1.831   1.196   0.205 -1.0859 -0.1425 -1.2198
   70MOL0     H 9405   1.920   1.050   0.163  1.5698 -0.5478  3.4592
   70MOL0     H 9406   2.024   1.294   0.295  0.1571  0.0328 -1.5911
   70MOL0     H 9407   2.129   1.161   0.238 -1.2962 -1.1692 -1.6672
   70MOL0     H 9408   1.991   1.001   0.376  0.5194  0.4112  1.3037
   70MOL0     H 9409   1.888   1.118   0.428 -0.8574 -0.3436 -1.0591
   70MOL0     H 9410   2.156   1.337   0.651 -0.4908 -2.6838 -1.8533
   70MOL0     H 9411   2.091   1.374   0.893  0.7073 -0.2612 -0.2365
   70MOL0     H 9412   1.953   1.127   1.294  0.6471  3.9234 -2.8787
   70MOL0     H 9413   1.891   1.130   1.532  0.1026  3.3279  1.1062
   70MOL0     H 9414   1.464   1.293   1.606  0.6945  0.4941 -0.3186
   70MOL0     H 9415   1.469   1.117   1.648  0.6310  0.3951 -3.4431
   70MOL0     H 9416   1.564   1.153   1.861  0.2410  1.0078  2.7860
   70MOL0     H 9417   1.590   1.320   1.828  1.5222 -1.7202  1.3643
   70MOL0     H 9418   1.326   1.360   1.822  1.9173 -0.7806 -2.2211
   70MOL0     H 9419   1.304   1.192   1.854 -2.1276  2.1841 -1.6842
   70MOL0     H 9420   1.455   1.374   2.036  2.6206 -2.4187 -0.2577
   70MOL0     H 9421   1.394   1.209   2.078 -2.7597  1.1386  1.1652
   70MOL0     H 9422   1.157   1.279   2.081  0.9378 -1.2792 -0.4808
   70MOL0     H 9423   1.204   1.442   2.025 -0.2776 -2.3839 -1.2396
   70MOL0     H 9424   1.330   1.468   2.253 -0.9780  0.3496 -0.2349
   70MOL0     H 9425   1.145   1.441   2.251 -0.6495 -0.5315  1.9912
   70MOL0     H 9426   1.190   1.194   2.299 -0.1071  0.5251 -0.4591
   70MOL0     H 9427   1.196   1.315   2.420 -1.1713 -0.3635 -1.4488
   70MOL0     H 9428   1.450   1.227   2.289  3.3328  3.3805  2.1624
   70MOL0     H 9429   1.424   1.327   2.434 -0.4225 -1.2482  2.4346
   70MOL0     H 9430   1.480   1.237   1.409  0.0780  1.5583 -0.1052
   70MOL0     H 9431   1.556   1.207   1.177  1.3509  1.2302 -0.2183
   70MOL0     H 9432   1.834   1.023   0.866 -1.9107  1.4676  0.5780
   70MOL0     H 9433   1.917   0.983   0.631  3.2627 -0.8919 -1.5906
   70MOL0     H 9434   1.001   1.145   0.638 -0.4874  0.8442 -0.3907
   70MOL0     H 9435   0.880   1.320   0.733 -0.5273 -1.2964 -0.9497
   70MOL0     H 9436   0.602   1.583   0.883  0.7487 -0.2070  0.7437
   70MOL0     H 9437   0.447   1.784   0.938  0.8304 -2.1513  2.0393
   70MOL0     H 9438   0.366   1.949   1.069 -2.1745  3.2738  2.5439
   70MOL0     H 9439   0.346   1.976   0.900  1.0816  1.5248 -0.5267
   70MOL0     H 9440   0.206   2.129   1.059  0.2972  0.0786  2.0519
   70MOL0     H 9441   0.301   2.229   0.951 -0.5452 -0.0780 -0.9376
   70MOL0     H 9442   0.487   2.239   1.132  0.5098  0.2375  2.1358
   70MOL0     H 9443   0.362   2.185   1.238  1.7894  2.7155  0.4326
   70MOL0     H 9444   0.361   2.424   1.226  1.9247 -1.1621 -0.2357
   70MOL0     H 9445   0.323   2.437   1.057 -4.7763  0.4525 -0.1429
   70MOL0     H 9446  -0.046   2.367   1.249  0.7899 -1.4780  1.9789
   70MOL0     H 9447   0.765   2.045   0.923 -1.2860  1.0420 -2.4777
   70MOL0     H 9448   0.981   1.989   0.828 -1.7400  0.7538  1.9644
   70MOL0     H 9449   1.030   1.845   0.919 -1.0967 -0.9808  0.9572
   70MOL0     H 9450   0.995   1.850   0.731 -2.1756  1.8547 -0.2509
   71MOL0     O 9451   5.406   9.022   2.806  0.1146 -0.6023  0.1222
   71MOL0     C 9452   5.482   9.045   2.709  0.7720  0.0978 -0.2103
   71MOL0     O 9453   5.482   8.973   2.589  0.0690 -0.6394 -0.6459
   71MOL0     C 9454   5.413   8.854   2.598 -0.4200 -0.3632 -0.7168
   71MOL0     C 9455   5.308   8.847   2.507  0.0193 -0.0336 -0.1331
   71MOL0     C 9456   5.225   8.733   2.503  0.1640 -0.3663 -0.1321
   71MOL0     C 9457   5.243   8.630   2.594 -0.0455 -0.2836 -0.2935
   71MOL0     O 9458   5.158   8.520   2.597 -0.4587  0.7850  0.3723
   71MOL0     C 9459   5.044   8.514   2.685  0.4203 -0.1328 -0.5089
   71MOL0     C 9460   4.995   8.367   2.712  0.1308 -0.0859 -0.9635
   71MOL0     C 9461   5.069   8.313   2.837 -1.0343 -1.8673 -1.4025
   71MOL0     C 9462   5.055   8.159   2.849 -0.2034 -0.4370  0.0441
   71MOL0     C 9463   5.141   8.099   2.952 -0.6214  0.1963  0.7951
   71MOL0     C 9464   5.118   8.134   3.095 -0.0560 -0.5854  1.3668
   71MOL0     C 9465   5.014   8.036   3.158 -0.0534  1.0312  0.4816
   71MOL0     C 9466   4.980   8.078   3.299 -1.0771  0.1453 -0.9435
   71MOL0     N 9467   5.104   8.056   3.390  0.1400  0.1887 -0.3285
   71MOL0     C 9468   5.108   7.963   3.494  0.7270  0.9216 -0.7020
   71MOL0     C 9469   5.214   8.000   3.572 -0.4863  0.6374 -0.0965
   71MOL0     C 9470   5.250   7.922   3.700  0.2663 -0.3166 -0.3139
   71MOL0     C 9471   5.367   7.827   3.664 -0.1526  0.4060  0.1290
   71MOL0     C 9472   5.509   7.881   3.686  0.1033  0.4951 -0.6722
   71MOL0     C 9473   5.612   7.769   3.676  0.2024 -0.2069 -0.4825
   71MOL0     O 9474   5.623   7.724   3.540 -0.2515 -0.4142  0.4475
   71MOL0     C 9475   5.729   7.640   3.510 -0.2657  0.0159  0.8880
   71MOL0     C 9476   5.762   7.646   3.373 -0.0797  0.2520 -0.0899
   71MOL0     C 9477   5.864   7.568   3.323  0.3268 -0.6744  0.0562
   71MOL0     C 9478   5.916   7.459   3.396 -0.5067 -0.4059  0.2871
   71MOL0     C 9479   6.025   7.367   3.346  0.7036 -1.4363  0.1130
   71MOL0     O 9480   6.091   7.297   3.439 -0.2904 -0.1036 -0.2894
   71MOL0     C 9481   6.186   7.203   3.400 -0.0969  0.4172 -0.3836
   71MOL0     C 9482   6.133   7.100   3.321 -0.4022  0.7025  0.3016
   71MOL0     C 9483   6.209   6.985   3.284 -0.8240 -0.2693  0.3123
   71MOL0     C 9484   6.341   6.976   3.333 -0.2369  0.4221 -0.1418
   71MOL0     O 9485   6.422   6.877   3.283 -0.2814 -0.7144  0.0237
   71MOL0     C 9486   6.391   6.745   3.320  1.0892 -0.4428 -0.7691
   71MOL0     C 9487   6.485   6.634   3.273 -0.1683 -0.5028 -0.2576
   71MOL0     C 9488   6.502   6.621   3.127 -0.5441 -0.2127 -0.6201
   71MOL0     C 9489   6.388   6.554   3.054 -0.5082  0.6427  1.4354
   71MOL0     C 9490   6.444   6.500   2.917 -0.5774  0.3817  0.7312
   71MOL0     C 9491   6.468   6.343   2.921  0.7062  0.2134 -0.4848
   71MOL0     C 9492   6.507   6.285   2.780 -0.7783  0.8440  0.1995
   71MOL0     C 9493   6.528   6.133   2.792 -0.4243  0.6253  0.7666
   71MOL0    Cl 9494   6.709   6.091   2.765  0.0352 -0.2584 -0.2136
   71MOL0     C 9495   6.390   7.074   3.424 -0.0426 -0.3009  0.4936
   71MOL0     C 9496   6.311   7.181   3.462 -0.3935 -0.1827  1.3027
   71MOL0     O 9497   6.058   7.372   3.228  0.6442 -0.8777  0.4428
   71MOL0     C 9498   5.885   7.456   3.533  1.1714  1.3709 -0.0046
   71MOL0     C 9499   5.798   7.554   3.596  0.6837 -0.5299 -0.2707
   71MOL0     N 9500   5.279   8.111   3.517  0.3572  0.1367  0.2582
   71MOL0     N 9501   5.212   8.135   3.399 -0.4911  0.1037 -0.1088
   71MOL0     C 9502   5.347   8.639   2.688  0.0945 -0.1099  0.1197
   71MOL0     C 9503   5.435   8.757   2.692  1.2009 -0.3275 -0.4114
   71MOL0     C 9504   5.592   9.132   2.747 -0.7727 -0.6660  0.5053
   71MOL0     C 9505   5.617   9.161   2.888  0.0418  0.4088  0.6041
   71MOL0     C 9506   5.721   9.241   2.937  0.3553 -0.5234 -0.4348
   71MOL0     C 9507   5.799   9.307   2.846 -1.3391 -0.2054  1.2146
   71MOL0     O 9508   5.887   9.411   2.865 -0.6284  0.2374 -0.4238
   71MOL0     C 9509   5.893   9.468   2.994 -0.2066 -0.4264 -0.2529
   71MOL0     C 9510   5.948   9.603   2.971 -0.4852 -0.5456  0.3546
   71MOL0     C 9511   5.941   9.694   3.093  0.0825 -0.0938 -1.0474
   71MOL0     C 9512   5.802   9.724   3.146 -0.1763 -0.6464  0.0932
   71MOL0     C 9513   5.725   9.794   3.038  0.4217  0.6117  1.1592
   71MOL0     C 9514   5.651   9.845   2.961 -0.6406  1.0114  0.3484
   71MOL0     C 9515   5.782   9.281   2.705 -0.2330 -0.3807 -0.5561
   71MOL0     C 9516   5.677   9.196   2.658 -0.0229 -0.5380 -0.2724
   71MOL0     C 9517   5.660   9.182   2.512  0.2065  0.0831  0.7706
   71MOL0     H 9518   5.308   8.919   2.425  1.0983  0.8482  0.6215
   71MOL0     H 9519   5.137   8.715   2.442  0.4696 -1.7571 -0.1751
   71MOL0     H 9520   5.067   8.566   2.779  0.5429  0.6045 -0.9385
   71MOL0     H 9521   4.965   8.563   2.628  1.8009  0.1725 -2.2408
   71MOL0     H 9522   5.007   8.301   2.626 -1.2843 -1.1784 -0.3600
   71MOL0     H 9523   4.889   8.359   2.734 -0.1512 -1.0858 -2.5261
   71MOL0     H 9524   5.026   8.355   2.928 -2.0224 -2.1052 -1.7523
   71MOL0     H 9525   5.175   8.335   2.824 -1.1137  0.4183  0.9783
   71MOL0     H 9526   4.949   8.142   2.870 -0.2918  0.7536  0.6483
   71MOL0     H 9527   5.071   8.122   2.747 -1.7804 -0.6177 -0.1617
   71MOL0     H 9528   5.141   7.990   2.955 -0.4789 -0.0462 -2.9819
   71MOL0     H 9529   5.239   8.138   2.923 -0.2314 -0.3220  1.3950
   71MOL0     H 9530   5.211   8.113   3.150  1.0462  0.7316  0.0682
   71MOL0     H 9531   5.088   8.239   3.101 -0.3333 -0.4545 -1.3499
   71MOL0     H 9532   5.066   7.940   3.152  3.0433  2.6595 -1.1386
   71MOL0     H 9533   4.926   8.041   3.093  0.2768 -2.6058 -0.4361
   71MOL0     H 9534   4.943   8.181   3.305 -0.7606  0.1914  1.9698
   71MOL0     H 9535   4.897   8.010   3.318 -1.2065  0.5517 -0.0044
   71MOL0     H 9536   5.044   7.877   3.510 -0.2810  1.6068 -0.9281
   71MOL0     H 9537   5.279   7.989   3.782 -1.2093  1.1307 -0.9077
   71MOL0     H 9538   5.168   7.857   3.733  1.1307 -1.9551 -1.2678
   71MOL0     H 9539   5.349   7.741   3.729 -0.8299  2.5914  3.0454
   71MOL0     H 9540   5.355   7.795   3.560  0.5600 -2.0294  0.7302
   71MOL0     H 9541   5.529   7.931   3.781  0.3274  2.2800 -1.6136
   71MOL0     H 9542   5.517   7.963   3.614 -4.8291  1.2739 -0.7043
   71MOL0     H 9543   5.587   7.686   3.743 -2.2989  1.1486  0.4050
   71MOL0     H 9544   5.711   7.809   3.698 -0.9117  2.6366 -0.1973
   71MOL0     H 9545   5.727   7.726   3.308  2.6783 -0.3056 -2.4447
   71MOL0     H 9546   5.885   7.586   3.218  1.6597 -0.4207  0.3472
   71MOL0     H 9547   6.032   7.094   3.283 -1.5696  0.1693  3.1767
   71MOL0     H 9548   6.174   6.916   3.209 -1.9798  1.8137 -1.1479
   71MOL0     H 9549   6.393   6.741   3.429 -0.2265 -1.1420 -0.7467
   71MOL0     H 9550   6.289   6.725   3.284  0.5249  1.2979 -0.2482
   71MOL0     H 9551   6.582   6.659   3.317  0.5607  2.3296 -3.0821
   71MOL0     H 9552   6.451   6.541   3.319 -2.7078  0.1164 -0.7092
   71MOL0     H 9553   6.525   6.716   3.077  2.7080  0.5915  2.0036
   71MOL0     H 9554   6.595   6.563   3.129 -0.4784 -0.3328 -3.2200
   71MOL0     H 9555   6.312   6.629   3.032 -0.8977 -0.3516 -0.8188
   71MOL0     H 9556   6.358   6.475   3.124  1.6922  0.0659  1.8221
   71MOL0     H 9557   6.534   6.544   2.872 -2.2372  1.7143 -1.4496
   71MOL0     H 9558   6.359   6.520   2.852 -2.2432  0.5034  2.8389
   71MOL0     H 9559   6.549   6.326   2.991 -1.5278  0.4705  2.3308
   71MOL0     H 9560   6.379   6.292   2.959  0.3668  1.3260  0.2496
   71MOL0     H 9561   6.583   6.350   2.736  0.2796 -0.2095  0.4076
   71MOL0     H 9562   6.410   6.296   2.730 -0.0593  0.8938 -1.2077
   71MOL0     H 9563   6.486   6.095   2.886 -1.2952  2.5158  1.1726
   71MOL0     H 9564   6.475   6.088   2.707  1.5865 -1.0185  0.2806
   71MOL0     H 9565   6.490   7.041   3.450  0.4159  1.6377  1.3359
   71MOL0     H 9566   6.328   7.233   3.556 -0.8186  1.0856  0.7079
   71MOL0     H 9567   5.941   7.384   3.592 -1.0421  0.4406  1.0903
   71MOL0     H 9568   5.779   7.557   3.703 -0.4281  0.7897 -0.4739
   71MOL0     H 9569   5.376   8.559   2.755  0.2819  0.6266  0.9388
   71MOL0     H 9570   5.519   8.763   2.760  2.4308  1.6555 -1.9835
   71MOL0     H 9571   5.554   9.114   2.962 -0.4126  0.6924  0.4033
   71MOL0     H 9572   5.731   9.239   3.045  0.7887  2.2382 -0.3671
   71MOL0     H 9573   5.952   9.416   3.070  0.4349  2.2314  1.1975
   71MOL0     H 9574   5.794   9.470   3.039 -0.5744 -0.6643 -1.0296
   71MOL0     H 9575   5.894   9.647   2.886 -1.5269 -1.5906  0.4524
   71MOL0     H 9576   6.056   9.599   2.957 -0.2851  1.0227  1.2275
   71MOL0     H 9577   5.971   9.791   3.054  1.5314 -0.8808 -1.9640
   71MOL0     H 9578   6.016   9.665   3.168 -0.0725 -1.3513 -1.3566
   71MOL0     H 9579   5.750   9.634   3.182 -2.9255  1.2935  1.3196
   71MOL0     H 9580   5.806   9.795   3.229  1.7976  1.3529 -1.5899
   71MOL0     H 9581   5.576   9.893   2.902  0.9660 -2.0512 -4.8968
   71MOL0     H 9582   5.847   9.341   2.643  0.4674  2.3167  2.4796
   71MOL0     H 9583   5.712   9.253   2.448 -0.0227 -1.3706 -1.1496
   71MOL0     H 9584   5.680   9.079   2.479 -3.3561 -1.3661  2.5314
   71MOL0     H 9585   5.553   9.192   2.488  0.4190 -0.8399 -0.7111
   72MOL0     O 9586   0.795  10.260   1.222 -0.1557 -0.3427  0.8763
   72MOL0     C 9587   0.701  10.211   1.166 -0.2596  0.6077 -0.0166
   72MOL0     O 9588   0.665  10.214   1.042  0.4869 -0.2102  0.4858
   72MOL0     C 9589   0.726  10.279   0.945 -0.3417 -0.3088 -0.0787
   72MOL0     C 9590   0.856  10.328   0.946 -0.7462 -0.8285 -0.3750
   72MOL0     C 9591   0.898  10.419   0.851 -0.0086 -0.1706  0.0443
   72MOL0     C 9592   0.812  10.473   0.756 -0.0225 -0.6448  0.3707
   72MOL0     O 9593   0.847  10.554   0.648 -0.9887  0.4653  0.3748
   72MOL0     C 9594   0.836  10.497   0.520  0.5377  0.0493  0.8658
   72MOL0     C 9595   0.819  10.613   0.414 -0.2489 -0.5897  0.2969
   72MOL0     C 9596   0.677  10.630   0.390 -0.1134 -0.1162 -0.2269
   72MOL0     C 9597   0.635  10.759   0.327  0.0398  0.4265 -0.2298
   72MOL0     C 9598   0.490  10.771   0.343  0.8020 -0.8099  0.2800
   72MOL0     C 9599   0.424  10.888   0.264 -0.1131 -0.4831  0.7461
   72MOL0     C 9600   0.491  11.025   0.298  0.8014 -0.0989  0.5944
   72MOL0     C 9601   0.405  11.129   0.232 -0.3118 -0.4079 -0.0067
   72MOL0     N 9602   0.473  11.261   0.232  0.2833  0.7978 -0.3924
   72MOL0     C 9603   0.574  11.300   0.145  0.1534  0.5577  0.2826
   72MOL0     C 9604   0.596  11.423   0.171 -0.2155 -1.5950  0.3817
   72MOL0     C 9605   0.702  11.522   0.109 -0.5265  0.0622 -0.2607
   72MOL0     C 9606   0.626  11.640   0.041  0.0920 -0.2026  0.1050
   72MOL0     C 9607   0.567  11.594  -0.089 -0.4956 -0.1408 -0.0709
   72MOL0     C 9608   0.520  11.711  -0.171 -0.3061  0.3296 -0.8878
   72MOL0     O 9609   0.383  11.744  -0.145  0.4291 -0.2661 -0.6594
   72MOL0     C 9610   0.291  11.680  -0.214 -0.2221  0.5504  0.4581
   72MOL0     C 9611   0.163  11.724  -0.175  0.3021 -0.6350 -0.3103
   72MOL0     C 9612   0.047  11.683  -0.248 -0.1307  0.1812 -0.2167
   72MOL0     C 9613   0.067  11.573  -0.341  0.0310  0.3184 -0.3058
   72MOL0     C 9614  -0.051  11.505  -0.392  0.1016 -0.3314 -0.3693
   72MOL0     O 9615  -0.038  11.429  -0.494  0.4963  0.3340  0.2206
   72MOL0     C 9616  -0.158  11.392  -0.550 -0.0617  0.6107 -0.1585
   72MOL0     C 9617  -0.219  11.272  -0.508  0.2130 -0.2045 -0.2074
   72MOL0     C 9618  -0.326  11.226  -0.585  0.0884 -0.4912 -0.0425
   72MOL0     C 9619  -0.397  11.304  -0.670 -1.0030  0.2097 -0.1330
   72MOL0     O 9620  -0.520  11.262  -0.709  0.7005 -0.5016  0.0598
   72MOL0     C 9621  -0.585  11.331  -0.813  0.3151  0.0968 -0.0418
   72MOL0     C 9622  -0.685  11.235  -0.895  1.0773 -0.1916  0.6379
   72MOL0     C 9623  -0.818  11.212  -0.824 -0.5583 -0.3182  0.3766
   72MOL0     C 9624  -0.833  11.068  -0.769 -0.9163  0.9229 -0.0530
   72MOL0     C 9625  -0.937  11.051  -0.646 -0.1866 -0.3307  0.6246
   72MOL0     C 9626  -1.075  11.103  -0.678 -0.3083 -0.3201 -0.1155
   72MOL0     C 9627  -1.138  11.148  -0.543 -0.7954  0.0422  0.4571
   72MOL0     C 9628  -1.288  11.176  -0.542 -0.5383 -0.8031  0.1204
   72MOL0    Cl 9629  -1.313  11.228  -0.371 -0.3062  0.0790 -0.2103
   72MOL0     C 9630  -0.339  11.425  -0.715 -0.2313  0.1489  0.3557
   72MOL0     C 9631  -0.219  11.467  -0.648 -0.2748  0.9138  0.2379
   72MOL0     O 9632  -0.148  11.515  -0.323  0.3850  0.2819 -0.7572
   72MOL0     C 9633   0.194  11.532  -0.373 -0.1808  0.3885  0.5465
   72MOL0     C 9634   0.307  11.587  -0.311 -0.8644  0.3853  0.3869
   72MOL0     N 9635   0.523  11.458   0.272  0.6829  0.5829 -1.1224
   72MOL0     N 9636   0.450  11.366   0.314  0.7145  0.6002 -0.0868
   72MOL0     C 9637   0.684  10.422   0.764 -0.3424  1.7998  0.5589
   72MOL0     C 9638   0.640  10.325   0.848 -0.3360 -0.4986 -0.2421
   72MOL0     C 9639   0.609  10.171   1.269  0.8276  0.4345 -0.0806
   72MOL0     C 9640   0.475  10.217   1.260 -0.7553 -0.4229  0.2580
   72MOL0     C 9641   0.375  10.162   1.344  0.3312  0.1033  0.2376
   72MOL0     C 9642   0.405  10.072   1.447 -0.1735 -0.8662  0.6866
   72MOL0     O 9643   0.307  10.003   1.508  0.6726  0.1511 -0.1781
   72MOL0     C 9644   0.297  10.030   1.649 -0.0763 -0.8866 -0.1623
   72MOL0     C 9645   0.267   9.909   1.729 -0.5834 -0.7335 -0.1356
   72MOL0     C 9646   0.256   9.944   1.874  0.3392  0.0260 -0.0160
   72MOL0     C 9647   0.227   9.819   1.966  1.1176 -0.0246  0.0081
   72MOL0     C 9648   0.092   9.792   2.022  0.2738 -0.5152  0.0195
   72MOL0     C 9649  -0.023   9.772   2.076 -0.6881 -1.2898  0.8018
   72MOL0     C 9650   0.536  10.031   1.461  0.1757  0.5988  0.3662
   72MOL0     C 9651   0.637  10.073   1.370 -0.4751 -0.1380 -0.2566
   72MOL0     C 9652   0.773  10.002   1.376 -0.0933  0.4877  0.4956
   72MOL0     H 9653   0.917  10.293   1.030 -3.0744  2.3039  2.9275
   72MOL0     H 9654   0.995  10.465   0.841  0.5730 -1.7397 -2.8679
   72MOL0     H 9655   0.925  10.438   0.500 -0.8781 -1.4367 -1.6277
   72MOL0     H 9656   0.759  10.419   0.517  2.3427 -1.8245  1.2810
   72MOL0     H 9657   0.851  10.570   0.318 -1.4618  0.3602 -0.5715
   72MOL0     H 9658   0.883  10.702   0.425 -0.8821  0.3676 -2.7957
   72MOL0     H 9659   0.611  10.628   0.477 -0.9580 -4.5024 -0.7808
   72MOL0     H 9660   0.643  10.542   0.335 -1.2118 -0.1413  0.4719
   72MOL0     H 9661   0.682  10.844   0.378  1.4289  0.1657 -1.0138
   72MOL0     H 9662   0.662  10.758   0.221  0.4933  0.6580 -0.1199
   72MOL0     H 9663   0.441  10.681   0.307  2.1961 -1.7475  0.6609
   72MOL0     H 9664   0.456  10.786   0.446  6.5349 -0.3538  2.4274
   72MOL0     H 9665   0.438  10.858   0.160 -0.8823 -0.2071  0.5519
   72MOL0     H 9666   0.317  10.880   0.286  0.1485  0.0644  2.3410
   72MOL0     H 9667   0.595  11.028   0.263  0.3208  3.0503 -0.8295
   72MOL0     H 9668   0.473  11.048   0.404 -3.1454 -0.1976  0.0858
   72MOL0     H 9669   0.403  11.104   0.125  1.1747 -0.1897 -0.1058
   72MOL0     H 9670   0.307  11.131   0.281  0.0917 -0.5842  0.8196
   72MOL0     H 9671   0.626  11.241   0.069 -0.0446 -0.6073  1.0311
   72MOL0     H 9672   0.760  11.555   0.196 -0.4364 -2.4223  0.7329
   72MOL0     H 9673   0.778  11.471   0.048 -1.6276 -0.3679 -1.3127
   72MOL0     H 9674   0.549  11.676   0.111  0.2349 -2.8955  1.7858
   72MOL0     H 9675   0.688  11.728   0.022 -0.4468 -0.0449 -1.0351
   72MOL0     H 9676   0.488  11.522  -0.068 -0.3876 -1.0846 -2.5659
   72MOL0     H 9677   0.639  11.529  -0.139 -0.2741 -0.9567  1.2544
   72MOL0     H 9678   0.534  11.693  -0.278 -0.1956 -1.4587 -0.6145
   72MOL0     H 9679   0.579  11.795  -0.135 -0.8914  0.0104  0.9330
   72MOL0     H 9680   0.145  11.789  -0.090  1.0943 -2.0098  0.9855
   72MOL0     H 9681  -0.054  11.717  -0.226 -0.1788 -0.2535  0.2523
   72MOL0     H 9682  -0.188  11.219  -0.419 -3.8499 -2.1826  0.2418
   72MOL0     H 9683  -0.380  11.134  -0.564 -2.4960  1.2573  1.5119
   72MOL0     H 9684  -0.634  11.423  -0.779  4.0748  2.1627  0.4293
   72MOL0     H 9685  -0.514  11.365  -0.889 -0.7193 -2.8940 -2.5337
   72MOL0     H 9686  -0.707  11.289  -0.987 -2.7660  1.0696  2.0834
   72MOL0     H 9687  -0.639  11.140  -0.924 -1.4093 -0.3304 -3.6787
   72MOL0     H 9688  -0.820  11.264  -0.728 -1.3134 -1.2151  0.8579
   72MOL0     H 9689  -0.900  11.237  -0.892  2.1940  1.5934 -2.5582
   72MOL0     H 9690  -0.740  11.031  -0.725 -2.7917 -2.7804  1.1947
   72MOL0     H 9691  -0.856  11.005  -0.855 -1.6861 -0.6287  1.2387
   72MOL0     H 9692  -0.891  11.108  -0.565 -1.3510  0.3814  0.8185
   72MOL0     H 9693  -0.927  10.945  -0.623  4.1838 -1.0054 -2.9632
   72MOL0     H 9694  -1.073  11.187  -0.749  0.1300 -0.1576  0.0847
   72MOL0     H 9695  -1.133  11.026  -0.729 -0.4787  1.5612 -3.0184
   72MOL0     H 9696  -1.085  11.241  -0.519 -0.8315  0.5712 -1.3394
   72MOL0     H 9697  -1.111  11.071  -0.470  3.1398  2.1209  1.5013
   72MOL0     H 9698  -1.332  11.235  -0.623 -0.8340 -0.5141  0.4892
   72MOL0     H 9699  -1.342  11.081  -0.553 -0.2824 -1.1216  1.3917
   72MOL0     H 9700  -0.390  11.494  -0.781  2.5754  1.1289 -0.9126
   72MOL0     H 9701  -0.188  11.569  -0.671 -0.5597  1.1006  0.6583
   72MOL0     H 9702   0.217  11.446  -0.434 -0.8783  1.4346 -1.2510
   72MOL0     H 9703   0.400  11.537  -0.332 -2.5002 -2.3284 -0.8569
   72MOL0     H 9704   0.615  10.459   0.689 -2.8504 -1.2375  1.1420
   72MOL0     H 9705   0.538  10.287   0.853  0.3290 -2.4880 -0.9579
   72MOL0     H 9706   0.463  10.293   1.184  1.6363  0.6093  0.8237
   72MOL0     H 9707   0.270  10.189   1.339  0.7770  1.9606 -0.0636
   72MOL0     H 9708   0.216  10.102   1.661  1.1031  0.4730 -0.0939
   72MOL0     H 9709   0.389  10.078   1.682  0.9888 -1.0668 -2.6588
   72MOL0     H 9710   0.354   9.842   1.726 -0.7972 -1.2833  2.9076
   72MOL0     H 9711   0.173   9.865   1.694 -2.7192  1.5905  2.2378
   72MOL0     H 9712   0.182  10.024   1.883  1.9352  1.4417  0.8090
   72MOL0     H 9713   0.349   9.991   1.907 -0.8921  2.2410  0.5113
   72MOL0     H 9714   0.242   9.723   1.915  2.6316  0.0012  0.3751
   72MOL0     H 9715   0.295   9.821   2.051 -0.4488 -2.3904  1.4372
   72MOL0     H 9716  -0.120   9.762   2.121 -0.7950  0.2520  0.9495
   72MOL0     H 9717   0.559   9.963   1.542  1.4630  0.0148 -0.4573
   72MOL0     H 9718   0.850  10.073   1.343  2.4820 -3.0856 -1.8971
   72MOL0     H 9719   0.804   9.979   1.479 -2.0862 -1.2290  0.7828
   72MOL0     H 9720   0.780   9.914   1.311  0.5648 -1.4675  3.0260
   73MOL0     O 9721  10.217   8.563   7.554 -0.4340  0.0882  0.7656
   73MOL0     C 9722  10.118   8.497   7.515  0.1328  1.7086 -0.2287
   73MOL0     O 9723   9.990   8.528   7.555  0.1897 -0.5170 -0.4786
   73MOL0     C 9724   9.971   8.650   7.623 -0.0531  0.4060  0.4782
   73MOL0     C 9725   9.890   8.747   7.558  1.2476  0.3775  0.1165
   73MOL0     C 9726   9.855   8.868   7.609 -0.8135  0.6413 -0.1119
   73MOL0     C 9727   9.923   8.912   7.725 -0.0227  0.6818 -0.8588
   73MOL0     O 9728   9.909   9.038   7.769 -0.0722  0.3669  0.7678
   73MOL0     C 9729   9.838   9.135   7.695  0.6124  0.3708 -0.3092
   73MOL0     C 9730   9.891   9.267   7.748 -0.9899 -0.5506  0.7383
   73MOL0     C 9731   9.801   9.379   7.716 -0.3489  0.0707  0.4043
   73MOL0     C 9732   9.786   9.388   7.562 -0.2426 -0.3298 -0.0733
   73MOL0     C 9733   9.695   9.508   7.540  1.0386  0.1423  0.0106
   73MOL0     C 9734   9.678   9.517   7.380 -0.2054  0.8756 -0.7921
   73MOL0     C 9735   9.578   9.631   7.337 -0.6580 -0.1755 -0.2663
   73MOL0     C 9736   9.431   9.582   7.329 -0.4526  0.4211 -0.7373
   73MOL0     N 9737   9.332   9.690   7.322  0.2573 -0.1671  0.2554
   73MOL0     C 9738   9.327   9.795   7.235  1.0689 -0.0629  0.0702
   73MOL0     C 9739   9.251   9.897   7.292 -0.1888 -1.1285  0.6778
   73MOL0     C 9740   9.224  10.030   7.237  0.1459 -0.4570 -0.3344
   73MOL0     C 9741   9.090  10.088   7.279 -0.7332 -0.3363  0.2736
   73MOL0     C 9742   8.965   9.992   7.259  0.7963  1.1058 -0.3282
   73MOL0     C 9743   8.835  10.069   7.296  0.0995  0.6564 -0.3004
   73MOL0     O 9744   8.726   9.984   7.330 -0.2952  0.0647  0.7544
   73MOL0     C 9745   8.603  10.047   7.323  0.6771 -0.0329 -0.9072
   73MOL0     C 9746   8.499   9.961   7.286 -0.0964 -0.3542 -0.5597
   73MOL0     C 9747   8.365  10.001   7.274  1.0018 -1.2185  0.8030
   73MOL0     C 9748   8.324  10.128   7.320  0.7451 -0.4357 -0.1933
   73MOL0     C 9749   8.179  10.169   7.316 -0.3095  0.6998 -0.8634
   73MOL0     O 9750   8.090  10.085   7.247  0.2779  0.2633 -0.4684
   73MOL0     C 9751   7.958  10.095   7.266  0.1333 -0.1530 -0.0437
   73MOL0     C 9752   7.885  10.034   7.375 -0.9562 -0.0749  0.6778
   73MOL0     C 9753   7.744  10.043   7.355  0.5676 -0.2981  0.6443
   73MOL0     C 9754   7.682  10.111   7.240 -0.7651 -0.1491 -0.0347
   73MOL0     O 9755   7.542  10.095   7.220 -0.2749 -0.5325 -0.6941
   73MOL0     C 9756   7.475  10.129   7.099 -0.4278  0.7319  0.7048
   73MOL0     C 9757   7.324  10.118   7.123 -0.3639 -0.5681  0.1152
   73MOL0     C 9758   7.242  10.126   6.994  0.6750 -0.0975  0.4928
   73MOL0     C 9759   7.262  10.244   6.898 -0.1623 -0.5637  0.3938
   73MOL0     C 9760   7.186  10.235   6.765  0.2004 -0.9972  0.7790
   73MOL0     C 9761   7.207  10.363   6.678 -0.3212 -0.0058  0.3950
   73MOL0     C 9762   7.116  10.356   6.566 -0.0053 -0.1555  0.3053
   73MOL0     C 9763   7.089  10.488   6.499 -0.9056 -0.3292 -0.4316
   73MOL0    Cl 9764   7.233  10.572   6.451  0.4481 -0.2478 -0.4631
   73MOL0     C 9765   7.766  10.174   7.146  0.1440 -1.5083 -0.7670
   73MOL0     C 9766   7.899  10.162   7.160 -1.6549  0.8711  0.0681
   73MOL0     O 9767   8.140  10.259   7.388 -0.0917  1.0388 -0.0352
   73MOL0     C 9768   8.428  10.205   7.377  0.4887 -0.5352  0.8204
   73MOL0     C 9769   8.558  10.170   7.369 -0.1992  0.0240 -0.8521
   73MOL0     N 9770   9.213   9.850   7.410 -0.1550  1.1472  0.0262
   73MOL0     N 9771   9.254   9.726   7.421 -0.5000 -0.0321  0.4954
   73MOL0     C 9772  10.017   8.824   7.788 -0.2307 -0.3189  0.6269
   73MOL0     C 9773  10.040   8.694   7.742 -0.9281  0.0165 -0.9678
   73MOL0     C 9774  10.128   8.382   7.423 -0.2867 -0.2706 -0.9821
   73MOL0     C 9775  10.021   8.286   7.436  0.1692 -0.2785  0.6393
   73MOL0     C 9776  10.027   8.173   7.354 -0.5392 -0.2691  0.5460
   73MOL0     C 9777  10.128   8.152   7.262 -0.0134  0.4405 -0.1442
   73MOL0     O 9778  10.142   8.031   7.196  0.5782 -1.0274 -1.1123
   73MOL0     C 9779  10.028   7.944   7.185 -0.2090  0.0072  0.2349
   73MOL0     C 9780  10.057   7.862   7.055  0.5555  0.0554 -0.1699
   73MOL0     C 9781   9.948   7.755   7.035  0.1409 -0.4461  0.6382
   73MOL0     C 9782   9.995   7.641   6.936  0.6203  0.5204  0.9704
   73MOL0     C 9783  10.032   7.690   6.805 -0.3347  0.0936  1.1712
   73MOL0     C 9784  10.085   7.743   6.695  0.6343 -0.4269 -0.2746
   73MOL0     C 9785  10.228   8.250   7.246 -1.3285 -0.1700  0.3349
   73MOL0     C 9786  10.231   8.365   7.333  0.3891  0.0194  0.5739
   73MOL0     C 9787  10.337   8.467   7.306  0.3924 -0.3449  0.3573
   73MOL0     H 9788   9.835   8.715   7.470 -2.2329  2.8106  1.1995
   73MOL0     H 9789   9.778   8.924   7.557 -1.6048 -1.3952 -1.2270
   73MOL0     H 9790   9.864   9.125   7.589  3.0325 -1.5847  0.3640
   73MOL0     H 9791   9.731   9.126   7.715  0.5420  0.7056 -0.5346
   73MOL0     H 9792   9.992   9.282   7.709  0.7084 -0.0846  4.8627
   73MOL0     H 9793   9.899   9.256   7.856 -0.6497 -2.2318  0.5624
   73MOL0     H 9794   9.832   9.474   7.760 -1.1241  0.1025  0.9103
   73MOL0     H 9795   9.705   9.360   7.766 -1.3757 -3.1009 -2.4560
   73MOL0     H 9796   9.882   9.410   7.515 -1.1157 -0.9760 -2.3088
   73MOL0     H 9797   9.743   9.296   7.521  0.9857 -0.7057 -0.5941
   73MOL0     H 9798   9.595   9.494   7.582  0.0735  0.2853 -2.1059
   73MOL0     H 9799   9.736   9.597   7.588 -0.0154 -0.2972  1.7750
   73MOL0     H 9800   9.781   9.531   7.346  0.0569  1.6708  0.2679
   73MOL0     H 9801   9.649   9.421   7.337  1.9660  0.8120 -2.2546
   73MOL0     H 9802   9.606   9.649   7.232 -0.5118 -3.0833 -0.8146
   73MOL0     H 9803   9.600   9.725   7.389  1.4880 -0.3276 -0.7882
   73MOL0     H 9804   9.413   9.509   7.248 -3.3880  1.6486 -1.3258
   73MOL0     H 9805   9.405   9.529   7.421  2.1351 -0.2832 -0.3296
   73MOL0     H 9806   9.373   9.791   7.137  0.0054  3.2138 -0.6730
   73MOL0     H 9807   9.291  10.109   7.271 -0.2589 -1.5851  3.5871
   73MOL0     H 9808   9.232  10.035   7.128  2.7169  0.3587 -0.1776
   73MOL0     H 9809   9.089  10.118   7.384 -0.2258  1.3096 -0.1567
   73MOL0     H 9810   9.078  10.181   7.223  0.2302 -1.7204 -2.3952
   73MOL0     H 9811   8.970   9.908   7.329 -0.7533  0.5136 -0.8885
   73MOL0     H 9812   8.952   9.944   7.161  0.5751 -1.2712  0.8026
   73MOL0     H 9813   8.822  10.132   7.208 -2.4064 -1.3992 -1.5347
   73MOL0     H 9814   8.855  10.132   7.384  0.2856  0.3368 -0.1123
   73MOL0     H 9815   8.518   9.856   7.269 -2.5504 -1.1025  0.8025
   73MOL0     H 9816   8.288   9.929   7.247 -0.0925 -0.2876  1.3272
   73MOL0     H 9817   7.931   9.977   7.455 -2.5416  1.1413  2.5402
   73MOL0     H 9818   7.675   9.997   7.426 -0.3775  0.1613  0.0405
   73MOL0     H 9819   7.504  10.225   7.056 -1.1889  0.5431 -0.2742
   73MOL0     H 9820   7.498  10.052   7.025 -2.0323  0.1812  0.7444
   73MOL0     H 9821   7.301  10.018   7.162 -3.8727 -1.4109 -3.4709
   73MOL0     H 9822   7.296  10.196   7.194  0.0584 -1.8836  1.7850
   73MOL0     H 9823   7.267  10.036   6.937 -2.1930 -0.2661 -0.6836
   73MOL0     H 9824   7.135  10.123   7.019  0.7303 -0.5601  0.6777
   73MOL0     H 9825   7.369  10.254   6.879  0.1018 -0.2577  1.9048
   73MOL0     H 9826   7.232  10.337   6.948 -0.3114  0.9919 -2.4133
   73MOL0     H 9827   7.081  10.221   6.791  0.7767 -0.8845  3.4984
   73MOL0     H 9828   7.222  10.145   6.714  0.8921  0.6029 -1.7481
   73MOL0     H 9829   7.178  10.454   6.731  1.3986 -1.0657  3.4886
   73MOL0     H 9830   7.313  10.369   6.651  0.0552 -1.9902  1.2046
   73MOL0     H 9831   7.031  10.308   6.616  4.2263 -3.5064  5.4328
   73MOL0     H 9832   7.162  10.292   6.491 -3.7968  1.7067 -4.1130
   73MOL0     H 9833   7.037  10.458   6.408 -3.4245 -0.4634  0.9748
   73MOL0     H 9834   7.009  10.549   6.542  1.3745  2.2091  0.5322
   73MOL0     H 9835   7.721  10.231   7.065  2.2758 -0.2779 -1.1760
   73MOL0     H 9836   7.973  10.202   7.092  2.9743 -3.0971  2.1930
   73MOL0     H 9837   8.381  10.294   7.417  2.1907  0.1953  1.2880
   73MOL0     H 9838   8.628  10.240   7.414 -0.7860  0.0037  0.1128
   73MOL0     H 9839  10.086   8.858   7.865 -0.9549 -1.1434  1.6638
   73MOL0     H 9840  10.124   8.648   7.793  0.7124  2.2187 -1.5126
   73MOL0     H 9841   9.947   8.297   7.515 -0.5764  1.5360 -0.2656
   73MOL0     H 9842   9.953   8.095   7.366  1.3267 -2.3969 -0.7979
   73MOL0     H 9843   9.942   8.010   7.167  0.1851  1.7865  3.9134
   73MOL0     H 9844  10.024   7.876   7.270  0.4337  0.4560  0.6278
   73MOL0     H 9845  10.149   7.805   7.073 -0.7818 -1.4842  2.4441
   73MOL0     H 9846  10.064   7.922   6.964 -0.6172  0.3376 -0.0891
   73MOL0     H 9847   9.867   7.809   6.986 -0.6781  0.4301  2.8189
   73MOL0     H 9848   9.892   7.722   7.123 -0.9299  0.2871  0.2503
   73MOL0     H 9849  10.071   7.585   6.990 -1.8701 -2.8894  1.2456
   73MOL0     H 9850   9.913   7.571   6.919  0.2913  0.3103  3.2042
   73MOL0     H 9851  10.122   7.806   6.617 -0.4209  3.1650  1.8511
   73MOL0     H 9852  10.307   8.225   7.175 -1.1204  1.5191 -0.0822
   73MOL0     H 9853  10.377   8.471   7.205  1.3478  0.9554  0.7628
   73MOL0     H 9854  10.287   8.562   7.324 -1.7997 -1.2525 -0.4766
   73MOL0     H 9855  10.424   8.443   7.368  0.7900 -1.2002 -0.5069
   74MOL0     O 9856   1.359  10.291   1.817  0.0097  0.2303  1.1991
   74MOL0     C 9857   1.284  10.195   1.790 -0.1119  0.4449 -0.1190
   74MOL0     O 9858   1.167  10.198   1.719  0.7325 -0.3110  0.4653
   74MOL0     C 9859   1.082  10.307   1.695 -0.4821  0.2331  0.1552
   74MOL0     C 9860   1.102  10.439   1.740  0.1932  1.1281 -0.6642
   74MOL0     C 9861   1.011  10.545   1.707 -0.0454 -0.1678 -0.9118
   74MOL0     C 9862   0.898  10.525   1.625 -1.1587 -0.1138  0.6012
   74MOL0     O 9863   0.810  10.620   1.584  0.4462  0.6899 -0.0522
   74MOL0     C 9864   0.864  10.745   1.543 -0.3608 -0.4178  0.6803
   74MOL0     C 9865   0.746  10.855   1.514 -0.7241 -0.0791 -0.4037
   74MOL0     C 9866   0.669  10.904   1.642 -0.3435  0.8275 -0.6586
   74MOL0     C 9867   0.559  11.001   1.615 -0.7879  0.1545 -0.8996
   74MOL0     C 9868   0.452  11.008   1.736 -0.5897  0.3506 -0.3036
   74MOL0     C 9869   0.513  11.069   1.863  0.3107 -0.0213  0.1263
   74MOL0     C 9870   0.579  10.971   1.957  1.1373 -0.2771 -0.2681
   74MOL0     C 9871   0.625  11.032   2.087  1.2085  0.4549  0.1573
   74MOL0     N 9872   0.701  10.943   2.173  0.5373 -1.2404  0.7185
   74MOL0     C 9873   0.795  10.847   2.130 -0.3295 -0.1486 -0.2041
   74MOL0     C 9874   0.838  10.791   2.248  0.8872 -0.0223  1.5121
   74MOL0     C 9875   0.961  10.700   2.251  0.4332 -0.1265 -0.1334
   74MOL0     C 9876   0.935  10.558   2.206  0.0288  0.5268  1.2589
   74MOL0     C 9877   1.075  10.493   2.205  0.1247  0.6205 -0.1922
   74MOL0     C 9878   1.043  10.361   2.121 -0.2622  0.1600  0.0422
   74MOL0     O 9879   0.942  10.276   2.190 -0.2789 -0.0940  1.4590
   74MOL0     C 9880   0.902  10.177   2.111 -0.9901 -0.6394  1.0949
   74MOL0     C 9881   0.976  10.121   1.995  0.6747 -0.3780 -0.4438
   74MOL0     C 9882   0.928  10.018   1.930 -0.5368  0.6841  0.7582
   74MOL0     C 9883   0.816   9.948   1.967  0.6460  0.5014 -0.0355
   74MOL0     C 9884   0.757   9.843   1.876 -0.1652  0.4522  0.2418
   74MOL0     O 9885   0.657   9.768   1.927  0.0376  0.1344 -0.3630
   74MOL0     C 9886   0.611   9.653   1.874  0.4900 -1.0628 -0.7311
   74MOL0     C 9887   0.583   9.640   1.741 -0.1318  0.1612  0.2438
   74MOL0     C 9888   0.546   9.511   1.701 -0.0433 -0.6367  0.3420
   74MOL0     C 9889   0.558   9.399   1.786  0.1330  0.0581  0.2959
   74MOL0     O 9890   0.516   9.276   1.749 -0.9510 -0.2682 -0.7599
   74MOL0     C 9891   0.569   9.220   1.633  0.2554  0.1414  0.2163
   74MOL0     C 9892   0.498   9.081   1.608 -0.8478 -0.5652 -1.1792
   74MOL0     C 9893   0.372   9.091   1.538  0.5656  0.2193 -0.2232
   74MOL0     C 9894   0.402   9.116   1.393 -0.5784  0.3427  1.0187
   74MOL0     C 9895   0.272   9.147   1.327 -0.5588 -0.5062 -0.0350
   74MOL0     C 9896   0.188   9.022   1.309  0.4840 -0.1815  0.4885
   74MOL0     C 9897   0.039   9.064   1.271 -0.1609  0.7352  0.1488
   74MOL0     C 9898  -0.045   8.941   1.289 -0.3673 -0.4305 -0.2006
   74MOL0    Cl 9899   0.009   8.792   1.197 -0.2607 -0.0161 -0.5746
   74MOL0     C 9900   0.580   9.419   1.920 -1.0029  0.5458 -0.0814
   74MOL0     C 9901   0.609   9.546   1.961 -0.5779  0.8386 -0.1983
   74MOL0     O 9902   0.817   9.817   1.770  0.1253  0.3065 -0.4191
   74MOL0     C 9903   0.750   9.994   2.079  0.1134  0.0235  0.0519
   74MOL0     C 9904   0.793  10.105   2.149 -0.8971 -0.9568  0.6623
   74MOL0     N 9905   0.772  10.854   2.354 -0.2825  0.2698  0.3014
   74MOL0     N 9906   0.687  10.938   2.309  0.6644 -0.4224 -0.0917
   74MOL0     C 9907   0.873  10.389   1.591 -0.3677  0.8197 -0.0168
   74MOL0     C 9908   0.967  10.281   1.626  0.2045  0.3239 -0.0205
   74MOL0     C 9909   1.307  10.057   1.856  0.7792 -0.2727 -1.1033
   74MOL0     C 9910   1.234   9.942   1.812 -0.0409 -0.6998 -0.0878
   74MOL0     C 9911   1.242   9.813   1.874 -0.2653 -0.1804  0.6037
   74MOL0     C 9912   1.339   9.797   1.972 -0.3787 -0.9912  0.5784
   74MOL0     O 9913   1.372   9.687   2.031  0.1061 -0.2690  0.7126
   74MOL0     C 9914   1.349   9.559   1.967  0.5086  0.3762  0.2560
   74MOL0     C 9915   1.395   9.450   2.074  0.4318 -0.3776 -0.2996
   74MOL0     C 9916   1.393   9.301   2.033  0.9150 -0.5116  0.4636
   74MOL0     C 9917   1.526   9.246   2.008 -0.8444  0.1296  0.0800
   74MOL0     C 9918   1.602   9.307   1.898  0.2249 -0.2603  0.3942
   74MOL0     C 9919   1.649   9.368   1.800  0.3684 -0.0175 -0.6420
   74MOL0     C 9920   1.418   9.907   2.010 -1.1650  1.3288 -0.8461
   74MOL0     C 9921   1.408  10.037   1.956  0.3833  0.0705  0.0320
   74MOL0     C 9922   1.510  10.131   2.002 -0.5465 -0.8152  0.1331
   74MOL0     H 9923   1.180  10.452   1.814  0.2288  3.5066 -1.0188
   74MOL0     H 9924   1.033  10.643   1.747 -1.7755  0.7725 -2.1523
   74MOL0     H 9925   0.928  10.791   1.618 -2.6650  3.5733  0.4939
   74MOL0     H 9926   0.929  10.734   1.455  0.6214 -0.1359  1.3565
   74MOL0     H 9927   0.680  10.809   1.440 -1.4910  2.2503 -1.2389
   74MOL0     H 9928   0.798  10.943   1.474 -1.9477  1.1602  0.6527
   74MOL0     H 9929   0.735  10.948   1.717 -0.2249 -0.5586  0.0763
   74MOL0     H 9930   0.620  10.815   1.682 -0.9391  0.4246 -2.2014
   74MOL0     H 9931   0.603  11.098   1.589 -0.8228  0.1214 -1.0789
   74MOL0     H 9932   0.515  10.965   1.522 -0.4373 -0.5792 -0.7855
   74MOL0     H 9933   0.364  11.066   1.705 -0.6792  1.3071  1.5966
   74MOL0     H 9934   0.411  10.909   1.759  0.4349  0.3487  1.7261
   74MOL0     H 9935   0.579  11.153   1.840 -0.4866  0.3878 -0.7670
   74MOL0     H 9936   0.428  11.121   1.909 -1.1413 -1.9959 -0.1850
   74MOL0     H 9937   0.653  10.906   1.910  0.4236 -0.5730 -0.9891
   74MOL0     H 9938   0.491  10.913   1.982  0.1346  0.2481 -2.3234
   74MOL0     H 9939   0.694  11.115   2.068 -0.7259  2.2140  0.4502
   74MOL0     H 9940   0.539  11.071   2.143  0.4608 -2.2846  1.0768
   74MOL0     H 9941   0.836  10.825   2.032  2.6851  3.8333 -0.0864
   74MOL0     H 9942   1.052  10.739   2.205  1.2999 -3.5307 -1.6536
   74MOL0     H 9943   0.984  10.684   2.357 -1.1909 -1.0185  0.1283
   74MOL0     H 9944   0.849  10.509   2.252 -1.1921  1.7909  0.4403
   74MOL0     H 9945   0.898  10.582   2.105  1.5520 -3.4759 -0.4436
   74MOL0     H 9946   1.105  10.475   2.309 -2.1007  1.5032  0.6540
   74MOL0     H 9947   1.148  10.559   2.156 -1.3560  0.2499 -3.0562
   74MOL0     H 9948   1.135  10.302   2.108  0.6442  1.7010 -0.8346
   74MOL0     H 9949   1.023  10.382   2.016 -3.2700 -2.3730 -0.0442
   74MOL0     H 9950   1.069  10.160   1.957 -0.4792 -0.2912 -3.4111
   74MOL0     H 9951   1.001   9.989   1.856  1.6135  3.5694  1.5974
   74MOL0     H 9952   0.586   9.713   1.661  1.5144 -2.5996 -2.4701
   74MOL0     H 9953   0.514   9.493   1.599  0.6385 -0.5779  0.1150
   74MOL0     H 9954   0.545   9.299   1.561  0.0470  0.1406  0.2845
   74MOL0     H 9955   0.678   9.206   1.633  0.1032 -1.2657  1.2265
   74MOL0     H 9956   0.579   9.027   1.557  0.8360 -0.4607  1.2440
   74MOL0     H 9957   0.483   9.041   1.708  0.5155  0.5451 -0.5050
   74MOL0     H 9958   0.324   8.994   1.552 -0.7330  1.0644  1.5860
   74MOL0     H 9959   0.313   9.168   1.589  1.0694  0.7330 -0.4064
   74MOL0     H 9960   0.450   9.030   1.345 -2.3958  0.0527 -0.4306
   74MOL0     H 9961   0.461   9.204   1.368 -0.1100 -0.4011 -0.6089
   74MOL0     H 9962   0.297   9.181   1.226  2.7585 -4.0760 -0.6397
   74MOL0     H 9963   0.215   9.220   1.386 -1.4012  2.1003 -3.7047
   74MOL0     H 9964   0.229   8.962   1.227  1.5209  2.4282 -1.0603
   74MOL0     H 9965   0.190   8.971   1.405  1.6838  0.8132  1.0215
   74MOL0     H 9966   0.035   9.093   1.166  0.0547  2.0786  0.4949
   74MOL0     H 9967  -0.006   9.137   1.339  0.7667 -1.4496  3.3500
   74MOL0     H 9968  -0.045   8.918   1.397  1.6442  0.2563 -0.0073
   74MOL0     H 9969  -0.148   8.966   1.264 -0.2547 -1.5111 -1.8792
   74MOL0     H 9970   0.592   9.334   1.987  0.5112  0.7540 -0.0631
   74MOL0     H 9971   0.638   9.566   2.064  1.4074 -0.8342 -0.3538
   74MOL0     H 9972   0.679   9.925   2.122 -0.3396 -0.8465 -1.9770
   74MOL0     H 9973   0.751  10.136   2.244 -1.1777 -0.4067  0.3726
   74MOL0     H 9974   0.783  10.372   1.533  0.2555  0.2615 -0.8349
   74MOL0     H 9975   0.940  10.184   1.588  0.2279  1.1634 -2.2951
   74MOL0     H 9976   1.155   9.957   1.738  0.5623 -1.2708 -0.8643
   74MOL0     H 9977   1.172   9.743   1.830 -2.6927  3.5073 -2.0131
   74MOL0     H 9978   1.408   9.562   1.875 -0.4764  1.6378 -0.3662
   74MOL0     H 9979   1.246   9.535   1.939  1.3778 -3.3017 -0.2304
   74MOL0     H 9980   1.334   9.454   2.165  1.4373 -1.1113  0.4363
   74MOL0     H 9981   1.491   9.473   2.122 -0.4800  1.2483  0.8823
   74MOL0     H 9982   1.320   9.282   1.954  1.5431  0.6634 -0.4473
   74MOL0     H 9983   1.365   9.256   2.128 -4.9076  2.5032  0.5896
   74MOL0     H 9984   1.591   9.258   2.096 -0.4253  1.0045 -0.3356
   74MOL0     H 9985   1.515   9.141   1.981  1.0534  0.2865 -1.5494
   74MOL0     H 9986   1.697   9.407   1.712  1.3499  1.0063  0.3057
   74MOL0     H 9987   1.498   9.888   2.081 -1.4484  0.2471 -0.8081
   74MOL0     H 9988   1.558  10.182   1.918  0.0492  3.0154  2.5109
   74MOL0     H 9989   1.455  10.207   2.058 -1.5852  0.5097 -2.4966
   74MOL0     H 9990   1.594  10.088   2.057  0.5920  0.6258 -0.3881
   75MOL0     O 9991   3.458  11.213   9.969  0.3009  0.1083 -0.2847
   75MOL0     C 9992   3.349  11.252  10.015  0.2076  0.2446  0.5724
   75MOL0     O 9993   3.345  11.378  10.081  0.1000  0.2990 -0.6845
   75MOL0     C 9994   3.428  11.419  10.177 -0.8773  0.6454 -0.6248
   75MOL0     C 9995   3.422  11.557  10.218  0.5852  0.3438  0.0267
   75MOL0     C 9996   3.517  11.618  10.305 -0.3090  0.1522 -0.0835
   75MOL0     C 9997   3.613  11.532  10.354 -0.2366  0.1722 -0.1612
   75MOL0     O 9998   3.725  11.582  10.419  0.2611 -0.5904  0.7021
   75MOL0     C 9999   3.844  11.507  10.402 -0.3708 -0.1912  1.3790
   75MOL0     C10000   3.975  11.585  10.445 -0.6379  0.6228 -0.5904
   75MOL0     C10001   3.998  11.701  10.350  0.4556 -0.3882  0.0591
   75MOL0     C10002   4.010  11.664  10.205 -0.2638 -0.0783 -0.3079
   75MOL0     C10003   4.103  11.734  10.104  0.0597 -0.0794  0.6447
   75MOL0     C10004   4.255  11.725  10.127  0.1165 -0.2369  0.3356
   75MOL0     C10005   4.320  11.596  10.093 -0.6222 -0.4832  0.4107
   75MOL0     C10006   4.324  11.558   9.939 -0.9262 -0.8140 -0.0558
   75MOL0     N10007   4.421  11.447   9.911 -0.5556 -0.2563 -0.8853
   75MOL0     C10008   4.555  11.460   9.931 -0.3393 -0.0701  0.2682
   75MOL0     C10009   4.603  11.340   9.902 -0.0628  0.1027 -0.4780
   75MOL0     C10010   4.745  11.298   9.906 -0.0981  0.3032 -1.3569
   75MOL0     C10011   4.840  11.349   9.792  0.4177 -0.3678  0.6730
   75MOL0     C10012   4.957  11.258   9.769 -0.2135  0.7590  0.2253
   75MOL0     C10013   5.026  11.216   9.904  0.1466 -0.0564 -0.2689
   75MOL0     O10014   5.162  11.204   9.892  0.1239 -0.3874  0.3788
   75MOL0     C10015   5.238  11.316   9.909 -0.1012 -0.8962 -0.1502
   75MOL0     C10016   5.376  11.290   9.932  0.8994 -0.2555 -0.4376
   75MOL0     C10017   5.458  11.390   9.964  0.3211 -0.8498 -0.0217
   75MOL0     C10018   5.406  11.529   9.976  0.1911  1.3317  0.3212
   75MOL0     C10019   5.505  11.624  10.024 -0.2094  1.1923 -1.1726
   75MOL0     O10020   5.627  11.608   9.974  0.3369  0.0965  0.5765
   75MOL0     C10021   5.727  11.698   9.971 -0.3268 -0.9804 -0.5832
   75MOL0     C10022   5.743  11.807  10.065 -0.4249 -0.2961 -0.2129
   75MOL0     C10023   5.850  11.907  10.050 -0.6084  0.5449  0.2091
   75MOL0     C10024   5.931  11.899   9.936 -0.6004 -0.3779 -0.5883
   75MOL0     O10025   6.046  11.972   9.919  0.4110 -1.3131 -0.1746
   75MOL0     C10026   6.113  12.041  10.029  0.3597  0.1682  0.1822
   75MOL0     C10027   6.227  12.121   9.975 -0.7023  0.2842 -0.1351
   75MOL0     C10028   6.187  12.247   9.877 -0.1781  0.0674 -0.0964
   75MOL0     C10029   6.296  12.325   9.796  0.6305  0.5060  0.1472
   75MOL0     C10030   6.422  12.352   9.892 -0.4456  1.0071 -0.2769
   75MOL0     C10031   6.520  12.436   9.822 -0.2731  0.3578 -0.5935
   75MOL0     C10032   6.644  12.477   9.920 -0.8727 -0.6617 -1.5108
   75MOL0     C10033   6.733  12.585   9.853  0.2863 -0.3462 -0.7251
   75MOL0    Cl10034   6.874  12.647   9.953 -0.2941 -0.7854  0.5882
   75MOL0     C10035   5.901  11.806   9.835 -0.2592  0.2930 -0.9207
   75MOL0     C10036   5.804  11.709   9.857  0.5833  0.5030  0.2622
   75MOL0     O10037   5.465  11.707  10.108  0.7725 -1.2376  0.5405
   75MOL0     C10038   5.278  11.564   9.970  0.0597 -0.5349 -0.4763
   75MOL0     C10039   5.189  11.451   9.941  0.0086 -0.2121  0.4399
   75MOL0     N10040   4.496  11.261   9.857  0.2476 -0.5770  0.2540
   75MOL0     N10041   4.387  11.324   9.865 -0.9187  0.2188  1.0395
   75MOL0     C10042   3.597  11.391  10.341  0.1435  0.0255  0.4821
   75MOL0     C10043   3.513  11.335  10.249  1.5624  0.2177  0.2376
   75MOL0     C10044   3.224  11.171   9.987  0.2102 -0.2587 -0.2025
   75MOL0     C10045   3.104  11.240   9.966 -0.0865  0.1433 -0.9780
   75MOL0     C10046   2.994  11.170   9.918  0.1402 -0.6399  0.5437
   75MOL0     C10047   2.993  11.032   9.880 -0.0947 -0.6708  0.9858
   75MOL0     O10048   2.892  10.985   9.801  0.0745 -0.4889  0.0624
   75MOL0     C10049   2.888  10.852   9.751  0.1017 -0.4008  0.4798
   75MOL0     C10050   2.806  10.865   9.628  1.0821  0.8523  0.0941
   75MOL0     C10051   2.791  10.734   9.551 -0.0029  0.4860  0.2314
   75MOL0     C10052   2.919  10.709   9.464 -0.5991  0.1878 -0.9150
   75MOL0     C10053   2.923  10.557   9.438 -0.3957  0.8097 -0.1878
   75MOL0     C10054   2.932  10.431   9.454  0.0993  1.2031 -0.2855
   75MOL0     C10055   3.110  10.965   9.913 -0.3099 -0.1052 -0.3657
   75MOL0     C10056   3.226  11.028   9.969 -0.3075 -0.2635  0.1425
   75MOL0     C10057   3.344  10.942   9.998  0.2014  0.5423  0.1201
   75MOL0     H10058   3.355  11.632  10.177  1.3242  1.1688  0.2857
   75MOL0     H10059   3.518  11.720  10.343  1.1127 -0.2699  1.0948
   75MOL0     H10060   3.853  11.414  10.460 -0.9960 -0.2816  1.3371
   75MOL0     H10061   3.844  11.483  10.295 -3.4524  0.6516  1.0968
   75MOL0     H10062   4.054  11.511  10.461  1.1624  2.5031 -0.3548
   75MOL0     H10063   3.967  11.634  10.542  0.8340  2.2836 -1.2431
   75MOL0     H10064   4.089  11.754  10.379  1.1486 -0.2393 -2.1449
   75MOL0     H10065   3.913  11.769  10.358 -0.0271 -1.1208  1.3148
   75MOL0     H10066   4.039  11.559  10.216 -2.6636 -1.2797 -3.8005
   75MOL0     H10067   3.907  11.674  10.168 -0.3927 -1.8034 -0.5378
   75MOL0     H10068   4.081  11.686  10.009  0.2670 -2.4308  1.7174
   75MOL0     H10069   4.067  11.836  10.088 -6.5525 -2.0605  0.0890
   75MOL0     H10070   4.302  11.801  10.065  3.6405 -0.3377  2.6406
   75MOL0     H10071   4.277  11.753  10.230 -2.9126  2.2105  0.4539
   75MOL0     H10072   4.257  11.517  10.134  1.0304 -2.8745 -1.3974
   75MOL0     H10073   4.421  11.594  10.134  0.3078 -0.4975 -1.7248
   75MOL0     H10074   4.224  11.545   9.898 -1.9031 -2.8345  2.6708
   75MOL0     H10075   4.369  11.645   9.889  2.0702 -1.6152  1.0389
   75MOL0     H10076   4.598  11.554   9.964 -0.3001  0.1958 -0.5269
   75MOL0     H10077   4.785  11.325  10.004  0.5430 -0.9296 -1.2485
   75MOL0     H10078   4.741  11.188   9.906 -0.9608  0.3218 -0.4942
   75MOL0     H10079   4.804  11.369   9.691  5.0043  1.1234 -0.9321
   75MOL0     H10080   4.881  11.444   9.828 -0.7746  0.4155  0.0219
   75MOL0     H10081   5.023  11.321   9.709  3.5708 -2.1044  0.9718
   75MOL0     H10082   4.938  11.177   9.697  0.7948  1.7150 -1.1600
   75MOL0     H10083   4.995  11.118   9.942  1.3120 -0.2893  0.1179
   75MOL0     H10084   4.997  11.276   9.990  2.0229 -1.5391  1.5104
   75MOL0     H10085   5.397  11.185   9.946 -0.0296 -0.2160  1.4655
   75MOL0     H10086   5.563  11.373   9.986  0.3896  0.8122  1.1132
   75MOL0     H10087   5.675  11.818  10.148  0.2643 -1.8712  0.6085
   75MOL0     H10088   5.861  11.985  10.124 -1.9600 -0.5534  1.6186
   75MOL0     H10089   6.046  12.108  10.082 -0.1678  1.0232 -1.4757
   75MOL0     H10090   6.153  11.968  10.100  0.6148 -0.2269 -0.3502
   75MOL0     H10091   6.281  12.163  10.061 -1.7496  0.7672  0.3072
   75MOL0     H10092   6.300  12.048   9.940  0.0865  0.8673  0.2675
   75MOL0     H10093   6.119  12.214   9.797  2.3327 -1.7072 -1.6508
   75MOL0     H10094   6.144  12.330   9.935  0.8793  0.2478  0.4437
   75MOL0     H10095   6.254  12.416   9.750 -0.7605  0.1078  0.6049
   75MOL0     H10096   6.333  12.255   9.720 -3.1697 -1.6972  0.0884
   75MOL0     H10097   6.464  12.255   9.922 -1.6826 -1.1709 -4.6756
   75MOL0     H10098   6.382  12.402   9.980  1.0834 -1.5758  2.0675
   75MOL0     H10099   6.560  12.382   9.736 -1.5798 -0.5842 -0.6284
   75MOL0     H10100   6.497  12.538   9.790  0.6641  0.0359 -2.4372
   75MOL0     H10101   6.704  12.391   9.951 -2.2689  0.0623  4.3017
   75MOL0     H10102   6.602  12.522  10.010  0.9431  1.2493 -1.5245
   75MOL0     H10103   6.768  12.547   9.757 -3.1146 -0.3428 -2.1035
   75MOL0     H10104   6.674  12.675   9.832  0.3344  0.7108  2.8966
   75MOL0     H10105   5.946  11.814   9.737 -0.0660 -0.9610 -0.9513
   75MOL0     H10106   5.787  11.628   9.786 -3.4871 -0.0763  1.6390
   75MOL0     H10107   5.239  11.664   9.988  0.5009 -0.3298 -0.6546
   75MOL0     H10108   5.084  11.477   9.937  0.0126 -0.3752 -0.9428
   75MOL0     H10109   3.667  11.329  10.396 -0.3985  0.4824  1.7148
   75MOL0     H10110   3.488  11.229  10.254 -1.8956  0.8958  0.0242
   75MOL0     H10111   3.092  11.343   9.998 -0.4047 -0.4102  0.8079
   75MOL0     H10112   2.897  11.217   9.906 -0.6289 -1.3766  3.2554
   75MOL0     H10113   2.832  10.790   9.822 -1.2312 -0.6324 -0.7222
   75MOL0     H10114   2.985  10.808   9.730  0.6196  1.0427 -0.2424
   75MOL0     H10115   2.852  10.930   9.553 -1.3374 -0.4614 -2.7328
   75MOL0     H10116   2.713  10.916   9.657 -0.0063 -1.0772  0.1498
   75MOL0     H10117   2.702  10.740   9.488  0.6992  0.9598 -0.7573
   75MOL0     H10118   2.779  10.642   9.608  1.3705 -1.1923 -1.9872
   75MOL0     H10119   2.928  10.767   9.372 -0.1156  0.5224 -0.6634
   75MOL0     H10120   3.009  10.717   9.526 -0.1608  0.6304 -1.6019
   75MOL0     H10121   2.939  10.326   9.435 -0.0288  1.3366 -1.1404
   75MOL0     H10122   3.116  10.858   9.894 -1.3969  0.3072 -3.7689
   75MOL0     H10123   3.418  10.935   9.918  0.5364 -1.0951  0.5408
   75MOL0     H10124   3.393  10.966  10.094  1.6983 -1.7270 -0.0069
   75MOL0     H10125   3.304  10.841  10.006 -0.5589  0.5319 -2.6926
   76MOL0     O10126   7.468   4.777   6.242  0.1032  0.5936 -0.3716
   76MOL0     C10127   7.464   4.699   6.142 -0.3376 -0.2893  0.9102
   76MOL0     O10128   7.464   4.567   6.141 -0.0424  0.8268 -0.1254
   76MOL0     C10129   7.470   4.507   6.260  0.1669 -0.1876 -0.6382
   76MOL0     C10130   7.574   4.414   6.284 -0.0579  0.2008  0.9236
   76MOL0     C10131   7.589   4.348   6.405  0.3013 -0.1897 -0.4925
   76MOL0     C10132   7.499   4.373   6.510 -0.1927 -0.0836  0.1062
   76MOL0     O10133   7.533   4.328   6.633 -0.3361  1.2368  0.1313
   76MOL0     C10134   7.427   4.339   6.726  0.9993  0.2809 -0.6658
   76MOL0     C10135   7.430   4.463   6.815 -0.1827  0.3704  0.2093
   76MOL0     C10136   7.519   4.443   6.933 -0.0603 -0.9289  0.2764
   76MOL0     C10137   7.439   4.392   7.058  0.0415  0.8625  0.0461
   76MOL0     C10138   7.542   4.379   7.178  0.2944 -0.5072 -0.0699
   76MOL0     C10139   7.665   4.286   7.157  0.4855  1.8855 -0.7173
   76MOL0     C10140   7.631   4.143   7.193 -0.0696  0.1064 -0.6212
   76MOL0     C10141   7.756   4.048   7.182 -0.0727  0.0279 -0.4400
   76MOL0     N10142   7.727   3.908   7.144 -0.0454 -0.5612  0.3255
   76MOL0     C10143   7.617   3.833   7.176 -0.0042  0.1220 -0.3323
   76MOL0     C10144   7.614   3.724   7.096 -0.7105  0.1793  0.1075
   76MOL0     C10145   7.521   3.605   7.090 -0.1814  0.0482  0.3017
   76MOL0     C10146   7.574   3.492   7.184  0.5344  1.6147 -0.4267
   76MOL0     C10147   7.466   3.377   7.173 -0.1663  0.6241  0.8461
   76MOL0     C10148   7.444   3.318   7.305  0.2027  0.8794 -0.0646
   76MOL0     O10149   7.568   3.259   7.344  0.6483  0.1763  0.0830
   76MOL0     C10150   7.603   3.260   7.478  0.8713 -0.3063  0.6098
   76MOL0     C10151   7.509   3.249   7.580 -0.0435  0.1486 -0.0647
   76MOL0     C10152   7.549   3.267   7.715 -0.7973  0.6581 -0.8564
   76MOL0     C10153   7.685   3.295   7.741 -0.3340  0.4918 -0.0567
   76MOL0     C10154   7.743   3.300   7.881  0.2818 -1.0386  0.9655
   76MOL0     O10155   7.877   3.291   7.890 -0.3804 -0.6358  0.5394
   76MOL0     C10156   7.931   3.254   8.013 -0.7931  0.1370  0.1253
   76MOL0     C10157   8.029   3.339   8.062 -0.3645 -0.7839 -1.7430
   76MOL0     C10158   8.078   3.303   8.191  0.8298  0.2788  0.1760
   76MOL0     C10159   8.043   3.198   8.265  0.1256  1.0421 -0.8907
   76MOL0     O10160   8.123   3.187   8.383  0.3917 -0.5119  0.5977
   76MOL0     C10161   8.092   3.071   8.467  0.5578  0.1031  0.1606
   76MOL0     C10162   8.166   3.069   8.609 -0.6929 -0.8212 -0.8524
   76MOL0     C10163   8.159   3.196   8.696 -0.4034  0.8771  0.9470
   76MOL0     C10164   8.215   3.191   8.834  1.0673 -0.3257 -0.8339
   76MOL0     C10165   8.363   3.168   8.844  0.4213 -0.2608  0.1045
   76MOL0     C10166   8.440   3.291   8.786  0.1594 -0.1693 -0.8503
   76MOL0     C10167   8.590   3.243   8.772  0.0363 -0.3860  0.2837
   76MOL0     C10168   8.672   3.340   8.671  0.5709 -0.1428  0.0590
   76MOL0    Cl10169   8.632   3.328   8.503  0.0581 -0.2383 -0.6627
   76MOL0     C10170   7.941   3.112   8.219 -1.2248  0.5044  0.1038
   76MOL0     C10171   7.889   3.134   8.088 -0.0221 -0.4427 -0.2244
   76MOL0     O10172   7.663   3.309   7.975 -0.3166 -0.0076  0.7959
   76MOL0     C10173   7.777   3.308   7.635  0.7772 -0.0952  0.1999
   76MOL0     C10174   7.736   3.292   7.510 -0.4169  0.0953 -0.3381
   76MOL0     N10175   7.723   3.736   7.013 -0.0617 -0.3111  0.1901
   76MOL0     N10176   7.787   3.848   7.041 -0.2536  0.5955 -0.4046
   76MOL0     C10177   7.388   4.464   6.483  0.2178 -0.3063 -0.2464
   76MOL0     C10178   7.373   4.529   6.356  0.1362  0.3435 -0.2559
   76MOL0     C10179   7.458   4.769   6.008  0.0334 -0.8973 -0.4033
   76MOL0     C10180   7.404   4.899   6.001  0.3151 -0.1193 -0.9762
   76MOL0     C10181   7.397   4.975   5.880 -0.0955 -0.2966 -0.4823
   76MOL0     C10182   7.423   4.917   5.756  0.1765  0.2497  0.2679
   76MOL0     O10183   7.380   4.994   5.649 -0.1486  0.1604 -0.8280
   76MOL0     C10184   7.416   4.944   5.520  0.2032  1.2497  0.7563
   76MOL0     C10185   7.294   4.888   5.452 -0.2260  0.3499  0.2031
   76MOL0     C10186   7.166   4.955   5.492 -0.0204 -0.1279  0.4601
   76MOL0     C10187   7.030   4.922   5.425  0.1611  0.2536  0.9558
   76MOL0     C10188   7.020   4.774   5.404 -0.3071  0.1959 -1.1126
   76MOL0     C10189   7.011   4.659   5.395  0.3769  0.5159  0.6142
   76MOL0     C10190   7.460   4.784   5.757 -0.9511 -0.4818 -0.1123
   76MOL0     C10191   7.463   4.712   5.879 -0.6033  0.2800 -0.0712
   76MOL0     C10192   7.467   4.563   5.855 -0.2973  0.4670 -1.4484
   76MOL0     H10193   7.643   4.402   6.202  0.9006 -1.1387  1.8709
   76MOL0     H10194   7.664   4.278   6.440 -0.8745 -0.8235  0.8466
   76MOL0     H10195   7.328   4.336   6.680  1.2817  3.6769 -1.7998
   76MOL0     H10196   7.451   4.252   6.787 -0.6518  2.0260  2.8133
   76MOL0     H10197   7.332   4.489   6.857 -0.5772  0.0138 -0.4754
   76MOL0     H10198   7.474   4.538   6.749  0.5947 -2.0483 -2.2279
   76MOL0     H10199   7.569   4.539   6.951 -1.9268  0.0681  0.3414
   76MOL0     H10200   7.594   4.373   6.897  0.7399  1.4078 -3.1042
   76MOL0     H10201   7.354   4.458   7.075  0.2295  0.5804  2.4227
   76MOL0     H10202   7.406   4.292   7.027  1.5376  0.0777  0.8443
   76MOL0     H10203   7.577   4.479   7.202  0.9781 -0.9741  0.9075
   76MOL0     H10204   7.493   4.344   7.269 -0.0892  1.9686  0.7374
   76MOL0     H10205   7.722   4.291   7.065  0.8222 -0.1579 -0.6727
   76MOL0     H10206   7.754   4.314   7.213  1.3294 -2.0437  0.2380
   76MOL0     H10207   7.552   4.112   7.124 -1.2320  0.9073  0.3247
   76MOL0     H10208   7.602   4.111   7.293  2.8575 -1.5695 -0.1856
   76MOL0     H10209   7.829   4.093   7.114  0.3197  0.5614  0.3142
   76MOL0     H10210   7.805   4.053   7.280  2.3189 -1.3372 -1.4754
   76MOL0     H10211   7.556   3.849   7.265 -0.8198 -3.6671 -0.0142
   76MOL0     H10212   7.419   3.632   7.120  0.2945 -0.7180  2.8329
   76MOL0     H10213   7.516   3.572   6.986 -2.4028 -2.0341  0.9729
   76MOL0     H10214   7.674   3.463   7.151 -0.1598  0.7409 -1.8586
   76MOL0     H10215   7.582   3.532   7.286  0.2545 -2.4348  1.3544
   76MOL0     H10216   7.497   3.304   7.098  0.9466  3.2869 -1.5080
   76MOL0     H10217   7.369   3.414   7.139  0.5836  1.3870 -0.5779
   76MOL0     H10218   7.367   3.241   7.304 -1.7957  2.7282 -2.8536
   76MOL0     H10219   7.405   3.397   7.370 -0.1956  2.6917 -2.3740
   76MOL0     H10220   7.412   3.217   7.541 -0.5085  0.9259  0.4248
   76MOL0     H10221   7.475   3.251   7.793  0.1577 -0.3316 -0.1220
   76MOL0     H10222   8.042   3.430   8.005 -1.3909  0.7948  0.3979
   76MOL0     H10223   8.148   3.365   8.247  1.9922 -1.2559  0.5133
   76MOL0     H10224   7.986   3.046   8.480  1.2537 -3.6335 -0.0524
   76MOL0     H10225   8.137   2.984   8.417  0.0198 -1.2607  1.9179
   76MOL0     H10226   8.126   2.980   8.659 -2.5266  0.7351  0.5767
   76MOL0     H10227   8.271   3.051   8.583 -0.7688 -3.0819  0.1321
   76MOL0     H10228   8.199   3.273   8.630 -0.8358 -0.0275 -0.3953
   76MOL0     H10229   8.053   3.220   8.707 -0.0910  1.5999  2.8555
   76MOL0     H10230   8.165   3.105   8.880 -1.3881  2.4416  2.0412
   76MOL0     H10231   8.173   3.270   8.896 -1.2969 -2.6726  0.8139
   76MOL0     H10232   8.404   3.084   8.787  1.6120  1.9522 -2.4687
   76MOL0     H10233   8.388   3.153   8.950 -1.6313 -2.0711  0.4107
   76MOL0     H10234   8.397   3.339   8.697 -2.2839  1.0768  0.8578
   76MOL0     H10235   8.444   3.369   8.863  2.5248  0.9138 -1.9632
   76MOL0     H10236   8.612   3.137   8.751 -1.3727 -1.0249  1.8365
   76MOL0     H10237   8.637   3.250   8.870 -0.6669 -1.0233  0.6799
   76MOL0     H10238   8.640   3.440   8.704 -3.2748 -1.3035  0.3079
   76MOL0     H10239   8.777   3.332   8.703 -0.0306 -2.3847  1.7012
   76MOL0     H10240   7.905   3.032   8.282  0.5377 -1.2237 -0.9672
   76MOL0     H10241   7.806   3.071   8.058  1.0670 -1.8966 -0.2663
   76MOL0     H10242   7.879   3.342   7.651  0.1870  3.4040 -2.3459
   76MOL0     H10243   7.804   3.302   7.425 -1.4488  0.0915 -1.1864
   76MOL0     H10244   7.330   4.506   6.565 -1.1874  1.2595 -1.9836
   76MOL0     H10245   7.301   4.609   6.342 -1.8605 -1.4520 -0.7459
   76MOL0     H10246   7.369   4.956   6.086 -0.2987  1.0375 -1.9841
   76MOL0     H10247   7.365   5.078   5.885  1.3742  0.1657  0.0336
   76MOL0     H10248   7.508   4.884   5.521  0.7801  2.0712  3.4330
   76MOL0     H10249   7.445   5.026   5.454 -0.2300  0.0260 -1.0342
   76MOL0     H10250   7.286   4.787   5.494  1.2254  1.0589  2.3578
   76MOL0     H10251   7.308   4.909   5.346  2.1316  3.5159  0.9927
   76MOL0     H10252   7.178   5.064   5.487 -0.8488  0.0865  2.2621
   76MOL0     H10253   7.150   4.915   5.593  1.8023 -1.1641  0.3772
   76MOL0     H10254   6.944   4.943   5.489 -0.6405 -0.5000  0.1482
   76MOL0     H10255   7.007   4.980   5.336 -1.7466  0.2163  1.3885
   76MOL0     H10256   7.016   4.553   5.377  1.0492  0.1928  2.4270
   76MOL0     H10257   7.477   4.724   5.669  1.7035 -0.3360  0.2364
   76MOL0     H10258   7.448   4.533   5.752  0.9644 -1.0081 -1.2913
   76MOL0     H10259   7.556   4.509   5.888  0.0285  1.6157 -0.3402
   76MOL0     H10260   7.383   4.521   5.909 -0.5184  0.6203 -1.6707
   77MOL0     O10261  10.972   9.537   2.126 -0.3965  0.6326 -0.1799
   77MOL0     C10262  11.003   9.447   2.051 -0.1362  0.0068 -0.3896
   77MOL0     O10263  11.011   9.467   1.921 -0.0273 -1.1219 -0.1673
   77MOL0     C10264  10.964   9.588   1.856 -0.0783 -0.1812  0.2540
   77MOL0     C10265  10.888   9.569   1.735 -0.0403  0.0956 -0.8296
   77MOL0     C10266  10.855   9.681   1.670  0.3309 -0.1083 -0.0745
   77MOL0     C10267  10.902   9.816   1.700  0.3149 -0.0864 -0.2542
   77MOL0     O10268  10.860   9.918   1.612  0.2815  0.0433  0.2073
   77MOL0     C10269  10.880  10.055   1.648  0.8024  0.3817  0.3440
   77MOL0     C10270  10.788  10.155   1.590  0.7026 -0.2172  0.0876
   77MOL0     C10271  10.649  10.157   1.646 -0.0590 -0.1200  0.4944
   77MOL0     C10272  10.560  10.046   1.589 -0.3737 -0.2019 -0.1604
   77MOL0     C10273  10.445  10.007   1.686  1.3374 -0.3209  0.5380
   77MOL0     C10274  10.374   9.879   1.608 -0.4118 -0.4280 -0.0058
   77MOL0     C10275  10.237   9.839   1.678 -0.3625 -0.2879  0.0082
   77MOL0     C10276  10.200   9.696   1.637  0.7480  0.4909  0.0675
   77MOL0     N10277  10.095   9.632   1.725 -0.3362 -0.4871 -0.2935
   77MOL0     C10278  10.071   9.665   1.861  0.0426  0.8308 -0.3348
   77MOL0     C10279   9.947   9.614   1.883 -0.4047 -0.4772 -0.4748
   77MOL0     C10280   9.866   9.608   2.019  0.3375 -0.6807 -0.2248
   77MOL0     C10281   9.731   9.677   2.004  0.7627  0.2437  0.9537
   77MOL0     C10282   9.649   9.639   2.125  1.1149 -0.4311  0.4035
   77MOL0     C10283   9.514   9.718   2.138  0.0211  0.4020 -0.2446
   77MOL0     O10284   9.428   9.708   2.022  0.2363 -0.2464 -0.2363
   77MOL0     C10285   9.430   9.817   1.937  0.0503  0.3606  0.4795
   77MOL0     C10286   9.336   9.806   1.832  0.1163  0.1545 -0.1376
   77MOL0     C10287   9.337   9.901   1.730  0.0592 -0.2338  0.3556
   77MOL0     C10288   9.431  10.011   1.726  0.2092  0.8048  0.9443
   77MOL0     C10289   9.437  10.115   1.616 -0.6800  0.5877 -0.3069
   77MOL0     O10290   9.367  10.082   1.506 -0.1178 -0.2753  0.1093
   77MOL0     C10291   9.351  10.170   1.398  0.0768  0.4077 -0.7677
   77MOL0     C10292   9.371  10.318   1.397  0.8093  0.1507 -0.2319
   77MOL0     C10293   9.340  10.394   1.281  0.0364  0.8516 -0.3201
   77MOL0     C10294   9.308  10.328   1.158  0.0724  0.4511  0.1918
   77MOL0     O10295   9.295  10.407   1.044  0.1211 -0.2798 -0.2103
   77MOL0     C10296   9.378  10.381   0.927 -0.2929  0.1680  0.3884
   77MOL0     C10297   9.443  10.506   0.866 -0.4464  0.1418  0.2572
   77MOL0     C10298   9.539  10.562   0.965 -0.4280  0.6710  0.2714
   77MOL0     C10299   9.537  10.711   0.965  0.4649  1.3508 -0.4694
   77MOL0     C10300   9.664  10.769   1.027 -0.8625  0.8882  0.9090
   77MOL0     C10301   9.669  10.912   1.028  0.4011 -0.2133 -0.8496
   77MOL0     C10302   9.782  10.950   1.126 -1.3928 -0.2793  0.0220
   77MOL0     C10303   9.785  11.095   1.157 -0.5825 -0.2444  0.5196
   77MOL0    Cl10304   9.932  11.138   1.236 -0.1863  0.5091  0.3551
   77MOL0     C10305   9.298  10.185   1.155  0.7239 -0.6845  0.4399
   77MOL0     C10306   9.305  10.118   1.274 -0.0609  0.9359  0.5438
   77MOL0     O10307   9.518  10.207   1.625  0.8354  0.4256  0.6363
   77MOL0     C10308   9.513  10.019   1.825 -0.1054 -0.1263 -0.0356
   77MOL0     C10309   9.511   9.938   1.935 -0.0417 -0.4314 -0.4538
   77MOL0     N10310   9.896   9.556   1.766 -0.9839 -0.3249  0.1909
   77MOL0     N10311   9.988   9.574   1.675 -0.7837  1.0204  0.6867
   77MOL0     C10312  10.989   9.837   1.812 -0.0784  0.6665  0.6768
   77MOL0     C10313  11.013   9.718   1.882 -0.4670  0.3445  0.0520
   77MOL0     C10314  11.013   9.304   2.101  0.1807 -0.1723  0.6724
   77MOL0     C10315  11.023   9.208   1.994  0.1351 -0.0744  0.2710
   77MOL0     C10316  11.011   9.072   2.029 -0.3446 -0.0521  0.1860
   77MOL0     C10317  11.028   9.019   2.161 -0.3845  1.0737  0.0207
   77MOL0     O10318  11.035   8.889   2.200 -0.9802  0.1524  0.3061
   77MOL0     C10319  10.940   8.794   2.142 -0.3487 -0.3691  0.1206
   77MOL0     C10320  11.017   8.709   2.041 -0.0826  0.4833  0.6020
   77MOL0     C10321  11.141   8.634   2.099  0.0443  0.6885 -0.5008
   77MOL0     C10322  11.104   8.526   2.212  0.5625 -0.9511 -0.0747
   77MOL0     C10323  11.221   8.435   2.217 -0.6037 -0.7341  0.2807
   77MOL0     C10324  11.313   8.354   2.218 -0.2615 -0.5603  0.2362
   77MOL0     C10325  11.042   9.119   2.259 -0.1016 -0.3113  0.3400
   77MOL0     C10326  11.030   9.252   2.230 -1.4759 -0.1678 -0.5977
   77MOL0     C10327  11.040   9.350   2.345 -0.5497 -0.2260 -0.2915
   77MOL0     H10328  10.859   9.467   1.712 -4.0239  0.5820  1.1975
   77MOL0     H10329  10.787   9.671   1.586 -1.6739  2.2624  1.1114
   77MOL0     H10330  10.876  10.074   1.756  1.3906  1.3420  0.2063
   77MOL0     H10331  10.978  10.070   1.604  0.2308  1.0563 -0.7510
   77MOL0     H10332  10.788  10.154   1.481 -2.4714 -1.4418 -0.0085
   77MOL0     H10333  10.825  10.252   1.624 -2.7143  1.2344  0.1129
   77MOL0     H10334  10.598  10.249   1.619 -0.1034 -0.5782 -1.1322
   77MOL0     H10335  10.662  10.147   1.754  0.5442 -1.3835  0.3291
   77MOL0     H10336  10.525  10.071   1.488 -1.3068  0.8005  0.3995
   77MOL0     H10337  10.620   9.954   1.589  0.0031  0.0052 -1.7234
   77MOL0     H10338  10.477   9.988   1.788  1.2428  1.2052  0.8858
   77MOL0     H10339  10.372  10.089   1.687  2.6676  0.8984  1.7630
   77MOL0     H10340  10.342   9.909   1.508  0.3884  3.5160  0.7669
   77MOL0     H10341  10.448   9.800   1.600  0.6174  0.3692  1.3246
   77MOL0     H10342  10.158   9.912   1.659  0.2489  2.4001  5.6462
   77MOL0     H10343  10.263   9.826   1.784 -1.2340 -5.4049 -0.1658
   77MOL0     H10344  10.188   9.697   1.529 -1.7060  2.6487  0.2565
   77MOL0     H10345  10.285   9.630   1.658  1.4906  1.3103 -0.3199
   77MOL0     H10346  10.134   9.719   1.930 -1.6661  0.9052  1.2253
   77MOL0     H10347   9.858   9.501   2.042 -1.0247 -0.3460  0.9324
   77MOL0     H10348   9.904   9.657   2.109 -3.6382 -0.3282  1.4452
   77MOL0     H10349   9.751   9.784   2.002  3.2254 -0.1247  1.5107
   77MOL0     H10350   9.681   9.643   1.913  0.8929 -0.0348  0.9824
   77MOL0     H10351   9.706   9.641   2.218 -0.0675  1.8172  1.1428
   77MOL0     H10352   9.614   9.536   2.120 -0.2488 -0.1920  3.0899
   77MOL0     H10353   9.550   9.819   2.160  1.9255 -0.3055  0.1365
   77MOL0     H10354   9.455   9.681   2.223 -0.4313  1.8323  0.0933
   77MOL0     H10355   9.280   9.716   1.812 -0.1090  0.3104 -0.2102
   77MOL0     H10356   9.260   9.894   1.654  0.3060 -4.6692  0.2492
   77MOL0     H10357   9.412  10.375   1.481  0.9692  1.4577 -1.1662
   77MOL0     H10358   9.344  10.502   1.276  0.1690  0.8236 -0.9028
   77MOL0     H10359   9.451  10.300   0.940 -1.2802 -0.5677  1.5316
   77MOL0     H10360   9.299  10.357   0.855 -1.2761  0.5545  1.3262
   77MOL0     H10361   9.491  10.464   0.777 -1.2350 -3.0607  1.1933
   77MOL0     H10362   9.369  10.580   0.833 -0.6796 -0.2852 -0.1961
   77MOL0     H10363   9.521  10.517   1.063 -0.7130 -1.4856 -0.6996
   77MOL0     H10364   9.640  10.531   0.936 -1.4950 -0.5275 -2.6323
   77MOL0     H10365   9.447  10.739   1.021 -2.4509 -2.9770 -2.4227
   77MOL0     H10366   9.524  10.737   0.860 -1.3844 -0.5076 -0.7817
   77MOL0     H10367   9.749  10.722   0.977 -1.7007 -0.3832  0.6233
   77MOL0     H10368   9.669  10.737   1.131  0.4165  2.7223  1.4689
   77MOL0     H10369   9.678  10.940   0.923 -0.9123  0.2093 -0.8808
   77MOL0     H10370   9.572  10.952   1.062  0.6921 -0.2936  0.1236
   77MOL0     H10371   9.881  10.931   1.083 -0.6046  3.9000 -0.3752
   77MOL0     H10372   9.781  10.889   1.217 -1.6053 -3.4467 -1.9311
   77MOL0     H10373   9.768  11.159   1.069 -6.0362 -2.1104 -0.1975
   77MOL0     H10374   9.705  11.114   1.229  0.5436  1.8967  1.2793
   77MOL0     H10375   9.286  10.134   1.060 -3.3781 -2.1099  1.4837
   77MOL0     H10376   9.284  10.011   1.276  3.0676  0.2362  0.5001
   77MOL0     H10377   9.587  10.098   1.820 -0.0253 -0.1794  0.2893
   77MOL0     H10378   9.576   9.966   2.017  0.7507 -1.3933 -0.7266
   77MOL0     H10379  11.036   9.933   1.832 -0.7944  0.6426  2.6996
   77MOL0     H10380  11.074   9.706   1.971 -1.0676  0.5291  0.4920
   77MOL0     H10381  11.012   9.243   1.892  1.5546  2.9681  1.0443
   77MOL0     H10382  10.986   8.992   1.959 -0.7530  1.1153 -1.0408
   77MOL0     H10383  10.851   8.834   2.092 -0.1350 -0.7566 -0.5869
   77MOL0     H10384  10.896   8.731   2.219 -3.9048  1.5887 -0.0670
   77MOL0     H10385  11.049   8.760   1.949 -3.6153 -1.0614 -1.7002
   77MOL0     H10386  10.943   8.641   2.000  1.0714  0.6416 -1.9695
   77MOL0     H10387  11.200   8.717   2.139  0.0696  1.7395 -2.6171
   77MOL0     H10388  11.204   8.589   2.022  1.4381 -2.9693  2.4307
   77MOL0     H10389  11.080   8.573   2.307  1.4633 -1.3898  0.3884
   77MOL0     H10390  11.014   8.468   2.188 -0.4102 -0.1270  1.4686
   77MOL0     H10391  11.392   8.282   2.215  2.3219  1.8396  3.5392
   77MOL0     H10392  11.057   9.098   2.364 -1.0511  2.3434  1.0747
   77MOL0     H10393  11.069   9.309   2.442  0.8924 -1.8615 -1.3448
   77MOL0     H10394  11.114   9.423   2.309  1.4299 -2.3387 -0.7186
   77MOL0     H10395  10.944   9.398   2.369 -1.4732 -1.5872 -1.1210
   78MOL0     O10396   9.736  10.531   9.463  0.0915 -0.5268 -0.5146
   78MOL0     C10397   9.696  10.597   9.375 -0.5005  0.6072  0.1098
   78MOL0     O10398   9.563  10.598   9.338  0.0630 -0.3331  0.8102
   78MOL0     C10399   9.464  10.527   9.405  0.5873  0.8801  0.7648
   78MOL0     C10400   9.327  10.564   9.394  0.2693  0.9221 -0.0239
   78MOL0     C10401   9.231  10.490   9.462 -0.1433 -0.1084  0.3318
   78MOL0     C10402   9.260  10.375   9.531 -0.0724  0.2477 -0.0030
   78MOL0     O10403   9.161  10.316   9.602  0.9432 -0.2352  0.6209
   78MOL0     C10404   9.186  10.233   9.708 -0.2086 -0.3570 -0.6378
   78MOL0     C10405   9.048  10.170   9.735 -0.3263 -0.3905 -0.0949
   78MOL0     C10406   9.038  10.069   9.848  0.2565 -0.7456  0.3874
   78MOL0     C10407   9.072   9.929   9.808  0.2765 -0.2950 -0.5386
   78MOL0     C10408   9.036   9.827   9.917 -0.4474 -0.0475 -0.9804
   78MOL0     C10409   9.095   9.867  10.050 -0.1331 -0.0353  0.7841
   78MOL0     C10410   9.076   9.759  10.164 -0.1895 -1.1839  0.2493
   78MOL0     C10411   8.935   9.711  10.177 -0.6700  0.0952  0.6357
   78MOL0     N10412   8.944   9.561  10.187 -0.7673 -0.0545 -0.8200
   78MOL0     C10413   8.961   9.471  10.081 -0.6667 -0.1798  0.4348
   78MOL0     C10414   8.991   9.354  10.132 -0.5660  1.0335 -0.6523
   78MOL0     C10415   9.046   9.224  10.070  0.7402  0.5681 -0.4644
   78MOL0     C10416   8.973   9.091  10.109 -1.0436 -0.4589  0.4129
   78MOL0     C10417   9.065   8.980  10.075  1.3497 -0.6922  0.1115
   78MOL0     C10418   8.970   8.850  10.078  0.2286  0.0426  0.8011
   78MOL0     O10419   8.882   8.845  10.187 -0.9381  0.0697  0.6882
   78MOL0     C10420   8.872   8.734  10.264 -0.2420 -0.4979  0.0323
   78MOL0     C10421   8.964   8.631  10.270 -0.7377 -1.4049 -0.7488
   78MOL0     C10422   8.928   8.518  10.351  0.2567 -0.6594 -1.5007
   78MOL0     C10423   8.826   8.528  10.451 -0.0026  0.3933  0.2384
   78MOL0     C10424   8.786   8.414  10.533 -0.9436  0.2292 -0.3041
   78MOL0     O10425   8.689   8.450  10.620 -0.3226 -0.2504 -0.1630
   78MOL0     C10426   8.658   8.370  10.723  0.5006  0.4657  0.1634
   78MOL0     C10427   8.726   8.397  10.839 -0.7179  0.0773  0.7266
   78MOL0     C10428   8.707   8.322  10.954  0.0310 -0.6290 -0.0091
   78MOL0     C10429   8.611   8.222  10.955 -0.5103  0.9087  0.3199
   78MOL0     O10430   8.599   8.132  11.062 -0.8628 -0.2110 -0.1475
   78MOL0     C10431   8.478   8.064  11.079 -0.0001 -0.7401 -0.4192
   78MOL0     C10432   8.477   8.007  11.229 -0.6419 -0.0135 -0.1820
   78MOL0     C10433   8.362   7.905  11.255  0.3445 -0.4651  0.7747
   78MOL0     C10434   8.366   7.852  11.399 -0.2300  0.7818  0.1890
   78MOL0     C10435   8.294   7.715  11.411 -0.6125  0.0355  0.5692
   78MOL0     C10436   8.151   7.756  11.388  0.4347 -0.3704  0.1048
   78MOL0     C10437   8.050   7.649  11.422 -0.4310  0.5834  0.1321
   78MOL0     C10438   7.921   7.711  11.356  0.0735  0.7418 -0.0839
   78MOL0    Cl10439   7.774   7.641  11.430 -0.2103 -0.1176 -0.1931
   78MOL0     C10440   8.541   8.208  10.835 -0.3199  0.8701 -0.3035
   78MOL0     C10441   8.564   8.272  10.721  0.6879  0.9307 -0.6959
   78MOL0     O10442   8.842   8.301  10.531 -0.3672  0.5269  0.2938
   78MOL0     C10443   8.731   8.630  10.433 -1.3459 -0.3242  0.3370
   78MOL0     C10444   8.761   8.745  10.352  0.5208 -0.7987 -1.0129
   78MOL0     N10445   9.004   9.362  10.270 -0.0826  0.3426  0.0537
   78MOL0     N10446   8.953   9.479  10.300  1.1191  0.3053  0.4966
   78MOL0     C10447   9.385  10.320   9.497  0.9217 -0.0175 -0.1189
   78MOL0     C10448   9.487  10.393   9.456  0.1925 -0.4089 -0.9430
   78MOL0     C10449   9.805  10.659   9.295 -0.4982  0.3040 -0.1109
   78MOL0     C10450   9.936  10.618   9.323 -0.6186  0.0242  0.3503
   78MOL0     C10451  10.048  10.672   9.256  0.4461  1.3793  0.0319
   78MOL0     C10452  10.031  10.769   9.160  0.3784  0.4722  1.2025
   78MOL0     O10453  10.148  10.825   9.113  0.5673  0.2936 -0.1805
   78MOL0     C10454  10.136  10.854   8.974  0.2667  0.0118 -0.8225
   78MOL0     C10455  10.273  10.855   8.931  0.0228  1.1852  0.6070
   78MOL0     C10456  10.290  10.877   8.786 -0.2228 -0.7521 -0.5772
   78MOL0     C10457  10.433  10.900   8.729  0.5840 -0.7536 -0.8738
   78MOL0     C10458  10.512  10.782   8.755  0.7273 -0.2721  0.0351
   78MOL0     C10459  10.596  10.704   8.791 -0.0473 -0.2684 -0.5044
   78MOL0     C10460   9.903  10.812   9.124  0.6538  0.5454 -0.1788
   78MOL0     C10461   9.792  10.754   9.189 -1.3149 -0.7940  0.4094
   78MOL0     C10462   9.660  10.810   9.144  0.2650 -0.1417  0.4034
   78MOL0     H10463   9.299  10.657   9.346  0.6053  1.4728  0.8094
   78MOL0     H10464   9.136  10.542   9.470  0.0437  0.6784 -1.8053
   78MOL0     H10465   9.268  10.164   9.690 -0.2838  0.0937 -3.0004
   78MOL0     H10466   9.210  10.280   9.804  0.6199  0.9153 -1.4462
   78MOL0     H10467   9.008  10.125   9.644  0.5407 -0.7324 -0.3119
   78MOL0     H10468   8.984  10.257   9.753  1.2377  0.9424 -0.6838
   78MOL0     H10469   8.938  10.071   9.893 -0.2282 -1.7662 -0.6166
   78MOL0     H10470   9.099  10.112   9.928 -1.8725  1.0005  1.1621
   78MOL0     H10471   9.013   9.902   9.720  1.6234 -0.2424 -1.4983
   78MOL0     H10472   9.180   9.920   9.793  1.3985  1.4096  4.5672
   78MOL0     H10473   8.927   9.813   9.924 -0.4322  0.5378  1.1558
   78MOL0     H10474   9.086   9.736   9.885 -4.3811 -2.3141 -1.3611
   78MOL0     H10475   9.199   9.877  10.016 -1.0865  1.4313 -1.9503
   78MOL0     H10476   9.061   9.964  10.090 -0.1600  0.4586 -0.4041
   78MOL0     H10477   9.110   9.810  10.255  2.3767  0.0222 -1.2888
   78MOL0     H10478   9.144   9.679  10.134  0.1310 -0.4034 -1.1739
   78MOL0     H10479   8.904   9.753  10.274 -0.9653  0.9915  0.1633
   78MOL0     H10480   8.869   9.747  10.098 -2.8934  0.8829  2.7109
   78MOL0     H10481   8.945   9.497   9.977  1.8446  3.3221  0.7368
   78MOL0     H10482   9.024   9.236   9.964 -2.0606 -0.4801 -0.0825
   78MOL0     H10483   9.154   9.221  10.081  0.4422 -1.5512  4.5121
   78MOL0     H10484   8.960   9.093  10.218 -0.9091 -0.8490  0.4380
   78MOL0     H10485   8.880   9.083  10.052  0.0303  1.2749 -1.7507
   78MOL0     H10486   9.147   8.960  10.144  1.2743 -1.5499 -0.0253
   78MOL0     H10487   9.112   8.978   9.976  0.8854 -3.1212 -0.1303
   78MOL0     H10488   9.035   8.762  10.075 -2.0017 -1.8871  3.3428
   78MOL0     H10489   8.916   8.836   9.985  0.1906  1.3000  0.6093
   78MOL0     H10490   9.060   8.611  10.224  0.7966 -1.6277  2.2554
   78MOL0     H10491   8.998   8.438  10.373 -1.9558 -2.1606  0.4838
   78MOL0     H10492   8.799   8.477  10.838 -3.2364  2.5185  1.1154
   78MOL0     H10493   8.780   8.330  11.034  0.5978 -2.1004 -0.3517
   78MOL0     H10494   8.394   8.133  11.069  0.1232 -0.7117 -1.4027
   78MOL0     H10495   8.459   7.988  11.003 -0.6690  0.5945 -1.6474
   78MOL0     H10496   8.572   7.953  11.233 -2.0414 -2.7937 -1.4978
   78MOL0     H10497   8.474   8.090  11.299  2.3771 -0.2416  0.3409
   78MOL0     H10498   8.262   7.947  11.242 -0.0833 -1.2818  1.3410
   78MOL0     H10499   8.364   7.821  11.184 -2.4962 -1.8312  2.1486
   78MOL0     H10500   8.316   7.922  11.466  1.9698  0.6280  2.1134
   78MOL0     H10501   8.468   7.838  11.436 -0.7729 -0.0754  1.4076
   78MOL0     H10502   8.316   7.670  11.508  4.0530 -2.3397 -1.2694
   78MOL0     H10503   8.328   7.636  11.344  0.1778  0.7127  0.1503
   78MOL0     H10504   8.119   7.846  11.441  0.2862 -0.4141  0.0909
   78MOL0     H10505   8.141   7.784  11.282  3.5227  1.0603  0.0780
   78MOL0     H10506   8.038   7.642  11.530  1.5950 -1.2751  0.3081
   78MOL0     H10507   8.083   7.549  11.392  0.4195  0.7608  0.4333
   78MOL0     H10508   7.914   7.820  11.356 -1.5704  0.7683  3.6314
   78MOL0     H10509   7.922   7.675  11.253  2.4861  0.4567 -0.0286
   78MOL0     H10510   8.461   8.135  10.846 -0.9189  1.7875  2.0517
   78MOL0     H10511   8.513   8.237  10.632 -0.2351 -0.6972  0.4274
   78MOL0     H10512   8.640   8.645  10.490 -1.6929  2.3511 -0.8062
   78MOL0     H10513   8.710   8.839  10.368  3.0363  0.6291 -0.7822
   78MOL0     H10514   9.410  10.219   9.527  0.5217  0.3347  1.4663
   78MOL0     H10515   9.581  10.345   9.429  0.3905 -1.1327  0.8891
   78MOL0     H10516   9.966  10.526   9.372  1.6274 -0.7186 -2.1586
   78MOL0     H10517  10.147  10.631   9.272 -1.1285 -3.7953 -1.6472
   78MOL0     H10518  10.100  10.953   8.944  1.4040  1.5512  2.4001
   78MOL0     H10519  10.079  10.778   8.920  0.9533  0.0576 -1.6389
   78MOL0     H10520  10.314  10.759   8.962 -1.7029  0.4921  0.8986
   78MOL0     H10521  10.330  10.929   8.987  0.5167 -0.6164  2.6173
   78MOL0     H10522  10.231  10.963   8.752 -1.3141 -1.2393  0.0421
   78MOL0     H10523  10.228  10.805   8.733 -1.3353 -1.2094  1.2453
   78MOL0     H10524  10.432  10.936   8.626 -2.1363  2.5510  0.1010
   78MOL0     H10525  10.477  10.982   8.786 -3.1139  0.6366  0.2647
   78MOL0     H10526  10.663  10.627   8.823  1.2769  2.5423  4.4556
   78MOL0     H10527   9.883  10.879   9.041  0.5149 -0.9747 -1.4251
   78MOL0     H10528   9.584  10.737   9.116 -1.2767  2.2814 -2.4062
   78MOL0     H10529   9.626  10.861   9.234  1.7624  0.2264  0.7968
   78MOL0     H10530   9.672  10.878   9.059 -2.0262  0.0622  0.1852
   79MOL0     O10531   3.956  10.186  11.337  0.1341 -1.0244  0.3958
   79MOL0     C10532   3.898  10.257  11.256 -0.3616 -0.1435 -0.1481
   79MOL0     O10533   3.958  10.346  11.166  0.2836 -0.4561 -0.0205
   79MOL0     C10534   4.094  10.355  11.153  0.1690 -0.5015  0.3923
   79MOL0     C10535   4.125  10.407  11.025  0.4601  0.2242 -1.3021
   79MOL0     C10536   4.261  10.427  10.994  0.6322 -0.2549 -0.2547
   79MOL0     C10537   4.362  10.419  11.090  0.5022 -0.3848  0.1119
   79MOL0     O10538   4.496  10.445  11.067  0.2673  0.3811  0.4550
   79MOL0     C10539   4.519  10.565  10.990 -0.3416 -0.4087 -0.4491
   79MOL0     C10540   4.633  10.664  11.037  0.0172  0.6043  0.0161
   79MOL0     C10541   4.771  10.597  11.014  0.4769 -0.4831 -0.0136
   79MOL0     C10542   4.891  10.675  11.072 -0.0252  0.8330 -0.2408
   79MOL0     C10543   4.901  10.808  11.013 -0.7789  0.4851  0.5086
   79MOL0     C10544   5.020  10.881  11.077 -0.5788 -0.3799  0.4516
   79MOL0     C10545   5.040  11.024  11.016 -0.5755 -0.4682 -0.6440
   79MOL0     C10546   5.170  11.087  11.062 -0.7651 -0.8148  0.1965
   79MOL0     N10547   5.285  11.024  11.004 -0.3268 -0.6783 -0.1573
   79MOL0     C10548   5.368  10.942  11.074  0.6811  0.2294  0.1939
   79MOL0     C10549   5.445  10.895  10.981 -0.1663  0.5431 -0.0267
   79MOL0     C10550   5.553  10.787  11.009  0.1046  0.3723 -0.8400
   79MOL0     C10551   5.637  10.822  11.138  0.4699 -0.1304 -0.5522
   79MOL0     C10552   5.722  10.942  11.106  0.3597 -0.4678  0.2691
   79MOL0     C10553   5.755  11.030  11.223 -0.6270 -0.1895 -0.0683
   79MOL0     O10554   5.867  10.971  11.299  0.7475  0.9065  0.0973
   79MOL0     C10555   5.836  10.887  11.405 -0.3814  0.2972  0.4482
   79MOL0     C10556   5.748  10.928  11.510 -0.2364  0.7824  0.0422
   79MOL0     C10557   5.724  10.863  11.628  0.9455 -0.4153  0.4832
   79MOL0     C10558   5.795  10.742  11.648 -0.6783  0.0940  0.2278
   79MOL0     C10559   5.768  10.653  11.774  0.6549  0.1440  1.4052
   79MOL0     O10560   5.653  10.677  11.840  0.2031 -0.5804 -0.4540
   79MOL0     C10561   5.586  10.584  11.917  0.0202  0.0226  0.6942
   79MOL0     C10562   5.505  10.632  12.017 -0.9230 -0.5087 -0.8289
   79MOL0     C10563   5.436  10.536  12.100 -0.1850 -1.2154  0.3377
   79MOL0     C10564   5.446  10.398  12.081  0.5240 -0.3833 -0.2914
   79MOL0     O10565   5.374  10.304  12.140  0.6896 -0.4213  0.0083
   79MOL0     C10566   5.241  10.338  12.173  0.5630  0.4534  0.4056
   79MOL0     C10567   5.157  10.205  12.182  0.8552 -0.5880 -0.7039
   79MOL0     C10568   5.198  10.121  12.298  0.3126 -0.1219  0.3666
   79MOL0     C10569   5.121   9.990  12.303  0.6453 -0.6728  0.0171
   79MOL0     C10570   4.977  10.010  12.352  1.6061 -0.4743 -0.4917
   79MOL0     C10571   4.882   9.936  12.271 -0.0576  0.5177 -0.4327
   79MOL0     C10572   4.736   9.981  12.294  0.2768 -0.4466  0.8643
   79MOL0     C10573   4.684   9.946  12.436  1.8235 -0.6079  0.2012
   79MOL0    Cl10574   4.540  10.043  12.479 -0.0331  0.3504 -0.1379
   79MOL0     C10575   5.521  10.360  11.969 -0.0836  0.2802  0.0905
   79MOL0     C10576   5.583  10.447  11.884  0.0115 -0.2388 -0.4130
   79MOL0     O10577   5.852  10.568  11.802 -0.4750  0.2341  0.3451
   79MOL0     C10578   5.903  10.708  11.558 -0.2221  0.4365  0.6163
   79MOL0     C10579   5.918  10.780  11.437 -0.0715 -0.3334 -0.9994
   79MOL0     N10580   5.410  10.951  10.857 -0.7281  1.4089 -0.5729
   79MOL0     N10581   5.309  11.029  10.872 -0.3796 -0.1016  0.7159
   79MOL0     C10582   4.326  10.382  11.218  0.1567 -0.4845  0.0299
   79MOL0     C10583   4.193  10.357  11.255  1.2728  0.7053 -0.0839
   79MOL0     C10584   3.756  10.245  11.267  0.5196  0.5423  0.9759
   79MOL0     C10585   3.676  10.287  11.156  1.3423 -0.8920  0.3224
   79MOL0     C10586   3.535  10.280  11.153 -0.4843  1.0086  0.3203
   79MOL0     C10587   3.469  10.241  11.258  0.0547 -0.0447 -0.1753
   79MOL0     O10588   3.335  10.232  11.265 -0.5084  0.2965 -0.1966
   79MOL0     C10589   3.250  10.254  11.159 -0.1327  0.4354  0.1079
   79MOL0     C10590   3.130  10.330  11.202 -0.1927 -0.4556 -0.7619
   79MOL0     C10591   3.058  10.410  11.088  0.1072 -0.2792  0.0592
   79MOL0     C10592   3.049  10.344  10.951 -0.0818 -0.1382  0.0150
   79MOL0     C10593   2.944  10.245  10.937  0.1576 -0.3540  0.2729
   79MOL0     C10594   2.843  10.180  10.935 -0.6835  1.0370  0.2930
   79MOL0     C10595   3.538  10.206  11.377  0.9181 -0.8158  0.9607
   79MOL0     C10596   3.677  10.203  11.379 -0.8078 -0.7231 -0.8212
   79MOL0     C10597   3.740  10.149  11.511  0.3816 -0.5982 -0.4698
   79MOL0     H10598   4.042  10.424  10.957 -1.4310  0.7365  0.9672
   79MOL0     H10599   4.288  10.449  10.891  0.8564  0.4458 -0.0559
   79MOL0     H10600   4.537  10.539  10.886  0.3926  1.7045 -0.8822
   79MOL0     H10601   4.426  10.622  11.000 -0.9154 -1.4105  0.1325
   79MOL0     H10602   4.622  10.704  11.138  1.1326  1.8943 -0.3457
   79MOL0     H10603   4.636  10.751  10.971  0.5781  1.7761  1.5335
   79MOL0     H10604   4.784  10.595  10.905  1.5060 -0.1400  0.0990
   79MOL0     H10605   4.768  10.495  11.055  0.9723 -0.0740  1.0561
   79MOL0     H10606   4.873  10.699  11.177  1.6207  3.6667 -0.5214
   79MOL0     H10607   4.984  10.621  11.052 -1.5120 -1.8562 -0.3584
   79MOL0     H10608   4.906  10.794  10.905  2.8709 -0.0036  0.6424
   79MOL0     H10609   4.814  10.871  11.036 -2.3651  0.0922 -3.6174
   79MOL0     H10610   5.008  10.892  11.185 -0.4838 -3.1354  0.8133
   79MOL0     H10611   5.108  10.829  11.038 -0.7606  1.2203 -2.3258
   79MOL0     H10612   4.965  11.080  11.072  0.4537  0.0116  0.3103
   79MOL0     H10613   5.027  11.037  10.908 -0.5329 -2.6664 -0.9505
   79MOL0     H10614   5.174  11.195  11.043  0.6107 -0.7833  0.5605
   79MOL0     H10615   5.171  11.085  11.171 -3.4199 -3.6630  0.2801
   79MOL0     H10616   5.359  10.905  11.175  0.1746 -1.2574 -0.3648
   79MOL0     H10617   5.517  10.688  11.038 -0.2014  0.3245 -1.3691
   79MOL0     H10618   5.618  10.780  10.922  1.8974  1.3049  0.3617
   79MOL0     H10619   5.575  10.837  11.227  2.3033 -1.8950  1.1372
   79MOL0     H10620   5.703  10.736  11.155 -0.9123 -0.9179  1.1337
   79MOL0     H10621   5.669  11.009  11.037  1.2183 -2.0010 -1.9716
   79MOL0     H10622   5.816  10.911  11.061 -0.0994  0.4312 -1.3914
   79MOL0     H10623   5.680  11.051  11.300 -0.6112 -0.8077  0.1164
   79MOL0     H10624   5.800  11.120  11.178 -0.0712 -2.4505 -4.5376
   79MOL0     H10625   5.702  11.026  11.503 -1.2649  0.3925  1.0547
   79MOL0     H10626   5.642  10.887  11.695 -0.6022 -0.6794 -1.2567
   79MOL0     H10627   5.502  10.739  12.034  0.3502 -0.6304  0.3772
   79MOL0     H10628   5.361  10.564  12.174  0.0063 -1.4671  0.6315
   79MOL0     H10629   5.237  10.398  12.265  0.0769 -1.0342  1.3963
   79MOL0     H10630   5.188  10.387  12.091  1.0723  1.1836  0.5059
   79MOL0     H10631   5.052  10.235  12.191  0.0036 -2.4235 -3.3765
   79MOL0     H10632   5.175  10.157  12.085  0.1953 -2.0938 -0.1070
   79MOL0     H10633   5.305  10.107  12.281 -0.2198 -2.9712 -1.4306
   79MOL0     H10634   5.181  10.171  12.393  0.4485 -1.6033  1.2078
   79MOL0     H10635   5.178   9.921  12.367  1.4744  0.3258  0.3778
   79MOL0     H10636   5.125   9.942  12.205 -0.5913  1.1857 -0.9864
   79MOL0     H10637   4.936  10.109  12.330 -3.6525 -2.8042 -3.0925
   79MOL0     H10638   4.978   9.990  12.459 -1.0588 -0.6281 -0.4062
   79MOL0     H10639   4.908   9.962  12.169  0.9468 -0.5366 -0.4614
   79MOL0     H10640   4.893   9.831  12.300 -3.7160 -0.0811 -0.6745
   79MOL0     H10641   4.681   9.928  12.216  1.0900 -1.1956  0.7842
   79MOL0     H10642   4.717  10.087  12.278 -3.8429 -1.0430  0.5842
   79MOL0     H10643   4.666   9.840  12.461  1.3160  0.2746  4.3362
   79MOL0     H10644   4.754   9.988  12.509  0.7435 -1.4392  1.7698
   79MOL0     H10645   5.537  10.254  11.950 -4.1939 -0.6938  1.0905
   79MOL0     H10646   5.640  10.412  11.798 -1.2945  0.9903 -1.8534
   79MOL0     H10647   5.969  10.624  11.579  3.3149  3.2544  1.8213
   79MOL0     H10648   6.001  10.754  11.371 -0.0928  0.0974 -1.1952
   79MOL0     H10649   4.399  10.364  11.296  0.2211  2.7264  0.8731
   79MOL0     H10650   4.158  10.353  11.357  0.9034  1.2582 -0.1816
   79MOL0     H10651   3.714  10.320  11.060 -2.6560  2.4472 -0.3534
   79MOL0     H10652   3.492  10.298  11.055 -3.2871 -3.1134  0.5486
   79MOL0     H10653   3.203  10.163  11.121 -1.1411  0.8018  0.4266
   79MOL0     H10654   3.291  10.318  11.080  0.3338  2.7666  2.1154
   79MOL0     H10655   3.161  10.395  11.285  1.1657  1.1839 -2.4615
   79MOL0     H10656   3.071  10.250  11.247 -0.7370 -2.1880 -4.2360
   79MOL0     H10657   3.085  10.515  11.073 -0.6115 -0.2561 -1.2175
   79MOL0     H10658   2.956  10.397  11.124 -0.9788 -1.5053 -3.0903
   79MOL0     H10659   3.027  10.425  10.882 -1.6630 -1.0993 -0.6619
   79MOL0     H10660   3.148  10.307  10.920 -0.7046 -1.4165 -0.5329
   79MOL0     H10661   2.754  10.120  10.931 -0.8952  1.2382 -4.6810
   79MOL0     H10662   3.478  10.184  11.465 -0.8939 -2.4805 -0.5807
   79MOL0     H10663   3.808  10.220  11.557  0.0953 -0.5511 -0.1190
   79MOL0     H10664   3.665  10.118  11.585  1.3570  1.8396  1.6815
   79MOL0     H10665   3.807  10.066  11.487  0.3263 -0.7338 -0.1576
   80MOL0     O10666   6.499  11.124   2.384 -0.0875 -0.8199 -0.2333
   80MOL0     C10667   6.603  11.099   2.323  0.1168  0.3001 -0.4194
   80MOL0     O10668   6.606  11.028   2.199 -0.5377  0.2056 -0.3567
   80MOL0     C10669   6.483  10.980   2.162 -0.1315 -0.3726 -0.1795
   80MOL0     C10670   6.449  10.848   2.125 -0.0345  0.5942  0.2802
   80MOL0     C10671   6.336  10.808   2.067  0.7032  0.4375  0.6473
   80MOL0     C10672   6.225  10.896   2.044 -0.0565 -0.7731  1.0172
   80MOL0     O10673   6.102  10.877   1.984 -0.2023 -0.0489  0.4087
   80MOL0     C10674   6.085  10.749   1.911 -0.5641  0.6567  0.3245
   80MOL0     C10675   5.939  10.716   1.896 -0.5647 -0.1279 -0.4780
   80MOL0     C10676   5.865  10.688   2.027 -0.5425  0.1841  0.0338
   80MOL0     C10677   5.712  10.687   2.020 -0.5357 -0.4727  0.1925
   80MOL0     C10678   5.648  10.613   2.150 -0.9412 -0.1174 -0.1313
   80MOL0     C10679   5.501  10.571   2.119  0.6885 -0.2926  0.4658
   80MOL0     C10680   5.461  10.455   2.213  0.5926 -0.0017  0.5142
   80MOL0     C10681   5.435  10.526   2.349 -0.9120  1.0688  0.1296
   80MOL0     N10682   5.303  10.504   2.408 -0.1634  1.3230 -0.9017
   80MOL0     C10683   5.247  10.380   2.436 -0.5973  0.2840 -0.7268
   80MOL0     C10684   5.132  10.406   2.497 -0.1011 -0.8795 -0.5134
   80MOL0     C10685   5.029  10.295   2.521 -0.2462  0.2850 -0.2245
   80MOL0     C10686   4.996  10.283   2.680 -0.2471 -0.1229 -0.3790
   80MOL0     C10687   4.898  10.388   2.728 -0.3983 -0.4606 -0.8340
   80MOL0     C10688   4.864  10.371   2.872 -0.2211  0.1398  0.0613
   80MOL0     O10689   4.808  10.236   2.876 -0.3331  0.1678  0.5079
   80MOL0     C10690   4.741  10.211   2.989  0.3755  0.1443  0.2234
   80MOL0     C10691   4.606  10.231   2.997  0.4615 -0.2123 -0.3250
   80MOL0     C10692   4.530  10.195   3.105  0.0707 -0.0087 -0.9395
   80MOL0     C10693   4.597  10.160   3.221  0.0135  0.8432  0.4798
   80MOL0     C10694   4.518  10.152   3.353 -0.3459  0.0774 -0.0892
   80MOL0     O10695   4.398  10.198   3.356  0.9133  0.3335 -0.0009
   80MOL0     C10696   4.333  10.204   3.480  0.2969 -0.1752 -0.0847
   80MOL0     C10697   4.275  10.333   3.511  0.0949 -0.5135 -0.2997
   80MOL0     C10698   4.188  10.354   3.618 -1.3261  0.9087  0.5883
   80MOL0     C10699   4.145  10.237   3.696 -0.5834 -0.2093  0.7809
   80MOL0     O10700   4.065  10.243   3.800  0.6811 -0.0082 -0.6517
   80MOL0     C10701   4.119  10.316   3.906  0.5323  0.2107  0.3272
   80MOL0     C10702   4.130  10.217   4.025  0.3236  0.5647 -1.2919
   80MOL0     C10703   4.200  10.296   4.135 -0.5222 -0.2437 -0.7256
   80MOL0     C10704   4.178  10.219   4.264 -0.2677  0.3718 -0.3305
   80MOL0     C10705   4.251  10.290   4.375  0.1066 -0.2709 -0.6262
   80MOL0     C10706   4.223  10.223   4.508 -0.2665  0.6724  0.0984
   80MOL0     C10707   4.289  10.289   4.625 -0.3832  0.0326  0.6438
   80MOL0     C10708   4.278  10.194   4.741 -0.3912 -0.5423 -0.1724
   80MOL0    Cl10709   4.368  10.293   4.864  0.7724  0.1591  0.0506
   80MOL0     C10710   4.195  10.106   3.666  0.6076 -0.2061  0.8402
   80MOL0     C10711   4.291  10.092   3.555 -0.4375 -0.8308 -0.0131
   80MOL0     O10712   4.584  10.102   3.446  0.4161  0.5254 -0.1214
   80MOL0     C10713   4.738  10.150   3.219 -0.2376 -1.0228 -0.5639
   80MOL0     C10714   4.807  10.178   3.104  0.1430  0.5598  0.4100
   80MOL0     N10715   5.106  10.539   2.491 -0.2540  0.0782 -0.0277
   80MOL0     N10716   5.206  10.597   2.421  0.6386 -0.5723 -0.1683
   80MOL0     C10717   6.262  11.033   2.069  0.8075  0.2657  0.2628
   80MOL0     C10718   6.377  11.075   2.136  0.1245  0.1631 -0.9591
   80MOL0     C10719   6.730  11.158   2.382  0.0184  0.7217  0.1902
   80MOL0     C10720   6.717  11.288   2.432  0.0624  0.0599 -0.5875
   80MOL0     C10721   6.830  11.352   2.472  1.0950  0.7148 -0.2799
   80MOL0     C10722   6.946  11.286   2.491 -0.3211 -0.6033 -0.2339
   80MOL0     O10723   7.056  11.362   2.536 -0.1679  0.1095  0.0169
   80MOL0     C10724   7.156  11.406   2.433 -0.5220  0.0391  0.0492
   80MOL0     C10725   7.285  11.470   2.495  0.0902 -0.1894 -0.1140
   80MOL0     C10726   7.266  11.621   2.543  0.1708 -0.8641 -0.2201
   80MOL0     C10727   7.382  11.662   2.635  0.5016  0.0853 -0.0512
   80MOL0     C10728   7.383  11.596   2.766 -0.1183 -0.2232  0.4147
   80MOL0     C10729   7.398  11.529   2.866 -0.3077  0.2420 -0.4355
   80MOL0     C10730   6.960  11.150   2.455  0.6237 -0.0985  0.7840
   80MOL0     C10731   6.852  11.082   2.399  0.6293  0.8343  0.0592
   80MOL0     C10732   6.865  10.936   2.377 -0.6812  1.0025 -0.3195
   80MOL0     H10733   6.525  10.773   2.141 -1.4556 -1.2877 -1.3501
   80MOL0     H10734   6.329  10.703   2.041  0.7847  1.0366 -2.0265
   80MOL0     H10735   6.131  10.781   1.817 -1.0356  1.4807  0.3686
   80MOL0     H10736   6.143  10.665   1.950 -2.9994 -1.3417 -0.0990
   80MOL0     H10737   5.909  10.646   1.817 -3.3246  0.9319 -0.4605
   80MOL0     H10738   5.900  10.811   1.860  1.3860  0.2808 -1.6246
   80MOL0     H10739   5.891  10.768   2.096  0.7911 -0.0243 -0.1961
   80MOL0     H10740   5.907  10.590   2.054  1.7012  1.4978  1.5559
   80MOL0     H10741   5.672  10.788   2.011  0.6629 -0.0894 -1.1419
   80MOL0     H10742   5.688  10.632   1.929 -3.4264  0.9486  0.0047
   80MOL0     H10743   5.717  10.532   2.178  3.1616  3.2362  0.4358
   80MOL0     H10744   5.645  10.685   2.233 -1.7862  0.4443 -0.6385
   80MOL0     H10745   5.448  10.666   2.133  1.8593  0.4153  0.3190
   80MOL0     H10746   5.497  10.541   2.014  1.5595 -1.0388  0.6341
   80MOL0     H10747   5.545  10.386   2.214  1.2639  0.3578 -4.8063
   80MOL0     H10748   5.373  10.406   2.171 -1.7743  2.8773  1.6682
   80MOL0     H10749   5.507  10.489   2.422 -1.9488 -2.6101 -0.5158
   80MOL0     H10750   5.429  10.635   2.341 -0.6391  1.3889  3.1074
   80MOL0     H10751   5.287  10.279   2.444  4.5378  2.1384  1.6361
   80MOL0     H10752   4.935  10.319   2.469 -0.8277 -1.1442  0.0922
   80MOL0     H10753   5.062  10.195   2.489  3.4251  0.5091  2.3131
   80MOL0     H10754   4.963  10.182   2.707 -0.4038  0.8424  3.6537
   80MOL0     H10755   5.090  10.299   2.734  0.1143  2.3813 -1.6152
   80MOL0     H10756   4.807  10.377   2.668 -0.6606 -2.0837 -0.1953
   80MOL0     H10757   4.941  10.488   2.716 -2.0929  0.3699 -0.2517
   80MOL0     H10758   4.785  10.447   2.883 -2.0649 -2.0238  3.5641
   80MOL0     H10759   4.956  10.382   2.930  0.1960 -1.9484 -0.1547
   80MOL0     H10760   4.555  10.234   2.901  1.6776  3.2642 -0.9822
   80MOL0     H10761   4.422  10.199   3.099 -0.2577  5.8789  1.7102
   80MOL0     H10762   4.303  10.419   3.451 -2.7625  0.5888 -0.1898
   80MOL0     H10763   4.147  10.454   3.628 -2.7105  0.4368  0.0214
   80MOL0     H10764   4.211  10.371   3.883  0.2255  0.1363 -1.1385
   80MOL0     H10765   4.046  10.393   3.932 -0.8802 -2.2960  4.9397
   80MOL0     H10766   4.032  10.174   4.049  0.4610  0.5821 -0.6697
   80MOL0     H10767   4.196  10.132   4.004 -0.1734 -0.4025  0.8054
   80MOL0     H10768   4.306  10.294   4.109 -0.9141  1.2371 -2.6957
   80MOL0     H10769   4.176  10.402   4.142  2.3308  0.7400 -3.5004
   80MOL0     H10770   4.218  10.118   4.254  3.3270  0.9181  4.7432
   80MOL0     H10771   4.072  10.205   4.289 -0.3196  0.9175 -0.2381
   80MOL0     H10772   4.229  10.397   4.384 -3.3900 -0.9763  1.6953
   80MOL0     H10773   4.358  10.285   4.354  0.8598  3.5937  1.2105
   80MOL0     H10774   4.117  10.207   4.531 -0.0327 -0.2722  0.5872
   80MOL0     H10775   4.268  10.124   4.498  1.4202  1.4547 -0.2894
   80MOL0     H10776   4.232  10.379   4.648  2.2005  2.1086 -0.5511
   80MOL0     H10777   4.392  10.322   4.613 -0.5606  0.5303  0.4816
   80MOL0     H10778   4.178  10.160   4.770 -1.1966 -0.6281 -2.8332
   80MOL0     H10779   4.339  10.105   4.724  1.4900  0.8592 -0.9818
   80MOL0     H10780   4.167  10.022   3.729  1.6253  1.0436  3.0987
   80MOL0     H10781   4.335   9.997   3.524 -1.2670 -1.7323  1.4026
   80MOL0     H10782   4.794  10.133   3.310  0.1377  1.3115 -0.2823
   80MOL0     H10783   4.916  10.173   3.106  0.3161 -2.6523 -3.3929
   80MOL0     H10784   6.189  11.112   2.054 -0.8159 -1.4673 -1.5266
   80MOL0     H10785   6.386  11.182   2.147 -0.6973  0.1968 -0.5190
   80MOL0     H10786   6.626  11.344   2.414  0.0469  0.0555 -0.5237
   80MOL0     H10787   6.831  11.450   2.520 -0.5663 -0.8425  3.3239
   80MOL0     H10788   7.104  11.472   2.363 -1.0076 -1.8159 -1.4164
   80MOL0     H10789   7.190  11.322   2.372  1.2308  0.7386  0.0216
   80MOL0     H10790   7.363  11.474   2.418  0.2392 -0.3234  0.0304
   80MOL0     H10791   7.327  11.403   2.570 -0.0945 -0.6885 -0.4481
   80MOL0     H10792   7.168  11.648   2.582 -0.5650  0.6622 -2.8576
   80MOL0     H10793   7.254  11.681   2.452 -0.5315 -0.5135  0.0928
   80MOL0     H10794   7.477  11.635   2.588  0.5249  1.1057 -0.6099
   80MOL0     H10795   7.377  11.769   2.657  1.0431  0.0394  0.3046
   80MOL0     H10796   7.414  11.491   2.965 -3.2648 -0.2721 -0.0773
   80MOL0     H10797   7.055  11.101   2.474  0.5571  0.1983  1.9516
   80MOL0     H10798   6.966  10.909   2.408 -0.8344  0.3789 -0.3524
   80MOL0     H10799   6.785  10.888   2.433 -4.3323  0.7198 -5.1157
   80MOL0     H10800   6.852  10.894   2.277 -0.7169 -2.0257  0.8650
   81MOL0     O10801  11.251   1.662  10.228  0.3273 -0.3298 -0.2729
   81MOL0     C10802  11.130   1.636  10.212 -0.7321 -0.0633 -0.3494
   81MOL0     O10803  11.047   1.576  10.312  0.1864 -0.0587 -0.5827
   81MOL0     C10804  11.100   1.556  10.439 -0.1345  0.6067  0.9575
   81MOL0     C10805  11.226   1.511  10.478  0.2789  0.2660  0.6240
   81MOL0     C10806  11.246   1.493  10.612  0.2142  0.2933 -0.4009
   81MOL0     C10807  11.145   1.519  10.702  0.5711  0.8191  0.8107
   81MOL0     O10808  11.171   1.509  10.837 -0.9423 -0.6178  0.7565
   81MOL0     C10809  11.070   1.467  10.927  0.2400 -1.2142 -0.4059
   81MOL0     C10810  11.016   1.583  11.005  0.3944  0.8590  0.4889
   81MOL0     C10811  11.114   1.640  11.109  0.9227 -0.0889  0.4805
   81MOL0     C10812  11.127   1.536  11.225 -0.6318 -0.4582  0.4541
   81MOL0     C10813  11.234   1.569  11.328  0.3398  0.7036  0.2402
   81MOL0     C10814  11.191   1.677  11.425  0.0870  0.3780  0.5863
   81MOL0     C10815  11.295   1.683  11.534 -0.8307 -0.3862 -0.5050
   81MOL0     C10816  11.266   1.821  11.603 -0.6883 -0.0144  0.7711
   81MOL0     N10817  11.133   1.850  11.649  0.4958  0.1037  0.7756
   81MOL0     C10818  11.080   1.799  11.762 -0.2858 -0.5591  0.3727
   81MOL0     C10819  10.956   1.862  11.767 -0.1776  0.1564 -0.3187
   81MOL0     C10820  10.883   1.853  11.891 -0.2500 -0.6022 -0.2933
   81MOL0     C10821  10.860   1.707  11.939 -0.3502 -0.7458 -0.1832
   81MOL0     C10822  10.762   1.714  12.067  1.5052  0.1439  0.2028
   81MOL0     C10823  10.731   1.573  12.111 -0.1233 -0.6159 -0.5855
   81MOL0     O10824  10.605   1.573  12.186 -0.4053 -0.6428 -0.5594
   81MOL0     C10825  10.486   1.585  12.114 -0.0865  0.1532  0.2188
   81MOL0     C10826  10.370   1.627  12.177  0.9203  0.3291  0.6981
   81MOL0     C10827  10.243   1.639  12.122  0.3675 -0.0254  0.6065
   81MOL0     C10828  10.233   1.597  11.985  0.7320  0.6900  0.1042
   81MOL0     C10829  10.104   1.595  11.907  0.4993 -0.4003  0.0624
   81MOL0     O10830  10.096   1.586  11.771  0.3003  0.8783 -0.5133
   81MOL0     C10831   9.976   1.626  11.715 -0.0283  0.3879 -0.0851
   81MOL0     C10832   9.917   1.756  11.737 -0.3662 -0.1528  0.9812
   81MOL0     C10833   9.806   1.795  11.656  0.0867 -0.7062 -0.1870
   81MOL0     C10834   9.760   1.705  11.557  0.4273  0.3058  0.0456
   81MOL0     O10835   9.663   1.732  11.463  0.5393 -0.0760 -0.5948
   81MOL0     C10836   9.673   1.858  11.401  0.9115  0.2537 -1.3859
   81MOL0     C10837   9.558   1.879  11.295 -0.2564 -0.1742  1.6414
   81MOL0     C10838   9.585   1.988  11.187 -0.2536  0.0243  0.5728
   81MOL0     C10839   9.634   2.120  11.252 -0.1469 -0.5039  1.1103
   81MOL0     C10840   9.690   2.217  11.129 -0.2406 -0.1891 -0.0108
   81MOL0     C10841   9.718   2.349  11.199  0.4468  0.1372 -0.4640
   81MOL0     C10842   9.758   2.459  11.105 -0.2522 -0.0404 -0.9523
   81MOL0     C10843   9.806   2.576  11.194 -0.8563 -0.3791 -0.7143
   81MOL0    Cl10844   9.969   2.550  11.264 -0.0082 -0.2844 -0.3943
   81MOL0     C10845   9.815   1.578  11.548 -0.5525  0.7872 -0.4071
   81MOL0     C10846   9.925   1.542  11.627  1.1632  0.3376  0.8861
   81MOL0     O10847  10.011   1.618  11.986 -0.6028  0.2040  0.5654
   81MOL0     C10848  10.347   1.543  11.914 -0.1127  1.0111 -0.0737
   81MOL0     C10849  10.473   1.542  11.982  0.5575 -0.1406  0.0122
   81MOL0     N10850  10.940   1.951  11.671  0.4688 -0.6613 -0.5688
   81MOL0     N10851  11.042   1.944  11.601  0.4278  1.0252  0.6096
   81MOL0     C10852  11.023   1.579  10.665  0.4760 -1.0774  0.1810
   81MOL0     C10853  11.004   1.585  10.531 -0.2397 -0.5085 -0.8071
   81MOL0     C10854  11.073   1.670  10.078  0.7564  0.4192 -0.2017
   81MOL0     C10855  10.987   1.788  10.071 -0.3046  0.1800 -0.9358
   81MOL0     C10856  10.933   1.823   9.945  0.3072  0.1729 -0.2696
   81MOL0     C10857  10.966   1.746   9.833 -0.0851 -0.7388 -0.6376
   81MOL0     O10858  10.930   1.780   9.714 -0.5549 -0.4652  0.6189
   81MOL0     C10859  10.800   1.831   9.688  0.0982  0.9232  0.1078
   81MOL0     C10860  10.797   1.972   9.650  1.1044  0.2264 -0.5398
   81MOL0     C10861  10.884   2.001   9.531  0.3684 -0.4378  0.4925
   81MOL0     C10862  10.868   2.151   9.492 -0.2662  0.8833  0.6789
   81MOL0     C10863  10.925   2.244   9.576 -0.7414  0.0872 -1.0491
   81MOL0     C10864  10.959   2.324   9.659  0.0391 -0.5855  0.4099
   81MOL0     C10865  11.063   1.642   9.838 -0.5898  0.1957  0.2738
   81MOL0     C10866  11.116   1.597   9.961 -0.3901  0.1841 -0.6190
   81MOL0     C10867  11.215   1.483   9.960 -0.3782 -1.4741  0.3228
   81MOL0     H10868  11.313   1.496  10.416 -1.6211  1.6831 -2.6138
   81MOL0     H10869  11.348   1.469  10.639 -0.6374  0.7548  3.9587
   81MOL0     H10870  10.987   1.421  10.873 -1.4986  2.1562 -0.9013
   81MOL0     H10871  11.111   1.389  10.992  0.7604 -0.2200  0.5084
   81MOL0     H10872  10.918   1.556  11.046 -0.1512 -0.1729 -1.4069
   81MOL0     H10873  10.995   1.674  10.948 -1.9557  1.1406  1.6435
   81MOL0     H10874  11.081   1.735  11.153 -2.6701  0.3147 -2.6253
   81MOL0     H10875  11.217   1.656  11.074  0.7585 -1.6300 -0.8277
   81MOL0     H10876  11.037   1.513  11.283 -0.5543 -2.6050 -0.1748
   81MOL0     H10877  11.162   1.444  11.179  0.2785  0.0054  0.2044
   81MOL0     H10878  11.245   1.478  11.387 -2.5203  1.7537  2.6703
   81MOL0     H10879  11.338   1.577  11.295  0.0652 -1.8661 -1.4392
   81MOL0     H10880  11.181   1.774  11.375 -0.8027  0.6743  1.3233
   81MOL0     H10881  11.094   1.646  11.466  0.6769  0.1267  1.8144
   81MOL0     H10882  11.394   1.697  11.491 -0.2438 -0.4273  0.7765
   81MOL0     H10883  11.298   1.596  11.600 -1.4533 -2.0777 -2.6209
   81MOL0     H10884  11.331   1.830  11.690  0.7428  5.3558 -0.4557
   81MOL0     H10885  11.293   1.900  11.532 -0.3684 -2.4528 -2.0046
   81MOL0     H10886  11.123   1.726  11.830 -0.5740 -1.0497  0.0366
   81MOL0     H10887  10.943   1.900  11.969  3.4139 -0.8917 -2.7009
   81MOL0     H10888  10.787   1.906  11.897 -0.1782 -0.6525  2.1261
   81MOL0     H10889  10.814   1.655  11.855  1.5640 -2.8587 -0.0160
   81MOL0     H10890  10.951   1.662  11.981 -0.5307  1.8952  3.5743
   81MOL0     H10891  10.668   1.766  12.045 -0.6744 -2.6306  2.2007
   81MOL0     H10892  10.803   1.776  12.148 -1.2704  0.6140  1.3792
   81MOL0     H10893  10.814   1.542  12.175  0.1729 -3.3174 -2.1314
   81MOL0     H10894  10.726   1.509  12.023  0.2632  0.0766 -1.1178
   81MOL0     H10895  10.376   1.667  12.277 -0.2176  0.6426  0.6551
   81MOL0     H10896  10.153   1.678  12.167 -1.8581  0.0263 -3.4560
   81MOL0     H10897   9.965   1.828  11.804 -0.0574  1.2664 -0.6814
   81MOL0     H10898   9.767   1.896  11.658 -3.5277 -1.9181 -0.9489
   81MOL0     H10899   9.657   1.934  11.478 -4.4547 -1.8279  0.0020
   81MOL0     H10900   9.770   1.861  11.349  2.3253  2.2782  1.1047
   81MOL0     H10901   9.556   1.793  11.228  0.6513  1.4611 -0.6380
   81MOL0     H10902   9.457   1.894  11.334 -1.1039 -1.3119  0.0144
   81MOL0     H10903   9.670   1.968  11.121  2.1700  2.6836  2.6835
   81MOL0     H10904   9.493   2.017  11.135 -0.4237  1.5942  1.6766
   81MOL0     H10905   9.713   2.100  11.325 -2.9487 -1.1160  4.2179
   81MOL0     H10906   9.550   2.171  11.300 -0.6036  1.8789 -1.9510
   81MOL0     H10907   9.620   2.211  11.045 -0.9528 -3.8982  0.6834
   81MOL0     H10908   9.780   2.175  11.083  1.0024  2.3137 -0.0321
   81MOL0     H10909   9.624   2.383  11.244  0.8231 -0.7709  1.0779
   81MOL0     H10910   9.798   2.332  11.272 -1.7164 -0.6130  1.8881
   81MOL0     H10911   9.673   2.486  11.041 -1.5201 -2.7804 -0.5733
   81MOL0     H10912   9.836   2.430  11.034  1.2950 -0.3320  0.8122
   81MOL0     H10913   9.824   2.664  11.132  0.7701 -0.7564 -0.8396
   81MOL0     H10914   9.737   2.589  11.277  0.5598  2.0595  0.1902
   81MOL0     H10915   9.786   1.501  11.478  0.2742  1.1328 -1.1460
   81MOL0     H10916   9.959   1.440  11.613  1.0351  0.2619  1.1189
   81MOL0     H10917  10.343   1.512  11.810  2.5265  0.3190 -0.0397
   81MOL0     H10918  10.555   1.511  11.918  0.3173  0.1070 -0.4138
   81MOL0     H10919  10.942   1.602  10.733 -1.1401 -2.6961 -1.0992
   81MOL0     H10920  10.917   1.645  10.503 -0.7828 -0.9972 -0.2077
   81MOL0     H10921  10.971   1.850  10.159 -0.7992  1.6205 -2.0050
   81MOL0     H10922  10.855   1.899   9.936 -1.4041 -1.5310 -0.4117
   81MOL0     H10923  10.741   1.801   9.774 -0.0557  1.1606  0.0853
   81MOL0     H10924  10.766   1.767   9.606  2.8136 -2.1789  1.1847
   81MOL0     H10925  10.825   2.043   9.727  3.1631  0.7017 -1.6399
   81MOL0     H10926  10.690   1.989   9.636  1.0293  1.9538  1.7295
   81MOL0     H10927  10.847   1.937   9.450  2.7280 -0.3350 -0.7403
   81MOL0     H10928  10.988   1.979   9.554 -0.4458 -2.6111  2.5962
   81MOL0     H10929  10.912   2.160   9.392 -1.0645  0.2589  0.2531
   81MOL0     H10930  10.764   2.186   9.489  0.2360  2.3598 -0.0978
   81MOL0     H10931  10.987   2.396   9.733 -0.8346 -2.5734  2.8236
   81MOL0     H10932  11.079   1.584   9.747  0.1425  1.8695 -0.7048
   81MOL0     H10933  11.305   1.527  10.004 -0.6415  0.5882 -1.0627
   81MOL0     H10934  11.200   1.392  10.019  2.4192 -2.2864 -0.0713
   81MOL0     H10935  11.243   1.456   9.858  0.2290 -0.4259  0.1944
   82MOL0     O10936  11.362   2.689  10.079 -0.1678 -0.6467  0.3363
   82MOL0     C10937  11.258   2.633  10.082 -0.0383 -0.1960 -0.2650
   82MOL0     O10938  11.213   2.565   9.980 -0.4740  0.0674  0.5101
   82MOL0     C10939  11.260   2.569   9.854 -0.7886 -1.0525 -0.7518
   82MOL0     C10940  11.326   2.464   9.802 -0.4127  0.0570 -0.1646
   82MOL0     C10941  11.372   2.472   9.677  1.0198 -0.3010 -0.3115
   82MOL0     C10942  11.364   2.591   9.594  0.1995  1.1302 -0.3712
   82MOL0     O10943  11.411   2.593   9.466 -0.0862  0.1049  0.2212
   82MOL0     C10944  11.412   2.726   9.405  0.1147 -0.0615  0.2803
   82MOL0     C10945  11.486   2.720   9.271  0.2053 -0.0661  0.8443
   82MOL0     C10946  11.491   2.856   9.193  0.7134 -0.4183  0.4043
   82MOL0     C10947  11.385   2.880   9.089  0.0539 -0.6355 -0.0614
   82MOL0     C10948  11.416   2.989   8.987 -0.2864 -0.3229 -0.6759
   82MOL0     C10949  11.515   2.957   8.870  0.0479 -0.0666  0.0707
   82MOL0     C10950  11.458   2.848   8.783  0.2598 -0.6966  0.0565
   82MOL0     C10951  11.491   2.881   8.632 -1.1835 -0.2906 -0.1753
   82MOL0     N10952  11.639   2.871   8.609 -0.2038 -0.1197 -0.1318
   82MOL0     C10953  11.730   2.975   8.640  0.1050  0.6038  0.3217
   82MOL0     C10954  11.848   2.925   8.600 -0.0308  0.4942 -0.0604
   82MOL0     C10955  11.977   2.991   8.617  0.8641  0.4733 -0.7542
   82MOL0     C10956  12.005   3.027   8.766  0.0854  0.4285  1.4385
   82MOL0     C10957  12.015   2.909   8.860 -0.6728  0.6448 -0.4611
   82MOL0     C10958  12.066   2.946   8.998  0.0621  0.0147 -0.2984
   82MOL0     O10959  12.061   2.838   9.091 -0.4876 -0.6224 -0.6453
   82MOL0     C10960  12.146   2.730   9.087 -0.7991  0.0263  0.1824
   82MOL0     C10961  12.106   2.609   9.144  0.9013 -0.2982 -0.5271
   82MOL0     C10962  12.184   2.489   9.145  1.1813 -0.9466  0.0794
   82MOL0     C10963  12.314   2.509   9.089 -2.0336 -0.3084 -0.4414
   82MOL0     C10964  12.404   2.392   9.075  0.4041  0.9451 -0.4098
   82MOL0     O10965  12.528   2.417   9.048  0.3057 -0.6425 -0.3921
   82MOL0     C10966  12.614   2.328   8.998  0.1462  0.6928  0.1044
   82MOL0     C10967  12.742   2.373   8.958  0.9631  0.2115 -0.3989
   82MOL0     C10968  12.848   2.290   8.922 -0.3875  0.7006 -0.6226
   82MOL0     C10969  12.829   2.159   8.918  0.6868  1.4273  1.2507
   82MOL0     O10970  12.916   2.062   8.873 -0.6624 -0.2589 -0.2761
   82MOL0     C10971  13.053   2.104   8.841  0.0724  0.7839  1.0957
   82MOL0     C10972  13.120   1.970   8.820 -0.0335 -0.1934  0.4393
   82MOL0     C10973  13.250   1.972   8.748 -0.3295 -0.6030 -0.1038
   82MOL0     C10974  13.356   2.028   8.838  0.1751  0.0662 -0.3146
   82MOL0     C10975  13.494   2.047   8.760  1.1886 -0.2786 -0.5916
   82MOL0     C10976  13.512   2.173   8.673  0.4028 -0.6039  0.1801
   82MOL0     C10977  13.481   2.312   8.739  0.5841 -0.4821  0.5508
   82MOL0     C10978  13.541   2.336   8.877  0.2049  0.2368  0.6873
   82MOL0    Cl10979  13.487   2.513   8.932  0.2344  0.7865  0.4866
   82MOL0     C10980  12.706   2.103   8.952  0.3945 -0.1877  0.0739
   82MOL0     C10981  12.605   2.188   8.988  0.8988 -0.1644  0.3935
   82MOL0     O10982  12.356   2.281   9.096 -0.2974 -0.1352  0.2906
   82MOL0     C10983  12.352   2.633   9.041  0.1358  0.8686  0.0571
   82MOL0     C10984  12.273   2.736   9.040  0.3820 -1.4190 -0.8614
   82MOL0     N10985  11.827   2.806   8.526 -0.1445  0.0545  0.2687
   82MOL0     N10986  11.705   2.780   8.534  0.1553  0.7426 -0.8323
   82MOL0     C10987  11.277   2.692   9.641 -0.2917 -0.1379  0.6402
   82MOL0     C10988  11.237   2.688   9.770  0.3356 -0.1744  0.0719
   82MOL0     C10989  11.185   2.639  10.207  0.5670  0.6227  0.1095
   82MOL0     C10990  11.052   2.563  10.213 -0.8600  0.3002  0.0213
   82MOL0     C10991  10.975   2.553  10.321  0.5684  0.2215 -0.5329
   82MOL0     C10992  11.003   2.625  10.437  0.1660  0.7560  0.2639
   82MOL0     O10993  10.909   2.628  10.543 -0.2615  0.0672  0.6402
   82MOL0     C10994  10.933   2.717  10.652 -0.5718 -0.0076  0.5276
   82MOL0     C10995  10.803   2.737  10.726  0.1069 -0.3455 -0.5764
   82MOL0     C10996  10.689   2.784  10.634 -0.1426 -0.2539  1.5530
   82MOL0     C10997  10.566   2.830  10.705 -0.3650  0.5781  0.8504
   82MOL0     C10998  10.584   2.951  10.781 -0.9368 -0.2141  0.5057
   82MOL0     C10999  10.606   3.061  10.838 -0.1674  0.2957  0.3165
   82MOL0     C11000  11.125   2.701  10.438 -0.4141 -0.4808 -0.6773
   82MOL0     C11001  11.217   2.701  10.329 -0.2036  0.4751  0.8153
   82MOL0     C11002  11.344   2.787  10.349 -0.0984  0.4452 -0.1062
   82MOL0     H11003  11.346   2.368   9.849  0.4752  0.8227  1.0817
   82MOL0     H11004  11.421   2.377   9.656 -1.7718 -1.9618  0.1433
   82MOL0     H11005  11.312   2.768   9.388 -0.0381  0.0988  1.4614
   82MOL0     H11006  11.458   2.806   9.463 -0.1814  1.9948 -2.1279
   82MOL0     H11007  11.433   2.647   9.210  2.2501  0.1108 -1.3087
   82MOL0     H11008  11.582   2.671   9.291 -0.7370 -3.0845 -1.3345
   82MOL0     H11009  11.587   2.860   9.141  1.8364  0.2070  2.4239
   82MOL0     H11010  11.496   2.938   9.265  3.4777  0.1077 -0.2840
   82MOL0     H11011  11.356   2.789   9.036 -0.6351 -0.4260 -0.0526
   82MOL0     H11012  11.290   2.907   9.136 -0.0700 -1.8343  0.4119
   82MOL0     H11013  11.326   3.022   8.936 -1.7995  3.5893  3.7963
   82MOL0     H11014  11.456   3.077   9.039 -2.9689  0.5443  0.1025
   82MOL0     H11015  11.533   3.051   8.818  1.2286  0.4995  1.4233
   82MOL0     H11016  11.615   2.922   8.896  0.5794 -0.0412 -1.8264
   82MOL0     H11017  11.352   2.846   8.811  0.7200 -0.8581  1.9671
   82MOL0     H11018  11.506   2.752   8.806 -0.2271 -0.5975  1.6034
   82MOL0     H11019  11.455   2.806   8.561 -0.8973 -1.7329  1.1459
   82MOL0     H11020  11.466   2.980   8.593 -0.4163 -0.5650 -1.4237
   82MOL0     H11021  11.730   3.080   8.668  4.0958  0.8531 -0.0149
   82MOL0     H11022  12.059   2.934   8.574  0.9433  0.3747 -0.4763
   82MOL0     H11023  11.981   3.086   8.562  2.2951 -1.5152 -4.4452
   82MOL0     H11024  12.097   3.085   8.778  0.9630 -0.1617 -1.5666
   82MOL0     H11025  11.924   3.091   8.803 -0.6145  0.4053  0.0190
   82MOL0     H11026  12.096   2.847   8.821  2.0637  2.8762  1.2842
   82MOL0     H11027  11.929   2.843   8.873  0.0099  0.3586  4.6107
   82MOL0     H11028  11.998   3.023   9.036  0.3660 -0.8263  2.0801
   82MOL0     H11029  12.166   2.987   8.984 -0.9691  2.4141 -1.4188
   82MOL0     H11030  12.006   2.616   9.186  0.3294 -0.4388 -1.8357
   82MOL0     H11031  12.149   2.395   9.187 -1.5199 -0.0465  0.0198
   82MOL0     H11032  12.758   2.478   8.979 -0.6749  0.2855  0.7021
   82MOL0     H11033  12.946   2.338   8.930 -0.6210  1.2640 -1.0701
   82MOL0     H11034  13.055   2.168   8.753 -0.8550 -0.3952  0.1896
   82MOL0     H11035  13.088   2.164   8.926 -0.8638  1.0231  1.3326
   82MOL0     H11036  13.125   1.918   8.916 -0.3540 -2.9289 -0.9135
   82MOL0     H11037  13.055   1.913   8.753  0.0021 -1.6849  1.5911
   82MOL0     H11038  13.277   1.873   8.711  2.2808 -0.9717  2.4387
   82MOL0     H11039  13.229   2.042   8.666  2.1702 -1.4382 -1.5734
   82MOL0     H11040  13.370   1.971   8.931  1.8221  0.3832 -0.3286
   82MOL0     H11041  13.326   2.129   8.867 -0.4041  0.1293 -1.1085
   82MOL0     H11042  13.514   1.954   8.707 -1.2633 -1.0775 -0.2739
   82MOL0     H11043  13.568   2.056   8.840  1.1103 -0.7998 -0.4566
   82MOL0     H11044  13.607   2.172   8.618 -0.6958  1.3249 -1.9265
   82MOL0     H11045  13.437   2.172   8.593 -0.2780  0.7402  0.7651
   82MOL0     H11046  13.375   2.336   8.733  0.7727  0.0063 -1.2665
   82MOL0     H11047  13.523   2.381   8.665  3.0650 -2.8972 -0.4599
   82MOL0     H11048  13.500   2.260   8.944  0.4696 -0.3637  0.1918
   82MOL0     H11049  13.650   2.329   8.882  0.2328  1.0904  1.5342
   82MOL0     H11050  12.687   1.997   8.945  0.7948 -0.1956 -1.1991
   82MOL0     H11051  12.515   2.133   9.012  1.6337 -1.1430  0.9966
   82MOL0     H11052  12.447   2.650   8.991  0.5062  2.3238  1.1982
   82MOL0     H11053  12.306   2.829   8.995 -1.7377 -0.0553  0.1907
   82MOL0     H11054  11.245   2.777   9.582  0.4311 -1.5402 -1.9455
   82MOL0     H11055  11.181   2.774   9.806  0.6453  0.4689 -0.9358
   82MOL0     H11056  11.014   2.509  10.127  0.8050 -2.2152  0.7685
   82MOL0     H11057  10.879   2.504  10.328  1.4107 -1.2919  1.4767
   82MOL0     H11058  10.957   2.816  10.612  1.8504  0.3020  2.5266
   82MOL0     H11059  11.018   2.701  10.718  0.4929  2.1585 -0.2163
   82MOL0     H11060  10.818   2.805  10.810  0.7745  0.2812 -1.1841
   82MOL0     H11061  10.784   2.643  10.779  3.1576 -1.3953 -1.0844
   82MOL0     H11062  10.662   2.715  10.554 -0.6388  2.5419 -0.8587
   82MOL0     H11063  10.742   2.860  10.575  0.6570 -0.9105  1.4037
   82MOL0     H11064  10.497   2.851  10.622  1.2276 -0.8446 -0.9275
   82MOL0     H11065  10.520   2.745  10.756 -0.9555  0.9875  1.0119
   82MOL0     H11066  10.638   3.155  10.879  2.0868 -1.1432  2.0540
   82MOL0     H11067  11.145   2.762  10.526  0.0452 -0.9109 -0.4788
   82MOL0     H11068  11.432   2.724  10.363  0.4026  1.3277  0.8748
   82MOL0     H11069  11.359   2.850  10.260 -2.1983 -1.9401 -2.3124
   82MOL0     H11070  11.338   2.848  10.439 -2.1405 -0.8633  0.6893
   83MOL0     O11071   9.013   4.373   4.620  0.0840  0.8186  0.5454
   83MOL0     C11072   9.024   4.254   4.662 -0.6700 -0.0169 -0.1055
   83MOL0     O11073   9.109   4.217   4.765  1.1537  0.5559  0.0918
   83MOL0     C11074   9.171   4.316   4.844 -1.3378 -0.4269 -0.4114
   83MOL0     C11075   9.301   4.296   4.895 -0.0186 -0.3817 -0.3050
   83MOL0     C11076   9.360   4.360   5.002  0.6967  0.2990 -0.2502
   83MOL0     C11077   9.294   4.468   5.045  0.7548 -0.0949 -0.1176
   83MOL0     O11078   9.372   4.554   5.121  0.0158 -0.1627  0.2720
   83MOL0     C11079   9.317   4.674   5.186  0.1653 -0.5285  0.1171
   83MOL0     C11080   9.410   4.697   5.302 -0.1762 -0.3754 -0.4527
   83MOL0     C11081   9.386   4.846   5.342 -0.1135  0.4254  0.5556
   83MOL0     C11082   9.440   4.862   5.482  0.0593  0.6903 -0.5074
   83MOL0     C11083   9.385   5.005   5.512  0.4958  0.3433 -0.2888
   83MOL0     C11084   9.405   5.035   5.656  0.5701 -0.9824  0.2423
   83MOL0     C11085   9.331   5.163   5.712  0.3567  0.3059 -0.2337
   83MOL0     C11086   9.384   5.295   5.668  0.1162  0.2818  0.9752
   83MOL0     N11087   9.286   5.408   5.680  0.2184 -0.0248 -0.1881
   83MOL0     C11088   9.219   5.462   5.789 -0.1976  0.4220 -0.7757
   83MOL0     C11089   9.148   5.572   5.744  0.8756 -0.1815  0.3856
   83MOL0     C11090   9.055   5.672   5.814 -0.2141  0.8419 -1.1197
   83MOL0     C11091   8.902   5.662   5.774  0.3760  0.8651  1.6609
   83MOL0     C11092   8.827   5.774   5.834 -0.8358 -0.5747 -1.1394
   83MOL0     C11093   8.683   5.780   5.754  0.0672 -0.0062 -0.2046
   83MOL0     O11094   8.589   5.849   5.836 -0.0288  0.3068  0.8042
   83MOL0     C11095   8.477   5.909   5.785 -0.8049 -0.3479 -0.0235
   83MOL0     C11096   8.355   5.875   5.848  0.2250  0.1961  0.2592
   83MOL0     C11097   8.237   5.935   5.796  0.1291 -0.2196  0.6930
   83MOL0     C11098   8.239   6.020   5.679 -1.6736 -0.1498  0.0833
   83MOL0     C11099   8.120   6.068   5.622 -1.1765 -0.6161  0.3025
   83MOL0     O11100   8.129   6.180   5.534 -0.4628  0.0756  0.0419
   83MOL0     C11101   8.014   6.229   5.492  0.0597  0.0581  0.2041
   83MOL0     C11102   7.969   6.190   5.363 -0.5453 -0.4592 -0.9786
   83MOL0     C11103   7.853   6.254   5.303  0.0050  0.7420  0.7848
   83MOL0     C11104   7.784   6.351   5.374  0.0658  0.0416 -0.0319
   83MOL0     O11105   7.661   6.403   5.331 -0.4739 -0.3551  1.0318
   83MOL0     C11106   7.570   6.331   5.245 -0.3793  1.0707  0.7377
   83MOL0     C11107   7.441   6.405   5.253  0.1226  0.1437  0.6680
   83MOL0     C11108   7.351   6.370   5.130  0.9596 -0.4890 -1.4405
   83MOL0     C11109   7.294   6.228   5.158 -0.6445  0.1783 -0.1630
   83MOL0     C11110   7.223   6.180   5.030  0.1137 -0.6796  0.1364
   83MOL0     C11111   7.327   6.132   4.922  0.7115  0.1061  0.9940
   83MOL0     C11112   7.395   6.000   4.962 -0.0986  0.5242  0.0205
   83MOL0     C11113   7.459   5.947   4.843 -0.5412 -0.5736  0.3918
   83MOL0    Cl11114   7.513   5.780   4.855 -0.0431 -0.3353  0.0230
   83MOL0     C11115   7.833   6.387   5.493  0.0595  0.5344  0.3132
   83MOL0     C11116   7.941   6.324   5.557 -0.5462 -0.2567  1.2044
   83MOL0     O11117   8.023   6.018   5.669 -0.2350 -0.1286  0.8724
   83MOL0     C11118   8.369   6.044   5.621  0.3863 -0.2427 -0.7661
   83MOL0     C11119   8.477   5.980   5.663 -0.3541 -0.1431  0.7492
   83MOL0     N11120   9.178   5.578   5.614  0.5114 -0.6614  0.6193
   83MOL0     N11121   9.268   5.490   5.571 -0.4938  0.2070 -0.3009
   83MOL0     C11122   9.169   4.511   4.990  0.9867  0.5945  0.1474
   83MOL0     C11123   9.103   4.421   4.899  0.5141 -1.0626 -0.7455
   83MOL0     C11124   8.930   4.164   4.607 -0.2648  0.7191 -0.0768
   83MOL0     C11125   8.902   4.176   4.476 -0.2831  0.2860  0.4773
   83MOL0     C11126   8.811   4.098   4.413 -0.3148 -0.0534  0.0966
   83MOL0     C11127   8.750   3.987   4.475  0.2971 -0.5592 -0.1121
   83MOL0     O11128   8.668   3.902   4.410 -0.6921  0.8837  0.3566
   83MOL0     C11129   8.554   3.975   4.353  0.4798  0.7796  0.4800
   83MOL0     C11130   8.443   3.877   4.309  0.0536  0.6378  0.4586
   83MOL0     C11131   8.467   3.795   4.181 -0.3798 -0.2556 -0.6021
   83MOL0     C11132   8.442   3.648   4.198  0.2296 -0.2406 -1.0613
   83MOL0     C11133   8.301   3.613   4.244  0.4721  0.5292  0.3820
   83MOL0     C11134   8.181   3.590   4.262  1.2266  0.3190  0.1841
   83MOL0     C11135   8.786   3.968   4.610 -0.9935 -0.6641  0.1616
   83MOL0     C11136   8.871   4.056   4.680  0.6944  0.9454 -0.1329
   83MOL0     C11137   8.896   4.032   4.827  0.7159  0.0145  0.6389
   83MOL0     H11138   9.366   4.225   4.845  0.3391 -0.3266  0.0781
   83MOL0     H11139   9.461   4.344   5.037  1.6531  0.3066 -2.7431
   83MOL0     H11140   9.310   4.755   5.112  3.2866 -0.3949 -0.1483
   83MOL0     H11141   9.212   4.669   5.216 -1.3235 -0.2360 -4.3601
   83MOL0     H11142   9.516   4.680   5.280  0.3005  2.0103 -0.2466
   83MOL0     H11143   9.392   4.616   5.373 -0.9930 -1.8198 -2.2017
   83MOL0     H11144   9.279   4.866   5.335 -0.5149 -1.1471  1.8437
   83MOL0     H11145   9.445   4.912   5.277  0.6138 -2.0792 -1.4865
   83MOL0     H11146   9.378   4.796   5.545  0.3932 -0.3268 -1.2210
   83MOL0     H11147   9.547   4.843   5.497  0.3406  0.9704 -2.0506
   83MOL0     H11148   9.417   5.083   5.441  2.2279 -1.4563 -1.6067
   83MOL0     H11149   9.278   4.992   5.499  0.8096 -2.0530 -0.9066
   83MOL0     H11150   9.371   4.959   5.726 -2.1086 -1.4986 -1.4609
   83MOL0     H11151   9.514   5.043   5.666  0.5421  0.5435 -0.3520
   83MOL0     H11152   9.363   5.151   5.817  2.5565 -3.2957 -1.1168
   83MOL0     H11153   9.225   5.147   5.695  0.2601 -0.4291  0.9302
   83MOL0     H11154   9.473   5.296   5.732  0.4810 -2.1970  0.5887
   83MOL0     H11155   9.418   5.288   5.564 -5.4823  2.7770 -1.4187
   83MOL0     H11156   9.210   5.420   5.889  2.0809 -0.4355 -0.8750
   83MOL0     H11157   9.075   5.662   5.921 -1.0943  0.3458 -0.9880
   83MOL0     H11158   9.092   5.772   5.792 -1.1184  2.0100  2.1315
   83MOL0     H11159   8.901   5.667   5.665  0.3728  0.1953  1.6257
   83MOL0     H11160   8.858   5.568   5.808 -1.2730  1.5315  1.4388
   83MOL0     H11161   8.890   5.863   5.828 -1.5322 -0.1267 -2.1518
   83MOL0     H11162   8.817   5.757   5.942  1.4874  0.5184 -0.6841
   83MOL0     H11163   8.653   5.676   5.738 -1.8179  0.8287 -2.6615
   83MOL0     H11164   8.700   5.818   5.653 -0.1068  0.3043 -0.1185
   83MOL0     H11165   8.333   5.810   5.932 -1.7343 -2.8428 -2.3451
   83MOL0     H11166   8.144   5.921   5.851 -1.9229  3.6581 -1.3546
   83MOL0     H11167   8.026   6.117   5.307  3.1573 -0.1232  1.9319
   83MOL0     H11168   7.824   6.208   5.210  2.7576  0.5130 -0.0500
   83MOL0     H11169   7.610   6.317   5.145  1.2970 -2.3606  1.7163
   83MOL0     H11170   7.545   6.230   5.280 -2.2044  1.1363 -0.2500
   83MOL0     H11171   7.396   6.383   5.350 -0.7999 -1.5204 -0.1004
   83MOL0     H11172   7.447   6.515   5.256 -1.0656  0.2240  0.8984
   83MOL0     H11173   7.266   6.436   5.112 -3.0327 -4.0364  2.0956
   83MOL0     H11174   7.415   6.372   5.042  2.2933  2.6398 -0.5474
   83MOL0     H11175   7.211   6.240   5.228 -1.5196 -2.9384 -0.5366
   83MOL0     H11176   7.373   6.164   5.199 -0.0397  0.8125 -0.3245
   83MOL0     H11177   7.164   6.261   4.987  1.9880 -0.1235 -1.5242
   83MOL0     H11178   7.160   6.094   5.056  2.1038 -3.2495 -2.6846
   83MOL0     H11179   7.276   6.099   4.831  0.1068  0.0184  1.3633
   83MOL0     H11180   7.400   6.209   4.895  2.2286 -2.0548 -1.5571
   83MOL0     H11181   7.319   5.933   5.005  3.9289 -2.8524  2.7300
   83MOL0     H11182   7.469   6.022   5.040  2.5753 -0.5029 -2.0885
   83MOL0     H11183   7.408   5.946   4.746  1.3186 -0.7798 -0.6328
   83MOL0     H11184   7.548   6.006   4.818 -1.1015  0.5736  1.0090
   83MOL0     H11185   7.802   6.478   5.543  0.6801  0.8217  0.1961
   83MOL0     H11186   7.977   6.361   5.652 -0.2276 -1.2047  1.4695
   83MOL0     H11187   8.373   6.110   5.535 -2.0418  1.3055  0.2081
   83MOL0     H11188   8.569   5.999   5.608 -2.2874  1.6058 -2.1336
   83MOL0     H11189   9.121   4.605   5.013  1.4701  0.7742  0.4451
   83MOL0     H11190   9.009   4.454   4.856 -0.0518  0.6299  1.6125
   83MOL0     H11191   8.950   4.251   4.414  0.0719 -1.4078 -1.3975
   83MOL0     H11192   8.800   4.144   4.316  0.6201  4.3752  1.8244
   83MOL0     H11193   8.591   4.039   4.272  0.2295 -0.1782 -0.4223
   83MOL0     H11194   8.511   4.040   4.429  1.1562  0.4698  1.1409
   83MOL0     H11195   8.345   3.917   4.280  0.0437 -0.1662 -0.7154
   83MOL0     H11196   8.434   3.804   4.390 -0.9900 -1.4402 -1.4056
   83MOL0     H11197   8.572   3.810   4.155  0.0244 -2.6126 -0.5798
   83MOL0     H11198   8.414   3.831   4.093 -0.9880 -3.3906 -1.6588
   83MOL0     H11199   8.470   3.610   4.099  2.1926 -1.5280 -0.0876
   83MOL0     H11200   8.509   3.596   4.268  1.6026  0.8978 -1.4650
   83MOL0     H11201   8.080   3.569   4.292  1.5805  0.2827  1.4278
   83MOL0     H11202   8.744   3.885   4.665  4.3718 -1.4936  3.7569
   83MOL0     H11203   8.892   4.133   4.869  1.4492 -0.2923  1.4811
   83MOL0     H11204   8.821   3.966   4.873  0.8857 -1.9728 -1.7054
   83MOL0     H11205   8.995   3.994   4.853  0.2833  0.6127  3.5889
   84MOL0     O11206   7.202   8.845   2.281  0.6219 -0.3013  0.0253
   84MOL0     C11207   7.251   8.948   2.216  0.7617  0.4469 -0.9818
   84MOL0     O11208   7.279   9.074   2.266 -0.0034  0.1149 -0.3519
   84MOL0     C11209   7.201   9.110   2.372  0.9719  0.4789 -0.2854
   84MOL0     C11210   7.192   9.040   2.494  0.1176  0.3072 -0.2734
   84MOL0     C11211   7.110   9.080   2.599  0.1666 -0.0639  0.0384
   84MOL0     C11212   7.029   9.190   2.595  0.5273 -0.5329 -0.1515
   84MOL0     O11213   6.948   9.220   2.692  0.5174  0.4272 -0.2818
   84MOL0     C11214   6.992   9.276   2.813 -0.4486 -1.4460  0.5152
   84MOL0     C11215   6.874   9.334   2.895  0.6925  0.4550  0.1453
   84MOL0     C11216   6.771   9.223   2.939 -0.4465  0.1982  0.2396
   84MOL0     C11217   6.688   9.274   3.051  0.0452  0.8402  0.0115
   84MOL0     C11218   6.602   9.395   3.026 -0.5919  0.2570  0.0409
   84MOL0     C11219   6.526   9.422   3.156  0.5529  0.6931  0.8001
   84MOL0     C11220   6.414   9.522   3.158 -0.5954  0.1236 -0.2872
   84MOL0     C11221   6.337   9.520   3.294  0.9320  0.1612  0.1105
   84MOL0     N11222   6.410   9.547   3.411  0.3737 -0.2710 -0.2800
   84MOL0     C11223   6.479   9.660   3.432  0.8812 -0.0752  0.0535
   84MOL0     C11224   6.544   9.654   3.551 -0.1564  0.0791  0.5586
   84MOL0     C11225   6.621   9.766   3.613 -0.3348  0.2657  0.1546
   84MOL0     C11226   6.565   9.816   3.744 -0.2420 -0.0183  0.3468
   84MOL0     C11227   6.662   9.910   3.815  0.1608 -0.3653  0.2335
   84MOL0     C11228   6.605   9.981   3.938  0.1860 -0.0457  0.3846
   84MOL0     O11229   6.664  10.111   3.968 -1.4885  0.2389  0.7693
   84MOL0     C11230   6.743  10.119   4.081  0.2945  0.8832  0.4019
   84MOL0     C11231   6.754  10.247   4.138 -0.2724  0.4945 -0.8070
   84MOL0     C11232   6.827  10.274   4.261  0.2614 -0.3695  0.6384
   84MOL0     C11233   6.896  10.169   4.318 -0.4588  0.1690  1.5486
   84MOL0     C11234   6.989  10.202   4.434  0.2443  0.1258  1.1770
   84MOL0     O11235   7.034  10.328   4.448  0.3264  0.3944 -0.1511
   84MOL0     C11236   7.093  10.371   4.567  0.6098 -0.1181 -0.8533
   84MOL0     C11237   7.165  10.493   4.557  0.4697 -0.0671  0.4480
   84MOL0     C11238   7.231  10.538   4.672  1.0462 -0.7304  0.1165
   84MOL0     C11239   7.224  10.469   4.789  0.0893 -0.2048  0.9017
   84MOL0     O11240   7.293  10.536   4.890 -0.3388  0.2111  0.4374
   84MOL0     C11241   7.344  10.444   4.990  1.1233 -0.9660  0.2274
   84MOL0     C11242   7.464  10.511   5.062 -1.1235  0.7899 -0.2327
   84MOL0     C11243   7.589  10.510   4.975  0.1810 -0.4305 -0.5234
   84MOL0     C11244   7.622  10.661   4.936 -0.6861  0.3020  0.3269
   84MOL0     C11245   7.749  10.644   4.849 -1.1374  0.0228 -0.8748
   84MOL0     C11246   7.754  10.751   4.743 -0.4914  0.5005 -0.8921
   84MOL0     C11247   7.754  10.893   4.783  0.6442 -0.2733 -0.8880
   84MOL0     C11248   7.754  10.987   4.661  0.7132 -0.1543 -0.1128
   84MOL0    Cl11249   7.756  11.145   4.711 -0.3206 -0.5147  0.1906
   84MOL0     C11250   7.141  10.357   4.796 -0.0306  0.2512 -0.6617
   84MOL0     C11251   7.092  10.303   4.691 -0.3614 -0.1272 -0.8286
   84MOL0     O11252   7.040  10.104   4.487  0.5480  0.2728 -0.0688
   84MOL0     C11253   6.901  10.041   4.256  0.2241 -0.4121 -0.7947
   84MOL0     C11254   6.817  10.015   4.142 -0.9526 -0.2372  0.2673
   84MOL0     N11255   6.518   9.532   3.587  0.3143 -0.3285  0.8913
   84MOL0     N11256   6.429   9.465   3.516 -0.6096 -0.8987  0.0069
   84MOL0     C11257   7.036   9.266   2.473  0.5477 -0.3144 -0.0728
   84MOL0     C11258   7.115   9.227   2.365  0.3037  1.2483  0.2927
   84MOL0     C11259   7.290   8.911   2.077 -0.2980 -0.2686  0.7067
   84MOL0     C11260   7.220   8.804   2.014  0.0960  0.7901  0.0402
   84MOL0     C11261   7.246   8.761   1.885  0.0051  0.1241 -0.2071
   84MOL0     C11262   7.352   8.825   1.819 -0.7050 -0.1165 -0.1247
   84MOL0     O11263   7.354   8.802   1.678 -0.6916  0.0905 -0.2800
   84MOL0     C11264   7.445   8.883   1.604  0.3548 -0.1407  0.2209
   84MOL0     C11265   7.391   9.029   1.567 -0.1308  0.1073 -0.8274
   84MOL0     C11266   7.477   9.090   1.456 -0.8223 -0.0698  0.6835
   84MOL0     C11267   7.582   9.183   1.515 -0.5378 -0.3267  0.1507
   84MOL0     C11268   7.697   9.116   1.578  0.2200  0.3711 -0.1884
   84MOL0     C11269   7.793   9.067   1.636  0.7208  0.8712 -0.2578
   84MOL0     C11270   7.417   8.934   1.880  0.9641  0.4780  0.2801
   84MOL0     C11271   7.398   8.965   2.013  0.6688 -0.5468  0.3599
   84MOL0     C11272   7.499   9.066   2.067 -0.2831  0.5418 -0.8753
   84MOL0     H11273   7.251   8.952   2.514  2.7195  1.9303 -0.3083
   84MOL0     H11274   7.097   9.021   2.689  1.5856  1.2780  1.1749
   84MOL0     H11275   7.034   9.197   2.875 -0.6418 -0.3669  2.0733
   84MOL0     H11276   7.055   9.361   2.783 -1.6551 -1.0686 -1.1321
   84MOL0     H11277   6.820   9.405   2.832  2.7047 -0.4821 -2.8312
   84MOL0     H11278   6.904   9.391   2.983 -3.2136 -1.7364  3.2252
   84MOL0     H11279   6.823   9.130   2.966 -3.5031 -1.6411  0.2509
   84MOL0     H11280   6.721   9.185   2.850  1.9137 -1.7533 -0.3879
   84MOL0     H11281   6.627   9.186   3.077 -2.9048  2.2599 -1.5995
   84MOL0     H11282   6.762   9.288   3.130 -0.3440 -0.3727  0.6250
   84MOL0     H11283   6.668   9.481   3.011  1.1271 -0.8613  0.8469
   84MOL0     H11284   6.539   9.379   2.937 -0.4894 -0.7025  0.1258
   84MOL0     H11285   6.474   9.332   3.190 -0.4507  2.1638  3.4175
   84MOL0     H11286   6.607   9.446   3.225 -0.8472  0.5771  2.5425
   84MOL0     H11287   6.344   9.515   3.075  0.5976 -0.4357 -1.2941
   84MOL0     H11288   6.461   9.619   3.138  0.4722 -0.5722 -1.3093
   84MOL0     H11289   6.253   9.590   3.283  1.3041  0.4155 -1.2790
   84MOL0     H11290   6.291   9.422   3.308 -4.3758  2.2317 -0.0932
   84MOL0     H11291   6.455   9.748   3.373 -1.4304  0.7685  2.0538
   84MOL0     H11292   6.724   9.734   3.628  0.1621  2.1960  1.2132
   84MOL0     H11293   6.615   9.851   3.543 -1.5270 -0.6143 -0.8510
   84MOL0     H11294   6.463   9.856   3.737 -0.7801 -0.8927  2.5010
   84MOL0     H11295   6.569   9.730   3.811  1.6735 -0.7964 -0.6974
   84MOL0     H11296   6.704   9.987   3.748  0.2917  0.5070  1.2849
   84MOL0     H11297   6.746   9.849   3.851  1.5977  0.4810 -1.5228
   84MOL0     H11298   6.606   9.913   4.024 -1.7538 -0.9751 -0.2846
   84MOL0     H11299   6.501  10.005   3.914  0.4185  2.9770  1.8357
   84MOL0     H11300   6.699  10.333   4.100 -0.6931  0.9048  0.6657
   84MOL0     H11301   6.830  10.367   4.316 -1.6914  1.1649 -1.6446
   84MOL0     H11302   7.170  10.548   4.464 -0.7838 -0.9844 -0.1904
   84MOL0     H11303   7.285  10.632   4.673  0.8485 -0.3041 -4.9788
   84MOL0     H11304   7.272  10.406   5.063  1.2568  0.5080  1.1619
   84MOL0     H11305   7.384  10.359   4.933  1.3012 -2.0341  1.8916
   84MOL0     H11306   7.455  10.613   5.099 -0.4700  0.4220  1.0001
   84MOL0     H11307   7.473  10.451   5.153  0.9584 -0.1339 -0.9709
   84MOL0     H11308   7.673  10.465   5.029  3.8606  3.0223 -2.7589
   84MOL0     H11309   7.569  10.438   4.896 -2.8611 -0.0694 -0.1814
   84MOL0     H11310   7.641  10.722   5.025 -2.9375  0.0644  1.0483
   84MOL0     H11311   7.546  10.705   4.872 -0.0338  0.2782 -0.4762
   84MOL0     H11312   7.749  10.546   4.802  4.2497 -0.9899  0.5725
   84MOL0     H11313   7.839  10.651   4.912 -2.0869 -1.7126  0.7787
   84MOL0     H11314   7.848  10.741   4.688  0.4119 -0.2461  0.7200
   84MOL0     H11315   7.672  10.730   4.674 -1.0337  2.1397 -0.7895
   84MOL0     H11316   7.839  10.919   4.847  4.0729 -4.4675 -3.2142
   84MOL0     H11317   7.661  10.904   4.839 -0.1039 -2.4586 -1.6080
   84MOL0     H11318   7.846  10.981   4.602  0.4733 -1.3690 -0.3901
   84MOL0     H11319   7.664  10.955   4.608 -1.4174  1.3168  2.4026
   84MOL0     H11320   7.123  10.305   4.889  4.1294  2.3039  1.5830
   84MOL0     H11321   7.039  10.208   4.696 -1.0802  0.3285  1.2543
   84MOL0     H11322   6.961   9.965   4.306 -0.1339 -0.3174 -0.2153
   84MOL0     H11323   6.828   9.913   4.106 -3.3232 -1.1167  1.8386
   84MOL0     H11324   6.970   9.352   2.465  2.4279  1.2992  0.8181
   84MOL0     H11325   7.126   9.290   2.278  1.3262  0.6725 -0.0158
   84MOL0     H11326   7.145   8.755   2.076  2.5574  2.3903  4.8490
   84MOL0     H11327   7.211   8.675   1.829  2.4680  0.7579 -2.9870
   84MOL0     H11328   7.446   8.825   1.511 -2.5649 -0.3571  0.2277
   84MOL0     H11329   7.548   8.880   1.640  0.3098 -0.3470  0.3359
   84MOL0     H11330   7.382   9.086   1.660  1.7473 -2.3648  0.9878
   84MOL0     H11331   7.288   9.010   1.535 -0.2531  0.7634 -0.8520
   84MOL0     H11332   7.413   9.141   1.383  0.9139 -1.2469 -1.7953
   84MOL0     H11333   7.521   9.015   1.390 -2.7875 -1.4555  0.8615
   84MOL0     H11334   7.620   9.239   1.428 -1.0292  2.2454  1.4998
   84MOL0     H11335   7.537   9.248   1.591 -1.4424 -1.1661  0.3473
   84MOL0     H11336   7.873   9.011   1.679 -0.1343 -1.2844 -1.3271
   84MOL0     H11337   7.495   8.993   1.833  1.2254  0.6200  0.8770
   84MOL0     H11338   7.434   9.150   2.094 -2.4696 -1.6101  1.0349
   84MOL0     H11339   7.557   9.036   2.155 -1.5409  1.0598  0.1761
   84MOL0     H11340   7.568   9.108   1.994  0.2330  1.1662 -0.0506
   85MOL0     O11341   3.883   5.887   9.045  0.5431  0.2808  0.2638
   85MOL0     C11342   3.939   5.838   9.142 -0.6605  0.4477  0.4287
   85MOL0     O11343   3.889   5.737   9.219 -0.2178 -0.0257  0.9715
   85MOL0     C11344   3.778   5.673   9.165 -0.2522  0.0907  0.5846
   85MOL0     C11345   3.663   5.654   9.240  0.5547  0.7360  0.0453
   85MOL0     C11346   3.555   5.580   9.199  0.4471  0.6813 -0.6090
   85MOL0     C11347   3.551   5.534   9.069 -0.0529 -0.2504 -0.2761
   85MOL0     O11348   3.429   5.491   9.029  0.1450  1.0725  0.7652
   85MOL0     C11349   3.430   5.376   8.942 -0.2967  0.9289 -0.1906
   85MOL0     C11350   3.403   5.406   8.796  0.1806 -0.8967 -0.9756
   85MOL0     C11351   3.466   5.304   8.692 -0.8040  0.1924  0.4960
   85MOL0     C11352   3.394   5.160   8.707  0.3057  0.3266 -0.8792
   85MOL0     C11353   3.432   5.055   8.604 -0.5671 -0.0247 -0.3786
   85MOL0     C11354   3.333   5.068   8.489  0.6927  0.3351  0.5111
   85MOL0     C11355   3.353   4.970   8.378 -0.2817 -0.4300 -0.2280
   85MOL0     C11356   3.281   4.989   8.250  1.6939 -0.4305  0.2226
   85MOL0     N11357   3.129   4.975   8.272 -0.2553  0.0512  0.4555
   85MOL0     C11358   3.033   5.074   8.254  0.9991 -0.3523 -0.0542
   85MOL0     C11359   2.918   5.012   8.277  0.1501  0.2922  0.3468
   85MOL0     C11360   2.790   5.072   8.262  0.5391 -0.6205 -0.3197
   85MOL0     C11361   2.721   5.122   8.396  0.6569 -0.8737  0.0917
   85MOL0     C11362   2.597   5.043   8.423  0.0822  0.4160  1.2862
   85MOL0     C11363   2.616   4.897   8.472 -0.3834 -0.7548 -0.1437
   85MOL0     O11364   2.490   4.831   8.476  0.2128  0.4425 -0.1750
   85MOL0     C11365   2.490   4.701   8.506 -0.4527  0.0381  0.2666
   85MOL0     C11366   2.369   4.645   8.536 -0.0236  0.8943 -0.0790
   85MOL0     C11367   2.366   4.504   8.571  0.0093 -0.1239  0.0893
   85MOL0     C11368   2.483   4.428   8.571  1.0569  1.3708 -0.7943
   85MOL0     C11369   2.468   4.285   8.617  0.8760  0.5525 -1.3390
   85MOL0     O11370   2.580   4.209   8.613  0.0500 -0.0746 -0.0818
   85MOL0     C11371   2.579   4.076   8.648 -0.4219 -1.0230 -0.2037
   85MOL0     C11372   2.560   4.056   8.787  0.5680 -0.9623 -0.9191
   85MOL0     C11373   2.549   3.932   8.835  0.6871 -0.5390 -0.4582
   85MOL0     C11374   2.549   3.822   8.742 -0.9450  0.5611 -0.9474
   85MOL0     O11375   2.515   3.702   8.800  0.0970  0.7521  0.0249
   85MOL0     C11376   2.462   3.594   8.724 -0.3984  0.0427  0.4372
   85MOL0     C11377   2.398   3.490   8.828 -0.7997 -0.3101 -0.5293
   85MOL0     C11378   2.326   3.378   8.750  0.2014  0.3883  0.5538
   85MOL0     C11379   2.307   3.256   8.821  0.5124 -0.7944 -1.0040
   85MOL0     C11380   2.273   3.132   8.729 -0.7948  0.2764 -0.0970
   85MOL0     C11381   2.168   3.039   8.784  0.4493  0.1467  0.0402
   85MOL0     C11382   2.105   2.940   8.677  0.1230  0.0114 -0.2175
   85MOL0     C11383   2.021   2.825   8.727 -0.0348 -0.2734  0.1450
   85MOL0    Cl11384   1.908   2.893   8.843  0.6148  0.0092  0.1539
   85MOL0     C11385   2.585   3.841   8.612  0.4991  0.3911  0.7099
   85MOL0     C11386   2.599   3.972   8.559  0.7115 -0.0183  0.3586
   85MOL0     O11387   2.355   4.252   8.666  0.7298 -0.3214  1.0687
   85MOL0     C11388   2.601   4.489   8.544 -0.9338 -0.2531  0.3772
   85MOL0     C11389   2.612   4.626   8.513  0.2834 -0.7777  0.0731
   85MOL0     N11390   2.945   4.877   8.305 -0.2624  0.3439 -0.0057
   85MOL0     N11391   3.076   4.863   8.305  0.0961  0.3412 -0.4202
   85MOL0     C11392   3.665   5.547   8.994 -0.0880 -0.4127  0.4644
   85MOL0     C11393   3.776   5.614   9.037  0.4414 -0.1830 -0.0074
   85MOL0     C11394   4.027   5.938   9.207 -0.0989 -0.0440  0.3524
   85MOL0     C11395   4.052   5.919   9.347 -0.0688 -0.8852 -0.1218
   85MOL0     C11396   4.128   6.014   9.421  0.1916  0.5053 -0.6493
   85MOL0     C11397   4.185   6.134   9.359  0.3755  1.6953 -0.8122
   85MOL0     O11398   4.252   6.228   9.425 -0.1421  0.4059 -0.3320
   85MOL0     C11399   4.250   6.231   9.562 -0.1905  0.0394 -0.4387
   85MOL0     C11400   4.291   6.369   9.615  0.4966  0.5296 -0.5079
   85MOL0     C11401   4.441   6.409   9.602 -0.5959  0.0085  0.9288
   85MOL0     C11402   4.457   6.563   9.616 -0.0055 -0.0696  0.5578
   85MOL0     C11403   4.415   6.644   9.500  0.1835 -0.0578 -0.0783
   85MOL0     C11404   4.386   6.702   9.397  0.2626 -0.1026  1.0146
   85MOL0     C11405   4.171   6.135   9.219  0.0285  0.4691  0.3049
   85MOL0     C11406   4.095   6.049   9.143 -0.2395 -1.0165 -0.0006
   85MOL0     C11407   4.093   6.092   8.993 -0.1637  0.5835  0.0249
   85MOL0     H11408   3.656   5.690   9.342  0.3580  3.6677 -0.9164
   85MOL0     H11409   3.466   5.577   9.262  0.5896  1.2563 -0.3802
   85MOL0     H11410   3.505   5.297   8.954 -1.2182 -0.4473 -2.6131
   85MOL0     H11411   3.350   5.314   8.981  0.7985  0.7841  1.9502
   85MOL0     H11412   3.445   5.502   8.766  0.3867 -1.0025 -1.0256
   85MOL0     H11413   3.295   5.419   8.780  0.4795  1.7111 -1.3926
   85MOL0     H11414   3.573   5.300   8.715 -1.3385  0.7453  3.6027
   85MOL0     H11415   3.445   5.345   8.593 -3.1067 -0.1119  0.8042
   85MOL0     H11416   3.409   5.133   8.812  2.8344  3.7730 -0.1838
   85MOL0     H11417   3.287   5.179   8.702  0.3861  1.2499  0.4486
   85MOL0     H11418   3.536   5.062   8.572  0.1648 -3.2738  0.9439
   85MOL0     H11419   3.419   4.957   8.651 -2.5216 -0.1673 -1.1021
   85MOL0     H11420   3.229   5.062   8.523  0.9487 -0.1416  1.2155
   85MOL0     H11421   3.344   5.168   8.446 -6.1316  2.5549  2.5805
   85MOL0     H11422   3.316   4.875   8.418 -4.9226  0.3580 -2.0726
   85MOL0     H11423   3.459   4.969   8.348 -0.2685  1.9509 -0.4372
   85MOL0     H11424   3.312   5.091   8.225 -2.5684  1.0709  0.2739
   85MOL0     H11425   3.302   4.923   8.166 -2.0681 -0.5751 -0.8027
   85MOL0     H11426   3.057   5.179   8.237  0.5370 -0.1393  0.5762
   85MOL0     H11427   2.804   5.162   8.201  1.5149  0.3307  1.2268
   85MOL0     H11428   2.731   5.007   8.197  0.3541 -1.1908  0.4005
   85MOL0     H11429   2.798   5.099   8.470  1.1956 -3.0477 -1.0515
   85MOL0     H11430   2.714   5.231   8.395  3.9304 -0.5667 -0.9224
   85MOL0     H11431   2.536   5.049   8.333 -0.5375  1.2044  1.7434
   85MOL0     H11432   2.533   5.099   8.492 -3.6072 -0.5766 -1.0730
   85MOL0     H11433   2.658   4.906   8.573  1.3339 -3.1820 -0.5649
   85MOL0     H11434   2.691   4.856   8.404  1.9337 -1.3772  2.5926
   85MOL0     H11435   2.284   4.710   8.552 -0.4009  0.3139  0.3218
   85MOL0     H11436   2.271   4.458   8.596 -2.0794  3.3533 -0.8845
   85MOL0     H11437   2.544   4.142   8.852  2.8914 -2.3854  1.7656
   85MOL0     H11438   2.537   3.925   8.943 -3.6819 -2.4735 -0.8565
   85MOL0     H11439   2.382   3.633   8.661  0.2084 -1.2425 -1.2015
   85MOL0     H11440   2.542   3.545   8.668 -1.1939 -1.1095  0.2705
   85MOL0     H11441   2.470   3.451   8.901 -1.6206  0.4966  0.7394
   85MOL0     H11442   2.315   3.536   8.881 -1.1769 -1.7537  0.1951
   85MOL0     H11443   2.229   3.407   8.709 -1.7779 -3.5327  1.9016
   85MOL0     H11444   2.398   3.358   8.671  1.1620  0.6786  1.3277
   85MOL0     H11445   2.226   3.282   8.890  0.1534  1.6212 -2.2402
   85MOL0     H11446   2.397   3.232   8.878  0.4408 -2.2152 -1.4436
   85MOL0     H11447   2.357   3.071   8.695 -0.6755  2.0700 -3.5512
   85MOL0     H11448   2.242   3.178   8.634  1.8896  1.3365 -0.5410
   85MOL0     H11449   2.215   2.979   8.862  0.2846  0.7388  0.6089
   85MOL0     H11450   2.085   3.096   8.828  0.1958 -0.1214 -0.0837
   85MOL0     H11451   2.181   2.894   8.614 -0.3054 -0.6767 -0.2445
   85MOL0     H11452   2.041   3.001   8.613 -1.5425 -0.7620  0.6470
   85MOL0     H11453   1.979   2.767   8.644 -0.6603  0.9321 -0.4080
   85MOL0     H11454   2.095   2.762   8.777 -1.3200 -1.4866  0.6083
   85MOL0     H11455   2.601   3.754   8.549  1.2214  0.4360  0.8293
   85MOL0     H11456   2.633   3.999   8.460  2.5499 -3.2208 -0.0037
   85MOL0     H11457   2.690   4.426   8.547 -0.4773  0.4148  1.9875
   85MOL0     H11458   2.712   4.666   8.505 -0.7851  2.0870  0.0426
   85MOL0     H11459   3.658   5.520   8.889  4.6385 -1.3230  0.1742
   85MOL0     H11460   3.853   5.633   8.963 -1.5474  3.4178 -1.4476
   85MOL0     H11461   4.018   5.834   9.405  1.2072 -2.7745 -1.9335
   85MOL0     H11462   4.153   5.998   9.525 -2.1128  4.8779  0.8054
   85MOL0     H11463   4.311   6.149   9.600  0.3017  1.2811  1.6030
   85MOL0     H11464   4.156   6.213   9.614 -1.0166 -1.0967 -2.2341
   85MOL0     H11465   4.258   6.374   9.719  2.0632  0.1094  0.0385
   85MOL0     H11466   4.221   6.435   9.563 -1.8731 -0.6896  0.9642
   85MOL0     H11467   4.468   6.380   9.500 -2.0347 -1.8328  1.0174
   85MOL0     H11468   4.513   6.359   9.668 -2.7636 -2.5322  1.5405
   85MOL0     H11469   4.397   6.597   9.701 -0.2580 -0.9701  0.7474
   85MOL0     H11470   4.563   6.582   9.637  0.1127 -2.7488  3.0949
   85MOL0     H11471   4.350   6.754   9.311  1.8089 -2.0133 -0.9088
   85MOL0     H11472   4.202   6.224   9.166 -0.8256 -1.0046 -2.9472
   85MOL0     H11473   4.019   6.171   8.976  1.5952  2.4695  0.6213
   85MOL0     H11474   4.194   6.120   8.960  0.5595 -1.7295  0.1318
   85MOL0     H11475   4.073   5.998   8.941 -1.1527  0.9939 -0.3540
   86MOL0     O11476   2.023   9.620  11.163  0.6913  0.7139 -0.5765
   86MOL0     C11477   2.053   9.608  11.041  0.3153 -0.5447  0.3971
   86MOL0     O11478   2.136   9.690  10.965  0.1689 -0.6471 -0.3545
   86MOL0     C11479   2.203   9.795  11.018  0.2034 -0.8617  0.1552
   86MOL0     C11480   2.235   9.820  11.147 -1.1443  0.0122 -0.6599
   86MOL0     C11481   2.311   9.929  11.175  0.4717  0.5988  0.5182
   86MOL0     C11482   2.363  10.025  11.084  0.4323 -0.4032 -0.8285
   86MOL0     O11483   2.456  10.124  11.100 -0.1262  0.0584  0.1162
   86MOL0     C11484   2.498  10.162  11.238  0.1359 -0.1097  0.2958
   86MOL0     C11485   2.615  10.246  11.239 -0.7451 -0.1776  1.2270
   86MOL0     C11486   2.604  10.358  11.347  0.2770  0.1511 -0.7309
   86MOL0     C11487   2.738  10.433  11.347  0.5012 -0.5045 -0.6178
   86MOL0     C11488   2.728  10.525  11.466 -0.0602 -0.0810  0.6392
   86MOL0     C11489   2.790  10.444  11.589 -0.2750  0.3279 -0.0005
   86MOL0     C11490   2.741  10.488  11.722 -0.9735  0.7293 -0.0756
   86MOL0     C11491   2.816  10.610  11.754 -0.5623  0.3589 -0.5941
   86MOL0     N11492   2.765  10.702  11.859  0.4712 -0.4672  0.1537
   86MOL0     C11493   2.662  10.794  11.842  0.3285  0.4380 -0.2580
   86MOL0     C11494   2.633  10.849  11.968 -0.4092 -0.0609  0.1628
   86MOL0     C11495   2.527  10.943  11.998  0.4271 -0.0316 -0.4370
   86MOL0     C11496   2.568  11.084  11.936 -0.5946  0.7218  0.7852
   86MOL0     C11497   2.637  11.180  12.028  0.4606  0.3849 -0.1814
   86MOL0     C11498   2.553  11.211  12.155  0.3499  0.8375  0.8940
   86MOL0     O11499   2.637  11.287  12.250 -0.5083 -0.1184 -0.1683
   86MOL0     C11500   2.578  11.325  12.367  0.2124 -1.3724  0.7832
   86MOL0     C11501   2.665  11.380  12.458 -0.8016  0.0474 -0.8780
   86MOL0     C11502   2.627  11.444  12.573  0.5059 -0.1071  0.2055
   86MOL0     C11503   2.490  11.450  12.606  0.2752 -0.0641 -0.5417
   86MOL0     C11504   2.431  11.507  12.740  0.7121  0.4596  0.1610
   86MOL0     O11505   2.523  11.550  12.836 -0.3832  0.9240 -0.1782
   86MOL0     C11506   2.498  11.582  12.963  0.3590  0.3123 -0.2204
   86MOL0     C11507   2.578  11.681  13.021  0.0239  0.4774  0.0571
   86MOL0     C11508   2.565  11.719  13.159 -0.5467  0.1929  0.6038
   86MOL0     C11509   2.483  11.637  13.244 -0.1267 -1.1469 -0.1047
   86MOL0     O11510   2.492  11.650  13.384  0.5522 -0.9202 -0.3076
   86MOL0     C11511   2.579  11.560  13.447  0.2571 -0.2215  0.4854
   86MOL0     C11512   2.670  11.630  13.551 -0.3341  0.4437 -0.2964
   86MOL0     C11513   2.773  11.736  13.506 -0.0204 -0.2876  0.1087
   86MOL0     C11514   2.903  11.671  13.478 -0.0621 -0.1463 -0.4024
   86MOL0     C11515   3.020  11.774  13.471  0.8528 -0.6148 -0.6507
   86MOL0     C11516   2.985  11.888  13.380  0.1560 -0.1817 -0.0401
   86MOL0     C11517   3.104  11.983  13.389 -0.5193  1.0369  0.2221
   86MOL0     C11518   3.109  12.080  13.275  0.1257 -0.1194  0.2712
   86MOL0    Cl11519   3.194  12.220  13.338 -0.0212  0.2837 -0.0906
   86MOL0     C11520   2.402  11.540  13.187 -0.2510 -0.2909  0.5148
   86MOL0     C11521   2.398  11.521  13.046  0.1675 -0.0194  0.3748
   86MOL0     O11522   2.306  11.508  12.754  0.2177 -0.4342 -0.4243
   86MOL0     C11523   2.397  11.407  12.510 -0.7698 -0.8395  0.5747
   86MOL0     C11524   2.443  11.339  12.391  0.3799 -0.2064 -0.5592
   86MOL0     N11525   2.720  10.787  12.063  0.3780 -0.3240 -0.3713
   86MOL0     N11526   2.791  10.698  11.999  0.6368  0.4738 -0.0688
   86MOL0     C11527   2.313  10.007  10.952  0.0226 -0.5999 -0.2447
   86MOL0     C11528   2.237   9.892  10.923 -0.5897  0.7060  0.0870
   86MOL0     C11529   1.997   9.489  10.959  0.3254  0.1918  1.1034
   86MOL0     C11530   1.965   9.523  10.820 -0.0075  0.4964  1.0743
   86MOL0     C11531   1.895   9.423  10.744 -0.3898 -0.4155 -0.5404
   86MOL0     C11532   1.850   9.306  10.803 -0.3622  0.4771 -0.1034
   86MOL0     O11533   1.786   9.216  10.722 -0.4196 -0.2703 -0.1088
   86MOL0     C11534   1.717   9.104  10.785 -0.6458  0.3564 -1.1382
   86MOL0     C11535   1.657   9.013  10.681  0.2336  0.2143  0.1704
   86MOL0     C11536   1.760   8.927  10.612  0.4336  0.2314 -1.1118
   86MOL0     C11537   1.738   8.903  10.458 -1.0573 -0.0404 -0.2489
   86MOL0     C11538   1.605   8.838  10.448 -0.3082 -0.6485  0.4127
   86MOL0     C11539   1.505   8.787  10.453  1.1701  0.4550 -0.0576
   86MOL0     C11540   1.866   9.286  10.941  1.5485 -0.2228 -0.3811
   86MOL0     C11541   1.941   9.372  11.020  0.0040  1.2661  0.6629
   86MOL0     C11542   1.967   9.327  11.170  0.1423 -0.2569 -0.1548
   86MOL0     H11543   2.210   9.760  11.234  0.8016 -2.2544 -1.5471
   86MOL0     H11544   2.340   9.939  11.279 -1.0297  1.7652  0.8636
   86MOL0     H11545   2.413  10.218  11.278 -2.9675 -1.6786 -3.4396
   86MOL0     H11546   2.520  10.074  11.299 -0.4409  1.6593  3.2828
   86MOL0     H11547   2.632  10.290  11.141 -2.5846 -0.6729  0.6416
   86MOL0     H11548   2.702  10.183  11.260  0.9499  2.0303  1.1937
   86MOL0     H11549   2.590  10.304  11.441  0.5766  2.7501  0.8804
   86MOL0     H11550   2.521  10.425  11.321  0.6529  2.0105  2.3519
   86MOL0     H11551   2.823  10.364  11.356 -1.1274 -2.9051 -2.3874
   86MOL0     H11552   2.750  10.493  11.256 -1.2222 -0.6783 -0.9802
   86MOL0     H11553   2.786  10.616  11.451 -0.6928  0.9033  3.5038
   86MOL0     H11554   2.625  10.555  11.489 -1.2986 -0.2093 -3.9315
   86MOL0     H11555   2.761  10.340  11.575  0.4104  0.3888 -2.3408
   86MOL0     H11556   2.898  10.459  11.579 -0.5295  1.1878 -1.9470
   86MOL0     H11557   2.753  10.408  11.795 -0.7333  1.3068  0.5321
   86MOL0     H11558   2.633  10.504  11.725 -1.0541  0.1372  1.6723
   86MOL0     H11559   2.918  10.582  11.780 -0.3510  1.7704  0.2371
   86MOL0     H11560   2.818  10.669  11.661  0.1913  0.4391 -0.5327
   86MOL0     H11561   2.617  10.829  11.750 -0.9042  1.3572  0.6467
   86MOL0     H11562   2.433  10.914  11.950 -1.0805  1.7861  1.2343
   86MOL0     H11563   2.499  10.945  12.104  1.2497 -0.5593 -0.2008
   86MOL0     H11564   2.623  11.065  11.844  1.0349  3.8798  0.9692
   86MOL0     H11565   2.476  11.136  11.908 -0.0190  1.7443  0.7561
   86MOL0     H11566   2.679  11.268  11.978 -1.9082  1.4091 -0.4756
   86MOL0     H11567   2.726  11.131  12.070  0.4173  0.0017 -0.5270
   86MOL0     H11568   2.515  11.122  12.205 -1.0906  1.7707  1.5182
   86MOL0     H11569   2.476  11.284  12.128  1.3258  1.5721 -0.0139
   86MOL0     H11570   2.770  11.370  12.431 -0.3777  3.1673 -0.7764
   86MOL0     H11571   2.701  11.489  12.638  0.4918 -0.8328  0.7377
   86MOL0     H11572   2.647  11.728  12.952  1.9230 -2.3917 -0.1950
   86MOL0     H11573   2.641  11.785  13.201  1.2062 -0.3576 -1.5094
   86MOL0     H11574   2.525  11.487  13.507  0.2063  1.2130  2.2879
   86MOL0     H11575   2.642  11.508  13.374 -0.5565 -2.5220  1.3465
   86MOL0     H11576   2.598  11.675  13.620 -0.1041  0.3200  0.0242
   86MOL0     H11577   2.721  11.552  13.607  0.9891 -1.0311 -3.3373
   86MOL0     H11578   2.739  11.788  13.416 -1.7786  3.0321  2.4737
   86MOL0     H11579   2.788  11.811  13.584 -2.8160 -2.5491  3.1480
   86MOL0     H11580   2.905  11.627  13.378  1.4591  3.4215 -2.1063
   86MOL0     H11581   2.924  11.595  13.553  4.4047  0.4588 -0.7789
   86MOL0     H11582   3.109  11.719  13.441  0.1595 -0.8976 -2.2598
   86MOL0     H11583   3.047  11.817  13.569  0.5530 -0.5533 -0.5933
   86MOL0     H11584   2.972  11.849  13.279 -2.5109  0.2700  0.0406
   86MOL0     H11585   2.895  11.939  13.417 -1.0672 -1.1255 -1.5970
   86MOL0     H11586   3.202  11.937  13.405 -1.1466  0.3712  2.3783
   86MOL0     H11587   3.087  12.040  13.481  1.4624 -0.5769  1.6680
   86MOL0     H11588   3.173  12.042  13.195 -0.0412 -0.4595  0.2953
   86MOL0     H11589   3.011  12.107  13.235 -0.2153 -1.7104 -0.0465
   86MOL0     H11590   2.350  11.479  13.260 -1.6428  1.2214  0.8351
   86MOL0     H11591   2.333  11.445  13.004 -1.1431 -0.3947  2.9268
   86MOL0     H11592   2.289  11.420  12.517 -0.6984  0.5082 -0.5011
   86MOL0     H11593   2.369  11.323  12.313  0.1708  0.0622 -0.4166
   86MOL0     H11594   2.342  10.086  10.884  1.0048  3.2407  4.1218
   86MOL0     H11595   2.209   9.867  10.821 -0.4293 -0.5542  0.3465
   86MOL0     H11596   1.984   9.612  10.761  1.3946  0.2692  1.1397
   86MOL0     H11597   1.877   9.435  10.637 -1.1961  1.5303 -0.2325
   86MOL0     H11598   1.646   9.134  10.863  0.2292 -0.3923 -0.0263
   86MOL0     H11599   1.788   9.046  10.845 -1.1606  0.5349 -0.3433
   86MOL0     H11600   1.605   9.073  10.606 -3.0563  0.5542  2.5213
   86MOL0     H11601   1.585   8.950  10.733  0.2146  0.2184  0.1488
   86MOL0     H11602   1.759   8.829  10.660  2.6539  0.2335 -0.9460
   86MOL0     H11603   1.859   8.973  10.625  0.9164 -0.3984 -2.3842
   86MOL0     H11604   1.740   8.993  10.396  1.4246 -0.1372 -0.4023
   86MOL0     H11605   1.809   8.839  10.405 -2.1067  0.3697 -2.2346
   86MOL0     H11606   1.413   8.732  10.457  0.4592  1.6104  0.1924
   86MOL0     H11607   1.833   9.196  10.992  1.6642 -0.7937 -1.2932
   86MOL0     H11608   1.956   9.218  11.180  0.7747 -0.2727  0.3774
   86MOL0     H11609   2.069   9.348  11.202  0.2334 -1.0405  0.1035
   86MOL0     H11610   1.896   9.375  11.237 -0.3803  2.6789 -2.6078
   87MOL0     O11611   9.082   1.176  10.627  0.2892 -0.4651 -0.0914
   87MOL0     C11612   9.092   1.121  10.737 -0.4736 -0.2427 -0.4458
   87MOL0     O11613   9.183   1.019  10.762  0.0792  0.7984  0.4239
   87MOL0     C11614   9.280   0.991  10.665  0.2185 -0.1690 -0.5878
   87MOL0     C11615   9.381   1.080  10.642  0.3091 -0.2952  0.0214
   87MOL0     C11616   9.468   1.066  10.533 -1.2274 -0.3812 -0.3917
   87MOL0     C11617   9.454   0.949  10.450  0.1008  0.0549 -0.7493
   87MOL0     O11618   9.529   0.915  10.344 -0.0711 -0.1452  0.3481
   87MOL0     C11619   9.652   0.989  10.337 -0.5458  0.7875  0.8475
   87MOL0     C11620   9.719   0.966  10.198  0.3499  0.1111  0.0632
   87MOL0     C11621   9.811   0.843  10.200 -1.2077 -0.1971  0.1872
   87MOL0     C11622   9.913   0.839  10.076 -0.1734 -0.0225  0.1622
   87MOL0     C11623  10.035   0.757  10.098 -1.0487  0.5868  0.8363
   87MOL0     C11624   9.979   0.609  10.120  1.4296  0.2133 -0.1913
   87MOL0     C11625  10.095   0.521  10.135 -0.6764 -0.6823  1.2528
   87MOL0     C11626  10.158   0.477   9.997 -0.3812  0.0913  0.5466
   87MOL0     N11627  10.068   0.396   9.916  0.2320 -0.0651  0.5091
   87MOL0     C11628   9.959   0.316   9.949 -0.4451  0.2792 -0.8403
   87MOL0     C11629   9.918   0.263   9.832  1.0660  0.0186 -0.0876
   87MOL0     C11630   9.800   0.174   9.796  0.3654  0.2480 -0.3196
   87MOL0     C11631   9.849   0.031   9.751 -0.1114 -0.1615 -0.1902
   87MOL0     C11632   9.733  -0.056   9.700  0.0695 -0.5871 -0.2040
   87MOL0     C11633   9.657   0.011   9.583 -0.4691  0.4436  0.3214
   87MOL0     O11634   9.538   0.067   9.640  0.6339  0.5501 -0.5439
   87MOL0     C11635   9.421  -0.010   9.624  0.0581 -0.5064 -0.4550
   87MOL0     C11636   9.299   0.051   9.601 -0.3791 -0.9109  0.7160
   87MOL0     C11637   9.182  -0.013   9.546 -0.2176  0.5361  0.3619
   87MOL0     C11638   9.187  -0.158   9.521 -1.5508 -0.7586 -0.6122
   87MOL0     C11639   9.078  -0.238   9.481 -0.2024 -1.0714  0.0354
   87MOL0     O11640   8.955  -0.179   9.472  0.3577  0.3770 -0.9520
   87MOL0     C11641   8.846  -0.256   9.476  0.5149 -0.1045  0.3087
   87MOL0     C11642   8.772  -0.246   9.598 -0.3475  0.3218  0.8636
   87MOL0     C11643   8.659  -0.328   9.611  0.1787 -0.2266 -0.7375
   87MOL0     C11644   8.636  -0.423   9.508  0.9460 -0.4468 -1.0362
   87MOL0     O11645   8.535  -0.520   9.508 -0.0104  0.1079  0.1027
   87MOL0     C11646   8.489  -0.578   9.633  0.3548 -0.9327  0.2232
   87MOL0     C11647   8.494  -0.726   9.609 -0.8247 -0.0823 -0.0016
   87MOL0     C11648   8.468  -0.826   9.727 -0.3149 -0.7624 -0.3974
   87MOL0     C11649   8.528  -0.782   9.860 -0.5875  0.2927 -0.9121
   87MOL0     C11650   8.503  -0.892   9.969  0.4739 -0.1342  0.3262
   87MOL0     C11651   8.530  -0.833  10.108 -0.6972  0.0639  0.4534
   87MOL0     C11652   8.679  -0.797  10.134 -1.0542  0.6203  0.8354
   87MOL0     C11653   8.714  -0.747  10.269 -0.8805  0.2444 -0.3326
   87MOL0    Cl11654   8.895  -0.745  10.294 -0.3112  0.4408 -0.2500
   87MOL0     C11655   8.704  -0.422   9.385 -0.1274 -0.6135 -0.0021
   87MOL0     C11656   8.816  -0.337   9.376  0.2756 -0.0358 -0.3424
   87MOL0     O11657   9.104  -0.358   9.462 -0.7827 -0.0740 -0.3657
   87MOL0     C11658   9.313  -0.219   9.556 -0.2844  0.3039  0.0744
   87MOL0     C11659   9.429  -0.149   9.601  0.3890 -0.3637  0.7746
   87MOL0     N11660   9.990   0.327   9.736 -1.0580 -0.7780 -0.2796
   87MOL0     N11661  10.081   0.405   9.784 -0.3883  0.1118 -1.0523
   87MOL0     C11662   9.354   0.852  10.478  0.6531 -0.2064 -0.4296
   87MOL0     C11663   9.265   0.878  10.584 -0.1245 -0.6558  0.8938
   87MOL0     C11664   9.018   1.189  10.848  0.3435  0.9381 -1.2578
   87MOL0     C11665   9.052   1.156  10.988 -0.6646 -0.2708 -0.3926
   87MOL0     C11666   9.005   1.223  11.094 -0.6030  0.5126 -0.0716
   87MOL0     C11667   8.913   1.332  11.069 -0.1419  1.0562  0.5740
   87MOL0     O11668   8.882   1.409  11.176  0.8907 -0.0161 -0.1128
   87MOL0     C11669   8.748   1.461  11.200 -0.0232  0.7863  0.7975
   87MOL0     C11670   8.645   1.351  11.230  0.3095 -0.0963  0.3367
   87MOL0     C11671   8.507   1.401  11.204  0.2269 -0.2807 -0.4769
   87MOL0     C11672   8.466   1.538  11.247 -0.3028 -0.0740 -0.4051
   87MOL0     C11673   8.500   1.552  11.397 -0.3523  0.8645  0.4719
   87MOL0     C11674   8.524   1.585  11.511 -0.1869  0.3037 -0.8055
   87MOL0     C11675   8.860   1.364  10.942 -0.6239 -0.2948  0.1341
   87MOL0     C11676   8.909   1.285  10.827  0.7610 -0.3273 -0.0218
   87MOL0     C11677   8.854   1.331  10.685  0.5012  0.2427 -0.0015
   87MOL0     H11678   9.387   1.174  10.697 -0.1478 -0.3600  0.1845
   87MOL0     H11679   9.524   1.157  10.515 -2.8384  1.0276  1.3196
   87MOL0     H11680   9.625   1.094  10.356 -1.8436  0.5300  0.4641
   87MOL0     H11681   9.719   0.961  10.419 -0.9500  0.5729  1.1103
   87MOL0     H11682   9.775   1.053  10.163 -1.7203  0.3078 -3.2511
   87MOL0     H11683   9.646   0.946  10.119 -1.2784 -1.1555  1.7760
   87MOL0     H11684   9.754   0.754  10.227  1.5486 -0.7177  5.7541
   87MOL0     H11685   9.875   0.852  10.288 -0.0158 -2.7204 -0.3421
   87MOL0     H11686   9.853   0.797   9.994  1.1608  1.0739 -1.4371
   87MOL0     H11687   9.953   0.935  10.044 -0.3750  0.8068  2.2477
   87MOL0     H11688  10.112   0.757  10.020  2.5125 -0.6771  4.0884
   87MOL0     H11689  10.087   0.797  10.185  1.8196  3.5675 -1.9527
   87MOL0     H11690   9.916   0.606  10.210 -0.6254 -1.9498 -1.5750
   87MOL0     H11691   9.912   0.576  10.040 -2.1431 -0.1428  2.6530
   87MOL0     H11692  10.069   0.434  10.197 -1.6675 -1.9184 -0.7994
   87MOL0     H11693  10.171   0.575  10.192  0.0840 -2.9196  2.4836
   87MOL0     H11694  10.188   0.565   9.939 -0.7893  0.8085  1.4118
   87MOL0     H11695  10.245   0.412  10.015 -0.5240 -1.6836 -3.7762
   87MOL0     H11696   9.924   0.292  10.049  1.6663  1.7265  0.3513
   87MOL0     H11697   9.735   0.157   9.882  0.4332 -3.1123 -0.7929
   87MOL0     H11698   9.744   0.225   9.718  1.6205 -0.3320 -1.6511
   87MOL0     H11699   9.925   0.045   9.674  0.9851  0.4793  0.9774
   87MOL0     H11700   9.893  -0.017   9.839 -2.0304  3.3418  2.9615
   87MOL0     H11701   9.674  -0.082   9.788 -0.2283  0.1883 -0.1671
   87MOL0     H11702   9.780  -0.149   9.666 -0.9995 -0.8022 -1.1719
   87MOL0     H11703   9.637  -0.068   9.510  0.4877  1.2852 -0.9049
   87MOL0     H11704   9.723   0.079   9.528  0.6289  0.8701  2.1201
   87MOL0     H11705   9.313   0.157   9.617 -1.2041 -0.6275 -0.3892
   87MOL0     H11706   9.093   0.043   9.516  2.7734  3.4828 -4.3615
   87MOL0     H11707   8.798  -0.187   9.685 -0.5954  1.8229 -0.0483
   87MOL0     H11708   8.595  -0.317   9.698 -1.2732  2.0396 -1.9866
   87MOL0     H11709   8.548  -0.539   9.717 -1.1077  0.9228  0.4462
   87MOL0     H11710   8.386  -0.546   9.652  0.2595 -1.0230 -0.1524
   87MOL0     H11711   8.415  -0.744   9.536 -1.2450  1.0404  0.1638
   87MOL0     H11712   8.584  -0.755   9.556 -2.2613  0.9083 -3.2182
   87MOL0     H11713   8.360  -0.841   9.738 -0.2273 -0.3358  1.3753
   87MOL0     H11714   8.512  -0.922   9.699  1.1439 -0.4875  0.8123
   87MOL0     H11715   8.481  -0.691   9.897 -0.6936  0.6962 -2.0156
   87MOL0     H11716   8.632  -0.751   9.851 -1.1168  1.8347 -2.0994
   87MOL0     H11717   8.578  -0.969   9.950 -0.7429 -1.8939  2.2978
   87MOL0     H11718   8.406  -0.942   9.968 -0.4932  1.5459  2.2954
   87MOL0     H11719   8.478  -0.737  10.116 -5.8925 -2.3846  0.9157
   87MOL0     H11720   8.493  -0.909  10.178  2.1826 -3.0524 -1.1227
   87MOL0     H11721   8.708  -0.719  10.063  0.9164  1.2990  2.2841
   87MOL0     H11722   8.748  -0.880  10.113  0.3616  2.6751 -4.1580
   87MOL0     H11723   8.687  -0.642  10.279  4.2121  1.8110 -0.0225
   87MOL0     H11724   8.678  -0.805  10.354  2.7322 -2.4080 -0.3409
   87MOL0     H11725   8.652  -0.467   9.302  2.0426 -2.3764 -0.5205
   87MOL0     H11726   8.864  -0.349   9.280 -1.9398  0.4311 -1.5885
   87MOL0     H11727   9.335  -0.324   9.540 -0.4478  0.4819 -1.5086
   87MOL0     H11728   9.523  -0.201   9.612  0.4809 -0.2459  0.5589
   87MOL0     H11729   9.338   0.766  10.414 -1.3061 -1.0365  1.0702
   87MOL0     H11730   9.202   0.795  10.615 -1.8996  1.4834  3.4767
   87MOL0     H11731   9.129   1.083  11.010  1.4812  2.7139  3.4937
   87MOL0     H11732   9.035   1.204  11.197 -3.1420  0.6016  0.7665
   87MOL0     H11733   8.726   1.518  11.110  0.3968  1.5611  1.1800
   87MOL0     H11734   8.756   1.522  11.290  4.0177  0.8422  0.5935
   87MOL0     H11735   8.661   1.310  11.330  1.1152 -3.8477 -1.1224
   87MOL0     H11736   8.671   1.266  11.166  0.7778  1.6683 -1.9399
   87MOL0     H11737   8.435   1.326  11.239  0.1112 -0.7777 -1.6891
   87MOL0     H11738   8.497   1.414  11.095  0.9609  1.6580 -0.3574
   87MOL0     H11739   8.530   1.611  11.196  0.3469 -2.5182 -3.3996
   87MOL0     H11740   8.358   1.555  11.242 -0.4003 -1.0837 -2.4704
   87MOL0     H11741   8.527   1.615  11.614  1.0067  3.6979 -1.6892
   87MOL0     H11742   8.797   1.447  10.912 -1.5050 -0.9388  0.1569
   87MOL0     H11743   8.840   1.245  10.619  2.0766 -0.9933  1.2017
   87MOL0     H11744   8.763   1.384  10.715  1.1480 -0.6077  4.0747
   87MOL0     H11745   8.932   1.395  10.645  0.2086 -0.8513 -2.4593
   88MOL0     O11746   3.268   2.807   9.643  0.4185 -0.2004  0.5116
   88MOL0     C11747   3.145   2.801   9.644  0.2321 -0.5285 -0.1515
   88MOL0     O11748   3.061   2.909   9.626 -0.1735 -0.3832 -0.3354
   88MOL0     C11749   3.123   3.029   9.585  0.0011 -0.0353  0.1272
   88MOL0     C11750   3.224   3.093   9.652 -0.8091 -0.7448 -0.1358
   88MOL0     C11751   3.288   3.200   9.598 -0.3537  0.5384  0.4159
   88MOL0     C11752   3.255   3.260   9.470  0.4317 -0.4299 -0.0319
   88MOL0     O11753   3.318   3.377   9.422 -0.2678 -0.5711  0.2294
   88MOL0     C11754   3.223   3.473   9.374  0.3736  0.0013  0.3390
   88MOL0     C11755   3.291   3.607   9.343  0.4999  0.2692 -0.0044
   88MOL0     C11756   3.344   3.625   9.199  0.0779  0.0323 -0.7607
   88MOL0     C11757   3.370   3.779   9.166  0.6626 -0.1549 -0.4341
   88MOL0     C11758   3.249   3.868   9.147 -0.7374 -0.6615  0.1423
   88MOL0     C11759   3.145   3.820   9.047  0.0180 -0.2206  0.1757
   88MOL0     C11760   3.024   3.905   9.028 -1.0199 -0.4098  0.1688
   88MOL0     C11761   2.938   3.928   9.147  1.0237  0.7823 -1.2021
   88MOL0     N11762   2.897   3.797   9.209 -0.2636  0.1865  0.9093
   88MOL0     C11763   2.775   3.734   9.183 -0.4488 -0.4224  0.0203
   88MOL0     C11764   2.784   3.614   9.260  0.5636 -0.3919 -1.1288
   88MOL0     C11765   2.693   3.497   9.238  0.2677  0.2246 -0.6546
   88MOL0     C11766   2.768   3.362   9.278 -0.7896  0.1146 -0.7269
   88MOL0     C11767   2.885   3.306   9.185  0.0524 -1.0987 -0.1678
   88MOL0     C11768   2.847   3.282   9.035  0.4001 -0.4589 -0.4595
   88MOL0     O11769   2.725   3.216   9.018 -0.2848 -0.2562  0.0742
   88MOL0     C11770   2.718   3.083   9.043  0.2818  0.1687  0.3013
   88MOL0     C11771   2.827   3.002   9.026 -0.0458  1.0131 -0.6594
   88MOL0     C11772   2.812   2.862   9.042  0.8690 -0.5180  0.2057
   88MOL0     C11773   2.689   2.813   9.092 -0.6447 -1.2804 -1.0610
   88MOL0     C11774   2.660   2.668   9.114 -0.6456  0.3611 -0.2059
   88MOL0     O11775   2.772   2.583   9.118  0.6864  0.4151  0.0143
   88MOL0     C11776   2.756   2.445   9.144  0.1705  0.7711 -0.5910
   88MOL0     C11777   2.853   2.363   9.101 -0.6233 -0.3812  0.3887
   88MOL0     C11778   2.847   2.226   9.106  0.2533  1.1811  0.1005
   88MOL0     C11779   2.745   2.155   9.169 -0.7651  0.4667  0.9402
   88MOL0     O11780   2.728   2.020   9.190 -0.7090 -0.0883 -0.0523
   88MOL0     C11781   2.777   1.932   9.091 -0.2687 -0.7417 -0.3582
   88MOL0     C11782   2.735   1.788   9.126 -0.2979 -0.9456  0.1420
   88MOL0     C11783   2.753   1.698   9.003  0.7313  0.6553 -0.6281
   88MOL0     C11784   2.629   1.718   8.914  0.0001  0.2079 -0.1770
   88MOL0     C11785   2.605   1.624   8.796  0.2311  0.9095 -0.1505
   88MOL0     C11786   2.469   1.665   8.737  1.2741  0.5604 -0.1386
   88MOL0     C11787   2.425   1.563   8.630 -0.0753 -0.4093 -1.1530
   88MOL0     C11788   2.303   1.627   8.559  0.7372 -0.8714 -0.4207
   88MOL0    Cl11789   2.156   1.603   8.652 -0.2700  0.0305  0.6892
   88MOL0     C11790   2.649   2.240   9.217 -0.3552  0.0542 -0.8319
   88MOL0     C11791   2.653   2.380   9.208 -0.0756 -1.3167 -0.0516
   88MOL0     O11792   2.547   2.635   9.138  0.4922 -0.1270  0.0223
   88MOL0     C11793   2.581   2.904   9.123  0.1163 -0.3237  1.3035
   88MOL0     C11794   2.597   3.034   9.088 -0.0973  0.0077  1.0610
   88MOL0     N11795   2.908   3.607   9.329  0.6767 -0.5329 -0.4938
   88MOL0     N11796   2.968   3.717   9.291  0.5793  0.3923 -0.0031
   88MOL0     C11797   3.140   3.200   9.410 -0.0836  0.0038 -0.4268
   88MOL0     C11798   3.076   3.088   9.466 -0.2329 -0.7466  0.3851
   88MOL0     C11799   3.075   2.669   9.668  0.3778  0.5405 -0.5319
   88MOL0     C11800   2.929   2.656   9.652  0.4939  0.9356  0.1023
   88MOL0     C11801   2.864   2.530   9.656 -0.1734 -0.1604  0.2341
   88MOL0     C11802   2.936   2.413   9.679 -0.3344 -0.4217 -1.0327
   88MOL0     O11803   2.875   2.289   9.691 -0.6273 -0.2642 -0.2896
   88MOL0     C11804   2.851   2.226   9.561 -0.6628  0.3038 -0.0430
   88MOL0     C11805   2.961   2.129   9.525 -0.0070  0.4911  0.3604
   88MOL0     C11806   2.969   2.013   9.622 -0.3825 -0.1409  0.9475
   88MOL0     C11807   2.844   1.939   9.659  0.8926  0.5141  0.9992
   88MOL0     C11808   2.816   1.843   9.549 -0.6489  1.1322 -0.6217
   88MOL0     C11809   2.772   1.748   9.497  1.2681 -0.4819  0.2306
   88MOL0     C11810   3.078   2.424   9.699  0.8538 -0.5451  0.1236
   88MOL0     C11811   3.143   2.552   9.699  0.0489 -0.0455 -0.7511
   88MOL0     C11812   3.293   2.536   9.716 -0.1644  0.5904  0.4326
   88MOL0     H11813   3.251   3.055   9.750 -1.6061 -2.8306 -0.6629
   88MOL0     H11814   3.370   3.243   9.656  0.1542  2.1666 -1.3921
   88MOL0     H11815   3.167   3.444   9.284  1.9424  1.1129 -1.0599
   88MOL0     H11816   3.150   3.498   9.452  1.7605 -1.6801  2.2792
   88MOL0     H11817   3.384   3.614   9.401  1.2988 -1.5454 -0.9693
   88MOL0     H11818   3.219   3.685   9.368  0.3589  0.5453 -1.2171
   88MOL0     H11819   3.272   3.588   9.125  0.6909 -0.1320 -1.2793
   88MOL0     H11820   3.433   3.563   9.188 -1.0968 -1.9407  0.3427
   88MOL0     H11821   3.428   3.809   9.254  0.1689  2.5201 -0.9394
   88MOL0     H11822   3.434   3.781   9.077 -0.9457  1.4879 -1.6122
   88MOL0     H11823   3.198   3.873   9.244 -0.6229 -3.5109  0.4333
   88MOL0     H11824   3.292   3.967   9.136  1.0278 -1.3277  0.6905
   88MOL0     H11825   3.200   3.820   8.952 -0.5794  4.3251 -0.3818
   88MOL0     H11826   3.114   3.718   9.071 -1.7723  0.3460  0.4116
   88MOL0     H11827   2.970   3.863   8.942 -1.4403  1.5665 -0.5970
   88MOL0     H11828   3.070   3.998   8.994  2.4566 -2.4195 -1.1082
   88MOL0     H11829   2.983   3.996   9.220 -1.8899  1.4401  0.1119
   88MOL0     H11830   2.848   3.984   9.118 -0.5990 -0.1187  1.6434
   88MOL0     H11831   2.703   3.773   9.111  1.5118 -2.4048 -3.3232
   88MOL0     H11832   2.602   3.506   9.297  1.1860 -0.9862  1.0035
   88MOL0     H11833   2.663   3.509   9.133  0.4457  1.4792 -0.5805
   88MOL0     H11834   2.811   3.366   9.378 -1.5469 -3.2583 -0.1409
   88MOL0     H11835   2.695   3.282   9.292  2.9263 -3.5306 -0.1281
   88MOL0     H11836   2.900   3.208   9.232 -2.1311 -0.0640  3.0336
   88MOL0     H11837   2.976   3.367   9.189 -2.2007  2.6169 -1.2069
   88MOL0     H11838   2.936   3.235   8.993  1.4935  2.7640 -2.0746
   88MOL0     H11839   2.842   3.373   8.974  1.6990 -0.1641 -0.1392
   88MOL0     H11840   2.930   3.029   9.005  1.0621 -1.7143  0.7958
   88MOL0     H11841   2.894   2.792   9.028  2.0964  1.0670 -0.9678
   88MOL0     H11842   2.935   2.416   9.053 -1.3996 -0.4525 -1.0809
   88MOL0     H11843   2.929   2.168   9.065  1.2422  2.9661 -0.5302
   88MOL0     H11844   2.744   1.967   8.993 -0.5164  0.9256  0.2856
   88MOL0     H11845   2.886   1.935   9.088 -0.2307 -0.9827  0.5932
   88MOL0     H11846   2.797   1.740   9.202 -1.1720  0.0594  1.5445
   88MOL0     H11847   2.629   1.777   9.150 -0.7908 -3.5306 -2.5707
   88MOL0     H11848   2.840   1.723   8.941  2.0923 -2.8468 -0.3739
   88MOL0     H11849   2.757   1.593   9.033 -2.1953  0.9775  1.2226
   88MOL0     H11850   2.635   1.817   8.868  0.0280  1.4943  2.4173
   88MOL0     H11851   2.537   1.719   8.973  0.2543 -3.0442  0.4416
   88MOL0     H11852   2.604   1.524   8.840 -0.3080  0.4531 -1.1577
   88MOL0     H11853   2.685   1.622   8.721  1.2173 -1.4916  0.8717
   88MOL0     H11854   2.386   1.686   8.805 -1.0475 -1.0215 -2.2898
   88MOL0     H11855   2.485   1.767   8.700 -0.2057  1.2143  0.9008
   88MOL0     H11856   2.417   1.460   8.668 -5.2880 -0.3985 -1.5316
   88MOL0     H11857   2.502   1.563   8.553 -1.4809  0.2324 -2.6107
   88MOL0     H11858   2.329   1.732   8.546 -0.5388 -0.3544  0.8903
   88MOL0     H11859   2.285   1.585   8.460 -1.3992 -0.4250 -0.2756
   88MOL0     H11860   2.573   2.190   9.276 -1.4779 -3.1163 -4.5720
   88MOL0     H11861   2.573   2.438   9.254 -0.2336 -2.4776  1.2017
   88MOL0     H11862   2.495   2.862   9.175 -1.7752  1.2269 -0.4343
   88MOL0     H11863   2.519   3.107   9.103 -1.6932 -1.2620 -0.6425
   88MOL0     H11864   3.104   3.232   9.313  0.9023 -1.7007 -1.4025
   88MOL0     H11865   2.988   3.053   9.413  0.0425  3.0125 -3.1481
   88MOL0     H11866   2.861   2.737   9.628 -2.8067 -1.2297  1.4382
   88MOL0     H11867   2.756   2.522   9.651 -0.0516 -1.9725  0.1569
   88MOL0     H11868   2.844   2.305   9.486  0.0029 -0.5503 -1.0276
   88MOL0     H11869   2.761   2.164   9.558  0.8128 -1.9237 -3.2637
   88MOL0     H11870   3.052   2.189   9.524 -0.7893  1.7140  0.0602
   88MOL0     H11871   2.940   2.090   9.425  0.5488  4.9292 -1.7032
   88MOL0     H11872   3.015   2.044   9.717  0.6672 -3.2162  1.5624
   88MOL0     H11873   3.049   1.946   9.588 -0.9508 -0.5787  0.4713
   88MOL0     H11874   2.865   1.877   9.746 -1.2459  0.1428  1.3212
   88MOL0     H11875   2.758   1.999   9.691 -0.6301 -0.4500 -1.0254
   88MOL0     H11876   2.721   1.661   9.461 -2.2307  1.5706 -0.2096
   88MOL0     H11877   3.138   2.333   9.696  0.3029 -0.8881 -0.8895
   88MOL0     H11878   3.343   2.599   9.791  1.8639  0.4040 -0.6752
   88MOL0     H11879   3.310   2.429   9.729 -0.4218 -0.0893 -3.5904
   88MOL0     H11880   3.339   2.550   9.618 -0.5641 -0.0913  0.1380
   89MOL0     O11881   3.359   4.450   2.622 -0.5388 -0.3588  0.2747
   89MOL0     C11882   3.428   4.462   2.525  0.5089 -0.0207  0.8117
   89MOL0     O11883   3.445   4.349   2.444  0.1903 -0.7882 -0.5213
   89MOL0     C11884   3.399   4.230   2.483 -0.2328 -0.5603  0.0236
   89MOL0     C11885   3.300   4.163   2.412 -0.0781 -0.0733 -0.1226
   89MOL0     C11886   3.260   4.041   2.449 -0.2247  0.0081  0.2664
   89MOL0     C11887   3.309   3.976   2.565  0.1734 -0.6976 -0.6229
   89MOL0     O11888   3.236   3.863   2.603 -0.0071 -1.0104  0.2890
   89MOL0     C11889   3.247   3.806   2.727  0.5674  1.5439 -0.3143
   89MOL0     C11890   3.340   3.687   2.704  1.0826  0.5982  0.0746
   89MOL0     C11891   3.391   3.630   2.835 -0.3398  0.3611  0.5525
   89MOL0     C11892   3.403   3.480   2.844 -1.2226 -1.3076 -0.4611
   89MOL0     C11893   3.415   3.435   2.988  0.9151  0.9047 -0.2579
   89MOL0     C11894   3.529   3.512   3.074 -0.4044  0.0703 -0.3757
   89MOL0     C11895   3.542   3.457   3.213 -0.0600 -0.4844 -0.7961
   89MOL0     C11896   3.587   3.311   3.227 -0.4801  0.8640  0.6056
   89MOL0     N11897   3.605   3.263   3.370 -0.1008  0.0116 -0.6868
   89MOL0     C11898   3.500   3.268   3.466 -0.8714  0.1198  0.3262
   89MOL0     C11899   3.565   3.229   3.583 -0.0606 -0.7047 -0.4352
   89MOL0     C11900   3.504   3.227   3.726 -0.0358  0.3281 -0.0598
   89MOL0     C11901   3.587   3.333   3.805 -0.4150 -0.5436 -1.2263
   89MOL0     C11902   3.518   3.351   3.950 -1.4941 -0.2740 -0.1444
   89MOL0     C11903   3.609   3.446   4.027  0.1815 -0.6082 -1.2239
   89MOL0     O11904   3.613   3.564   3.950 -0.1365  0.0598 -0.5899
   89MOL0     C11905   3.693   3.665   3.980 -0.7183  0.4124 -0.2909
   89MOL0     C11906   3.656   3.787   3.921 -0.3667  0.0332  0.1793
   89MOL0     C11907   3.734   3.898   3.944  0.2889 -0.8341 -0.8577
   89MOL0     C11908   3.848   3.891   4.022 -0.6303 -0.4245  0.5394
   89MOL0     C11909   3.929   4.014   4.040 -0.6991  0.6940  0.3781
   89MOL0     O11910   3.889   4.127   3.972 -0.3846  0.1490  0.0513
   89MOL0     C11911   3.941   4.257   3.994 -0.4296 -0.4271  0.8998
   89MOL0     C11912   4.007   4.326   3.896 -0.0537 -0.4770 -0.1892
   89MOL0     C11913   4.062   4.448   3.927  0.5142  0.6894 -0.0428
   89MOL0     C11914   4.055   4.498   4.061 -0.3745 -0.3804  0.3202
   89MOL0     O11915   4.109   4.626   4.083  0.2733 -0.3396 -0.0827
   89MOL0     C11916   4.235   4.649   4.020  0.1580 -0.6910  0.3358
   89MOL0     C11917   4.335   4.710   4.120  0.1060  0.6593 -0.1420
   89MOL0     C11918   4.315   4.857   4.146  0.6536  0.1874  0.1932
   89MOL0     C11919   4.186   4.867   4.239  0.2539 -1.8760 -0.2070
   89MOL0     C11920   4.173   5.010   4.299 -0.7219 -0.2849  0.5310
   89MOL0     C11921   4.044   5.001   4.392  0.1061 -1.0082  0.7622
   89MOL0     C11922   4.000   5.135   4.463  0.0447 -0.3131 -0.2384
   89MOL0     C11923   4.094   5.191   4.574 -0.6740 -0.3291  0.5840
   89MOL0    Cl11924   4.003   5.331   4.652  0.1602  0.4519  0.2057
   89MOL0     C11925   3.971   4.440   4.159  0.2567  0.8746  0.8533
   89MOL0     C11926   3.916   4.318   4.118 -0.2723 -0.3483 -0.4656
   89MOL0     O11927   4.012   4.008   4.126 -0.4271 -0.0317 -0.3030
   89MOL0     C11928   3.883   3.773   4.083 -0.6434  1.0003 -0.1020
   89MOL0     C11929   3.806   3.657   4.060 -0.2029 -0.6603 -0.6093
   89MOL0     N11930   3.701   3.199   3.556  0.9730 -0.1811  0.5066
   89MOL0     N11931   3.725   3.241   3.434 -0.4816 -0.0287 -0.2677
   89MOL0     C11932   3.400   4.050   2.644  0.3471  0.7677 -0.0461
   89MOL0     C11933   3.444   4.175   2.601  0.3980  0.2679  0.7401
   89MOL0     C11934   3.509   4.577   2.504  0.7134 -0.0238  0.0491
   89MOL0     C11935   3.598   4.581   2.392 -0.0440  0.0805 -0.0095
   89MOL0     C11936   3.684   4.684   2.365 -0.0466  0.8662 -0.4067
   89MOL0     C11937   3.673   4.799   2.443 -0.5456 -0.2019  0.0564
   89MOL0     O11938   3.747   4.919   2.420 -0.1892 -0.2362  0.3327
   89MOL0     C11939   3.885   4.901   2.393 -0.4622  0.3150 -0.6017
   89MOL0     C11940   3.954   5.020   2.341 -0.9045  0.0372  0.4271
   89MOL0     C11941   3.907   5.057   2.201 -0.1074 -0.0873  1.1006
   89MOL0     C11942   3.938   5.205   2.177  0.8245 -0.7622  0.0326
   89MOL0     C11943   3.856   5.297   2.255 -0.3974 -0.2119  0.4464
   89MOL0     C11944   3.779   5.366   2.315 -0.2598 -0.4301 -1.0282
   89MOL0     C11945   3.585   4.802   2.555  0.6996 -0.1391  0.1974
   89MOL0     C11946   3.512   4.693   2.592 -0.6954 -0.0780  0.7529
   89MOL0     C11947   3.425   4.707   2.711  0.3660  0.3966 -0.1426
   89MOL0     H11948   3.265   4.201   2.317  1.8021 -0.8680 -1.1862
   89MOL0     H11949   3.195   3.982   2.385  0.6292  0.6408 -1.2492
   89MOL0     H11950   3.292   3.880   2.794  2.6423 -0.0403  0.1498
   89MOL0     H11951   3.149   3.781   2.768  0.2876  1.7665 -0.8359
   89MOL0     H11952   3.418   3.714   2.631 -1.3371  1.8106 -2.2456
   89MOL0     H11953   3.280   3.613   2.650  0.4885  1.5381 -0.5885
   89MOL0     H11954   3.333   3.666   2.921 -3.2559  0.0126 -1.1558
   89MOL0     H11955   3.490   3.676   2.846  0.4581 -1.1791  0.0362
   89MOL0     H11956   3.314   3.433   2.802 -2.4457 -1.6308  2.2579
   89MOL0     H11957   3.484   3.439   2.783 -0.1168 -1.5150  1.0953
   89MOL0     H11958   3.323   3.464   3.038  1.2197  2.6956 -0.6588
   89MOL0     H11959   3.438   3.328   2.990  2.2787  1.1733  0.3768
   89MOL0     H11960   3.628   3.505   3.027 -0.2542  2.6512 -0.5954
   89MOL0     H11961   3.492   3.615   3.075 -0.3110  0.1642 -2.1671
   89MOL0     H11962   3.452   3.484   3.268  1.4436 -0.4830  1.8129
   89MOL0     H11963   3.623   3.511   3.261  0.1316 -2.4825  1.3221
   89MOL0     H11964   3.520   3.239   3.178  0.4184  2.6472 -3.6756
   89MOL0     H11965   3.680   3.297   3.171 -0.2725 -4.2816  1.7657
   89MOL0     H11966   3.396   3.294   3.453 -0.5128  0.8229 -1.3404
   89MOL0     H11967   3.397   3.245   3.741 -0.1567 -0.9835  0.9354
   89MOL0     H11968   3.525   3.128   3.770 -0.2955  0.1968 -0.2282
   89MOL0     H11969   3.690   3.297   3.810 -0.0113  0.6318 -0.6738
   89MOL0     H11970   3.583   3.431   3.756  0.8458 -0.2316 -0.7413
   89MOL0     H11971   3.520   3.255   4.003  0.3482 -1.3037 -1.9220
   89MOL0     H11972   3.412   3.373   3.939 -1.7388 -0.0658  2.1257
   89MOL0     H11973   3.709   3.405   4.045  1.3758  1.9992 -1.5417
   89MOL0     H11974   3.573   3.473   4.127  0.0346  2.6312 -2.0665
   89MOL0     H11975   3.563   3.801   3.866  1.0002  2.0999 -1.7680
   89MOL0     H11976   3.704   3.993   3.901 -1.7757 -0.9351  0.1869
   89MOL0     H11977   4.011   4.278   3.799  2.4164 -1.7174  0.4398
   89MOL0     H11978   4.113   4.502   3.847 -1.0998  1.9903 -0.2357
   89MOL0     H11979   4.284   4.556   3.991  1.4397  0.0765 -0.0506
   89MOL0     H11980   4.227   4.705   3.926  1.2315 -2.4681 -0.8650
   89MOL0     H11981   4.332   4.657   4.215  2.0524  2.2835  0.9008
   89MOL0     H11982   4.436   4.706   4.079  1.2894  2.6576  2.2787
   89MOL0     H11983   4.399   4.909   4.194  0.8766 -0.7699  0.8613
   89MOL0     H11984   4.295   4.901   4.048 -1.2147 -0.6390  0.1652
   89MOL0     H11985   4.188   4.795   4.322  0.4687 -2.3518 -0.6209
   89MOL0     H11986   4.095   4.853   4.181 -1.9315  0.1331  2.4879
   89MOL0     H11987   4.150   5.092   4.231 -1.2780  0.2676  1.3555
   89MOL0     H11988   4.267   5.035   4.349 -0.0382  2.3727 -1.8431
   89MOL0     H11989   3.954   4.982   4.332 -1.3612  1.8357  1.8625
   89MOL0     H11990   4.042   4.925   4.472 -1.4595 -0.1344  1.6179
   89MOL0     H11991   3.901   5.127   4.508  0.7070 -0.6087  1.2155
   89MOL0     H11992   4.000   5.222   4.397 -1.4118 -0.8133 -0.9327
   89MOL0     H11993   4.125   5.117   4.649 -2.3026 -0.2193  1.4183
   89MOL0     H11994   4.184   5.231   4.528 -0.3893 -1.0580  0.4961
   89MOL0     H11995   3.954   4.480   4.258  0.0364  0.0458  1.1604
   89MOL0     H11996   3.868   4.257   4.193  1.4014 -0.9442  0.1787
   89MOL0     H11997   3.970   3.766   4.148  1.7739 -2.0375 -3.2140
   89MOL0     H11998   3.834   3.557   4.092  1.9520  0.8153  2.6405
   89MOL0     H11999   3.455   4.003   2.724  4.1833 -0.9078 -3.2970
   89MOL0     H12000   3.505   4.243   2.660  1.0839  0.4491 -0.1498
   89MOL0     H12001   3.610   4.502   2.318 -1.1905  0.8745 -1.0999
   89MOL0     H12002   3.742   4.671   2.274 -1.7233  2.8467 -1.8694
   89MOL0     H12003   3.899   4.821   2.320  0.0760 -1.9439  1.8287
   89MOL0     H12004   3.924   4.877   2.492  1.3816 -3.5323 -2.0362
   89MOL0     H12005   4.062   5.003   2.332 -1.3000 -1.8052 -1.5268
   89MOL0     H12006   3.948   5.099   2.417  0.9978 -0.3057  0.9899
   89MOL0     H12007   3.800   5.040   2.187  0.3253 -1.3153 -1.1735
   89MOL0     H12008   3.959   4.998   2.125 -0.1289  0.7294  0.4470
   89MOL0     H12009   4.044   5.228   2.195  0.8351 -0.3364 -0.5182
   89MOL0     H12010   3.935   5.218   2.068  1.9650  2.3451  0.2672
   89MOL0     H12011   3.696   5.428   2.342  0.9014  1.6354 -1.9797
   89MOL0     H12012   3.592   4.893   2.614 -0.2668  1.8623 -2.5805
   89MOL0     H12013   3.432   4.622   2.779 -1.7985 -0.2808 -0.6964
   89MOL0     H12014   3.441   4.801   2.765 -1.8015  0.5700  0.2598
   89MOL0     H12015   3.322   4.708   2.675 -0.2830 -1.7269  1.4992
   90MOL0     O12016   5.916   8.324   5.736  0.0334 -0.4597  0.7852
   90MOL0     C12017   5.908   8.286   5.852 -0.4224  0.6981 -0.4210
   90MOL0     O12018   5.792   8.260   5.922  0.3711  0.8790 -0.5536
   90MOL0     C12019   5.671   8.284   5.861  0.3113 -0.1719  0.0452
   90MOL0     C12020   5.640   8.414   5.815 -0.5280 -0.8328  0.2679
   90MOL0     C12021   5.523   8.439   5.750 -0.4809 -0.3924 -0.1177
   90MOL0     C12022   5.413   8.343   5.768  0.4798  0.8518 -0.0449
   90MOL0     O12023   5.285   8.353   5.723 -0.3707 -0.3716 -0.5339
   90MOL0     C12024   5.181   8.343   5.814  0.4512 -0.8584 -0.3214
   90MOL0     C12025   5.104   8.475   5.817 -0.2847 -0.7509  0.5557
   90MOL0     C12026   5.009   8.494   5.932 -0.3037  0.5067 -0.5160
   90MOL0     C12027   5.069   8.497   6.069 -0.4822  0.2524  0.0337
   90MOL0     C12028   4.998   8.586   6.175 -0.6733 -0.5924 -0.1789
   90MOL0     C12029   4.987   8.539   6.327  0.0196 -0.5147 -0.0496
   90MOL0     C12030   4.895   8.415   6.327  0.7861  1.0128  0.3754
   90MOL0     C12031   4.861   8.370   6.467  0.5491 -0.5106 -0.5480
   90MOL0     N12032   4.948   8.271   6.517  0.9653 -0.7904 -0.5459
   90MOL0     C12033   5.058   8.288   6.594  0.1590  0.6312  0.5043
   90MOL0     C12034   5.086   8.167   6.651  1.0541 -0.3492  0.0226
   90MOL0     C12035   5.193   8.138   6.747 -1.2421  0.7265 -0.5542
   90MOL0     C12036   5.177   8.217   6.875 -0.0526  0.2504  0.1824
   90MOL0     C12037   5.288   8.190   6.981 -0.0777 -0.6643  0.0300
   90MOL0     C12038   5.326   8.047   7.002 -0.4722 -0.7389 -0.5183
   90MOL0     O12039   5.408   8.045   7.123 -0.4660  0.1060  0.3034
   90MOL0     C12040   5.494   7.943   7.147  0.1853  0.9298  1.9076
   90MOL0     C12041   5.581   7.896   7.042  0.2975 -0.6619  0.2839
   90MOL0     C12042   5.659   7.780   7.069 -0.1237 -0.4193 -0.2126
   90MOL0     C12043   5.645   7.712   7.188 -0.9528 -0.5661  0.0451
   90MOL0     C12044   5.754   7.618   7.220  0.3329  1.1526  0.4993
   90MOL0     O12045   5.786   7.595   7.355 -0.0986  0.2943  0.0287
   90MOL0     C12046   5.916   7.568   7.400  0.4943  0.1403  0.9418
   90MOL0     C12047   5.946   7.619   7.527  0.6673  0.2464 -0.5657
   90MOL0     C12048   6.066   7.583   7.586  0.1247  0.0124 -0.2341
   90MOL0     C12049   6.152   7.489   7.531 -0.9735  0.3558 -0.8621
   90MOL0     O12050   6.280   7.451   7.576 -0.1525 -0.0190  0.6816
   90MOL0     C12051   6.288   7.404   7.714  0.3030 -0.3555  0.1019
   90MOL0     C12052   6.245   7.262   7.718 -0.0878 -0.1341  0.2435
   90MOL0     C12053   6.332   7.149   7.683  0.2809  0.2762 -0.0977
   90MOL0     C12054   6.373   7.157   7.535 -0.3553 -0.2721 -0.2521
   90MOL0     C12055   6.424   7.035   7.460  0.4566  0.2651 -0.5856
   90MOL0     C12056   6.542   6.977   7.545 -0.1266  0.4802 -0.1037
   90MOL0     C12057   6.595   6.854   7.459  0.1004 -1.0186  0.2441
   90MOL0     C12058   6.708   6.903   7.371  0.0949  0.2796  0.5989
   90MOL0    Cl12059   6.793   6.779   7.275  0.2779 -0.2973  0.5422
   90MOL0     C12060   6.123   7.446   7.405  0.9738  1.2787 -0.1119
   90MOL0     C12061   6.008   7.482   7.330 -0.3891 -0.6550  0.3870
   90MOL0     O12062   5.810   7.561   7.124 -0.1200  0.5101 -0.4095
   90MOL0     C12063   5.569   7.761   7.288  0.1997 -0.7263 -0.2161
   90MOL0     C12064   5.492   7.871   7.268 -0.8912  1.0374  0.0465
   90MOL0     N12065   4.983   8.081   6.616  1.3376  0.1775 -0.9097
   90MOL0     N12066   4.903   8.146   6.538 -0.6976  0.4104  0.8452
   90MOL0     C12067   5.444   8.213   5.808  1.1212  0.1295  0.8062
   90MOL0     C12068   5.570   8.180   5.856 -0.1743 -0.5103 -0.9481
   90MOL0     C12069   6.048   8.260   5.908  0.7684  0.5591  0.3386
   90MOL0     C12070   6.045   8.193   6.039  0.0736  1.3281 -0.2782
   90MOL0     C12071   6.162   8.179   6.110 -0.1605  0.6764  0.6290
   90MOL0     C12072   6.285   8.219   6.057 -0.6112 -0.3140 -0.2188
   90MOL0     O12073   6.395   8.187   6.134  1.3794 -0.6100 -0.1926
   90MOL0     C12074   6.514   8.255   6.110  0.6006  0.0136 -0.3643
   90MOL0     C12075   6.589   8.184   5.995 -0.5179 -1.1720  0.1208
   90MOL0     C12076   6.733   8.236   5.982 -0.2836  0.7395 -0.6736
   90MOL0     C12077   6.830   8.197   6.097 -0.8075 -0.7323  0.0196
   90MOL0     C12078   6.966   8.180   6.043 -1.3688 -0.5010 -0.0037
   90MOL0     C12079   7.083   8.169   6.002 -0.1553  0.7028 -0.4007
   90MOL0     C12080   6.281   8.295   5.939 -0.5488 -0.0625 -0.1587
   90MOL0     C12081   6.168   8.316   5.859  0.2408 -0.3697  0.5676
   90MOL0     C12082   6.187   8.407   5.734 -0.8930  1.0133  0.0253
   90MOL0     H12083   5.714   8.492   5.826 -2.7388  1.1082  2.6436
   90MOL0     H12084   5.507   8.537   5.707 -0.3352 -0.3404 -0.0536
   90MOL0     H12085   5.119   8.255   5.794 -1.2728  0.6795 -2.1747
   90MOL0     H12086   5.221   8.331   5.915 -1.8925  1.4582  0.9918
   90MOL0     H12087   5.059   8.492   5.719  1.6143  3.3680  0.1574
   90MOL0     H12088   5.174   8.560   5.822  0.8377 -1.4299 -1.9515
   90MOL0     H12089   4.926   8.423   5.938  0.4468 -0.3092  1.1700
   90MOL0     H12090   4.954   8.585   5.909 -2.5002 -1.4871 -4.0472
   90MOL0     H12091   5.085   8.394   6.100 -0.9441 -0.6620 -2.5707
   90MOL0     H12092   5.167   8.543   6.055 -1.2617  1.4203 -2.1768
   90MOL0     H12093   5.046   8.684   6.173 -0.0014 -0.8674  1.0763
   90MOL0     H12094   4.892   8.599   6.155 -0.8960 -0.3861  1.0731
   90MOL0     H12095   5.087   8.509   6.362  1.3445  0.4362 -2.7732
   90MOL0     H12096   4.944   8.619   6.389  2.1742 -0.0493  0.9878
   90MOL0     H12097   4.941   8.327   6.281  0.2267 -0.3452  2.3035
   90MOL0     H12098   4.797   8.442   6.286 -0.5193 -2.6188  0.6972
   90MOL0     H12099   4.856   8.451   6.540 -2.2676  0.8193 -2.0542
   90MOL0     H12100   4.758   8.332   6.459 -1.3539  3.2180  2.7163
   90MOL0     H12101   5.100   8.387   6.610  0.3182  0.5254  0.7464
   90MOL0     H12102   5.199   8.033   6.776  3.7844  0.3614 -1.9393
   90MOL0     H12103   5.295   8.162   6.714 -0.3976 -1.9156 -0.1000
   90MOL0     H12104   5.170   8.324   6.853  0.1068  0.3139  0.4343
   90MOL0     H12105   5.076   8.198   6.913 -0.5477  0.6688 -0.9075
   90MOL0     H12106   5.256   8.212   7.083 -1.2129  0.9174 -0.6295
   90MOL0     H12107   5.381   8.246   6.969 -0.5418  0.5833  1.8509
   90MOL0     H12108   5.377   7.993   6.922 -5.4660 -3.7563 -2.1308
   90MOL0     H12109   5.232   7.994   7.017 -1.5836  1.4428  0.6011
   90MOL0     H12110   5.608   7.944   6.948  1.5161 -0.4772  0.7127
   90MOL0     H12111   5.741   7.775   6.999  0.0430  1.9918 -0.2586
   90MOL0     H12112   5.893   7.687   7.592  0.8528  0.5780 -0.7612
   90MOL0     H12113   6.076   7.637   7.680 -1.3491  0.6506 -0.4108
   90MOL0     H12114   6.392   7.410   7.748  0.1713 -1.6153  0.7735
   90MOL0     H12115   6.236   7.476   7.778  0.3420  0.1556 -0.4302
   90MOL0     H12116   6.209   7.250   7.820 -0.3164 -0.8469  0.0851
   90MOL0     H12117   6.146   7.256   7.672 -1.0874  2.9810  1.7571
   90MOL0     H12118   6.413   7.136   7.756  0.3047 -1.1615 -0.3635
   90MOL0     H12119   6.276   7.056   7.687  1.7036 -0.6215 -0.3070
   90MOL0     H12120   6.445   7.238   7.519 -1.0015  0.1414 -1.1390
   90MOL0     H12121   6.285   7.184   7.475 -0.6632  3.3907  1.6120
   90MOL0     H12122   6.457   7.056   7.358  0.3410 -1.4903 -1.0020
   90MOL0     H12123   6.335   6.973   7.449 -0.0783  0.5557  1.7000
   90MOL0     H12124   6.626   7.046   7.557  4.8132 -5.1489  3.3029
   90MOL0     H12125   6.521   6.948   7.648 -1.9302  2.1849  0.0691
   90MOL0     H12126   6.514   6.803   7.405 -1.2082 -2.3144  3.2010
   90MOL0     H12127   6.650   6.788   7.527  2.1591  1.2567  0.9291
   90MOL0     H12128   6.653   6.970   7.304  1.5473  1.1345  0.2166
   90MOL0     H12129   6.787   6.959   7.421  0.3017  0.5359 -0.0107
   90MOL0     H12130   6.204   7.388   7.362  0.9281  1.0742  0.0787
   90MOL0     H12131   5.984   7.429   7.238 -1.2103  0.5669 -0.1163
   90MOL0     H12132   5.569   7.707   7.383  0.6649 -2.4960 -1.1850
   90MOL0     H12133   5.420   7.904   7.342 -1.5209  3.0210 -1.3527
   90MOL0     H12134   5.372   8.132   5.799 -0.9640  2.0335 -0.9411
   90MOL0     H12135   5.588   8.080   5.894 -2.3950 -0.9203 -0.8621
   90MOL0     H12136   5.960   8.153   6.094  1.1013 -3.5482 -1.7248
   90MOL0     H12137   6.155   8.134   6.208  0.8432  0.7771  0.7625
   90MOL0     H12138   6.577   8.241   6.198  2.3870 -5.3264 -2.0823
   90MOL0     H12139   6.501   8.361   6.086  1.9123  0.2530 -0.0913
   90MOL0     H12140   6.544   8.178   5.895 -0.4845  0.6201 -0.0344
   90MOL0     H12141   6.590   8.086   6.044 -0.9608 -1.2912 -0.1025
   90MOL0     H12142   6.729   8.345   5.974  1.3684  0.9686  0.9958
   90MOL0     H12143   6.788   8.205   5.893 -0.4696  1.1971 -0.9468
   90MOL0     H12144   6.836   8.263   6.184  0.4649 -1.4272  0.4857
   90MOL0     H12145   6.804   8.099   6.140  1.6283 -2.1988 -1.6250
   90MOL0     H12146   7.187   8.159   5.981 -0.0287 -1.6777  1.0469
   90MOL0     H12147   6.368   8.344   5.897 -1.8295  2.3421 -0.1402
   90MOL0     H12148   6.174   8.339   5.649 -1.8170 -0.5159  1.3329
   90MOL0     H12149   6.121   8.494   5.724  1.1605  2.6123 -0.2107
   90MOL0     H12150   6.293   8.433   5.735 -0.7142  0.3079 -0.1064
   91MOL0     O12151   2.334   9.163   3.042 -0.4850  0.3078  0.2991
   91MOL0     C12152   2.434   9.231   3.076  0.2248 -0.0727 -0.4399
   91MOL0     O12153   2.569   9.195   3.050  0.5726  0.5307  0.6255
   91MOL0     C12154   2.593   9.077   2.989 -0.5734 -0.4186 -0.1309
   91MOL0     C12155   2.696   8.998   3.039  0.7207  0.1575 -0.1304
   91MOL0     C12156   2.729   8.874   2.992 -0.7022 -0.0820  0.9201
   91MOL0     C12157   2.667   8.820   2.880  0.2380  0.3420 -0.4117
   91MOL0     O12158   2.695   8.697   2.837 -0.0680  0.5278 -0.8562
   91MOL0     C12159   2.662   8.586   2.924  0.3769 -0.5412 -0.0673
   91MOL0     C12160   2.735   8.475   2.867  0.2637 -0.2537 -0.6461
   91MOL0     C12161   2.690   8.339   2.914 -0.5888  1.1522 -1.1509
   91MOL0     C12162   2.746   8.228   2.823  0.8488  0.3705 -0.0468
   91MOL0     C12163   2.694   8.083   2.846  0.7446 -0.2227 -0.5031
   91MOL0     C12164   2.761   7.980   2.758 -0.8355 -0.0137 -0.2493
   91MOL0     C12165   2.739   7.830   2.787 -0.2474 -0.1206  0.7942
   91MOL0     C12166   2.795   7.727   2.685  0.7468 -0.2779  0.4117
   91MOL0     N12167   2.703   7.607   2.681  0.2270  0.6422  0.1693
   91MOL0     C12168   2.575   7.608   2.626  0.2328 -0.6431  0.5284
   91MOL0     C12169   2.518   7.489   2.670 -0.4662  0.2908 -0.4550
   91MOL0     C12170   2.381   7.439   2.637 -0.0013 -0.3907  0.8997
   91MOL0     C12171   2.365   7.300   2.674  0.3934  0.6965 -0.6753
   91MOL0     C12172   2.218   7.263   2.700  0.5857  1.0642 -0.8166
   91MOL0     C12173   2.127   7.291   2.587 -0.0835  0.2208  0.0375
   91MOL0     O12174   2.079   7.428   2.574 -0.2801 -0.0098  0.1574
   91MOL0     C12175   2.020   7.503   2.672 -0.8687  0.1172 -0.6455
   91MOL0     C12176   1.982   7.476   2.804  0.5270  0.5384  0.2904
   91MOL0     C12177   1.902   7.568   2.874  0.5778  0.8898 -0.1263
   91MOL0     C12178   1.870   7.693   2.820 -0.3393 -0.2174 -0.0217
   91MOL0     C12179   1.775   7.780   2.890 -0.8819 -0.1750 -0.1400
   91MOL0     O12180   1.749   7.752   3.021  0.7774 -0.4111 -0.2568
   91MOL0     C12181   1.645   7.813   3.095  1.2297  0.8721 -0.2037
   91MOL0     C12182   1.576   7.935   3.067  0.0927 -0.7115  0.1306
   91MOL0     C12183   1.475   7.968   3.156 -0.2143  0.0667  1.1887
   91MOL0     C12184   1.451   7.899   3.275 -1.4229 -1.0566 -0.0094
   91MOL0     O12185   1.369   7.948   3.378  0.1399  0.3937  0.1288
   91MOL0     C12186   1.307   8.074   3.365  0.5923  0.4605 -0.3978
   91MOL0     C12187   1.178   8.067   3.287 -0.4305 -0.9112  0.4280
   91MOL0     C12188   1.111   8.202   3.252 -0.0680 -0.6991 -0.0566
   91MOL0     C12189   1.054   8.227   3.106 -0.6073 -0.9328  0.1604
   91MOL0     C12190   0.905   8.172   3.088  0.1993  0.2836  0.9907
   91MOL0     C12191   0.854   8.194   2.937 -0.3213  0.5526 -0.1783
   91MOL0     C12192   0.732   8.107   2.926  0.6284  1.2696  0.4459
   91MOL0     C12193   0.620   8.180   2.847 -0.6297  0.0046 -0.4702
   91MOL0    Cl12194   0.470   8.072   2.840 -0.1720  0.2069  0.2863
   91MOL0     C12195   1.517   7.786   3.302  0.2796 -0.3794  0.3214
   91MOL0     C12196   1.617   7.743   3.219  0.5799  0.9262  0.8229
   91MOL0     O12197   1.716   7.867   2.822  0.1045  0.6311  0.1709
   91MOL0     C12198   1.930   7.726   2.698 -0.2353  0.7118 -0.4603
   91MOL0     C12199   1.982   7.630   2.623 -0.6743  1.0494 -0.6949
   91MOL0     N12200   2.619   7.418   2.736 -0.0693  0.5819 -0.0171
   91MOL0     N12201   2.728   7.491   2.748 -0.6288 -0.4424 -0.1712
   91MOL0     C12202   2.569   8.895   2.819 -0.1080 -1.2916  0.3118
   91MOL0     C12203   2.529   9.022   2.876 -0.9413 -0.1776 -0.0083
   91MOL0     C12204   2.423   9.365   3.151 -1.0318  0.0150  0.7730
   91MOL0     C12205   2.535   9.453   3.154  1.1958  0.8720  0.3215
   91MOL0     C12206   2.535   9.565   3.227 -0.5025 -0.0478 -0.4549
   91MOL0     C12207   2.420   9.614   3.292 -1.0319 -0.1558 -0.9546
   91MOL0     O12208   2.427   9.739   3.358 -0.9083  0.4000  0.7253
   91MOL0     C12209   2.328   9.781   3.454  0.2724  0.1510  0.8447
   91MOL0     C12210   2.195   9.837   3.380 -0.4807 -1.0332  0.2159
   91MOL0     C12211   2.071   9.824   3.461 -0.1636  0.5376  1.1253
   91MOL0     C12212   2.078   9.846   3.616 -0.0758  1.0213  0.5319
   91MOL0     C12213   2.134   9.973   3.652 -0.0221  1.0259  0.5801
   91MOL0     C12214   2.207  10.064   3.658  1.1020 -0.0082  0.5391
   91MOL0     C12215   2.306   9.539   3.285 -0.4925 -0.9839  0.1700
   91MOL0     C12216   2.311   9.420   3.209  0.3966  0.1990  0.1869
   91MOL0     C12217   2.173   9.362   3.182 -0.6353 -0.6285  0.9063
   91MOL0     H12218   2.745   9.030   3.131 -0.0322 -2.3783  1.2833
   91MOL0     H12219   2.812   8.820   3.035 -0.3763  1.4568  2.3389
   91MOL0     H12220   2.698   8.591   3.027  1.1800 -1.2545 -0.3033
   91MOL0     H12221   2.554   8.566   2.924  0.6041 -2.1655  2.0184
   91MOL0     H12222   2.837   8.490   2.903 -0.2956 -1.2056  1.4539
   91MOL0     H12223   2.716   8.473   2.759 -3.4263  0.4789 -0.1447
   91MOL0     H12224   2.582   8.324   2.909 -0.5364  0.7421 -1.0738
   91MOL0     H12225   2.718   8.329   3.019 -4.1326  1.4942 -0.0325
   91MOL0     H12226   2.721   8.258   2.721  0.4871  0.3140  0.0258
   91MOL0     H12227   2.855   8.218   2.830  0.7666 -2.9321 -1.5133
   91MOL0     H12228   2.708   8.059   2.952  1.4924  0.6545 -0.3939
   91MOL0     H12229   2.587   8.093   2.827  1.1695  3.8934 -1.6252
   91MOL0     H12230   2.728   7.980   2.654  0.3890 -4.2033 -0.8106
   91MOL0     H12231   2.867   8.007   2.764 -0.1221 -2.7818  0.9468
   91MOL0     H12232   2.631   7.820   2.802 -0.2516 -1.5161 -0.0415
   91MOL0     H12233   2.773   7.810   2.889 -1.6363  2.5799  1.8988
   91MOL0     H12234   2.780   7.774   2.588  0.4833 -2.2477 -0.5578
   91MOL0     H12235   2.903   7.710   2.699  0.8457  0.7640  1.0095
   91MOL0     H12236   2.536   7.676   2.551 -2.2880 -1.5709  0.8892
   91MOL0     H12237   2.315   7.508   2.690 -2.0640  0.8129 -2.8239
   91MOL0     H12238   2.366   7.439   2.528  0.0810 -4.0178  0.7745
   91MOL0     H12239   2.418   7.232   2.607 -0.7286  0.7457 -1.6458
   91MOL0     H12240   2.414   7.293   2.772  0.5308 -0.3581 -0.8036
   91MOL0     H12241   2.181   7.314   2.789 -0.0901  0.9124 -1.0036
   91MOL0     H12242   2.205   7.158   2.728 -1.7446  2.1377  2.7554
   91MOL0     H12243   2.041   7.224   2.593 -1.7759  2.3839  1.5425
   91MOL0     H12244   2.193   7.261   2.505  1.2657 -0.8201  1.4339
   91MOL0     H12245   1.994   7.374   2.838 -2.7107  0.2995  1.1100
   91MOL0     H12246   1.843   7.529   2.956 -1.7125 -0.6261 -2.3302
   91MOL0     H12247   1.592   8.001   2.982  3.2118  0.4465  1.4539
   91MOL0     H12248   1.420   8.059   3.133 -1.3038 -0.6110  1.0774
   91MOL0     H12249   1.288   8.107   3.468 -0.8692  1.3107 -0.9039
   91MOL0     H12250   1.378   8.150   3.332 -2.5773  3.6677 -0.4614
   91MOL0     H12251   1.200   8.004   3.200 -1.7784  0.3664 -0.8994
   91MOL0     H12252   1.116   8.002   3.350  3.2489 -2.9930  2.2297
   91MOL0     H12253   1.015   8.196   3.305 -1.1291 -3.8532 -2.0555
   91MOL0     H12254   1.187   8.274   3.283  0.2057 -1.9115  2.3809
   91MOL0     H12255   1.122   8.192   3.028 -0.7753  2.6709 -1.7731
   91MOL0     H12256   1.046   8.328   3.067  1.0454 -1.7146 -2.4917
   91MOL0     H12257   0.847   8.237   3.153  0.2258  1.6457 -0.3051
   91MOL0     H12258   0.902   8.067   3.120 -1.3596  0.1460  0.4581
   91MOL0     H12259   0.836   8.301   2.920  0.6255  0.7476 -0.0473
   91MOL0     H12260   0.936   8.169   2.869 -0.9595  2.5430 -1.7677
   91MOL0     H12261   0.694   8.077   3.024  1.6094 -0.0245  0.4603
   91MOL0     H12262   0.755   8.022   2.861 -0.0760  2.6529 -1.7331
   91MOL0     H12263   0.604   8.276   2.896  2.1142  0.1067  0.4005
   91MOL0     H12264   0.664   8.199   2.749 -3.1115 -2.8554 -2.3120
   91MOL0     H12265   1.473   7.730   3.384 -2.1494 -4.1849 -3.2049
   91MOL0     H12266   1.652   7.642   3.239 -0.7604  0.0055 -1.1709
   91MOL0     H12267   1.896   7.820   2.654 -3.3898  1.9229  3.8659
   91MOL0     H12268   2.005   7.653   2.520  1.2900  1.9859 -0.1154
   91MOL0     H12269   2.518   8.847   2.736  1.2913 -1.7770 -0.2987
   91MOL0     H12270   2.452   9.085   2.832  1.6669  2.9417 -0.4390
   91MOL0     H12271   2.630   9.427   3.110  0.6414  1.6534 -1.4422
   91MOL0     H12272   2.624   9.626   3.218 -1.2726  1.4080  1.1245
   91MOL0     H12273   2.367   9.855   3.525  2.8700 -1.3166  1.0779
   91MOL0     H12274   2.300   9.692   3.511 -0.6879  0.4586  0.8720
   91MOL0     H12275   2.176   9.788   3.284 -2.8813 -0.8386  0.5327
   91MOL0     H12276   2.218   9.941   3.357  0.4986 -0.5308  3.0256
   91MOL0     H12277   2.024   9.726   3.444 -2.1943  0.7326  4.5414
   91MOL0     H12278   1.997   9.895   3.424  0.9258  1.2210  0.2134
   91MOL0     H12279   1.974   9.844   3.650  0.1477  2.1164  1.3048
   91MOL0     H12280   2.138   9.769   3.665 -0.2700  2.0338  2.4575
   91MOL0     H12281   2.277  10.144   3.644  3.1724 -1.8911 -0.4212
   91MOL0     H12282   2.207   9.570   3.315 -0.4411 -0.9246  0.2799
   91MOL0     H12283   2.142   9.369   3.077 -0.0339 -1.6901  0.6522
   91MOL0     H12284   2.178   9.255   3.202 -1.6636 -0.5251  1.8506
   91MOL0     H12285   2.102   9.406   3.252 -1.1296  0.1146 -0.0333
   92MOL0     O12286   8.914  11.064   2.314 -0.0077  0.7937  0.3744
   92MOL0     C12287   8.885  11.132   2.412 -0.6979 -0.5942 -0.7016
   92MOL0     O12288   8.888  11.269   2.419  0.3218 -0.1857 -0.2202
   92MOL0     C12289   8.864  11.345   2.303 -0.7935  0.4668 -0.4449
   92MOL0     C12290   8.771  11.453   2.313  0.3780  0.8151 -0.6472
   92MOL0     C12291   8.733  11.525   2.199  0.4725 -0.0331 -0.5366
   92MOL0     C12292   8.804  11.507   2.085  0.0865  0.2460  0.3223
   92MOL0     O12293   8.794  11.599   1.976  0.5212 -1.2910  0.3485
   92MOL0     C12294   8.673  11.626   1.907  0.1712  0.4056 -1.2803
   92MOL0     C12295   8.679  11.700   1.782 -0.5328 -0.2259  1.1318
   92MOL0     C12296   8.734  11.847   1.788  0.2388  0.2474 -0.2674
   92MOL0     C12297   8.889  11.862   1.800  0.0738 -0.0657 -0.3745
   92MOL0     C12298   8.929  12.003   1.843  0.4754  0.9680 -0.8038
   92MOL0     C12299   8.880  12.039   1.985  0.5418 -0.4946 -0.8135
   92MOL0     C12300   8.967  12.159   2.037 -0.4301 -0.8819  0.0198
   92MOL0     C12301   8.955  12.288   1.959  0.2250 -1.1000  0.2727
   92MOL0     N12302   9.021  12.395   2.040 -0.2244 -0.5620 -0.8182
   92MOL0     C12303   9.153  12.413   2.052 -0.5424 -1.2722  0.2977
   92MOL0     C12304   9.160  12.528   2.131 -1.1096  0.3411 -0.7404
   92MOL0     C12305   9.283  12.597   2.179  0.0991 -0.5713 -0.3736
   92MOL0     C12306   9.338  12.560   2.318  1.5300  0.2872  0.6902
   92MOL0     C12307   9.439  12.655   2.382 -0.0377 -1.2282 -0.1196
   92MOL0     C12308   9.518  12.581   2.491  0.8362  0.4203  0.3457
   92MOL0     O12309   9.426  12.579   2.599 -0.4057 -0.6169  0.0965
   92MOL0     C12310   9.450  12.480   2.688 -0.0877  0.6028  0.0144
   92MOL0     C12311   9.565  12.468   2.772  0.4943 -1.3256 -0.4348
   92MOL0     C12312   9.574  12.374   2.881  0.9803  0.1975  0.9347
   92MOL0     C12313   9.474  12.276   2.887 -0.7131 -0.1201 -1.2338
   92MOL0     C12314   9.498  12.163   2.981  0.2475  0.6122  0.4731
   92MOL0     O12315   9.425  12.061   2.941  0.3616 -0.5009 -1.0273
   92MOL0     C12316   9.403  11.945   3.014 -0.2179 -0.3481 -0.2939
   92MOL0     C12317   9.372  11.954   3.151 -0.4449  0.2194  0.5496
   92MOL0     C12318   9.321  11.842   3.228  0.6822 -0.2161  0.2418
   92MOL0     C12319   9.313  11.721   3.162  0.2579  0.3347  0.5624
   92MOL0     O12320   9.289  11.616   3.240  0.5267 -0.1154 -0.1642
   92MOL0     C12321   9.304  11.478   3.196 -0.7067 -0.0940 -0.2745
   92MOL0     C12322   9.317  11.382   3.310  0.4218 -0.1325  0.8277
   92MOL0     C12323   9.190  11.313   3.358  0.3140 -0.5327 -0.6700
   92MOL0     C12324   9.094  11.403   3.440 -0.6182  0.1329 -0.5919
   92MOL0     C12325   9.168  11.450   3.565  1.1254 -0.1103  0.4217
   92MOL0     C12326   9.070  11.507   3.673  0.3959  0.5252  0.4804
   92MOL0     C12327   9.148  11.578   3.785  0.3457  0.0181  0.5634
   92MOL0     C12328   9.192  11.482   3.906 -0.4805  0.6475  0.5504
   92MOL0    Cl12329   9.043  11.409   3.981 -0.5462  0.0676 -0.3796
   92MOL0     C12330   9.351  11.711   3.028  0.0214  0.4979 -0.3392
   92MOL0     C12331   9.394  11.825   2.957 -0.2717  0.9780 -0.4309
   92MOL0     O12332   9.563  12.171   3.082 -0.3632  1.0297  0.0677
   92MOL0     C12333   9.366  12.290   2.803 -0.5694  0.4016  1.0577
   92MOL0     C12334   9.343  12.395   2.714 -0.0776 -0.3351 -0.1689
   92MOL0     N12335   9.038  12.566   2.169  0.5412  0.5483 -0.0814
   92MOL0     N12336   8.958  12.475   2.127  0.1543 -0.6561  0.0444
   92MOL0     C12337   8.894  11.404   2.078  0.3535  0.4384 -0.3787
   92MOL0     C12338   8.934  11.331   2.188 -0.0911 -0.4297  0.2795
   92MOL0     C12339   8.855  11.066   2.545 -0.5116  0.8719  0.2212
   92MOL0     C12340   8.744  11.113   2.621 -0.0617  0.1717 -0.3860
   92MOL0     C12341   8.700  11.056   2.733 -0.0677 -0.2696  0.0016
   92MOL0     C12342   8.761  10.936   2.779  0.1454 -0.0177  0.1561
   92MOL0     O12343   8.708  10.885   2.901 -0.3542 -0.2934 -0.3096
   92MOL0     C12344   8.772  10.783   2.979 -0.4614 -0.3272 -0.5235
   92MOL0     C12345   8.663  10.743   3.074  0.8634  0.3951 -1.5454
   92MOL0     C12346   8.686  10.639   3.186 -0.7374  0.8957  0.5236
   92MOL0     C12347   8.744  10.507   3.126 -0.5981  0.0242 -0.9505
   92MOL0     C12348   8.757  10.405   3.237  0.3708 -0.0572  1.0704
   92MOL0     C12349   8.804  10.329   3.325 -0.9303 -0.7949  0.2455
   92MOL0     C12350   8.858  10.885   2.699 -0.2841 -0.1326  0.6063
   92MOL0     C12351   8.916  10.945   2.583  0.0742 -1.3114  0.1235
   92MOL0     C12352   9.032  10.891   2.517 -0.2584 -0.1347 -0.5089
   92MOL0     H12353   8.704  11.469   2.397  0.0176 -2.5232 -0.1430
   92MOL0     H12354   8.659  11.604   2.196 -0.6075 -0.7379 -6.7553
   92MOL0     H12355   8.629  11.532   1.872  0.9508  0.1245 -1.5343
   92MOL0     H12356   8.614  11.679   1.982  0.5913  0.6802 -1.1353
   92MOL0     H12357   8.574  11.708   1.754 -0.0218 -0.7455 -1.1210
   92MOL0     H12358   8.721  11.633   1.706 -1.8345 -0.0841  0.2634
   92MOL0     H12359   8.682  11.902   1.866  0.8837  0.2260  0.1897
   92MOL0     H12360   8.708  11.909   1.702  0.9972  0.2533 -0.5057
   92MOL0     H12361   8.925  11.784   1.867 -1.9712 -2.1439 -1.5527
   92MOL0     H12362   8.935  11.840   1.703  0.3420 -0.4283 -0.1663
   92MOL0     H12363   9.038  11.999   1.839  0.4337 -2.4329 -1.8719
   92MOL0     H12364   8.895  12.067   1.761 -1.0459  1.8850  0.4919
   92MOL0     H12365   8.773  12.062   1.986 -0.0007 -2.7656  0.0597
   92MOL0     H12366   8.901  11.955   2.052  0.4290 -0.1119 -0.2976
   92MOL0     H12367   9.074  12.138   2.034 -0.5199 -1.2525 -1.0918
   92MOL0     H12368   8.946  12.177   2.143  0.5946  1.8905 -0.1713
   92MOL0     H12369   8.992  12.273   1.858 -0.7388  0.3816 -0.3324
   92MOL0     H12370   8.856  12.318   1.924  0.9441  1.6964  0.3661
   92MOL0     H12371   9.227  12.347   2.008 -0.6011 -2.3379  1.7393
   92MOL0     H12372   9.359  12.581   2.102 -0.9228  1.5731 -1.9287
   92MOL0     H12373   9.262  12.704   2.176 -1.0682 -0.8028 -0.7695
   92MOL0     H12374   9.250  12.547   2.380 -1.5737  0.7206 -3.1932
   92MOL0     H12375   9.381  12.460   2.302 -1.2333 -0.5383 -2.8555
   92MOL0     H12376   9.398  12.749   2.420  1.0956 -1.1261  0.9145
   92MOL0     H12377   9.516  12.685   2.309  0.4791  0.7956  1.1855
   92MOL0     H12378   9.613  12.632   2.511  0.5617  0.1256  2.6829
   92MOL0     H12379   9.544  12.484   2.449 -0.3102  1.1736 -2.3092
   92MOL0     H12380   9.637  12.542   2.739 -1.3919 -0.1077 -2.1037
   92MOL0     H12381   9.654  12.391   2.953  0.8214  2.6061  0.6213
   92MOL0     H12382   9.370  12.053   3.195 -1.4652  1.2889 -1.7157
   92MOL0     H12383   9.277  11.845   3.327 -2.8795  0.8666 -1.1855
   92MOL0     H12384   9.226  11.443   3.127 -1.2834 -2.9539  1.6411
   92MOL0     H12385   9.400  11.492   3.146 -1.0392 -0.2705 -0.9758
   92MOL0     H12386   9.383  11.302   3.276 -0.5919 -1.2045  1.2754
   92MOL0     H12387   9.373  11.431   3.391  1.6039  0.9883 -0.6008
   92MOL0     H12388   9.126  11.276   3.277 -2.8233  0.1969  1.3060
   92MOL0     H12389   9.224  11.226   3.416  1.6780 -1.1260 -2.2815
   92MOL0     H12390   9.002  11.350   3.468 -0.1768 -1.4275 -1.9105
   92MOL0     H12391   9.070  11.487   3.375 -3.7656 -1.3340 -1.5548
   92MOL0     H12392   9.250  11.516   3.538  0.5299 -0.6480 -3.2090
   92MOL0     H12393   9.214  11.361   3.610 -1.1210 -0.2670  2.6290
   92MOL0     H12394   8.994  11.570   3.625 -1.6422 -1.8450  0.3823
   92MOL0     H12395   9.006  11.423   3.699  0.5828 -0.3686 -1.6966
   92MOL0     H12396   9.091  11.658   3.832  1.7656  0.3365  1.8516
   92MOL0     H12397   9.234  11.631   3.743 -1.7577  1.3043 -2.4596
   92MOL0     H12398   9.251  11.402   3.860 -0.6607  2.5626 -3.3951
   92MOL0     H12399   9.255  11.536   3.978  2.5080  0.5252 -1.7679
   92MOL0     H12400   9.358  11.614   2.980 -0.8012 -2.2180  4.4581
   92MOL0     H12401   9.412  11.812   2.851 -1.3282  0.2609 -0.5388
   92MOL0     H12402   9.304  12.201   2.794  2.5547 -1.7897 -0.8571
   92MOL0     H12403   9.249  12.403   2.661 -0.5723 -0.9413  0.6063
   92MOL0     H12404   8.941  11.380   1.983 -1.6146 -0.7623 -1.1135
   92MOL0     H12405   9.004  11.249   2.182 -0.5751 -1.7209  6.1379
   92MOL0     H12406   8.685  11.199   2.588 -0.3544  0.2874  0.4053
   92MOL0     H12407   8.623  11.105   2.791 -0.9027  0.0197 -1.3113
   92MOL0     H12408   8.875  10.810   3.002 -0.2986 -0.7889 -0.6943
   92MOL0     H12409   8.784  10.696   2.913  3.2652  0.6899 -1.4161
   92MOL0     H12410   8.568  10.714   3.027  0.7552 -2.2312  0.0873
   92MOL0     H12411   8.633  10.828   3.137  2.1689  1.0731 -1.7931
   92MOL0     H12412   8.588  10.625   3.234 -0.1470  0.0081  1.5232
   92MOL0     H12413   8.764  10.678   3.251  2.6023  1.5304 -3.4901
   92MOL0     H12414   8.686  10.458   3.048 -0.7750 -2.0345  0.4118
   92MOL0     H12415   8.843  10.527   3.084 -0.7095 -0.1925 -1.3148
   92MOL0     H12416   8.846  10.248   3.381 -1.1235  0.1717  1.8223
   92MOL0     H12417   8.909  10.797   2.738 -0.6683 -0.3965  0.5191
   92MOL0     H12418   9.090  10.968   2.465  0.3866  1.2028  2.0110
   92MOL0     H12419   9.095  10.833   2.585 -0.3434 -0.5487 -0.7871
   92MOL0     H12420   9.001  10.824   2.437  2.5614 -0.3147 -1.5399
   93MOL0     O12421   1.081   1.078  10.921 -0.4769 -0.3648  0.1809
   93MOL0     C12422   1.046   1.097  10.805 -0.3348 -0.3780  0.2985
   93MOL0     O12423   1.034   1.221  10.745  0.1469 -0.8304  0.2532
   93MOL0     C12424   1.021   1.337  10.819 -0.2148  0.0855 -0.1082
   93MOL0     C12425   0.930   1.432  10.767  1.5577  0.0339 -0.0983
   93MOL0     C12426   0.930   1.562  10.806  0.1832 -0.6656  0.9300
   93MOL0     C12427   1.004   1.607  10.914  0.1677 -0.2166 -0.4937
   93MOL0     O12428   1.017   1.736  10.949 -0.5870 -0.9622  0.0432
   93MOL0     C12429   0.914   1.828  10.925  0.1364 -0.4592 -0.0570
   93MOL0     C12430   0.932   1.930  11.044 -0.3919  0.3901 -1.0994
   93MOL0     C12431   0.840   2.047  11.011 -0.4137  0.8231 -0.6864
   93MOL0     C12432   0.691   2.011  11.008 -0.1301 -0.4049  0.2222
   93MOL0     C12433   0.616   2.083  10.896  0.7990  0.1357  0.4292
   93MOL0     C12434   0.583   2.224  10.949 -0.7190 -0.5600  0.7378
   93MOL0     C12435   0.696   2.332  10.933  0.0826 -0.0467  0.3018
   93MOL0     C12436   0.776   2.321  10.796  0.6887  1.2880  0.5669
   93MOL0     N12437   0.886   2.409  10.774  0.5578 -0.5180  0.3132
   93MOL0     C12438   0.875   2.529  10.706  0.3307 -0.7875 -0.0263
   93MOL0     C12439   1.007   2.563  10.703 -0.3259 -0.1767  0.1457
   93MOL0     C12440   1.041   2.684  10.622 -0.0589 -0.5478 -0.5827
   93MOL0     C12441   1.133   2.648  10.509 -0.3951  0.1681  0.8868
   93MOL0     C12442   1.052   2.578  10.408 -0.6449 -0.2043 -0.0013
   93MOL0     C12443   1.140   2.476  10.328  0.1728  0.0482 -0.4903
   93MOL0     O12444   1.057   2.379  10.261 -0.5130  0.1425 -0.1812
   93MOL0     C12445   1.013   2.272  10.326  0.6080 -0.1306  1.0106
   93MOL0     C12446   0.919   2.198  10.254 -0.0133 -0.1380 -0.1520
   93MOL0     C12447   0.855   2.091  10.316 -0.3716  0.1464 -0.5447
   93MOL0     C12448   0.880   2.049  10.450  0.1380  0.1269  0.5586
   93MOL0     C12449   0.818   1.929  10.501  0.4114  0.2981 -0.6199
   93MOL0     O12450   0.699   1.888  10.450  0.0144 -0.2713 -0.0940
   93MOL0     C12451   0.647   1.768  10.501  0.6369  0.0078  0.1112
   93MOL0     C12452   0.658   1.656  10.419 -0.2525  0.4751 -0.1689
   93MOL0     C12453   0.618   1.526  10.461 -0.2044  1.1304 -0.0386
   93MOL0     C12454   0.566   1.508  10.595 -0.2448 -0.3217  0.1768
   93MOL0     O12455   0.546   1.385  10.645  0.2647 -0.1532  0.6294
   93MOL0     C12456   0.558   1.341  10.776 -0.0917 -0.9583  1.0026
   93MOL0     C12457   0.462   1.217  10.773  0.7690 -0.0427  1.1320
   93MOL0     C12458   0.395   1.187  10.909 -0.3929 -0.1249 -0.0391
   93MOL0     C12459   0.316   1.059  10.916  0.2583 -0.4436 -0.6241
   93MOL0     C12460   0.179   1.074  10.856  0.6879 -0.8860 -0.1049
   93MOL0     C12461   0.108   0.941  10.849  0.4467  0.1268  0.1835
   93MOL0     C12462   0.005   0.938  10.733  0.3751 -1.5617  0.1275
   93MOL0     C12463  -0.077   0.806  10.719 -0.8864 -0.0909  0.0631
   93MOL0    Cl12464  -0.200   0.798  10.854 -0.0290  0.2086 -0.4014
   93MOL0     C12465   0.543   1.630  10.673 -0.8185  0.8956 -0.4305
   93MOL0     C12466   0.586   1.758  10.625  0.2101  0.4951  0.7772
   93MOL0     O12467   0.878   1.874  10.600  0.4298 -0.3338  0.7466
   93MOL0     C12468   0.970   2.126  10.517  0.1526  0.3485 -0.4230
   93MOL0     C12469   1.026   2.240  10.467  0.5781  0.1899 -0.7653
   93MOL0     N12470   1.086   2.468  10.764 -0.4422  0.2513  0.1539
   93MOL0     N12471   1.012   2.385  10.810  0.1861  0.0318  0.6654
   93MOL0     C12472   1.086   1.515  10.975 -0.2323  0.4223 -1.2298
   93MOL0     C12473   1.099   1.383  10.927 -1.0870 -0.6613 -0.4414
   93MOL0     C12474   1.020   0.986  10.718 -0.0869  0.9213  1.2168
   93MOL0     C12475   0.992   1.025  10.582 -0.0650 -0.0207 -0.1859
   93MOL0     C12476   0.977   0.926  10.480 -0.2618  0.3642  0.4072
   93MOL0     C12477   0.985   0.791  10.505  0.5954 -0.6660 -0.5400
   93MOL0     O12478   0.973   0.700  10.403  1.1664  0.1844  0.7525
   93MOL0     C12479   1.086   0.611  10.401 -0.1776  0.2966 -0.4761
   93MOL0     C12480   1.203   0.673  10.331 -0.0671  0.5685 -1.1126
   93MOL0     C12481   1.293   0.773  10.421  0.5397  0.0411  0.8072
   93MOL0     C12482   1.377   0.699  10.525  0.4463  0.1509 -0.7740
   93MOL0     C12483   1.481   0.602  10.465  1.0428 -1.0263  0.6290
   93MOL0     C12484   1.571   0.544  10.419 -0.1600  0.8239  0.3823
   93MOL0     C12485   1.007   0.754  10.636  0.0190 -0.5065  1.0942
   93MOL0     C12486   1.025   0.841  10.745  0.3512 -0.6165  0.5204
   93MOL0     C12487   1.053   0.782  10.877 -1.1504 -0.9576 -0.1726
   93MOL0     H12488   0.865   1.414  10.681  0.0645  0.3211  0.9332
   93MOL0     H12489   0.865   1.626  10.748 -0.0135 -0.9299  0.8581
   93MOL0     H12490   0.933   1.883  10.833 -0.8647  0.6627  0.3762
   93MOL0     H12491   0.815   1.783  10.933 -0.2570  0.6790  2.8393
   93MOL0     H12492   1.035   1.950  11.075 -1.0615 -0.0018  1.5646
   93MOL0     H12493   0.894   1.890  11.138 -0.0871 -0.1784 -1.2116
   93MOL0     H12494   0.892   2.084  10.922  3.0383 -1.2759  0.2723
   93MOL0     H12495   0.843   2.126  11.086 -2.1431  2.5595 -2.3191
   93MOL0     H12496   0.683   1.902  10.994 -0.0295 -0.1384 -2.2699
   93MOL0     H12497   0.648   2.037  11.105  3.8946  1.8124  1.6351
   93MOL0     H12498   0.669   2.087  10.800 -0.8609  4.0784 -0.5515
   93MOL0     H12499   0.522   2.036  10.867 -0.1443  3.5024 -2.7548
   93MOL0     H12500   0.513   2.270  10.879  1.9018  3.8002  0.6554
   93MOL0     H12501   0.538   2.223  11.048 -1.6291 -0.4808  0.3347
   93MOL0     H12502   0.768   2.322  11.015 -0.3016 -1.1920  0.5306
   93MOL0     H12503   0.643   2.426  10.949 -0.6058 -0.2415 -0.7888
   93MOL0     H12504   0.821   2.222  10.791 -1.0353  0.3866  1.8059
   93MOL0     H12505   0.708   2.333  10.711  1.3095  1.4260  0.0838
   93MOL0     H12506   0.784   2.580  10.678  0.6072  0.1657  0.7544
   93MOL0     H12507   0.956   2.740  10.581  0.1395 -1.1010 -1.7973
   93MOL0     H12508   1.089   2.760  10.685  1.1582  2.8993 -5.0995
   93MOL0     H12509   1.166   2.739  10.458 -1.0291  0.4825  1.0234
   93MOL0     H12510   1.226   2.604  10.547  0.8020  1.2481 -0.6398
   93MOL0     H12511   1.012   2.651  10.337  0.0164  0.4466  0.2860
   93MOL0     H12512   0.970   2.519  10.450 -0.3367  0.0525  0.9832
   93MOL0     H12513   1.204   2.415  10.392  0.0818  0.5406  0.0690
   93MOL0     H12514   1.203   2.522  10.251  0.3116 -0.3222 -0.6042
   93MOL0     H12515   0.893   2.232  10.154 -1.9016 -1.6866 -0.2356
   93MOL0     H12516   0.792   2.035  10.247 -0.9577 -2.0978  1.6903
   93MOL0     H12517   0.714   1.659  10.326  3.6912 -3.7272  1.6985
   93MOL0     H12518   0.635   1.448  10.388 -2.7197  2.7238 -2.5458
   93MOL0     H12519   0.662   1.317  10.798  0.6063  0.7786 -0.1941
   93MOL0     H12520   0.532   1.424  10.844  6.0912  1.6656  0.8027
   93MOL0     H12521   0.379   1.245  10.707  0.2166 -0.0891  1.7933
   93MOL0     H12522   0.501   1.120  10.739 -0.4934 -1.1455  2.6895
   93MOL0     H12523   0.474   1.178  10.984 -1.2238  2.0665  1.2189
   93MOL0     H12524   0.336   1.275  10.938 -1.4228 -0.8605  0.1424
   93MOL0     H12525   0.296   1.023  11.017 -1.1970  2.3962  0.2078
   93MOL0     H12526   0.370   0.982  10.860  0.3596 -0.9770  0.1995
   93MOL0     H12527   0.188   1.108  10.753  2.3435  0.0281  0.3070
   93MOL0     H12528   0.119   1.147  10.912 -0.9500 -0.1561 -2.6465
   93MOL0     H12529   0.190   0.874  10.822  2.6064  2.6173  0.1950
   93MOL0     H12530   0.069   0.908  10.946  3.1958 -1.5303  0.8605
   93MOL0     H12531   0.052   0.943  10.635 -1.7643 -0.1476 -0.9076
   93MOL0     H12532  -0.065   1.020  10.752  1.1639 -0.9791  0.6210
   93MOL0     H12533  -0.121   0.804  10.619 -3.1477  3.1029  0.8646
   93MOL0     H12534   0.005   0.734  10.731  0.0636  1.3541  3.4453
   93MOL0     H12535   0.500   1.621  10.773 -1.0419 -0.0086 -0.5924
   93MOL0     H12536   0.577   1.847  10.686  1.1020  0.4274  1.0360
   93MOL0     H12537   0.992   2.105  10.621  5.0070  0.2309 -1.2271
   93MOL0     H12538   1.074   2.291  10.550  2.1237  0.7935 -1.9860
   93MOL0     H12539   1.160   1.547  11.048  1.2137 -1.2799 -1.8814
   93MOL0     H12540   1.181   1.325  10.967 -0.4701  0.4287 -0.0690
   93MOL0     H12541   0.983   1.124  10.540  0.5532 -0.1991 -0.7701
   93MOL0     H12542   0.951   0.949  10.378  0.3345 -0.7238 -0.0157
   93MOL0     H12543   1.058   0.526  10.337 -2.6552  2.2930 -2.2672
   93MOL0     H12544   1.117   0.569  10.496  0.3251 -0.5100 -0.9860
   93MOL0     H12545   1.172   0.725  10.240 -1.8422  2.8637  0.6510
   93MOL0     H12546   1.275   0.601  10.292  0.5333 -0.5380  1.7706
   93MOL0     H12547   1.220   0.839  10.469 -0.1512 -1.1532  1.4663
   93MOL0     H12548   1.360   0.817  10.347 -1.3279 -1.1132 -1.7287
   93MOL0     H12549   1.435   0.770  10.586 -0.1819  0.1581 -0.1719
   93MOL0     H12550   1.309   0.646  10.592 -2.8582  1.1283 -3.1010
   93MOL0     H12551   1.650   0.496  10.366 -1.6044  0.3639 -1.4646
   93MOL0     H12552   1.022   0.648  10.651  0.0313 -0.8153 -0.8290
   93MOL0     H12553   1.160   0.800  10.889 -1.7898  2.3447  1.7818
   93MOL0     H12554   0.987   0.831  10.950  0.0050  3.9393 -1.9942
   93MOL0     H12555   1.043   0.674  10.869 -1.9623 -0.8782 -0.3083
   94MOL0     O12556   6.661   6.244   1.494 -0.3397 -0.5591 -0.7393
   94MOL0     C12557   6.634   6.366   1.475  0.5804  0.3195  0.0529
   94MOL0     O12558   6.722   6.462   1.485 -1.1018 -0.3373  0.1299
   94MOL0     C12559   6.861   6.444   1.464  0.5296 -0.0713  0.1976
   94MOL0     C12560   6.915   6.406   1.350 -0.9832 -0.0318  0.1573
   94MOL0     C12561   7.053   6.421   1.333  1.0454  0.3604  0.4549
   94MOL0     C12562   7.138   6.464   1.431 -0.6970 -0.6409  0.1583
   94MOL0     O12563   7.274   6.463   1.400  0.4416  0.0390 -0.9340
   94MOL0     C12564   7.370   6.516   1.498 -0.3977  0.2748  0.3443
   94MOL0     C12565   7.497   6.526   1.418  0.5865  0.6252  0.8028
   94MOL0     C12566   7.616   6.567   1.502 -0.2533 -0.1340 -0.1419
   94MOL0     C12567   7.604   6.710   1.548 -0.2838 -0.3773  0.0912
   94MOL0     C12568   7.744   6.750   1.622  0.2005 -0.6681 -0.9681
   94MOL0     C12569   7.820   6.641   1.702 -0.4573 -0.4228 -0.5041
   94MOL0     C12570   7.939   6.724   1.768 -0.8434 -0.5120  0.3544
   94MOL0     C12571   7.908   6.788   1.905 -1.0375 -0.0222 -0.5243
   94MOL0     N12572   8.026   6.850   1.960 -0.0454 -0.3346 -0.7938
   94MOL0     C12573   8.152   6.798   1.954 -0.8751 -0.1907 -0.2601
   94MOL0     C12574   8.230   6.895   2.012  0.2583  0.3115  0.4183
   94MOL0     C12575   8.376   6.886   2.054  0.1585  0.1141 -0.0479
   94MOL0     C12576   8.409   6.805   2.176 -0.0766  0.3126  0.1164
   94MOL0     C12577   8.374   6.877   2.305 -1.3315  0.0328 -0.1785
   94MOL0     C12578   8.492   6.873   2.410  0.2581  0.0004  0.9991
   94MOL0     O12579   8.449   6.920   2.536  0.3450  0.3256 -0.4603
   94MOL0     C12580   8.549   6.919   2.636 -0.1081  0.1590  0.4528
   94MOL0     C12581   8.525   6.992   2.754 -0.0239 -0.7380  0.9451
   94MOL0     C12582   8.608   6.991   2.855 -0.4072  0.0097  0.0620
   94MOL0     C12583   8.736   6.937   2.844 -0.5663  0.1316 -0.0284
   94MOL0     C12584   8.843   6.959   2.949 -0.4225  0.0533  0.3319
   94MOL0     O12585   8.812   7.010   3.067  0.5381  0.1000  0.0314
   94MOL0     C12586   8.903   7.026   3.178  0.8149 -0.2323  0.0586
   94MOL0     C12587   9.034   7.075   3.158 -0.0478 -0.3029  0.2666
   94MOL0     C12588   9.125   7.085   3.262  0.1402 -0.2346  1.2534
   94MOL0     C12589   9.096   7.032   3.394  0.1683 -0.3181 -0.2276
   94MOL0     O12590   9.187   7.037   3.500  0.5239 -0.0950  0.2245
   94MOL0     C12591   9.320   7.086   3.480 -0.1748  0.3751 -0.3423
   94MOL0     C12592   9.397   6.968   3.419 -0.1271  1.0003  0.0786
   94MOL0     C12593   9.524   7.010   3.351 -0.3112 -0.0644 -0.3596
   94MOL0     C12594   9.623   6.895   3.326  0.1775  0.1414 -0.1806
   94MOL0     C12595   9.752   6.957   3.273  0.5456 -0.5627  1.2314
   94MOL0     C12596   9.861   6.853   3.275  0.5550 -0.6855 -0.2371
   94MOL0     C12597   9.981   6.920   3.217  0.1313  0.4711  0.6015
   94MOL0     C12598  10.075   6.805   3.193  0.2320  1.0530  0.3365
   94MOL0    Cl12599  10.084   6.766   3.016 -0.6342  0.1001  0.6107
   94MOL0     C12600   8.969   6.988   3.409  0.2066  1.0777  0.3347
   94MOL0     C12601   8.872   6.995   3.310  0.0223 -0.0426  0.5711
   94MOL0     O12602   8.958   6.922   2.922  0.6882 -0.1901 -0.1467
   94MOL0     C12603   8.769   6.869   2.729 -0.2974 -0.5071  0.3781
   94MOL0     C12604   8.675   6.858   2.618 -0.3961  0.6252 -0.2620
   94MOL0     N12605   8.151   7.006   2.044  0.2427  0.2856 -0.0348
   94MOL0     N12606   8.032   6.978   2.003  0.0341 -0.1941 -0.1920
   94MOL0     C12607   7.084   6.500   1.553 -0.0831 -0.0613 -0.3480
   94MOL0     C12608   6.946   6.480   1.571 -0.2953  0.4504 -0.3646
   94MOL0     C12609   6.493   6.404   1.462  0.4763 -0.3232 -0.3464
   94MOL0     C12610   6.468   6.543   1.468  0.5053 -0.2984 -0.5879
   94MOL0     C12611   6.334   6.586   1.464  0.2268 -0.0797 -0.4216
   94MOL0     C12612   6.225   6.501   1.451  0.2126 -0.0248 -0.4733
   94MOL0     O12613   6.099   6.561   1.425  0.7567  0.0303 -0.2155
   94MOL0     C12614   6.058   6.660   1.526  0.6195  0.7002  0.2404
   94MOL0     C12615   5.959   6.573   1.619  0.2772  0.0262  0.0801
   94MOL0     C12616   5.827   6.545   1.562 -0.3015  1.1252 -0.1838
   94MOL0     C12617   5.727   6.501   1.665  0.5283 -0.4906  0.1822
   94MOL0     C12618   5.668   6.622   1.731 -0.8117 -0.1452 -0.0113
   94MOL0     C12619   5.645   6.723   1.789  0.2537  0.4526 -0.8796
   94MOL0     C12620   6.255   6.363   1.451  0.7851  0.1447  0.0431
   94MOL0     C12621   6.389   6.310   1.458  0.2550  0.2668 -0.9309
   94MOL0     C12622   6.397   6.166   1.461 -0.0622  1.3549 -0.4609
   94MOL0     H12623   6.852   6.361   1.274 -0.2361 -1.1029  0.1393
   94MOL0     H12624   7.096   6.389   1.239 -0.7360 -1.2492  0.1508
   94MOL0     H12625   7.339   6.613   1.539  3.0050  1.3126  0.7579
   94MOL0     H12626   7.383   6.435   1.571  0.3769 -2.5832 -2.7135
   94MOL0     H12627   7.489   6.601   1.337  3.1754  0.1749  0.0568
   94MOL0     H12628   7.526   6.436   1.364  0.7076  1.2090 -0.1366
   94MOL0     H12629   7.705   6.558   1.439  2.0086 -0.4736  2.8878
   94MOL0     H12630   7.631   6.505   1.590  0.1440 -2.6986 -1.8901
   94MOL0     H12631   7.587   6.779   1.465 -1.9005  2.4138  2.5609
   94MOL0     H12632   7.513   6.708   1.610 -0.5588 -1.6564 -0.3083
   94MOL0     H12633   7.812   6.792   1.547 -0.1478 -2.5018 -2.3761
   94MOL0     H12634   7.718   6.839   1.680  1.1682 -1.2319  0.3943
   94MOL0     H12635   7.748   6.596   1.771  0.1328  0.6035  0.8223
   94MOL0     H12636   7.863   6.570   1.631 -0.0615  0.3167 -1.0120
   94MOL0     H12637   7.981   6.797   1.697  0.6494 -2.7289 -1.1592
   94MOL0     H12638   8.021   6.655   1.789 -0.7782 -0.1355  1.3783
   94MOL0     H12639   7.855   6.882   1.890  0.1678  0.8480  0.4109
   94MOL0     H12640   7.843   6.732   1.972 -1.3988  0.9102 -0.0736
   94MOL0     H12641   8.178   6.697   1.923 -3.9313 -0.4028 -2.6091
   94MOL0     H12642   8.419   6.824   1.975  0.2084 -0.5649  0.5052
   94MOL0     H12643   8.423   6.984   2.069  1.8578 -0.4829 -1.1601
   94MOL0     H12644   8.343   6.718   2.176 -1.2089  1.1284 -0.4933
   94MOL0     H12645   8.517   6.791   2.171 -0.3726 -1.7061 -1.9870
   94MOL0     H12646   8.287   6.827   2.348 -1.1005 -1.7448 -1.6690
   94MOL0     H12647   8.348   6.981   2.284 -0.9966 -0.0039 -0.8000
   94MOL0     H12648   8.583   6.927   2.383  2.4261 -3.2168  1.3345
   94MOL0     H12649   8.507   6.765   2.407 -1.3113 -0.3192  2.7308
   94MOL0     H12650   8.436   7.054   2.764  0.6855  0.2561  1.2740
   94MOL0     H12651   8.590   7.058   2.938  0.5731  2.6934 -1.7366
   94MOL0     H12652   9.058   7.121   3.063 -3.4498 -0.2756 -0.6953
   94MOL0     H12653   9.220   7.131   3.235  0.7787 -1.2123  1.7858
   94MOL0     H12654   9.313   7.176   3.417  1.4881 -0.2966 -1.5352
   94MOL0     H12655   9.351   7.100   3.584 -2.9479 -3.8201  1.3414
   94MOL0     H12656   9.424   6.907   3.506 -2.9188 -0.2175  0.2219
   94MOL0     H12657   9.327   6.914   3.354  2.5813 -1.1215 -1.2741
   94MOL0     H12658   9.487   7.061   3.261 -2.2305  3.1552  2.0566
   94MOL0     H12659   9.577   7.088   3.406 -1.1389 -0.2978  0.8072
   94MOL0     H12660   9.579   6.820   3.259 -1.7577  1.9225 -0.9838
   94MOL0     H12661   9.655   6.859   3.424  1.0328  1.1670 -0.0712
   94MOL0     H12662   9.789   7.039   3.335 -0.2279  0.4416  0.4289
   94MOL0     H12663   9.730   6.996   3.173 -0.1508 -0.1304  1.5440
   94MOL0     H12664   9.874   6.824   3.380  1.7702 -3.6162 -1.1137
   94MOL0     H12665   9.839   6.756   3.230 -1.6448 -0.8396  1.0026
   94MOL0     H12666  10.032   6.983   3.290  0.8709  1.0582 -0.3829
   94MOL0     H12667   9.961   6.972   3.122 -1.7021 -3.0377 -1.1175
   94MOL0     H12668  10.176   6.835   3.225 -0.7838  2.4671  2.4974
   94MOL0     H12669  10.057   6.722   3.262 -2.0631  3.0736  2.3312
   94MOL0     H12670   8.952   6.958   3.512 -3.1909 -0.3902 -0.4925
   94MOL0     H12671   8.769   6.981   3.339  0.0874  0.0336  0.8486
   94MOL0     H12672   8.863   6.821   2.705  0.4051  1.6343 -1.4280
   94MOL0     H12673   8.697   6.789   2.537 -2.8255 -0.1978 -0.3205
   94MOL0     H12674   7.142   6.521   1.642  0.0057 -2.8276  0.3403
   94MOL0     H12675   6.899   6.513   1.663  0.6595  2.6345 -0.5878
   94MOL0     H12676   6.553   6.609   1.478  1.7125 -1.9076  0.3124
   94MOL0     H12677   6.312   6.687   1.432  0.8472 -0.7927 -3.3880
   94MOL0     H12678   5.998   6.736   1.474 -0.2340 -0.5300 -0.6155
   94MOL0     H12679   6.144   6.695   1.583  3.2857 -3.5455 -0.7318
   94MOL0     H12680   5.940   6.637   1.706  1.6238  2.1685 -1.1115
   94MOL0     H12681   6.004   6.482   1.660 -0.7267  1.6203  5.5806
   94MOL0     H12682   5.846   6.469   1.486 -0.1500  1.4373 -0.4596
   94MOL0     H12683   5.804   6.647   1.530  1.0397  1.1349 -1.1749
   94MOL0     H12684   5.646   6.454   1.609  0.8779 -1.8687  0.7807
   94MOL0     H12685   5.764   6.421   1.730  1.0373  0.1016  0.6304
   94MOL0     H12686   5.621   6.809   1.848  0.6221 -1.4727  2.3406
   94MOL0     H12687   6.171   6.296   1.444  0.8668  0.1708 -1.4859
   94MOL0     H12688   6.445   6.133   1.553 -0.7288  1.4348 -0.0800
   94MOL0     H12689   6.290   6.141   1.453 -0.0627  0.8001  0.9805
   94MOL0     H12690   6.455   6.136   1.373 -2.7367  5.7240 -4.1904
   95MOL0     O12691   1.475   0.006  10.837 -0.1584  0.1375  0.0088
   95MOL0     C12692   1.386  -0.076  10.869  0.7483 -1.0214  0.2550
   95MOL0     O12693   1.337  -0.105  10.993 -0.1065 -0.0020  0.2133
   95MOL0     C12694   1.372  -0.022  11.097 -0.4966  0.3969  0.7215
   95MOL0     C12695   1.490  -0.035  11.158  0.3437  0.7052 -0.6560
   95MOL0     C12696   1.512   0.054  11.263 -0.8207 -0.4690 -0.1605
   95MOL0     C12697   1.434   0.162  11.299  0.1587  0.1067 -0.8025
   95MOL0     O12698   1.474   0.248  11.404 -1.1202  0.6535 -0.5956
   95MOL0     C12699   1.401   0.365  11.442 -0.5296  0.6278 -0.4095
   95MOL0     C12700   1.412   0.478  11.350  0.4179  0.4740 -0.2438
   95MOL0     C12701   1.315   0.602  11.361  0.5083 -0.5234  0.4392
   95MOL0     C12702   1.220   0.603  11.243  0.9183  0.0660  0.8618
   95MOL0     C12703   1.129   0.729  11.251 -0.2422  0.0940  0.2165
   95MOL0     C12704   1.181   0.870  11.212  0.4190 -1.1560  0.5948
   95MOL0     C12705   1.105   0.981  11.286 -0.5546 -0.8790  0.2994
   95MOL0     C12706   0.951   0.971  11.266 -0.8380 -0.4547 -0.5415
   95MOL0     N12707   0.874   1.094  11.273  0.4098  0.2346 -0.2788
   95MOL0     C12708   0.897   1.208  11.209  0.3696 -0.0623 -1.0225
   95MOL0     C12709   0.789   1.285  11.258 -0.2873 -0.5970  0.7150
   95MOL0     C12710   0.767   1.424  11.212 -0.4213  0.3788  0.2516
   95MOL0     C12711   0.705   1.433  11.073  0.2040 -0.1620 -0.1968
   95MOL0     C12712   0.663   1.586  11.056  1.2257 -0.3693 -0.7325
   95MOL0     C12713   0.526   1.619  11.125 -0.4844  0.6942 -0.1712
   95MOL0     O12714   0.487   1.740  11.069  1.1476 -0.1456  0.0698
   95MOL0     C12715   0.356   1.767  11.106  1.1156  1.1269 -0.2117
   95MOL0     C12716   0.295   1.743  11.230 -0.0978 -0.0197  0.2984
   95MOL0     C12717   0.175   1.793  11.263  0.2884 -0.2810 -0.8535
   95MOL0     C12718   0.092   1.864  11.178 -0.1860 -0.3108  0.8600
   95MOL0     C12719  -0.038   1.925  11.206 -0.4199  0.4311 -0.4111
   95MOL0     O12720  -0.103   1.978  11.090 -0.1258  0.5627  0.5430
   95MOL0     C12721  -0.165   2.094  11.125  0.7224  0.7930 -0.1820
   95MOL0     C12722  -0.129   2.224  11.089 -0.3045 -0.2548  1.1835
   95MOL0     C12723  -0.185   2.343  11.145 -0.0026 -0.3023  0.0756
   95MOL0     C12724  -0.300   2.328  11.225 -0.3968 -0.1221 -0.6454
   95MOL0     O12725  -0.341   2.443  11.287 -0.5336 -0.0137 -0.4313
   95MOL0     C12726  -0.483   2.444  11.320 -0.4766 -0.0524  0.0364
   95MOL0     C12727  -0.520   2.385  11.455 -0.5309 -0.0556  0.6377
   95MOL0     C12728  -0.447   2.461  11.564 -0.3079  0.2978 -0.2987
   95MOL0     C12729  -0.377   2.374  11.660  0.3974  0.5682 -0.2484
   95MOL0     C12730  -0.479   2.280  11.732  0.6907  0.5487 -0.3655
   95MOL0     C12731  -0.408   2.194  11.825  0.7143  0.3692 -0.0396
   95MOL0     C12732  -0.405   2.262  11.964 -1.1360 -0.5549 -0.5668
   95MOL0     C12733  -0.398   2.161  12.077 -0.4941 -0.2939 -0.3871
   95MOL0    Cl12734  -0.577   2.122  12.104 -0.4635 -0.4974  0.3926
   95MOL0     C12735  -0.347   2.206  11.246 -0.3158  0.9356 -0.2751
   95MOL0     C12736  -0.283   2.091  11.196 -1.2135 -0.0840  0.1648
   95MOL0     O12737  -0.073   1.933  11.322  0.0989  0.5188  0.6193
   95MOL0     C12738   0.146   1.877  11.047 -0.0456 -0.0920 -0.9188
   95MOL0     C12739   0.280   1.841  11.016  0.1174  0.7847  0.7996
   95MOL0     N12740   0.716   1.208  11.352 -0.3851 -0.9620  0.1797
   95MOL0     N12741   0.766   1.094  11.353  0.1007 -0.4702  0.2542
   95MOL0     C12742   1.312   0.163  11.233  0.2015 -0.8554 -0.6191
   95MOL0     C12743   1.276   0.081  11.137 -0.1932  0.7047  0.1469
   95MOL0     C12744   1.337  -0.153  10.748 -0.6559  0.8920  0.2513
   95MOL0     C12745   1.319  -0.078  10.623  0.0160  0.0643 -0.1543
   95MOL0     C12746   1.275  -0.152  10.509  1.1108 -0.3598 -0.1981
   95MOL0     C12747   1.243  -0.287  10.512 -0.3133 -0.5009 -0.0373
   95MOL0     O12748   1.189  -0.361  10.408  0.1927  0.1621 -0.1945
   95MOL0     C12749   1.215  -0.306  10.276  0.4066 -0.2699 -0.2194
   95MOL0     C12750   1.233  -0.428  10.187  0.5724 -0.1313 -0.4519
   95MOL0     C12751   1.382  -0.454  10.163 -0.0570  0.5909 -0.2000
   95MOL0     C12752   1.448  -0.537  10.278 -0.5184  0.0154 -0.0183
   95MOL0     C12753   1.597  -0.567  10.258  0.8333 -0.0942  0.3478
   95MOL0     C12754   1.702  -0.603  10.212 -0.0423  0.3684 -0.0922
   95MOL0     C12755   1.258  -0.349  10.630  0.7323  0.4535 -0.5907
   95MOL0     C12756   1.296  -0.283  10.751  0.5553  0.1770 -0.5008
   95MOL0     C12757   1.278  -0.357  10.884 -0.0076  1.1763 -0.3055
   95MOL0     H12758   1.557  -0.103  11.106 -1.5472  0.4434 -2.9731
   95MOL0     H12759   1.609   0.048  11.310 -0.5604  0.3461 -0.5773
   95MOL0     H12760   1.295   0.344  11.460 -0.7460  0.4238 -1.8421
   95MOL0     H12761   1.442   0.400  11.537  0.1851 -0.5727 -0.2671
   95MOL0     H12762   1.413   0.443  11.246  1.8378  1.2823 -0.5219
   95MOL0     H12763   1.511   0.516  11.375  1.4324  0.1560 -3.3584
   95MOL0     H12764   1.350   0.704  11.374 -2.5138  0.4686  1.6979
   95MOL0     H12765   1.255   0.582  11.450 -1.5703 -2.0903 -1.2075
   95MOL0     H12766   1.250   0.606  11.138 -2.9513  0.2748 -0.4213
   95MOL0     H12767   1.150   0.519  11.250  0.9031  0.1291  1.5660
   95MOL0     H12768   1.044   0.695  11.191  0.3748  0.4401 -0.8772
   95MOL0     H12769   1.088   0.730  11.353 -1.5192 -1.1257 -0.2467
   95MOL0     H12770   1.289   0.865  11.226  0.5524  1.6998  1.3545
   95MOL0     H12771   1.165   0.879  11.104 -0.9431 -1.7268  0.7252
   95MOL0     H12772   1.136   1.072  11.234 -0.4633 -1.1701 -0.1643
   95MOL0     H12773   1.137   0.982  11.391  2.4948 -1.8203 -0.5004
   95MOL0     H12774   0.927   0.937  11.165 -2.4080 -4.7515  1.0539
   95MOL0     H12775   0.917   0.889  11.330  2.0324 -1.0430  0.3805
   95MOL0     H12776   0.969   1.222  11.129 -0.2822  1.3186 -1.3928
   95MOL0     H12777   0.706   1.474  11.287  1.2742  0.8317  1.3779
   95MOL0     H12778   0.861   1.479  11.212 -0.1026 -0.1503  0.9670
   95MOL0     H12779   0.789   1.407  11.007  1.6769  2.1124  0.6412
   95MOL0     H12780   0.631   1.357  11.047 -0.3347  0.6508 -1.0914
   95MOL0     H12781   0.655   1.618  10.951  3.3310  0.4184 -0.7038
   95MOL0     H12782   0.739   1.646  11.107  0.2653  0.8442 -0.6973
   95MOL0     H12783   0.531   1.633  11.234 -4.2058 -1.3052  0.4279
   95MOL0     H12784   0.456   1.537  11.108 -2.4317  1.6649  2.3876
   95MOL0     H12785   0.356   1.712  11.315  1.3450  1.7859 -0.0206
   95MOL0     H12786   0.143   1.777  11.366  0.7840  0.4277 -0.5860
   95MOL0     H12787  -0.038   2.237  11.030  0.9380 -0.4756  2.9776
   95MOL0     H12788  -0.136   2.438  11.127  0.0668 -0.0792  1.3307
   95MOL0     H12789  -0.519   2.547  11.316 -0.9876 -0.2356 -0.2315
   95MOL0     H12790  -0.538   2.391  11.241  0.0019  0.5555 -0.7212
   95MOL0     H12791  -0.624   2.414  11.477 -0.2252  0.2386  1.7286
   95MOL0     H12792  -0.523   2.276  11.453  3.6093 -0.3047 -1.4677
   95MOL0     H12793  -0.374   2.530  11.519 -0.0995 -1.1304 -2.3073
   95MOL0     H12794  -0.510   2.527  11.624 -5.3145 -0.8048 -3.6760
   95MOL0     H12795  -0.334   2.443  11.733  1.4513 -1.8780  1.5531
   95MOL0     H12796  -0.294   2.321  11.615  0.5565  1.7331 -1.3749
   95MOL0     H12797  -0.532   2.224  11.654 -1.1251  1.4242  0.1654
   95MOL0     H12798  -0.567   2.327  11.778 -0.7011 -3.1094  1.0767
   95MOL0     H12799  -0.468   2.102  11.824  2.4065 -0.9186 -4.0803
   95MOL0     H12800  -0.317   2.165  11.772 -2.0499 -0.9397 -4.6551
   95MOL0     H12801  -0.486   2.333  11.980  0.4012  1.1591 -0.0159
   95MOL0     H12802  -0.313   2.319  11.948 -1.2413  0.8216  3.0038
   95MOL0     H12803  -0.337   2.076  12.048  0.1521  0.3321 -0.9192
   95MOL0     H12804  -0.349   2.199  12.167  2.0988 -2.6935 -0.6682
   95MOL0     H12805  -0.407   2.180  11.332  2.3260 -2.3295  0.8061
   95MOL0     H12806  -0.313   1.992  11.230 -2.8526  1.7876  5.0847
   95MOL0     H12807   0.106   1.938  10.967 -0.3332 -1.4731 -1.8649
   95MOL0     H12808   0.318   1.870  10.919 -1.0430  4.0028  1.1608
   95MOL0     H12809   1.232   0.232  11.257  0.8460 -0.4382  0.4160
   95MOL0     H12810   1.180   0.085  11.087  0.5204 -0.3546 -1.4089
   95MOL0     H12811   1.364   0.020  10.611  0.8805 -0.6996 -6.2214
   95MOL0     H12812   1.271  -0.086  10.423  0.7525  1.0619  0.8741
   95MOL0     H12813   1.297  -0.234  10.279  1.0349 -0.7903 -2.4652
   95MOL0     H12814   1.128  -0.250  10.238  0.3131 -0.3691 -0.1532
   95MOL0     H12815   1.196  -0.406  10.086 -0.0526  0.5800 -0.0738
   95MOL0     H12816   1.184  -0.521  10.219  2.3873 -0.2428  2.3052
   95MOL0     H12817   1.431  -0.356  10.165 -0.6091  0.9072  2.9330
   95MOL0     H12818   1.402  -0.517  10.076  4.7965 -1.1398  1.8698
   95MOL0     H12819   1.441  -0.486  10.375 -0.2652 -1.2402  0.6772
   95MOL0     H12820   1.380  -0.622  10.286 -2.9311  1.6023 -2.0993
   95MOL0     H12821   1.792  -0.635  10.165 -1.4719 -2.3350 -1.1953
   95MOL0     H12822   1.237  -0.455  10.630  0.7496  0.4496 -0.6436
   95MOL0     H12823   1.359  -0.346  10.957  0.3695 -0.3671 -0.4663
   95MOL0     H12824   1.188  -0.323  10.937 -1.3086 -0.2750 -1.4887
   95MOL0     H12825   1.273  -0.465  10.868  3.2206  1.0086 -0.8565
   96MOL0     O12826   3.430   7.254   5.719  0.1365 -0.1795 -0.2255
   96MOL0     C12827   3.525   7.336   5.712 -0.2111  0.8035  0.0034
   96MOL0     O12828   3.521   7.471   5.751  0.4444  0.6456 -0.7676
   96MOL0     C12829   3.433   7.498   5.863 -0.7586  0.5907  0.0260
   96MOL0     C12830   3.494   7.467   5.985  0.6484 -0.2073 -0.2441
   96MOL0     C12831   3.413   7.477   6.100 -0.0168  0.9106  0.3710
   96MOL0     C12832   3.289   7.530   6.091  0.6939 -0.2994 -0.1193
   96MOL0     O12833   3.202   7.549   6.198  0.5759  0.8110  0.4271
   96MOL0     C12834   3.221   7.480   6.324 -0.1432 -0.0798  0.2768
   96MOL0     C12835   3.281   7.577   6.430 -0.5137  0.9163 -0.4855
   96MOL0     C12836   3.176   7.686   6.466 -0.2004  0.2669  0.6992
   96MOL0     C12837   3.255   7.798   6.543  0.0217  0.1317 -0.0142
   96MOL0     C12838   3.180   7.924   6.553 -0.1860 -0.3940  0.8844
   96MOL0     C12839   3.261   8.037   6.631  0.6338 -0.3997  0.4210
   96MOL0     C12840   3.207   8.182   6.627 -0.3503 -0.6116  0.2086
   96MOL0     C12841   3.062   8.192   6.664 -0.7207  0.4565 -0.1015
   96MOL0     N12842   3.009   8.316   6.707 -0.8866 -0.0885  0.0190
   96MOL0     C12843   2.938   8.394   6.624  0.1152  0.7057  0.2744
   96MOL0     C12844   2.937   8.509   6.691 -0.1846  1.6572 -0.7735
   96MOL0     C12845   2.874   8.647   6.667 -0.7731  0.4392  0.5895
   96MOL0     C12846   2.778   8.634   6.536  0.4979  0.8616  0.2870
   96MOL0     C12847   2.719   8.769   6.514  0.0631 -0.3711 -0.4510
   96MOL0     C12848   2.587   8.761   6.442  0.1264 -0.5562  0.1185
   96MOL0     O12849   2.518   8.887   6.458 -0.4925  0.1150 -0.1584
   96MOL0     C12850   2.420   8.894   6.562 -0.8352 -0.1148  0.5892
   96MOL0     C12851   2.441   8.983   6.668 -0.9095  0.7940  0.4913
   96MOL0     C12852   2.335   9.009   6.764 -0.5609 -0.0453  0.2154
   96MOL0     C12853   2.210   8.941   6.762 -1.2190  0.4444  1.3293
   96MOL0     C12854   2.103   8.966   6.860  0.4374  0.5098  0.7965
   96MOL0     O12855   2.129   9.053   6.958  0.3499  0.4024 -0.6436
   96MOL0     C12856   2.037   9.073   7.058 -0.0152  0.7734  1.8313
   96MOL0     C12857   1.925   9.153   7.009  0.8053  0.6647  0.3939
   96MOL0     C12858   1.815   9.172   7.089 -0.4151  0.7346  1.1186
   96MOL0     C12859   1.812   9.122   7.223 -0.9478  0.0824  0.6617
   96MOL0     O12860   1.700   9.135   7.293 -0.2938 -1.1317  0.5236
   96MOL0     C12861   1.706   9.245   7.390  0.0538  0.2086  0.3480
   96MOL0     C12862   1.574   9.318   7.421  0.3128  0.0902 -0.4237
   96MOL0     C12863   1.518   9.406   7.311  1.0742 -0.6763  0.2225
   96MOL0     C12864   1.586   9.542   7.311  0.3329  0.5947  0.5000
   96MOL0     C12865   1.520   9.641   7.208 -0.3202  0.1045  0.7754
   96MOL0     C12866   1.536   9.587   7.068 -0.1057 -1.7086 -0.2326
   96MOL0     C12867   1.683   9.558   7.021 -0.8103 -0.7100 -0.4929
   96MOL0     C12868   1.697   9.549   6.860 -0.8225 -0.4824 -0.5269
   96MOL0    Cl12869   1.838   9.449   6.794  0.1984  0.0727 -0.2933
   96MOL0     C12870   1.917   9.043   7.273 -0.8262  0.2074  0.2632
   96MOL0     C12871   2.030   9.010   7.184  0.2718  0.1540  0.1752
   96MOL0     O12872   2.000   8.905   6.837 -0.0143  0.1370 -0.5623
   96MOL0     C12873   2.197   8.861   6.650 -0.3303 -0.1901 -0.4425
   96MOL0     C12874   2.298   8.829   6.555 -0.4727 -0.0893 -0.5046
   96MOL0     N12875   2.997   8.489   6.813  1.1015  0.3771 -0.4756
   96MOL0     N12876   3.047   8.375   6.819  0.2202  0.2259 -0.4951
   96MOL0     C12877   3.237   7.572   5.964 -0.6838 -0.9551  0.6838
   96MOL0     C12878   3.309   7.549   5.849  1.1407 -0.4745 -0.8678
   96MOL0     C12879   3.655   7.297   5.630 -0.1492 -0.6488 -0.2596
   96MOL0     C12880   3.751   7.396   5.602  0.0889 -0.6706 -0.3287
   96MOL0     C12881   3.867   7.372   5.529 -0.2469  0.1852 -0.2669
   96MOL0     C12882   3.891   7.246   5.471 -0.7833  0.2562 -0.7576
   96MOL0     O12883   4.011   7.205   5.405  0.2800 -0.3320 -0.4861
   96MOL0     C12884   4.036   7.291   5.295  0.5637 -0.2329  0.0839
   96MOL0     C12885   4.075   7.218   5.161 -0.1425 -0.2760  0.0688
   96MOL0     C12886   4.207   7.138   5.188  0.8727 -0.3662 -0.0637
   96MOL0     C12887   4.229   6.998   5.128  0.2907 -0.3529 -0.2908
   96MOL0     C12888   4.226   6.996   4.986  0.0833 -1.1563  0.3396
   96MOL0     C12889   4.220   6.995   4.862 -0.4695  0.0786 -0.1616
   96MOL0     C12890   3.797   7.147   5.495 -0.3794  0.2484  0.7172
   96MOL0     C12891   3.685   7.167   5.584 -0.5191 -0.9049  0.4142
   96MOL0     C12892   3.594   7.055   5.603  0.0348  0.3933 -0.4413
   96MOL0     H12893   3.596   7.433   5.998  0.9422 -0.1816 -2.2328
   96MOL0     H12894   3.454   7.464   6.200  1.2516 -0.9056 -0.3367
   96MOL0     H12895   3.121   7.442   6.349  0.5942 -4.0247 -1.9175
   96MOL0     H12896   3.288   7.394   6.319 -0.1153 -0.2116  2.1603
   96MOL0     H12897   3.369   7.625   6.386 -0.7277 -1.4741 -3.9177
   96MOL0     H12898   3.313   7.513   6.514 -0.0247  0.0352 -1.3284
   96MOL0     H12899   3.099   7.642   6.531  1.0588  0.0632  2.1297
   96MOL0     H12900   3.122   7.715   6.376  1.2024 -0.0960 -0.2947
   96MOL0     H12901   3.292   7.766   6.641 -2.0703  0.4541  0.9343
   96MOL0     H12902   3.341   7.828   6.483 -1.0648 -2.3628 -3.0657
   96MOL0     H12903   3.168   7.960   6.450  0.4789  0.8979  1.2344
   96MOL0     H12904   3.083   7.907   6.601  0.7629  1.2702  3.6154
   96MOL0     H12905   3.242   8.005   6.734  2.6904 -0.5959  0.7912
   96MOL0     H12906   3.368   8.038   6.605  0.5993 -1.0967  0.2398
   96MOL0     H12907   3.234   8.215   6.527  0.5788 -0.1320  0.6088
   96MOL0     H12908   3.260   8.246   6.698  2.5685 -1.3335 -1.1836
   96MOL0     H12909   3.007   8.156   6.576 -0.2569  2.3768 -1.2375
   96MOL0     H12910   3.051   8.114   6.741 -0.9177  1.1071  0.5380
   96MOL0     H12911   2.897   8.378   6.525  1.5566  0.0497 -0.2427
   96MOL0     H12912   2.807   8.669   6.750 -1.7837 -2.1673  0.5730
   96MOL0     H12913   2.947   8.727   6.653 -0.1356  0.2861  2.7094
   96MOL0     H12914   2.831   8.599   6.447 -0.4894  0.4565 -0.1624
   96MOL0     H12915   2.699   8.564   6.565  1.5663  0.2765  1.9515
   96MOL0     H12916   2.780   8.833   6.449 -0.3410 -1.3071 -1.7961
   96MOL0     H12917   2.709   8.822   6.609  0.0481  2.0288 -1.6977
   96MOL0     H12918   2.538   8.672   6.481  1.1454 -0.6360  1.2732
   96MOL0     H12919   2.594   8.752   6.333  4.3422  0.1507  0.1607
   96MOL0     H12920   2.527   9.050   6.676  0.0544 -0.3133 -0.2891
   96MOL0     H12921   2.341   9.091   6.835 -1.2095  1.7011 -1.6491
   96MOL0     H12922   1.923   9.185   6.906 -2.5463 -2.7634 -0.8375
   96MOL0     H12923   1.732   9.233   7.055 -1.6599 -1.7819 -0.6343
   96MOL0     H12924   1.722   9.207   7.492 -0.5706  0.8105  0.6755
   96MOL0     H12925   1.786   9.311   7.356  1.8916 -2.3127 -0.4955
   96MOL0     H12926   1.496   9.243   7.439 -0.7680  0.6726 -2.3839
   96MOL0     H12927   1.580   9.378   7.512 -3.0675 -0.1583  0.0925
   96MOL0     H12928   1.523   9.359   7.212 -0.8961  2.0382 -1.3400
   96MOL0     H12929   1.409   9.414   7.323  1.2126  0.3764  0.9516
   96MOL0     H12930   1.690   9.537   7.278  0.4527  0.5148  0.8929
   96MOL0     H12931   1.581   9.594   7.407 -3.0795  0.3111  0.5892
   96MOL0     H12932   1.567   9.739   7.214  1.5270 -0.6595 -0.3388
   96MOL0     H12933   1.413   9.653   7.225 -1.1902 -0.6515 -3.1944
   96MOL0     H12934   1.474   9.497   7.056 -2.1399 -0.3721 -0.2303
   96MOL0     H12935   1.500   9.664   7.000 -2.2420 -2.5840 -0.1628
   96MOL0     H12936   1.708   9.457   7.056  0.9447 -0.9419 -2.2250
   96MOL0     H12937   1.746   9.628   7.076  0.3583 -3.1617  1.4903
   96MOL0     H12938   1.608   9.495   6.827  0.5496 -2.4777 -1.0871
   96MOL0     H12939   1.693   9.650   6.817 -1.2476 -0.1458  0.2735
   96MOL0     H12940   1.910   9.000   7.372 -5.4861 -2.1936 -0.8535
   96MOL0     H12941   2.103   8.937   7.216 -0.9750 -0.5976  1.4237
   96MOL0     H12942   2.105   8.808   6.626  0.1824 -0.1744 -2.6340
   96MOL0     H12943   2.279   8.760   6.474 -0.4960 -0.9386  0.2075
   96MOL0     H12944   3.140   7.619   5.948  0.3806  0.7698 -1.0535
   96MOL0     H12945   3.285   7.540   5.744  4.9003 -0.8964 -1.8217
   96MOL0     H12946   3.733   7.495   5.642 -0.1021 -2.0041  3.2031
   96MOL0     H12947   3.937   7.454   5.518 -2.1366  1.7784 -1.1905
   96MOL0     H12948   4.108   7.368   5.324  1.8796 -1.5834  0.5422
   96MOL0     H12949   3.945   7.349   5.283  0.2648 -0.6634  0.2434
   96MOL0     H12950   4.083   7.298   5.086 -0.0074  0.0567  0.4367
   96MOL0     H12951   3.996   7.156   5.117  0.1096  1.0201 -2.3807
   96MOL0     H12952   4.214   7.118   5.296  1.0989  0.2055  0.0301
   96MOL0     H12953   4.293   7.202   5.166 -0.6920  1.9328  0.2022
   96MOL0     H12954   4.325   6.955   5.156  1.2835  3.1199  2.3567
   96MOL0     H12955   4.162   6.920   5.167  0.3584  0.2791  1.1343
   96MOL0     H12956   4.204   6.994   4.756 -1.3568  1.3125 -0.0586
   96MOL0     H12957   3.811   7.054   5.439 -0.4929  1.6068 -1.7086
   96MOL0     H12958   3.502   7.066   5.545 -0.0185  0.0250 -0.4327
   96MOL0     H12959   3.629   6.954   5.579 -0.3802 -0.3820  1.9245
   96MOL0     H12960   3.570   7.044   5.710 -0.2046  0.4846 -0.4857
   97MOL0     O12961   8.443  10.840   6.721  0.3629 -0.6762 -0.4149
   97MOL0     C12962   8.555  10.798   6.749 -0.0598  0.2142 -0.1145
   97MOL0     O12963   8.631  10.824   6.859  0.1540  0.1614  0.2570
   97MOL0     C12964   8.602  10.913   6.960  0.7372 -0.0766  0.0617
   97MOL0     C12965   8.707  10.923   7.054  1.0027 -0.2624 -0.4651
   97MOL0     C12966   8.685  10.989   7.175  0.1056 -0.0133  0.0783
   97MOL0     C12967   8.562  11.053   7.211 -0.4442 -0.6735  0.4166
   97MOL0     O12968   8.546  11.112   7.327  0.0796 -0.6228  0.2424
   97MOL0     C12969   8.540  11.260   7.325 -1.4301  0.0352  0.1997
   97MOL0     C12970   8.581  11.310   7.462  0.1484  0.2740  0.1387
   97MOL0     C12971   8.672  11.438   7.454  0.4215 -0.1249 -0.1518
   97MOL0     C12972   8.816  11.393   7.434  0.3516 -0.4003 -0.6571
   97MOL0     C12973   8.907  11.509   7.450  0.8925  0.9440  0.1441
   97MOL0     C12974   9.057  11.469   7.451 -0.5796 -0.3222 -0.5752
   97MOL0     C12975   9.133  11.591   7.498 -0.2143 -0.7431 -0.9447
   97MOL0     C12976   9.281  11.580   7.527 -0.7366  1.2129  0.4823
   97MOL0     N12977   9.320  11.604   7.662  0.1952  0.1302 -0.6468
   97MOL0     C12978   9.294  11.522   7.770 -1.0824 -0.4551  0.5162
   97MOL0     C12979   9.392  11.569   7.858  0.8507 -0.4133 -0.1879
   97MOL0     C12980   9.412  11.497   7.991  0.2032  0.1200  1.4706
   97MOL0     C12981   9.311  11.516   8.100  0.0821  0.3839  0.0183
   97MOL0     C12982   9.318  11.417   8.225  0.9119 -0.4433  0.0462
   97MOL0     C12983   9.177  11.373   8.255  0.2285  0.6169  1.1497
   97MOL0     O12984   9.164  11.288   8.369 -0.5294  0.5341 -1.6252
   97MOL0     C12985   9.163  11.148   8.351  0.5722 -0.7369 -0.1989
   97MOL0     C12986   9.218  11.081   8.234 -0.0670  0.1604  0.2740
   97MOL0     C12987   9.234  10.942   8.235 -0.5093 -0.0424  0.0045
   97MOL0     C12988   9.180  10.860   8.336 -0.2198 -0.3899 -0.3076
   97MOL0     C12989   9.202  10.720   8.349  0.1690  0.3928  0.1158
   97MOL0     O12990   9.259  10.637   8.259 -0.7328  0.5757  0.6471
   97MOL0     C12991   9.225  10.500   8.259 -0.6583 -0.2476  0.3856
   97MOL0     C12992   9.279  10.417   8.356  0.5059 -0.4630  0.4292
   97MOL0     C12993   9.242  10.283   8.356 -0.2742 -0.0560 -0.2238
   97MOL0     C12994   9.168  10.227   8.251  0.5819  0.9285 -0.5292
   97MOL0     O12995   9.136  10.085   8.267  0.6131  0.3366 -0.2115
   97MOL0     C12996   9.071  10.012   8.163 -0.0100  0.5445 -0.7294
   97MOL0     C12997   9.124   9.872   8.186  0.0484  0.8982  0.6509
   97MOL0     C12998   9.113   9.819   8.325  0.1232 -0.0836  1.3425
   97MOL0     C12999   9.084   9.666   8.313 -0.0441  0.6883  0.3596
   97MOL0     C13000   9.024   9.600   8.440  0.1408  0.0896 -0.1726
   97MOL0     C13001   8.973   9.461   8.399 -0.2057 -0.3123  0.0036
   97MOL0     C13002   8.945   9.358   8.514 -0.1400 -0.9160  0.1601
   97MOL0     C13003   8.893   9.228   8.456  0.1628 -0.6350  0.3959
   97MOL0    Cl13004   8.894   9.106   8.578  0.1329 -0.1456 -0.5688
   97MOL0     C13005   9.111  10.307   8.154 -0.3701  0.9587  0.2832
   97MOL0     C13006   9.146  10.444   8.158  0.0114  0.0044  0.8456
   97MOL0     O13007   9.152  10.670   8.452 -0.0161 -0.4225  0.3958
   97MOL0     C13008   9.120  10.931   8.441 -0.8810 -0.7678  0.1518
   97MOL0     C13009   9.113  11.071   8.451  0.4965  0.2809  0.1987
   97MOL0     N13010   9.461  11.679   7.812  0.0469  0.2243  0.0102
   97MOL0     N13011   9.418  11.693   7.687  0.3951 -0.0355 -0.2361
   97MOL0     C13012   8.458  11.039   7.116 -0.9754  0.2217  0.8137
   97MOL0     C13013   8.483  10.982   6.989 -0.4202 -0.6278  1.1786
   97MOL0     C13014   8.616  10.707   6.640  1.0916  0.6348 -0.5907
   97MOL0     C13015   8.531  10.625   6.566  1.3330  0.8490  0.2773
   97MOL0     C13016   8.577  10.535   6.474  0.8093 -0.1399 -0.1798
   97MOL0     C13017   8.710  10.544   6.433  1.3020 -0.2137 -0.3160
   97MOL0     O13018   8.767  10.477   6.340  0.1970  0.1287  0.8133
   97MOL0     C13019   8.695  10.423   6.228 -0.4892 -0.7755 -0.0920
   97MOL0     C13020   8.648  10.551   6.143 -0.2972  0.1373  0.3612
   97MOL0     C13021   8.549  10.517   6.042 -0.2688 -0.8833  0.7703
   97MOL0     C13022   8.427  10.417   6.069  0.1852  0.3161 -0.0965
   97MOL0     C13023   8.376  10.386   5.934 -0.7248 -0.1209 -0.4602
   97MOL0     C13024   8.345  10.384   5.818  0.3139 -0.0130 -0.6612
   97MOL0     C13025   8.797  10.613   6.512  0.4779 -0.0691 -1.1784
   97MOL0     C13026   8.755  10.687   6.617 -0.2114  0.5968  1.0934
   97MOL0     C13027   8.871  10.749   6.695  0.4289  0.8004 -0.5458
   97MOL0     H13028   8.799  10.871   7.029  2.4629  2.1493 -0.4082
   97MOL0     H13029   8.757  10.993   7.257  0.5493 -0.6832 -0.2651
   97MOL0     H13030   8.621  11.281   7.255 -0.1272 -2.1767  0.9642
   97MOL0     H13031   8.442  11.297   7.291 -1.0541  3.1840  2.0960
   97MOL0     H13032   8.630  11.226   7.512  0.3469 -0.4988 -1.2833
   97MOL0     H13033   8.492  11.337   7.520 -0.0479  2.1030 -0.9263
   97MOL0     H13034   8.662  11.491   7.549 -1.0961 -2.3040  0.9877
   97MOL0     H13035   8.627  11.507   7.383 -1.0305  1.6224  2.2935
   97MOL0     H13036   8.838  11.322   7.514  1.9215 -0.9734 -1.5638
   97MOL0     H13037   8.840  11.352   7.335  2.0277  2.0033 -1.3330
   97MOL0     H13038   8.877  11.579   7.372  0.0311 -0.4926 -0.8450
   97MOL0     H13039   8.890  11.547   7.551 -0.6753  1.0003 -0.1276
   97MOL0     H13040   9.072  11.387   7.521  1.1542 -1.7439 -2.4970
   97MOL0     H13041   9.097  11.454   7.350 -0.3727  1.7685 -0.8540
   97MOL0     H13042   9.090  11.641   7.585  1.3223  1.5436 -1.4105
   97MOL0     H13043   9.130  11.674   7.426  1.8371  2.2388  2.1085
   97MOL0     H13044   9.314  11.477   7.509 -1.5005  1.2596 -1.4417
   97MOL0     H13045   9.328  11.647   7.454 -0.1976  2.6900  2.1134
   97MOL0     H13046   9.236  11.432   7.787  0.3039 -1.7198 -1.1439
   97MOL0     H13047   9.417  11.391   7.966 -0.6034  0.3033  0.4248
   97MOL0     H13048   9.515  11.504   8.027  1.0712 -1.3763 -0.5217
   97MOL0     H13049   9.315  11.614   8.149 -1.7289  0.1035  0.7874
   97MOL0     H13050   9.215  11.503   8.049 -2.2635  2.6670  3.3837
   97MOL0     H13051   9.365  11.471   8.307 -1.6346 -0.6288  1.7614
   97MOL0     H13052   9.371  11.324   8.199 -0.7814 -1.5390  0.3244
   97MOL0     H13053   9.137  11.317   8.170  1.9308  1.3303 -0.1539
   97MOL0     H13054   9.113  11.461   8.265  0.6442  0.7102  3.8409
   97MOL0     H13055   9.266  11.138   8.155 -0.2735 -4.0077 -3.2484
   97MOL0     H13056   9.302  10.907   8.157  1.2141  2.3261  0.3187
   97MOL0     H13057   9.355  10.460   8.421  2.3896  1.5310 -2.7943
   97MOL0     H13058   9.274  10.222   8.439  0.9372  3.3422  2.0246
   97MOL0     H13059   8.965  10.039   8.160 -0.1398  0.1563  0.0357
   97MOL0     H13060   9.108  10.037   8.063 -1.7975 -1.9631 -2.1224
   97MOL0     H13061   9.099   9.812   8.097 -1.1695  1.3474  0.6730
   97MOL0     H13062   9.228   9.895   8.159  0.0562 -1.2040 -1.5213
   97MOL0     H13063   9.198   9.850   8.386  0.2263 -0.2982  1.3086
   97MOL0     H13064   9.020   9.861   8.363  0.3575  3.4038 -1.4480
   97MOL0     H13065   9.176   9.614   8.286 -1.0906 -1.4309  0.6748
   97MOL0     H13066   9.020   9.647   8.226  0.3738  0.5152  0.0872
   97MOL0     H13067   8.946   9.661   8.487  0.9522  0.2734  0.9899
   97MOL0     H13068   9.112   9.591   8.505  0.6428  0.7574 -0.7415
   97MOL0     H13069   8.884   9.480   8.339  0.3186  3.5716  0.1895
   97MOL0     H13070   9.052   9.426   8.331 -1.0486  0.7275 -1.5905
   97MOL0     H13071   8.870   9.401   8.581  0.9480  1.8560 -0.2661
   97MOL0     H13072   9.040   9.351   8.568  0.6634 -0.6536 -1.1575
   97MOL0     H13073   8.787   9.238   8.431  0.4349 -1.3524 -1.2164
   97MOL0     H13074   8.941   9.189   8.365 -0.1089 -0.3074  0.1104
   97MOL0     H13075   9.047  10.261   8.079 -1.4943 -2.1262  2.9209
   97MOL0     H13076   9.098  10.503   8.081  0.4188 -0.0302  0.5633
   97MOL0     H13077   9.079  10.872   8.522 -1.2689 -1.9594 -0.8728
   97MOL0     H13078   9.088  11.119   8.545  0.2483 -0.9517  0.7805
   97MOL0     H13079   8.356  11.071   7.132 -0.7043  1.2696  0.5719
   97MOL0     H13080   8.405  10.993   6.915 -0.7204 -2.3026  1.2040
   97MOL0     H13081   8.427  10.600   6.587  1.3930 -0.0443 -0.4413
   97MOL0     H13082   8.517  10.456   6.429 -0.4275  0.8310 -0.2866
   97MOL0     H13083   8.607  10.363   6.251 -2.4747  1.5302 -1.2183
   97MOL0     H13084   8.771  10.367   6.173  1.6229  1.3218  0.4850
   97MOL0     H13085   8.734  10.596   6.092  0.9216 -2.8599 -0.4275
   97MOL0     H13086   8.597  10.619   6.212  0.5908  1.3762 -0.1607
   97MOL0     H13087   8.598  10.479   5.951 -0.4746  0.6796 -0.0292
   97MOL0     H13088   8.498  10.605   6.001 -0.9336 -2.7443 -2.8552
   97MOL0     H13089   8.453  10.321   6.114 -1.7670 -1.3389 -2.2565
   97MOL0     H13090   8.363  10.472   6.138  1.0214  2.1828 -0.7445
   97MOL0     H13091   8.304  10.388   5.719 -1.4302 -2.3204 -0.1106
   97MOL0     H13092   8.900  10.598   6.482  0.4819  4.7675 -4.7415
   97MOL0     H13093   8.871  10.858   6.684  1.1554  1.0049  1.1779
   97MOL0     H13094   8.848  10.733   6.800 -1.5910 -0.4095 -1.1200
   97MOL0     H13095   8.965  10.698   6.674 -1.6604 -2.9898 -1.5305
   98MOL0     O13096   9.917   3.336  10.163 -0.3739  0.2733 -0.0647
   98MOL0     C13097  10.022   3.346  10.093  0.4596 -0.6716 -0.6420
   98MOL0     O13098  10.148   3.380  10.145 -0.2386  0.1109  0.1163
   98MOL0     C13099  10.181   3.385  10.281  0.7659  0.7556 -1.3633
   98MOL0     C13100  10.091   3.402  10.387 -0.9871  0.5026  0.1787
   98MOL0     C13101  10.131   3.415  10.522  0.0486 -0.7935  1.7087
   98MOL0     C13102  10.271   3.393  10.550  0.3746 -0.1832  0.0221
   98MOL0     O13103  10.311   3.414  10.672  0.5273 -0.9923 -0.3794
   98MOL0     C13104  10.450   3.433  10.712 -0.2039  0.7339 -0.0400
   98MOL0     C13105  10.465   3.455  10.864 -0.4056 -0.7120 -0.0187
   98MOL0     C13106  10.382   3.576  10.920  0.6102 -0.3719 -0.7115
   98MOL0     C13107  10.358   3.569  11.076 -0.1542 -0.3018  0.4099
   98MOL0     C13108  10.298   3.697  11.131 -0.9812 -0.3416  0.4515
   98MOL0     C13109  10.172   3.749  11.056 -0.8160  0.6497 -0.0910
   98MOL0     C13110  10.115   3.866  11.135 -0.6642 -0.3365  0.3404
   98MOL0     C13111  10.219   3.982  11.158 -0.1759 -0.4808  0.6167
   98MOL0     N13112  10.252   4.049  11.029  0.3221  0.5254 -0.4434
   98MOL0     C13113  10.185   4.158  10.976  0.1247  0.1186 -0.5849
   98MOL0     C13114  10.273   4.190  10.878  0.6427  0.3793  0.0373
   98MOL0     C13115  10.258   4.288  10.760  1.0507  0.3685 -0.4958
   98MOL0     C13116  10.183   4.416  10.789  0.8040  0.2982 -0.0762
   98MOL0     C13117  10.246   4.499  10.900  0.4209  0.1864  0.6273
   98MOL0     C13118  10.189   4.636  10.933  0.4052  0.9425  0.5898
   98MOL0     O13119  10.076   4.634  11.019  0.3362 -0.3812  0.6830
   98MOL0     C13120  10.023   4.753  11.037  0.3978  0.7229 -0.3086
   98MOL0     C13121  10.030   4.869  10.961 -0.1985 -0.0197 -0.0613
   98MOL0     C13122   9.953   4.984  10.987  0.3182 -0.0367 -0.3099
   98MOL0     C13123   9.872   4.989  11.094 -0.6675  0.6234  0.1722
   98MOL0     C13124   9.786   5.104  11.113 -0.2358 -0.0805 -0.2741
   98MOL0     O13125   9.675   5.077  11.183 -0.4000 -0.3823  0.3746
   98MOL0     C13126   9.604   5.186  11.221 -0.3610 -0.1574  0.2244
   98MOL0     C13127   9.497   5.234  11.148 -0.2162  0.4137 -0.6426
   98MOL0     C13128   9.446   5.366  11.164  0.4360  0.2157  0.2716
   98MOL0     C13129   9.481   5.444  11.274 -0.9750 -0.5516  0.0869
   98MOL0     O13130   9.430   5.570  11.310  0.0351 -0.0871  1.0242
   98MOL0     C13131   9.329   5.621  11.224  0.3974  0.5977 -0.4325
   98MOL0     C13132   9.250   5.730  11.293 -0.2947 -0.0544 -0.2094
   98MOL0     C13133   9.142   5.669  11.389  0.2324  0.1209 -0.1365
   98MOL0     C13134   9.020   5.764  11.408 -0.3907  1.2061 -0.3579
   98MOL0     C13135   8.910   5.705  11.503  0.3214  0.2402 -0.6414
   98MOL0     C13136   8.784   5.794  11.529 -1.1792  0.1891  0.0996
   98MOL0     C13137   8.816   5.906  11.624  0.3026  0.2735  0.5680
   98MOL0     C13138   8.695   5.995  11.643 -0.9287 -0.1515  0.4534
   98MOL0    Cl13139   8.671   6.101  11.494 -0.1917 -0.3159 -0.8571
   98MOL0     C13140   9.575   5.388  11.353 -0.0861  0.5165  1.2463
   98MOL0     C13141   9.641   5.261  11.333 -0.1045  0.0565 -0.0698
   98MOL0     O13142   9.816   5.210  11.064 -0.9417  0.0234  0.6583
   98MOL0     C13143   9.849   4.870  11.163 -0.8250 -0.0758  0.5434
   98MOL0     C13144   9.932   4.760  11.142  0.7235 -0.0397  0.4031
   98MOL0     N13145  10.375   4.105  10.855 -0.2166 -0.3274 -0.3256
   98MOL0     N13146  10.356   4.012  10.950  0.3456 -0.0850  1.5392
   98MOL0     C13147  10.361   3.368  10.443  0.4483  0.8550  0.0478
   98MOL0     C13148  10.318   3.375  10.311 -0.3192 -0.0614  0.5055
   98MOL0     C13149  10.011   3.298   9.945 -0.6279 -0.3941  0.5705
   98MOL0     C13150   9.899   3.226   9.902 -0.3267 -0.0628 -0.5999
   98MOL0     C13151   9.887   3.165   9.775 -0.3257  0.6191  0.7794
   98MOL0     C13152  10.003   3.161   9.680  1.5851  0.1121  0.1225
   98MOL0     O13153  10.011   3.099   9.556  0.1015  0.4855  0.0364
   98MOL0     C13154   9.889   3.049   9.498 -0.9191 -0.6455 -0.0507
   98MOL0     C13155   9.886   2.900   9.533  1.9011  0.0934 -0.3527
   98MOL0     C13156  10.007   2.826   9.506 -0.2599 -0.3500  0.8517
   98MOL0     C13157  10.020   2.818   9.344 -0.4244  1.0075 -0.6392
   98MOL0     C13158  10.101   2.700   9.302  0.3122  0.0105 -0.6736
   98MOL0     C13159  10.157   2.614   9.243 -0.6370 -0.7783 -1.2408
   98MOL0     C13160  10.110   3.237   9.714  0.2506 -0.9312 -0.5004
   98MOL0     C13161  10.117   3.303   9.845  0.1908 -0.2044  0.5939
   98MOL0     C13162  10.248   3.375   9.874  0.5742 -0.7822 -0.1579
   98MOL0     H13163   9.986   3.413  10.361 -0.5984  0.0423 -1.7934
   98MOL0     H13164  10.057   3.455  10.591 -1.9110 -0.0149 -0.7115
   98MOL0     H13165  10.509   3.348  10.676  0.0224  2.4970 -4.3864
   98MOL0     H13166  10.499   3.523  10.673  2.4297 -0.4060  0.3647
   98MOL0     H13167  10.568   3.481  10.891 -1.1863  2.5314  0.2547
   98MOL0     H13168  10.437   3.370  10.926 -0.7749 -0.4547  0.1720
   98MOL0     H13169  10.290   3.585  10.863 -1.1450 -1.8552  1.6673
   98MOL0     H13170  10.442   3.667  10.921 -0.3943  0.3192 -1.6699
   98MOL0     H13171  10.282   3.495  11.102  0.7026 -0.2302  3.5574
   98MOL0     H13172  10.447   3.545  11.135 -0.6673  0.9280  1.7563
   98MOL0     H13173  10.280   3.690  11.239  2.0422  1.7728  1.2377
   98MOL0     H13174  10.384   3.765  11.131  1.8520 -3.6890  0.4994
   98MOL0     H13175  10.186   3.774  10.950 -1.7787 -0.5758 -0.5241
   98MOL0     H13176  10.095   3.673  11.071  1.1684 -0.9750  2.7117
   98MOL0     H13177  10.093   3.840  11.239 -0.0446 -0.5799  0.4156
   98MOL0     H13178  10.023   3.897  11.085 -0.1794  0.6023  0.0015
   98MOL0     H13179  10.168   4.056  11.219 -1.0271  0.9893 -1.7431
   98MOL0     H13180  10.310   3.941  11.203 -1.1922 -0.1280  3.1587
   98MOL0     H13181  10.094   4.207  11.007  0.1972 -0.5279  0.6852
   98MOL0     H13182  10.355   4.312  10.716  0.5512  2.7253 -0.4571
   98MOL0     H13183  10.199   4.231  10.688 -0.5120  0.1760  0.8618
   98MOL0     H13184  10.196   4.479  10.700 -0.9213  0.1573 -0.4568
   98MOL0     H13185  10.076   4.399  10.804  0.9154 -0.1253  0.2717
   98MOL0     H13186  10.350   4.514  10.869 -0.0171 -0.8958 -1.6410
   98MOL0     H13187  10.239   4.434  10.988  0.4947 -1.8859 -0.8071
   98MOL0     H13188  10.165   4.687  10.839  0.7355 -1.0183 -0.6353
   98MOL0     H13189  10.260   4.701  10.984  0.7457  1.3314 -0.3635
   98MOL0     H13190  10.094   4.875  10.874 -0.6360 -3.9064 -0.8358
   98MOL0     H13191   9.954   5.074  10.926  0.5711  0.3608  0.2741
   98MOL0     H13192   9.469   5.173  11.063 -0.6573 -0.8836  0.4017
   98MOL0     H13193   9.373   5.405  11.094 -3.4607 -2.6162  2.3993
   98MOL0     H13194   9.371   5.668  11.134 -1.4026  2.8889 -0.1736
   98MOL0     H13195   9.255   5.547  11.192 -0.2449  1.0253  0.0479
   98MOL0     H13196   9.315   5.788  11.359  2.0631 -1.4274 -1.2004
   98MOL0     H13197   9.205   5.794  11.217 -2.4581 -2.0320 -0.7130
   98MOL0     H13198   9.110   5.574  11.345  1.5475 -0.4432  0.0817
   98MOL0     H13199   9.171   5.657  11.494 -2.5023  2.3350  1.0372
   98MOL0     H13200   8.976   5.788  11.310 -0.5323  3.2988  0.1735
   98MOL0     H13201   9.053   5.860  11.446 -0.1703  0.6503  0.8994
   98MOL0     H13202   8.955   5.677  11.599  1.3093  1.6836 -0.6579
   98MOL0     H13203   8.879   5.615  11.448 -0.1935  0.6741 -1.0688
   98MOL0     H13204   8.757   5.834  11.431 -1.7367  0.2632  0.2800
   98MOL0     H13205   8.711   5.720  11.566  1.6616 -1.0012  4.0039
   98MOL0     H13206   8.889   5.973  11.577 -3.6533  2.9275 -2.4618
   98MOL0     H13207   8.862   5.867  11.715  2.4754 -0.5903 -0.8074
   98MOL0     H13208   8.607   5.934  11.667 -0.7176 -0.5013  0.3475
   98MOL0     H13209   8.710   6.046  11.738 -0.0614 -3.1428  2.0561
   98MOL0     H13210   9.599   5.446  11.442 -1.4237 -0.9983  2.6761
   98MOL0     H13211   9.721   5.227  11.399 -1.7526 -0.8470  1.5612
   98MOL0     H13212   9.771   4.875  11.239 -2.5253 -2.3568 -0.9231
   98MOL0     H13213   9.902   4.675  11.203  0.2739 -0.8560 -0.8945
   98MOL0     H13214  10.467   3.349  10.457  0.8167  0.8701 -2.4264
   98MOL0     H13215  10.392   3.370  10.233 -1.7847  1.4581 -1.0680
   98MOL0     H13216   9.813   3.219   9.966 -0.1974  1.0434 -0.2863
   98MOL0     H13217   9.800   3.102   9.761  0.2355  0.3820 -2.2443
   98MOL0     H13218   9.881   3.078   9.393  2.0985 -1.8979 -0.7222
   98MOL0     H13219   9.802   3.099   9.542 -1.2247  0.2023 -1.5702
   98MOL0     H13220   9.792   2.860   9.494  1.4986 -0.7613  1.3573
   98MOL0     H13221   9.866   2.876   9.638 -0.6294 -1.9794 -1.1937
   98MOL0     H13222  10.008   2.723   9.543  3.8801 -1.4150 -1.5754
   98MOL0     H13223  10.098   2.870   9.548  0.3500  1.0109 -1.7242
   98MOL0     H13224   9.925   2.807   9.291  0.0220  0.6603 -1.3769
   98MOL0     H13225  10.080   2.907   9.320  1.4984 -0.5000 -1.6876
   98MOL0     H13226  10.222   2.536   9.208  2.4601  1.6195 -1.2872
   98MOL0     H13227  10.190   3.250   9.641  0.7267  1.6256  0.3783
   98MOL0     H13228  10.294   3.393   9.776 -2.0873  0.4064 -1.3058
   98MOL0     H13229  10.227   3.468   9.928 -1.3148 -0.4896 -1.2868
   98MOL0     H13230  10.312   3.311   9.935 -0.5436 -1.7112  0.0885
   99MOL0     O13231   0.192   6.773   1.579 -0.2055 -0.4648  0.3568
   99MOL0     C13232   0.174   6.785   1.461  0.0475 -0.6846  0.6838
   99MOL0     O13233   0.077   6.724   1.391  0.1843 -0.1242  0.5214
   99MOL0     C13234   0.029   6.604   1.440 -0.3885  0.6812 -0.1443
   99MOL0     C13235   0.047   6.494   1.356  0.4558  0.2593  0.3592
   99MOL0     C13236  -0.006   6.369   1.389 -0.3327 -0.1069 -0.4431
   99MOL0     C13237  -0.070   6.353   1.513  0.9131 -0.0158  0.1766
   99MOL0     O13238  -0.112   6.224   1.538  0.8842  0.3868 -0.3008
   99MOL0     C13239  -0.104   6.196   1.683  0.3595 -0.5199  1.2334
   99MOL0     C13240  -0.115   6.053   1.714 -0.8199  0.3786  0.3123
   99MOL0     C13241   0.026   5.989   1.692  0.5545  0.5324 -0.2080
   99MOL0     C13242   0.040   5.838   1.713 -0.2495 -0.2888 -0.2242
   99MOL0     C13243   0.017   5.814   1.865  0.2731 -0.3540  0.1779
   99MOL0     C13244   0.063   5.674   1.914 -0.4007  1.1191  0.0834
   99MOL0     C13245   0.012   5.626   2.048  0.3761  0.2917  0.6787
   99MOL0     C13246   0.025   5.720   2.164  0.1358  0.1583  0.0144
   99MOL0     N13247   0.154   5.713   2.237 -0.4087  0.6440 -0.4552
   99MOL0     C13248   0.186   5.781   2.355  0.1544 -0.7479  0.5400
   99MOL0     C13249   0.319   5.767   2.371 -0.3888  0.8670  0.5605
   99MOL0     C13250   0.395   5.804   2.489  0.4969 -0.1427  0.4852
   99MOL0     C13251   0.470   5.933   2.483  0.9182 -0.1994  0.3103
   99MOL0     C13252   0.525   5.975   2.619  0.6294 -0.4624 -0.2588
   99MOL0     C13253   0.652   6.075   2.614  0.3869 -0.8218 -0.3688
   99MOL0     O13254   0.596   6.204   2.560  0.5226  0.2863  0.3824
   99MOL0     C13255   0.694   6.287   2.504  0.2168 -0.7463 -0.1231
   99MOL0     C13256   0.824   6.292   2.539 -0.1688 -0.9264 -0.0851
   99MOL0     C13257   0.923   6.371   2.474 -0.3374  0.3937  0.1611
   99MOL0     C13258   0.899   6.447   2.358 -0.2316 -0.4718  1.3160
   99MOL0     C13259   1.005   6.521   2.278  0.0919  0.0385 -0.1141
   99MOL0     O13260   0.971   6.616   2.199  0.9801 -0.1543  0.1435
   99MOL0     C13261   1.069   6.662   2.120 -0.1305  0.6086  0.1195
   99MOL0     C13262   1.124   6.778   2.164 -0.5930  0.0283 -0.5616
   99MOL0     C13263   1.225   6.837   2.080  0.1616 -0.4842  0.3041
   99MOL0     C13264   1.272   6.777   1.959  0.0161  0.4231 -1.5589
   99MOL0     O13265   1.348   6.839   1.874 -0.1347 -0.0121  0.4607
   99MOL0     C13266   1.434   6.759   1.787 -0.3757 -0.3408  0.3481
   99MOL0     C13267   1.574   6.822   1.797  0.3238 -0.2305  0.2944
   99MOL0     C13268   1.661   6.758   1.677  0.3645 -0.0181  0.4382
   99MOL0     C13269   1.791   6.834   1.698  0.2338 -0.2780  0.0963
   99MOL0     C13270   1.890   6.803   1.588  0.0478 -0.5876 -0.9873
   99MOL0     C13271   1.919   6.905   1.478  0.7943  0.6493 -0.1908
   99MOL0     C13272   2.035   6.877   1.384 -0.1958  0.6072  0.1520
   99MOL0     C13273   2.164   6.939   1.435 -0.6509 -0.1778 -0.1954
   99MOL0    Cl13274   2.305   6.830   1.395  0.6763  0.2391 -0.5505
   99MOL0     C13275   1.211   6.659   1.929  0.5703  0.3598  0.0096
   99MOL0     C13276   1.106   6.603   2.006 -0.4948  0.3184  0.2567
   99MOL0     O13277   1.118   6.468   2.289 -0.1435  0.1267 -0.4061
   99MOL0     C13278   0.750   6.453   2.331 -0.6791  0.1911 -0.6129
   99MOL0     C13279   0.654   6.375   2.401 -1.0693  0.1867 -0.0819
   99MOL0     N13280   0.374   5.705   2.260 -0.3588  0.2186  0.7808
   99MOL0     N13281   0.273   5.680   2.174  0.0688 -0.4900 -0.1144
   99MOL0     C13282  -0.092   6.462   1.593 -0.0572  0.6609  0.5269
   99MOL0     C13283  -0.038   6.584   1.560  0.5073 -0.3769  0.7891
   99MOL0     C13284   0.254   6.887   1.386  0.1862 -0.1398 -0.2541
   99MOL0     C13285   0.374   6.931   1.452  0.7543 -0.2146 -0.2076
   99MOL0     C13286   0.450   7.036   1.393 -0.0862  0.3696 -0.0711
   99MOL0     C13287   0.425   7.096   1.270  1.4455  0.4138 -0.7255
   99MOL0     O13288   0.510   7.205   1.247 -0.7484  0.8186 -0.4574
   99MOL0     C13289   0.466   7.303   1.146 -0.5881  0.4925 -0.7588
   99MOL0     C13290   0.520   7.436   1.193 -0.3809  0.7600  0.3967
   99MOL0     C13291   0.471   7.478   1.338  0.3813 -0.5338  0.8820
   99MOL0     C13292   0.507   7.624   1.378  0.7458 -0.8831 -0.3727
   99MOL0     C13293   0.653   7.640   1.380  0.2568 -0.9558  0.2192
   99MOL0     C13294   0.776   7.650   1.399  1.3189 -0.4400 -0.5245
   99MOL0     C13295   0.312   7.046   1.199 -0.8044 -0.0238 -0.2415
   99MOL0     C13296   0.225   6.947   1.254  0.2903  0.3335 -0.8402
   99MOL0     C13297   0.092   6.916   1.174 -0.5752  0.3396 -0.6752
   99MOL0     H13298   0.102   6.509   1.264  1.8426  0.4500  1.1867
   99MOL0     H13299   0.022   6.293   1.316  0.5362  0.4184 -0.6787
   99MOL0     H13300  -0.009   6.237   1.720  0.3466 -0.7252  1.4998
   99MOL0     H13301  -0.179   6.248   1.743  1.5178  0.5479  1.7941
   99MOL0     H13302  -0.189   6.005   1.649  0.9187 -0.0280 -1.4522
   99MOL0     H13303  -0.135   6.052   1.821 -2.8021 -2.4228  0.0185
   99MOL0     H13304   0.100   6.038   1.756  0.6392  1.9373 -1.3446
   99MOL0     H13305   0.060   6.018   1.592 -0.4322  1.3820 -0.3151
   99MOL0     H13306  -0.037   5.786   1.655  1.0217  0.9431 -3.2471
   99MOL0     H13307   0.140   5.809   1.679  0.9496  2.8716  0.2609
   99MOL0     H13308   0.076   5.887   1.922 -1.5015  1.6545 -0.4203
   99MOL0     H13309  -0.091   5.815   1.882  0.4075  0.1950  1.0688
   99MOL0     H13310   0.033   5.600   1.839 -0.1228 -0.9020  1.8763
   99MOL0     H13311   0.170   5.688   1.926 -0.5457  0.9562  1.8276
   99MOL0     H13312   0.050   5.524   2.057  3.5852  1.1177 -1.6451
   99MOL0     H13313  -0.093   5.596   2.041  0.3781  0.5317 -0.6021
   99MOL0     H13314   0.004   5.822   2.130 -0.9724 -0.0177  0.1528
   99MOL0     H13315  -0.051   5.690   2.235 -0.7966 -5.3257 -2.7966
   99MOL0     H13316   0.107   5.824   2.416  1.6299 -0.0828  2.0967
   99MOL0     H13317   0.329   5.809   2.576 -0.6099  1.5609 -0.3982
   99MOL0     H13318   0.464   5.719   2.497 -1.2343 -1.4880  1.9869
   99MOL0     H13319   0.547   5.930   2.405 -1.1670  0.9465 -1.9243
   99MOL0     H13320   0.402   6.012   2.449  2.8775  2.2470  1.7234
   99MOL0     H13321   0.557   5.881   2.664 -0.9469  0.6599  3.6021
   99MOL0     H13322   0.447   6.025   2.676 -0.9150 -0.2081 -2.4791
   99MOL0     H13323   0.732   6.032   2.554  1.9767 -0.2956  1.2954
   99MOL0     H13324   0.685   6.078   2.718 -0.0359  1.0967 -0.2633
   99MOL0     H13325   0.877   6.240   2.619  1.4198 -2.0374 -1.7850
   99MOL0     H13326   1.025   6.354   2.505  0.4829  3.4278 -0.5242
   99MOL0     H13327   1.093   6.834   2.251 -2.2125  1.0138 -1.7118
   99MOL0     H13328   1.272   6.927   2.119 -0.4432 -1.3008  3.1043
   99MOL0     H13329   1.439   6.653   1.814 -2.2336 -1.1470 -2.1047
   99MOL0     H13330   1.391   6.765   1.686  0.2889  0.8545  0.1140
   99MOL0     H13331   1.557   6.929   1.777  3.1428  0.1665 -0.3081
   99MOL0     H13332   1.630   6.804   1.889  1.6148 -0.0706 -0.4429
   99MOL0     H13333   1.672   6.649   1.685 -0.5193 -0.1522 -0.0144
   99MOL0     H13334   1.630   6.778   1.574  1.2607 -0.2710  0.1095
   99MOL0     H13335   1.824   6.807   1.798 -0.7643 -1.0183  0.2391
   99MOL0     H13336   1.762   6.939   1.688 -2.4827 -0.8960  0.6320
   99MOL0     H13337   1.854   6.713   1.538  0.7207 -0.3474 -1.9314
   99MOL0     H13338   1.990   6.791   1.630  0.5974 -0.3357 -2.1691
   99MOL0     H13339   1.825   6.903   1.421  1.1802 -2.0292 -0.8352
   99MOL0     H13340   1.926   7.005   1.524 -2.6954  2.0764 -2.3519
   99MOL0     H13341   2.013   6.916   1.284  0.5097 -0.6728 -0.5286
   99MOL0     H13342   2.057   6.770   1.377 -2.2934  0.0564  1.1796
   99MOL0     H13343   2.179   7.036   1.387 -0.1115 -0.3864 -0.4609
   99MOL0     H13344   2.164   6.969   1.539  2.5028  0.1670 -0.2018
   99MOL0     H13345   1.231   6.612   1.833 -1.3340  0.0388 -0.2769
   99MOL0     H13346   1.044   6.517   1.981 -0.3212  0.4337 -0.6041
   99MOL0     H13347   0.726   6.520   2.250 -0.0748 -2.3566 -3.0485
   99MOL0     H13348   0.548   6.370   2.380 -0.6228 -4.6136 -2.3832
   99MOL0     H13349  -0.144   6.453   1.688  0.1549  0.0538  0.5866
   99MOL0     H13350  -0.046   6.669   1.627 -0.1657 -0.9179  1.4078
   99MOL0     H13351   0.411   6.882   1.542 -1.0674  0.3131  0.8750
   99MOL0     H13352   0.538   7.068   1.448 -0.8474 -0.3983  1.6844
   99MOL0     H13353   0.358   7.315   1.136 -0.7847 -1.0315 -0.8185
   99MOL0     H13354   0.518   7.280   1.052  0.2655 -0.9301  0.0070
   99MOL0     H13355   0.495   7.514   1.121  0.5483 -1.3758 -2.4134
   99MOL0     H13356   0.629   7.432   1.204 -0.1187 -0.4963 -2.0851
   99MOL0     H13357   0.519   7.412   1.412 -1.2263 -1.1119  1.4577
   99MOL0     H13358   0.363   7.466   1.343  0.4018 -0.9034  0.5509
   99MOL0     H13359   0.463   7.704   1.317  2.3814  0.9567  0.7591
   99MOL0     H13360   0.469   7.640   1.479 -2.1092 -0.6353 -1.3923
   99MOL0     H13361   0.878   7.660   1.430  0.6895  0.5228  1.3881
   99MOL0     H13362   0.277   7.092   1.108 -5.4897  0.6524  1.6320
   99MOL0     H13363   0.065   6.810   1.172 -3.3858  0.9731 -0.9228
   99MOL0     H13364   0.005   6.968   1.215 -0.2833  0.4342 -0.1716
   99MOL0     H13365   0.106   6.950   1.071  0.0904 -0.4420 -0.8535
  100MOL0     O13366   2.907   9.162   3.350 -0.2630  0.6388  0.5937
  100MOL0     C13367   2.929   9.101   3.454  0.8399 -0.0757 -0.6874
  100MOL0     O13368   2.878   9.139   3.592  0.3721  0.4957  0.8108
  100MOL0     C13369   2.808   9.259   3.610 -0.2198  0.4840 -0.0573
  100MOL0     C13370   2.752   9.278   3.740 -0.6052  0.0219 -0.7468
  100MOL0     C13371   2.676   9.385   3.773 -0.5206 -0.3623  0.0866
  100MOL0     C13372   2.661   9.489   3.686 -0.8059 -0.3484  0.1937
  100MOL0     O13373   2.589   9.602   3.721 -0.2132 -0.4580  0.0484
  100MOL0     C13374   2.620   9.721   3.667  0.8367 -0.5083 -0.0329
  100MOL0     C13375   2.577   9.839   3.752  0.4718 -0.3476 -0.3864
  100MOL0     C13376   2.686   9.863   3.860  0.1311 -0.9060 -0.0681
  100MOL0     C13377   2.670  10.007   3.911 -0.2657 -0.6103  0.0463
  100MOL0     C13378   2.756  10.045   4.041 -0.2051  0.0936  1.1698
  100MOL0     C13379   2.904  10.054   4.000 -0.2929  0.1281  0.2927
  100MOL0     C13380   2.997  10.093   4.120 -0.2559  1.0601 -0.2943
  100MOL0     C13381   2.988  10.236   4.161  0.3187  0.2547 -0.0676
  100MOL0     N13382   3.102  10.297   4.226 -0.6350 -0.7038 -0.8652
  100MOL0     C13383   3.170  10.249   4.330  0.0127  0.2492 -0.1502
  100MOL0     C13384   3.254  10.350   4.374  0.3292  0.3082 -0.7117
  100MOL0     C13385   3.365  10.335   4.468 -0.7264  0.0601 -0.1265
  100MOL0     C13386   3.314  10.318   4.608 -0.1994 -0.0766 -0.7372
  100MOL0     C13387   3.436  10.309   4.711 -0.5005  0.3728  0.8782
  100MOL0     C13388   3.508  10.176   4.728  0.0816 -1.3379  0.6808
  100MOL0     O13389   3.631  10.185   4.799 -0.2568  0.0122  0.8924
  100MOL0     C13390   3.609  10.193   4.937 -0.0202  0.0931  1.3074
  100MOL0     C13391   3.639  10.314   4.996 -0.3954  0.1806  0.6572
  100MOL0     C13392   3.628  10.335   5.129  1.0573  0.6277 -0.4712
  100MOL0     C13393   3.587  10.226   5.211  0.0185 -1.2329  1.0412
  100MOL0     C13394   3.578  10.239   5.361 -0.8514  0.9921  0.3945
  100MOL0     O13395   3.481  10.165   5.428  0.0796  0.3468  0.0155
  100MOL0     C13396   3.473  10.178   5.564  0.3120  0.2159 -0.0642
  100MOL0     C13397   3.360  10.250   5.614  0.9144  0.6232 -0.3674
  100MOL0     C13398   3.348  10.260   5.753 -0.0850 -0.8658 -0.4631
  100MOL0     C13399   3.445  10.210   5.846 -0.4780  0.1261 -0.7468
  100MOL0     O13400   3.459  10.240   5.981  0.1190  0.3546  0.2574
  100MOL0     C13401   3.347  10.275   6.061 -0.2798  0.0191  0.1646
  100MOL0     C13402   3.365  10.231   6.216  0.4111  0.7738  0.5122
  100MOL0     C13403   3.267  10.301   6.309 -0.2307  0.8417 -0.9282
  100MOL0     C13404   3.120  10.250   6.311  0.7822  0.1347  0.3770
  100MOL0     C13405   3.040  10.321   6.419  0.2059 -0.2383  0.4569
  100MOL0     C13406   3.029  10.473   6.412 -0.0042 -0.2597  0.4298
  100MOL0     C13407   2.912  10.513   6.314  0.4440  0.0098  0.5500
  100MOL0     C13408   2.866  10.660   6.344  0.9135 -0.0009 -0.2479
  100MOL0    Cl13409   2.982  10.786   6.401 -0.4626 -0.1556 -0.2830
  100MOL0     C13410   3.555  10.135   5.793 -0.1196  0.4020 -0.7785
  100MOL0     C13411   3.567  10.122   5.654  0.0394  0.2663 -0.2240
  100MOL0     O13412   3.646  10.322   5.417 -0.2412 -0.0870  0.7115
  100MOL0     C13413   3.552  10.109   5.153 -0.0603 -0.3169 -0.7096
  100MOL0     C13414   3.559  10.085   5.015  0.1932 -1.1257 -0.7150
  100MOL0     N13415   3.237  10.457   4.297  0.9238  1.0031 -0.5129
  100MOL0     N13416   3.148  10.428   4.207  0.5053  0.1035  0.0626
  100MOL0     C13417   2.712   9.480   3.555 -0.4569 -0.5306  0.0139
  100MOL0     C13418   2.782   9.360   3.517  0.9377 -0.1899  0.2353
  100MOL0     C13419   3.038   9.004   3.467 -0.2130  0.4126  0.4368
  100MOL0     C13420   3.030   8.884   3.388 -0.0687  0.0478 -0.9816
  100MOL0     C13421   3.120   8.780   3.398 -0.4977 -0.2879 -0.0178
  100MOL0     C13422   3.211   8.780   3.497 -0.1867 -0.5588 -1.0978
  100MOL0     O13423   3.281   8.668   3.538  0.4977  0.1126 -0.2031
  100MOL0     C13424   3.290   8.558   3.455 -1.0358  0.2837 -0.2889
  100MOL0     C13425   3.410   8.469   3.514  0.2771  0.0712 -0.8202
  100MOL0     C13426   3.452   8.363   3.420 -0.1469 -1.2800  0.1874
  100MOL0     C13427   3.593   8.313   3.437 -0.7191 -1.0086 -0.0175
  100MOL0     C13428   3.633   8.262   3.571 -0.3553  1.2162  0.0797
  100MOL0     C13429   3.669   8.200   3.675  0.2005  0.4790 -0.0182
  100MOL0     C13430   3.211   8.884   3.584 -0.2232  0.1488 -1.1830
  100MOL0     C13431   3.144   9.006   3.563 -0.3851 -0.3204  0.2090
  100MOL0     C13432   3.168   9.120   3.654  0.3132 -0.2023  1.0961
  100MOL0     H13433   2.765   9.192   3.805  1.5196 -0.3131 -1.5425
  100MOL0     H13434   2.641   9.386   3.876  1.1497 -0.6285  0.6820
  100MOL0     H13435   2.723   9.730   3.630  0.0536 -0.3302 -2.3627
  100MOL0     H13436   2.564   9.724   3.573  2.2545 -1.5033 -0.9369
  100MOL0     H13437   2.476   9.814   3.785 -0.8072 -1.3377 -4.5188
  100MOL0     H13438   2.569   9.935   3.700  0.8255 -0.6427 -0.9902
  100MOL0     H13439   2.777   9.865   3.799 -0.7215  0.1118 -1.3640
  100MOL0     H13440   2.686   9.794   3.945  4.2147 -0.2545  0.6688
  100MOL0     H13441   2.690  10.071   3.825 -3.1223  1.0537  0.4907
  100MOL0     H13442   2.565  10.026   3.935  0.1096  0.3328  1.0025
  100MOL0     H13443   2.710  10.139   4.073  0.7459  0.9328  0.1653
  100MOL0     H13444   2.743   9.969   4.118  1.0978 -0.3137  1.0175
  100MOL0     H13445   2.927   9.958   3.952 -2.1408  0.7600 -2.0310
  100MOL0     H13446   2.916  10.122   3.915  1.0079  2.2370  2.0522
  100MOL0     H13447   3.102  10.086   4.090 -0.5720  1.2766 -1.5105
  100MOL0     H13448   2.980  10.024   4.203  0.0239  1.4286  0.0672
  100MOL0     H13449   2.967  10.296   4.072 -1.1746 -0.7235 -0.4123
  100MOL0     H13450   2.900  10.246   4.226 -0.8705 -1.6687 -1.2766
  100MOL0     H13451   3.182  10.151   4.376 -0.6533  0.2108 -0.0464
  100MOL0     H13452   3.430  10.250   4.445 -1.5905 -0.1378 -2.0774
  100MOL0     H13453   3.438  10.417   4.464 -0.3288 -0.1578  1.8172
  100MOL0     H13454   3.256  10.407   4.633  0.6663  0.0706  0.8404
  100MOL0     H13455   3.252  10.229   4.625  1.7462 -1.2266  0.8513
  100MOL0     H13456   3.389  10.333   4.807 -1.5446  2.5561 -0.1054
  100MOL0     H13457   3.505  10.390   4.687 -0.8773 -0.0109 -1.7998
  100MOL0     H13458   3.544  10.149   4.629  1.4885 -2.5772  1.4767
  100MOL0     H13459   3.442  10.098   4.766 -1.1954 -0.5006  0.2438
  100MOL0     H13460   3.679  10.396   4.937  1.3407  0.8023  2.5634
  100MOL0     H13461   3.665  10.418   5.188  1.2781  0.2719 -0.1041
  100MOL0     H13462   3.286  10.297   5.549 -0.1667  0.5514  0.7640
  100MOL0     H13463   3.271  10.330   5.783  1.9004  2.8066 -3.0538
  100MOL0     H13464   3.332  10.382   6.050  1.1755  0.0012 -3.0059
  100MOL0     H13465   3.253  10.230   6.026  0.4212 -1.2972 -0.1150
  100MOL0     H13466   3.324  10.130   6.230 -1.9852  1.8571  2.0157
  100MOL0     H13467   3.469  10.242   6.248  0.1532  1.8053  1.0306
  100MOL0     H13468   3.309  10.309   6.410  0.3884 -1.3804 -0.9431
  100MOL0     H13469   3.271  10.405   6.278 -0.1715  2.7999  4.5718
  100MOL0     H13470   3.108  10.144   6.336 -0.9055  0.4750  1.1897
  100MOL0     H13471   3.067  10.268   6.217 -0.2318  1.7311  1.1858
  100MOL0     H13472   3.071  10.297   6.521 -2.7098 -2.4047  0.9471
  100MOL0     H13473   2.942  10.273   6.420  0.8707 -1.6354  1.5256
  100MOL0     H13474   3.016  10.517   6.511  1.3351  2.2018 -0.4019
  100MOL0     H13475   3.119  10.513   6.364  1.0123 -1.7058  1.0435
  100MOL0     H13476   2.830  10.444   6.335 -0.7677  1.6142  1.3570
  100MOL0     H13477   2.935  10.506   6.208 -1.6675  0.4683  0.0058
  100MOL0     H13478   2.828  10.701   6.251  3.6311 -0.3141 -1.5919
  100MOL0     H13479   2.780  10.665   6.412  1.9302  3.2919  0.9907
  100MOL0     H13480   3.635  10.107   5.862 -0.4771 -1.2314 -0.9726
  100MOL0     H13481   3.651  10.060   5.623 -0.4668 -1.2068  1.1959
  100MOL0     H13482   3.537  10.030   5.226 -1.3708  1.1946  0.7519
  100MOL0     H13483   3.527   9.989   4.976  0.6556 -3.0274  3.0372
  100MOL0     H13484   2.704   9.563   3.487  1.9245  0.1160  0.4305
  100MOL0     H13485   2.833   9.360   3.421 -1.1787 -0.9856 -0.9846
  100MOL0     H13486   2.955   8.891   3.310 -0.9449 -0.3681 -0.1883
  100MOL0     H13487   3.102   8.692   3.336  3.3341 -0.5724 -1.0076
  100MOL0     H13488   3.320   8.590   3.355 -1.4558  0.2484 -0.4258
  100MOL0     H13489   3.201   8.495   3.462 -1.5906  1.1630  0.7842
  100MOL0     H13490   3.389   8.418   3.608 -2.1875 -0.3402 -1.5283
  100MOL0     H13491   3.493   8.538   3.530 -1.8396  2.5359  0.2263
  100MOL0     H13492   3.450   8.396   3.315  0.1507  2.6575  1.2575
  100MOL0     H13493   3.380   8.282   3.431  0.0684 -1.4300  0.4760
  100MOL0     H13494   3.613   8.238   3.360  2.2463 -0.6867  0.3124
  100MOL0     H13495   3.665   8.393   3.418 -0.3883 -1.3763 -0.3439
  100MOL0     H13496   3.670   8.143   3.766 -2.9875 -2.6869 -1.6657
  100MOL0     H13497   3.283   8.875   3.665  1.3862 -0.1065 -2.6019
  100MOL0     H13498   3.090   9.135   3.729 -0.9816 -1.5536  0.0808
  100MOL0     H13499   3.266   9.105   3.702  0.5203 -1.4499  0.3446
  100MOL0     H13500   3.171   9.213   3.597 -2.1533  0.7971  2.4462
  101MOL0     O13501   2.698   1.173   0.804  0.3825 -1.2396  0.4579
  101MOL0     C13502   2.682   1.054   0.776  0.9552 -0.3877 -0.3212
  101MOL0     O13503   2.702   0.949   0.858  0.5010  0.3995  0.2147
  101MOL0     C13504   2.803   0.971   0.951 -0.3874  0.1570 -0.2697
  101MOL0     C13505   2.929   1.037   0.923  0.0726 -1.2265 -1.0937
  101MOL0     C13506   3.011   1.072   1.023  0.0053  0.2366 -0.1813
  101MOL0     C13507   2.981   1.048   1.158  0.1415 -0.8106 -0.6064
  101MOL0     O13508   3.068   1.081   1.265 -0.2769  0.2897 -0.5507
  101MOL0     C13509   3.129   0.965   1.327  0.4694  0.4493 -0.4751
  101MOL0     C13510   3.242   0.916   1.235 -0.3130  0.2799  0.0890
  101MOL0     C13511   3.190   0.792   1.144  0.0103 -0.3519  0.3412
  101MOL0     C13512   3.195   0.670   1.247  0.1105 -0.4331  0.9277
  101MOL0     C13513   3.117   0.562   1.176  0.4719  0.1224  0.0590
  101MOL0     C13514   3.192   0.488   1.060 -0.1801  0.6594 -0.4305
  101MOL0     C13515   3.129   0.347   1.036  0.5315 -1.7301  0.1960
  101MOL0     C13516   3.129   0.310   0.884  0.7363 -0.8453  0.3230
  101MOL0     N13517   3.079   0.170   0.878  0.6723  0.8114 -0.2574
  101MOL0     C13518   3.151   0.069   0.813  0.7690  0.3628 -1.0981
  101MOL0     C13519   3.065  -0.027   0.782  0.0153 -0.1090  0.0746
  101MOL0     C13520   3.121  -0.136   0.697 -0.0510 -0.0465  0.2948
  101MOL0     C13521   3.071  -0.277   0.755 -0.3795 -0.0359  0.1666
  101MOL0     C13522   3.120  -0.394   0.658  0.0089  0.1128  0.0038
  101MOL0     C13523   3.028  -0.423   0.535 -0.0941 -0.3931 -0.2547
  101MOL0     O13524   3.105  -0.517   0.457  0.4715  0.6099  0.2533
  101MOL0     C13525   3.063  -0.533   0.324  0.5175 -0.0590 -0.2817
  101MOL0     C13526   3.146  -0.606   0.228  0.0207  0.8565 -0.3261
  101MOL0     C13527   3.105  -0.648   0.102 -0.5000 -0.0341 -0.9373
  101MOL0     C13528   2.979  -0.599   0.051  1.0086 -0.5922 -0.2394
  101MOL0     C13529   2.938  -0.627  -0.086  0.2616 -0.3516 -0.6470
  101MOL0     O13530   2.804  -0.644  -0.093 -0.7001  0.1541 -0.1055
  101MOL0     C13531   2.730  -0.591  -0.193 -0.1608  0.5636  0.4981
  101MOL0     C13532   2.614  -0.660  -0.213  1.1341  0.0342  0.7164
  101MOL0     C13533   2.531  -0.631  -0.325  0.3454 -0.9633  0.2274
  101MOL0     C13534   2.569  -0.520  -0.402 -0.4771 -0.1548  0.1860
  101MOL0     O13535   2.474  -0.502  -0.502  0.7130 -0.2449  0.1602
  101MOL0     C13536   2.493  -0.401  -0.601  0.2763  0.4019  0.3495
  101MOL0     C13537   2.423  -0.276  -0.562  0.1188 -0.1268  0.0391
  101MOL0     C13538   2.273  -0.299  -0.542 -0.6029 -0.1700  0.2230
  101MOL0     C13539   2.207  -0.167  -0.540  0.8669  0.4489  0.8888
  101MOL0     C13540   2.055  -0.184  -0.558  0.9898 -0.2924  0.2472
  101MOL0     C13541   1.990  -0.042  -0.565  0.0538  0.5704 -0.5641
  101MOL0     C13542   1.835  -0.066  -0.548  0.4441 -0.0313  0.2421
  101MOL0     C13543   1.770   0.069  -0.521  0.2039  0.2709  0.3478
  101MOL0    Cl13544   1.793   0.135  -0.357  0.0380 -0.1734  0.1880
  101MOL0     C13545   2.685  -0.441  -0.371  0.2958 -0.5117 -0.1954
  101MOL0     C13546   2.767  -0.476  -0.267 -0.3868 -0.1197  0.3547
  101MOL0     O13547   3.019  -0.631  -0.178 -0.8603 -0.2741 -0.3635
  101MOL0     C13548   2.893  -0.529   0.142  0.6849  0.1058 -0.5787
  101MOL0     C13549   2.936  -0.504   0.271  0.2265  0.0320 -0.1868
  101MOL0     N13550   2.944   0.014   0.821  0.3050  0.2561  0.6316
  101MOL0     N13551   2.952   0.128   0.876  0.6082  0.2910  0.6131
  101MOL0     C13552   2.860   0.990   1.180  0.1039  0.3365 -0.0523
  101MOL0     C13553   2.767   0.939   1.083  0.6285 -0.6874  1.0601
  101MOL0     C13554   2.602   1.040   0.657 -0.7079  0.2964  0.3873
  101MOL0     C13555   2.499   1.132   0.628  0.7317  0.3550 -0.4282
  101MOL0     C13556   2.413   1.099   0.519  0.2610 -0.8423  0.3941
  101MOL0     C13557   2.433   0.984   0.435  0.8404  0.5083  0.3439
  101MOL0     O13558   2.346   0.978   0.330 -0.6367  0.5315  0.7276
  101MOL0     C13559   2.378   0.877   0.226  0.3727  0.9714  1.3370
  101MOL0     C13560   2.257   0.879   0.118  0.0220 -0.3540  0.1071
  101MOL0     C13561   2.314   0.937  -0.021  0.7960  0.7461  0.2099
  101MOL0     C13562   2.370   1.077   0.008  0.3041  0.3851 -0.4873
  101MOL0     C13563   2.395   1.159  -0.114 -0.0278  0.6739  1.1128
  101MOL0     C13564   2.432   1.222  -0.220 -0.5043  0.4669 -0.4694
  101MOL0     C13565   2.531   0.899   0.467  0.3599  0.1108  0.2365
  101MOL0     C13566   2.621   0.921   0.578  0.8046  0.4906 -0.5394
  101MOL0     C13567   2.745   0.832   0.596  0.0435 -0.0966  0.3786
  101MOL0     H13568   2.938   1.055   0.816 -3.7843  0.9756 -1.2099
  101MOL0     H13569   3.107   1.113   0.996 -2.0536  5.2938 -1.0218
  101MOL0     H13570   3.162   0.979   1.431  1.1931  0.8035 -0.7493
  101MOL0     H13571   3.055   0.888   1.354  2.8298 -2.1170 -0.9236
  101MOL0     H13572   3.331   0.886   1.293  0.6108  0.9353 -0.9515
  101MOL0     H13573   3.275   0.998   1.170  4.1045  0.9614  2.7400
  101MOL0     H13574   3.252   0.771   1.057  0.1696 -3.2660  1.0516
  101MOL0     H13575   3.087   0.810   1.112 -0.6519  0.0595  2.5061
  101MOL0     H13576   3.299   0.637   1.248  0.9345  1.5279  5.3420
  101MOL0     H13577   3.175   0.699   1.351 -0.0640  1.1398  0.4905
  101MOL0     H13578   3.094   0.488   1.252  1.6130  1.8110  2.1535
  101MOL0     H13579   3.018   0.597   1.144  1.9922  2.4106 -2.6414
  101MOL0     H13580   3.158   0.550   0.977 -1.9110 -1.4040 -1.3557
  101MOL0     H13581   3.301   0.487   1.066  0.2035 -2.2973 -4.1778
  101MOL0     H13582   3.028   0.350   1.080  0.2855  0.0953 -0.3858
  101MOL0     H13583   3.179   0.266   1.090  5.7203  2.8567  3.2374
  101MOL0     H13584   3.058   0.381   0.842  2.4084  0.3543 -0.6368
  101MOL0     H13585   3.226   0.324   0.834  0.6762 -0.2012  0.3821
  101MOL0     H13586   3.259   0.061   0.800  0.5045 -2.5920 -2.2429
  101MOL0     H13587   3.082  -0.128   0.595  0.0652 -2.8949 -0.0419
  101MOL0     H13588   3.230  -0.137   0.688 -0.1895 -0.2656 -6.0385
  101MOL0     H13589   3.110  -0.290   0.856 -0.3717  1.5506  0.3926
  101MOL0     H13590   2.963  -0.276   0.772  0.0577  0.8228  3.7138
  101MOL0     H13591   3.127  -0.487   0.716 -0.2318 -0.7390 -1.3041
  101MOL0     H13592   3.220  -0.377   0.618  0.0931 -0.8446 -0.2137
  101MOL0     H13593   2.993  -0.336   0.479 -0.7084 -0.2433  0.3465
  101MOL0     H13594   2.939  -0.474   0.574  2.3160 -3.5382  1.6216
  101MOL0     H13595   3.240  -0.646   0.264 -1.4325 -0.3678  2.3598
  101MOL0     H13596   3.172  -0.712   0.044  2.1910 -0.9642  2.8306
  101MOL0     H13597   2.585  -0.743  -0.149  0.4777 -0.0627  0.2955
  101MOL0     H13598   2.444  -0.691  -0.348 -0.3254 -1.8659  4.3754
  101MOL0     H13599   2.599  -0.383  -0.621 -0.1958  2.5800 -0.4729
  101MOL0     H13600   2.457  -0.438  -0.697 -0.9965  1.3483  0.4333
  101MOL0     H13601   2.468  -0.220  -0.480 -2.4329 -0.9962  2.1792
  101MOL0     H13602   2.440  -0.211  -0.649  2.1041 -3.7157 -2.5231
  101MOL0     H13603   2.238  -0.347  -0.633 -0.4911 -0.2921  0.2458
  101MOL0     H13604   2.234  -0.355  -0.456 -0.2784 -1.9374 -0.7421
  101MOL0     H13605   2.243  -0.100  -0.619 -4.6039  3.9380  0.7879
  101MOL0     H13606   2.230  -0.136  -0.438  3.8561 -0.1242  0.4820
  101MOL0     H13607   2.023  -0.238  -0.469  2.2627 -0.3586  0.6857
  101MOL0     H13608   2.034  -0.248  -0.644 -3.4768 -1.1807  1.7337
  101MOL0     H13609   2.039   0.015  -0.485  1.2897 -1.9579  0.6019
  101MOL0     H13610   2.001   0.003  -0.664  1.6436 -0.4736 -0.9122
  101MOL0     H13611   1.823  -0.134  -0.463 -0.7221  0.2003  0.2821
  101MOL0     H13612   1.796  -0.110  -0.640  1.2635 -2.4299  0.9645
  101MOL0     H13613   1.806   0.132  -0.604  1.1054 -2.3096 -1.3239
  101MOL0     H13614   1.661   0.064  -0.527  0.2491 -0.7845  0.2581
  101MOL0     H13615   2.696  -0.350  -0.430  0.4835 -0.7054 -0.4648
  101MOL0     H13616   2.844  -0.404  -0.241 -2.9774  1.5860  4.2488
  101MOL0     H13617   2.798  -0.486   0.110  0.3436 -0.2110  0.0035
  101MOL0     H13618   2.867  -0.454   0.338 -0.9529 -1.4398 -0.2601
  101MOL0     H13619   2.835   0.986   1.286  2.4136 -0.2190  0.5214
  101MOL0     H13620   2.664   0.909   1.097 -0.2163  0.7402 -1.3807
  101MOL0     H13621   2.480   1.222   0.685  3.2704 -0.0198  1.1356
  101MOL0     H13622   2.334   1.167   0.488 -2.3017 -4.7308 -2.6533
  101MOL0     H13623   2.385   0.773   0.259  1.4707  1.0388  1.3616
  101MOL0     H13624   2.471   0.902   0.174 -1.8913  1.6932 -2.8529
  101MOL0     H13625   2.184   0.956   0.146 -0.6974 -0.7517 -0.6496
  101MOL0     H13626   2.222   0.776   0.106  1.7985 -0.9421 -0.3778
  101MOL0     H13627   2.255   0.928  -0.112  0.8630  0.4865  0.1921
  101MOL0     H13628   2.405   0.882  -0.047  2.0962  2.1044  1.6363
  101MOL0     H13629   2.291   1.131   0.060 -0.0447  1.5525 -2.1617
  101MOL0     H13630   2.464   1.075   0.063 -1.2837  4.2035  2.9009
  101MOL0     H13631   2.453   1.278  -0.309 -0.9717  0.7753 -0.3888
  101MOL0     H13632   2.543   0.807   0.411 -0.8718  1.1779 -1.9085
  101MOL0     H13633   2.747   0.767   0.684  2.9964 -2.5777 -1.3141
  101MOL0     H13634   2.753   0.765   0.510  0.2336 -1.7826  1.6619
  101MOL0     H13635   2.837   0.891   0.595 -0.5303  0.8070  0.4899
  102MOL0     O13636  10.280   5.106   0.288  0.6383 -0.4691 -0.1516
  102MOL0     C13637  10.371   5.062   0.217 -0.7675 -0.4800  0.9136
  102MOL0     O13638  10.449   4.958   0.245 -0.7428 -0.1489  0.4964
  102MOL0     C13639  10.420   4.863   0.338 -0.0197 -0.5582 -1.0699
  102MOL0     C13640  10.287   4.836   0.388 -0.9626 -0.3541  0.7607
  102MOL0     C13641  10.273   4.746   0.494  0.6813 -0.0918 -0.5758
  102MOL0     C13642  10.385   4.677   0.542 -1.0143  0.3232 -1.0288
  102MOL0     O13643  10.394   4.594   0.654  0.4894 -0.0005  0.1564
  102MOL0     C13644  10.300   4.480   0.646  0.1472 -0.6737 -0.0708
  102MOL0     C13645  10.312   4.405   0.781  0.1892  1.1182 -0.0721
  102MOL0     C13646  10.253   4.475   0.907  1.1762  0.4471  0.9454
  102MOL0     C13647  10.097   4.481   0.875  0.1901 -0.9643  0.1125
  102MOL0     C13648  10.027   4.585   0.965 -0.6684  0.3234  0.0265
  102MOL0     C13649   9.880   4.595   0.915 -0.9291  0.0788  0.5939
  102MOL0     C13650   9.796   4.694   1.011 -0.4788  0.8561 -0.5802
  102MOL0     C13651   9.832   4.846   1.017 -0.1819  1.3002  1.2843
  102MOL0     N13652   9.864   4.897   0.877 -0.6194  0.5713  0.2240
  102MOL0     C13653   9.794   4.866   0.764 -0.8975 -0.2432 -0.3199
  102MOL0     C13654   9.873   4.887   0.654 -0.6464 -0.3512  0.2158
  102MOL0     C13655   9.843   4.861   0.516 -0.7940 -0.1340  0.3827
  102MOL0     C13656   9.792   4.985   0.435  0.5512 -0.8443 -0.0578
  102MOL0     C13657   9.864   5.126   0.462  0.5116 -0.5087 -0.0709
  102MOL0     C13658   9.812   5.235   0.358 -0.4268  0.5024  0.1427
  102MOL0     O13659   9.909   5.336   0.365 -0.4233 -0.4257 -0.2271
  102MOL0     C13660   9.879   5.466   0.318 -0.3084 -0.1318  0.3288
  102MOL0     C13661   9.989   5.541   0.268  0.4802 -0.2749 -0.1074
  102MOL0     C13662   9.979   5.676   0.230 -0.2409  0.0621  0.0309
  102MOL0     C13663   9.854   5.738   0.240 -0.3589  0.2747 -0.6063
  102MOL0     C13664   9.837   5.884   0.214  0.2475  0.2815 -0.0125
  102MOL0     O13665   9.721   5.932   0.254  0.5467  0.0746  0.1338
  102MOL0     C13666   9.690   6.065   0.286 -0.5255 -1.4538  0.0298
  102MOL0     C13667   9.780   6.173   0.289 -0.3774  0.0851  0.2096
  102MOL0     C13668   9.739   6.305   0.322  0.4406  0.3688  0.6859
  102MOL0     C13669   9.607   6.331   0.331  0.6517 -0.3780  0.2155
  102MOL0     O13670   9.568   6.459   0.363  0.7456 -0.0068  0.6368
  102MOL0     C13671   9.428   6.488   0.355 -0.2282 -1.0864  0.6204
  102MOL0     C13672   9.410   6.636   0.309  0.0325 -0.1424 -0.6580
  102MOL0     C13673   9.290   6.702   0.395 -0.7512  0.1627 -0.3052
  102MOL0     C13674   9.308   6.854   0.396  0.6633 -0.5833 -0.8861
  102MOL0     C13675   9.203   6.913   0.487  0.0189  1.1838  0.7338
  102MOL0     C13676   9.228   7.059   0.479 -0.1792  0.4730 -0.2634
  102MOL0     C13677   9.110   7.144   0.540  0.2931  0.1415  0.0214
  102MOL0     C13678   9.091   7.121   0.685 -0.5284 -0.0451  0.5886
  102MOL0    Cl13679   8.927   7.168   0.735  0.1412  0.4352 -0.2800
  102MOL0     C13680   9.511   6.227   0.328  0.1418  1.3668 -0.3214
  102MOL0     C13681   9.551   6.094   0.312 -0.3592  0.4354  0.1166
  102MOL0     O13682   9.922   5.958   0.166  0.5839  0.7260  0.4135
  102MOL0     C13683   9.747   5.660   0.282 -0.0097 -0.6084  0.0051
  102MOL0     C13684   9.759   5.533   0.331  0.3753  0.9710 -0.3845
  102MOL0     N13685  10.003   4.910   0.708 -0.4660  0.8717 -0.4364
  102MOL0     N13686   9.992   4.925   0.840  0.4307  0.4066 -0.4959
  102MOL0     C13687  10.510   4.695   0.476  0.0929  0.4459  0.3538
  102MOL0     C13688  10.528   4.786   0.374  0.4835 -0.3129  0.0764
  102MOL0     C13689  10.409   5.141   0.088  0.0288 -0.3802  0.2546
  102MOL0     C13690  10.516   5.089   0.006  0.1225  0.2816 -1.2471
  102MOL0     C13691  10.544   5.143  -0.115 -0.8604  0.2844  0.7663
  102MOL0     C13692  10.476   5.256  -0.163 -0.7566 -0.0080  0.2935
  102MOL0     O13693  10.528   5.300  -0.281 -0.3722 -0.7555  0.0764
  102MOL0     C13694  10.453   5.406  -0.337  0.7357  0.1963  1.3782
  102MOL0     C13695  10.513   5.455  -0.462  0.3164  0.2135 -0.1919
  102MOL0     C13696  10.515   5.350  -0.571 -0.4057  0.3289  0.7761
  102MOL0     C13697  10.634   5.249  -0.560  0.6116  1.2660 -0.2753
  102MOL0     C13698  10.682   5.187  -0.683  0.1801 -0.1465 -0.5449
  102MOL0     C13699  10.712   5.136  -0.793  0.9285  0.4993  0.0033
  102MOL0     C13700  10.371   5.312  -0.077  0.0152 -0.3232  0.1722
  102MOL0     C13701  10.330   5.256   0.047 -0.2756  0.4720  0.3977
  102MOL0     C13702  10.213   5.318   0.124  0.1777 -0.2016 -0.3448
  102MOL0     H13703  10.195   4.880   0.350 -0.5784  0.2905  0.5635
  102MOL0     H13704  10.176   4.751   0.543 -1.0375 -4.5043 -2.9660
  102MOL0     H13705  10.201   4.517   0.618 -0.8740 -3.3731 -0.3113
  102MOL0     H13706  10.334   4.414   0.565 -4.2559 -4.3885  0.6951
  102MOL0     H13707  10.417   4.377   0.798 -0.9853 -4.5889  0.0302
  102MOL0     H13708  10.272   4.303   0.770 -1.4808  1.3363  2.9963
  102MOL0     H13709  10.294   4.576   0.896 -0.9866  1.1760 -1.4938
  102MOL0     H13710  10.273   4.438   1.008 -1.4810  2.9722  2.5622
  102MOL0     H13711  10.083   4.513   0.772 -0.5883  0.3107  0.5947
  102MOL0     H13712  10.048   4.383   0.884 -3.6675  0.3603 -3.5573
  102MOL0     H13713  10.045   4.564   1.071  0.3330  1.1426  0.0374
  102MOL0     H13714  10.078   4.680   0.946  2.1410 -1.3847 -1.6931
  102MOL0     H13715   9.880   4.610   0.807  3.0091 -1.5348  0.1872
  102MOL0     H13716   9.820   4.505   0.925 -1.9398  0.2223 -3.0050
  102MOL0     H13717   9.819   4.654   1.110  2.8632  1.6916 -0.9034
  102MOL0     H13718   9.692   4.676   0.986  0.3628 -0.3763 -3.6739
  102MOL0     H13719   9.749   4.895   1.069 -2.7605  1.9170 -2.9201
  102MOL0     H13720   9.922   4.857   1.077  1.0174  0.6608 -0.3239
  102MOL0     H13721   9.695   4.823   0.771 -2.0242  2.4075  2.1449
  102MOL0     H13722   9.934   4.823   0.468  0.8778  2.2270  1.4955
  102MOL0     H13723   9.767   4.783   0.509  1.3849 -2.4261  0.5406
  102MOL0     H13724   9.815   4.964   0.330  0.6049 -0.7923 -0.0564
  102MOL0     H13725   9.683   4.979   0.436  0.5981 -2.1279 -0.7104
  102MOL0     H13726   9.972   5.123   0.446  0.4252  1.9545 -1.7314
  102MOL0     H13727   9.841   5.156   0.565 -3.9266  1.4648 -1.3386
  102MOL0     H13728   9.713   5.274   0.386  0.2023  1.6309  0.8954
  102MOL0     H13729   9.814   5.194   0.257  0.0497  3.3755 -1.1219
  102MOL0     H13730  10.087   5.494   0.266  1.6076  1.4117  4.0623
  102MOL0     H13731  10.071   5.726   0.199 -0.6715 -0.1191 -1.6362
  102MOL0     H13732   9.880   6.156   0.252 -0.4020 -0.6356  0.4569
  102MOL0     H13733   9.802   6.392   0.338  1.2374 -0.1015  0.2049
  102MOL0     H13734   9.371   6.427   0.283  1.1242  0.3795 -1.8292
  102MOL0     H13735   9.371   6.474   0.447 -1.1852 -3.8419 -0.2587
  102MOL0     H13736   9.501   6.691   0.289 -0.2399  1.7206  2.5790
  102MOL0     H13737   9.374   6.629   0.206 -2.4406 -0.1459  0.1173
  102MOL0     H13738   9.196   6.689   0.340 -0.2983 -2.6838 -0.5440
  102MOL0     H13739   9.283   6.661   0.496  2.1203  0.7646  0.2171
  102MOL0     H13740   9.299   6.893   0.295  1.2688  2.8570  0.2457
  102MOL0     H13741   9.408   6.894   0.419  0.7269 -2.1296  2.0305
  102MOL0     H13742   9.199   6.870   0.588 -3.6284  3.4767  1.7592
  102MOL0     H13743   9.104   6.892   0.445  0.6147  0.0063 -0.1209
  102MOL0     H13744   9.323   7.077   0.530 -0.3647 -0.6571  0.5379
  102MOL0     H13745   9.252   7.078   0.374  2.5838 -2.3762 -0.3140
  102MOL0     H13746   9.027   7.105   0.481 -0.1163  0.1074  0.6129
  102MOL0     H13747   9.124   7.250   0.517 -0.2613  0.2847  0.3325
  102MOL0     H13748   9.096   7.013   0.702  2.2210 -0.6207 -2.7025
  102MOL0     H13749   9.169   7.183   0.730  0.2143  1.7239 -2.8726
  102MOL0     H13750   9.404   6.232   0.345 -0.1819 -0.7629 -1.2962
  102MOL0     H13751   9.476   6.016   0.311  0.4379 -0.3442  0.0240
  102MOL0     H13752   9.653   5.712   0.269 -0.0555  0.0636  2.4291
  102MOL0     H13753   9.668   5.491   0.371 -0.3762 -0.2428 -3.0898
  102MOL0     H13754  10.599   4.645   0.513  0.2308 -0.4245 -1.0955
  102MOL0     H13755  10.625   4.793   0.327 -0.5694  2.0605 -1.9698
  102MOL0     H13756  10.579   5.010   0.043  2.0761  2.6975  0.9198
  102MOL0     H13757  10.622   5.100  -0.176 -2.7006  2.2863 -3.3406
  102MOL0     H13758  10.439   5.490  -0.269  2.1061  1.6252 -0.0234
  102MOL0     H13759  10.352   5.369  -0.355  1.2058  0.1283 -1.5147
  102MOL0     H13760  10.607   5.498  -0.428  0.8126 -1.8041  1.1984
  102MOL0     H13761  10.456   5.542  -0.496  3.1145  1.2971 -2.5436
  102MOL0     H13762  10.511   5.414  -0.660  0.5058  0.8306  1.0782
  102MOL0     H13763  10.426   5.286  -0.574  0.5645 -1.2327 -3.9628
  102MOL0     H13764  10.706   5.294  -0.491  1.2635  2.9514 -1.9684
  102MOL0     H13765  10.584   5.170  -0.505 -1.8824  3.0926  0.2774
  102MOL0     H13766  10.733   5.093  -0.888  2.7349  2.3693 -0.5282
  102MOL0     H13767  10.313   5.402  -0.094  0.9590  0.4061  0.7002
  102MOL0     H13768  10.252   5.371   0.211 -2.8049  2.1988 -0.2956
  102MOL0     H13769  10.178   5.405   0.067  0.3354 -0.8918 -1.5275
  102MOL0     H13770  10.136   5.242   0.135 -0.6051  0.5422 -0.6233
  103MOL0     O13771   0.855   4.906   4.284  0.2971 -0.1935  0.6263
  103MOL0     C13772   0.823   4.843   4.383 -1.4238  0.4775  0.7183
  103MOL0     O13773   0.776   4.719   4.382 -0.6890  0.6118 -0.1899
  103MOL0     C13774   0.797   4.658   4.264 -0.5924  0.2621  0.7779
  103MOL0     C13775   0.689   4.665   4.166  0.3981 -0.5541  1.2032
  103MOL0     C13776   0.704   4.593   4.045  0.7270  0.2676  0.8751
  103MOL0     C13777   0.816   4.511   4.018 -0.1909 -0.1701  0.2122
  103MOL0     O13778   0.814   4.454   3.892 -0.1291 -0.7542  0.5113
  103MOL0     C13779   0.826   4.315   3.882  0.1463  0.7539  0.6149
  103MOL0     C13780   0.681   4.268   3.859 -0.7085  0.3492  0.1575
  103MOL0     C13781   0.662   4.111   3.877  0.2549  0.1712 -0.6097
  103MOL0     C13782   0.600   4.060   3.752 -0.1847  0.3447  0.3762
  103MOL0     C13783   0.634   3.912   3.719  0.9469 -1.0138 -0.5448
  103MOL0     C13784   0.592   3.877   3.587 -0.9014  0.1650  0.0200
  103MOL0     C13785   0.614   3.731   3.558  0.7475  0.7629  0.2313
  103MOL0     C13786   0.764   3.687   3.539  0.1412  0.1154  0.8399
  103MOL0     N13787   0.766   3.535   3.528 -0.9412 -0.4114  0.2661
  103MOL0     C13788   0.731   3.441   3.618 -0.1490 -0.0741  0.0919
  103MOL0     C13789   0.791   3.335   3.580 -0.3088  0.2686  0.9275
  103MOL0     C13790   0.797   3.227   3.680  0.0317  0.2183  1.2497
  103MOL0     C13791   0.870   3.279   3.806 -0.9595  0.3874  0.1475
  103MOL0     C13792   0.913   3.153   3.890 -0.0211 -0.9962 -0.1159
  103MOL0     C13793   0.969   3.205   4.028  1.1183 -0.2479  0.5563
  103MOL0     O13794   0.985   3.094   4.120  0.5376  0.9268  1.1576
  103MOL0     C13795   1.031   3.109   4.250 -0.7538  0.5407 -0.4994
  103MOL0     C13796   1.057   3.229   4.320  0.7589 -0.0578  0.3620
  103MOL0     C13797   1.134   3.233   4.432 -0.0767  0.4008  0.7087
  103MOL0     C13798   1.185   3.112   4.491  0.6801  0.0064 -0.4584
  103MOL0     C13799   1.256   3.130   4.616 -0.5856  0.1096  0.1463
  103MOL0     O13800   1.281   3.017   4.690  0.5129  0.0531 -0.3857
  103MOL0     C13801   1.343   3.020   4.808 -0.8014  0.1764  0.0767
  103MOL0     C13802   1.315   3.116   4.901  0.8733 -0.6051 -0.1632
  103MOL0     C13803   1.380   3.130   5.025  0.2456 -1.2058  0.7295
  103MOL0     C13804   1.485   3.027   5.053  0.5478 -0.2300 -0.2678
  103MOL0     O13805   1.535   3.029   5.186 -0.1986  0.1927  0.8784
  103MOL0     C13806   1.444   2.964   5.283  0.6133  0.3700  0.6103
  103MOL0     C13807   1.474   3.027   5.427 -0.2541  0.7198 -0.2912
  103MOL0     C13808   1.426   3.167   5.453  0.0615 -0.1924  0.4809
  103MOL0     C13809   1.384   3.177   5.598  0.5320 -0.4932  0.1516
  103MOL0     C13810   1.378   3.325   5.644  0.1802  0.9888  0.9903
  103MOL0     C13811   1.261   3.400   5.567 -0.7895 -0.9579 -0.0665
  103MOL0     C13812   1.255   3.535   5.620 -0.1229  0.1542  0.4235
  103MOL0     C13813   1.161   3.626   5.541 -0.8708  0.7152  0.1367
  103MOL0    Cl13814   1.175   3.802   5.606 -0.0897 -0.2638 -0.1226
  103MOL0     C13815   1.524   2.941   4.956 -0.0532 -0.9434  0.5613
  103MOL0     C13816   1.454   2.930   4.835 -0.0573 -0.1662  0.1358
  103MOL0     O13817   1.288   3.248   4.646 -1.6339 -0.1064  0.7328
  103MOL0     C13818   1.152   2.995   4.435  1.0973  0.0809 -0.2385
  103MOL0     C13819   1.075   2.994   4.317  0.1783  0.1173  0.3508
  103MOL0     N13820   0.855   3.347   3.452  0.5367 -0.3456  0.1561
  103MOL0     N13821   0.837   3.475   3.425  0.5357  0.4703  0.5150
  103MOL0     C13822   0.919   4.514   4.111 -0.1447 -0.8430  0.4049
  103MOL0     C13823   0.905   4.577   4.236  1.0333  0.4468  0.5923
  103MOL0     C13824   0.837   4.912   4.509  0.3595 -0.1409  0.3954
  103MOL0     C13825   0.723   4.907   4.598 -0.2193  0.5400 -0.8981
  103MOL0     C13826   0.726   4.956   4.729 -0.4083 -1.2299  1.0443
  103MOL0     C13827   0.832   5.048   4.753 -0.2389  0.0399 -0.5644
  103MOL0     O13828   0.849   5.122   4.867  0.4685 -0.0904 -0.3902
  103MOL0     C13829   0.732   5.154   4.950 -0.7555  0.0172  0.3057
  103MOL0     C13830   0.779   5.229   5.075  0.2932  0.0739 -0.8320
  103MOL0     C13831   0.852   5.358   5.040  0.0235  0.2937  0.2095
  103MOL0     C13832   0.926   5.405   5.166 -0.8527  0.9428 -1.2934
  103MOL0     C13833   0.988   5.534   5.159  0.1219  0.5446 -0.3419
  103MOL0     C13834   1.057   5.625   5.150 -0.0388 -0.0390 -0.0616
  103MOL0     C13835   0.937   5.063   4.667 -0.1413 -0.2085  0.2497
  103MOL0     C13836   0.947   4.997   4.541 -0.5634 -0.1826  0.2166
  103MOL0     C13837   1.071   5.015   4.452  0.4988 -0.2905 -0.2276
  103MOL0     H13838   0.598   4.724   4.169 -1.1870 -2.8487  1.5513
  103MOL0     H13839   0.628   4.598   3.968  0.1446  1.3600  1.4937
  103MOL0     H13840   0.881   4.305   3.788 -2.4919  0.9364 -1.0253
  103MOL0     H13841   0.873   4.265   3.968 -2.6444 -2.4562  0.4975
  103MOL0     H13842   0.641   4.297   3.761 -0.9467 -0.8267 -0.1003
  103MOL0     H13843   0.629   4.312   3.944  3.2709 -1.3652  3.8443
  103MOL0     H13844   0.605   4.096   3.969  0.3870 -1.3426 -0.7360
  103MOL0     H13845   0.753   4.051   3.886  1.0071  1.1238 -1.6554
  103MOL0     H13846   0.491   4.073   3.757 -0.5082 -0.8169 -2.2734
  103MOL0     H13847   0.630   4.114   3.662 -1.5877 -0.1915 -0.4347
  103MOL0     H13848   0.740   3.892   3.741  1.4755  1.9853  0.0293
  103MOL0     H13849   0.587   3.853   3.798  1.3495 -1.4012 -0.5864
  103MOL0     H13850   0.484   3.888   3.583 -1.1439 -0.8788 -5.9495
  103MOL0     H13851   0.622   3.952   3.513  1.9476  0.3276  1.2011
  103MOL0     H13852   0.561   3.713   3.464  0.1449  1.2760  0.4611
  103MOL0     H13853   0.564   3.676   3.638 -0.6727 -4.9688 -3.9861
  103MOL0     H13854   0.798   3.742   3.451  1.2067  0.6076  1.5407
  103MOL0     H13855   0.820   3.706   3.632  2.1693  0.9836 -0.4966
  103MOL0     H13856   0.690   3.449   3.718  2.5033  1.1703  1.1782
  103MOL0     H13857   0.697   3.187   3.699 -0.2979  0.4263  0.0419
  103MOL0     H13858   0.850   3.145   3.631 -1.9783 -0.3256 -0.1390
  103MOL0     H13859   0.950   3.348   3.779  0.0168  0.9638  3.9021
  103MOL0     H13860   0.807   3.340   3.872  0.4185 -1.7464  3.7162
  103MOL0     H13861   0.978   3.085   3.835  2.4443  0.6194  0.6475
  103MOL0     H13862   0.821   3.099   3.912 -1.8574  2.0315  0.2903
  103MOL0     H13863   0.898   3.270   4.081  1.9362  0.0561  1.3028
  103MOL0     H13864   1.058   3.265   4.009  2.4289 -2.6883 -1.6786
  103MOL0     H13865   1.004   3.321   4.295 -0.8224 -0.6281  1.4731
  103MOL0     H13866   1.158   3.329   4.475  0.3201  0.2694  0.7853
  103MOL0     H13867   1.227   3.177   4.882 -0.6217 -2.8230 -0.7268
  103MOL0     H13868   1.350   3.199   5.104  0.2206  1.0316 -1.1090
  103MOL0     H13869   1.337   2.977   5.264  0.6143 -0.8255 -0.3570
  103MOL0     H13870   1.464   2.857   5.273 -0.1851  0.0559  2.1013
  103MOL0     H13871   1.439   2.955   5.501  1.1298 -1.4376 -1.6175
  103MOL0     H13872   1.582   3.039   5.441 -0.3385 -0.4495  1.5722
  103MOL0     H13873   1.502   3.241   5.429  0.4881 -0.9595 -0.5950
  103MOL0     H13874   1.333   3.186   5.398 -1.3253 -0.8556  2.4475
  103MOL0     H13875   1.456   3.127   5.664 -0.2370  0.5429  1.8349
  103MOL0     H13876   1.291   3.122   5.618  1.2347 -2.3316 -1.2895
  103MOL0     H13877   1.475   3.374   5.643 -1.9214  5.6875  0.7903
  103MOL0     H13878   1.338   3.337   5.745 -0.4057  1.3298  0.7259
  103MOL0     H13879   1.266   3.413   5.458  2.2596  1.7647  0.2377
  103MOL0     H13880   1.173   3.337   5.583  0.0817 -2.0756  0.3979
  103MOL0     H13881   1.348   3.593   5.610 -0.9179  2.1282  3.2271
  103MOL0     H13882   1.227   3.527   5.725  2.4657  0.8686  1.2540
  103MOL0     H13883   1.177   3.626   5.433 -1.0531  0.8199  0.1098
  103MOL0     H13884   1.056   3.600   5.556 -1.2581  2.0623 -0.1568
  103MOL0     H13885   1.618   2.890   4.974  1.8227  1.5104 -1.5390
  103MOL0     H13886   1.499   2.851   4.777  2.5631 -0.0814  1.8413
  103MOL0     H13887   1.178   2.900   4.480  1.3184  0.3744  0.2601
  103MOL0     H13888   1.052   2.898   4.272  1.9467 -1.3293  2.3165
  103MOL0     H13889   1.006   4.451   4.094  0.1548 -0.2021 -0.4752
  103MOL0     H13890   0.979   4.564   4.314 -3.0893  0.3708  5.0279
  103MOL0     H13891   0.628   4.865   4.565 -0.4575 -1.3953  1.9098
  103MOL0     H13892   0.640   4.947   4.795 -0.4500 -1.8713  0.9151
  103MOL0     H13893   0.680   5.065   4.985 -1.8415  0.7408  0.5584
  103MOL0     H13894   0.668   5.221   4.892  0.4178  1.5702  0.7184
  103MOL0     H13895   0.835   5.160   5.139 -0.3033 -2.3843 -2.7986
  103MOL0     H13896   0.688   5.246   5.133 -0.1578  0.0547 -1.5189
  103MOL0     H13897   0.779   5.435   5.015  0.9727  1.2911  0.4324
  103MOL0     H13898   0.922   5.345   4.957  0.8743 -0.6769  1.0433
  103MOL0     H13899   0.862   5.406   5.254  0.2686  0.1178 -0.4288
  103MOL0     H13900   1.005   5.330   5.177  0.3900  2.2329 -1.2127
  103MOL0     H13901   1.117   5.706   5.114 -3.8297  1.4452 -3.8911
  103MOL0     H13902   1.016   5.133   4.693 -0.6954 -0.6236  3.5177
  103MOL0     H13903   1.148   5.072   4.504  0.8619 -0.6657 -0.3503
  103MOL0     H13904   1.106   4.918   4.413 -1.1110 -1.0722  0.2119
  103MOL0     H13905   1.033   5.078   4.371 -0.8622 -0.4700  0.2579
  104MOL0     O13906   9.978   5.381   6.814  0.0001 -0.1286  0.4049
  104MOL0     C13907  10.063   5.468   6.786  1.1095 -0.0515 -0.2003
  104MOL0     O13908  10.194   5.462   6.791 -0.1103  1.3387  0.2978
  104MOL0     C13909  10.230   5.329   6.812 -0.9790 -0.6100  1.1245
  104MOL0     C13910  10.277   5.280   6.929 -0.6857  0.5857 -0.7858
  104MOL0     C13911  10.325   5.144   6.953 -0.1988 -0.2199  0.8494
  104MOL0     C13912  10.317   5.055   6.845 -1.0711  0.7144  0.3616
  104MOL0     O13913  10.345   4.921   6.867 -0.4719 -0.6862 -0.2818
  104MOL0     C13914  10.401   4.845   6.751 -0.3004  0.8673  0.4237
  104MOL0     C13915  10.471   4.711   6.812  0.6236  0.5983 -0.5408
  104MOL0     C13916  10.501   4.607   6.701 -0.8616  0.4205 -0.3360
  104MOL0     C13917  10.372   4.537   6.667 -1.0484  0.2004 -0.1779
  104MOL0     C13918  10.394   4.459   6.538 -0.2986 -0.3150  0.3470
  104MOL0     C13919  10.266   4.369   6.516 -0.1189  0.3627 -0.3086
  104MOL0     C13920  10.253   4.306   6.380 -0.6925  0.2934 -0.5337
  104MOL0     C13921  10.329   4.176   6.367 -0.5420 -0.4079  0.3749
  104MOL0     N13922  10.466   4.191   6.310 -0.4348  0.0011 -0.9860
  104MOL0     C13923  10.579   4.143   6.373  0.2564  0.1509  0.0136
  104MOL0     C13924  10.686   4.198   6.304  0.7638  0.0580 -0.7864
  104MOL0     C13925  10.834   4.174   6.320 -0.2332 -0.2893 -0.6116
  104MOL0     C13926  10.895   4.173   6.458 -0.5652 -0.6734 -0.2156
  104MOL0     C13927  10.832   4.284   6.557 -0.3078  0.2100  0.2736
  104MOL0     C13928  10.873   4.423   6.526 -0.2165 -0.3834  0.0866
  104MOL0     O13929  10.867   4.484   6.657  0.4103 -0.8503 -0.2822
  104MOL0     C13930  10.838   4.619   6.660 -0.1769  0.4682  0.3144
  104MOL0     C13931  10.847   4.679   6.781 -0.3296 -0.2532 -0.4795
  104MOL0     C13932  10.811   4.810   6.810 -0.0419 -0.1450  0.9905
  104MOL0     C13933  10.762   4.890   6.708  1.3840  0.7844 -0.1204
  104MOL0     C13934  10.718   5.022   6.733 -0.9300  0.0113 -0.2595
  104MOL0     O13935  10.693   5.073   6.858 -0.2223  0.0284 -0.4668
  104MOL0     C13936  10.701   5.215   6.876 -0.2279 -0.2480  0.8447
  104MOL0     C13937  10.754   5.254   6.997 -0.5342 -0.6073 -0.0589
  104MOL0     C13938  10.752   5.389   7.030  0.4942  0.4758 -0.5094
  104MOL0     C13939  10.668   5.469   6.963 -1.3122 -0.1898  0.7686
  104MOL0     O13940  10.663   5.600   7.007  0.1522  0.3717  0.2919
  104MOL0     C13941  10.539   5.665   6.992 -0.3479  0.2423  0.0723
  104MOL0     C13942  10.533   5.764   7.116  0.2293 -0.3506 -0.4474
  104MOL0     C13943  10.399   5.831   7.128 -0.1135 -0.9108 -0.0882
  104MOL0     C13944  10.391   5.977   7.057 -1.3303 -0.6431  0.1224
  104MOL0     C13945  10.287   6.071   7.129 -0.7938  0.6064  0.2401
  104MOL0     C13946  10.334   6.112   7.271 -0.2174  0.2036  0.1364
  104MOL0     C13947  10.247   6.216   7.333  0.7621  0.7225  0.6478
  104MOL0     C13948  10.323   6.338   7.381  0.9592  0.0842 -0.0720
  104MOL0    Cl13949  10.218   6.445   7.467 -0.6055  0.5048  0.3761
  104MOL0     C13950  10.602   5.432   6.854  0.2304 -0.9269 -0.5036
  104MOL0     C13951  10.620   5.302   6.803  0.4577 -0.3964  0.0676
  104MOL0     O13952  10.682   5.074   6.629  0.6535 -0.2136 -0.3939
  104MOL0     C13953  10.744   4.830   6.582 -0.5696  1.4003  0.4344
  104MOL0     C13954  10.791   4.695   6.553  0.1860 -0.9931 -0.3064
  104MOL0     N13955  10.631   4.260   6.194 -0.5908  1.0031 -0.1038
  104MOL0     N13956  10.502   4.260   6.197 -0.6603  0.2929 -0.5901
  104MOL0     C13957  10.274   5.104   6.718  1.0586  1.3216  0.1029
  104MOL0     C13958  10.232   5.236   6.704  0.3310  0.3660  1.1184
  104MOL0     C13959   9.997   5.602   6.770  0.6348  0.5050  0.6413
  104MOL0     C13960   9.886   5.641   6.842 -0.2774 -0.3432 -0.2274
  104MOL0     C13961   9.830   5.765   6.811 -0.0571  0.3347  1.3771
  104MOL0     C13962   9.882   5.855   6.722 -0.0435 -0.6600 -0.2583
  104MOL0     O13963   9.841   5.988   6.712 -0.2834 -0.3713 -0.4045
  104MOL0     C13964   9.721   6.043   6.762  0.0550 -0.4972 -0.1290
  104MOL0     C13965   9.724   6.079   6.908  0.6932 -0.4856 -0.3551
  104MOL0     C13966   9.751   6.233   6.940 -0.2511  0.3497 -0.3886
  104MOL0     C13967   9.878   6.247   7.020  0.6595 -0.1577 -0.0678
  104MOL0     C13968  10.003   6.228   6.942  0.1764  0.5607 -0.0458
  104MOL0     C13969  10.090   6.191   6.867  0.1183 -0.1167  0.0385
  104MOL0     C13970  10.004   5.820   6.659  0.4887 -0.9461  0.3065
  104MOL0     C13971  10.062   5.694   6.677  0.2730  0.5442 -0.4128
  104MOL0     C13972  10.183   5.659   6.601  0.3381 -0.2832  0.5385
  104MOL0     H13973  10.279   5.358   7.005 -1.1855 -0.5339  0.4090
  104MOL0     H13974  10.369   5.113   7.048  0.7197  0.7117  0.7411
  104MOL0     H13975  10.322   4.801   6.690 -0.1628 -1.2625  1.6904
  104MOL0     H13976  10.475   4.897   6.689  0.3334 -0.8198 -0.3011
  104MOL0     H13977  10.403   4.673   6.889  2.5791  0.7830  1.3649
  104MOL0     H13978  10.570   4.737   6.849  0.5515  0.7908 -0.4874
  104MOL0     H13979  10.571   4.535   6.744 -2.6820 -0.2951  1.5948
  104MOL0     H13980  10.537   4.655   6.609 -1.3046 -0.7959 -1.1730
  104MOL0     H13981  10.345   4.471   6.750 -0.0266  1.1902  0.9888
  104MOL0     H13982  10.288   4.605   6.649 -1.1715 -0.0149 -0.4198
  104MOL0     H13983  10.407   4.531   6.457 -1.2845  1.9722  2.1154
  104MOL0     H13984  10.489   4.404   6.540  0.9971  1.5099 -3.1626
  104MOL0     H13985  10.261   4.294   6.595  0.4630  0.1709 -0.4501
  104MOL0     H13986  10.176   4.428   6.538 -0.7171 -0.3786 -0.7071
  104MOL0     H13987  10.275   4.380   6.303  0.8829  3.1940  2.4315
  104MOL0     H13988  10.150   4.275   6.359 -0.4405 -1.4401  0.5510
  104MOL0     H13989  10.334   4.117   6.459 -0.9540  0.4250  0.9461
  104MOL0     H13990  10.275   4.120   6.290 -0.8651  0.3065  0.0807
  104MOL0     H13991  10.592   4.094   6.469 -2.6636  0.0595  0.4540
  104MOL0     H13992  10.865   4.080   6.274 -0.1400 -0.8878  0.6482
  104MOL0     H13993  10.884   4.253   6.263 -1.9309  1.9452  0.8082
  104MOL0     H13994  10.882   4.079   6.513  1.1525  0.1224  1.7294
  104MOL0     H13995  11.003   4.191   6.453 -0.2110 -2.6590 -0.6487
  104MOL0     H13996  10.858   4.245   6.656 -0.0649 -1.8582 -0.5605
  104MOL0     H13997  10.723   4.293   6.565 -0.4338 -0.6553 -0.3124
  104MOL0     H13998  10.809   4.457   6.444  0.4497 -2.5068 -1.4085
  104MOL0     H13999  10.980   4.434   6.503 -0.0532  2.0758  1.5555
  104MOL0     H14000  10.872   4.603   6.854 -0.6003  0.4356  0.3385
  104MOL0     H14001  10.825   4.853   6.909 -0.7400  0.6601  0.7485
  104MOL0     H14002  10.804   5.192   7.071  1.1009 -0.0427 -0.6408
  104MOL0     H14003  10.802   5.422   7.120 -0.1779  0.5000 -0.1340
  104MOL0     H14004  10.527   5.701   6.889 -0.6074  0.3553  0.1386
  104MOL0     H14005  10.456   5.596   7.010  0.4851 -0.6208  0.6251
  104MOL0     H14006  10.543   5.688   7.195  1.2176 -1.9455 -2.0278
  104MOL0     H14007  10.617   5.834   7.118  1.3278 -1.6338  0.1284
  104MOL0     H14008  10.318   5.769   7.090 -0.3432 -0.4871 -0.2929
  104MOL0     H14009  10.377   5.838   7.235  2.3961  1.7725  0.4068
  104MOL0     H14010  10.348   5.949   6.961 -4.8634 -1.6997  1.8572
  104MOL0     H14011  10.490   6.021   7.039  0.0925 -2.1418  3.4891
  104MOL0     H14012  10.194   6.014   7.127 -1.7109  2.0724  0.0952
  104MOL0     H14013  10.272   6.160   7.066 -3.9136 -1.4353 -2.2293
  104MOL0     H14014  10.347   6.024   7.334 -1.0758  1.0330  1.5415
  104MOL0     H14015  10.429   6.165   7.262  0.2460 -0.9628 -3.9201
  104MOL0     H14016  10.196   6.169   7.417  1.3947 -2.3036 -0.5452
  104MOL0     H14017  10.181   6.244   7.251  1.0932  0.2339  0.2048
  104MOL0     H14018  10.376   6.307   7.471 -3.6395 -0.3292  2.8524
  104MOL0     H14019  10.379   6.390   7.302 -1.2464  2.1634 -0.3979
  104MOL0     H14020  10.531   5.493   6.799  0.8918 -1.2657 -1.7753
  104MOL0     H14021  10.558   5.272   6.719  3.4115  1.3195 -2.9981
  104MOL0     H14022  10.691   4.881   6.502 -1.8669  0.2953  0.5465
  104MOL0     H14023  10.790   4.657   6.452 -1.5447  0.3254 -0.8378
  104MOL0     H14024  10.279   5.044   6.627 -0.0007  0.4077  0.6266
  104MOL0     H14025  10.188   5.268   6.610 -1.7101 -0.4221  1.7655
  104MOL0     H14026   9.850   5.570   6.916  0.1183 -1.2161 -0.8635
  104MOL0     H14027   9.740   5.792   6.866 -1.3959  1.5807 -1.2519
  104MOL0     H14028   9.641   5.970   6.745 -0.5880  0.3159 -0.6756
  104MOL0     H14029   9.690   6.130   6.705 -1.9206  0.5775  2.4099
  104MOL0     H14030   9.790   6.011   6.963  1.6143  0.6786  0.0225
  104MOL0     H14031   9.623   6.070   6.949  1.7159 -0.1990  2.4644
  104MOL0     H14032   9.664   6.265   6.999  0.9787  0.2947  1.5192
  104MOL0     H14033   9.747   6.293   6.849 -4.2064 -0.5995 -1.0416
  104MOL0     H14034   9.876   6.347   7.062  2.9970 -0.5452  1.1372
  104MOL0     H14035   9.873   6.181   7.107 -2.6614  4.2437  3.5689
  104MOL0     H14036  10.170   6.166   6.799 -0.5519  0.2532 -0.9117
  104MOL0     H14037  10.057   5.888   6.594 -1.5100  1.3450  0.9248
  104MOL0     H14038  10.197   5.734   6.523  2.3695 -2.4016 -1.2965
  104MOL0     H14039  10.274   5.654   6.660  0.2901  0.0267  0.6375
  104MOL0     H14040  10.168   5.562   6.552  2.4164 -0.8087  0.8532
  105MOL0     O14041  11.027   1.484   3.489 -0.5134 -0.1610 -0.4022
  105MOL0     C14042  10.978   1.469   3.601 -0.7587 -1.1857 -0.3729
  105MOL0     O14043  10.850   1.427   3.629 -0.1646  0.0552  0.1904
  105MOL0     C14044  10.761   1.383   3.532 -1.9960 -0.8240 -0.3708
  105MOL0     C14045  10.759   1.436   3.405 -0.4312 -0.4842  0.0671
  105MOL0     C14046  10.686   1.374   3.307  0.0216  0.0170  0.5321
  105MOL0     C14047  10.601   1.264   3.340  1.5947 -0.2838 -0.3816
  105MOL0     O14048  10.527   1.213   3.239  0.2055  0.2329  0.2917
  105MOL0     C14049  10.480   1.073   3.234  0.5415 -0.2905  0.4165
  105MOL0     C14050  10.431   1.055   3.082 -0.1689  0.2880  0.1475
  105MOL0     C14051  10.543   1.023   2.979  0.0676  0.5372 -1.0596
  105MOL0     C14052  10.504   1.016   2.834 -0.9789 -0.4028 -0.9422
  105MOL0     C14053  10.631   1.012   2.749 -0.0473  0.3343 -0.5876
  105MOL0     C14054  10.618   1.036   2.596  0.1390  0.3654  0.2143
  105MOL0     C14055  10.572   0.920   2.505  0.9521  0.8034 -0.1199
  105MOL0     C14056  10.421   0.948   2.470  0.6546  0.4260 -0.1841
  105MOL0     N14057  10.358   0.838   2.401  0.6085 -0.8022  0.4630
  105MOL0     C14058  10.412   0.763   2.293  0.0023  0.0751  1.2994
  105MOL0     C14059  10.329   0.657   2.266  0.0491  0.8375  0.3877
  105MOL0     C14060  10.350   0.550   2.155  0.0249 -0.5133 -0.7185
  105MOL0     C14061  10.289   0.606   2.033  0.1081 -0.7790  0.3936
  105MOL0     C14062  10.306   0.509   1.911 -0.1176 -0.3441  0.1983
  105MOL0     C14063  10.212   0.531   1.794  0.4769  0.4860 -0.0604
  105MOL0     O14064  10.201   0.414   1.714 -0.4134 -0.1837  0.3175
  105MOL0     C14065  10.305   0.393   1.623 -0.2612 -0.6218 -0.1128
  105MOL0     C14066  10.308   0.260   1.584  0.1049  0.5442 -0.5405
  105MOL0     C14067  10.391   0.216   1.486  0.1154 -0.5494  0.5665
  105MOL0     C14068  10.475   0.301   1.412 -1.2361  0.6393  0.1498
  105MOL0     C14069  10.564   0.249   1.313 -0.1849 -0.6886 -0.0720
  105MOL0     O14070  10.572   0.122   1.324 -0.3839 -0.0421  0.7744
  105MOL0     C14071  10.627   0.032   1.235  0.5288 -0.2664  0.7226
  105MOL0     C14072  10.646   0.065   1.098  0.2904  0.0686 -0.0279
  105MOL0     C14073  10.688  -0.039   1.012 -0.5398  0.6253 -0.0935
  105MOL0     C14074  10.701  -0.175   1.057  0.4694 -0.0328 -0.3526
  105MOL0     O14075  10.725  -0.285   0.974  0.0544  0.0624 -0.2054
  105MOL0     C14076  10.672  -0.297   0.840 -0.4530 -0.6553  0.6266
  105MOL0     C14077  10.655  -0.441   0.801  0.2220 -0.6695  0.0444
  105MOL0     C14078  10.682  -0.452   0.647 -0.7012  0.4493  1.2417
  105MOL0     C14079  10.641  -0.594   0.597 -0.0620  0.3974 -0.2359
  105MOL0     C14080  10.624  -0.632   0.447  0.3908 -0.7112 -0.3002
  105MOL0     C14081  10.608  -0.778   0.422  0.3587  0.5871  0.0485
  105MOL0     C14082  10.541  -0.810   0.284 -0.3587 -1.1506 -0.2817
  105MOL0     C14083  10.485  -0.955   0.292 -0.2401 -0.2428  0.4392
  105MOL0    Cl14084  10.626  -1.066   0.298  0.2812 -0.3237 -0.3914
  105MOL0     C14085  10.686  -0.212   1.192  0.4388 -0.6132 -0.1421
  105MOL0     C14086  10.648  -0.104   1.283 -0.1129  0.6661 -0.2094
  105MOL0     O14087  10.619   0.329   1.236 -0.6931  0.6297 -0.3431
  105MOL0     C14088  10.464   0.438   1.457 -0.1336  0.0706 -0.7270
  105MOL0     C14089  10.380   0.483   1.560 -0.8042 -0.5696  0.0480
  105MOL0     N14090  10.227   0.668   2.354 -0.3580 -0.1661  0.2637
  105MOL0     N14091  10.235   0.778   2.427  0.5494 -0.5761  0.1382
  105MOL0     C14092  10.607   1.218   3.476  0.1831  0.6780  1.1043
  105MOL0     C14093  10.686   1.273   3.566  0.2017  0.3527 -0.0272
  105MOL0     C14094  11.058   1.536   3.719  0.8895  0.0250  0.5682
  105MOL0     C14095  11.192   1.577   3.709 -0.1296 -0.5531  0.4457
  105MOL0     C14096  11.253   1.641   3.809  0.9730  0.8764  0.1131
  105MOL0     C14097  11.189   1.664   3.932 -0.3283 -0.1611 -0.5019
  105MOL0     O14098  11.263   1.729   4.030  0.4946 -0.0519  0.5519
  105MOL0     C14099  11.411   1.757   4.035  0.6305 -0.0554  0.1215
  105MOL0     C14100  11.449   1.854   4.142 -0.1774 -0.3619  1.3266
  105MOL0     C14101  11.395   1.985   4.096  0.8855 -0.0882 -0.2758
  105MOL0     C14102  11.448   2.102   4.186 -0.7328 -0.4759  0.3091
  105MOL0     C14103  11.587   2.126   4.172  0.3176  0.0080  0.3191
  105MOL0     C14104  11.703   2.162   4.158  0.0792 -0.4755 -0.0058
  105MOL0     C14105  11.065   1.629   3.953 -1.4783  0.0039  0.4598
  105MOL0     C14106  10.997   1.571   3.849  0.0568  1.3555 -0.8638
  105MOL0     C14107  10.851   1.548   3.880 -0.0867 -0.3995 -0.6257
  105MOL0     H14108  10.809   1.531   3.389 -2.5604  1.7482  4.5747
  105MOL0     H14109  10.706   1.416   3.209  1.9495  0.1783  0.9540
  105MOL0     H14110  10.562   1.004   3.255  0.1582 -0.3164  1.9526
  105MOL0     H14111  10.402   1.046   3.306  0.1320 -3.6365 -1.1049
  105MOL0     H14112  10.371   1.136   3.040  2.5071  2.5293  0.3283
  105MOL0     H14113  10.377   0.961   3.095  2.7271 -1.4566  0.5627
  105MOL0     H14114  10.593   0.928   3.000 -0.9874 -0.4643 -2.7872
  105MOL0     H14115  10.621   1.097   2.993 -1.8921  2.5671 -0.2715
  105MOL0     H14116  10.440   0.932   2.805  0.0904 -1.9719  1.0485
  105MOL0     H14117  10.448   1.109   2.820 -1.0041 -0.3345 -0.4136
  105MOL0     H14118  10.707   1.078   2.791  1.4655 -2.5532  1.5308
  105MOL0     H14119  10.672   0.911   2.765  0.7582  0.5983 -0.9152
  105MOL0     H14120  10.573   1.132   2.572 -1.7759 -0.7392 -0.8914
  105MOL0     H14121  10.721   1.045   2.562  0.4637  0.7806  1.2697
  105MOL0     H14122  10.591   0.818   2.539 -1.8987  0.3022  0.2213
  105MOL0     H14123  10.631   0.923   2.412  1.4666 -2.7079 -0.0225
  105MOL0     H14124  10.376   0.984   2.563  0.5637  3.3416 -1.2264
  105MOL0     H14125  10.411   1.030   2.398 -1.8826  0.6642  0.3416
  105MOL0     H14126  10.513   0.758   2.252 -0.9555 -0.5864 -1.1312
  105MOL0     H14127  10.457   0.535   2.137 -0.3236 -0.0485 -3.5022
  105MOL0     H14128  10.301   0.463   2.201  2.2495 -0.8038  1.3483
  105MOL0     H14129  10.182   0.619   2.054 -0.1431 -0.1236 -1.1792
  105MOL0     H14130  10.325   0.706   2.006 -6.5853  2.3450  1.0016
  105MOL0     H14131  10.306   0.405   1.945  3.7161 -0.8295 -0.7798
  105MOL0     H14132  10.403   0.536   1.866 -2.5664  3.0291 -3.7516
  105MOL0     H14133  10.241   0.619   1.735 -0.9285 -0.1342 -1.7576
  105MOL0     H14134  10.114   0.559   1.833  0.4020  1.9250 -1.1797
  105MOL0     H14135  10.249   0.180   1.629 -1.4453  0.6522 -2.2274
  105MOL0     H14136  10.401   0.111   1.462  3.2217  0.2389 -2.4596
  105MOL0     H14137  10.619   0.160   1.054 -2.7035 -0.5434  0.2752
  105MOL0     H14138  10.700  -0.012   0.907  2.8694  4.2817  1.0189
  105MOL0     H14139  10.578  -0.242   0.833 -0.2274 -0.3039  0.3066
  105MOL0     H14140  10.744  -0.257   0.768 -2.2919 -0.9869 -1.5184
  105MOL0     H14141  10.727  -0.506   0.852 -0.6089  0.7963  3.4011
  105MOL0     H14142  10.551  -0.472   0.811  0.5463 -1.1325  2.5156
  105MOL0     H14143  10.628  -0.376   0.589 -0.5084 -1.8793 -2.2286
  105MOL0     H14144  10.788  -0.440   0.625 -0.6469  0.0877  1.2976
  105MOL0     H14145  10.558  -0.641   0.651  1.5884 -2.0516  0.3589
  105MOL0     H14146  10.713  -0.669   0.631 -2.1901 -1.0704  1.3190
  105MOL0     H14147  10.717  -0.601   0.398  1.0323 -1.1727  0.6018
  105MOL0     H14148  10.545  -0.568   0.407  1.1737  1.3226  1.2488
  105MOL0     H14149  10.696  -0.841   0.442  0.6725  1.5197  1.7679
  105MOL0     H14150  10.534  -0.811   0.496 -0.3890 -0.7505 -1.2479
  105MOL0     H14151  10.618  -0.802   0.207 -0.0338 -1.7906 -0.0354
  105MOL0     H14152  10.455  -0.744   0.272 -1.4185 -2.3594  0.3966
  105MOL0     H14153  10.416  -0.984   0.371  0.0265 -1.2821  0.3137
  105MOL0     H14154  10.430  -0.966   0.198  0.8596 -2.9947  0.0211
  105MOL0     H14155  10.690  -0.315   1.227 -1.7604 -1.0055 -0.9260
  105MOL0     H14156  10.615  -0.113   1.386 -3.3980  0.6729 -1.1554
  105MOL0     H14157  10.525   0.521   1.425  1.4544 -0.0495  1.7076
  105MOL0     H14158  10.365   0.589   1.580 -1.7714 -0.4447 -1.1834
  105MOL0     H14159  10.553   1.126   3.497  0.9319 -0.0849 -0.2166
  105MOL0     H14160  10.694   1.226   3.663  0.1359  0.4974  0.0493
  105MOL0     H14161  11.254   1.544   3.626  3.2470  0.8965  2.2112
  105MOL0     H14162  11.356   1.674   3.796  1.5751 -0.9045  0.0681
  105MOL0     H14163  11.455   1.791   3.941 -0.5535 -0.7015 -0.6852
  105MOL0     H14164  11.462   1.663   4.058  1.6214  0.1872 -0.9981
  105MOL0     H14165  11.556   1.848   4.164 -0.0665  1.7780  1.5387
  105MOL0     H14166  11.407   1.827   4.239 -3.4887 -2.3227 -0.4931
  105MOL0     H14167  11.287   1.993   4.107  0.5553 -2.0722 -1.7123
  105MOL0     H14168  11.429   2.003   3.994 -1.8319  2.0119 -0.9301
  105MOL0     H14169  11.389   2.192   4.164  0.8290  0.5123 -0.0262
  105MOL0     H14170  11.416   2.093   4.290  0.9743  0.4464  0.9471
  105MOL0     H14171  11.799   2.208   4.145 -0.5682  0.8974 -0.1200
  105MOL0     H14172  11.019   1.657   4.047 -2.7780  0.5428 -0.3091
  105MOL0     H14173  10.833   1.587   3.981 -2.7690 -2.0649 -0.3606
  105MOL0     H14174  10.785   1.598   3.808 -0.7013 -0.0779  0.1461
  105MOL0     H14175  10.819   1.443   3.875 -0.4203 -0.2444 -2.3014
  106MOL0     O14176   8.955   0.867   9.624  0.0500  0.7153 -0.2060
  106MOL0     C14177   8.950   0.979   9.573 -0.5046  0.6289  0.5319
  106MOL0     O14178   9.045   1.034   9.497  0.5898 -0.3845 -0.3018
  106MOL0     C14179   9.178   0.998   9.494  0.4865  0.5730  0.7033
  106MOL0     C14180   9.257   0.993   9.611  0.0331  0.4084  0.6702
  106MOL0     C14181   9.391   0.957   9.602 -0.3705  0.5112  0.5099
  106MOL0     C14182   9.440   0.908   9.479 -1.3203  0.2030 -0.2787
  106MOL0     O14183   9.577   0.893   9.458 -0.5608 -0.0408  0.8485
  106MOL0     C14184   9.637   0.999   9.378  0.0426  0.7107  0.0909
  106MOL0     C14185   9.700   1.100   9.469  0.4392 -0.0995 -0.4242
  106MOL0     C14186   9.776   1.220   9.409 -0.8094 -1.2430 -0.5928
  106MOL0     C14187   9.793   1.347   9.505 -0.0252  0.3110 -0.4219
  106MOL0     C14188   9.894   1.445   9.439  0.7175 -0.0374 -0.5064
  106MOL0     C14189  10.048   1.404   9.443 -0.5883  0.6167 -0.3556
  106MOL0     C14190  10.095   1.332   9.567 -0.2256  0.0126 -0.4969
  106MOL0     C14191  10.246   1.354   9.588 -0.7477  0.6284 -0.4553
  106MOL0     N14192  10.340   1.305   9.499 -0.0030  0.2229  0.0852
  106MOL0     C14193  10.373   1.174   9.476  0.5280  0.1028 -0.3556
  106MOL0     C14194  10.455   1.178   9.370 -0.2603  0.7048  0.2592
  106MOL0     C14195  10.533   1.068   9.305  0.0309  0.5622 -0.2208
  106MOL0     C14196  10.585   0.969   9.411 -0.8504 -0.4066 -0.2509
  106MOL0     C14197  10.706   1.032   9.490  0.3647  0.1613  0.2826
  106MOL0     C14198  10.795   0.929   9.572 -0.1589  0.6071  0.4296
  106MOL0     O14199  10.927   0.911   9.516 -0.4615  0.2331 -0.4177
  106MOL0     C14200  11.001   1.020   9.498  0.3103  0.0645  1.2960
  106MOL0     C14201  11.088   1.020   9.393  0.5423  0.3086  0.9405
  106MOL0     C14202  11.163   1.134   9.359 -0.8311  0.6143  0.9485
  106MOL0     C14203  11.162   1.239   9.445 -0.3271  0.3397 -0.3451
  106MOL0     C14204  11.243   1.358   9.399  0.5804 -0.0572 -0.1406
  106MOL0     O14205  11.288   1.449   9.489 -0.3391  0.5850  0.7172
  106MOL0     C14206  11.344   1.567   9.441  0.1383 -0.5902 -0.0025
  106MOL0     C14207  11.290   1.682   9.482 -0.3918 -0.6798  0.2380
  106MOL0     C14208  11.340   1.809   9.446 -0.1303 -0.4327  0.5942
  106MOL0     C14209  11.445   1.819   9.347  0.3507 -0.1796 -0.5948
  106MOL0     O14210  11.500   1.934   9.297  0.4311 -0.5072  0.6574
  106MOL0     C14211  11.505   2.037   9.397  0.9213  0.3711  0.0681
  106MOL0     C14212  11.559   2.167   9.322 -0.0933  0.4727 -0.2402
  106MOL0     C14213  11.701   2.158   9.261 -0.3916 -0.1718 -0.6411
  106MOL0     C14214  11.710   2.052   9.149  0.1229 -0.3670  0.5776
  106MOL0     C14215  11.836   2.070   9.063 -0.2114  0.3393  0.0055
  106MOL0     C14216  11.887   1.934   9.016 -0.5955 -0.1107  0.5231
  106MOL0     C14217  12.015   1.956   8.928  0.5087 -0.3690 -0.0407
  106MOL0     C14218  12.146   2.011   9.004  0.2633 -0.6480 -0.1234
  106MOL0    Cl14219  12.294   1.907   8.975  0.1670  0.4561 -0.2776
  106MOL0     C14220  11.495   1.696   9.295  0.0079 -0.7949 -1.0408
  106MOL0     C14221  11.447   1.568   9.346 -0.6949 -0.2922  0.2263
  106MOL0     O14222  11.243   1.378   9.274 -0.3783 -0.6322  0.1728
  106MOL0     C14223  11.090   1.231   9.568 -0.7120 -0.2818  0.5801
  106MOL0     C14224  11.004   1.125   9.588 -0.0910 -0.5615  0.6109
  106MOL0     N14225  10.458   1.310   9.322 -0.5456  0.9511 -0.7646
  106MOL0     N14226  10.385   1.374   9.396 -0.2002  0.8946  0.3780
  106MOL0     C14227   9.359   0.912   9.366  0.5452  0.2875  0.3380
  106MOL0     C14228   9.232   0.956   9.378  0.5798  0.4672  0.0260
  106MOL0     C14229   8.815   1.048   9.577  0.4178  0.8478  0.4338
  106MOL0     C14230   8.774   1.103   9.455  0.0235 -0.7072 -0.5313
  106MOL0     C14231   8.650   1.173   9.452  0.0458  0.1422  0.4093
  106MOL0     C14232   8.566   1.174   9.559  0.9797  0.3265 -0.4863
  106MOL0     O14233   8.445   1.231   9.540  0.3022  0.6016  0.6074
  106MOL0     C14234   8.343   1.250   9.648  0.8186 -0.1345  0.1742
  106MOL0     C14235   8.368   1.357   9.744  0.2081 -0.7392 -1.0045
  106MOL0     C14236   8.323   1.494   9.689  0.6188  0.6550 -0.1155
  106MOL0     C14237   8.398   1.606   9.752  0.2610  0.2745 -0.6507
  106MOL0     C14238   8.339   1.740   9.709 -0.3554  0.4972  0.7167
  106MOL0     C14239   8.289   1.848   9.678 -0.7485  0.8514  0.5905
  106MOL0     C14240   8.598   1.099   9.670 -0.7644  0.6986 -0.2244
  106MOL0     C14241   8.718   1.032   9.683  0.0369 -0.9071 -0.0982
  106MOL0     C14242   8.742   0.952   9.813 -0.2250 -0.4686  0.5610
  106MOL0     H14243   9.210   1.026   9.704 -0.0253  1.5964  0.2436
  106MOL0     H14244   9.450   0.953   9.693 -2.8552 -1.1863  2.1857
  106MOL0     H14245   9.714   0.954   9.316 -1.2093  1.4753 -2.1129
  106MOL0     H14246   9.563   1.059   9.324 -1.5465 -0.6380  0.6690
  106MOL0     H14247   9.766   1.041   9.533  3.7061  1.8344 -1.7975
  106MOL0     H14248   9.620   1.141   9.533 -0.4657 -5.0465  2.0481
  106MOL0     H14249   9.746   1.265   9.314  4.3439  2.0640 -1.0454
  106MOL0     H14250   9.873   1.169   9.406  0.6917  1.0553  2.6416
  106MOL0     H14251   9.698   1.402   9.502 -1.5851 -2.1299  0.5717
  106MOL0     H14252   9.801   1.313   9.609 -2.6275 -0.2611 -0.3208
  106MOL0     H14253   9.858   1.476   9.341  0.5221  0.8784 -0.1563
  106MOL0     H14254   9.897   1.533   9.504  1.4406 -1.0346  0.8847
  106MOL0     H14255  10.071   1.335   9.361  3.3151 -1.6479  2.3142
  106MOL0     H14256  10.113   1.490   9.424 -0.1553  0.3577 -0.0522
  106MOL0     H14257  10.079   1.224   9.563 -2.4772 -0.0629  3.9624
  106MOL0     H14258  10.044   1.375   9.654 -0.6842  0.2653 -0.8887
  106MOL0     H14259  10.280   1.456   9.609  0.0066 -0.0197  1.7686
  106MOL0     H14260  10.257   1.286   9.673 -3.2985 -2.0751 -2.0791
  106MOL0     H14261  10.339   1.091   9.537  0.2694  1.2988  1.1932
  106MOL0     H14262  10.466   1.007   9.243  0.2718 -2.3154  2.0968
  106MOL0     H14263  10.615   1.111   9.248  0.5715 -2.1404 -1.6778
  106MOL0     H14264  10.501   0.932   9.472 -2.0015 -1.5122 -2.3875
  106MOL0     H14265  10.627   0.886   9.354  1.8251  1.0476 -0.5295
  106MOL0     H14266  10.670   1.110   9.558  0.2925 -0.5303  1.0566
  106MOL0     H14267  10.762   1.083   9.412 -1.6273  2.5987  0.3197
  106MOL0     H14268  10.741   0.834   9.559 -1.9743  1.4652  1.2910
  106MOL0     H14269  10.785   0.952   9.678 -1.2663 -0.0873  0.5020
  106MOL0     H14270  11.092   0.934   9.328  2.9922  1.5994 -0.8172
  106MOL0     H14271  11.224   1.126   9.269 -1.8016 -1.1039  0.3961
  106MOL0     H14272  11.217   1.675   9.562 -1.2085 -0.3351 -0.4692
  106MOL0     H14273  11.307   1.895   9.504  3.1138 -0.7416  3.2667
  106MOL0     H14274  11.406   2.065   9.436  1.7199  1.4082  1.4556
  106MOL0     H14275  11.574   2.012   9.478  0.1012 -0.0493  0.6545
  106MOL0     H14276  11.483   2.199   9.249  0.0827  2.8213  0.5266
  106MOL0     H14277  11.576   2.249   9.393  2.3494  0.2846 -0.5407
  106MOL0     H14278  11.718   2.251   9.205  1.3929  1.9313  2.9863
  106MOL0     H14279  11.782   2.147   9.333 -1.2138 -2.3176  0.0176
  106MOL0     H14280  11.617   2.064   9.094 -0.5632  3.1669  2.2391
  106MOL0     H14281  11.703   1.946   9.178 -0.2537 -0.4856  0.0587
  106MOL0     H14282  11.914   2.123   9.119 -1.6611 -1.0953  3.7173
  106MOL0     H14283  11.810   2.133   8.978  1.1588  0.1732 -0.5565
  106MOL0     H14284  11.907   1.861   9.095 -4.2129 -1.5139  0.3480
  106MOL0     H14285  11.808   1.893   8.952  0.8581 -0.5983 -1.0068
  106MOL0     H14286  11.993   2.019   8.841 -1.1034 -0.8076  0.0185
  106MOL0     H14287  12.044   1.858   8.890  0.4233 -1.0112  1.4805
  106MOL0     H14288  12.164   2.115   8.975 -0.8516 -0.5666 -0.5859
  106MOL0     H14289  12.133   2.011   9.112 -0.6543 -2.6598 -0.1853
  106MOL0     H14290  11.563   1.703   9.211  1.5766 -1.6771  0.0989
  106MOL0     H14291  11.480   1.471   9.311 -1.1567 -0.0035 -1.1065
  106MOL0     H14292  11.102   1.307   9.644  0.7933 -1.0126  1.1065
  106MOL0     H14293  10.939   1.128   9.675  0.4863 -3.4351  1.2369
  106MOL0     H14294   9.390   0.889   9.265 -0.8556  1.3435 -0.3773
  106MOL0     H14295   9.170   0.963   9.290  1.8190  0.7339 -0.8490
  106MOL0     H14296   8.839   1.077   9.373 -0.4923 -3.6372 -0.1187
  106MOL0     H14297   8.623   1.208   9.353  2.0839  2.3214  0.5469
  106MOL0     H14298   8.324   1.152   9.692  1.4343 -0.6908 -0.7968
  106MOL0     H14299   8.248   1.279   9.601  0.6627 -2.3448 -0.9537
  106MOL0     H14300   8.474   1.361   9.770 -0.0365  1.0750 -0.1314
  106MOL0     H14301   8.312   1.343   9.837  0.8653 -0.3691 -0.5490
  106MOL0     H14302   8.215   1.493   9.704  0.5569 -4.0066  0.5938
  106MOL0     H14303   8.335   1.511   9.582 -0.0591  2.8138  0.1187
  106MOL0     H14304   8.380   1.606   9.860 -2.5718  1.4239 -1.0349
  106MOL0     H14305   8.506   1.609   9.737  0.2375  0.2530 -0.8280
  106MOL0     H14306   8.244   1.940   9.648 -2.2730 -0.0278  0.0677
  106MOL0     H14307   8.531   1.084   9.754  1.1667 -0.4999  1.1820
  106MOL0     H14308   8.802   1.017   9.878 -2.1199  0.9724  0.9302
  106MOL0     H14309   8.643   0.935   9.856 -1.0777  2.7943  0.1444
  106MOL0     H14310   8.793   0.855   9.804  0.7438 -0.1446  2.1598
  107MOL0     O14311   5.139   4.464   1.956  0.2519  0.0403  0.2569
  107MOL0     C14312   5.052   4.404   2.015  0.6210  0.9846 -0.7994
  107MOL0     O14313   5.067   4.289   2.087 -0.6614  0.9694 -0.0437
  107MOL0     C14314   5.175   4.206   2.065 -0.1193 -0.4891 -0.3050
  107MOL0     C14315   5.303   4.243   2.064 -0.9658  0.5940 -0.3234
  107MOL0     C14316   5.398   4.144   2.024  1.0100 -0.3769 -0.1888
  107MOL0     C14317   5.365   4.017   1.989 -0.1832 -0.5880  0.7499
  107MOL0     O14318   5.467   3.931   1.951  0.2117 -0.6103  0.2868
  107MOL0     C14319   5.435   3.790   1.926  0.2398  0.1240 -0.5014
  107MOL0     C14320   5.561   3.709   1.946 -0.3966 -0.7844 -0.5667
  107MOL0     C14321   5.548   3.556   1.934 -1.2556  0.6672 -0.5081
  107MOL0     C14322   5.688   3.493   1.941  0.3273 -0.2848  0.6780
  107MOL0     C14323   5.761   3.511   2.069 -1.4979 -0.7338  0.1410
  107MOL0     C14324   5.899   3.430   2.061  0.0284 -0.3663  0.2120
  107MOL0     C14325   5.982   3.476   2.180 -0.2942  0.1577 -0.3840
  107MOL0     C14326   6.125   3.431   2.173  0.2247 -1.2846 -0.5943
  107MOL0     N14327   6.145   3.287   2.175  0.2002 -1.0130 -0.6941
  107MOL0     C14328   6.215   3.224   2.278 -0.0900  0.0585 -0.7763
  107MOL0     C14329   6.215   3.099   2.240 -0.0087  0.0215  1.2736
  107MOL0     C14330   6.267   2.972   2.307 -0.5158 -0.3848 -0.3198
  107MOL0     C14331   6.386   2.908   2.225  0.5427 -0.2842  0.4815
  107MOL0     C14332   6.472   2.805   2.305 -0.0153  0.3071 -0.7785
  107MOL0     C14333   6.553   2.871   2.419  0.0283 -0.3040  0.5156
  107MOL0     O14334   6.688   2.892   2.371  0.6822  0.6647 -0.3789
  107MOL0     C14335   6.784   2.940   2.452  0.3492  0.6716  0.2484
  107MOL0     C14336   6.760   2.983   2.585  0.4072 -1.0253 -0.0234
  107MOL0     C14337   6.877   3.022   2.665  0.4439  0.3556 -0.7563
  107MOL0     C14338   7.008   3.001   2.612  0.2436 -1.2139  0.3687
  107MOL0     C14339   7.130   3.030   2.686 -0.1689 -0.2919  1.6251
  107MOL0     O14340   7.251   3.007   2.626 -0.5847 -0.1149  0.8025
  107MOL0     C14341   7.358   3.018   2.706  0.5814  0.1456 -0.5116
  107MOL0     C14342   7.449   3.121   2.691 -0.0557  0.0022 -0.0502
  107MOL0     C14343   7.565   3.114   2.760  0.9433 -0.5206 -0.3258
  107MOL0     C14344   7.601   3.016   2.852  0.5247  0.5018 -0.8193
  107MOL0     O14345   7.704   3.004   2.931 -0.3894 -0.1035  0.1534
  107MOL0     C14346   7.776   3.123   2.971  0.3000 -0.7412  0.0052
  107MOL0     C14347   7.854   3.080   3.086  0.4331 -0.3719  0.6695
  107MOL0     C14348   7.767   3.026   3.206  0.6001 -0.6925 -0.3294
  107MOL0     C14349   7.669   3.126   3.270 -0.2307 -0.0261 -0.1904
  107MOL0     C14350   7.607   3.049   3.386 -1.1761 -0.0126  0.3332
  107MOL0     C14351   7.502   2.947   3.360 -0.3329 -0.3651  1.1389
  107MOL0     C14352   7.480   2.870   3.494  0.0694  0.4297  0.3972
  107MOL0     C14353   7.347   2.796   3.489 -0.4636 -0.3072  0.4608
  107MOL0    Cl14354   7.345   2.676   3.356 -0.0124  0.1467  0.6121
  107MOL0     C14355   7.527   2.907   2.850  0.3302 -0.6097 -0.5381
  107MOL0     C14356   7.407   2.902   2.778  0.1918 -0.5904  1.3888
  107MOL0     O14357   7.115   3.047   2.809 -0.3389  0.5125  0.4449
  107MOL0     C14358   7.021   2.953   2.482  0.4570  0.3455  0.4075
  107MOL0     C14359   6.910   2.922   2.405  0.2005  1.4398 -0.1505
  107MOL0     N14360   6.131   3.083   2.130 -0.6381  0.1155  0.9377
  107MOL0     N14361   6.099   3.200   2.084  0.0593 -0.1420 -0.3914
  107MOL0     C14362   5.233   3.981   1.986  0.8879 -0.0399  0.0434
  107MOL0     C14363   5.138   4.080   2.020 -1.3288 -0.0087 -0.3362
  107MOL0     C14364   4.925   4.470   2.028 -0.0745 -0.0034  0.5421
  107MOL0     C14365   4.803   4.390   2.017  0.1690  0.3888  0.2366
  107MOL0     C14366   4.691   4.453   2.032  0.7714  0.0704  0.6414
  107MOL0     C14367   4.676   4.593   2.051 -0.4276  0.4115  0.0286
  107MOL0     O14368   4.547   4.650   2.059  0.3396 -0.2176  0.1142
  107MOL0     C14369   4.531   4.776   2.117  0.1973 -0.2208  0.5109
  107MOL0     C14370   4.395   4.796   2.161  0.3364  0.4397 -1.2863
  107MOL0     C14371   4.297   4.764   2.049  0.5289  0.3552  0.1859
  107MOL0     C14372   4.154   4.784   2.096 -0.3213 -0.6617  0.4349
  107MOL0     C14373   4.101   4.677   2.186 -0.0582 -0.8902  0.3922
  107MOL0     C14374   4.056   4.597   2.264  0.0123 -0.1986  0.7221
  107MOL0     C14375   4.790   4.664   2.074  0.9223 -0.6907  0.0970
  107MOL0     C14376   4.917   4.607   2.056 -0.4092  1.1057  0.1689
  107MOL0     C14377   5.044   4.695   2.065 -0.2490 -0.6964 -0.7701
  107MOL0     H14378   5.333   4.345   2.084 -1.9797  0.6932  0.8309
  107MOL0     H14379   5.500   4.179   2.010  1.2529 -1.3789 -0.9876
  107MOL0     H14380   5.360   3.756   1.997 -0.8034  2.2165 -0.5548
  107MOL0     H14381   5.409   3.784   1.820 -1.1688 -0.8664 -0.1280
  107MOL0     H14382   5.610   3.731   2.041  1.3269 -1.3749 -1.2605
  107MOL0     H14383   5.626   3.747   1.866 -0.4169  2.4888  0.7819
  107MOL0     H14384   5.498   3.543   1.837  1.2944  1.5417 -2.0456
  107MOL0     H14385   5.480   3.520   2.012 -0.8766 -0.8653 -0.8603
  107MOL0     H14386   5.667   3.386   1.941 -2.4363  0.1796  1.7893
  107MOL0     H14387   5.750   3.524   1.856  0.2009  1.8572  1.3036
  107MOL0     H14388   5.792   3.616   2.078  4.7968 -2.3047  1.2603
  107MOL0     H14389   5.692   3.487   2.150 -1.7089  0.3090  0.2919
  107MOL0     H14390   5.881   3.322   2.063  0.3317 -0.6025 -3.2947
  107MOL0     H14391   5.956   3.449   1.969  3.8797  0.7362  2.5863
  107MOL0     H14392   5.939   3.453   2.277  0.6174  0.8090  0.1850
  107MOL0     H14393   5.991   3.585   2.167 -1.5452  0.0308 -3.2161
  107MOL0     H14394   6.159   3.477   2.080 -0.1918  0.2812  0.0070
  107MOL0     H14395   6.182   3.462   2.262  1.9264 -2.5045 -1.1894
  107MOL0     H14396   6.263   3.263   2.367  0.3070 -2.2375  0.0874
  107MOL0     H14397   6.296   2.987   2.411  1.0844  0.5621 -0.8712
  107MOL0     H14398   6.181   2.905   2.296 -0.8411  0.3417 -2.9472
  107MOL0     H14399   6.335   2.870   2.136 -2.9194  0.0468  2.1340
  107MOL0     H14400   6.454   2.984   2.184  0.3144 -0.3444 -0.0110
  107MOL0     H14401   6.541   2.751   2.240  1.2057  0.2682  0.5007
  107MOL0     H14402   6.405   2.740   2.362 -0.1116  1.1844  0.1433
  107MOL0     H14403   6.559   2.810   2.510  0.2452  1.5086  1.7575
  107MOL0     H14404   6.507   2.963   2.457  0.8094  0.0639  0.5876
  107MOL0     H14405   6.656   3.002   2.610  0.0962  0.2346 -2.0356
  107MOL0     H14406   6.850   3.072   2.758 -0.8993  0.6674 -1.2882
  107MOL0     H14407   7.422   3.194   2.615 -0.7757 -1.3781 -1.1670
  107MOL0     H14408   7.637   3.193   2.741  0.0355 -0.2214 -2.9022
  107MOL0     H14409   7.845   3.170   2.900 -1.5798  1.4367 -0.4931
  107MOL0     H14410   7.706   3.198   3.007 -2.8288 -4.0559  1.4510
  107MOL0     H14411   7.933   3.013   3.050  1.1989  0.8151  0.0568
  107MOL0     H14412   7.905   3.173   3.115 -0.8148  0.7720 -0.6168
  107MOL0     H14413   7.712   2.939   3.168  0.5704 -0.2945 -1.2216
  107MOL0     H14414   7.840   3.002   3.283  0.2840  1.7971  0.8445
  107MOL0     H14415   7.591   3.155   3.199  2.0989 -0.6868 -3.2451
  107MOL0     H14416   7.713   3.219   3.305 -1.5114 -0.1649  1.9338
  107MOL0     H14417   7.556   3.112   3.460  2.9973  1.5746  2.1557
  107MOL0     H14418   7.687   3.007   3.448 -1.4989  2.0203  2.2625
  107MOL0     H14419   7.415   3.006   3.331  1.1790  1.3415 -0.2730
  107MOL0     H14420   7.527   2.873   3.283  0.4262  1.6711 -0.6863
  107MOL0     H14421   7.464   2.939   3.577 -1.2083 -2.6632  2.9334
  107MOL0     H14422   7.563   2.799   3.510 -0.8200 -0.9339 -0.7753
  107MOL0     H14423   7.332   2.749   3.586  0.8373 -3.4218 -0.7158
  107MOL0     H14424   7.254   2.851   3.474  0.5688  1.2637 -0.5145
  107MOL0     H14425   7.546   2.820   2.912 -1.1514  0.2351  1.2230
  107MOL0     H14426   7.344   2.814   2.776 -0.8605  0.0095 -2.7252
  107MOL0     H14427   7.119   2.929   2.441 -1.7971 -3.5722 -3.4965
  107MOL0     H14428   6.931   2.865   2.315 -2.2146 -2.7382  1.6398
  107MOL0     H14429   5.199   3.885   1.949  0.4063  0.5984 -1.2476
  107MOL0     H14430   5.035   4.047   2.017 -0.7820 -1.7784 -1.9585
  107MOL0     H14431   4.794   4.283   2.003  1.2589  0.5058 -1.7051
  107MOL0     H14432   4.598   4.400   2.015  0.1784  1.0611  0.7226
  107MOL0     H14433   4.553   4.854   2.044 -1.1943  1.1574  1.4992
  107MOL0     H14434   4.594   4.783   2.207  1.2498 -0.3995 -0.1944
  107MOL0     H14435   4.365   4.888   2.211 -1.9950 -1.4513  1.0703
  107MOL0     H14436   4.384   4.724   2.243  0.5712  0.6914 -1.0267
  107MOL0     H14437   4.293   4.660   2.012  1.1303  0.9513 -1.7009
  107MOL0     H14438   4.315   4.826   1.960 -1.7786  0.8560  0.0110
  107MOL0     H14439   4.154   4.883   2.144  0.8847 -0.3820 -0.1093
  107MOL0     H14440   4.085   4.787   2.011  1.0403 -1.1712 -0.7205
  107MOL0     H14441   4.016   4.523   2.330 -0.6942 -2.0749 -1.6721
  107MOL0     H14442   4.781   4.771   2.088  1.2735 -0.2103 -2.7714
  107MOL0     H14443   5.022   4.794   2.106 -0.4460 -0.3740 -1.6411
  107MOL0     H14444   5.124   4.655   2.129 -0.9019 -0.0685  0.4836
  107MOL0     H14445   5.090   4.715   1.968  1.9805 -0.1855  0.3188
  108MOL0     O14446   5.161   4.033  11.343  0.8595  0.5304  0.0132
  108MOL0     C14447   5.233   4.128  11.384  1.0407  0.3062  0.1223
  108MOL0     O14448   5.191   4.242  11.440  0.2477  0.3928 -0.5168
  108MOL0     C14449   5.059   4.280  11.436  1.7744  0.3376  0.0332
  108MOL0     C14450   4.969   4.257  11.329  0.4536 -0.0880 -0.6277
  108MOL0     C14451   4.843   4.322  11.330 -0.4367 -0.3668  0.2559
  108MOL0     C14452   4.804   4.415  11.432  0.0202  0.1694  0.6170
  108MOL0     O14453   4.683   4.479  11.425 -0.1702  0.2667 -0.5833
  108MOL0     C14454   4.597   4.478  11.539  0.1638 -0.3522  0.5017
  108MOL0     C14455   4.503   4.605  11.545  0.1063 -0.3090  0.0627
  108MOL0     C14456   4.516   4.686  11.672  0.2861  0.4351 -0.3010
  108MOL0     C14457   4.421   4.813  11.682 -0.3657  0.1264 -0.0628
  108MOL0     C14458   4.476   4.922  11.766 -0.7617 -0.1125 -0.1211
  108MOL0     C14459   4.375   5.042  11.770 -0.7145  0.4621 -0.0934
  108MOL0     C14460   4.455   5.161  11.838 -0.5531  0.4263  0.0947
  108MOL0     C14461   4.425   5.163  11.990  0.1185  1.0514 -0.4540
  108MOL0     N14462   4.518   5.254  12.071 -0.7932 -0.5857 -0.2895
  108MOL0     C14463   4.519   5.394  12.053  0.4486 -0.2156  0.5640
  108MOL0     C14464   4.544   5.459  12.177  0.5705  0.5561  0.4235
  108MOL0     C14465   4.542   5.604  12.213  0.5723  1.3377 -0.2580
  108MOL0     C14466   4.424   5.673  12.149 -0.2687  0.8065 -0.0678
  108MOL0     C14467   4.425   5.806  12.220 -0.2876 -0.6867  0.0946
  108MOL0     C14468   4.315   5.892  12.165  0.1852 -0.9302  0.0454
  108MOL0     O14469   4.311   6.015  12.250 -0.0571 -0.0385 -0.0181
  108MOL0     C14470   4.247   6.112  12.180  0.4224  0.0820 -0.5321
  108MOL0     C14471   4.234   6.229  12.251 -0.0904 -1.0410  0.6292
  108MOL0     C14472   4.151   6.333  12.202 -0.0792  0.3213 -0.0545
  108MOL0     C14473   4.095   6.326  12.072 -0.0516  0.7948 -0.8610
  108MOL0     C14474   4.028   6.436  12.003  0.2422 -0.0528 -0.8879
  108MOL0     O14475   3.994   6.427  11.868 -0.6375  0.3640  0.1490
  108MOL0     C14476   3.912   6.524  11.815 -0.4014 -0.5042  0.6638
  108MOL0     C14477   3.950   6.573  11.692  0.3663  0.4347  0.4628
  108MOL0     C14478   3.876   6.659  11.609  0.4946  0.0859 -0.1855
  108MOL0     C14479   3.753   6.704  11.659  0.0761 -0.2410 -0.0798
  108MOL0     O14480   3.661   6.764  11.581  0.9190 -0.4144 -0.3122
  108MOL0     C14481   3.689   6.884  11.494  0.6337  0.6995  0.4830
  108MOL0     C14482   3.550   6.919  11.449  0.8459 -0.0012  0.4418
  108MOL0     C14483   3.434   6.934  11.555 -0.3723  0.4747 -0.5329
  108MOL0     C14484   3.451   7.071  11.627  0.3717  0.7437 -0.0130
  108MOL0     C14485   3.317   7.116  11.694  1.1749 -0.2523 -0.0457
  108MOL0     C14486   3.343   7.247  11.762 -0.1642  0.6101  0.4172
  108MOL0     C14487   3.231   7.279  11.861  0.3074 -0.2961  0.3513
  108MOL0     C14488   3.239   7.408  11.928 -0.5729  1.2130  1.2469
  108MOL0    Cl14489   3.078   7.431  11.990 -0.1755  0.2618  0.1576
  108MOL0     C14490   3.708   6.660  11.784 -0.4097 -1.0331 -0.3909
  108MOL0     C14491   3.788   6.567  11.858  0.3083  0.7301 -0.1591
  108MOL0     O14492   4.009   6.538  12.071  0.3771 -1.2459  0.5034
  108MOL0     C14493   4.102   6.204  12.006 -0.4187  0.5824  0.3271
  108MOL0     C14494   4.178   6.099  12.053 -0.1591 -0.4066  0.0363
  108MOL0     N14495   4.556   5.352  12.261 -0.8485 -0.2954 -0.6807
  108MOL0     N14496   4.539   5.236  12.203  0.7354  0.8590  0.0132
  108MOL0     C14497   4.894   4.441  11.536 -0.1948 -0.6095  1.0094
  108MOL0     C14498   5.012   4.361  11.542 -0.4840 -0.8282 -0.3638
  108MOL0     C14499   5.377   4.103  11.391  0.9727  0.6219  0.0242
  108MOL0     C14500   5.445   4.034  11.284  0.8102 -1.0528 -0.2370
  108MOL0     C14501   5.581   4.009  11.294  0.3939  0.4730 -0.3304
  108MOL0     C14502   5.649   4.021  11.418 -0.1332 -0.1915  0.3280
  108MOL0     O14503   5.788   3.994  11.413 -0.1251  0.3558 -0.1689
  108MOL0     C14504   5.852   3.971  11.533 -0.6476  0.0740  0.4591
  108MOL0     C14505   5.973   3.889  11.507 -0.1021  0.9606 -0.2438
  108MOL0     C14506   5.921   3.756  11.467 -0.2357  1.3679 -0.1043
  108MOL0     C14507   6.022   3.685  11.385 -0.4893 -0.1979  0.5439
  108MOL0     C14508   5.988   3.549  11.349  0.3985 -0.2317 -0.9080
  108MOL0     C14509   5.951   3.433  11.324 -0.6681  0.4167 -0.6075
  108MOL0     C14510   5.579   4.080  11.519  1.0892  0.6555 -0.1091
  108MOL0     C14511   5.448   4.115  11.512  1.0091 -0.0604  0.2720
  108MOL0     C14512   5.391   4.175  11.644  1.0181 -0.3956  0.0313
  108MOL0     H14513   4.995   4.185  11.252  3.2437  0.7025 -0.5047
  108MOL0     H14514   4.770   4.300  11.253  1.3584 -1.3660 -1.2292
  108MOL0     H14515   4.536   4.388  11.538 -1.4712  0.7088  0.2868
  108MOL0     H14516   4.656   4.488  11.631  0.2038  0.8621  0.3618
  108MOL0     H14517   4.398   4.576  11.532 -0.2109  0.2810  1.2027
  108MOL0     H14518   4.518   4.673  11.461 -2.3414 -0.0994 -0.2773
  108MOL0     H14519   4.623   4.705  11.684  0.2807 -0.4700  1.4207
  108MOL0     H14520   4.493   4.626  11.760 -2.1289 -0.9385 -1.7330
  108MOL0     H14521   4.386   4.845  11.583 -3.6255 -2.8180 -0.0586
  108MOL0     H14522   4.330   4.770  11.724  2.4901 -3.8190  2.7971
  108MOL0     H14523   4.496   4.874  11.862  1.8127 -2.9944 -1.8826
  108MOL0     H14524   4.580   4.945  11.741  0.2301 -1.5286  2.3326
  108MOL0     H14525   4.346   5.062  11.667  5.0514 -2.2230 -2.7313
  108MOL0     H14526   4.283   5.024  11.826 -1.3120 -0.2619 -1.2690
  108MOL0     H14527   4.425   5.254  11.789  4.6973  2.6825  0.5835
  108MOL0     H14528   4.562   5.158  11.817 -1.0171 -0.2916 -2.4544
  108MOL0     H14529   4.321   5.197  11.999 -0.0838  0.0471  1.5886
  108MOL0     H14530   4.431   5.064  12.035 -0.2136  1.7048  1.0913
  108MOL0     H14531   4.503   5.436  11.954  1.3743  0.3148  0.6308
  108MOL0     H14532   4.543   5.602  12.323 -0.3460 -0.6821 -0.2376
  108MOL0     H14533   4.631   5.658  12.181 -2.1993  4.2149 -4.0716
  108MOL0     H14534   4.435   5.679  12.041 -3.4432  1.3848 -0.4514
  108MOL0     H14535   4.334   5.612  12.158  2.5313 -4.0662 -1.5174
  108MOL0     H14536   4.505   5.878  12.201 -0.0973 -0.7915  0.4878
  108MOL0     H14537   4.425   5.790  12.328  1.5696 -2.0136 -0.0433
  108MOL0     H14538   4.223   5.834  12.174  0.0522 -0.5984  0.8897
  108MOL0     H14539   4.335   5.919  12.061 -1.2540 -0.5436 -0.1481
  108MOL0     H14540   4.285   6.252  12.344 -0.0941  3.7319 -0.3022
  108MOL0     H14541   4.152   6.425  12.260  0.9349 -0.5235  1.3254
  108MOL0     H14542   4.040   6.529  11.650 -0.3257  1.5294 -2.4117
  108MOL0     H14543   3.909   6.681  11.508  0.0828  0.7703 -0.1813
  108MOL0     H14544   3.730   6.969  11.550 -0.7283  1.4105  0.4562
  108MOL0     H14545   3.751   6.854  11.409 -3.2332  3.9999 -4.0454
  108MOL0     H14546   3.553   7.017  11.400 -1.5988 -0.6585 -1.2230
  108MOL0     H14547   3.532   6.847  11.369  1.0919  1.9957 -1.5370
  108MOL0     H14548   3.335   6.930  11.507 -0.5592  1.3716 -0.2416
  108MOL0     H14549   3.427   6.853  11.628 -3.5049 -0.5074 -1.7503
  108MOL0     H14550   3.492   7.149  11.562  1.4981  0.2879  0.1255
  108MOL0     H14551   3.537   7.052  11.693  1.2592  1.4856 -0.9260
  108MOL0     H14552   3.283   7.033  11.757 -1.8718  0.1816 -0.9575
  108MOL0     H14553   3.230   7.119  11.628 -0.8259 -0.1522  2.4329
  108MOL0     H14554   3.441   7.244  11.811 -0.7945  1.7531  1.8300
  108MOL0     H14555   3.343   7.325  11.685  0.8833 -1.1706 -1.4602
  108MOL0     H14556   3.231   7.192  11.928  2.1821  0.1181  0.9308
  108MOL0     H14557   3.140   7.275  11.799 -0.3845  1.4546  1.2071
  108MOL0     H14558   3.326   7.415  11.994  0.3290  0.6199  0.1648
  108MOL0     H14559   3.251   7.488  11.855  2.3712  1.3288  1.7108
  108MOL0     H14560   3.617   6.700  11.826 -2.1231 -1.9410 -2.9827
  108MOL0     H14561   3.745   6.526  11.949 -2.5378 -2.1095 -2.5394
  108MOL0     H14562   4.060   6.171  11.911  1.2839  0.1344 -0.3072
  108MOL0     H14563   4.168   6.010  11.992 -0.3034 -0.1428 -0.3308
  108MOL0     H14564   4.890   4.523  11.607  0.2059  0.6713 -0.3955
  108MOL0     H14565   5.087   4.386  11.616 -0.8485  2.6069 -0.9841
  108MOL0     H14566   5.393   4.028  11.188  0.0138 -0.3673  0.1420
  108MOL0     H14567   5.623   3.969  11.203 -2.9428  2.0788 -2.7730
  108MOL0     H14568   5.789   3.918  11.604  1.4111 -1.9942  0.8799
  108MOL0     H14569   5.885   4.071  11.565  1.9153 -0.9390  1.2684
  108MOL0     H14570   6.036   3.884  11.597 -1.1872  1.2740  0.5527
  108MOL0     H14571   6.041   3.924  11.429 -1.0312 -0.9027 -1.9713
  108MOL0     H14572   5.838   3.751  11.396  1.2967  0.4256 -1.9159
  108MOL0     H14573   5.890   3.704  11.559 -0.2761  1.2675 -0.1738
  108MOL0     H14574   6.033   3.746  11.295 -0.3979 -1.4537 -0.3346
  108MOL0     H14575   6.103   3.677  11.458 -0.1837 -2.8532  0.0213
  108MOL0     H14576   5.927   3.331  11.303  0.7027 -0.4028  1.4301
  108MOL0     H14577   5.636   4.089  11.611  0.1803 -1.4593  0.7319
  108MOL0     H14578   5.283   4.175  11.665  1.3549  0.9205  1.9723
  108MOL0     H14579   5.427   4.123  11.734  1.5518 -0.8664 -0.4440
  108MOL0     H14580   5.429   4.276  11.662  4.5910 -1.9108  2.1430
  109MOL0     O14581   7.339   1.849   9.582 -0.6030 -0.1699 -0.4866
  109MOL0     C14582   7.342   1.929   9.671 -0.1476 -0.8878  0.2560
  109MOL0     O14583   7.324   1.886   9.801  0.7650 -0.5225  0.3524
  109MOL0     C14584   7.340   1.762   9.842  0.2147  0.2696 -0.1644
  109MOL0     C14585   7.468   1.717   9.817 -1.3214 -0.6318  0.2328
  109MOL0     C14586   7.510   1.593   9.853  0.0963  0.4244 -0.5182
  109MOL0     C14587   7.416   1.497   9.894  0.0357 -0.0661  0.0323
  109MOL0     O14588   7.447   1.368   9.941  0.2919  0.2871  0.1203
  109MOL0     C14589   7.521   1.277   9.863  1.2097  0.4270  0.3145
  109MOL0     C14590   7.494   1.128   9.891 -0.1652 -0.0534 -0.7688
  109MOL0     C14591   7.581   1.023   9.815  0.3078  0.2657 -0.6184
  109MOL0     C14592   7.504   0.954   9.709 -1.0510 -0.2146 -0.0593
  109MOL0     C14593   7.571   0.825   9.648 -0.2197 -0.0143  0.3277
  109MOL0     C14594   7.491   0.763   9.538  0.6010  0.6115  0.3229
  109MOL0     C14595   7.527   0.611   9.539 -0.7457  0.3656 -0.0686
  109MOL0     C14596   7.661   0.593   9.459  0.1986 -0.2430 -0.4885
  109MOL0     N14597   7.668   0.449   9.430 -0.2432 -0.3207  0.2558
  109MOL0     C14598   7.637   0.336   9.495  0.3310  0.0574  0.0080
  109MOL0     C14599   7.686   0.230   9.419  1.6188  0.3771 -0.5895
  109MOL0     C14600   7.675   0.078   9.441 -0.2861  0.2825 -0.3530
  109MOL0     C14601   7.811   0.020   9.438  0.2553  0.2536  0.6343
  109MOL0     C14602   7.813  -0.119   9.492  1.1804  0.0501 -0.2604
  109MOL0     C14603   7.956  -0.175   9.501 -0.1331  0.5109 -0.6071
  109MOL0     O14604   7.998  -0.202   9.367  0.0303 -1.0364 -0.7389
  109MOL0     C14605   8.085  -0.297   9.345 -0.3020 -0.3280  0.2326
  109MOL0     C14606   8.218  -0.280   9.387 -0.2471  0.3648  0.1453
  109MOL0     C14607   8.318  -0.370   9.346  0.0356  0.4210  0.8364
  109MOL0     C14608   8.267  -0.500   9.295  0.5967 -0.0514  0.5276
  109MOL0     C14609   8.355  -0.616   9.275 -0.0255 -0.4572  0.0874
  109MOL0     O14610   8.298  -0.742   9.288  0.1919 -0.0184  0.9109
  109MOL0     C14611   8.365  -0.843   9.220 -0.0053 -1.1700  0.3114
  109MOL0     C14612   8.303  -0.910   9.115  0.2413 -0.7730  0.3498
  109MOL0     C14613   8.376  -1.018   9.057 -0.2239 -0.0683  0.1108
  109MOL0     C14614   8.507  -1.047   9.100  0.8947 -0.7373 -0.1756
  109MOL0     O14615   8.590  -1.143   9.051  0.0647  0.2253 -0.4783
  109MOL0     C14616   8.626  -1.141   8.910  0.9487  0.1043 -0.2495
  109MOL0     C14617   8.655  -1.287   8.876  0.5074 -0.0185 -0.1422
  109MOL0     C14618   8.524  -1.377   8.874 -0.0462  0.4231 -0.1483
  109MOL0     C14619   8.488  -1.426   9.016  0.6450 -0.0022  0.6756
  109MOL0     C14620   8.396  -1.550   9.018 -0.0573 -0.7199  0.7311
  109MOL0     C14621   8.299  -1.566   8.898  0.0989 -0.8424  0.5953
  109MOL0     C14622   8.177  -1.651   8.923 -0.2675  0.9307  0.5042
  109MOL0     C14623   8.114  -1.693   8.789  1.0138 -0.7122  0.1260
  109MOL0    Cl14624   8.219  -1.714   8.647 -0.1444  0.3147  0.3287
  109MOL0     C14625   8.566  -0.976   9.198  0.2178 -0.3476  0.8286
  109MOL0     C14626   8.495  -0.873   9.259  0.0188 -0.1613 -0.1083
  109MOL0     O14627   8.468  -0.586   9.235  0.2627 -0.9636  0.6449
  109MOL0     C14628   8.126  -0.512   9.256 -0.7765 -0.1918  0.5369
  109MOL0     C14629   8.040  -0.402   9.271  0.8739  0.9181  0.3002
  109MOL0     N14630   7.761   0.292   9.318  0.0230 -0.6453 -0.0750
  109MOL0     N14631   7.739   0.418   9.321  0.6055  0.7407  0.2974
  109MOL0     C14632   7.283   1.545   9.927  0.0601  0.3090  0.2063
  109MOL0     C14633   7.245   1.679   9.906 -0.1038 -0.6675  0.4486
  109MOL0     C14634   7.364   2.083   9.636  0.7864 -0.9542  0.0099
  109MOL0     C14635   7.392   2.168   9.741  0.5734 -0.7997 -0.3492
  109MOL0     C14636   7.438   2.298   9.717 -0.2739  0.0333  0.3442
  109MOL0     C14637   7.457   2.344   9.587 -0.2863 -1.0583  0.4071
  109MOL0     O14638   7.508   2.474   9.571 -0.6786 -0.0092  0.1978
  109MOL0     C14639   7.626   2.490   9.488  0.7933  0.2677  0.8425
  109MOL0     C14640   7.692   2.628   9.513  0.3580  1.1806  0.1623
  109MOL0     C14641   7.729   2.641   9.657  0.0734 -0.7042  0.1837
  109MOL0     C14642   7.816   2.762   9.691 -0.4148 -0.5726  0.1314
  109MOL0     C14643   7.957   2.745   9.664 -0.0476 -0.1182 -0.0469
  109MOL0     C14644   8.077   2.729   9.663  0.7678  0.8034 -1.5410
  109MOL0     C14645   7.428   2.264   9.479 -0.1134  0.8916  0.4494
  109MOL0     C14646   7.383   2.132   9.501 -0.4582  0.5988  0.0926
  109MOL0     C14647   7.358   2.044   9.383 -0.3879 -0.2150 -0.3877
  109MOL0     H14648   7.546   1.782   9.778  0.5334 -2.4127  0.8094
  109MOL0     H14649   7.610   1.555   9.830  0.3645 -0.0365  1.2441
  109MOL0     H14650   7.487   1.295   9.760 -2.2801  1.9340  1.5981
  109MOL0     H14651   7.629   1.286   9.880  1.3863 -4.2589  3.4006
  109MOL0     H14652   7.389   1.105   9.867 -0.4638 -4.5515  3.4907
  109MOL0     H14653   7.505   1.118   9.999 -2.6056  1.1149 -0.3210
  109MOL0     H14654   7.608   0.941   9.881 -3.6263  0.8918  2.1380
  109MOL0     H14655   7.669   1.071   9.771 -0.7693  0.8917 -2.1835
  109MOL0     H14656   7.409   0.921   9.751 -0.9130 -1.5722 -0.7676
  109MOL0     H14657   7.492   1.028   9.629  2.1866  1.0438  0.4585
  109MOL0     H14658   7.674   0.850   9.621 -0.9679  5.7775  1.3995
  109MOL0     H14659   7.577   0.750   9.727  0.0125 -0.1935  0.1403
  109MOL0     H14660   7.384   0.758   9.564  0.6624 -2.7807  0.3350
  109MOL0     H14661   7.499   0.805   9.438 -0.7076 -4.1250 -2.0232
  109MOL0     H14662   7.448   0.570   9.475 -1.4955  1.0391  0.3974
  109MOL0     H14663   7.524   0.551   9.631  0.9740 -3.2372 -2.1562
  109MOL0     H14664   7.643   0.657   9.372  2.7947  0.9814 -0.2236
  109MOL0     H14665   7.732   0.632   9.533  0.3619  0.5046 -1.0211
  109MOL0     H14666   7.582   0.316   9.587 -0.3216 -0.3620 -0.4656
  109MOL0     H14667   7.645   0.070   9.546  1.5592  0.3716  0.2146
  109MOL0     H14668   7.593   0.035   9.383 -2.7882 -2.5377  4.6621
  109MOL0     H14669   7.846   0.025   9.335  2.6096  1.3192  1.4095
  109MOL0     H14670   7.884   0.082   9.491  1.5323 -0.1490 -0.5967
  109MOL0     H14671   7.756  -0.182   9.424  0.2833 -0.4107  0.8880
  109MOL0     H14672   7.773  -0.138   9.592 -0.5936 -3.8171 -1.5226
  109MOL0     H14673   7.971  -0.273   9.547  0.3437  2.0995  2.9842
  109MOL0     H14674   8.017  -0.094   9.541 -0.6182  1.9378 -2.5802
  109MOL0     H14675   8.253  -0.198   9.450  0.4806 -0.4844  0.8873
  109MOL0     H14676   8.417  -0.350   9.385 -1.2479  3.3469  2.9733
  109MOL0     H14677   8.199  -0.901   9.085 -0.0212 -2.1566  0.7984
  109MOL0     H14678   8.344  -1.070   8.967 -1.2190 -1.9971  1.4896
  109MOL0     H14679   8.554  -1.100   8.838 -0.2360 -3.2583 -1.1513
  109MOL0     H14680   8.717  -1.081   8.900 -0.9868  3.3329 -0.0901
  109MOL0     H14681   8.691  -1.285   8.772 -0.8809  0.1465 -0.6504
  109MOL0     H14682   8.734  -1.327   8.939  0.3661  0.5526  0.4017
  109MOL0     H14683   8.439  -1.313   8.850 -1.9421 -1.4177  1.2288
  109MOL0     H14684   8.535  -1.460   8.803 -0.2348  0.5415 -0.3158
  109MOL0     H14685   8.439  -1.349   9.076 -1.9799  0.2008 -1.5445
  109MOL0     H14686   8.571  -1.457   9.080 -0.4747 -0.4830  1.9291
  109MOL0     H14687   8.332  -1.544   9.106  0.1505  1.4521  0.7740
  109MOL0     H14688   8.451  -1.645   9.014 -0.3539 -0.8777 -1.9304
  109MOL0     H14689   8.279  -1.466   8.858  1.1858 -1.2072 -0.9098
  109MOL0     H14690   8.369  -1.601   8.822  1.5850 -2.1209  2.4464
  109MOL0     H14691   8.104  -1.605   8.989 -1.7099  1.5896 -1.4663
  109MOL0     H14692   8.213  -1.745   8.965 -0.1102  0.1219 -1.3210
  109MOL0     H14693   8.053  -1.783   8.797 -0.6639  0.4545  0.9135
  109MOL0     H14694   8.049  -1.608   8.768  0.1046 -1.3777  0.1977
  109MOL0     H14695   8.673  -0.982   9.216  0.0074 -1.3543  1.9128
  109MOL0     H14696   8.543  -0.815   9.337 -0.7010  0.7697 -0.3318
  109MOL0     H14697   8.096  -0.601   9.201 -0.8329  0.1967 -0.0702
  109MOL0     H14698   7.935  -0.408   9.246  0.6715 -2.0304  1.5001
  109MOL0     H14699   7.226   1.471   9.984  0.0845 -0.2861 -0.5213
  109MOL0     H14700   7.142   1.710   9.920 -0.7657 -2.5471  0.0318
  109MOL0     H14701   7.389   2.131   9.843 -1.9677  0.4212  0.0979
  109MOL0     H14702   7.485   2.361   9.793 -1.1694  1.1515 -0.0027
  109MOL0     H14703   7.602   2.480   9.382 -1.2369 -3.2719  1.4623
  109MOL0     H14704   7.698   2.415   9.521  2.4291  1.8520  1.0262
  109MOL0     H14705   7.620   2.709   9.496 -0.8048 -0.3289 -2.9004
  109MOL0     H14706   7.777   2.643   9.445 -1.1288 -0.3429 -2.1795
  109MOL0     H14707   7.779   2.547   9.681 -0.8185 -0.8397  1.6138
  109MOL0     H14708   7.639   2.656   9.717 -1.2842  1.3226 -2.1542
  109MOL0     H14709   7.779   2.846   9.630 -0.5296 -1.3588 -0.9171
  109MOL0     H14710   7.804   2.781   9.798 -0.6161 -2.7954  0.5514
  109MOL0     H14711   8.181   2.709   9.648  0.4273 -1.8963 -0.6770
  109MOL0     H14712   7.439   2.318   9.385 -0.3840  2.6106  1.3775
  109MOL0     H14713   7.346   2.108   9.295  1.7596  2.2382  0.9860
  109MOL0     H14714   7.446   1.982   9.363 -1.7936 -1.5808 -2.9494
  109MOL0     H14715   7.257   2.000   9.387 -1.3719  1.9856  0.2160
  110MOL0     O14716   7.109  10.816   2.663 -0.1564  0.5672 -0.5314
  110MOL0     C14717   7.067  10.747   2.755  0.9707  0.8059  1.1795
  110MOL0     O14718   7.130  10.640   2.812  0.1308  0.5296  0.7527
  110MOL0     C14719   7.248  10.609   2.762 -0.1782  0.2673 -0.5852
  110MOL0     C14720   7.354  10.677   2.810 -0.6978 -0.0078 -0.3321
  110MOL0     C14721   7.486  10.655   2.769 -0.5270 -0.0751 -0.0115
  110MOL0     C14722   7.509  10.549   2.680 -0.1924  0.0631  0.1379
  110MOL0     O14723   7.640  10.508   2.642 -0.3187 -0.1462  0.0118
  110MOL0     C14724   7.749  10.608   2.660  0.7539  0.0143  1.1442
  110MOL0     C14725   7.866  10.574   2.763  0.2393  1.3956 -0.7893
  110MOL0     C14726   7.899  10.424   2.787 -0.1482 -0.5906  0.0743
  110MOL0     C14727   7.921  10.344   2.651  1.0075 -1.0100 -0.6404
  110MOL0     C14728   7.922  10.192   2.655  0.8315  0.2746 -0.4247
  110MOL0     C14729   8.008  10.133   2.767  0.2693 -0.4840 -0.8334
  110MOL0     C14730   8.001   9.979   2.771  0.5977 -0.7010  0.0063
  110MOL0     C14731   8.092   9.908   2.670 -0.9406 -0.2489 -0.2305
  110MOL0     N14732   8.079   9.942   2.526  0.1784  0.4387 -0.6662
  110MOL0     C14733   7.978   9.894   2.446  0.6166 -0.1695 -0.7433
  110MOL0     C14734   8.023   9.916   2.322  0.8043 -0.2311  0.5863
  110MOL0     C14735   7.938   9.893   2.198 -0.3529  0.2625 -0.1878
  110MOL0     C14736   7.990   9.760   2.148  0.5045  0.0701  0.2447
  110MOL0     C14737   7.983   9.733   1.997 -0.4480 -0.6373  1.0220
  110MOL0     C14738   7.847   9.741   1.935 -0.3256  0.7833 -0.6312
  110MOL0     O14739   7.833   9.687   1.804 -0.2185  0.0818  0.2232
  110MOL0     C14740   7.882   9.758   1.690  0.0249  0.2103 -0.9523
  110MOL0     C14741   7.942   9.885   1.692  0.5177  0.6294  0.8063
  110MOL0     C14742   7.992   9.950   1.580 -0.3757 -0.0486 -0.5585
  110MOL0     C14743   7.975   9.881   1.454 -0.1306  0.1147 -0.2627
  110MOL0     C14744   8.038   9.939   1.337  0.3622 -0.0706  0.8346
  110MOL0     O14745   8.029   9.856   1.230  0.2540 -0.4185 -0.5682
  110MOL0     C14746   8.061   9.888   1.097  0.4536  0.6521  0.4155
  110MOL0     C14747   8.010   9.791   1.012 -0.0801  0.0639  0.7476
  110MOL0     C14748   8.042   9.781   0.873  0.6926 -0.2001  0.0657
  110MOL0     C14749   8.128   9.874   0.821 -0.2274 -0.3584 -0.2756
  110MOL0     O14750   8.171   9.865   0.689 -0.2996 -0.4865  0.9027
  110MOL0     C14751   8.095   9.785   0.594 -0.2851  0.1502  1.1737
  110MOL0     C14752   8.157   9.789   0.454  0.6113  0.3713  0.1698
  110MOL0     C14753   8.306   9.740   0.445 -0.3727 -0.2348 -0.7074
  110MOL0     C14754   8.345   9.610   0.511 -0.2947 -0.2795 -0.0919
  110MOL0     C14755   8.486   9.570   0.486  0.5711  0.5602 -0.0860
  110MOL0     C14756   8.522   9.435   0.549  0.6980 -0.0090 -0.3701
  110MOL0     C14757   8.426   9.321   0.520 -0.5810 -0.0559  0.1838
  110MOL0     C14758   8.502   9.189   0.510 -0.1517 -0.3391 -0.2650
  110MOL0    Cl14759   8.580   9.152   0.681 -0.2670 -0.0352  0.0027
  110MOL0     C14760   8.176   9.980   0.903  0.3285 -0.6650 -0.3943
  110MOL0     C14761   8.137   9.987   1.037 -0.3735 -0.6166 -1.2648
  110MOL0     O14762   8.094  10.049   1.337 -0.1459 -0.8774 -0.1420
  110MOL0     C14763   7.902   9.757   1.455  0.2388 -0.5412  0.2067
  110MOL0     C14764   7.855   9.697   1.577 -0.0302  0.2783  0.6176
  110MOL0     N14765   8.143   9.980   2.330  0.6871 -0.4791 -0.1347
  110MOL0     N14766   8.181   9.987   2.452  0.3769  0.1197  0.0413
  110MOL0     C14767   7.405  10.472   2.630 -0.2305 -0.1793 -0.5896
  110MOL0     C14768   7.272  10.505   2.667  0.7391  0.5126  0.6850
  110MOL0     C14769   6.952  10.811   2.831 -0.3770  0.8836  0.3762
  110MOL0     C14770   6.899  10.932   2.798  0.0650 -0.9119 -1.2688
  110MOL0     C14771   6.796  11.002   2.867 -0.6106 -0.0436 -0.0422
  110MOL0     C14772   6.756  10.943   2.990  0.7953 -0.0908  0.8278
  110MOL0     O14773   6.670  10.996   3.083  0.0913 -0.3669  0.2916
  110MOL0     C14774   6.666  11.137   3.091 -0.2794 -0.0822  0.6717
  110MOL0     C14775   6.569  11.200   3.000  0.6766  0.1593  0.2927
  110MOL0     C14776   6.451  11.097   2.966 -0.3992 -0.8930  0.1596
  110MOL0     C14777   6.327  11.156   2.919  0.2603 -0.2452 -0.4679
  110MOL0     C14778   6.375  11.217   2.794  0.6651 -0.5184  1.4257
  110MOL0     C14779   6.411  11.276   2.689 -0.3035  0.9693  0.3072
  110MOL0     C14780   6.786  10.811   3.017  0.5841 -0.2663 -0.3928
  110MOL0     C14781   6.882  10.742   2.943 -0.0581  0.0859  0.5872
  110MOL0     C14782   6.914  10.609   2.990  0.7978 -0.7025  0.2787
  110MOL0     H14783   7.344  10.760   2.879  0.0223  1.8706 -2.3925
  110MOL0     H14784   7.560  10.715   2.819 -0.0926 -0.1295 -0.5818
  110MOL0     H14785   7.785  10.622   2.558 -0.8408  1.0739  0.6811
  110MOL0     H14786   7.713  10.707   2.691 -1.6134 -0.9488  1.7058
  110MOL0     H14787   7.841  10.630   2.854  2.3136  0.3062  0.5203
  110MOL0     H14788   7.951  10.615   2.708  1.0240 -0.6810 -1.1934
  110MOL0     H14789   7.810  10.384   2.838  0.0405 -0.9683  0.1107
  110MOL0     H14790   7.991  10.419   2.847  1.8443  1.0878 -2.6064
  110MOL0     H14791   7.843  10.367   2.579 -0.9646  0.1574  1.7259
  110MOL0     H14792   8.006  10.385   2.595  0.8163 -2.0543 -1.7115
  110MOL0     H14793   7.817  10.163   2.652  0.5875  1.0635  0.3950
  110MOL0     H14794   7.964  10.150   2.563  3.0776  0.8387  0.2799
  110MOL0     H14795   8.106  10.178   2.779 -0.2978  0.3232  1.2577
  110MOL0     H14796   7.952  10.167   2.855  1.4308  1.5151 -0.8029
  110MOL0     H14797   7.899   9.951   2.744 -0.1555  1.2316  0.6801
  110MOL0     H14798   8.023   9.941   2.871 -0.0287 -1.5887 -0.1865
  110MOL0     H14799   8.193   9.924   2.708  0.1492 -0.3907 -2.8117
  110MOL0     H14800   8.082   9.800   2.675 -1.5859 -0.2422 -1.1699
  110MOL0     H14801   7.878   9.865   2.477  0.8276 -0.1361 -0.0060
  110MOL0     H14802   7.830   9.885   2.209 -0.5166 -0.2089 -1.9276
  110MOL0     H14803   7.960   9.973   2.127 -0.2836 -0.1274 -0.6114
  110MOL0     H14804   8.099   9.753   2.161  0.4743  1.8170  1.8675
  110MOL0     H14805   7.937   9.684   2.207 -1.5240  3.5715  3.3889
  110MOL0     H14806   8.039   9.643   1.969  0.9758  0.4570  0.2320
  110MOL0     H14807   8.047   9.811   1.955 -2.8880  1.2286  0.5091
  110MOL0     H14808   7.820   9.847   1.932  0.6383  1.0658 -3.8965
  110MOL0     H14809   7.771   9.699   2.002  1.4762 -2.5386 -0.4613
  110MOL0     H14810   7.934   9.943   1.784 -1.7858  1.7004  0.0100
  110MOL0     H14811   8.041  10.045   1.592 -0.0186  0.0975 -2.8502
  110MOL0     H14812   7.968   9.707   1.067 -1.8774  2.4670  3.3066
  110MOL0     H14813   8.007   9.696   0.815 -2.1831  1.4890 -0.8629
  110MOL0     H14814   8.087   9.682   0.631  2.0036 -0.4249  0.2032
  110MOL0     H14815   7.994   9.825   0.577  0.3183  0.9446 -0.8285
  110MOL0     H14816   8.098   9.735   0.380 -0.9762 -1.0774  2.3706
  110MOL0     H14817   8.148   9.890   0.413  1.2292  1.5231  2.6726
  110MOL0     H14818   8.338   9.722   0.342 -1.5317 -1.0354 -0.9464
  110MOL0     H14819   8.362   9.819   0.495 -1.8761 -1.0629  2.5207
  110MOL0     H14820   8.274   9.533   0.480  1.2922 -1.1374 -1.7462
  110MOL0     H14821   8.333   9.623   0.619 -4.1777  3.4419 -0.6851
  110MOL0     H14822   8.559   9.639   0.529  0.7803  0.7968 -0.7945
  110MOL0     H14823   8.499   9.572   0.377  1.3479 -1.1540 -0.0424
  110MOL0     H14824   8.619   9.407   0.508  0.2230 -0.8428 -0.9734
  110MOL0     H14825   8.539   9.451   0.656  2.4475  1.1221 -0.7772
  110MOL0     H14826   8.388   9.351   0.421  2.9914  2.6968 -0.5851
  110MOL0     H14827   8.344   9.317   0.591 -0.9663 -0.6437 -0.2885
  110MOL0     H14828   8.438   9.106   0.480  0.7557 -1.1971  0.1234
  110MOL0     H14829   8.577   9.205   0.433  0.4836 -0.7376  0.2607
  110MOL0     H14830   8.231  10.056   0.850 -1.3291 -0.0124 -1.2729
  110MOL0     H14831   8.170  10.074   1.092 -1.7477 -0.0572 -1.2804
  110MOL0     H14832   7.881   9.709   1.360  0.4703  1.7679 -1.0902
  110MOL0     H14833   7.807   9.600   1.574 -0.9022  0.4602 -6.1761
  110MOL0     H14834   7.431  10.383   2.573 -0.4596 -1.1204  0.7331
  110MOL0     H14835   7.181  10.453   2.642  0.4666  0.5278  1.6358
  110MOL0     H14836   6.948  10.987   2.718  3.4969 -1.8705 -0.0090
  110MOL0     H14837   6.750  11.094   2.833 -0.9037 -0.1572  0.0364
  110MOL0     H14838   6.766  11.176   3.071 -1.5269  3.5195  0.7210
  110MOL0     H14839   6.658  11.168   3.196  2.0706  0.2068  0.8343
  110MOL0     H14840   6.615  11.232   2.906 -0.9780  0.8448 -0.3218
  110MOL0     H14841   6.522  11.287   3.047 -0.0351 -0.9744  1.7461
  110MOL0     H14842   6.421  11.054   3.061 -1.3388  3.5688  2.1540
  110MOL0     H14843   6.486  11.023   2.894 -3.1716  0.2556 -2.6073
  110MOL0     H14844   6.250  11.078   2.911 -1.3898  1.2320  0.2844
  110MOL0     H14845   6.287  11.222   2.997 -0.2190 -2.9149  1.6877
  110MOL0     H14846   6.433  11.346   2.610 -1.3267  3.7870  2.3223
  110MOL0     H14847   6.742  10.776   3.109  2.2743 -1.1296  0.1355
  110MOL0     H14848   6.838  10.561   3.052 -1.7322 -0.6450 -2.5325
  110MOL0     H14849   6.926  10.540   2.906  1.3172 -1.1154  0.6851
  110MOL0     H14850   7.001  10.607   3.056  1.6077 -3.2073 -0.7529
  111MOL0     O14851   2.668   0.559   3.319  0.0490  0.3052 -0.4034
  111MOL0     C14852   2.697   0.664   3.376 -0.4122 -0.5771  0.2933
  111MOL0     O14853   2.742   0.785   3.300  0.2034  0.1293  0.1894
  111MOL0     C14854   2.724   0.774   3.160  0.7095  0.3887  0.6009
  111MOL0     C14855   2.775   0.669   3.082 -0.2038 -0.7094  0.4338
  111MOL0     C14856   2.742   0.663   2.943 -1.1760 -1.3525  0.3297
  111MOL0     C14857   2.665   0.758   2.877  0.0384  0.1232 -0.0781
  111MOL0     O14858   2.642   0.742   2.744 -0.0587 -0.2816 -0.4731
  111MOL0     C14859   2.630   0.854   2.664 -0.7211  0.0706  0.3191
  111MOL0     C14860   2.653   0.820   2.519 -0.2623 -0.0179 -0.0806
  111MOL0     C14861   2.575   0.703   2.483  0.9343 -0.8350 -0.3436
  111MOL0     C14862   2.602   0.689   2.328 -0.0394 -0.5418  0.7013
  111MOL0     C14863   2.533   0.563   2.278  0.1455 -0.3693  0.2635
  111MOL0     C14864   2.523   0.578   2.131  1.0061 -0.3076 -0.4226
  111MOL0     C14865   2.439   0.459   2.073 -0.7598 -0.7873  0.1735
  111MOL0     C14866   2.356   0.514   1.954  0.0129  0.2848 -0.5444
  111MOL0     N14867   2.449   0.552   1.848  0.5222 -0.4440  0.3606
  111MOL0     C14868   2.432   0.645   1.745  0.3590 -0.1706  0.6539
  111MOL0     C14869   2.522   0.623   1.648 -0.6565 -0.4959  0.2813
  111MOL0     C14870   2.535   0.704   1.517 -0.5781 -0.1473 -0.7293
  111MOL0     C14871   2.565   0.610   1.395  0.1024 -0.0567 -0.1915
  111MOL0     C14872   2.719   0.607   1.369  0.3243  0.2289 -0.2188
  111MOL0     C14873   2.753   0.515   1.253 -0.3600  0.3279 -0.0427
  111MOL0     O14874   2.695   0.586   1.143 -0.0344 -0.8927 -0.4973
  111MOL0     C14875   2.680   0.525   1.023  0.0087 -0.3679 -0.2866
  111MOL0     C14876   2.704   0.390   0.995  0.0490  0.8659 -0.0250
  111MOL0     C14877   2.672   0.335   0.869  0.5778  0.3134 -0.2887
  111MOL0     C14878   2.611   0.425   0.777 -0.5077  0.3645  0.5860
  111MOL0     C14879   2.582   0.377   0.636  0.2221  0.2296 -0.6845
  111MOL0     O14880   2.577   0.236   0.631  0.0090 -0.2402  0.1971
  111MOL0     C14881   2.591   0.180   0.510  0.5194  0.1594  0.5674
  111MOL0     C14882   2.688   0.082   0.497  0.0527 -0.6355 -0.1356
  111MOL0     C14883   2.700   0.022   0.376  1.2397 -0.0962  1.1968
  111MOL0     C14884   2.624   0.049   0.264  0.3731  0.0687  0.9320
  111MOL0     O14885   2.617  -0.022   0.141 -0.2008  0.0970 -0.0267
  111MOL0     C14886   2.671  -0.157   0.153  0.4756  0.7947 -0.1738
  111MOL0     C14887   2.599  -0.244   0.054  0.1837  0.7123 -0.6876
  111MOL0     C14888   2.440  -0.246   0.069 -0.1632 -0.2139 -0.0211
  111MOL0     C14889   2.386  -0.337  -0.052  0.6855 -0.5239  0.6890
  111MOL0     C14890   2.238  -0.397  -0.027 -1.3661 -1.0087 -0.5536
  111MOL0     C14891   2.116  -0.309  -0.028 -0.4529 -0.2952  0.5649
  111MOL0     C14892   1.989  -0.391  -0.049  1.1723  0.2332  0.1859
  111MOL0     C14893   1.862  -0.307  -0.065  0.2815 -0.5871  0.5313
  111MOL0    Cl14894   1.894  -0.207  -0.224  0.1489 -0.0485 -0.0100
  111MOL0     C14895   2.526   0.147   0.280  0.6185  0.3099 -0.0969
  111MOL0     C14896   2.516   0.215   0.399  0.3706 -0.0205 -0.8901
  111MOL0     O14897   2.603   0.453   0.544  0.5515 -1.2103 -0.5432
  111MOL0     C14898   2.578   0.552   0.808  1.1266 -0.1008  0.6205
  111MOL0     C14899   2.614   0.603   0.930 -0.4619 -0.7513  1.5181
  111MOL0     N14900   2.601   0.530   1.701  0.0533  0.7076  0.3506
  111MOL0     N14901   2.554   0.479   1.811 -0.1815  0.0103 -0.2076
  111MOL0     C14902   2.620   0.858   2.961 -0.0261  0.0710  0.5733
  111MOL0     C14903   2.644   0.872   3.104 -0.2569  0.4818  0.6275
  111MOL0     C14904   2.679   0.681   3.517  0.0918  0.6951  0.0480
  111MOL0     C14905   2.613   0.798   3.563  0.8359  0.9749  0.0385
  111MOL0     C14906   2.581   0.820   3.694  0.1861  0.7478 -0.6613
  111MOL0     C14907   2.616   0.721   3.781 -0.4208  0.5174  0.5464
  111MOL0     O14908   2.588   0.750   3.916 -0.0440  0.3642  0.2639
  111MOL0     C14909   2.587   0.640   4.010 -0.1887  0.0914  0.7565
  111MOL0     C14910   2.497   0.673   4.132 -0.6539 -0.2961  0.7133
  111MOL0     C14911   2.499   0.566   4.250 -0.1665 -0.7539 -1.0343
  111MOL0     C14912   2.368   0.499   4.294  0.5683 -0.3127  0.1490
  111MOL0     C14913   2.373   0.432   4.423 -0.0568  1.4134  0.4848
  111MOL0     C14914   2.368   0.391   4.541  0.3229 -0.0563  0.7350
  111MOL0     C14915   2.681   0.605   3.742  0.3567 -0.3467  0.0394
  111MOL0     C14916   2.724   0.581   3.609 -0.4223 -0.7821  0.2063
  111MOL0     C14917   2.809   0.459   3.589  0.1104  1.3859  0.3145
  111MOL0     H14918   2.835   0.589   3.124 -1.1759 -1.1398  1.0432
  111MOL0     H14919   2.794   0.583   2.891  0.6279  0.6611 -1.1754
  111MOL0     H14920   2.529   0.893   2.676 -1.1672 -0.5328 -1.3277
  111MOL0     H14921   2.695   0.933   2.705 -1.2244  0.0960  1.0869
  111MOL0     H14922   2.761   0.811   2.508 -0.4593  0.6146 -5.4885
  111MOL0     H14923   2.617   0.907   2.464  2.6705  2.3657  1.4842
  111MOL0     H14924   2.468   0.717   2.502  0.7409 -0.9918 -1.2669
  111MOL0     H14925   2.603   0.608   2.530 -1.7921 -1.2117  0.6815
  111MOL0     H14926   2.554   0.773   2.276  0.5728 -0.7504 -0.2291
  111MOL0     H14927   2.709   0.685   2.307 -0.2172 -2.4633 -0.0913
  111MOL0     H14928   2.596   0.474   2.294  2.2702 -0.0086 -4.4032
  111MOL0     H14929   2.436   0.551   2.328  0.1536  1.4926  0.7722
  111MOL0     H14930   2.482   0.678   2.114  0.0198 -0.0800  2.5756
  111MOL0     H14931   2.620   0.569   2.082  0.8097 -1.7930 -0.5707
  111MOL0     H14932   2.373   0.418   2.150 -0.8391 -0.3028  0.3678
  111MOL0     H14933   2.504   0.375   2.047 -0.4975  0.1404 -2.4962
  111MOL0     H14934   2.273   0.447   1.929 -0.1309 -0.0448  0.7215
  111MOL0     H14935   2.309   0.605   1.994  3.2920  0.8963  2.4346
  111MOL0     H14936   2.350   0.716   1.735 -2.5551 -3.6013 -2.9353
  111MOL0     H14937   2.446   0.765   1.500  0.1758  0.1670 -4.2079
  111MOL0     H14938   2.629   0.760   1.528  0.0682 -1.5654  2.2476
  111MOL0     H14939   2.509   0.518   1.417 -2.3532  1.6840  1.3736
  111MOL0     H14940   2.516   0.647   1.305 -2.5276 -2.5717  0.0586
  111MOL0     H14941   2.780   0.578   1.456 -0.2501  3.2405  1.3165
  111MOL0     H14942   2.751   0.706   1.335 -0.4950  0.7563  0.5187
  111MOL0     H14943   2.722   0.412   1.270  1.2134 -0.0534  0.7612
  111MOL0     H14944   2.858   0.501   1.225 -0.1844 -3.3243  1.8892
  111MOL0     H14945   2.743   0.330   1.077 -1.1523 -1.6794 -1.2180
  111MOL0     H14946   2.698   0.235   0.835  2.2710  2.0094 -4.8111
  111MOL0     H14947   2.748   0.040   0.578 -0.8707 -2.4520 -0.3466
  111MOL0     H14948   2.772  -0.059   0.377  2.6300  1.1001  1.9785
  111MOL0     H14949   2.778  -0.155   0.130  1.0174  1.2517  2.1077
  111MOL0     H14950   2.660  -0.204   0.251  2.5844  1.2202  0.3133
  111MOL0     H14951   2.624  -0.224  -0.050 -2.5456 -2.8703 -2.2139
  111MOL0     H14952   2.647  -0.337   0.086  2.4418  1.9045 -0.3956
  111MOL0     H14953   2.425  -0.288   0.168 -0.1019  2.6244  1.2943
  111MOL0     H14954   2.389  -0.150   0.060 -1.2791 -0.5715  2.0290
  111MOL0     H14955   2.462  -0.414  -0.066  1.5703  0.5669 -0.8513
  111MOL0     H14956   2.393  -0.277  -0.143 -0.6232 -1.8804 -0.3491
  111MOL0     H14957   2.242  -0.439   0.073 -2.2344 -3.3036 -1.4118
  111MOL0     H14958   2.224  -0.474  -0.104 -2.1670  0.1655 -1.6349
  111MOL0     H14959   2.112  -0.249   0.063 -1.1216 -0.4077  0.6176
  111MOL0     H14960   2.124  -0.230  -0.104 -2.3262 -0.5117  0.0796
  111MOL0     H14961   1.973  -0.453   0.039  1.8469  2.4669  1.9764
  111MOL0     H14962   1.986  -0.463  -0.131  1.4343 -1.0713  1.2909
  111MOL0     H14963   1.771  -0.363  -0.089 -0.7734  2.2015 -2.8632
  111MOL0     H14964   1.829  -0.251   0.023 -1.7810 -2.2009  0.8606
  111MOL0     H14965   2.447   0.162   0.207 -0.1559  2.7676  1.1269
  111MOL0     H14966   2.440   0.293   0.398 -0.8771 -1.2209 -1.0500
  111MOL0     H14967   2.525   0.619   0.741 -0.2972 -0.1091  1.6909
  111MOL0     H14968   2.571   0.701   0.952  0.7383  0.6337 -1.6652
  111MOL0     H14969   2.554   0.940   2.932  2.3136  1.5059 -0.9942
  111MOL0     H14970   2.588   0.945   3.162  1.0423  3.0988 -1.1710
  111MOL0     H14971   2.583   0.874   3.491  2.2158  1.2780 -0.2411
  111MOL0     H14972   2.542   0.908   3.745  0.4892 -0.5879  2.0791
  111MOL0     H14973   2.690   0.630   4.047  0.0485 -0.4084 -0.0061
  111MOL0     H14974   2.545   0.548   3.968  2.7575 -1.6545  1.3228
  111MOL0     H14975   2.396   0.673   4.090 -0.1497  3.5067 -0.8607
  111MOL0     H14976   2.515   0.778   4.155  2.3856 -0.7100  0.7274
  111MOL0     H14977   2.548   0.606   4.339  0.7228 -1.7360 -1.0702
  111MOL0     H14978   2.551   0.481   4.206  0.0837 -1.1903  0.0798
  111MOL0     H14979   2.283   0.568   4.286 -0.8666 -2.0365 -0.0200
  111MOL0     H14980   2.346   0.426   4.215 -0.6890  3.8077 -3.7466
  111MOL0     H14981   2.359   0.342   4.635  5.2490 -1.5048  0.6844
  111MOL0     H14982   2.708   0.531   3.817 -0.9416  0.4413  1.3330
  111MOL0     H14983   2.861   0.477   3.495  0.5575  0.1520  0.3199
  111MOL0     H14984   2.880   0.424   3.664 -1.8379 -2.1092  0.7169
  111MOL0     H14985   2.750   0.370   3.567  4.2328 -1.6792  0.5517
  112MOL0     O14986   5.938   3.699   2.741  0.2028 -1.1805  1.2280
  112MOL0     C14987   5.847   3.784   2.738  0.0241 -0.4508  0.4985
  112MOL0     O14988   5.828   3.873   2.831 -0.1244  0.1625 -0.2792
  112MOL0     C14989   5.912   3.890   2.940  0.7956 -0.0030  0.2191
  112MOL0     C14990   5.896   3.816   3.058  1.0291  0.8495 -1.1403
  112MOL0     C14991   5.990   3.811   3.155 -0.1047 -0.7177  0.5925
  112MOL0     C14992   6.108   3.885   3.146 -1.5189 -0.5109  1.1836
  112MOL0     O14993   6.209   3.882   3.237 -0.7367 -0.2760 -0.3660
  112MOL0     C14994   6.226   3.771   3.334 -0.9597 -0.8649 -0.1871
  112MOL0     C14995   6.356   3.788   3.431 -0.2371 -0.0415  0.3519
  112MOL0     C14996   6.476   3.756   3.346 -0.3656 -0.3849 -0.7218
  112MOL0     C14997   6.522   3.876   3.256 -0.4773 -0.5948 -0.6189
  112MOL0     C14998   6.519   3.840   3.111  0.0443  0.3462 -0.1177
  112MOL0     C14999   6.549   3.949   3.008 -0.5413  0.1885  0.5158
  112MOL0     C15000   6.585   3.882   2.872  0.6013  0.4596 -0.4726
  112MOL0     C15001   6.608   3.990   2.765 -0.8095  0.0290 -0.3028
  112MOL0     N15002   6.745   4.047   2.779 -0.2431 -0.0263  0.0809
  112MOL0     C15003   6.773   4.177   2.813 -0.0096  0.4662  0.0477
  112MOL0     C15004   6.909   4.188   2.810 -0.4046 -0.8563  0.5505
  112MOL0     C15005   7.005   4.308   2.825  0.4146  0.3630 -0.5704
  112MOL0     C15006   7.041   4.325   2.973  0.3129 -0.0297  0.1531
  112MOL0     C15007   7.167   4.410   2.988 -0.8441 -0.8733  0.0223
  112MOL0     C15008   7.201   4.457   3.133 -0.4097  0.2291 -0.1309
  112MOL0     O15009   7.200   4.351   3.221 -0.0672  0.1047 -0.0836
  112MOL0     C15010   7.303   4.365   3.315 -0.1436  0.8909  0.2527
  112MOL0     C15011   7.362   4.480   3.361 -0.4434 -0.5068 -0.3961
  112MOL0     C15012   7.455   4.477   3.459 -0.1785 -0.0659 -0.5810
  112MOL0     C15013   7.495   4.353   3.518 -0.9026  0.1136  0.2775
  112MOL0     C15014   7.591   4.359   3.625 -0.3313  0.4314 -0.0684
  112MOL0     O15015   7.642   4.478   3.661  0.5312 -0.4747  0.4094
  112MOL0     C15016   7.733   4.487   3.765 -1.7985  0.0067  0.6649
  112MOL0     C15017   7.872   4.490   3.740 -0.4489  0.5301  0.2997
  112MOL0     C15018   7.963   4.511   3.841  0.2569  0.9132 -0.2437
  112MOL0     C15019   7.912   4.538   3.973  0.2788  0.0692  1.6408
  112MOL0     O15020   8.007   4.551   4.065  0.3556 -0.8471  0.5626
  112MOL0     C15021   7.969   4.475   4.187 -0.3881  0.5693 -0.0368
  112MOL0     C15022   7.946   4.573   4.304  0.8613  0.5933 -0.7541
  112MOL0     C15023   7.884   4.512   4.430  0.6422 -0.0702  0.9316
  112MOL0     C15024   7.728   4.488   4.420 -0.7217 -0.0521  0.7130
  112MOL0     C15025   7.653   4.496   4.552 -0.8067  0.1160 -0.5558
  112MOL0     C15026   7.507   4.470   4.539  0.2728 -0.1571  0.1195
  112MOL0     C15027   7.447   4.506   4.680  0.7403  0.2790  0.5565
  112MOL0     C15028   7.355   4.408   4.743  0.8371  0.7592  0.4256
  112MOL0    Cl15029   7.437   4.248   4.749  0.3712 -0.2786 -0.0220
  112MOL0     C15030   7.772   4.539   3.997 -0.6421  1.2584  0.0469
  112MOL0     C15031   7.685   4.517   3.892  0.0970  1.1484  0.1855
  112MOL0     O15032   7.620   4.254   3.681  1.0775  0.0817 -0.0475
  112MOL0     C15033   7.432   4.232   3.475 -0.2090  0.5809  0.0283
  112MOL0     C15034   7.325   4.242   3.384  0.0112 -0.1978  0.1367
  112MOL0     N15035   6.959   4.061   2.784  0.6311  0.5475  0.1517
  112MOL0     N15036   6.861   3.982   2.760 -0.0211 -0.1363  0.6376
  112MOL0     C15037   6.123   3.962   3.035 -0.3859  0.5015 -0.1586
  112MOL0     C15038   6.025   3.978   2.937 -0.0160 -0.2040  0.1178
  112MOL0     C15039   5.729   3.789   2.634 -0.1349  0.3297 -0.4174
  112MOL0     C15040   5.618   3.857   2.667  1.1328  0.0717 -1.1523
  112MOL0     C15041   5.502   3.848   2.587  0.3848  0.9299 -0.7986
  112MOL0     C15042   5.497   3.786   2.467 -0.2047  0.8495  0.7623
  112MOL0     O15043   5.385   3.795   2.387 -0.3491 -0.1190 -0.0906
  112MOL0     C15044   5.363   3.714   2.276  0.3741  0.1783  0.9160
  112MOL0     C15045   5.347   3.566   2.297 -0.3875  0.4354  0.2683
  112MOL0     C15046   5.299   3.515   2.431 -0.1981 -0.1603  0.3856
  112MOL0     C15047   5.215   3.391   2.426 -0.4628 -0.8003 -0.0028
  112MOL0     C15048   5.209   3.341   2.559  0.4163 -0.1773  0.1716
  112MOL0     C15049   5.220   3.275   2.664 -0.5078 -0.1657 -0.2082
  112MOL0     C15050   5.609   3.723   2.425 -0.0248 -0.1941 -0.6752
  112MOL0     C15051   5.726   3.728   2.508 -0.6102  0.7966  0.0179
  112MOL0     C15052   5.850   3.680   2.437 -0.3137  0.7194  0.1440
  112MOL0     H15053   5.824   3.736   3.047  1.4417  0.2452  0.3572
  112MOL0     H15054   5.953   3.746   3.235 -1.9349  0.0550  0.4304
  112MOL0     H15055   6.138   3.758   3.397 -0.5725 -0.4043  0.4540
  112MOL0     H15056   6.231   3.678   3.275  1.0630 -1.6885  1.1695
  112MOL0     H15057   6.359   3.717   3.514  0.8871 -0.1027  0.2736
  112MOL0     H15058   6.360   3.890   3.470 -1.4164  0.9375 -1.9151
  112MOL0     H15059   6.448   3.673   3.280 -3.5307  1.6827 -2.2114
  112MOL0     H15060   6.559   3.716   3.404  2.0803  1.0851 -2.9578
  112MOL0     H15061   6.465   3.969   3.267  0.6161  0.0520 -0.3253
  112MOL0     H15062   6.615   3.912   3.300 -0.4936 -1.7781  0.4638
  112MOL0     H15063   6.595   3.761   3.111  2.1315  2.2755  0.3978
  112MOL0     H15064   6.420   3.805   3.081  0.4600 -0.0171 -1.1051
  112MOL0     H15065   6.463   4.014   2.987  0.2695  1.1786  0.1912
  112MOL0     H15066   6.634   4.016   3.025  0.3938 -0.0934 -2.4917
  112MOL0     H15067   6.499   3.818   2.852  0.9659 -0.1651 -0.0705
  112MOL0     H15068   6.672   3.817   2.882  0.3729  0.3056  0.7417
  112MOL0     H15069   6.599   3.943   2.666  1.2885  2.0683 -1.5675
  112MOL0     H15070   6.534   4.065   2.794 -1.7852 -1.5995  1.6527
  112MOL0     H15071   6.702   4.255   2.835 -0.2920  0.0114  0.7971
  112MOL0     H15072   7.092   4.291   2.761  0.6518 -0.1406 -0.1278
  112MOL0     H15073   6.968   4.402   2.782 -1.1177  0.5655  1.0672
  112MOL0     H15074   6.957   4.364   3.031  0.7580 -1.1448  1.6171
  112MOL0     H15075   7.062   4.226   3.014 -3.2126 -1.4399 -1.0648
  112MOL0     H15076   7.159   4.496   2.920  0.8601 -1.8558 -1.5067
  112MOL0     H15077   7.253   4.359   2.944  0.4449 -0.2805  1.7025
  112MOL0     H15078   7.121   4.521   3.173  1.1715  0.1919  3.4912
  112MOL0     H15079   7.300   4.502   3.127  0.2121 -1.2916 -3.4314
  112MOL0     H15080   7.334   4.579   3.326  2.4404  0.8470  0.7999
  112MOL0     H15081   7.495   4.567   3.504  1.4225 -1.3268  0.6520
  112MOL0     H15082   7.906   4.477   3.638  0.1524 -0.9014  0.6588
  112MOL0     H15083   8.070   4.516   3.823  0.2180 -1.4230 -1.5581
  112MOL0     H15084   7.878   4.414   4.180 -0.6249  1.0699 -1.6391
  112MOL0     H15085   8.047   4.399   4.198 -2.2918 -1.7488 -1.5897
  112MOL0     H15086   8.034   4.630   4.337  0.1143  0.3464  1.8800
  112MOL0     H15087   7.881   4.647   4.259 -2.5187 -2.3339 -1.1126
  112MOL0     H15088   7.914   4.408   4.445  0.4595 -0.3897 -0.7000
  112MOL0     H15089   7.900   4.582   4.512 -1.0134  1.3689  0.0834
  112MOL0     H15090   7.706   4.396   4.365 -1.2752  0.9177 -0.7613
  112MOL0     H15091   7.685   4.564   4.354 -0.2874 -0.4462 -0.0354
  112MOL0     H15092   7.668   4.600   4.582  0.4922 -0.4788  0.9828
  112MOL0     H15093   7.698   4.434   4.630 -1.0678  1.1423  0.4605
  112MOL0     H15094   7.467   4.518   4.448  2.7249 -0.4458 -1.1862
  112MOL0     H15095   7.481   4.364   4.534  0.3639 -0.1588 -0.4525
  112MOL0     H15096   7.405   4.607   4.676 -0.3863 -0.1973 -0.3094
  112MOL0     H15097   7.514   4.518   4.765 -1.2785  1.2639  2.1013
  112MOL0     H15098   7.327   4.444   4.842 -0.2905  1.8624 -0.2665
  112MOL0     H15099   7.266   4.390   4.682  0.1372 -0.0316  1.6379
  112MOL0     H15100   7.719   4.548   4.091  0.5359 -2.8353  1.3011
  112MOL0     H15101   7.582   4.540   3.918 -0.8483  0.5057 -2.5598
  112MOL0     H15102   7.450   4.146   3.538  1.4670 -0.4890 -1.7956
  112MOL0     H15103   7.267   4.166   3.333  1.9543 -0.8382 -1.2662
  112MOL0     H15104   6.218   4.015   3.041 -0.1335  0.2469 -1.6653
  112MOL0     H15105   6.045   4.038   2.850  2.5104 -0.2328  0.5979
  112MOL0     H15106   5.607   3.915   2.759  1.1244  0.4387 -1.3807
  112MOL0     H15107   5.407   3.885   2.622  1.7014  3.0369  0.7779
  112MOL0     H15108   5.432   3.730   2.193 -2.0930 -0.1857 -1.3164
  112MOL0     H15109   5.262   3.745   2.251  0.9557  0.9454 -0.5716
  112MOL0     H15110   5.437   3.505   2.293 -2.0932 -2.5296  2.4043
  112MOL0     H15111   5.288   3.522   2.216 -1.6848  0.8629  0.9496
  112MOL0     H15112   5.251   3.600   2.480 -1.1953 -0.1354 -0.5804
  112MOL0     H15113   5.392   3.492   2.484 -1.1827 -0.6542  1.9381
  112MOL0     H15114   5.114   3.417   2.394 -0.9727 -1.0664  1.3242
  112MOL0     H15115   5.256   3.314   2.360 -2.0516 -0.8366 -0.9928
  112MOL0     H15116   5.234   3.211   2.749 -0.2421 -1.0507 -0.9065
  112MOL0     H15117   5.618   3.683   2.324  0.5939  0.0802 -0.7345
  112MOL0     H15118   5.887   3.583   2.470 -2.0282  0.0914  0.3420
  112MOL0     H15119   5.836   3.674   2.328 -0.5939  0.2503  0.2032
  112MOL0     H15120   5.924   3.760   2.449  1.5162 -0.7392 -0.8661
  113MOL0     O15121   5.210  10.666   8.813  0.6019  0.3952  0.2400
  113MOL0     C15122   5.120  10.629   8.742 -0.7028 -0.0762  0.6247
  113MOL0     O15123   5.138  10.608   8.615 -0.2124  0.1265 -0.4005
  113MOL0     C15124   5.263  10.606   8.541 -0.6493 -1.4795 -0.0160
  113MOL0     C15125   5.284  10.527   8.431  0.5173 -0.3249 -0.2578
  113MOL0     C15126   5.399  10.543   8.356 -0.3334 -0.3161 -0.0176
  113MOL0     C15127   5.508  10.616   8.402 -0.2243  0.1929 -0.4666
  113MOL0     O15128   5.644  10.611   8.360  0.9952  0.1462  0.0344
  113MOL0     C15129   5.683  10.475   8.362 -0.3281  0.5827  0.3728
  113MOL0     C15130   5.816  10.454   8.433  1.4521 -0.5056  0.2973
  113MOL0     C15131   5.922  10.523   8.353  0.2652 -0.0505  0.3050
  113MOL0     C15132   6.058  10.531   8.419  0.3562  0.1617  0.9257
  113MOL0     C15133   6.155  10.606   8.319  0.4879 -0.1901 -0.4247
  113MOL0     C15134   6.297  10.631   8.365  0.3212 -0.2468  0.2866
  113MOL0     C15135   6.331  10.711   8.497  0.8392  1.4325  0.6263
  113MOL0     C15136   6.477  10.715   8.519 -0.7002 -0.5852  0.0792
  113MOL0     N15137   6.534  10.810   8.616 -0.1703 -0.8769 -0.1312
  113MOL0     C15138   6.558  10.770   8.745 -0.2140  0.5524 -0.1681
  113MOL0     C15139   6.569  10.887   8.812  1.0260  0.7389 -0.6400
  113MOL0     C15140   6.600  10.890   8.954  0.0563  0.4653  0.2807
  113MOL0     C15141   6.753  10.904   8.982  0.5033  0.0752  0.2418
  113MOL0     C15142   6.784  10.935   9.123 -0.5467  0.4493  0.1251
  113MOL0     C15143   6.938  10.916   9.131 -1.3603 -0.3646 -0.4383
  113MOL0     O15144   6.996  11.020   9.060  0.0509  0.2223 -0.0019
  113MOL0     C15145   6.982  11.148   9.121 -1.5165  0.9342  0.1414
  113MOL0     C15146   7.017  11.178   9.254  0.5484  0.7528 -0.6863
  113MOL0     C15147   6.996  11.309   9.297  1.0373  0.0437 -0.5388
  113MOL0     C15148   6.940  11.408   9.218 -0.1977 -0.6614  0.1816
  113MOL0     C15149   6.906  11.541   9.286 -0.8677  0.8318 -0.4149
  113MOL0     O15150   6.871  11.639   9.206 -0.2075  0.0927  0.0137
  113MOL0     C15151   6.833  11.760   9.257  0.1980  1.1258  0.7881
  113MOL0     C15152   6.746  11.769   9.363  0.3963  0.2726 -0.7587
  113MOL0     C15153   6.708  11.894   9.416  0.2012 -0.6898  0.6476
  113MOL0     C15154   6.745  12.007   9.342 -0.4838  0.7742  0.9857
  113MOL0     O15155   6.699  12.126   9.383  0.3816 -0.6131  0.3363
  113MOL0     C15156   6.588  12.185   9.311 -0.1245 -0.1848  0.7042
  113MOL0     C15157   6.542  12.310   9.391 -0.5025 -0.1052 -0.1558
  113MOL0     C15158   6.641  12.418   9.352  0.2726  0.0492  0.2204
  113MOL0     C15159   6.640  12.538   9.443 -0.8230 -0.3725 -0.5612
  113MOL0     C15160   6.509  12.613   9.450  0.4416  0.5915  0.3175
  113MOL0     C15161   6.529  12.738   9.531  0.2939 -1.2139  0.7644
  113MOL0     C15162   6.386  12.791   9.530  0.1614 -0.0210 -0.3436
  113MOL0     C15163   6.284  12.720   9.618  0.4050  0.1460 -1.2489
  113MOL0    Cl15164   6.124  12.815   9.605 -0.0650  0.7032  0.1298
  113MOL0     C15165   6.836  11.998   9.238 -0.1078  0.8126 -0.1532
  113MOL0     C15166   6.873  11.875   9.190  0.2415 -0.1681 -0.0937
  113MOL0     O15167   6.947  11.555   9.403  0.5345  0.2079  1.1270
  113MOL0     C15168   6.896  11.378   9.094  0.6284  0.5689 -0.1820
  113MOL0     C15169   6.928  11.250   9.045 -0.0477 -0.0964 -0.4356
  113MOL0     N15170   6.554  10.985   8.728  0.0559 -0.9365  0.6232
  113MOL0     N15171   6.538  10.950   8.607  0.0237  0.7959  0.3755
  113MOL0     C15172   5.489  10.696   8.510  0.1910  0.1031  0.0874
  113MOL0     C15173   5.364  10.696   8.582 -0.2302  0.6062 -0.2786
  113MOL0     C15174   4.983  10.616   8.812  0.3983 -0.5544  0.6845
  113MOL0     C15175   4.947  10.696   8.920  0.0593 -0.9059 -0.0728
  113MOL0     C15176   4.834  10.673   8.994  0.1179 -0.8648 -0.3388
  113MOL0     C15177   4.729  10.596   8.940 -0.4542  0.1958 -0.1801
  113MOL0     O15178   4.615  10.611   9.009 -0.2911 -0.3445  0.1489
  113MOL0     C15179   4.522  10.497   9.014  0.3555  0.9497  0.9111
  113MOL0     C15180   4.564  10.402   9.129  0.3346  0.1276 -0.9276
  113MOL0     C15181   4.639  10.278   9.073  0.0503 -0.3144 -1.2512
  113MOL0     C15182   4.670  10.187   9.195 -0.2209 -0.3818  0.4475
  113MOL0     C15183   4.694  10.050   9.157  0.3754  0.9495 -0.6819
  113MOL0     C15184   4.730   9.933   9.134 -0.6405  0.3579 -0.4830
  113MOL0     C15185   4.758  10.519   8.832  0.3652  0.0945  1.2170
  113MOL0     C15186   4.883  10.526   8.767 -0.5862 -0.4388 -0.6541
  113MOL0     C15187   4.900  10.451   8.644  0.1947 -1.2312  0.2500
  113MOL0     H15188   5.210  10.456   8.395 -1.3335  1.6834 -0.6309
  113MOL0     H15189   5.405  10.475   8.271 -2.9553 -0.4646 -0.1655
  113MOL0     H15190   5.604  10.417   8.411  1.5925 -2.8131 -0.2383
  113MOL0     H15191   5.686  10.444   8.258 -0.9710 -1.9814  1.0453
  113MOL0     H15192   5.836  10.346   8.439 -0.2927 -0.8396  0.6452
  113MOL0     H15193   5.827  10.485   8.537 -0.9190 -0.6618  0.6544
  113MOL0     H15194   5.896  10.627   8.337  0.5883 -0.3341 -2.4149
  113MOL0     H15195   5.945  10.475   8.258  2.5556 -0.5810  1.0394
  113MOL0     H15196   6.045  10.596   8.507  0.0223  0.8619  0.3631
  113MOL0     H15197   6.097  10.431   8.441  0.6177 -0.3379 -1.5843
  113MOL0     H15198   6.161  10.567   8.217 -2.3347  0.6554 -1.0191
  113MOL0     H15199   6.109  10.700   8.286 -0.9789 -1.6822 -2.9321
  113MOL0     H15200   6.350  10.536   8.376 -0.0193 -0.4215  0.4378
  113MOL0     H15201   6.340  10.686   8.280 -2.1856  0.4299 -0.6303
  113MOL0     H15202   6.283  10.659   8.581  1.7185 -0.6868 -0.0926
  113MOL0     H15203   6.290  10.812   8.493 -2.5677  0.2402  1.8636
  113MOL0     H15204   6.518  10.615   8.537  0.5463 -0.4156 -1.6017
  113MOL0     H15205   6.524  10.736   8.422  1.8245 -2.3791  0.7946
  113MOL0     H15206   6.569  10.667   8.777  0.9107  0.4842 -0.7308
  113MOL0     H15207   6.552  10.983   8.989 -2.4035 -1.0330  1.1752
  113MOL0     H15208   6.556  10.804   9.005 -1.5802  0.0284 -1.7148
  113MOL0     H15209   6.809  10.815   8.951 -0.4936 -0.7711  0.8241
  113MOL0     H15210   6.790  10.998   8.940 -3.7653  1.4972 -0.8103
  113MOL0     H15211   6.750  10.846   9.177 -0.1323 -1.1052 -2.0419
  113MOL0     H15212   6.742  11.026   9.165 -0.1404  1.8361 -2.2781
  113MOL0     H15213   6.963  10.820   9.086  0.0576 -0.3902  0.3648
  113MOL0     H15214   6.967  10.922   9.236 -0.8971 -1.4867 -0.4913
  113MOL0     H15215   7.062  11.103   9.318 -2.1138 -0.5223 -0.2086
  113MOL0     H15216   7.035  11.331   9.395 -0.9887 -0.1031  0.3475
  113MOL0     H15217   6.693  11.686   9.408  0.3667  1.3915  1.4246
  113MOL0     H15218   6.645  11.919   9.500  1.1212 -0.3364  1.2458
  113MOL0     H15219   6.609  12.220   9.209  3.2670 -0.7006  1.1234
  113MOL0     H15220   6.500  12.120   9.313 -1.2244  1.2459  0.3747
  113MOL0     H15221   6.440  12.348   9.384 -0.4970  0.8068  3.2904
  113MOL0     H15222   6.570  12.292   9.495 -1.3208 -1.1476 -0.0909
  113MOL0     H15223   6.744  12.385   9.344  0.1588  0.1445 -2.3438
  113MOL0     H15224   6.610  12.443   9.250 -1.3237 -0.3939  0.5666
  113MOL0     H15225   6.722  12.605   9.415  4.3565 -4.8019  2.0142
  113MOL0     H15226   6.672  12.512   9.545  0.2772  4.8327  0.7437
  113MOL0     H15227   6.453  12.536   9.504 -1.8430  1.7212 -0.2986
  113MOL0     H15228   6.470  12.635   9.350 -0.0603 -0.4263  0.2692
  113MOL0     H15229   6.558  12.718   9.635  0.4161  0.8869  1.1680
  113MOL0     H15230   6.594  12.812   9.485 -1.1353  0.1085  0.8045
  113MOL0     H15231   6.350  12.805   9.428  0.3232 -1.5870 -0.6393
  113MOL0     H15232   6.386  12.894   9.567 -0.0057 -0.2483  0.3133
  113MOL0     H15233   6.275  12.613   9.594  0.6589  0.2763 -1.9604
  113MOL0     H15234   6.305  12.736   9.724 -2.5390  3.6411 -0.9917
  113MOL0     H15235   6.891  12.080   9.192  2.9756 -0.9569  0.0780
  113MOL0     H15236   6.937  11.863   9.103  0.0139 -3.7705  0.0606
  113MOL0     H15237   6.843  11.438   9.021  1.0471  0.9457 -0.1801
  113MOL0     H15238   6.899  11.227   8.943  1.6754  0.6640 -1.1353
  113MOL0     H15239   5.582  10.747   8.532 -0.2498  0.1483  2.0222
  113MOL0     H15240   5.354  10.763   8.667  0.9105 -0.6083  0.8597
  113MOL0     H15241   5.020  10.768   8.957  0.4783 -1.1340 -0.4361
  113MOL0     H15242   4.816  10.715   9.093  0.5262  0.0647 -0.6452
  113MOL0     H15243   4.521  10.447   8.917  2.0438  0.4719  1.1104
  113MOL0     H15244   4.420  10.534   9.030 -1.4722 -3.3455  0.4725
  113MOL0     H15245   4.474  10.365   9.178  1.0121  1.9413  1.9951
  113MOL0     H15246   4.615  10.457   9.209 -0.9558  1.0378 -0.6997
  113MOL0     H15247   4.735  10.304   9.028  1.4173  0.1066  1.6939
  113MOL0     H15248   4.576  10.226   9.000 -0.6157 -1.3995  0.0541
  113MOL0     H15249   4.740  10.229   9.267  1.3602 -2.4560  0.1900
  113MOL0     H15250   4.579  10.170   9.254  0.3007  0.7156  1.5977
  113MOL0     H15251   4.765   9.832   9.124  1.2480  1.0151 -1.1532
  113MOL0     H15252   4.686  10.452   8.785 -1.6028  1.4604  2.1213
  113MOL0     H15253   4.814  10.388   8.618 -1.9364  0.9011  1.6990
  113MOL0     H15254   4.925  10.526   8.569 -1.1152 -2.7314 -1.8000
  113MOL0     H15255   4.995  10.398   8.658  1.0752  0.2254  0.0550
  114MOL0     O15256   1.558   0.088   1.546  0.2223 -0.3207  0.2358
  114MOL0     C15257   1.465   0.146   1.483  0.6446  0.4666  0.1739
  114MOL0     O15258   1.332   0.122   1.501  0.2304 -0.0076  0.0156
  114MOL0     C15259   1.303   0.015   1.580  0.1598 -0.2088  0.3402
  114MOL0     C15260   1.208  -0.074   1.532 -0.5014 -0.9132 -0.2331
  114MOL0     C15261   1.164  -0.186   1.600 -0.1067 -0.4939 -0.2668
  114MOL0     C15262   1.212  -0.215   1.725  0.4074  0.3447 -0.0626
  114MOL0     O15263   1.158  -0.325   1.797 -0.1721  0.2695  0.4168
  114MOL0     C15264   1.255  -0.419   1.847  0.6274 -0.5942 -1.2992
  114MOL0     C15265   1.205  -0.564   1.866  0.7773 -0.6403  0.3403
  114MOL0     C15266   1.314  -0.666   1.907  0.8714  0.2967 -0.3400
  114MOL0     C15267   1.402  -0.627   2.029  0.2304 -1.6894 -0.7774
  114MOL0     C15268   1.484  -0.737   2.086 -0.3930  0.4856  0.9245
  114MOL0     C15269   1.558  -0.670   2.209  1.0558 -0.3154  0.3756
  114MOL0     C15270   1.667  -0.752   2.277  0.0141  0.7707  0.6063
  114MOL0     C15271   1.777  -0.671   2.346 -1.0528  0.3180 -0.2933
  114MOL0     N15272   1.740  -0.622   2.479 -0.3245 -0.5415  0.3378
  114MOL0     C15273   1.797  -0.656   2.599 -0.6358 -0.3372  0.4495
  114MOL0     C15274   1.740  -0.585   2.694  0.6270  0.6072  0.8000
  114MOL0     C15275   1.765  -0.573   2.838  0.0891  0.8650 -0.9936
  114MOL0     C15276   1.858  -0.458   2.874 -0.1597 -0.9477 -0.6187
  114MOL0     C15277   1.893  -0.449   3.020  0.2343  0.6467 -0.0304
  114MOL0     C15278   1.776  -0.400   3.103 -0.0679 -0.3792  0.5144
  114MOL0     O15279   1.839  -0.347   3.225  0.1152  0.3732  0.4121
  114MOL0     C15280   1.872  -0.436   3.326 -0.7756  1.0830 -0.2072
  114MOL0     C15281   1.843  -0.575   3.318  0.1010 -0.3214  0.1561
  114MOL0     C15282   1.871  -0.662   3.426  0.5353 -0.0880  0.5958
  114MOL0     C15283   1.924  -0.612   3.549 -0.4297 -0.2302  0.2839
  114MOL0     C15284   1.950  -0.706   3.657  0.1026 -0.4867 -0.7851
  114MOL0     O15285   1.912  -0.836   3.637  1.0460 -0.5815 -0.2197
  114MOL0     C15286   1.945  -0.937   3.716 -0.6266  0.3787  0.1735
  114MOL0     C15287   2.077  -0.991   3.710 -0.1307 -0.5843  0.3362
  114MOL0     C15288   2.114  -1.089   3.789 -1.2216  0.1592 -0.6558
  114MOL0     C15289   2.026  -1.126   3.899  0.5981 -0.4500  0.1921
  114MOL0     O15290   2.063  -1.214   3.999 -0.4740 -0.8141 -0.0218
  114MOL0     C15291   2.210  -1.231   4.020 -0.0877 -0.0140  0.3067
  114MOL0     C15292   2.223  -1.300   4.149  0.8087  0.4276 -0.5312
  114MOL0     C15293   2.368  -1.339   4.193 -0.2903 -0.8313  0.4245
  114MOL0     C15294   2.366  -1.452   4.307 -0.0469 -0.0778  0.9983
  114MOL0     C15295   2.512  -1.454   4.359  0.5370 -0.2216  0.8764
  114MOL0     C15296   2.520  -1.528   4.491  0.6118 -0.1062  0.8311
  114MOL0     C15297   2.647  -1.490   4.559 -0.0444  0.3544 -0.0450
  114MOL0     C15298   2.780  -1.510   4.472  1.1105 -0.6135 -0.0436
  114MOL0    Cl15299   2.923  -1.514   4.576  0.0052  0.3787  0.4455
  114MOL0     C15300   1.897  -1.073   3.896  0.7198  0.7704  0.3976
  114MOL0     C15301   1.859  -0.974   3.813  0.3970  0.6760 -0.6102
  114MOL0     O15302   2.010  -0.668   3.759 -0.4631 -0.3524  0.4676
  114MOL0     C15303   1.948  -0.476   3.563 -0.9324  0.0872  1.0295
  114MOL0     C15304   1.925  -0.391   3.453 -0.5066  0.1842 -1.4536
  114MOL0     N15305   1.641  -0.512   2.637  0.1609 -0.4259 -0.5877
  114MOL0     N15306   1.640  -0.529   2.509  0.1192 -0.3993 -0.4846
  114MOL0     C15307   1.290  -0.120   1.786 -1.1915 -0.1683 -0.3424
  114MOL0     C15308   1.349  -0.000   1.715  0.7703  0.0593  0.2853
  114MOL0     C15309   1.509   0.213   1.362 -0.0484  0.4049  0.2289
  114MOL0     C15310   1.631   0.281   1.367 -0.2927  0.6840 -0.6007
  114MOL0     C15311   1.695   0.334   1.258  0.0770 -0.8660 -0.1457
  114MOL0     C15312   1.642   0.326   1.129 -0.5137  0.2070 -0.3170
  114MOL0     O15313   1.715   0.368   1.026 -0.3608 -0.5509  0.0192
  114MOL0     C15314   1.674   0.394   0.894  0.9214  0.8522 -1.0000
  114MOL0     C15315   1.726   0.259   0.823  0.1787  0.5564 -0.1976
  114MOL0     C15316   1.771   0.308   0.684 -1.5375  0.0597 -0.7038
  114MOL0     C15317   1.679   0.385   0.596  0.1751  0.3343  0.2046
  114MOL0     C15318   1.564   0.302   0.556 -0.5081  0.2053  0.2089
  114MOL0     C15319   1.463   0.243   0.530  0.2489  0.5835  0.1585
  114MOL0     C15320   1.518   0.262   1.124 -0.2702  1.2141 -0.4800
  114MOL0     C15321   1.451   0.209   1.239  0.2357  0.9661 -0.6036
  114MOL0     C15322   1.326   0.136   1.212  0.1543  0.4755  0.8408
  114MOL0     H15323   1.174  -0.057   1.430 -2.2379  2.6654  0.7963
  114MOL0     H15324   1.091  -0.253   1.555  0.6953 -2.0439  0.6576
  114MOL0     H15325   1.334  -0.439   1.775  0.2340  0.4213 -2.0385
  114MOL0     H15326   1.296  -0.385   1.942 -3.2958 -0.9638  0.7619
  114MOL0     H15327   1.161  -0.598   1.772  0.3220  0.0409  0.2982
  114MOL0     H15328   1.123  -0.568   1.938  0.0790  0.2930 -0.3881
  114MOL0     H15329   1.373  -0.671   1.816 -0.0556  1.6330 -1.0517
  114MOL0     H15330   1.264  -0.762   1.918  1.0604 -0.1074 -2.6320
  114MOL0     H15331   1.472  -0.545   2.008  1.5385 -2.9744 -1.6078
  114MOL0     H15332   1.328  -0.588   2.100 -0.8128 -1.3125 -2.0317
  114MOL0     H15333   1.424  -0.823   2.118 -2.0415  0.6962 -1.3918
  114MOL0     H15334   1.556  -0.768   2.010  0.0243  2.1229  0.6214
  114MOL0     H15335   1.600  -0.573   2.185  1.3962  0.3792  3.4041
  114MOL0     H15336   1.478  -0.669   2.284  1.2257 -2.2340  0.6498
  114MOL0     H15337   1.712  -0.799   2.189 -0.1932  3.4785 -1.0691
  114MOL0     H15338   1.627  -0.838   2.332  1.6984 -3.1530 -3.6702
  114MOL0     H15339   1.867  -0.733   2.350  0.1343  1.9780  3.3901
  114MOL0     H15340   1.807  -0.582   2.290 -2.1145  0.4863 -0.6237
  114MOL0     H15341   1.884  -0.720   2.609  0.1270  0.6843  0.5361
  114MOL0     H15342   1.679  -0.573   2.906 -1.1555  0.2187 -2.4941
  114MOL0     H15343   1.808  -0.669   2.867 -3.2991 -0.3452  0.5463
  114MOL0     H15344   1.950  -0.479   2.819  1.4478 -1.9520  2.2315
  114MOL0     H15345   1.822  -0.361   2.840 -0.0010 -0.8613 -0.5430
  114MOL0     H15346   1.969  -0.370   3.025 -2.3988  3.3480  0.0780
  114MOL0     H15347   1.941  -0.536   3.066 -3.0488  0.2524  3.0699
  114MOL0     H15348   1.699  -0.476   3.119 -0.0632 -0.3888  0.4938
  114MOL0     H15349   1.728  -0.318   3.051  3.0810  1.6002  0.4521
  114MOL0     H15350   1.797  -0.635   3.241  2.8893  1.2807 -3.0168
  114MOL0     H15351   1.850  -0.767   3.409 -1.6302  0.4973 -0.6466
  114MOL0     H15352   2.147  -0.947   3.639 -2.1723  0.8885 -0.8730
  114MOL0     H15353   2.218  -1.116   3.774 -1.5262 -1.7308  0.3269
  114MOL0     H15354   2.245  -1.301   3.944  0.1549  0.2722  0.1581
  114MOL0     H15355   2.259  -1.134   4.023  4.2071 -1.9305 -0.7182
  114MOL0     H15356   2.171  -1.242   4.226  0.3308 -0.6168 -0.0400
  114MOL0     H15357   2.160  -1.388   4.138 -2.5928  2.3332  1.8170
  114MOL0     H15358   2.413  -1.384   4.104 -3.0101  1.8712 -2.5577
  114MOL0     H15359   2.425  -1.248   4.215  1.3460 -2.2880  2.6078
  114MOL0     H15360   2.335  -1.549   4.269  1.9677  0.2831 -1.8868
  114MOL0     H15361   2.301  -1.406   4.382 -0.8301 -1.7409  1.3714
  114MOL0     H15362   2.545  -1.351   4.370 -0.6259  0.3914 -0.8885
  114MOL0     H15363   2.587  -1.493   4.290  4.1014  1.8895  3.2924
  114MOL0     H15364   2.439  -1.501   4.559 -1.1334 -3.2251  0.2129
  114MOL0     H15365   2.521  -1.635   4.468  3.8275  0.5888 -3.5261
  114MOL0     H15366   2.666  -1.543   4.652 -2.7959 -1.2850 -0.3087
  114MOL0     H15367   2.638  -1.386   4.591 -0.7251 -0.0083  0.9935
  114MOL0     H15368   2.777  -1.603   4.414  0.1526  0.7931 -2.4379
  114MOL0     H15369   2.791  -1.433   4.394  6.0659 -2.6406 -1.7566
  114MOL0     H15370   1.828  -1.113   3.969 -1.6087 -0.2793 -2.1851
  114MOL0     H15371   1.757  -0.935   3.816 -0.0394 -0.3680  2.5337
  114MOL0     H15372   2.000  -0.437   3.650 -1.1043 -0.5312  1.4186
  114MOL0     H15373   1.934  -0.284   3.474 -0.5066  0.1804 -1.4344
  114MOL0     H15374   1.309  -0.136   1.891  0.5009  0.7485 -0.4658
  114MOL0     H15375   1.415   0.072   1.761  3.0930 -2.8656  1.9171
  114MOL0     H15376   1.684   0.279   1.462  0.2052 -3.3530 -0.8159
  114MOL0     H15377   1.789   0.387   1.270 -0.6108  0.7325 -1.4576
  114MOL0     H15378   1.723   0.481   0.850  2.6953 -1.3689 -3.7563
  114MOL0     H15379   1.566   0.410   0.892  0.4075 -2.1262 -1.7870
  114MOL0     H15380   1.649   0.182   0.814 -0.7222  1.0121  2.6317
  114MOL0     H15381   1.809   0.220   0.883 -0.5611 -0.9296 -0.0770
  114MOL0     H15382   1.818   0.226   0.629 -0.6141  0.8945 -1.1865
  114MOL0     H15383   1.857   0.375   0.693 -2.1559  0.8817 -0.7942
  114MOL0     H15384   1.628   0.471   0.639 -1.5520  0.1631 -1.3848
  114MOL0     H15385   1.729   0.407   0.502  2.1687 -0.7781  0.9419
  114MOL0     H15386   1.370   0.200   0.499  0.7616 -2.4259  2.4013
  114MOL0     H15387   1.465   0.261   1.030 -1.0798  0.4540 -0.0329
  114MOL0     H15388   1.299   0.143   1.106 -1.9187 -0.5573  1.2474
  114MOL0     H15389   1.334   0.027   1.225  0.3245  0.4759  0.7414
  114MOL0     H15390   1.245   0.163   1.280  1.2699  2.0549  1.5887
  115MOL0     O15391  11.303   2.016  10.178  0.3218  0.1667  0.5430
  115MOL0     C15392  11.224   2.068  10.102 -0.7592  0.2427  0.1369
  115MOL0     O15393  11.254   2.095   9.969  0.8204  0.4572 -0.1516
  115MOL0     C15394  11.339   2.016   9.899 -0.7286  0.4301 -0.0142
  115MOL0     C15395  11.430   2.067   9.808  0.2994 -0.1671 -0.1553
  115MOL0     C15396  11.533   2.000   9.754 -0.5432 -0.0003 -0.8570
  115MOL0     C15397  11.559   1.868   9.796 -1.4430 -0.6471  0.5237
  115MOL0     O15398  11.660   1.806   9.739 -0.2791  0.7792 -0.0214
  115MOL0     C15399  11.635   1.724   9.629 -0.2022 -0.0644  0.2163
  115MOL0     C15400  11.765   1.704   9.554 -0.4967  0.3506 -0.2089
  115MOL0     C15401  11.817   1.844   9.518 -0.4289 -0.5180  0.5081
  115MOL0     C15402  11.900   1.833   9.384 -0.2748  0.1922  0.9039
  115MOL0     C15403  12.014   1.731   9.379  0.1270 -0.7920  0.3568
  115MOL0     C15404  12.132   1.750   9.485  0.7147  0.2045  0.6984
  115MOL0     C15405  12.253   1.651   9.466 -0.8708 -0.3673  1.2589
  115MOL0     C15406  12.351   1.638   9.574 -0.1419  1.3472 -0.4782
  115MOL0     N15407  12.454   1.538   9.547 -0.2344 -0.4330 -0.2726
  115MOL0     C15408  12.452   1.410   9.584 -0.5564  0.3442  0.6462
  115MOL0     C15409  12.565   1.361   9.526  0.5202 -0.3127  0.3190
  115MOL0     C15410  12.624   1.213   9.534 -0.3446 -1.1839  0.7442
  115MOL0     C15411  12.597   1.143   9.401 -0.2177  0.1699 -0.8556
  115MOL0     C15412  12.696   1.028   9.374 -0.4418 -0.4200  0.1103
  115MOL0     C15413  12.651   0.923   9.268  0.1280 -0.9706 -0.7856
  115MOL0     O15414  12.535   0.859   9.322  0.9690 -0.2996 -0.4408
  115MOL0     C15415  12.537   0.730   9.362  0.0151 -0.0733  0.7251
  115MOL0     C15416  12.602   0.684   9.469  0.1886  0.2546  0.3743
  115MOL0     C15417  12.598   0.542   9.500 -0.0210  0.0795  0.0897
  115MOL0     C15418  12.532   0.455   9.415 -0.2436 -0.3705  0.1644
  115MOL0     C15419  12.531   0.311   9.445 -0.0230  1.5065 -0.6134
  115MOL0     O15420  12.547   0.263   9.574  0.1737 -0.3138 -0.7222
  115MOL0     C15421  12.504   0.139   9.611  0.6627  0.2745  0.0605
  115MOL0     C15422  12.584   0.064   9.698 -1.3814 -1.1122  0.2270
  115MOL0     C15423  12.548  -0.068   9.734 -1.1067 -0.6080 -0.0566
  115MOL0     C15424  12.435  -0.134   9.684 -0.9865 -0.0436  0.3995
  115MOL0     O15425  12.397  -0.252   9.734  0.4044 -0.4167 -0.3147
  115MOL0     C15426  12.482  -0.363   9.722  0.0854  0.2612  0.2748
  115MOL0     C15427  12.455  -0.447   9.588  0.0580 -0.3195 -0.7638
  115MOL0     C15428  12.562  -0.559   9.562  0.9321 -0.3027  0.0763
  115MOL0     C15429  12.582  -0.586   9.419 -1.1595 -0.4978  0.9936
  115MOL0     C15430  12.666  -0.707   9.407 -0.4105 -1.1620  0.0537
  115MOL0     C15431  12.806  -0.699   9.470 -0.9958  1.3620  0.4837
  115MOL0     C15432  12.887  -0.571   9.446  0.3677 -0.1615 -0.3594
  115MOL0     C15433  12.926  -0.562   9.300  0.5528 -0.1161 -0.5556
  115MOL0    Cl15434  13.011  -0.711   9.233 -0.0102 -0.4751  0.1615
  115MOL0     C15435  12.356  -0.053   9.601 -0.0319  0.1908 -0.5617
  115MOL0     C15436  12.384   0.075   9.566  0.4687  0.5664 -0.8226
  115MOL0     O15437  12.497   0.237   9.348  0.1249 -0.5093  0.2856
  115MOL0     C15438  12.458   0.505   9.310 -0.4231  0.2593 -0.4643
  115MOL0     C15439  12.469   0.646   9.282 -0.1953  1.1853  0.1407
  115MOL0     N15440  12.631   1.461   9.463 -0.3515  0.0433  0.3152
  115MOL0     N15441  12.564   1.573   9.471  0.3414  0.1167  0.5384
  115MOL0     C15442  11.467   1.808   9.879  0.1359 -1.0247  0.4612
  115MOL0     C15443  11.358   1.888   9.929 -0.3417 -0.0457 -0.6086
  115MOL0     C15444  11.096   2.107  10.165 -0.4353 -0.0945  0.3721
  115MOL0     C15445  11.085   2.079  10.299  0.7458  0.4805 -0.9682
  115MOL0     C15446  10.973   2.121  10.376 -0.8009 -1.0067 -0.0402
  115MOL0     C15447  10.856   2.168  10.317 -0.2141 -0.0841  0.4860
  115MOL0     O15448  10.755   2.199  10.403  0.3146  0.9160 -0.0506
  115MOL0     C15449  10.630   2.237  10.346  0.5233 -0.2056 -0.3564
  115MOL0     C15450  10.509   2.206  10.434  0.8414 -0.3112  0.1776
  115MOL0     C15451  10.461   2.063  10.431 -0.7597  0.6661  0.2962
  115MOL0     C15452  10.438   2.014  10.579  0.1998 -0.8543 -0.2757
  115MOL0     C15453  10.308   2.062  10.627  0.3799  0.9384  1.3055
  115MOL0     C15454  10.203   2.099  10.683 -0.1603 -0.0017 -0.4044
  115MOL0     C15455  10.864   2.197  10.182 -0.6427  0.4859 -0.2414
  115MOL0     C15456  10.985   2.173  10.105 -0.4382 -0.2838 -0.6786
  115MOL0     C15457  10.998   2.216   9.965 -0.7954 -0.0279 -0.7206
  115MOL0     H15458  11.422   2.175   9.796 -0.2375 -0.0971  0.6749
  115MOL0     H15459  11.608   2.053   9.696  0.7206 -0.6404  0.1446
  115MOL0     H15460  11.617   1.622   9.663  1.6578 -0.2031  0.9311
  115MOL0     H15461  11.554   1.769   9.572 -0.2225 -1.4644 -0.8949
  115MOL0     H15462  11.739   1.639   9.471  1.6600 -2.1724  0.9489
  115MOL0     H15463  11.834   1.649   9.619 -3.0146 -0.6616  1.7984
  115MOL0     H15464  11.868   1.891   9.604 -1.7898 -1.6665  2.0027
  115MOL0     H15465  11.742   1.918   9.490  1.6685  0.9103 -1.7435
  115MOL0     H15466  11.835   1.772   9.320  1.8976 -2.2244  0.8422
  115MOL0     H15467  11.920   1.927   9.331 -4.6097  1.0430  0.4090
  115MOL0     H15468  11.963   1.635   9.383  1.9992 -1.8240  0.9321
  115MOL0     H15469  12.055   1.733   9.278 -0.5129 -2.5288  0.0430
  115MOL0     H15470  12.167   1.854   9.488  4.5051 -0.9110  0.7006
  115MOL0     H15471  12.086   1.733   9.582 -2.5094 -2.6174 -1.1071
  115MOL0     H15472  12.302   1.689   9.376  0.4639 -3.6056  0.4977
  115MOL0     H15473  12.209   1.558   9.429  0.4809 -0.2731 -0.7626
  115MOL0     H15474  12.406   1.731   9.588 -0.1993  0.8808  5.4102
  115MOL0     H15475  12.299   1.614   9.667  1.1769 -2.5268 -0.5353
  115MOL0     H15476  12.376   1.345   9.627  1.1455 -1.4204  1.1266
  115MOL0     H15477  12.730   1.220   9.559 -0.2426  3.1671 -0.1959
  115MOL0     H15478  12.581   1.158   9.619 -2.6491  0.0745  0.4648
  115MOL0     H15479  12.494   1.107   9.397 -0.4374  0.2991  2.0483
  115MOL0     H15480  12.595   1.220   9.323  1.0797  1.2009  0.0935
  115MOL0     H15481  12.713   0.970   9.465 -4.5197  0.0707  1.3729
  115MOL0     H15482  12.782   1.091   9.350 -1.2936  1.8896  2.6662
  115MOL0     H15483  12.730   0.850   9.249  2.6687  0.9537  1.6608
  115MOL0     H15484  12.616   0.968   9.174 -3.1940 -1.9142 -0.1290
  115MOL0     H15485  12.644   0.757   9.538 -0.8959  2.4946 -1.2221
  115MOL0     H15486  12.657   0.500   9.581 -1.1229  0.1881  0.9806
  115MOL0     H15487  12.664   0.121   9.744 -1.7925 -0.2511 -0.1013
  115MOL0     H15488  12.608  -0.112   9.813 -0.4264  2.8533  1.5265
  115MOL0     H15489  12.584  -0.323   9.723  0.6872 -1.2216 -0.3570
  115MOL0     H15490  12.473  -0.420   9.815  3.9330 -2.8648 -0.9872
  115MOL0     H15491  12.354  -0.489   9.586 -0.8500  1.7266  0.2486
  115MOL0     H15492  12.454  -0.373   9.507 -2.7965  0.4576 -0.1141
  115MOL0     H15493  12.655  -0.527   9.609 -0.6002 -1.1479  4.1580
  115MOL0     H15494  12.523  -0.644   9.620 -1.0367 -0.1308 -0.9121
  115MOL0     H15495  12.632  -0.500   9.372  1.9055 -2.7443 -0.1596
  115MOL0     H15496  12.487  -0.603   9.367 -1.5359 -0.4828  1.6734
  115MOL0     H15497  12.686  -0.722   9.301  1.5723 -2.6610  0.6052
  115MOL0     H15498  12.616  -0.797   9.443 -2.0061 -1.1387 -1.9163
  115MOL0     H15499  12.815  -0.724   9.576  0.0385 -1.6034 -0.1842
  115MOL0     H15500  12.856  -0.783   9.421 -2.3062 -0.6066  2.3305
  115MOL0     H15501  12.972  -0.566   9.513  0.1224 -4.3977  0.5399
  115MOL0     H15502  12.833  -0.476   9.451  1.7108  1.0583 -4.6409
  115MOL0     H15503  12.839  -0.547   9.236  0.1063 -1.1139 -0.2036
  115MOL0     H15504  13.001  -0.485   9.276  3.0570 -0.7391  4.0303
  115MOL0     H15505  12.269  -0.091   9.548  1.1402 -0.5577 -1.9880
  115MOL0     H15506  12.317   0.140   9.511 -0.8162  0.2468  0.3008
  115MOL0     H15507  12.396   0.442   9.246 -1.7992  3.2848 -2.3608
  115MOL0     H15508  12.406   0.681   9.201 -0.5077 -0.8350 -0.5557
  115MOL0     H15509  11.486   1.713   9.928  2.5820 -1.2707 -0.8071
  115MOL0     H15510  11.290   1.856  10.007  1.4488  2.6346  2.2845
  115MOL0     H15511  11.160   2.025  10.356 -0.1121 -1.2083 -1.3619
  115MOL0     H15512  10.974   2.116  10.484  1.4274 -0.0514  0.0420
  115MOL0     H15513  10.624   2.174  10.256  2.6433 -4.6640  2.3051
  115MOL0     H15514  10.638   2.344  10.325  0.7313  0.0695  1.0353
  115MOL0     H15515  10.421   2.266  10.413  1.8109  1.6196  1.3183
  115MOL0     H15516  10.541   2.245  10.532 -5.3669  1.0611  2.0774
  115MOL0     H15517  10.531   1.998  10.378 -0.5874 -0.7132  2.1456
  115MOL0     H15518  10.365   2.054  10.379 -1.2516 -1.4806  1.4674
  115MOL0     H15519  10.429   1.905  10.576 -2.1985 -0.6829 -1.2833
  115MOL0     H15520  10.521   2.057  10.636 -0.7673  3.4927 -1.7709
  115MOL0     H15521  10.121   2.134  10.742 -0.0794  2.4833 -1.6651
  115MOL0     H15522  10.783   2.226  10.115  2.2278  2.0388 -3.3010
  115MOL0     H15523  11.028   2.125   9.912  4.8533  1.6440 -0.9334
  115MOL0     H15524  10.899   2.252   9.933 -1.7709 -0.7810  1.2745
  115MOL0     H15525  11.069   2.299   9.960  1.5566 -1.9342 -0.8723
  116MOL0     O15526   2.586   8.446  10.275  0.8370  0.0372 -0.2202
  116MOL0     C15527   2.479   8.419  10.334 -0.0496  0.1349 -0.6994
  116MOL0     O15528   2.353   8.447  10.283  0.3156  0.0314 -0.6183
  116MOL0     C15529   2.346   8.535  10.172  0.2378 -0.7956  0.3641
  116MOL0     C15530   2.378   8.488  10.046 -0.4483 -0.4576  0.1981
  116MOL0     C15531   2.350   8.563   9.931 -0.4523 -0.1372  0.8850
  116MOL0     C15532   2.275   8.681   9.936 -0.1589  0.1383  0.6995
  116MOL0     O15533   2.238   8.761   9.831 -0.1818  0.3988 -0.1376
  116MOL0     C15534   2.328   8.768   9.712  0.1737  0.0611  0.0216
  116MOL0     C15535   2.293   8.886   9.631  0.1975 -0.7591 -0.6008
  116MOL0     C15536   2.145   8.909   9.612 -0.0517  0.1092 -0.1372
  116MOL0     C15537   2.109   8.987   9.489 -0.2929 -0.1435  0.8898
  116MOL0     C15538   1.951   9.004   9.460  0.3070 -0.1691  0.0379
  116MOL0     C15539   1.871   9.062   9.581  0.2916 -0.5656  0.2909
  116MOL0     C15540   1.897   9.195   9.629 -0.3397 -0.1166 -0.5929
  116MOL0     C15541   1.846   9.309   9.540  0.3805  0.0885  0.6990
  116MOL0     N15542   1.702   9.327   9.510  0.4596 -0.5514 -0.4600
  116MOL0     C15543   1.666   9.357   9.384 -0.2055 -0.0199 -0.9408
  116MOL0     C15544   1.535   9.355   9.386 -0.2254 -0.5843  0.5835
  116MOL0     C15545   1.453   9.406   9.270 -0.0432 -0.3829  0.3646
  116MOL0     C15546   1.397   9.281   9.189  0.0807  0.1730 -0.2811
  116MOL0     C15547   1.338   9.336   9.064 -0.4280 -0.0978 -0.4948
  116MOL0     C15548   1.209   9.258   9.019  0.3348  0.0568 -0.4114
  116MOL0     O15549   1.238   9.130   8.976  0.6625  0.1964  0.6346
  116MOL0     C15550   1.141   9.060   8.904  0.7058 -0.2496  0.3458
  116MOL0     C15551   1.171   8.937   8.846  0.1699  0.8494  0.0348
  116MOL0     C15552   1.071   8.861   8.782 -0.1447 -0.0711  0.2710
  116MOL0     C15553   0.933   8.908   8.779 -1.0277 -0.3350  0.1463
  116MOL0     C15554   0.825   8.833   8.717  0.4510  0.4337 -1.0562
  116MOL0     O15555   0.858   8.706   8.671  0.6923  0.3629 -0.2160
  116MOL0     C15556   0.747   8.619   8.664  0.0566 -0.0329 -0.2189
  116MOL0     C15557   0.651   8.604   8.766  0.3332 -0.1449  0.5352
  116MOL0     C15558   0.543   8.511   8.740 -0.2023 -0.1082  0.0667
  116MOL0     C15559   0.535   8.439   8.623  0.2160 -0.1860 -1.2928
  116MOL0     O15560   0.427   8.361   8.606 -0.3116 -0.1978 -0.4965
  116MOL0     C15561   0.459   8.223   8.604  1.3359 -0.2168 -0.6229
  116MOL0     C15562   0.330   8.132   8.633 -0.2286 -0.1059 -0.4459
  116MOL0     C15563   0.239   8.183   8.743 -0.5151 -0.7872  0.7029
  116MOL0     C15564   0.133   8.284   8.692  0.4680  0.1488 -0.8557
  116MOL0     C15565   0.012   8.204   8.641  0.0094  0.8090  0.4201
  116MOL0     C15566  -0.091   8.289   8.565  0.1974  0.4688 -0.6820
  116MOL0     C15567  -0.219   8.207   8.553 -0.4524 -0.1821 -0.4233
  116MOL0     C15568  -0.213   8.068   8.503  0.4848  0.6415  0.8502
  116MOL0    Cl15569  -0.357   8.023   8.396 -0.1086  0.1153  0.0033
  116MOL0     C15570   0.638   8.440   8.533  0.6015 -0.2533 -0.0627
  116MOL0     C15571   0.736   8.538   8.555 -0.0313 -0.4292  0.2306
  116MOL0     O15572   0.718   8.893   8.707 -0.0144  0.4405 -0.1740
  116MOL0     C15573   0.913   9.035   8.823 -0.0569  0.6138  0.9627
  116MOL0     C15574   1.010   9.119   8.873  0.2008 -0.7742 -0.7172
  116MOL0     N15575   1.504   9.352   9.519  0.8132 -0.5270  0.0926
  116MOL0     N15576   1.603   9.325   9.600 -0.2966  0.3895  0.4404
  116MOL0     C15577   2.241   8.726  10.059 -0.7575 -0.6367 -0.6628
  116MOL0     C15578   2.278   8.652  10.177  0.6080 -0.7085 -0.1447
  116MOL0     C15579   2.520   8.349  10.459 -0.8438 -0.4950 -0.0469
  116MOL0     C15580   2.600   8.420  10.550 -0.2924  0.8465  0.5346
  116MOL0     C15581   2.613   8.381  10.683 -0.9118 -0.4155 -0.8343
  116MOL0     C15582   2.554   8.266  10.727  0.2981 -0.2642 -0.0515
  116MOL0     O15583   2.575   8.228  10.861  0.0815 -0.1024 -0.1789
  116MOL0     C15584   2.483   8.136  10.920 -0.1097 -0.5602  0.5938
  116MOL0     C15585   2.349   8.214  10.939 -0.0388 -0.6367 -0.3664
  116MOL0     C15586   2.370   8.327  11.045 -1.3428 -0.5871  0.2515
  116MOL0     C15587   2.315   8.283  11.178  0.7007  0.4684  0.2590
  116MOL0     C15588   2.411   8.188  11.238 -0.1075 -0.5304 -0.3862
  116MOL0     C15589   2.487   8.107  11.280 -0.1657 -0.2508 -0.3396
  116MOL0     C15590   2.489   8.183  10.628 -0.1546  0.1476 -0.0404
  116MOL0     C15591   2.454   8.237  10.500 -0.4039  0.0299 -0.0015
  116MOL0     C15592   2.368   8.159  10.409  0.1473 -0.0201 -0.0788
  116MOL0     H15593   2.422   8.389  10.038  1.8092  0.5776 -1.0222
  116MOL0     H15594   2.399   8.531   9.839  1.8932  1.0432  1.6549
  116MOL0     H15595   2.429   8.785   9.750  0.5998 -1.0210 -0.5958
  116MOL0     H15596   2.340   8.678   9.653 -1.9354 -0.8202  0.8184
  116MOL0     H15597   2.332   8.877   9.529  0.6564  1.6507 -0.7059
  116MOL0     H15598   2.343   8.968   9.683 -2.3441 -0.0345  0.8856
  116MOL0     H15599   2.101   8.947   9.705  3.4602  0.8221  1.3807
  116MOL0     H15600   2.113   8.804   9.609 -5.5584  1.4246  0.6257
  116MOL0     H15601   2.157   9.085   9.483  0.4482 -0.5533 -0.0328
  116MOL0     H15602   2.145   8.927   9.406  4.5345  0.3274  2.3260
  116MOL0     H15603   1.939   9.075   9.378 -0.4240 -1.0196 -0.6058
  116MOL0     H15604   1.903   8.911   9.430 -3.6406  0.7084  2.8578
  116MOL0     H15605   1.764   9.051   9.562  0.5297 -0.8962 -0.9436
  116MOL0     H15606   1.883   8.999   9.670 -0.6905 -0.2035  0.6966
  116MOL0     H15607   2.005   9.198   9.647 -0.3164 -0.8538 -0.5790
  116MOL0     H15608   1.857   9.201   9.731  3.7618 -0.6441  1.2697
  116MOL0     H15609   1.874   9.398   9.597 -1.2796  0.9157  0.2911
  116MOL0     H15610   1.901   9.319   9.446 -0.0478 -0.3276  0.3949
  116MOL0     H15611   1.732   9.391   9.306  2.2810 -1.4997  0.3876
  116MOL0     H15612   1.380   9.479   9.303  2.2214  1.9574  0.5160
  116MOL0     H15613   1.516   9.454   9.194 -1.9181 -2.1343 -2.4564
  116MOL0     H15614   1.476   9.207   9.179  0.9744  1.1623 -0.7494
  116MOL0     H15615   1.309   9.251   9.247 -3.0566  0.7295 -4.3078
  116MOL0     H15616   1.410   9.322   8.983  0.2091  0.9218 -0.1095
  116MOL0     H15617   1.332   9.444   9.076  4.0472  0.0903  2.1295
  116MOL0     H15618   1.151   9.307   8.940 -1.9371 -3.8371 -1.3869
  116MOL0     H15619   1.148   9.246   9.109 -3.9149 -3.4391 -3.3619
  116MOL0     H15620   1.276   8.910   8.844  1.0480  3.7892  1.5878
  116MOL0     H15621   1.090   8.763   8.739 -0.0759 -0.0675  0.2932
  116MOL0     H15622   0.658   8.657   8.861  1.3222  0.6381  0.0537
  116MOL0     H15623   0.467   8.513   8.817  0.1673  2.9066  0.4951
  116MOL0     H15624   0.491   8.181   8.508 -1.0381 -1.3735 -0.9852
  116MOL0     H15625   0.535   8.218   8.682 -1.0731  1.5671  2.0345
  116MOL0     H15626   0.281   8.114   8.537 -0.3151 -0.8463 -0.2676
  116MOL0     H15627   0.372   8.038   8.671  1.2818  2.0661  3.9527
  116MOL0     H15628   0.197   8.103   8.804 -0.4100 -2.0140 -0.7689
  116MOL0     H15629   0.306   8.220   8.821  1.6686 -1.9566 -0.5068
  116MOL0     H15630   0.155   8.355   8.611 -1.3270  3.5322  1.3639
  116MOL0     H15631   0.115   8.352   8.776 -1.8948  1.5890 -2.4176
  116MOL0     H15632  -0.032   8.152   8.726 -0.8754 -2.5032 -1.8434
  116MOL0     H15633   0.050   8.131   8.568 -1.6620  2.2921 -2.1056
  116MOL0     H15634  -0.104   8.378   8.627  3.3906  1.4794 -1.2998
  116MOL0     H15635  -0.059   8.328   8.468  1.1208  1.8597  0.1499
  116MOL0     H15636  -0.293   8.258   8.490 -2.0564 -0.7129  0.9521
  116MOL0     H15637  -0.247   8.202   8.658  4.3514  1.5730  1.2051
  116MOL0     H15638  -0.129   8.053   8.434 -0.6073  0.8636 -0.5607
  116MOL0     H15639  -0.198   8.000   8.587  0.4856  1.0918  1.2210
  116MOL0     H15640   0.622   8.365   8.457 -0.2133 -2.6902  2.3349
  116MOL0     H15641   0.814   8.556   8.481  0.5826  1.1985  1.2102
  116MOL0     H15642   0.822   9.092   8.805  0.5016  0.1629 -5.9614
  116MOL0     H15643   0.973   9.220   8.885 -1.7408 -1.4894 -0.2209
  116MOL0     H15644   2.207   8.829  10.056  0.2694 -0.3044 -2.2634
  116MOL0     H15645   2.248   8.693  10.273  3.3326  1.4319 -0.0821
  116MOL0     H15646   2.654   8.505  10.511  1.2432 -0.4006 -0.1708
  116MOL0     H15647   2.671   8.441  10.753 -4.2911  1.1763  0.8743
  116MOL0     H15648   2.524   8.101  11.015 -0.8314  3.5500  2.6830
  116MOL0     H15649   2.456   8.050  10.859 -3.6939 -0.5391  1.8989
  116MOL0     H15650   2.268   8.148  10.970  0.0799  0.4640  2.6822
  116MOL0     H15651   2.311   8.260  10.847  0.9867  1.3416  0.1326
  116MOL0     H15652   2.313   8.413  11.009  0.2509  0.5115  0.2820
  116MOL0     H15653   2.474   8.356  11.061 -2.4269  2.7440  2.2139
  116MOL0     H15654   2.307   8.379  11.229  1.6933  0.6283  0.1223
  116MOL0     H15655   2.218   8.233  11.163  1.3078 -1.1753  1.4684
  116MOL0     H15656   2.564   8.045  11.320  0.3874  2.2008  2.7705
  116MOL0     H15657   2.456   8.082  10.650 -1.7024 -0.0445 -2.8393
  116MOL0     H15658   2.356   8.058  10.450  0.5147 -0.0984 -0.1653
  116MOL0     H15659   2.276   8.213  10.385 -2.0398 -1.6498  3.6370
  116MOL0     H15660   2.421   8.146  10.315 -0.5499  1.1126 -0.6525
  117MOL0     O15661   1.972   3.055   0.408  0.2070  0.5941 -0.6439
  117MOL0     C15662   1.981   3.138   0.319  0.0321  0.9201  0.1641
  117MOL0     O15663   1.900   3.248   0.296  0.3009 -0.6587 -0.5175
  117MOL0     C15664   1.780   3.265   0.358 -0.0502 -0.8757 -0.0473
  117MOL0     C15665   1.732   3.401   0.372  0.2655 -0.5548 -0.5644
  117MOL0     C15666   1.602   3.425   0.409 -0.7666  0.7903  0.5183
  117MOL0     C15667   1.515   3.319   0.431  0.2550  0.0843 -0.0047
  117MOL0     O15668   1.383   3.345   0.469  0.4333  0.5102  0.3510
  117MOL0     C15669   1.355   3.436   0.579  0.5478 -0.4534  0.5259
  117MOL0     C15670   1.367   3.379   0.720  0.3679  0.7951  0.2855
  117MOL0     C15671   1.344   3.221   0.734  0.1507 -0.0576  0.5063
  117MOL0     C15672   1.339   3.190   0.887  0.1792 -0.2911 -0.6955
  117MOL0     C15673   1.469   3.193   0.959  0.6470  0.4520  0.1868
  117MOL0     C15674   1.580   3.093   0.909  0.0783  0.5598 -0.5209
  117MOL0     C15675   1.719   3.114   0.986 -0.2796  0.3713 -0.0205
  117MOL0     C15676   1.842   3.029   0.945 -0.0907  0.4868  0.0220
  117MOL0     N15677   1.844   2.890   0.996 -0.2431 -0.4396  0.0453
  117MOL0     C15678   1.735   2.824   1.049  0.2334  0.4978  0.1114
  117MOL0     C15679   1.785   2.712   1.095 -0.8138  0.6771  1.2006
  117MOL0     C15680   1.715   2.617   1.188 -0.1818  0.1650 -0.5632
  117MOL0     C15681   1.766   2.639   1.333 -0.2769 -0.1682 -0.6653
  117MOL0     C15682   1.657   2.584   1.440  0.0601  0.5420  1.8526
  117MOL0     C15683   1.705   2.608   1.577 -0.1885  0.3743 -0.2115
  117MOL0     O15684   1.810   2.520   1.622  0.6983 -0.0149 -0.2490
  117MOL0     C15685   1.849   2.518   1.754  0.1007 -0.2943 -0.3948
  117MOL0     C15686   1.780   2.582   1.858  0.0599  0.0220 -0.6134
  117MOL0     C15687   1.828   2.560   1.995  0.9670  0.3688 -0.2457
  117MOL0     C15688   1.946   2.485   2.019 -1.0796  0.5321 -0.2752
  117MOL0     C15689   2.005   2.469   2.150 -0.2690  0.6107 -0.0625
  117MOL0     O15690   2.100   2.375   2.162 -0.1725 -0.4517 -0.1414
  117MOL0     C15691   2.175   2.359   2.277 -0.2111 -0.7236  0.0416
  117MOL0     C15692   2.310   2.359   2.259 -0.0612  0.3987 -0.5849
  117MOL0     C15693   2.395   2.320   2.364  0.1175 -0.2045 -0.5779
  117MOL0     C15694   2.343   2.320   2.491 -0.1330 -0.3283 -0.4929
  117MOL0     O15695   2.433   2.315   2.595  0.1756 -0.0282 -0.0053
  117MOL0     C15696   2.455   2.195   2.673  0.6509 -1.5018  0.2328
  117MOL0     C15697   2.522   2.087   2.581  0.6410  0.5411 -0.4397
  117MOL0     C15698   2.671   2.091   2.577  0.6124  0.1285 -0.3999
  117MOL0     C15699   2.726   1.956   2.531  0.2344  0.5730  0.4394
  117MOL0     C15700   2.874   1.943   2.556  0.0488 -0.1141  0.1982
  117MOL0     C15701   2.909   1.820   2.489 -0.6002  0.1223 -0.9616
  117MOL0     C15702   3.052   1.770   2.478 -0.1512  0.0901  0.0281
  117MOL0     C15703   3.078   1.651   2.374  0.4341  0.8717  0.1478
  117MOL0    Cl15704   3.015   1.500   2.444 -0.3246  0.2086 -0.0355
  117MOL0     C15705   2.203   2.319   2.513  0.1009  0.1146  0.4684
  117MOL0     C15706   2.119   2.335   2.400  0.7564 -1.0087 -0.7126
  117MOL0     O15707   1.984   2.554   2.235 -1.2496 -0.0757 -0.3543
  117MOL0     C15708   2.011   2.419   1.911 -0.2361  0.2314  0.1937
  117MOL0     C15709   1.959   2.431   1.787  0.5445 -0.5238  0.0418
  117MOL0     N15710   1.918   2.701   1.061 -0.5034  0.8418 -0.0179
  117MOL0     N15711   1.960   2.812   1.016 -0.5238  0.4548  0.0499
  117MOL0     C15712   1.567   3.189   0.424 -0.3568  1.3970  0.5637
  117MOL0     C15713   1.697   3.159   0.388 -0.1437  0.5108  0.6277
  117MOL0     C15714   2.107   3.118   0.230  0.4315  0.1909  0.6582
  117MOL0     C15715   2.154   2.988   0.213  0.6132  0.5164  0.7092
  117MOL0     C15716   2.260   2.962   0.133 -0.5810  0.2881  1.6492
  117MOL0     C15717   2.340   3.065   0.083 -0.4188 -0.5826 -0.0925
  117MOL0     O15718   2.454   3.043   0.001  0.5547 -0.0813 -0.7247
  117MOL0     C15719   2.450   2.943  -0.097 -0.2450  0.2238  1.0072
  117MOL0     C15720   2.368   2.972  -0.221  1.0043 -0.5010 -0.0669
  117MOL0     C15721   2.439   3.064  -0.320  0.0130 -0.7386 -0.1313
  117MOL0     C15722   2.369   3.104  -0.456  0.6022  0.3215 -0.5157
  117MOL0     C15723   2.456   3.190  -0.522 -0.9493 -1.0115  0.7513
  117MOL0     C15724   2.537   3.262  -0.581  0.1846  0.0783 -0.6855
  117MOL0     C15725   2.286   3.197   0.099  0.1160  0.0711 -0.3163
  117MOL0     C15726   2.174   3.232   0.180  0.6228  0.4123 -0.1619
  117MOL0     C15727   2.126   3.383   0.190 -0.1917  0.2615  0.3279
  117MOL0     H15728   1.781   3.487   0.327  1.0226 -0.8009 -0.2250
  117MOL0     H15729   1.565   3.525   0.388  0.7196  1.0695 -0.9783
  117MOL0     H15730   1.433   3.512   0.582  0.4254 -0.3552  1.8635
  117MOL0     H15731   1.259   3.486   0.563  0.1387 -1.7827 -1.6488
  117MOL0     H15732   1.305   3.434   0.790  0.4108  0.2970  0.7197
  117MOL0     H15733   1.474   3.394   0.739  1.3194 -2.9166 -1.1644
  117MOL0     H15734   1.428   3.184   0.675 -0.9877  1.0621 -1.9663
  117MOL0     H15735   1.247   3.198   0.689 -0.0921  0.3565  0.8085
  117MOL0     H15736   1.271   3.263   0.934  3.1222  0.9005  2.0809
  117MOL0     H15737   1.302   3.087   0.891  2.5809 -1.2095 -0.7061
  117MOL0     H15738   1.500   3.298   0.966 -0.5512  0.9354 -1.3263
  117MOL0     H15739   1.444   3.172   1.063 -2.7381 -1.6045 -0.8970
  117MOL0     H15740   1.546   2.989   0.902 -0.1193  0.5423  0.5083
  117MOL0     H15741   1.597   3.119   0.804 -0.4482  0.7853 -0.5555
  117MOL0     H15742   1.712   3.095   1.094 -1.0913 -0.0362 -0.1329
  117MOL0     H15743   1.747   3.217   0.964 -0.1778  0.6446  1.2916
  117MOL0     H15744   1.847   3.022   0.836 -2.3565 -4.0275 -0.0247
  117MOL0     H15745   1.931   3.077   0.987 -1.1366  1.5088  1.1290
  117MOL0     H15746   1.632   2.858   1.050  0.0987  0.0871  0.3024
  117MOL0     H15747   1.609   2.642   1.178  0.4746  2.8195 -1.8160
  117MOL0     H15748   1.745   2.514   1.168  0.8862  0.4556 -0.5208
  117MOL0     H15749   1.862   2.588   1.344 -1.0116 -1.1069  2.4905
  117MOL0     H15750   1.785   2.745   1.349  1.7168 -0.5954  0.1168
  117MOL0     H15751   1.642   2.477   1.424 -0.8261  1.0440 -1.2550
  117MOL0     H15752   1.563   2.640   1.438  2.1385  4.2913  0.2867
  117MOL0     H15753   1.614   2.621   1.638 -1.9497 -1.8284 -2.1535
  117MOL0     H15754   1.742   2.710   1.574 -1.9623  1.0354 -1.7603
  117MOL0     H15755   1.701   2.655   1.842  1.6462  1.3741 -2.7760
  117MOL0     H15756   1.773   2.602   2.078  1.9473 -0.2525  0.7511
  117MOL0     H15757   2.353   2.384   2.162  0.4096  3.4768  0.3042
  117MOL0     H15758   2.500   2.313   2.342  0.0783  0.3243 -0.9490
  117MOL0     H15759   2.525   2.215   2.755  1.2300  0.6160 -0.7242
  117MOL0     H15760   2.362   2.152   2.711 -0.7922  0.8025 -0.5160
  117MOL0     H15761   2.476   1.994   2.615 -2.7010  1.9883 -0.5129
  117MOL0     H15762   2.489   2.104   2.477  3.9228 -2.2085 -2.1183
  117MOL0     H15763   2.712   2.172   2.516  1.5412  0.5615  0.7465
  117MOL0     H15764   2.704   2.110   2.680 -0.5455  0.0449  0.0032
  117MOL0     H15765   2.696   1.958   2.426 -2.8804  2.6600  1.2526
  117MOL0     H15766   2.664   1.884   2.584 -2.2538  1.5388 -1.0252
  117MOL0     H15767   2.869   1.951   2.665 -3.5809  2.0712  0.0439
  117MOL0     H15768   2.941   2.021   2.518  2.2545 -1.2630  1.5415
  117MOL0     H15769   2.856   1.743   2.547  0.9035 -0.7971 -0.7723
  117MOL0     H15770   2.879   1.830   2.384 -3.7317 -1.0110 -0.2867
  117MOL0     H15771   3.073   1.738   2.580  1.0738  0.1052 -0.2093
  117MOL0     H15772   3.115   1.853   2.444 -2.0908  0.2331 -3.8078
  117MOL0     H15773   3.023   1.660   2.280 -2.3969  2.5337  1.8134
  117MOL0     H15774   3.179   1.638   2.335  0.4308  4.3635 -1.3463
  117MOL0     H15775   2.154   2.315   2.610 -1.3572  0.1594 -0.2418
  117MOL0     H15776   2.012   2.346   2.418  1.1067 -2.3452  2.9623
  117MOL0     H15777   2.083   2.341   1.929 -1.3840 -1.3019 -1.5358
  117MOL0     H15778   2.007   2.376   1.706 -1.7436  0.1159 -1.8792
  117MOL0     H15779   1.495   3.109   0.436  0.8840 -0.1138 -1.3415
  117MOL0     H15780   1.725   3.056   0.367  4.8156  1.5856  0.7577
  117MOL0     H15781   2.104   2.905   0.263  0.0789  0.7787  0.6189
  117MOL0     H15782   2.274   2.855   0.120 -1.0889  0.2132  1.6699
  117MOL0     H15783   2.424   2.846  -0.053  0.7452  0.0901  1.3123
  117MOL0     H15784   2.555   2.926  -0.124 -0.7480 -1.1261 -0.2671
  117MOL0     H15785   2.269   3.009  -0.193  1.4705  1.9441 -1.4433
  117MOL0     H15786   2.354   2.872  -0.263  1.3601 -0.3766 -0.4811
  117MOL0     H15787   2.541   3.029  -0.338  0.6248  0.3730  0.9452
  117MOL0     H15788   2.451   3.156  -0.261  2.7840  0.7859 -2.7816
  117MOL0     H15789   2.332   3.021  -0.517 -0.7412 -0.3725  1.1880
  117MOL0     H15790   2.274   3.156  -0.443  0.8409  0.7963 -0.6562
  117MOL0     H15791   2.607   3.331  -0.623 -1.4116  2.1268 -0.1612
  117MOL0     H15792   2.340   3.276   0.048  1.7709 -1.2899 -0.7695
  117MOL0     H15793   2.050   3.398   0.113 -0.3818 -1.0475  0.2391
  117MOL0     H15794   2.099   3.419   0.290 -1.0636 -0.1908  0.2701
  117MOL0     H15795   2.210   3.442   0.152  0.7236 -0.8184  0.6160
  118MOL0     O15796   9.381   0.881   4.321  0.1756 -0.5460 -0.2555
  118MOL0     C15797   9.334   0.825   4.226 -0.2637 -0.4327 -0.7057
  118MOL0     O15798   9.300   0.697   4.232  0.9421  0.6463 -0.0548
  118MOL0     C15799   9.305   0.640   4.353 -0.8582  0.0903  0.4197
  118MOL0     C15800   9.382   0.524   4.358 -0.3615  0.5359 -0.6334
  118MOL0     C15801   9.368   0.428   4.464 -0.2341  0.1338  1.4095
  118MOL0     C15802   9.296   0.465   4.578 -0.1017  0.7804  0.4119
  118MOL0     O15803   9.294   0.407   4.695 -0.6004 -0.2901 -0.9774
  118MOL0     C15804   9.400   0.308   4.714 -0.2708 -0.8781  0.8770
  118MOL0     C15805   9.400   0.242   4.850  0.2153  0.5288 -0.5524
  118MOL0     C15806   9.252   0.211   4.885 -0.3383 -0.7838 -0.1584
  118MOL0     C15807   9.262   0.107   4.999  0.4997  0.2307 -0.8126
  118MOL0     C15808   9.118   0.094   5.059  0.2880 -0.1740  0.7010
  118MOL0     C15809   9.115  -0.008   5.168 -0.9069  0.0400  0.7550
  118MOL0     C15810   8.991  -0.002   5.255 -0.3780  0.2817 -1.1437
  118MOL0     C15811   8.994  -0.116   5.367 -0.0900 -0.0388  0.2438
  118MOL0     N15812   8.874  -0.116   5.450  0.3186  0.1551  0.7784
  118MOL0     C15813   8.750  -0.112   5.399 -0.4489  0.8787  0.3946
  118MOL0     C15814   8.671  -0.112   5.508 -0.3698 -0.0964 -0.2428
  118MOL0     C15815   8.516  -0.119   5.491  0.5546  0.0238 -0.2805
  118MOL0     C15816   8.484  -0.265   5.456  0.2882 -0.1105  1.8116
  118MOL0     C15817   8.342  -0.266   5.413  1.4832 -1.0691 -0.0371
  118MOL0     C15818   8.298  -0.412   5.399 -0.4293  1.1259 -0.0190
  118MOL0     O15819   8.157  -0.412   5.383  0.4850  0.3699  0.7620
  118MOL0     C15820   8.096  -0.532   5.377 -0.5133 -0.1313 -0.8908
  118MOL0     C15821   8.044  -0.580   5.495  0.1121 -0.1166  0.6826
  118MOL0     C15822   7.985  -0.706   5.498 -0.7313  0.1587  0.1915
  118MOL0     C15823   7.967  -0.774   5.378  0.3732 -0.4559  1.0109
  118MOL0     C15824   7.883  -0.900   5.381 -0.3076  0.1293 -0.0190
  118MOL0     O15825   7.881  -0.980   5.493 -0.3201 -0.2451  0.3842
  118MOL0     C15826   7.805  -1.094   5.478 -0.4547 -0.1778 -0.6041
  118MOL0     C15827   7.716  -1.120   5.577  0.0429 -1.1174  0.3859
  118MOL0     C15828   7.637  -1.234   5.570  0.1036  0.1919 -0.7678
  118MOL0     C15829   7.663  -1.326   5.469  0.0995 -0.0141 -0.4631
  118MOL0     O15830   7.582  -1.430   5.475  0.2318  0.1734  0.2139
  118MOL0     C15831   7.628  -1.556   5.417  0.7795  0.7530  0.2771
  118MOL0     C15832   7.528  -1.666   5.440  0.0092  0.3414  0.2592
  118MOL0     C15833   7.518  -1.773   5.323  0.4286 -0.0320 -0.3970
  118MOL0     C15834   7.504  -1.909   5.389  0.4262  0.2197 -0.4644
  118MOL0     C15835   7.387  -1.931   5.479  0.2014 -0.4263 -0.3557
  118MOL0     C15836   7.405  -2.053   5.559 -1.2708 -0.1019  0.1468
  118MOL0     C15837   7.286  -2.101   5.637 -0.1830 -0.1336  0.9538
  118MOL0     C15838   7.191  -2.208   5.562 -0.0393 -0.2425  0.8995
  118MOL0    Cl15839   7.270  -2.367   5.591  0.2851  0.1042 -0.0967
  118MOL0     C15840   7.761  -1.303   5.375  0.0771  0.8125 -0.0876
  118MOL0     C15841   7.836  -1.187   5.381  0.9669  0.5413 -0.1438
  118MOL0     O15842   7.823  -0.926   5.280 -0.5210 -0.9100 -0.4929
  118MOL0     C15843   8.023  -0.726   5.249  0.3886 -0.2058  0.0905
  118MOL0     C15844   8.084  -0.601   5.253 -0.6131  0.4838 -0.6489
  118MOL0     N15845   8.747  -0.129   5.623  0.0662  0.2417 -0.4665
  118MOL0     N15846   8.866  -0.120   5.581 -0.5570 -0.0830  0.3185
  118MOL0     C15847   9.211   0.574   4.563 -0.2047  0.3321  0.0859
  118MOL0     C15848   9.215   0.665   4.450 -1.1985 -1.0466 -0.5997
  118MOL0     C15849   9.309   0.907   4.108 -0.3813 -0.4401 -0.0415
  118MOL0     C15850   9.198   0.887   4.019  1.0540  0.0138 -0.2895
  118MOL0     C15851   9.170   0.963   3.905 -0.5710 -0.1180 -0.2439
  118MOL0     C15852   9.258   1.057   3.856 -0.6266 -0.1091  0.0182
  118MOL0     O15853   9.256   1.139   3.747  0.3441  0.0723 -0.6132
  118MOL0     C15854   9.149   1.133   3.655 -0.8620 -0.2519 -1.0302
  118MOL0     C15855   9.171   1.245   3.557 -0.5304 -0.2761 -0.4087
  118MOL0     C15856   9.051   1.341   3.531  0.1919  0.8740 -0.9205
  118MOL0     C15857   9.075   1.416   3.398 -0.5643  0.9632 -1.0314
  118MOL0     C15858   8.964   1.507   3.371 -0.2322  0.1850  0.3628
  118MOL0     C15859   8.861   1.574   3.342  0.0581 -0.5493 -0.3338
  118MOL0     C15860   9.372   1.080   3.938 -0.1794 -0.3575  0.9412
  118MOL0     C15861   9.397   1.012   4.055  0.1790 -0.2543 -0.7865
  118MOL0     C15862   9.528   1.046   4.123 -0.1510 -0.5157 -0.2751
  118MOL0     H15863   9.462   0.503   4.288 -1.6641 -2.6638 -1.3389
  118MOL0     H15864   9.427   0.337   4.461 -0.5863 -0.0784 -0.3767
  118MOL0     H15865   9.384   0.232   4.637 -0.2159  0.6077 -0.6675
  118MOL0     H15866   9.500   0.342   4.685 -0.9351  1.5137  1.1610
  118MOL0     H15867   9.446   0.311   4.921 -2.2153  1.8775 -0.1985
  118MOL0     H15868   9.473   0.160   4.847 -1.1531 -0.7126 -1.2710
  118MOL0     H15869   9.188   0.165   4.810 -3.1179  1.8730  0.3606
  118MOL0     H15870   9.200   0.300   4.923  0.3809 -1.4754  2.6827
  118MOL0     H15871   9.300   0.010   4.969  2.9501  0.9786 -0.3590
  118MOL0     H15872   9.328   0.144   5.078  0.5863 -0.4829 -0.5442
  118MOL0     H15873   9.082   0.191   5.093 -1.0127 -1.1074  2.1078
  118MOL0     H15874   9.055   0.060   4.976  1.0289  1.5349 -0.6368
  118MOL0     H15875   9.124  -0.105   5.119  0.2627  1.4077 -1.9523
  118MOL0     H15876   9.206   0.001   5.229  1.4439 -1.9551 -2.1576
  118MOL0     H15877   8.917  -0.040   5.184 -0.4273  1.5774 -1.8064
  118MOL0     H15878   8.964   0.102   5.278 -0.8277  0.2805 -1.6359
  118MOL0     H15879   8.995  -0.218   5.328 -3.0568  0.1289 -0.5125
  118MOL0     H15880   9.079  -0.095   5.431 -0.6118  0.2896  0.8393
  118MOL0     H15881   8.702  -0.108   5.302 -2.3793  2.3843  1.3391
  118MOL0     H15882   8.455  -0.100   5.579 -0.6846 -0.9011 -0.8986
  118MOL0     H15883   8.487  -0.051   5.410 -0.7557  0.8097  0.8190
  118MOL0     H15884   8.553  -0.298   5.377 -0.6270 -1.8639  1.7055
  118MOL0     H15885   8.495  -0.337   5.537  2.0922 -3.0359 -0.7983
  118MOL0     H15886   8.328  -0.203   5.325  0.6965 -0.6431  0.3748
  118MOL0     H15887   8.275  -0.222   5.488 -0.0652  0.3430 -2.1144
  118MOL0     H15888   8.325  -0.474   5.485 -2.2662 -3.8861 -2.6462
  118MOL0     H15889   8.343  -0.456   5.310 -0.5241  2.0739 -0.5481
  118MOL0     H15890   8.045  -0.516   5.583  3.3542 -0.3773  0.9783
  118MOL0     H15891   7.945  -0.736   5.594 -0.8863  0.6922  0.2976
  118MOL0     H15892   7.702  -1.043   5.652  0.7064 -1.9796  1.4274
  118MOL0     H15893   7.560  -1.263   5.642  0.4750 -1.7338 -1.0830
  118MOL0     H15894   7.635  -1.551   5.308 -4.1211  2.3854 -0.2056
  118MOL0     H15895   7.726  -1.587   5.454  0.3556 -2.1769 -0.7932
  118MOL0     H15896   7.549  -1.709   5.538 -1.0399  0.7557  0.6808
  118MOL0     H15897   7.431  -1.619   5.459 -1.1961 -0.8955 -2.2691
  118MOL0     H15898   7.435  -1.753   5.255  0.6072  0.7831 -0.3751
  118MOL0     H15899   7.612  -1.774   5.268  1.3081  2.6721  0.9016
  118MOL0     H15900   7.595  -1.927   5.449 -1.6187 -0.8544  2.5572
  118MOL0     H15901   7.490  -1.977   5.305  1.0807  0.0977 -0.4819
  118MOL0     H15902   7.300  -1.943   5.414 -0.4040  1.7125 -0.0158
  118MOL0     H15903   7.358  -1.858   5.555 -0.2826 -0.4759 -0.4923
  118MOL0     H15904   7.435  -2.133   5.491  2.4119 -1.2554  2.8022
  118MOL0     H15905   7.493  -2.037   5.621 -1.2131  2.7250 -0.4915
  118MOL0     H15906   7.215  -2.022   5.661 -0.4588  0.9072 -2.5956
  118MOL0     H15907   7.315  -2.156   5.727  1.9080  0.0789  0.4826
  118MOL0     H15908   7.092  -2.198   5.607  0.0544 -3.0261  1.9190
  118MOL0     H15909   7.181  -2.176   5.458 -0.1694  1.0807  1.2992
  118MOL0     H15910   7.782  -1.381   5.303  1.2933  0.0320  1.0721
  118MOL0     H15911   7.918  -1.155   5.317  1.0393  6.7053  2.3229
  118MOL0     H15912   7.999  -0.774   5.156 -0.6545 -0.5662  0.5397
  118MOL0     H15913   8.136  -0.558   5.168  2.0638 -0.5505  0.3664
  118MOL0     H15914   9.135   0.600   4.636  1.7598 -0.1595  2.4301
  118MOL0     H15915   9.142   0.746   4.447  0.5653  0.5586 -2.5064
  118MOL0     H15916   9.132   0.805   4.044 -0.4357  1.0250 -0.7793
  118MOL0     H15917   9.078   0.948   3.848 -0.6268  0.9164 -0.4404
  118MOL0     H15918   9.051   1.151   3.699 -0.3643 -1.3618  0.6497
  118MOL0     H15919   9.144   1.034   3.607  0.1112 -0.4708 -0.6995
  118MOL0     H15920   9.212   1.211   3.461  0.1040  0.4444 -0.4065
  118MOL0     H15921   9.255   1.305   3.592 -2.7065  2.1160  1.1236
  118MOL0     H15922   9.059   1.416   3.610 -0.2793  0.1272 -0.1462
  118MOL0     H15923   8.954   1.292   3.522  0.3586  0.8030 -2.7498
  118MOL0     H15924   9.169   1.472   3.401 -0.1575  0.2707 -0.2496
  118MOL0     H15925   9.081   1.353   3.308  3.4457 -1.9273  0.9637
  118MOL0     H15926   8.773   1.633   3.326 -0.9321 -1.9225 -0.2103
  118MOL0     H15927   9.449   1.140   3.891  0.9091 -1.1154  1.7242
  118MOL0     H15928   9.582   1.119   4.062 -2.0252  0.1012 -1.2728
  118MOL0     H15929   9.506   1.082   4.224  0.4904 -3.0567  0.8471
  118MOL0     H15930   9.585   0.953   4.131 -0.0136 -0.7170 -2.7638
  119MOL0     O15931  11.155   4.266   3.297  0.2830  0.5771 -0.1253
  119MOL0     C15932  11.250   4.223   3.360 -1.2680  0.4114  1.3314
  119MOL0     O15933  11.234   4.179   3.486 -0.5016  0.1822 -0.6773
  119MOL0     C15934  11.336   4.197   3.586  0.5316 -0.0983  0.5478
  119MOL0     C15935  11.425   4.309   3.578 -0.7887 -0.0786 -0.1900
  119MOL0     C15936  11.546   4.311   3.658  0.0580  0.5577 -0.8794
  119MOL0     C15937  11.568   4.213   3.754  0.2888  0.4585 -0.1301
  119MOL0     O15938  11.666   4.217   3.846  1.0154 -0.0674 -0.4240
  119MOL0     C15939  11.797   4.268   3.821 -0.0428 -0.1940 -0.0038
  119MOL0     C15940  11.824   4.407   3.866  0.3465 -0.9534  0.4153
  119MOL0     C15941  11.820   4.422   4.020 -1.1295  0.8389 -0.7596
  119MOL0     C15942  11.793   4.560   4.059 -0.4183 -0.5056  0.4433
  119MOL0     C15943  11.787   4.573   4.206  0.4187 -0.4005 -0.4161
  119MOL0     C15944  11.787   4.723   4.257 -0.2416 -0.1977 -0.6842
  119MOL0     C15945  11.813   4.714   4.409 -1.1535 -0.1602 -0.1334
  119MOL0     C15946  11.826   4.861   4.452 -0.8725 -0.9241 -0.9477
  119MOL0     N15947  11.834   4.874   4.597  0.2604  0.3979 -0.0738
  119MOL0     C15948  11.755   4.951   4.679  0.3832  0.6452  1.1681
  119MOL0     C15949  11.820   4.958   4.793  0.6556  0.5545 -0.7035
  119MOL0     C15950  11.768   5.020   4.916  0.2618 -0.3205  0.5898
  119MOL0     C15951  11.891   5.061   5.003  0.2456 -0.2172 -0.6465
  119MOL0     C15952  11.832   5.103   5.139  0.4817 -0.3463 -0.0903
  119MOL0     C15953  11.751   5.232   5.117 -0.1235  0.0888 -1.2801
  119MOL0     O15954  11.827   5.345   5.060  0.3062 -0.2067  0.2898
  119MOL0     C15955  11.923   5.419   5.124 -0.2478 -0.6340 -0.9577
  119MOL0     C15956  11.981   5.531   5.061  0.7628 -0.7603 -0.9710
  119MOL0     C15957  12.083   5.612   5.112 -1.4234  0.4159  0.5519
  119MOL0     C15958  12.117   5.589   5.240  0.7960  0.4354 -0.1619
  119MOL0     C15959  12.217   5.674   5.302 -0.4521  0.0158 -0.6474
  119MOL0     O15960  12.267   5.783   5.231  0.0289  0.5493  0.1870
  119MOL0     C15961  12.347   5.877   5.283 -0.9857  0.2172 -0.3415
  119MOL0     C15962  12.408   5.956   5.184 -0.1726 -0.0349 -1.0631
  119MOL0     C15963  12.497   6.055   5.225  0.5372 -0.2226  1.8145
  119MOL0     C15964  12.530   6.083   5.354 -0.0634 -0.8638 -0.4826
  119MOL0     O15965  12.611   6.185   5.401 -0.1170  0.6588  0.2048
  119MOL0     C15966  12.657   6.282   5.309 -1.1605 -0.4762  0.1870
  119MOL0     C15967  12.737   6.389   5.384 -0.1061 -0.5372  0.5455
  119MOL0     C15968  12.822   6.480   5.285  0.4367 -0.7619  0.6010
  119MOL0     C15969  12.898   6.580   5.376  0.0640  0.2053  0.0941
  119MOL0     C15970  12.965   6.701   5.309  0.2660  0.3226 -0.9271
  119MOL0     C15971  13.040   6.686   5.184  0.3435  0.4608 -0.3415
  119MOL0     C15972  12.964   6.704   5.048  0.7289 -0.5510  0.2748
  119MOL0     C15973  13.046   6.636   4.940 -0.6550  0.2619  0.0387
  119MOL0    Cl15974  13.010   6.693   4.774  0.0405  0.0301  0.1262
  119MOL0     C15975  12.458   6.013   5.445  0.4234  0.6782 -0.0143
  119MOL0     C15976  12.371   5.906   5.421  0.2789  0.7406 -0.4595
  119MOL0     O15977  12.250   5.645   5.421 -0.5275  0.0282  0.0218
  119MOL0     C15978  12.060   5.483   5.318  0.1920 -0.7676  0.8774
  119MOL0     C15979  11.963   5.392   5.260 -0.5001 -1.2180  0.4680
  119MOL0     N15980  11.929   4.872   4.793  0.5930 -0.0652 -0.0941
  119MOL0     N15981  11.938   4.828   4.675  1.0064  1.4675  1.1518
  119MOL0     C15982  11.483   4.099   3.748 -0.4747 -0.3639  0.0810
  119MOL0     C15983  11.369   4.089   3.668  0.4749 -0.6021 -0.3291
  119MOL0     C15984  11.391   4.233   3.293  0.8559 -0.1800 -0.1377
  119MOL0     C15985  11.500   4.146   3.337  0.0775 -0.2339  0.5668
  119MOL0     C15986  11.625   4.155   3.282  0.1043  0.1756  0.2901
  119MOL0     C15987  11.646   4.251   3.183  0.1145  0.0451  0.5416
  119MOL0     O15988  11.775   4.265   3.129  0.2892 -0.8702 -0.0505
  119MOL0     C15989  11.809   4.364   3.019 -0.5070  0.4112  0.4423
  119MOL0     C15990  11.959   4.350   2.994 -0.2800  0.7335  0.3031
  119MOL0     C15991  12.030   4.473   2.929  0.3385  0.2381 -0.5943
  119MOL0     C15992  12.059   4.588   3.027  0.5205 -0.2629 -0.3924
  119MOL0     C15993  11.945   4.681   3.052  0.3711  0.0286  0.2907
  119MOL0     C15994  11.864   4.770   3.079  0.4024  0.7730 -0.1461
  119MOL0     C15995  11.532   4.331   3.133  1.1601 -0.1104 -1.1786
  119MOL0     C15996  11.407   4.326   3.192  0.9092 -0.7261 -0.2909
  119MOL0     C15997  11.310   4.420   3.140  0.1360  0.5288 -0.4574
  119MOL0     H15998  11.412   4.394   3.511 -0.8574 -0.0828 -0.1817
  119MOL0     H15999  11.608   4.400   3.652 -1.6483  1.9490  0.8456
  119MOL0     H16000  11.872   4.204   3.869 -1.1089 -1.1583  0.4221
  119MOL0     H16001  11.812   4.269   3.713 -0.4914  2.4924 -0.1068
  119MOL0     H16002  11.747   4.469   3.818 -0.6744 -1.3426  1.5013
  119MOL0     H16003  11.924   4.430   3.828  0.6661 -1.0809  1.1629
  119MOL0     H16004  11.915   4.389   4.063 -0.0399  3.7843 -0.6859
  119MOL0     H16005  11.739   4.359   4.059 -1.9199  1.7231 -0.9435
  119MOL0     H16006  11.865   4.628   4.014 -1.4340 -1.7152 -3.3549
  119MOL0     H16007  11.698   4.591   4.017 -0.8579 -0.8781  1.1297
  119MOL0     H16008  11.701   4.520   4.247  1.9138 -1.9781  0.8391
  119MOL0     H16009  11.876   4.524   4.247  1.1447  1.4928  0.3896
  119MOL0     H16010  11.873   4.777   4.215  2.6482 -1.0864  3.4010
  119MOL0     H16011  11.687   4.763   4.240  0.5136  2.4841  0.5776
  119MOL0     H16012  11.899   4.651   4.434 -2.1381 -2.6949 -2.6033
  119MOL0     H16013  11.725   4.675   4.461 -2.2697  2.4156  0.0867
  119MOL0     H16014  11.918   4.905   4.411  0.1749 -1.9452  0.2414
  119MOL0     H16015  11.734   4.909   4.417  0.0894  0.8300 -1.1970
  119MOL0     H16016  11.655   4.985   4.656 -0.5954 -3.0639 -0.9190
  119MOL0     H16017  11.715   5.110   4.885 -0.8077 -0.8098  0.9341
  119MOL0     H16018  11.687   4.956   4.953 -1.6696 -0.4863 -3.3745
  119MOL0     H16019  11.957   4.984   5.044 -0.0331  2.1905  5.2743
  119MOL0     H16020  11.945   5.143   4.955  0.7008 -0.6568 -0.8920
  119MOL0     H16021  11.906   5.109   5.220  1.0680  2.1102 -0.7401
  119MOL0     H16022  11.761   5.028   5.176 -0.2162  0.7200  0.8313
  119MOL0     H16023  11.708   5.262   5.213  0.0335 -0.0766 -1.1585
  119MOL0     H16024  11.665   5.201   5.057 -1.1006 -1.1457  0.6565
  119MOL0     H16025  11.932   5.545   4.965 -0.3719 -3.0885 -0.8180
  119MOL0     H16026  12.140   5.678   5.048 -1.5296  1.5083  1.5482
  119MOL0     H16027  12.385   5.947   5.078  1.0795 -2.8972 -1.1824
  119MOL0     H16028  12.552   6.100   5.143 -0.2631 -0.4781  1.1214
  119MOL0     H16029  12.721   6.225   5.241 -2.0472 -2.6217  1.0580
  119MOL0     H16030  12.577   6.314   5.242  2.6771 -2.0882 -6.0517
  119MOL0     H16031  12.658   6.443   5.437 -1.1279 -1.2456 -0.1947
  119MOL0     H16032  12.795   6.336   5.459 -0.1087 -0.3876  0.6529
  119MOL0     H16033  12.886   6.411   5.230 -1.0504 -1.0133 -0.9027
  119MOL0     H16034  12.762   6.537   5.213  0.5592  1.1778  1.9466
  119MOL0     H16035  12.973   6.512   5.417  1.3847  2.4528  1.6307
  119MOL0     H16036  12.856   6.615   5.471  1.6788  5.9864 -0.9403
  119MOL0     H16037  13.044   6.736   5.376  0.7003 -0.0490 -1.2411
  119MOL0     H16038  12.894   6.784   5.304 -2.2613 -1.2555  3.0742
  119MOL0     H16039  13.121   6.760   5.183 -0.0810  0.9377 -1.7999
  119MOL0     H16040  13.092   6.590   5.177  0.3960  0.4415  0.2364
  119MOL0     H16041  12.941   6.807   5.020 -4.8120 -1.7363 -0.7855
  119MOL0     H16042  12.859   6.672   5.041  0.3896  0.7352 -0.7894
  119MOL0     H16043  13.153   6.652   4.953  0.4524 -2.1466 -4.2614
  119MOL0     H16044  13.024   6.529   4.938 -1.7166  0.4674 -2.0135
  119MOL0     H16045  12.470   6.035   5.550 -1.8952 -0.6935  0.6025
  119MOL0     H16046  12.334   5.866   5.515  2.9338 -1.7004 -0.2974
  119MOL0     H16047  12.073   5.477   5.426 -3.2669 -1.9322  1.3823
  119MOL0     H16048  11.928   5.312   5.324  0.5721  0.2858  3.1096
  119MOL0     H16049  11.509   4.023   3.821  2.0422  1.6191  1.4029
  119MOL0     H16050  11.302   4.004   3.662  0.8725 -0.8218 -2.4058
  119MOL0     H16051  11.493   4.074   3.417  0.2383 -2.2932 -1.1782
  119MOL0     H16052  11.709   4.092   3.309  1.4789  1.5175 -0.6578
  119MOL0     H16053  11.793   4.467   3.050 -1.3127  1.0048 -1.8132
  119MOL0     H16054  11.759   4.339   2.925  2.4771 -3.2991 -0.4388
  119MOL0     H16055  11.985   4.266   2.929 -1.1620  1.3615 -0.8982
  119MOL0     H16056  12.021   4.336   3.084  1.7619  1.0400 -0.9971
  119MOL0     H16057  11.973   4.509   2.843  2.4038  0.5591 -1.9135
  119MOL0     H16058  12.124   4.430   2.894  1.1140 -0.5638  2.2132
  119MOL0     H16059  12.098   4.553   3.123  1.4011  2.7891  0.4747
  119MOL0     H16060  12.138   4.650   2.984 -0.8206  0.1277 -2.4052
  119MOL0     H16061  11.788   4.842   3.104 -1.3291  0.1021 -2.9967
  119MOL0     H16062  11.558   4.406   3.059  0.6633  0.7975 -0.4521
  119MOL0     H16063  11.355   4.492   3.071  4.6844 -0.6611  0.9020
  119MOL0     H16064  11.233   4.371   3.080  0.3342 -0.4357  0.0529
  119MOL0     H16065  11.262   4.475   3.222  3.3134  4.4626 -0.9258
  120MOL0     O16066   5.023   2.214   5.107  0.1604 -0.4064 -0.1751
  120MOL0     C16067   4.968   2.115   5.153  0.1297  0.2650 -0.1636
  120MOL0     O16068   5.027   2.016   5.219  0.0999  0.2574 -0.2604
  120MOL0     C16069   5.167   2.016   5.231  0.2950 -0.1402 -0.1407
  120MOL0     C16070   5.223   1.959   5.350 -0.3377 -0.8646  0.4310
  120MOL0     C16071   5.355   1.971   5.378  0.3362 -0.6695 -0.1650
  120MOL0     C16072   5.443   2.016   5.283 -0.5509  0.1693 -1.1205
  120MOL0     O16073   5.581   2.029   5.280  0.0891  0.9198  1.2822
  120MOL0     C16074   5.648   2.031   5.403 -0.5047 -0.9729  0.2921
  120MOL0     C16075   5.626   2.166   5.478 -0.0250  0.6646 -0.0835
  120MOL0     C16076   5.734   2.171   5.587  0.4226  0.1819  1.3772
  120MOL0     C16077   5.831   2.291   5.590  0.1481  0.3231  0.4426
  120MOL0     C16078   5.871   2.318   5.739  0.2593  0.5631  0.4973
  120MOL0     C16079   5.982   2.427   5.742 -1.1118  0.7767 -0.0124
  120MOL0     C16080   6.030   2.443   5.889 -0.1627 -0.0868  0.4752
  120MOL0     C16081   6.087   2.312   5.945 -0.4559  0.0520 -1.1555
  120MOL0     N16082   6.165   2.340   6.065 -0.4196  0.1276 -0.0683
  120MOL0     C16083   6.125   2.333   6.194 -0.3199 -0.7848  0.6373
  120MOL0     C16084   6.219   2.400   6.259 -0.5967 -0.4680 -0.2530
  120MOL0     C16085   6.212   2.426   6.415  1.1593 -0.0482 -0.4530
  120MOL0     C16086   6.287   2.327   6.503 -0.1669  0.3415  0.7537
  120MOL0     C16087   6.444   2.359   6.507  0.2135  0.1218 -0.6320
  120MOL0     C16088   6.506   2.252   6.606 -0.3692 -0.5206  0.0468
  120MOL0     O16089   6.484   2.302   6.739  0.4194  0.1182  0.1938
  120MOL0     C16090   6.567   2.281   6.838 -0.0953  0.4639 -1.0207
  120MOL0     C16091   6.700   2.240   6.832  0.8981 -0.3176 -0.9642
  120MOL0     C16092   6.782   2.238   6.944 -0.5879 -0.4569 -0.4274
  120MOL0     C16093   6.732   2.260   7.078 -0.3516 -0.2782  0.0936
  120MOL0     C16094   6.817   2.225   7.186  0.1804  0.4766 -0.0659
  120MOL0     O16095   6.761   2.184   7.301  0.6568 -0.2564  0.6858
  120MOL0     C16096   6.841   2.141   7.406 -0.6338  0.2684 -0.8498
  120MOL0     C16097   6.957   2.206   7.432  0.9416 -0.6866 -0.2369
  120MOL0     C16098   7.045   2.159   7.534  0.4081  0.1662 -0.2117
  120MOL0     C16099   7.027   2.037   7.597  0.3935 -0.2922  1.1246
  120MOL0     O16100   7.094   1.996   7.704 -0.0747 -0.3513  0.5326
  120MOL0     C16101   7.230   2.026   7.709 -0.1591 -0.1710 -0.3699
  120MOL0     C16102   7.297   1.967   7.827  0.2623  0.4337  0.2778
  120MOL0     C16103   7.226   1.999   7.952  0.1460  0.4121  0.2285
  120MOL0     C16104   7.144   1.889   8.010 -0.7783 -1.2154  0.3548
  120MOL0     C16105   7.102   1.925   8.150  0.1845 -0.2949 -0.7248
  120MOL0     C16106   6.977   2.024   8.155 -0.4554 -0.0971  0.0400
  120MOL0     C16107   6.975   2.119   8.276 -0.3353  0.7865  0.2069
  120MOL0     C16108   6.838   2.177   8.297 -0.7747  0.3031 -0.6968
  120MOL0    Cl16109   6.733   2.048   8.358 -0.0955 -0.4265 -0.1493
  120MOL0     C16110   6.915   1.966   7.563  0.2073  0.5359  0.6723
  120MOL0     C16111   6.816   2.015   7.472  0.3423  0.7935  0.4722
  120MOL0     O16112   6.937   2.212   7.154 -0.8556  0.1385 -0.6576
  120MOL0     C16113   6.591   2.292   7.088 -0.3852 -0.4258  0.6752
  120MOL0     C16114   6.519   2.322   6.967 -0.0483 -0.0980  0.3089
  120MOL0     N16115   6.326   2.426   6.177 -0.2760 -0.3459 -0.5193
  120MOL0     N16116   6.290   2.394   6.056  0.1795  0.5212 -0.2869
  120MOL0     C16117   5.394   2.045   5.156 -0.2686 -0.6060  0.0511
  120MOL0     C16118   5.261   2.045   5.129  1.7283 -0.2886 -0.2849
  120MOL0     C16119   4.819   2.100   5.115 -0.1172 -0.3284  0.7021
  120MOL0     C16120   4.755   1.977   5.141  0.1420  0.4627  0.1110
  120MOL0     C16121   4.618   1.964   5.120  0.3847  0.0888  0.2163
  120MOL0     C16122   4.548   2.061   5.052  0.3323  0.1412 -0.5364
  120MOL0     O16123   4.415   2.055   5.013  0.2438 -0.2066  0.4129
  120MOL0     C16124   4.319   1.983   5.094 -0.4598 -0.3712 -0.2916
  120MOL0     C16125   4.283   1.850   5.034  0.0976  0.3346 -0.2420
  120MOL0     C16126   4.171   1.778   5.120  0.7768  0.6380  0.1252
  120MOL0     C16127   4.132   1.642   5.068 -0.4056 -0.2502 -0.1091
  120MOL0     C16128   4.066   1.619   4.935  0.6560 -0.8343 -0.3334
  120MOL0     C16129   4.032   1.625   4.816  1.0015  0.4140 -0.2375
  120MOL0     C16130   4.607   2.186   5.027  0.3721  0.0726 -0.6314
  120MOL0     C16131   4.741   2.204   5.053 -0.2425 -0.0527 -0.1718
  120MOL0     C16132   4.797   2.344   5.023  0.6380 -0.4137 -0.2994
  120MOL0     H16133   5.157   1.921   5.428  0.9305 -2.4824  0.7730
  120MOL0     H16134   5.383   1.951   5.481 -1.4181  0.2321  0.5166
  120MOL0     H16135   5.628   1.941   5.461 -3.0905  0.2915  1.5304
  120MOL0     H16136   5.755   2.027   5.380 -0.8613  1.3683 -2.3861
  120MOL0     H16137   5.533   2.153   5.534  1.3534 -2.3441  1.8086
  120MOL0     H16138   5.636   2.246   5.405  0.7536 -2.2131 -3.3754
  120MOL0     H16139   5.790   2.078   5.586  0.4940  0.2229 -0.1150
  120MOL0     H16140   5.682   2.168   5.683  2.4620  2.1667  2.6530
  120MOL0     H16141   5.926   2.268   5.542 -0.6719  4.0073 -3.5144
  120MOL0     H16142   5.788   2.378   5.539 -0.8849 -0.6121 -0.3217
  120MOL0     H16143   5.784   2.356   5.794 -0.0504  0.5308  0.0405
  120MOL0     H16144   5.912   2.227   5.785  1.3038  0.4385 -0.6564
  120MOL0     H16145   6.070   2.400   5.683 -0.5191  1.4282  0.5584
  120MOL0     H16146   5.941   2.520   5.702 -2.3497 -0.2158 -1.1551
  120MOL0     H16147   5.955   2.485   5.957  0.7699  0.7827  0.9899
  120MOL0     H16148   6.118   2.507   5.892 -0.1944 -0.0656  0.9706
  120MOL0     H16149   6.003   2.247   5.971 -0.5504  0.4734 -0.3993
  120MOL0     H16150   6.149   2.259   5.872 -0.7474  0.0951 -1.4389
  120MOL0     H16151   6.026   2.317   6.235 -0.6010  1.7574  1.1448
  120MOL0     H16152   6.249   2.528   6.433  2.3896 -0.9915  3.4013
  120MOL0     H16153   6.108   2.422   6.450  0.9590 -1.7008 -1.1235
  120MOL0     H16154   6.243   2.338   6.603  1.5047  1.1655  1.4378
  120MOL0     H16155   6.271   2.226   6.465  0.4914 -0.2701  2.0578
  120MOL0     H16156   6.452   2.464   6.538  0.3109 -0.3763  1.1535
  120MOL0     H16157   6.499   2.340   6.415 -0.3262 -0.3565 -0.8594
  120MOL0     H16158   6.614   2.246   6.591  0.8406  0.0723  5.8690
  120MOL0     H16159   6.472   2.151   6.584  1.7873 -1.3797  0.4012
  120MOL0     H16160   6.752   2.225   6.738 -0.5637 -2.9543 -1.4562
  120MOL0     H16161   6.885   2.212   6.920 -0.4676  1.3946 -2.1894
  120MOL0     H16162   6.977   2.304   7.390 -1.1500  0.6651  1.7406
  120MOL0     H16163   7.131   2.222   7.555 -0.1886  0.7239  0.6580
  120MOL0     H16164   7.279   1.979   7.623 -0.7934 -1.5854  0.0123
  120MOL0     H16165   7.246   2.134   7.718 -0.2769 -0.2960  1.9669
  120MOL0     H16166   7.309   1.860   7.806 -1.1590  0.3149 -0.0814
  120MOL0     H16167   7.397   2.009   7.838 -0.0633  1.4906 -0.6052
  120MOL0     H16168   7.307   2.010   8.025 -1.0634 -2.2717  2.1529
  120MOL0     H16169   7.164   2.087   7.934 -0.0348  0.2643  0.1284
  120MOL0     H16170   7.221   1.812   8.026 -1.0049 -1.3486  0.7994
  120MOL0     H16171   7.060   1.865   7.944 -1.2648 -0.9054  0.8505
  120MOL0     H16172   7.182   1.974   8.207 -0.2568  1.0330 -1.2038
  120MOL0     H16173   7.086   1.832   8.206  0.2286 -2.0748 -3.4876
  120MOL0     H16174   6.989   2.082   8.063  0.9572  1.4784  1.1617
  120MOL0     H16175   6.881   1.972   8.145 -0.1230 -0.6077 -0.5063
  120MOL0     H16176   7.056   2.193   8.278  2.2862 -1.8308  3.8235
  120MOL0     H16177   6.979   2.061   8.368 -3.5853  1.0165  0.6142
  120MOL0     H16178   6.845   2.253   8.376 -1.7304  1.8143 -1.9948
  120MOL0     H16179   6.794   2.228   8.210  0.0409  0.2863 -1.1325
  120MOL0     H16180   6.888   1.880   7.625  3.8220  0.5015  2.4732
  120MOL0     H16181   6.739   1.945   7.441  1.5062  0.4645 -1.9596
  120MOL0     H16182   6.536   2.314   7.179  1.9740 -0.4250  2.1750
  120MOL0     H16183   6.414   2.348   6.974 -0.1783 -0.6038  0.3408
  120MOL0     H16184   5.462   2.061   5.073  0.8368  0.5853  1.1349
  120MOL0     H16185   5.243   2.083   5.028  1.5944  3.7765  1.0912
  120MOL0     H16186   4.820   1.898   5.177  2.7747  1.1401 -2.6942
  120MOL0     H16187   4.568   1.871   5.149  1.0583 -0.6949 -1.0450
  120MOL0     H16188   4.223   2.031   5.074 -0.5966 -0.9822 -1.1628
  120MOL0     H16189   4.341   1.987   5.201  1.3483 -0.2854 -0.6347
  120MOL0     H16190   4.368   1.783   5.050 -0.0921 -0.8677 -3.5034
  120MOL0     H16191   4.266   1.848   4.926  1.7407  1.4211 -0.5569
  120MOL0     H16192   4.080   1.838   5.130 -1.8989 -2.9559 -0.2897
  120MOL0     H16193   4.206   1.769   5.223 -2.2222  2.4208  1.4250
  120MOL0     H16194   4.220   1.577   5.071 -2.0898 -2.7393 -0.8280
  120MOL0     H16195   4.073   1.598   5.148 -0.8243 -0.5718 -0.5858
  120MOL0     H16196   3.980   1.628   4.723 -0.1074 -1.3554  0.2919
  120MOL0     H16197   4.556   2.269   4.979  1.7601  1.3470  0.0142
  120MOL0     H16198   4.716   2.408   4.986  0.1321 -0.5936  0.4724
  120MOL0     H16199   4.851   2.389   5.107 -0.7316  0.2519  0.2569
  120MOL0     H16200   4.863   2.334   4.937  3.7037  5.2067  0.8718
  121MOL0     O16201   2.826   3.509   1.372  0.2571  0.7546  0.3972
  121MOL0     C16202   2.924   3.552   1.307  0.7293  0.3133  0.7412
  121MOL0     O16203   3.002   3.485   1.213  0.8554  0.7381 -0.1965
  121MOL0     C16204   2.997   3.345   1.222  0.0844 -1.0161  0.8765
  121MOL0     C16205   3.023   3.266   1.332 -0.3402 -0.3201 -0.2888
  121MOL0     C16206   3.001   3.124   1.333  0.7349  1.2620 -0.4300
  121MOL0     C16207   2.955   3.068   1.210  0.7021 -0.9648  0.6904
  121MOL0     O16208   2.931   2.938   1.192  0.2413  0.2909  0.0840
  121MOL0     C16209   3.024   2.852   1.263  0.6509  1.1272 -0.1625
  121MOL0     C16210   2.976   2.706   1.235  0.3425 -0.0281  0.6764
  121MOL0     C16211   3.043   2.643   1.104 -0.2102 -0.8882 -0.4492
  121MOL0     C16212   3.046   2.749   0.986  1.5252 -1.0969 -0.3277
  121MOL0     C16213   3.101   2.708   0.851 -0.3350 -0.6517  0.3873
  121MOL0     C16214   3.098   2.831   0.755 -0.4996 -0.0003 -0.7191
  121MOL0     C16215   3.119   2.794   0.612  0.1258 -0.6233 -0.2459
  121MOL0     C16216   3.182   2.657   0.568  1.1115 -0.0326 -0.7675
  121MOL0     N16217   3.227   2.656   0.431  0.1320  0.1999 -1.3757
  121MOL0     C16218   3.350   2.710   0.393 -0.0211  0.2656  0.0794
  121MOL0     C16219   3.354   2.707   0.256  0.0326 -0.5379 -1.1570
  121MOL0     C16220   3.467   2.744   0.156  0.6530  0.1558 -0.4450
  121MOL0     C16221   3.586   2.813   0.228 -0.6096  0.0233  0.4854
  121MOL0     C16222   3.678   2.890   0.137  1.3747 -0.0969 -0.2642
  121MOL0     C16223   3.633   3.044   0.128  0.5586  0.7429 -0.2249
  121MOL0     O16224   3.709   3.130   0.042 -0.3215 -0.5453  0.5066
  121MOL0     C16225   3.683   3.268   0.049 -0.0342  0.9413  1.1568
  121MOL0     C16226   3.782   3.349  -0.017 -0.0484  0.1269 -0.2928
  121MOL0     C16227   3.766   3.485  -0.029  0.4495 -0.2809 -0.1587
  121MOL0     C16228   3.655   3.546   0.012  0.1641  0.1472 -0.1041
  121MOL0     C16229   3.625   3.685  -0.020 -0.2181  0.8692  0.0113
  121MOL0     O16230   3.507   3.733   0.017 -0.1709  0.2003 -0.0179
  121MOL0     C16231   3.492   3.865   0.037  0.2775 -0.3783 -1.0683
  121MOL0     C16232   3.586   3.945   0.087  0.1216  0.1669 -0.7053
  121MOL0     C16233   3.559   4.082   0.101  0.4039 -0.1298 -0.1212
  121MOL0     C16234   3.432   4.122   0.063  0.9197  0.1158  1.3665
  121MOL0     O16235   3.394   4.239   0.108 -0.4436 -0.2963 -0.8179
  121MOL0     C16236   3.335   4.330   0.006  0.0207  0.3396 -0.3535
  121MOL0     C16237   3.398   4.464   0.018  0.1092  0.1436  0.5633
  121MOL0     C16238   3.389   4.523   0.166 -0.0850 -0.3237  1.0418
  121MOL0     C16239   3.421   4.668   0.177  1.0882  0.2365 -0.3570
  121MOL0     C16240   3.387   4.716   0.318  1.1809 -0.5762 -1.0721
  121MOL0     C16241   3.431   4.866   0.339  0.0537 -0.4748  0.8210
  121MOL0     C16242   3.579   4.875   0.367  0.3758  0.6527  0.1671
  121MOL0     C16243   3.621   4.878   0.517 -0.1184  0.8531  0.0427
  121MOL0    Cl16244   3.520   4.998   0.605  0.0234  0.3567  0.2491
  121MOL0     C16245   3.337   4.033   0.013  0.1097 -0.1785  0.7746
  121MOL0     C16246   3.367   3.905  -0.005 -0.4399 -0.2967 -0.0400
  121MOL0     O16247   3.697   3.740  -0.097 -0.3766 -0.1827 -0.1909
  121MOL0     C16248   3.550   3.466   0.066  0.0859 -0.0310  0.4362
  121MOL0     C16249   3.561   3.325   0.088  0.1126  0.2986 -0.3583
  121MOL0     N16250   3.231   2.663   0.216  0.0057  0.1850  0.5964
  121MOL0     N16251   3.160   2.632   0.324  0.2829  0.8372  0.4994
  121MOL0     C16252   2.938   3.153   1.098 -0.1813  0.8605  0.6923
  121MOL0     C16253   2.951   3.292   1.110  0.0088  0.3341  0.4803
  121MOL0     C16254   2.945   3.699   1.312  0.2831  0.0510 -0.3675
  121MOL0     C16255   2.883   3.769   1.423  0.5761 -0.3285  0.5336
  121MOL0     C16256   2.923   3.898   1.450  1.5530  0.0300 -0.1983
  121MOL0     C16257   3.018   3.964   1.370 -0.3510 -0.4372 -0.2471
  121MOL0     O16258   3.045   4.096   1.391 -0.0776 -0.0926 -0.0419
  121MOL0     C16259   2.939   4.184   1.439  0.5293 -0.8745  0.7986
  121MOL0     C16260   3.009   4.297   1.510  1.1845 -0.6651  1.0961
  121MOL0     C16261   2.916   4.386   1.596 -0.3560 -0.1039  0.5048
  121MOL0     C16262   2.977   4.500   1.683 -0.2970  0.5173 -0.3962
  121MOL0     C16263   3.069   4.446   1.787  0.3682  0.0633  0.7543
  121MOL0     C16264   3.124   4.379   1.878 -0.3337 -0.7156 -1.0158
  121MOL0     C16265   3.074   3.895   1.265  0.2125 -0.4636  0.0737
  121MOL0     C16266   3.033   3.771   1.230  0.4649  0.0423  0.9966
  121MOL0     C16267   3.075   3.723   1.091 -0.2642 -0.3335 -1.0009
  121MOL0     H16268   3.045   3.310   1.429 -0.4743  1.1106 -0.8846
  121MOL0     H16269   3.011   3.068   1.426  0.9973 -0.8944 -1.6707
  121MOL0     H16270   3.129   2.858   1.233  1.5839 -3.1524  1.5185
  121MOL0     H16271   3.022   2.889   1.365  1.8151  0.1601  0.2334
  121MOL0     H16272   2.870   2.705   1.207  0.3708  2.4268  0.3362
  121MOL0     H16273   2.994   2.655   1.330  1.4350 -2.0023 -0.5006
  121MOL0     H16274   3.004   2.550   1.061  0.1966 -2.3750  2.2014
  121MOL0     H16275   3.147   2.622   1.131  1.1301  1.4388 -3.1917
  121MOL0     H16276   2.946   2.789   0.969  1.2971  1.1001  4.4418
  121MOL0     H16277   3.107   2.832   1.025 -1.2935  0.0674  1.9809
  121MOL0     H16278   3.206   2.678   0.863  0.8713  2.6941 -0.6589
  121MOL0     H16279   3.038   2.631   0.805  3.0504 -3.4994  0.0836
  121MOL0     H16280   3.007   2.888   0.777  1.6825  3.4144  0.2975
  121MOL0     H16281   3.179   2.900   0.781  0.0252  0.3166 -2.9838
  121MOL0     H16282   3.179   2.869   0.560 -0.3528  0.9614  1.3874
  121MOL0     H16283   3.018   2.804   0.570 -1.8444 -1.4183  3.8586
  121MOL0     H16284   3.266   2.625   0.631 -0.0619 -0.5581  0.5967
  121MOL0     H16285   3.102   2.584   0.584  0.7733 -0.1313 -2.7199
  121MOL0     H16286   3.433   2.752   0.449  3.3625 -3.3076 -1.8069
  121MOL0     H16287   3.500   2.647   0.116 -1.5818 -2.1509  2.7309
  121MOL0     H16288   3.423   2.815   0.085 -0.5438 -1.8986 -1.8835
  121MOL0     H16289   3.539   2.880   0.301  0.5653  1.0082  0.3712
  121MOL0     H16290   3.645   2.744   0.288 -0.2244  2.5920  3.3363
  121MOL0     H16291   3.670   2.836   0.042  1.2773  2.3536 -1.7177
  121MOL0     H16292   3.778   2.881   0.181  0.7144  0.5291  1.4255
  121MOL0     H16293   3.623   3.081   0.230 -3.7866 -5.2422  2.0986
  121MOL0     H16294   3.532   3.050   0.087 -0.6115  3.1453  2.6289
  121MOL0     H16295   3.868   3.301  -0.063  1.8217  4.0380 -1.2993
  121MOL0     H16296   3.833   3.551  -0.083  0.0527 -2.1422 -3.1594
  121MOL0     H16297   3.672   3.889   0.122  0.2926  0.3395 -0.8441
  121MOL0     H16298   3.633   4.147   0.147  0.5513 -0.8908  0.7360
  121MOL0     H16299   3.353   4.284  -0.091 -1.3323 -0.0102 -0.4636
  121MOL0     H16300   3.227   4.339   0.026 -0.0849  0.5087 -0.9597
  121MOL0     H16301   3.501   4.452  -0.017 -0.3675 -0.4541 -0.6790
  121MOL0     H16302   3.346   4.528  -0.054 -2.2093 -2.6483 -0.4250
  121MOL0     H16303   3.290   4.508   0.209  0.7884 -0.2679  3.2175
  121MOL0     H16304   3.462   4.470   0.228 -1.1221 -5.1004 -1.2675
  121MOL0     H16305   3.361   4.716   0.100 -0.2649 -1.0123 -0.1109
  121MOL0     H16306   3.525   4.676   0.145  0.6484  0.5945 -1.7506
  121MOL0     H16307   3.441   4.659   0.394 -2.8603  0.8133  3.3128
  121MOL0     H16308   3.283   4.706   0.351  2.3491 -1.3431  3.0250
  121MOL0     H16309   3.417   4.919   0.245  0.9819 -2.5358 -0.5523
  121MOL0     H16310   3.370   4.916   0.415  0.0119 -0.5826  0.8582
  121MOL0     H16311   3.603   4.975   0.331  0.0324  0.4287 -0.7228
  121MOL0     H16312   3.631   4.792   0.317  0.3537  0.7228  0.0287
  121MOL0     H16313   3.594   4.788   0.572  0.9575  0.8608  0.6164
  121MOL0     H16314   3.724   4.905   0.544 -0.0771 -2.8462  4.8639
  121MOL0     H16315   3.239   4.074  -0.011  0.4458 -0.9829 -2.4277
  121MOL0     H16316   3.294   3.835  -0.043  0.0560 -1.9445  1.8656
  121MOL0     H16317   3.450   3.505   0.081  0.0679  1.6159 -3.0540
  121MOL0     H16318   3.482   3.260   0.124 -0.2544  0.9771  0.0869
  121MOL0     H16319   2.897   3.111   1.006  0.0242  3.1820 -0.5202
  121MOL0     H16320   2.933   3.356   1.024 -0.8761 -1.2558 -0.5604
  121MOL0     H16321   2.816   3.722   1.495  0.7402 -0.1926  0.7759
  121MOL0     H16322   2.893   3.933   1.549 -0.1980 -2.6731  0.3620
  121MOL0     H16323   2.871   4.138   1.512 -1.9286  3.5112  1.6495
  121MOL0     H16324   2.878   4.223   1.356  1.3782 -0.5487  0.3183
  121MOL0     H16325   3.068   4.363   1.446 -0.3635 -0.4973 -0.2237
  121MOL0     H16326   3.075   4.243   1.579 -1.9532 -3.4599  2.1771
  121MOL0     H16327   2.846   4.329   1.658 -2.1697  1.5790  0.1147
  121MOL0     H16328   2.852   4.436   1.523  0.0543 -0.5407 -0.1650
  121MOL0     H16329   3.037   4.569   1.624 -1.3683  1.8505  0.0235
  121MOL0     H16330   2.899   4.564   1.724  1.6718  1.8976  1.3991
  121MOL0     H16331   3.158   4.321   1.961 -1.3869 -3.4693 -2.3764
  121MOL0     H16332   3.145   3.951   1.204 -1.3338 -1.1973 -2.5631
  121MOL0     H16333   3.108   3.796   1.017 -0.3718 -1.8543 -2.6117
  121MOL0     H16334   3.155   3.655   1.122 -0.9832 -1.0842 -0.7434
  121MOL0     H16335   2.990   3.670   1.047 -2.2812  0.4910  1.6062
  122MOL0     O16336  10.771   6.227   9.326 -0.8071  0.3351  0.0041
  122MOL0     C16337  10.751   6.347   9.321  0.2334 -0.9567  0.2811
  122MOL0     O16338  10.703   6.421   9.429 -1.0817 -0.4160 -0.0141
  122MOL0     C16339  10.654   6.357   9.541 -0.5624 -1.0513  0.2667
  122MOL0     C16340  10.745   6.346   9.644  0.2096 -0.1263  0.0295
  122MOL0     C16341  10.705   6.264   9.746 -0.8482  0.3665  0.2260
  122MOL0     C16342  10.591   6.194   9.749  1.0719  0.0410 -0.6443
  122MOL0     O16343  10.553   6.133   9.867 -0.4453 -0.0543 -0.5790
  122MOL0     C16344  10.432   6.047   9.866  0.2211  0.6508  0.4505
  122MOL0     C16345  10.310   6.129   9.917 -0.4118 -0.4235 -0.4372
  122MOL0     C16346  10.196   6.047   9.978 -0.3956  0.3459 -0.1435
  122MOL0     C16347  10.082   6.120  10.045 -0.9375  0.8921 -0.8584
  122MOL0     C16348   9.959   6.027  10.062 -0.2297 -0.5459  1.0427
  122MOL0     C16349   9.998   5.893  10.115 -0.8195  0.2316  0.0313
  122MOL0     C16350  10.058   5.896  10.257 -0.4004  0.1107 -0.1317
  122MOL0     C16351  10.077   5.749  10.318  0.3582  0.8159 -0.1377
  122MOL0     N16352   9.946   5.695  10.362  0.0801  0.0887  0.5773
  122MOL0     C16353   9.921   5.560  10.395  0.1180 -0.3245  0.9404
  122MOL0     C16354   9.800   5.557  10.446 -1.0372  0.0044  0.9601
  122MOL0     C16355   9.721   5.446  10.510  0.0792  0.2729  0.0938
  122MOL0     C16356   9.786   5.354  10.609 -0.2932 -1.6298  0.6456
  122MOL0     C16357   9.681   5.282  10.698  0.2271  0.5211 -0.2022
  122MOL0     C16358   9.639   5.373  10.810  0.1642  0.1750  0.2406
  122MOL0     O16359   9.517   5.442  10.784 -0.6372 -0.1818 -0.3462
  122MOL0     C16360   9.387   5.395  10.796 -0.1414  0.0695 -0.7967
  122MOL0     C16361   9.290   5.484  10.807  0.1318 -0.1229 -0.5066
  122MOL0     C16362   9.150   5.448  10.813  0.9364 -0.3684  0.4153
  122MOL0     C16363   9.118   5.310  10.808  0.1472  0.5148  0.5125
  122MOL0     C16364   8.977   5.264  10.806  0.1614  0.2419 -0.1036
  122MOL0     O16365   8.875   5.347  10.763 -0.0896  0.1258 -1.0171
  122MOL0     C16366   8.742   5.307  10.770 -0.0041  0.2621  0.6428
  122MOL0     C16367   8.649   5.380  10.846 -0.4856  0.1410  0.5669
  122MOL0     C16368   8.516   5.350  10.836  0.9846  0.5113  0.3478
  122MOL0     C16369   8.461   5.248  10.756 -0.2302 -0.1095 -0.2071
  122MOL0     O16370   8.324   5.233  10.765  0.0889  0.9069  0.1716
  122MOL0     C16371   8.284   5.098  10.733 -0.2727  0.2803 -0.4041
  122MOL0     C16372   8.140   5.077  10.775  0.6446 -0.0236  0.2166
  122MOL0     C16373   8.044   5.124  10.669  0.1187  0.3261  0.5595
  122MOL0     C16374   8.038   5.277  10.672 -0.2645 -0.6868 -1.0678
  122MOL0     C16375   7.922   5.331  10.593 -0.2706 -0.8712 -0.1893
  122MOL0     C16376   7.943   5.361  10.443 -0.3294 -0.0549  0.1570
  122MOL0     C16377   7.831   5.447  10.394 -0.8233  0.0817  0.3637
  122MOL0     C16378   7.864   5.480  10.245  0.5556 -0.3867  0.4783
  122MOL0    Cl16379   7.762   5.615  10.172  0.0817  0.1796  0.4065
  122MOL0     C16380   8.548   5.176  10.674 -0.0577  1.0588 -0.4858
  122MOL0     C16381   8.688   5.202  10.689  0.6047 -0.1712 -0.5658
  122MOL0     O16382   8.967   5.152  10.853  0.4778 -0.1728 -0.2755
  122MOL0     C16383   9.228   5.221  10.809  0.2259 -0.6997 -0.4385
  122MOL0     C16384   9.359   5.258  10.816  0.4467 -0.3101 -0.0872
  122MOL0     N16385   9.744   5.683  10.429  0.3983 -1.0847  0.4873
  122MOL0     N16386   9.823   5.765  10.372  0.1188  0.6665 -0.7027
  122MOL0     C16387  10.491   6.221   9.648  0.2518  0.2786  0.2745
  122MOL0     C16388  10.530   6.295   9.541 -0.0880  0.2562 -0.1946
  122MOL0     C16389  10.771   6.421   9.191 -0.2437  0.3535 -0.2204
  122MOL0     C16390  10.719   6.548   9.176  0.1732  1.1349  0.3146
  122MOL0     C16391  10.736   6.618   9.059 -0.8186  0.2605  0.1111
  122MOL0     C16392  10.797   6.567   8.944  0.5226 -0.2547  0.4490
  122MOL0     O16393  10.812   6.626   8.816  0.0281  0.0438 -1.3404
  122MOL0     C16394  10.709   6.724   8.787  0.7493 -0.4430  0.7997
  122MOL0     C16395  10.749   6.858   8.845  1.2542  0.6323  0.1907
  122MOL0     C16396  10.818   6.950   8.753 -0.5809 -0.0921  0.2902
  122MOL0     C16397  10.958   6.906   8.741  0.2869 -0.0983  0.7524
  122MOL0     C16398  11.020   6.999   8.639  0.5541  0.2141 -0.7251
  122MOL0     C16399  11.072   7.052   8.545  0.4727 -0.2420 -0.1209
  122MOL0     C16400  10.850   6.438   8.961  0.6527 -0.4104 -0.9121
  122MOL0     C16401  10.836   6.359   9.080 -0.8113  0.4086  0.1657
  122MOL0     C16402  10.902   6.218   9.084 -0.3011 -0.5670  0.8940
  122MOL0     H16403  10.841   6.398   9.642  0.6888 -0.9686  0.6385
  122MOL0     H16404  10.777   6.250   9.826 -0.7154  1.2422  0.2696
  122MOL0     H16405  10.419   6.006   9.765  0.3862  0.6254  0.4400
  122MOL0     H16406  10.447   5.966   9.937  0.3059  1.9165  1.9304
  122MOL0     H16407  10.274   6.191   9.834 -1.2607 -3.7565 -2.7612
  122MOL0     H16408  10.346   6.198   9.994  0.3157 -0.8039 -0.4251
  122MOL0     H16409  10.238   5.980  10.054 -0.4535  0.9849  0.4686
  122MOL0     H16410  10.152   5.997   9.891  0.7297  1.6906 -1.5272
  122MOL0     H16411  10.108   6.150  10.148  0.6629 -1.7170 -0.4038
  122MOL0     H16412  10.064   6.200   9.973  4.5442  0.1951 -3.5728
  122MOL0     H16413   9.886   6.079  10.125  1.6314  2.6825  0.7696
  122MOL0     H16414   9.914   6.017   9.963  2.1677 -1.5024 -0.0147
  122MOL0     H16415   9.900   5.847  10.124 -0.7580 -0.5980 -2.7047
  122MOL0     H16416  10.052   5.827  10.046 -2.2323 -1.2236  0.2519
  122MOL0     H16417  10.012   5.963  10.331 -1.0086 -1.7118  1.1967
  122MOL0     H16418  10.160   5.932  10.238  0.1104 -1.8747 -1.3944
  122MOL0     H16419  10.127   5.671  10.261 -1.6906 -0.2960 -0.4945
  122MOL0     H16420  10.137   5.760  10.409  0.0638  1.8371 -0.0452
  122MOL0     H16421   9.995   5.482  10.408  1.1490  0.8778  2.5923
  122MOL0     H16422   9.627   5.482  10.553 -1.5696  1.1315 -3.7686
  122MOL0     H16423   9.695   5.394  10.417 -0.5545  1.3870 -0.3704
  122MOL0     H16424   9.845   5.283  10.550 -1.1323 -2.3119  0.6010
  122MOL0     H16425   9.847   5.416  10.675 -0.9922 -2.7872  2.4545
  122MOL0     H16426   9.728   5.194  10.744 -2.1242 -0.2757  0.8103
  122MOL0     H16427   9.593   5.247  10.643 -1.3910  3.2157  0.4950
  122MOL0     H16428   9.712   5.452  10.829  1.3444 -0.1828 -2.3203
  122MOL0     H16429   9.621   5.311  10.899 -3.1067 -1.3026 -1.2645
  122MOL0     H16430   9.304   5.592  10.813  1.3627 -0.3352  0.9160
  122MOL0     H16431   9.074   5.525  10.799  0.9513 -0.2234  1.1107
  122MOL0     H16432   8.695   5.463  10.899  2.4831 -1.0611  0.0688
  122MOL0     H16433   8.449   5.395  10.908  0.0340  0.0431 -0.2207
  122MOL0     H16434   8.305   5.088  10.626  1.0640 -0.0410 -0.1335
  122MOL0     H16435   8.341   5.035  10.802 -1.5941  0.0447  0.5130
  122MOL0     H16436   8.122   4.971  10.794  1.4802 -0.0342  1.0454
  122MOL0     H16437   8.115   5.133  10.866 -0.1128  2.3383 -1.3552
  122MOL0     H16438   8.073   5.087  10.571  2.9913  2.1673  0.5866
  122MOL0     H16439   7.948   5.076  10.690  1.2006 -1.9753  0.4676
  122MOL0     H16440   8.120   5.317  10.613 -1.5000  1.0167 -1.6886
  122MOL0     H16441   8.031   5.316  10.774  0.0181  2.3573 -2.1299
  122MOL0     H16442   7.903   5.431  10.632 -0.5438 -1.0557  0.1536
  122MOL0     H16443   7.834   5.270  10.615  0.5497 -2.4325 -0.9831
  122MOL0     H16444   8.042   5.406  10.433 -0.4799  0.0634 -0.9459
  122MOL0     H16445   7.944   5.265  10.389 -1.2555 -0.5367  0.9711
  122MOL0     H16446   7.837   5.536  10.457 -3.3454 -0.6008  1.7113
  122MOL0     H16447   7.734   5.401  10.415 -0.4793 -1.1860 -0.6618
  122MOL0     H16448   7.967   5.511  10.225 -0.4093  1.6175 -2.1924
  122MOL0     H16449   7.851   5.388  10.187 -4.9979  0.8650 -0.9435
  122MOL0     H16450   8.513   5.106  10.599  2.7045 -0.8701 -0.1374
  122MOL0     H16451   8.754   5.153  10.618 -2.2976 -2.4746 -1.8604
  122MOL0     H16452   9.205   5.115  10.798 -0.0913 -0.8808  1.6281
  122MOL0     H16453   9.433   5.178  10.810 -0.3393 -1.1956  1.2729
  122MOL0     H16454  10.386   6.193   9.647  0.1049  0.8237 -0.0369
  122MOL0     H16455  10.466   6.306   9.454  0.0315  1.4776 -0.1506
  122MOL0     H16456  10.668   6.595   9.260 -1.2139 -0.2440  0.2980
  122MOL0     H16457  10.686   6.714   9.047  0.6513  1.5943  3.4234
  122MOL0     H16458  10.611   6.687   8.816  1.1073  0.1321  2.8891
  122MOL0     H16459  10.698   6.727   8.678  0.8286 -1.2990  0.7596
  122MOL0     H16460  10.803   6.836   8.938 -0.1131 -3.4862  0.1894
  122MOL0     H16461  10.662   6.921   8.866  1.0915  0.8413 -1.0552
  122MOL0     H16462  10.810   7.051   8.794  2.0032  0.1065  0.4633
  122MOL0     H16463  10.772   6.950   8.654  0.1824 -4.2816 -0.2445
  122MOL0     H16464  11.011   6.904   8.837  2.9167  0.6409 -0.5727
  122MOL0     H16465  10.963   6.800   8.717  1.6453 -0.2237  1.4659
  122MOL0     H16466  11.114   7.101   8.460  2.3938  0.9018  1.4060
  122MOL0     H16467  10.894   6.384   8.877 -1.2052 -0.2619 -2.0240
  122MOL0     H16468  10.821   6.145   9.094 -0.3809 -0.2628  2.7049
  122MOL0     H16469  10.962   6.198   8.995  3.5562  2.3202  2.5235
  122MOL0     H16470  10.978   6.203   9.161  2.5471  2.2087 -1.1000
  123MOL0     O16471   5.286   4.661   4.695  0.2658 -0.8173 -0.2292
  123MOL0     C16472   5.323   4.552   4.657 -0.1905  0.6875  0.5617
  123MOL0     O16473   5.420   4.481   4.721  0.2820 -0.1841 -0.0513
  123MOL0     C16474   5.504   4.539   4.808  0.8623  0.3847 -0.3296
  123MOL0     C16475   5.642   4.532   4.773  0.0138  0.0344  0.2440
  123MOL0     C16476   5.740   4.599   4.853 -0.4348 -0.5366 -0.1334
  123MOL0     C16477   5.695   4.676   4.958 -0.2444  0.2548 -0.6493
  123MOL0     O16478   5.794   4.759   5.020 -0.2104  0.4199  1.0676
  123MOL0     C16479   5.766   4.897   5.007 -0.5022  0.4385  0.9834
  123MOL0     C16480   5.879   4.987   5.066  0.5548 -0.8203 -0.4896
  123MOL0     C16481   5.917   5.101   4.969 -0.3587 -0.4285  0.3720
  123MOL0     C16482   5.895   5.241   5.027  0.3611 -0.3370  0.1939
  123MOL0     C16483   5.959   5.275   5.162 -0.2120 -0.4348  0.9425
  123MOL0     C16484   6.109   5.252   5.171  0.0848 -0.3785  1.4288
  123MOL0     C16485   6.153   5.270   5.323 -0.2351  0.4274 -0.8278
  123MOL0     C16486   6.269   5.165   5.362  0.2514  0.5687 -0.4834
  123MOL0     N16487   6.220   5.020   5.349  0.4293 -0.8141  0.2245
  123MOL0     C16488   6.089   4.976   5.381 -0.0589 -0.9295 -0.0025
  123MOL0     C16489   6.070   4.856   5.325  0.9313  0.6926  0.2700
  123MOL0     C16490   5.956   4.756   5.360 -0.5003 -0.4707  0.3504
  123MOL0     C16491   5.961   4.611   5.301  0.7676  0.0712 -0.5045
  123MOL0     C16492   5.846   4.526   5.358  0.4911 -0.5102  0.5909
  123MOL0     C16493   5.761   4.462   5.247  0.0775  0.3523 -0.5371
  123MOL0     O16494   5.682   4.358   5.311  0.7539  0.1351 -0.0439
  123MOL0     C16495   5.564   4.324   5.260  0.1773  0.9797 -0.0158
  123MOL0     C16496   5.457   4.305   5.351 -1.3003  0.4534 -0.3916
  123MOL0     C16497   5.342   4.251   5.307  0.0168  0.5709 -0.1859
  123MOL0     C16498   5.316   4.230   5.176  0.7475  0.4881  1.3410
  123MOL0     C16499   5.177   4.191   5.139 -0.3673  0.1204  0.5186
  123MOL0     O16500   5.146   4.208   5.009 -0.1851 -0.0016  0.3394
  123MOL0     C16501   5.024   4.185   4.947 -0.8492  0.6857 -0.2544
  123MOL0     C16502   4.903   4.189   5.015 -0.1384 -0.6160 -0.6959
  123MOL0     C16503   4.780   4.154   4.945 -0.3371 -0.2388  0.1865
  123MOL0     C16504   4.790   4.123   4.806 -0.0822 -0.9665 -0.3683
  123MOL0     O16505   4.676   4.115   4.733 -0.4214  0.3306 -0.1668
  123MOL0     C16506   4.589   4.005   4.769  0.2430 -0.5658 -0.3092
  123MOL0     C16507   4.546   3.927   4.650  0.1894  0.2564 -0.4129
  123MOL0     C16508   4.447   4.010   4.569  0.9184  0.1200 -0.6205
  123MOL0     C16509   4.397   3.942   4.440  0.3319  0.2895  0.0267
  123MOL0     C16510   4.281   3.842   4.476 -0.0884 -0.8411 -0.6543
  123MOL0     C16511   4.249   3.756   4.345 -0.4731 -0.0864 -0.4335
  123MOL0     C16512   4.168   3.635   4.389  0.3894  0.8756 -0.1705
  123MOL0     C16513   4.146   3.519   4.286  0.2414 -0.2541  0.1444
  123MOL0    Cl16514   4.312   3.449   4.232  0.3913 -0.2760 -0.2128
  123MOL0     C16515   4.912   4.135   4.739  0.1090 -1.5483  0.2324
  123MOL0     C16516   5.024   4.167   4.812 -0.6279  0.2443 -0.1562
  123MOL0     O16517   5.119   4.121   5.216  0.4173 -0.3821 -0.0006
  123MOL0     C16518   5.422   4.252   5.076  0.4912 -0.3035  0.1571
  123MOL0     C16519   5.540   4.299   5.117  0.1036 -0.7008 -0.1227
  123MOL0     N16520   6.187   4.829   5.263  0.4000  0.2701  0.5671
  123MOL0     N16521   6.264   4.932   5.259 -0.8689  0.8908 -0.3389
  123MOL0     C16522   5.560   4.669   4.997 -0.8388 -1.2171  0.0344
  123MOL0     C16523   5.468   4.608   4.920  0.4954 -0.1488  0.3175
  123MOL0     C16524   5.255   4.482   4.553  0.7875  0.8576  0.2766
  123MOL0     C16525   5.324   4.420   4.445 -0.1548  0.3981 -0.1018
  123MOL0     C16526   5.262   4.347   4.343  0.1471 -0.4456 -0.4607
  123MOL0     C16527   5.119   4.355   4.333  0.0901  0.1869 -0.1168
  123MOL0     O16528   5.040   4.312   4.236 -0.1497  0.1933 -0.3167
  123MOL0     C16529   5.068   4.360   4.103  0.1597  0.0030  0.1710
  123MOL0     C16530   5.128   4.248   4.022  0.4826  0.8313 -0.8191
  123MOL0     C16531   5.197   4.323   3.901 -0.5631  0.5791 -0.7697
  123MOL0     C16532   5.346   4.356   3.929  0.7635  0.3748 -0.2971
  123MOL0     C16533   5.434   4.233   3.940  1.3802  1.1029 -0.0015
  123MOL0     C16534   5.499   4.127   3.941 -0.3860 -0.6373  0.6432
  123MOL0     C16535   5.048   4.422   4.437 -0.4404 -0.1031 -0.8234
  123MOL0     C16536   5.115   4.473   4.554  0.1073 -0.9942  0.3562
  123MOL0     C16537   5.023   4.518   4.668  0.3260 -0.6718  0.5873
  123MOL0     H16538   5.673   4.477   4.684 -0.1889 -0.7182  0.6336
  123MOL0     H16539   5.847   4.592   4.835 -0.2524  1.1991  0.1218
  123MOL0     H16540   5.753   4.913   4.899 -1.5323  0.0404  1.0385
  123MOL0     H16541   5.671   4.920   5.056 -3.8786 -3.6757 -2.7948
  123MOL0     H16542   5.973   4.932   5.077 -0.0918 -1.9752 -0.6097
  123MOL0     H16543   5.841   5.030   5.159 -1.3424  4.2296 -3.2321
  123MOL0     H16544   5.873   5.095   4.869 -1.1755  2.0280  0.5199
  123MOL0     H16545   6.021   5.095   4.936 -1.3830 -0.7171 -3.3097
  123MOL0     H16546   5.928   5.314   4.953 -2.1774  1.8280  1.0363
  123MOL0     H16547   5.788   5.256   5.043 -0.3794 -4.5724  0.4301
  123MOL0     H16548   5.958   5.382   5.184  0.6499 -0.4101  0.8731
  123MOL0     H16549   5.895   5.230   5.239  1.1249  0.5857  2.7039
  123MOL0     H16550   6.140   5.153   5.136  1.2418  0.4506  0.0096
  123MOL0     H16551   6.154   5.326   5.104 -1.9868 -0.3868 -0.0686
  123MOL0     H16552   6.067   5.262   5.390  1.8436 -2.6370  1.7992
  123MOL0     H16553   6.198   5.369   5.330  0.9606 -0.0890 -1.0620
  123MOL0     H16554   6.360   5.186   5.303  0.1945  0.6099 -0.5571
  123MOL0     H16555   6.306   5.170   5.465  0.5924 -2.4874 -0.3892
  123MOL0     H16556   6.009   5.025   5.434 -0.9582 -1.3379 -0.9578
  123MOL0     H16557   5.944   4.746   5.468  3.0095 -2.0507  0.7211
  123MOL0     H16558   5.867   4.795   5.309  1.8456  3.0664 -1.4324
  123MOL0     H16559   5.945   4.604   5.193 -1.9791 -5.1810 -0.0975
  123MOL0     H16560   6.063   4.573   5.312  0.8677  0.6188  0.6183
  123MOL0     H16561   5.789   4.583   5.431  0.5534 -2.2068  2.0215
  123MOL0     H16562   5.895   4.448   5.417  1.5678  0.3592  0.8748
  123MOL0     H16563   5.828   4.421   5.172  2.1588  3.5926 -0.6317
  123MOL0     H16564   5.704   4.545   5.203 -4.0184 -2.0402 -0.2491
  123MOL0     H16565   5.473   4.319   5.458  1.5111  0.1673 -0.6789
  123MOL0     H16566   5.263   4.219   5.374  0.6847  0.7168  0.6924
  123MOL0     H16567   4.901   4.198   5.123 -2.3644  0.0352 -0.7519
  123MOL0     H16568   4.680   4.152   4.985 -1.2445  0.5544 -1.9040
  123MOL0     H16569   4.633   3.927   4.832  3.9820  1.1694 -0.4906
  123MOL0     H16570   4.501   4.047   4.818  0.0027 -1.1305 -0.2538
  123MOL0     H16571   4.635   3.905   4.591 -1.4532 -1.0838 -2.5582
  123MOL0     H16572   4.496   3.836   4.683 -0.3264  1.6177  2.9254
  123MOL0     H16573   4.360   4.020   4.634  0.1537 -0.3526 -1.5256
  123MOL0     H16574   4.488   4.109   4.546  0.5691  0.2104 -0.8707
  123MOL0     H16575   4.478   3.880   4.400 -1.0412 -1.3062 -0.3957
  123MOL0     H16576   4.381   4.029   4.375  1.4053  1.2548  1.0138
  123MOL0     H16577   4.186   3.889   4.503  0.9575 -0.1608  2.1878
  123MOL0     H16578   4.322   3.777   4.553  0.6194 -0.7622 -0.9541
  123MOL0     H16579   4.203   3.806   4.260  0.8035  1.0466 -0.5034
  123MOL0     H16580   4.345   3.718   4.307  0.9375  0.4318  2.3532
  123MOL0     H16581   4.072   3.668   4.428 -0.7510  0.0295 -2.1401
  123MOL0     H16582   4.212   3.577   4.471 -0.0946  2.1084  1.0057
  123MOL0     H16583   4.084   3.441   4.331 -0.1969  1.4159  2.6270
  123MOL0     H16584   4.078   3.553   4.207  0.5998 -1.2604 -0.6177
  123MOL0     H16585   4.917   4.129   4.631  0.1795 -1.4108  0.2289
  123MOL0     H16586   5.114   4.184   4.754 -0.5681  0.1090 -0.1050
  123MOL0     H16587   5.420   4.233   4.969 -2.1934  3.8161 -0.7600
  123MOL0     H16588   5.620   4.303   5.044 -0.0397 -1.0772 -0.3059
  123MOL0     H16589   5.524   4.720   5.086 -0.8877 -3.0701  1.1268
  123MOL0     H16590   5.368   4.626   4.958  0.7945 -1.2787  1.7243
  123MOL0     H16591   5.432   4.416   4.453 -0.2687  0.5536  2.1788
  123MOL0     H16592   5.326   4.307   4.265 -3.0674 -4.2975 -1.5126
  123MOL0     H16593   5.137   4.445   4.109  1.7009 -1.2593  0.9027
  123MOL0     H16594   4.976   4.398   4.057 -0.3932 -2.1052 -0.5659
  123MOL0     H16595   5.048   4.180   3.992  3.2602 -1.8359 -2.7058
  123MOL0     H16596   5.209   4.199   4.076  1.6357  3.8555  0.4483
  123MOL0     H16597   5.139   4.410   3.869  0.8777  2.0728  0.5098
  123MOL0     H16598   5.204   4.253   3.817  4.4451  2.3732 -2.1684
  123MOL0     H16599   5.396   4.411   3.849 -0.3901  1.1773 -0.5046
  123MOL0     H16600   5.352   4.424   4.015 -1.9628 -1.8881  1.8971
  123MOL0     H16601   5.559   4.039   3.940  0.7288  0.0759  1.4280
  123MOL0     H16602   4.940   4.415   4.437 -0.7968  3.5560 -0.9539
  123MOL0     H16603   5.050   4.461   4.757  1.2706  0.1213  0.8183
  123MOL0     H16604   5.036   4.625   4.686 -1.1485 -0.6259  1.5622
  123MOL0     H16605   4.918   4.494   4.649  0.3441  1.1461 -2.4940
  124MOL0     O16606   3.329   9.817   8.511  0.5197 -0.3124 -0.3452
  124MOL0     C16607   3.310   9.938   8.540 -0.2070  0.8092  0.3197
  124MOL0     O16608   3.273  10.024   8.447 -0.2187 -0.1629 -0.6817
  124MOL0     C16609   3.303   9.996   8.311 -0.1477 -0.2628 -0.0118
  124MOL0     C16610   3.193   9.997   8.225  0.6206 -0.1621 -0.5302
  124MOL0     C16611   3.202   9.959   8.092 -1.0193  0.1696 -0.0325
  124MOL0     C16612   3.332   9.920   8.045  0.2793 -0.7597  0.5838
  124MOL0     O16613   3.324   9.877   7.910  0.6112 -0.5694 -0.5120
  124MOL0     C16614   3.420   9.796   7.860 -0.9410  0.6068  0.3563
  124MOL0     C16615   3.354   9.710   7.756 -0.4851  0.2714 -0.1168
  124MOL0     C16616   3.437   9.674   7.632 -0.2623 -0.2166  1.2626
  124MOL0     C16617   3.377   9.559   7.548 -0.2944 -0.3039 -1.1077
  124MOL0     C16618   3.468   9.511   7.440 -0.2893  0.8332 -0.2784
  124MOL0     C16619   3.390   9.432   7.334 -1.0627 -0.7337  0.1475
  124MOL0     C16620   3.393   9.277   7.380 -0.0860  0.4909  0.2803
  124MOL0     C16621   3.328   9.186   7.268  0.3186  0.0955  0.4244
  124MOL0     N16622   3.376   9.204   7.133 -1.0767 -0.1882  0.0605
  124MOL0     C16623   3.335   9.299   7.041 -0.1782 -0.2817  0.0725
  124MOL0     C16624   3.432   9.298   6.940  0.8776  0.2877 -0.0607
  124MOL0     C16625   3.438   9.402   6.826  0.8911 -0.2417 -0.0391
  124MOL0     C16626   3.472   9.318   6.700  0.0499  0.0552  0.3838
  124MOL0     C16627   3.459   9.410   6.574 -0.6226  0.1685 -0.0902
  124MOL0     C16628   3.350   9.358   6.476  0.1123  0.4404 -0.3521
  124MOL0     O16629   3.374   9.219   6.450 -0.4353 -0.2965 -0.1250
  124MOL0     C16630   3.438   9.189   6.336  0.2728  0.2194 -0.4118
  124MOL0     C16631   3.380   9.088   6.260 -0.8323 -0.6124  0.3710
  124MOL0     C16632   3.439   9.056   6.138  0.2972 -0.0554  0.0452
  124MOL0     C16633   3.539   9.132   6.078  0.1023  0.5459 -0.5748
  124MOL0     C16634   3.564   9.106   5.936 -0.1906  0.4279  0.4654
  124MOL0     O16635   3.521   8.993   5.880  0.5531 -0.7210 -0.6914
  124MOL0     C16636   3.556   8.948   5.754 -0.4742  0.6645  0.7331
  124MOL0     C16637   3.691   8.958   5.707  0.0383 -0.1512 -0.4137
  124MOL0     C16638   3.724   8.925   5.577  0.5896  0.7905 -0.3211
  124MOL0     C16639   3.625   8.868   5.497  0.5161 -1.0260 -0.2863
  124MOL0     O16640   3.650   8.834   5.366 -0.8423 -1.3250 -0.2515
  124MOL0     C16641   3.776   8.802   5.311 -0.0023 -0.2237  0.6720
  124MOL0     C16642   3.755   8.792   5.153  0.0348 -0.4587 -0.2622
  124MOL0     C16643   3.883   8.787   5.074 -1.0779  0.2599 -0.5493
  124MOL0     C16644   3.857   8.771   4.925  0.1736 -0.3264  0.5682
  124MOL0     C16645   3.997   8.742   4.860 -0.8164  0.6722  0.5297
  124MOL0     C16646   3.974   8.748   4.707 -0.2983  0.1323 -0.1278
  124MOL0     C16647   3.971   8.889   4.662 -0.2191 -1.0356  0.3923
  124MOL0     C16648   3.950   8.901   4.517  0.1471 -0.0104  0.4148
  124MOL0    Cl16649   3.780   8.917   4.493 -0.2656 -0.1791  0.2033
  124MOL0     C16650   3.501   8.838   5.548  0.9391 -0.5161 -0.4823
  124MOL0     C16651   3.467   8.871   5.678 -0.3872 -0.2146 -0.1292
  124MOL0     O16652   3.617   9.188   5.878 -0.3064 -0.2366  0.2175
  124MOL0     C16653   3.594   9.238   6.157 -0.0650 -0.4899 -1.1766
  124MOL0     C16654   3.545   9.255   6.287 -0.3161 -0.1330 -0.3020
  124MOL0     N16655   3.526   9.209   6.968 -0.2875  0.2958 -0.4819
  124MOL0     N16656   3.493   9.147   7.077 -0.4160  0.8601  0.9039
  124MOL0     C16657   3.446   9.922   8.133  0.7482  0.7193 -0.5604
  124MOL0     C16658   3.433   9.967   8.269  0.5447 -0.4005  1.1447
  124MOL0     C16659   3.303   9.978   8.685  0.2090 -0.5680  0.5729
  124MOL0     C16660   3.236  10.099   8.707  0.0493  0.0032 -0.1301
  124MOL0     C16661   3.226  10.154   8.838 -0.2013  0.1793  1.3554
  124MOL0     C16662   3.267  10.082   8.952  0.3136 -0.1684 -0.4117
  124MOL0     O16663   3.277  10.167   9.061  0.6233  0.2002 -0.2009
  124MOL0     C16664   3.335  10.114   9.174 -0.1190  0.0229 -0.0605
  124MOL0     C16665   3.372  10.226   9.268  1.0510 -0.9163 -0.3362
  124MOL0     C16666   3.257  10.316   9.310  0.2858  0.6883  0.4690
  124MOL0     C16667   3.268  10.399   9.440 -0.0936  0.6826 -0.0632
  124MOL0     C16668   3.398  10.470   9.420  0.6167  0.4454 -0.8241
  124MOL0     C16669   3.488  10.543   9.418  0.2778 -0.6947  0.6197
  124MOL0     C16670   3.333   9.963   8.929  0.2307  0.5174  0.6714
  124MOL0     C16671   3.358   9.915   8.802  0.0784 -0.4932  1.8088
  124MOL0     C16672   3.428   9.780   8.798  0.7921 -0.2762  0.4491
  124MOL0     H16673   3.100  10.027   8.272  0.7790 -0.0133 -0.3065
  124MOL0     H16674   3.118   9.946   8.024  1.6499 -0.6272 -3.4129
  124MOL0     H16675   3.500   9.853   7.812  0.0346 -2.2672 -1.7740
  124MOL0     H16676   3.460   9.736   7.942  1.8128  3.1208  1.0288
  124MOL0     H16677   3.258   9.744   7.718 -0.2718 -0.7813 -1.6905
  124MOL0     H16678   3.341   9.613   7.806 -1.7668  0.2456 -0.4743
  124MOL0     H16679   3.536   9.633   7.653 -0.9966 -2.4222  0.6818
  124MOL0     H16680   3.455   9.763   7.571 -0.9934  0.6059  2.2106
  124MOL0     H16681   3.343   9.468   7.599  1.8121 -1.0362 -0.9262
  124MOL0     H16682   3.285   9.600   7.505 -0.2937 -2.0867 -2.9653
  124MOL0     H16683   3.521   9.597   7.398  2.0399 -2.2972 -4.5560
  124MOL0     H16684   3.547   9.455   7.492  0.3329  1.4501 -0.5460
  124MOL0     H16685   3.292   9.479   7.347 -1.3471 -0.8997 -1.2483
  124MOL0     H16686   3.436   9.455   7.238  0.5153 -1.4480  0.7030
  124MOL0     H16687   3.341   9.256   7.474 -0.9773  0.6423 -0.1668
  124MOL0     H16688   3.498   9.245   7.382  0.1467  1.0601 -1.3257
  124MOL0     H16689   3.351   9.082   7.294 -2.3872 -0.6289  0.1336
  124MOL0     H16690   3.220   9.200   7.266  0.0947 -0.9982 -3.4573
  124MOL0     H16691   3.245   9.358   7.053 -1.5733 -2.7550  3.0087
  124MOL0     H16692   3.346   9.459   6.813  1.8505  1.2707 -0.4752
  124MOL0     H16693   3.518   9.472   6.851 -0.6369  2.3406 -1.9537
  124MOL0     H16694   3.563   9.258   6.699 -1.4968 -2.4763 -0.2184
  124MOL0     H16695   3.399   9.236   6.706 -1.5240  1.4589  1.2467
  124MOL0     H16696   3.556   9.424   6.526 -1.7128 -0.2457 -2.5797
  124MOL0     H16697   3.431   9.510   6.607  0.0345 -0.2854  1.9741
  124MOL0     H16698   3.331   9.425   6.391 -4.5576  2.9345  2.2493
  124MOL0     H16699   3.259   9.380   6.532 -0.3772  3.7931 -2.1585
  124MOL0     H16700   3.300   9.033   6.308 -1.3604  1.5706  2.1775
  124MOL0     H16701   3.401   8.975   6.076 -2.2123  1.4090 -0.4722
  124MOL0     H16702   3.770   9.000   5.768 -0.3930 -1.7348  1.3346
  124MOL0     H16703   3.826   8.948   5.547  0.3682  0.1488 -1.6636
  124MOL0     H16704   3.845   8.886   5.328  0.5739 -1.2481  4.1236
  124MOL0     H16705   3.827   8.718   5.359 -1.6656 -1.4868  0.3144
  124MOL0     H16706   3.695   8.701   5.137  0.1809 -0.3479 -1.5862
  124MOL0     H16707   3.705   8.868   5.092  3.0174 -0.1172 -2.4648
  124MOL0     H16708   3.952   8.870   5.093 -1.6345  0.5371  0.3688
  124MOL0     H16709   3.942   8.700   5.101  0.2449  0.8267 -1.5280
  124MOL0     H16710   3.810   8.856   4.873  0.7353 -0.1478  0.3456
  124MOL0     H16711   3.793   8.683   4.920  1.8177 -1.5400 -4.3400
  124MOL0     H16712   4.029   8.645   4.900 -0.0874  0.8239  0.3156
  124MOL0     H16713   4.072   8.815   4.891 -1.0602  0.3580  1.9238
  124MOL0     H16714   4.061   8.712   4.653 -0.6294  1.6684 -1.7936
  124MOL0     H16715   3.883   8.689   4.689  0.3349 -1.6486  2.0326
  124MOL0     H16716   4.067   8.932   4.693 -0.4616  2.2468 -2.7921
  124MOL0     H16717   3.888   8.946   4.704  1.4463  0.1811  2.2234
  124MOL0     H16718   3.995   8.990   4.472 -0.3976 -0.0765 -0.2807
  124MOL0     H16719   4.003   8.821   4.466 -1.3422  0.7238 -2.5379
  124MOL0     H16720   3.440   8.789   5.474 -0.8419 -2.1528  1.8937
  124MOL0     H16721   3.370   8.835   5.711 -0.9842 -0.5818 -2.0944
  124MOL0     H16722   3.659   9.319   6.126  2.4792 -0.8834  2.4371
  124MOL0     H16723   3.586   9.338   6.344 -0.4360 -0.9027  0.9407
  124MOL0     H16724   3.548   9.910   8.097  1.4075 -1.5746  1.7973
  124MOL0     H16725   3.522   9.954   8.330  0.2051 -2.2914  1.3078
  124MOL0     H16726   3.197  10.165   8.630 -0.7134 -1.4609 -1.0633
  124MOL0     H16727   3.164  10.241   8.854 -1.7100 -0.6213  0.0531
  124MOL0     H16728   3.431  10.067   9.152 -0.3183 -0.4480  0.0719
  124MOL0     H16729   3.263  10.043   9.214  0.0831  1.4240  3.1408
  124MOL0     H16730   3.455  10.284   9.226  1.7109 -1.0525  0.7294
  124MOL0     H16731   3.415  10.171   9.353  1.7758 -0.9609 -0.7242
  124MOL0     H16732   3.175  10.247   9.334  1.2655 -0.1995  1.4092
  124MOL0     H16733   3.235  10.391   9.234  1.5750  0.2224 -0.4030
  124MOL0     H16734   3.190  10.476   9.441  0.2512  1.1829 -2.7582
  124MOL0     H16735   3.279  10.338   9.530 -0.7142  0.1746 -0.3279
  124MOL0     H16736   3.569  10.613   9.407 -1.5181  1.4322  0.3149
  124MOL0     H16737   3.374   9.911   9.015  2.0879  0.2531 -0.3050
  124MOL0     H16738   3.503   9.765   8.720  0.3151 -1.1019  0.1252
  124MOL0     H16739   3.471   9.756   8.896 -3.3237 -3.0850  1.8541
  124MOL0     H16740   3.354   9.704   8.770 -0.8795  1.0287  1.1856
  125MOL0     O16741   0.075   6.183   5.803  0.2578 -0.1560  0.4625
  125MOL0     C16742   0.157   6.092   5.802 -0.1996  0.1897 -0.2319
  125MOL0     O16743   0.131   5.962   5.779  0.7305 -0.4580  1.0334
  125MOL0     C16744   0.011   5.910   5.733  0.4360  1.0575 -1.2227
  125MOL0     C16745  -0.011   5.771   5.769  0.3956 -0.9302 -0.2153
  125MOL0     C16746  -0.125   5.700   5.733 -0.1434 -0.1373 -0.4191
  125MOL0     C16747  -0.229   5.757   5.651 -0.8691 -0.3573 -0.0177
  125MOL0     O16748  -0.345   5.698   5.626  0.4701  0.1849 -0.0299
  125MOL0     C16749  -0.316   5.584   5.542 -0.6004 -0.8746  1.7489
  125MOL0     C16750  -0.297   5.612   5.394  0.3053  0.6393 -0.1553
  125MOL0     C16751  -0.244   5.505   5.305 -0.3764 -0.3993 -0.2475
  125MOL0     C16752  -0.222   5.546   5.161  0.8125 -0.1089  0.0763
  125MOL0     C16753  -0.135   5.427   5.090  0.3629  0.6488 -0.9236
  125MOL0     C16754  -0.135   5.439   4.941 -0.0608  0.7696 -0.2135
  125MOL0     C16755  -0.042   5.544   4.901 -1.3454  0.5394 -0.0556
  125MOL0     C16756   0.008   5.528   4.749 -0.4092  0.1736 -0.8101
  125MOL0     N16757   0.109   5.417   4.727 -0.3872  0.0959 -0.0307
  125MOL0     C16758   0.245   5.418   4.752 -0.6458  0.0719 -0.1974
  125MOL0     C16759   0.294   5.314   4.679 -0.3324 -0.1341  0.0470
  125MOL0     C16760   0.435   5.258   4.679 -0.1569 -0.7699 -0.0165
  125MOL0     C16761   0.500   5.235   4.537  0.1526 -0.1234  0.0121
  125MOL0     C16762   0.641   5.286   4.531  0.1647  0.7237  0.5620
  125MOL0     C16763   0.701   5.267   4.394 -0.4643  0.0654 -1.1453
  125MOL0     O16764   0.753   5.387   4.338 -0.1974  0.2994  0.1103
  125MOL0     C16765   0.820   5.380   4.213 -0.0721 -0.0009  0.2029
  125MOL0     C16766   0.795   5.275   4.118  0.1602  1.6343 -0.0729
  125MOL0     C16767   0.860   5.280   3.991 -0.1587  0.0740 -1.3691
  125MOL0     C16768   0.940   5.380   3.947  0.1521 -0.0023 -0.2082
  125MOL0     C16769   1.012   5.374   3.820 -0.6796  0.3945  0.7995
  125MOL0     O16770   0.946   5.313   3.716 -0.3060  0.2630  0.8308
  125MOL0     C16771   1.011   5.257   3.610  0.4616 -0.4524  0.4973
  125MOL0     C16772   0.940   5.224   3.492 -0.8212  0.5133  0.3267
  125MOL0     C16773   0.990   5.165   3.372  0.0885 -0.2925 -0.5067
  125MOL0     C16774   1.125   5.127   3.372  0.0556 -1.4669 -0.5778
  125MOL0     O16775   1.196   5.053   3.275  0.0913  0.4729  0.7428
  125MOL0     C16776   1.118   5.022   3.156 -0.1822 -0.4263 -0.5833
  125MOL0     C16777   1.205   4.949   3.051 -0.3849 -0.0463 -0.5117
  125MOL0     C16778   1.121   4.916   2.924  0.6778 -0.6034  0.0715
  125MOL0     C16779   1.188   4.857   2.802  0.4730  0.1448 -0.7198
  125MOL0     C16780   1.101   4.848   2.673 -0.3884 -0.7200 -0.3957
  125MOL0     C16781   1.186   4.803   2.551  0.2246 -0.0947 -1.0148
  125MOL0     C16782   1.103   4.792   2.422 -0.0085  0.1564  0.0014
  125MOL0     C16783   1.165   4.872   2.304 -1.0808  0.9168  0.0904
  125MOL0    Cl16784   1.331   4.813   2.254  0.2159 -0.4285  0.0669
  125MOL0     C16785   1.201   5.166   3.489  0.4538 -0.5055  0.5216
  125MOL0     C16786   1.147   5.235   3.597  0.7348  0.4992  0.1868
  125MOL0     O16787   1.121   5.418   3.814 -0.1281  0.0082 -0.6217
  125MOL0     C16788   0.968   5.474   4.046 -0.2445  0.3742 -0.0626
  125MOL0     C16789   0.905   5.472   4.169 -0.6705  0.8822  1.3081
  125MOL0     N16790   0.196   5.240   4.618  0.3557 -0.4351 -0.2801
  125MOL0     N16791   0.087   5.302   4.655 -0.0629  0.6748 -0.5405
  125MOL0     C16792  -0.192   5.894   5.609 -0.4327 -0.2051  0.2934
  125MOL0     C16793  -0.078   5.966   5.641  0.8344 -0.4760 -0.4226
  125MOL0     C16794   0.297   6.115   5.821 -0.7946  0.7193  0.8573
  125MOL0     C16795   0.399   6.021   5.789  0.7204  0.4713 -0.1866
  125MOL0     C16796   0.532   6.053   5.803 -0.6324  1.5536  0.2866
  125MOL0     C16797   0.572   6.173   5.857  0.2187 -0.2132  0.4465
  125MOL0     O16798   0.706   6.203   5.851 -0.1373  0.6406 -0.5482
  125MOL0     C16799   0.753   6.331   5.862 -0.9682  0.9132  0.0717
  125MOL0     C16800   0.906   6.325   5.897 -0.7866  0.3146 -0.0182
  125MOL0     C16801   1.000   6.285   5.792  0.5761  0.4482 -0.0748
  125MOL0     C16802   1.141   6.288   5.844 -0.0544 -0.9509  0.0188
  125MOL0     C16803   1.231   6.241   5.749  0.6731  0.1144 -1.1966
  125MOL0     C16804   1.312   6.208   5.668 -0.5765 -0.5746  0.1435
  125MOL0     C16805   0.478   6.269   5.896  0.9736  0.5049  0.6287
  125MOL0     C16806   0.339   6.230   5.888  0.0428  0.0444  0.1983
  125MOL0     C16807   0.244   6.312   5.976  0.1527 -0.2446  0.2816
  125MOL0     H16808   0.070   5.730   5.827  1.1211  0.6881 -0.0207
  125MOL0     H16809  -0.144   5.604   5.779  3.8123 -0.7066  0.4463
  125MOL0     H16810  -0.224   5.538   5.577  0.7432  0.3619 -0.0132
  125MOL0     H16811  -0.401   5.517   5.561 -2.9831  1.5140  0.3445
  125MOL0     H16812  -0.225   5.694   5.383 -1.0799  1.9890  0.5723
  125MOL0     H16813  -0.398   5.639   5.364 -0.8022 -1.7655  1.1685
  125MOL0     H16814  -0.315   5.424   5.321 -0.2555 -0.3368  0.6889
  125MOL0     H16815  -0.147   5.468   5.341 -0.4439 -2.4178 -1.9457
  125MOL0     H16816  -0.319   5.552   5.111  0.8807  3.2054  0.1132
  125MOL0     H16817  -0.182   5.647   5.149 -2.0161  1.0965 -0.0031
  125MOL0     H16818  -0.034   5.419   5.132 -0.1118  0.6257  0.2756
  125MOL0     H16819  -0.183   5.332   5.115  1.1995  0.4871  0.1907
  125MOL0     H16820  -0.092   5.347   4.901  0.5285  0.4071  1.1781
  125MOL0     H16821  -0.234   5.451   4.896  0.0881 -0.7964 -0.9997
  125MOL0     H16822   0.049   5.552   4.960 -1.5263 -0.0063  0.2959
  125MOL0     H16823  -0.096   5.640   4.901 -2.6158 -0.1489 -0.7420
  125MOL0     H16824  -0.082   5.513   4.689 -0.5032  4.2890 -1.9725
  125MOL0     H16825   0.050   5.623   4.716  2.3432 -0.8871 -0.6918
  125MOL0     H16826   0.304   5.498   4.796  2.9920  0.5643 -5.0831
  125MOL0     H16827   0.497   5.321   4.744 -0.5622  0.4546 -0.7765
  125MOL0     H16828   0.439   5.161   4.729  0.8514  0.0804  1.6462
  125MOL0     H16829   0.486   5.128   4.518  1.0861 -0.2328 -0.1118
  125MOL0     H16830   0.451   5.293   4.458  2.4201 -1.4328 -2.5587
  125MOL0     H16831   0.695   5.240   4.615  0.0534 -0.8114 -0.1779
  125MOL0     H16832   0.640   5.395   4.539 -1.9765  0.8841 -0.8962
  125MOL0     H16833   0.628   5.243   4.316  1.2634 -0.6638 -2.6257
  125MOL0     H16834   0.773   5.185   4.389 -2.1808 -1.7741  1.6219
  125MOL0     H16835   0.719   5.202   4.144  2.9336 -1.2363  0.5910
  125MOL0     H16836   0.852   5.196   3.923 -0.6138 -1.8345  0.9061
  125MOL0     H16837   0.835   5.251   3.502 -0.8840 -0.2315  1.8092
  125MOL0     H16838   0.925   5.147   3.287  1.2508 -1.3327 -1.2106
  125MOL0     H16839   1.029   4.961   3.172  1.4269 -3.9937 -3.5440
  125MOL0     H16840   1.075   5.110   3.107  0.5163 -1.2731 -2.8905
  125MOL0     H16841   1.291   5.001   3.009  1.4275 -3.5524 -1.5886
  125MOL0     H16842   1.253   4.858   3.090 -0.9691 -0.9561 -1.8561
  125MOL0     H16843   1.040   4.852   2.959 -1.7789  2.1257 -0.2778
  125MOL0     H16844   1.090   5.015   2.892  0.0649 -0.7360  0.2611
  125MOL0     H16845   1.215   4.753   2.820 -1.7535 -0.9336 -2.9621
  125MOL0     H16846   1.282   4.908   2.781  2.4018 -1.6415  2.7154
  125MOL0     H16847   1.065   4.948   2.647  0.3521 -0.1200  0.7985
  125MOL0     H16848   1.026   4.772   2.694 -1.4089  0.2054 -0.6234
  125MOL0     H16849   1.270   4.873   2.541 -0.2796  1.8968  4.8645
  125MOL0     H16850   1.239   4.708   2.566  2.5891  1.0331 -1.8273
  125MOL0     H16851   0.995   4.806   2.430 -0.7847 -3.5961 -1.6715
  125MOL0     H16852   1.102   4.685   2.400 -3.6608  0.3745 -1.6723
  125MOL0     H16853   1.091   4.869   2.224  0.1285 -0.9628 -1.0362
  125MOL0     H16854   1.176   4.978   2.331  0.3226  0.0481  3.5007
  125MOL0     H16855   1.308   5.153   3.492  0.4990 -1.8433 -2.5770
  125MOL0     H16856   1.202   5.268   3.685 -2.0097 -1.3703  2.7904
  125MOL0     H16857   1.052   5.538   4.022  0.9848 -0.1117  2.5313
  125MOL0     H16858   0.950   5.544   4.237  3.2517 -1.3065  1.2705
  125MOL0     H16859  -0.250   5.957   5.541 -1.7790 -0.1288  1.4634
  125MOL0     H16860  -0.046   6.065   5.610  1.2966 -0.9400 -1.5196
  125MOL0     H16861   0.363   5.934   5.735 -0.8466  1.2515 -0.4446
  125MOL0     H16862   0.610   5.982   5.778 -1.1476  0.3309  2.0117
  125MOL0     H16863   0.717   6.371   5.958  0.4292  0.3898  0.8460
  125MOL0     H16864   0.742   6.395   5.774  1.0684 -3.1469 -3.4661
  125MOL0     H16865   0.915   6.246   5.972  3.9040  2.3108  1.9128
  125MOL0     H16866   0.949   6.417   5.937  1.4948 -0.2554 -0.9879
  125MOL0     H16867   0.994   6.348   5.703 -0.1888  1.3413  0.5918
  125MOL0     H16868   0.970   6.183   5.766  0.1240  0.4322  0.4847
  125MOL0     H16869   1.165   6.395   5.849 -0.3005 -0.9497  2.4212
  125MOL0     H16870   1.158   6.254   5.946 -2.4065  2.4085  1.7623
  125MOL0     H16871   1.383   6.173   5.596 -0.7092  1.1747 -0.8770
  125MOL0     H16872   0.524   6.357   5.941  1.9751  0.8627 -1.0328
  125MOL0     H16873   0.198   6.226   6.026  1.2501 -1.8379 -1.3694
  125MOL0     H16874   0.311   6.372   6.039  3.7478  0.2068 -3.5809
  125MOL0     H16875   0.186   6.389   5.925  2.1268  0.5000 -0.9746
  126MOL0     O16876   2.917   1.145   2.833 -0.6582  0.6588  0.2012
  126MOL0     C16877   2.815   1.182   2.783  0.5935  0.1301 -0.0094
  126MOL0     O16878   2.716   1.243   2.852 -0.1218  0.5403 -0.8650
  126MOL0     C16879   2.735   1.295   2.978  0.2120 -0.0674  0.6293
  126MOL0     C16880   2.650   1.271   3.088  0.2701  0.6339  1.2720
  126MOL0     C16881   2.656   1.351   3.197  1.0970  0.4784  0.2448
  126MOL0     C16882   2.736   1.461   3.203 -0.2595 -0.0487  0.1791
  126MOL0     O16883   2.737   1.535   3.320 -0.5483  0.6915 -0.8804
  126MOL0     C16884   2.777   1.673   3.323  0.9803  0.2194  0.8187
  126MOL0     C16885   2.765   1.733   3.456  0.6186  0.1921 -0.6588
  126MOL0     C16886   2.751   1.889   3.465  0.3850  0.2899  0.0015
  126MOL0     C16887   2.709   1.944   3.600 -0.0831  0.3944  0.3749
  126MOL0     C16888   2.687   2.100   3.597  0.0917  0.6425  0.1612
  126MOL0     C16889   2.712   2.162   3.737 -1.0419  0.1488 -0.3925
  126MOL0     C16890   2.692   2.307   3.744 -0.2360 -0.4228  0.1826
  126MOL0     C16891   2.737   2.366   3.871  0.2990  1.0810  0.2473
  126MOL0     N16892   2.710   2.512   3.876  0.4256  1.4532  0.2012
  126MOL0     C16893   2.772   2.587   3.778  0.0785 -0.2037 -0.3773
  126MOL0     C16894   2.698   2.704   3.783 -0.2714 -0.3891  0.6218
  126MOL0     C16895   2.712   2.827   3.683  0.6937  0.2903 -0.9867
  126MOL0     C16896   2.857   2.852   3.661  0.4778 -0.0594  0.4429
  126MOL0     C16897   2.876   3.004   3.612 -0.6046 -0.7102  0.1211
  126MOL0     C16898   3.003   3.022   3.523  0.1621  0.9496  0.9178
  126MOL0     O16899   2.992   3.147   3.451  0.1841  0.2566 -0.1172
  126MOL0     C16900   3.050   3.248   3.527 -0.0856 -0.4606 -0.1329
  126MOL0     C16901   3.065   3.260   3.665  0.7396 -0.7315  0.3801
  126MOL0     C16902   3.122   3.375   3.722  0.0884 -0.0916  0.0923
  126MOL0     C16903   3.145   3.485   3.644  0.4166  0.3712 -0.6090
  126MOL0     C16904   3.171   3.615   3.714 -0.6465 -0.3858 -0.1890
  126MOL0     O16905   3.203   3.605   3.842 -0.0422  0.5855  0.4551
  126MOL0     C16906   3.215   3.712   3.934  0.1291 -0.1229  0.7149
  126MOL0     C16907   3.316   3.697   4.023  0.1199  1.0843  0.0881
  126MOL0     C16908   3.326   3.789   4.126 -0.3921 -0.9519 -0.4658
  126MOL0     C16909   3.240   3.901   4.129 -1.1927  0.0173 -0.4804
  126MOL0     O16910   3.252   3.988   4.235 -0.2599 -0.2165 -0.0464
  126MOL0     C16911   3.147   3.985   4.330 -0.6593 -0.1525 -0.6793
  126MOL0     C16912   3.190   4.043   4.465 -0.3933 -0.4869 -0.2998
  126MOL0     C16913   3.176   4.195   4.443 -0.9640 -0.8579 -1.0658
  126MOL0     C16914   3.190   4.270   4.574 -0.9900 -0.0838  0.3207
  126MOL0     C16915   3.146   4.412   4.556  0.6975 -0.2954 -0.1570
  126MOL0     C16916   3.141   4.491   4.682  0.0504  0.0490  0.5322
  126MOL0     C16917   3.126   4.642   4.635 -0.3298  0.4401 -0.0110
  126MOL0     C16918   3.110   4.750   4.748 -0.2347  0.0137 -0.8128
  126MOL0    Cl16919   2.974   4.708   4.851 -0.4247 -0.1043  0.2208
  126MOL0     C16920   3.153   3.923   4.028 -0.4991 -0.3626 -0.0796
  126MOL0     C16921   3.135   3.831   3.922 -0.0750  1.2069 -0.5029
  126MOL0     O16922   3.176   3.722   3.656 -0.0871 -0.2996  0.2154
  126MOL0     C16923   3.125   3.478   3.505  0.0987  0.2693 -0.8140
  126MOL0     C16924   3.097   3.353   3.441 -0.1024  0.4948 -0.1642
  126MOL0     N16925   2.598   2.695   3.879 -0.0242 -0.5592  0.6461
  126MOL0     N16926   2.607   2.580   3.932 -0.2864  0.9708 -0.2638
  126MOL0     C16927   2.825   1.490   3.097 -0.6464 -0.2503 -0.2303
  126MOL0     C16928   2.810   1.411   2.988 -0.3054 -0.8323  0.9594
  126MOL0     C16929   2.797   1.205   2.634 -0.1049  0.5535 -0.2490
  126MOL0     C16930   2.694   1.289   2.584 -0.7547  0.1660  0.2764
  126MOL0     C16931   2.681   1.295   2.448  0.4608 -1.5749 -0.1726
  126MOL0     C16932   2.759   1.231   2.351  0.6798  0.1448  0.9257
  126MOL0     O16933   2.737   1.239   2.219 -0.1982  0.0415 -0.7793
  126MOL0     C16934   2.681   1.122   2.154 -0.0276  0.5470  0.5374
  126MOL0     C16935   2.742   1.083   2.018  0.2938 -0.7196  0.7642
  126MOL0     C16936   2.891   1.039   2.030 -0.9799 -0.7085  0.1459
  126MOL0     C16937   2.951   0.941   1.926  0.3833 -1.0212 -0.1451
  126MOL0     C16938   2.934   1.010   1.792 -0.3627  0.1674 -0.9304
  126MOL0     C16939   2.900   1.032   1.680  0.4694  0.5887 -0.2972
  126MOL0     C16940   2.867   1.160   2.396  0.6847 -0.4986  0.4408
  126MOL0     C16941   2.882   1.143   2.540 -0.0192 -0.3959  0.5287
  126MOL0     C16942   2.987   1.049   2.587 -0.7046  0.0326 -0.2730
  126MOL0     H16943   2.574   1.195   3.069  1.3683 -0.1435 -0.2218
  126MOL0     H16944   2.597   1.320   3.282  1.9427 -2.0557 -0.0033
  126MOL0     H16945   2.875   1.687   3.278  0.3360  0.1739 -0.6402
  126MOL0     H16946   2.707   1.724   3.256 -0.3050 -2.2534  0.1313
  126MOL0     H16947   2.844   1.691   3.519  0.1132 -2.6190 -1.7818
  126MOL0     H16948   2.670   1.703   3.502  1.4158 -0.8023  0.3868
  126MOL0     H16949   2.664   1.918   3.405  1.0940 -0.1829 -1.3072
  126MOL0     H16950   2.844   1.934   3.427  1.2666 -0.4649  1.1765
  126MOL0     H16951   2.610   1.907   3.627 -0.0588  0.8919  1.1881
  126MOL0     H16952   2.773   1.910   3.682  1.8204 -0.8606 -1.4925
  126MOL0     H16953   2.764   2.142   3.532 -1.7661  2.8497 -0.7460
  126MOL0     H16954   2.585   2.131   3.575 -0.1709  1.0011  1.7954
  126MOL0     H16955   2.631   2.121   3.799 -0.6241  2.2260  1.6470
  126MOL0     H16956   2.810   2.129   3.773 -1.9270 -1.8041  0.4051
  126MOL0     H16957   2.587   2.332   3.725 -1.2020 -1.7453  3.1309
  126MOL0     H16958   2.744   2.351   3.659 -0.4029 -1.5436 -0.5091
  126MOL0     H16959   2.693   2.298   3.944  1.4398 -2.2063 -1.9320
  126MOL0     H16960   2.845   2.351   3.881  0.6254  1.9328 -1.5069
  126MOL0     H16961   2.842   2.559   3.701  1.3665  1.3904  0.1616
  126MOL0     H16962   2.654   2.799   3.594  0.0846  0.7111 -0.7273
  126MOL0     H16963   2.662   2.912   3.728  0.3776  0.3028 -1.3523
  126MOL0     H16964   2.922   2.844   3.749  2.8794 -0.9923 -1.3161
  126MOL0     H16965   2.901   2.781   3.590 -0.0438 -0.5960  0.6467
  126MOL0     H16966   2.878   3.068   3.701  0.3776 -0.1872 -0.2621
  126MOL0     H16967   2.791   3.038   3.552 -0.1736  0.7469  0.2886
  126MOL0     H16968   3.000   2.949   3.442  1.8303  4.6802 -2.9527
  126MOL0     H16969   3.103   3.019   3.567  0.4692 -2.5586  0.2604
  126MOL0     H16970   3.042   3.185   3.739  4.2871 -1.5395  0.8337
  126MOL0     H16971   3.134   3.372   3.830 -3.1185 -3.1258  0.5501
  126MOL0     H16972   3.373   3.605   4.031 -2.5743 -0.5636  1.7979
  126MOL0     H16973   3.414   3.786   4.190 -1.0639  1.3501  0.6744
  126MOL0     H16974   3.061   4.035   4.284 -0.4772 -0.4099 -1.3153
  126MOL0     H16975   3.121   3.879   4.343 -1.4574  0.2902  1.7014
  126MOL0     H16976   3.120   4.014   4.544 -0.2055  1.3767  0.5937
  126MOL0     H16977   3.287   4.010   4.503 -0.1807 -0.5836 -0.9076
  126MOL0     H16978   3.249   4.210   4.362  3.8724 -2.7571  2.4915
  126MOL0     H16979   3.080   4.227   4.402 -2.4616  1.4164  3.5617
  126MOL0     H16980   3.289   4.262   4.620 -1.6512  1.8362  2.2054
  126MOL0     H16981   3.124   4.218   4.643 -1.5405  2.5277  1.9248
  126MOL0     H16982   3.041   4.417   4.525  0.8562  0.8045 -0.5574
  126MOL0     H16983   3.206   4.469   4.484 -1.3664  2.9386  0.4660
  126MOL0     H16984   3.056   4.448   4.738 -0.2643  1.2224  0.9808
  126MOL0     H16985   3.219   4.478   4.757 -0.9957  2.1743  2.1119
  126MOL0     H16986   3.042   4.657   4.567 -0.4516  0.2552  0.0967
  126MOL0     H16987   3.218   4.673   4.586 -0.3395  0.9258  0.2708
  126MOL0     H16988   3.202   4.766   4.804 -1.0333 -2.5621  1.4651
  126MOL0     H16989   3.073   4.843   4.704 -1.0363 -0.6939 -1.6806
  126MOL0     H16990   3.103   4.019   4.025  0.1921  0.1163  2.3123
  126MOL0     H16991   3.074   3.862   3.838 -2.5746 -2.3308 -0.2170
  126MOL0     H16992   3.137   3.572   3.453  1.4628  0.7161  0.2499
  126MOL0     H16993   3.093   3.359   3.332  3.5157 -1.0072 -0.5109
  126MOL0     H16994   2.906   1.560   3.114  0.5256 -1.6361 -0.0056
  126MOL0     H16995   2.874   1.428   2.902 -1.1636 -0.7155  0.3304
  126MOL0     H16996   2.615   1.328   2.646 -1.4351  2.3712 -1.8379
  126MOL0     H16997   2.590   1.335   2.404 -0.7815 -2.2048  1.7047
  126MOL0     H16998   2.573   1.136   2.144  0.2050  2.5111  0.3500
  126MOL0     H16999   2.693   1.029   2.210 -1.6587 -0.6191 -0.9614
  126MOL0     H17000   2.750   1.165   1.945 -0.9663  1.8484  3.3053
  126MOL0     H17001   2.680   1.009   1.966  2.8212 -1.9351 -0.6765
  126MOL0     H17002   2.906   0.989   2.126  2.1027  2.3860  1.4853
  126MOL0     H17003   2.954   1.128   2.034  0.0426 -1.2989 -1.5975
  126MOL0     H17004   3.057   0.931   1.953  1.8330  3.5884 -2.8899
  126MOL0     H17005   2.899   0.846   1.935  1.2738 -1.3272  2.5839
  126MOL0     H17006   2.897   1.025   1.573  2.1242 -0.3499 -0.3221
  126MOL0     H17007   2.941   1.115   2.330  1.3993 -0.7096  1.3630
  126MOL0     H17008   2.945   0.980   2.660 -0.0216  0.5934  0.6618
  126MOL0     H17009   3.030   0.982   2.512 -4.0875  1.1474 -3.5710
  126MOL0     H17010   3.079   1.098   2.619 -0.0317 -0.2561 -1.7069
  127MOL0     O17011   8.899   5.517   1.166 -0.7752 -0.8512 -0.4334
  127MOL0     C17012   8.863   5.427   1.095  0.9403  1.3212  0.5038
  127MOL0     O17013   8.953   5.342   1.029  0.2460  0.2222 -0.1601
  127MOL0     C17014   9.091   5.369   1.038  0.2756  0.0251 -0.2203
  127MOL0     C17015   9.172   5.259   1.060  0.5118  0.2424  0.0836
  127MOL0     C17016   9.314   5.269   1.032  0.4274  1.3540  0.1988
  127MOL0     C17017   9.374   5.391   0.981  0.6188  1.4238 -1.4945
  127MOL0     O17018   9.511   5.402   0.954  0.0065  0.1357  0.5179
  127MOL0     C17019   9.574   5.472   1.064 -0.6128 -0.0443  0.2599
  127MOL0     C17020   9.641   5.378   1.159  0.3884  0.4888  0.0309
  127MOL0     C17021   9.749   5.434   1.246  0.7881 -0.0736 -0.1492
  127MOL0     C17022   9.687   5.545   1.334 -0.1986  0.1503  0.1170
  127MOL0     C17023   9.766   5.583   1.462  0.2273  0.4471  0.0249
  127MOL0     C17024   9.683   5.684   1.537 -0.0732  0.9080 -0.2985
  127MOL0     C17025   9.765   5.736   1.654  0.7480  0.0361  0.3046
  127MOL0     C17026   9.780   5.633   1.763  0.0196 -0.2295  0.0166
  127MOL0     N17027   9.652   5.590   1.823 -0.3092 -0.0809 -0.6276
  127MOL0     C17028   9.580   5.487   1.780  0.0082 -0.3285 -0.2644
  127MOL0     C17029   9.485   5.474   1.873  0.7079  0.5340 -0.6131
  127MOL0     C17030   9.379   5.362   1.874  0.0150 -0.2186 -0.7286
  127MOL0     C17031   9.418   5.236   1.953 -0.3307  0.4982 -0.1915
  127MOL0     C17032   9.338   5.121   1.920  0.2407  1.1256  0.3370
  127MOL0     C17033   9.187   5.136   1.922  0.0401  0.1128 -0.8923
  127MOL0     O17034   9.131   5.007   1.901  0.4329  0.3889 -0.3968
  127MOL0     C17035   9.128   4.911   1.995 -0.6544  0.7836 -1.1561
  127MOL0     C17036   9.177   4.928   2.120 -1.3101 -0.0157 -0.1606
  127MOL0     C17037   9.158   4.829   2.224 -0.6629 -0.8505  0.3308
  127MOL0     C17038   9.106   4.698   2.194 -0.0776 -0.8666  0.1042
  127MOL0     C17039   9.095   4.591   2.290  0.9648 -0.2811  0.2238
  127MOL0     O17040   9.045   4.475   2.237 -0.0596  0.5980 -0.1558
  127MOL0     C17041   9.038   4.360   2.305 -0.0984  0.1092 -0.0857
  127MOL0     C17042   8.917   4.295   2.317 -0.2694 -0.3587  0.1642
  127MOL0     C17043   8.912   4.173   2.392 -0.5399  0.2003  0.4616
  127MOL0     C17044   9.032   4.111   2.433 -0.4946  2.0438  0.3123
  127MOL0     O17045   9.013   3.984   2.481  0.3634 -0.5500 -0.3934
  127MOL0     C17046   9.094   3.952   2.589  0.4910  0.4518  0.0605
  127MOL0     C17047   9.106   3.809   2.619  0.5841  0.7005 -0.8907
  127MOL0     C17048   8.973   3.727   2.616 -0.3495  0.1062 -0.8324
  127MOL0     C17049   9.002   3.577   2.626  0.2541 -0.9382  0.7825
  127MOL0     C17050   8.871   3.502   2.637 -0.0521  0.2254  0.3979
  127MOL0     C17051   8.885   3.346   2.635 -0.7838 -0.4385  0.1294
  127MOL0     C17052   8.994   3.290   2.721 -0.9204  0.8764  0.3778
  127MOL0     C17053   8.973   3.152   2.784 -0.2104  0.0523  0.7680
  127MOL0    Cl17054   8.925   3.030   2.663  0.1495 -0.7582 -0.0774
  127MOL0     C17055   9.150   4.195   2.433 -0.0187 -0.0451 -0.7545
  127MOL0     C17056   9.152   4.319   2.366  0.3329  0.1606  0.4829
  127MOL0     O17057   9.136   4.606   2.408 -0.1666  0.7455  0.5255
  127MOL0     C17058   9.076   4.668   2.061  0.1968 -0.5463 -0.0814
  127MOL0     C17059   9.081   4.776   1.963  0.6854 -0.0452  0.2553
  127MOL0     N17060   9.505   5.572   1.973 -0.4178  1.2340 -0.4684
  127MOL0     N17061   9.617   5.636   1.945  0.2238 -0.4007  0.6729
  127MOL0     C17062   9.288   5.496   0.966  0.0953 -0.7118 -0.2924
  127MOL0     C17063   9.151   5.486   0.993  0.4412 -0.0008 -0.6655
  127MOL0     C17064   8.714   5.387   1.077 -0.3755 -0.8112 -0.2767
  127MOL0     C17065   8.631   5.498   1.103  0.0095  0.0685 -0.7970
  127MOL0     C17066   8.493   5.482   1.085  0.6851 -0.1937 -0.3154
  127MOL0     C17067   8.442   5.355   1.060 -0.8597 -0.4675  0.0366
  127MOL0     O17068   8.308   5.336   1.038 -1.1840  0.1212 -0.1618
  127MOL0     C17069   8.221   5.417   1.107 -0.0381 -0.0220  0.3307
  127MOL0     C17070   8.081   5.353   1.104  0.1200 -0.1186 -0.2207
  127MOL0     C17071   8.114   5.219   1.168 -0.4553  0.0540 -0.0545
  127MOL0     C17072   8.003   5.121   1.202 -0.6248  0.1207 -0.2038
  127MOL0     C17073   7.952   5.035   1.092  0.0586  0.4416 -0.0748
  127MOL0     C17074   7.920   4.962   0.998  0.2019  0.5905  0.4400
  127MOL0     C17075   8.518   5.246   1.029  0.7454  0.0867  0.1382
  127MOL0     C17076   8.657   5.267   1.027 -0.5517  0.1101 -0.5503
  127MOL0     C17077   8.738   5.169   0.949 -0.3450  0.0809  0.1831
  127MOL0     H17078   9.124   5.170   1.099 -1.9193 -0.7909 -4.4561
  127MOL0     H17079   9.390   5.194   1.049 -1.5741 -0.8368  0.0515
  127MOL0     H17080   9.643   5.546   1.021 -1.5684  0.4711 -0.4198
  127MOL0     H17081   9.503   5.537   1.115  0.7959  0.3132  1.8721
  127MOL0     H17082   9.680   5.299   1.094  1.4725  0.7794  0.2983
  127MOL0     H17083   9.559   5.342   1.221 -1.6752  3.6273 -0.6580
  127MOL0     H17084   9.832   5.487   1.199 -1.0365  2.6312 -0.5280
  127MOL0     H17085   9.797   5.358   1.310  3.4591  2.1529  0.6817
  127MOL0     H17086   9.691   5.641   1.282  1.1707  1.4739  2.5258
  127MOL0     H17087   9.584   5.515   1.357 -0.5922 -0.7262 -2.3956
  127MOL0     H17088   9.777   5.495   1.526 -3.1918 -0.4639 -0.4587
  127MOL0     H17089   9.866   5.617   1.433  1.8119 -0.4571  3.8621
  127MOL0     H17090   9.640   5.760   1.472 -0.3358  1.2910  0.3148
  127MOL0     H17091   9.599   5.623   1.570  0.5022 -1.3679 -2.6852
  127MOL0     H17092   9.718   5.825   1.696  0.5870 -0.2892  0.8236
  127MOL0     H17093   9.865   5.753   1.613 -0.8035 -1.5018 -5.0009
  127MOL0     H17094   9.838   5.554   1.714  0.9643 -0.2746  1.1557
  127MOL0     H17095   9.841   5.688   1.835  0.1425  1.6983 -1.4688
  127MOL0     H17096   9.600   5.426   1.692 -0.4199 -0.9791  0.0878
  127MOL0     H17097   9.281   5.399   1.907 -2.4440 -1.6898 -5.4531
  127MOL0     H17098   9.350   5.352   1.769 -3.1768 -0.0835  0.0127
  127MOL0     H17099   9.524   5.218   1.929  0.0968  0.1627  1.7468
  127MOL0     H17100   9.403   5.257   2.060  0.8112 -0.2750  0.1498
  127MOL0     H17101   9.375   5.044   1.989  2.3143  5.1196  4.2265
  127MOL0     H17102   9.353   5.077   1.821  0.6925  3.1591 -0.5539
  127MOL0     H17103   9.164   5.205   1.841 -0.3341  3.1149  1.5931
  127MOL0     H17104   9.140   5.186   2.007 -0.8359 -0.1633 -1.2049
  127MOL0     H17105   9.228   5.016   2.157  0.3145 -1.7168  1.9273
  127MOL0     H17106   9.191   4.849   2.326  0.2289  0.1918 -0.1513
  127MOL0     H17107   8.828   4.333   2.268 -1.4345 -1.2503  1.5189
  127MOL0     H17108   8.817   4.123   2.408 -0.1578 -1.2762 -1.5283
  127MOL0     H17109   9.199   3.982   2.578 -0.5446  4.8954  0.4473
  127MOL0     H17110   9.051   4.014   2.668 -0.6265 -0.3492  0.0998
  127MOL0     H17111   9.162   3.771   2.534 -0.3513  0.1468 -1.2722
  127MOL0     H17112   9.144   3.784   2.719 -2.9482 -1.8906  0.0051
  127MOL0     H17113   8.909   3.754   2.700 -1.2776 -1.2965 -1.0374
  127MOL0     H17114   8.919   3.750   2.523 -0.0282  0.6992 -0.8761
  127MOL0     H17115   9.062   3.568   2.717 -1.5139 -2.4163  1.8940
  127MOL0     H17116   9.047   3.543   2.532 -1.5775 -2.0337  0.2383
  127MOL0     H17117   8.808   3.509   2.548 -0.1283 -1.3314  0.2950
  127MOL0     H17118   8.821   3.538   2.728  0.6748 -0.4593  1.0825
  127MOL0     H17119   8.793   3.299   2.671 -0.3925 -0.7672  0.7186
  127MOL0     H17120   8.907   3.304   2.537  3.8408  0.7913  0.3948
  127MOL0     H17121   9.024   3.364   2.795 -0.6467  1.0407  0.1059
  127MOL0     H17122   9.073   3.281   2.646 -1.6124 -1.1089 -0.1752
  127MOL0     H17123   9.065   3.123   2.836 -0.1612 -0.8385  0.2134
  127MOL0     H17124   8.902   3.158   2.867  0.8324 -2.9327  2.0227
  127MOL0     H17125   9.251   4.155   2.441  0.2278  0.9333  2.9775
  127MOL0     H17126   9.249   4.361   2.342  1.8491 -2.6202  1.2533
  127MOL0     H17127   9.051   4.569   2.027 -1.1683 -0.3039  0.1807
  127MOL0     H17128   9.037   4.755   1.866  1.6616 -0.2036 -0.1608
  127MOL0     H17129   9.326   5.592   0.931 -2.4319  0.6540  0.4078
  127MOL0     H17130   9.091   5.570   0.958  2.3167  0.3577 -3.4156
  127MOL0     H17131   8.667   5.599   1.125 -0.2997 -0.1391  0.7918
  127MOL0     H17132   8.425   5.566   1.091 -0.3880 -0.9399 -1.4353
  127MOL0     H17133   8.209   5.518   1.066 -0.0441  0.1025  0.6370
  127MOL0     H17134   8.256   5.430   1.210  0.6546  1.8250 -0.1041
  127MOL0     H17135   8.038   5.346   1.004  2.4319 -4.3092 -1.1655
  127MOL0     H17136   8.010   5.414   1.160 -0.2286  0.4544 -1.2440
  127MOL0     H17137   8.152   5.249   1.266 -0.0115  1.0969 -0.5316
  127MOL0     H17138   8.180   5.161   1.103  0.4934  2.0217 -0.9142
  127MOL0     H17139   8.044   5.048   1.273 -1.3973 -0.2678 -0.1532
  127MOL0     H17140   7.920   5.179   1.243 -0.1020  1.7469 -1.3288
  127MOL0     H17141   7.894   4.897   0.916 -1.3229  0.6830  0.8206
  127MOL0     H17142   8.469   5.156   0.994 -0.0658  0.6332 -0.1718
  127MOL0     H17143   8.670   5.118   0.881 -0.7261  2.5490 -1.4528
  127MOL0     H17144   8.822   5.210   0.892  0.8226 -0.2268  1.6019
  127MOL0     H17145   8.788   5.099   1.017  1.3453  1.0958  0.0639
  128MOL0     O17146   7.686  10.749   8.552  0.5427 -0.6741 -0.5461
  128MOL0     C17147   7.637  10.679   8.468  0.4834 -0.2432 -0.2811
  128MOL0     O17148   7.613  10.548   8.482  0.2008  0.2884  0.8885
  128MOL0     C17149   7.679  10.489   8.589  0.5950  0.1788 -0.2017
  128MOL0     C17150   7.604  10.464   8.714 -0.8102 -0.1536 -0.5404
  128MOL0     C17151   7.665  10.394   8.814  0.2344 -1.1485  0.0038
  128MOL0     C17152   7.796  10.339   8.802  0.3259 -0.4376  0.3055
  128MOL0     O17153   7.842  10.251   8.894 -0.0633 -0.0265  0.0088
  128MOL0     C17154   7.960  10.300   8.948  0.1378  0.7085  0.7585
  128MOL0     C17155   7.994  10.231   9.083 -0.1672  0.2451 -1.0414
  128MOL0     C17156   8.052  10.332   9.180  0.1749  0.1528  0.4726
  128MOL0     C17157   8.038  10.294   9.327  0.3584  1.0321  0.1106
  128MOL0     C17158   8.155  10.340   9.417  0.0027  0.1830  0.4843
  128MOL0     C17159   8.149  10.477   9.466 -0.4408  0.0207 -0.1843
  128MOL0     C17160   8.024  10.540   9.519  0.3297  0.7302 -0.4122
  128MOL0     C17161   7.989  10.473   9.655 -0.1406 -0.0795  0.1625
  128MOL0     N17162   7.861  10.514   9.714 -0.0281 -0.1689  0.5371
  128MOL0     C17163   7.757  10.434   9.720 -0.1745  0.8922 -0.6872
  128MOL0     C17164   7.657  10.499   9.775  0.6178 -0.2338 -0.6263
  128MOL0     C17165   7.524  10.445   9.794  0.3370  0.3062 -0.1739
  128MOL0     C17166   7.426  10.461   9.676 -0.4458 -0.7422  0.6014
  128MOL0     C17167   7.447  10.593   9.589  0.5216 -0.1924  0.1545
  128MOL0     C17168   7.352  10.603   9.469 -0.5248  0.6835  0.0254
  128MOL0     O17169   7.221  10.609   9.519 -0.0369  0.5949  0.1575
  128MOL0     C17170   7.124  10.566   9.429 -0.1622  0.6432 -0.1635
  128MOL0     C17171   7.130  10.564   9.285  0.6482  0.6076 -0.1478
  128MOL0     C17172   7.011  10.536   9.211  1.1781  0.0692 -0.9285
  128MOL0     C17173   6.887  10.513   9.269 -0.4814 -0.0544  0.6792
  128MOL0     C17174   6.761  10.521   9.194  0.2587  0.2022  0.3829
  128MOL0     O17175   6.655  10.502   9.274  0.1729  0.4164 -0.1891
  128MOL0     C17176   6.538  10.516   9.205 -0.1351 -0.7467 -1.2992
  128MOL0     C17177   6.463  10.631   9.234  0.0812 -0.3840  0.4032
  128MOL0     C17178   6.335  10.646   9.180  0.6688 -0.0497  0.2122
  128MOL0     C17179   6.286  10.552   9.093 -0.0338  0.1301  0.1464
  128MOL0     O17180   6.173  10.590   9.034  0.5062 -0.6342  0.1337
  128MOL0     C17181   6.139  10.534   8.906  0.0747  0.2431  1.0461
  128MOL0     C17182   6.011  10.589   8.844 -0.0620  0.1855  0.3122
  128MOL0     C17183   6.027  10.748   8.811  0.6976  0.0718  0.2335
  128MOL0     C17184   5.911  10.795   8.718  0.4908 -1.2268  0.2712
  128MOL0     C17185   5.907  10.947   8.680 -0.2690  0.3588  0.1104
  128MOL0     C17186   5.789  10.966   8.581  0.7908 -0.1151 -0.5569
  128MOL0     C17187   5.826  10.923   8.443 -0.6318  0.6141  0.1883
  128MOL0     C17188   5.924  11.033   8.389  0.4701  0.0865  0.7155
  128MOL0    Cl17189   6.086  10.962   8.352  0.3164  0.0807  0.1422
  128MOL0     C17190   6.366  10.440   9.059  0.0919  0.0327 -0.2881
  128MOL0     C17191   6.489  10.418   9.114  0.3432 -1.1009  1.3364
  128MOL0     O17192   6.758  10.572   9.080  0.4355  0.5540  0.0320
  128MOL0     C17193   6.885  10.514   9.407 -0.3706 -0.2332 -0.6376
  128MOL0     C17194   6.997  10.531   9.487 -0.3392 -0.0949  0.8054
  128MOL0     N17195   7.713  10.622   9.819 -0.2182  0.0894  0.6264
  128MOL0     N17196   7.838  10.630   9.781 -0.5201  0.1566 -0.2106
  128MOL0     C17197   7.863  10.358   8.685  0.0392 -0.5245  0.3261
  128MOL0     C17198   7.806  10.436   8.578 -0.9835 -0.3913 -0.7970
  128MOL0     C17199   7.589  10.743   8.352  0.5448 -0.4599 -0.5338
  128MOL0     C17200   7.523  10.864   8.367 -0.2094  0.0122  0.6519
  128MOL0     C17201   7.453  10.920   8.252  0.2286  0.1658 -0.0022
  128MOL0     C17202   7.453  10.861   8.128 -0.1520 -0.1207  0.4660
  128MOL0     O17203   7.378  10.916   8.022  0.3514  0.1000  0.0080
  128MOL0     C17204   7.416  11.051   7.977  0.0139 -0.8318 -0.5718
  128MOL0     C17205   7.362  11.081   7.840  0.4602 -0.3174 -0.2366
  128MOL0     C17206   7.208  11.074   7.822 -1.0478  0.4604 -0.2049
  128MOL0     C17207   7.150  11.207   7.870 -0.5096  0.3228  0.1288
  128MOL0     C17208   7.009  11.198   7.845 -0.1887 -0.0416  0.5541
  128MOL0     C17209   6.889  11.212   7.838  0.2202  0.5845  0.1020
  128MOL0     C17210   7.513  10.737   8.109 -0.4240  1.0044  0.4321
  128MOL0     C17211   7.569  10.677   8.222  0.8855 -0.9174  0.3727
  128MOL0     C17212   7.617  10.534   8.185  1.2139  0.0292 -0.4112
  128MOL0     H17213   7.498  10.482   8.706 -0.5690  1.4282 -0.4392
  128MOL0     H17214   7.610  10.379   8.906 -1.7288  4.1313  0.0242
  128MOL0     H17215   8.044  10.297   8.878  0.4424  1.4403  1.0698
  128MOL0     H17216   7.947  10.406   8.973 -3.9109 -0.1127  3.0840
  128MOL0     H17217   8.066  10.150   9.071 -0.6216 -0.1454 -1.1505
  128MOL0     H17218   7.896  10.201   9.123 -0.2931 -2.1324 -2.8842
  128MOL0     H17219   8.011  10.433   9.171 -0.2359  0.2233  2.6514
  128MOL0     H17220   8.158  10.347   9.159 -0.1825  0.6557 -1.1153
  128MOL0     H17221   7.940  10.326   9.366 -0.6192 -1.5647 -0.0328
  128MOL0     H17222   8.030  10.185   9.329 -1.0641  1.1078 -0.2898
  128MOL0     H17223   8.145  10.277   9.506 -2.8399  0.0728  0.2002
  128MOL0     H17224   8.253  10.321   9.373  0.6413 -0.9495  2.2563
  128MOL0     H17225   8.234  10.487   9.533 -0.2335 -0.6262 -0.3475
  128MOL0     H17226   8.176  10.532   9.375  0.4954 -0.2880 -0.0975
  128MOL0     H17227   7.937  10.515   9.458 -0.8326 -1.7734  1.9897
  128MOL0     H17228   8.024  10.649   9.523 -1.6148  0.7782  3.5726
  128MOL0     H17229   7.984  10.364   9.653 -4.1389 -0.0263 -1.7231
  128MOL0     H17230   8.069  10.512   9.719 -1.1740  2.3088  0.0942
  128MOL0     H17231   7.736  10.338   9.674  0.2899  1.5716 -2.3994
  128MOL0     H17232   7.546  10.337   9.793  2.4447  0.6910  0.2014
  128MOL0     H17233   7.490  10.480   9.892  0.0941  0.4329 -0.3032
  128MOL0     H17234   7.433  10.370   9.614  2.5873 -1.7665  2.2074
  128MOL0     H17235   7.329  10.466   9.725 -0.7974 -1.5247  0.0105
  128MOL0     H17236   7.546  10.582   9.545  0.8758  3.7599 -0.3617
  128MOL0     H17237   7.417  10.679   9.649  0.7829 -0.0337  0.0547
  128MOL0     H17238   7.366  10.518   9.401 -1.3189  0.1979  0.4392
  128MOL0     H17239   7.381  10.698   9.424 -2.7260  0.4178 -2.1728
  128MOL0     H17240   7.213  10.611   9.233 -0.4253  1.6713 -0.9316
  128MOL0     H17241   7.013  10.522   9.103  1.4645 -1.8269 -0.7196
  128MOL0     H17242   6.515  10.698   9.302 -1.4118 -0.4871  1.6951
  128MOL0     H17243   6.285  10.735   9.216  2.1496  1.1714 -0.6818
  128MOL0     H17244   6.216  10.565   8.836  0.8523  0.1315  1.8297
  128MOL0     H17245   6.133  10.425   8.909  1.2575 -0.0046 -2.1204
  128MOL0     H17246   5.994  10.532   8.752  0.9713 -1.6998  1.2401
  128MOL0     H17247   5.936  10.572   8.922  0.7142  3.4029  1.9383
  128MOL0     H17248   6.024  10.802   8.906 -0.5489  0.6133 -0.0917
  128MOL0     H17249   6.120  10.761   8.756  0.7252  0.2809  0.3315
  128MOL0     H17250   5.816  10.771   8.767  0.4913  2.1597  2.2927
  128MOL0     H17251   5.906  10.745   8.621 -0.1338  2.3429 -1.7107
  128MOL0     H17252   6.001  10.968   8.628 -2.1372 -0.7735 -4.0991
  128MOL0     H17253   5.887  10.996   8.776 -4.0692 -2.0826  0.7592
  128MOL0     H17254   5.709  10.902   8.620  1.1228 -2.9180 -3.9481
  128MOL0     H17255   5.741  11.064   8.589 -1.4686 -1.1446 -0.5514
  128MOL0     H17256   5.730  10.920   8.390 -0.8012 -0.2247  0.5335
  128MOL0     H17257   5.873  10.824   8.438 -0.2282  0.7610  0.9458
  128MOL0     H17258   5.876  11.075   8.300  0.2116  1.6378  1.5592
  128MOL0     H17259   5.916  11.117   8.457 -0.6234 -1.5903  2.7784
  128MOL0     H17260   6.330  10.362   8.993  1.7707 -1.1276  0.0814
  128MOL0     H17261   6.543  10.330   9.080  1.6273  1.1261 -3.0966
  128MOL0     H17262   6.793  10.498   9.463 -0.3732 -0.7187 -0.7812
  128MOL0     H17263   6.977  10.545   9.593  1.0588 -0.0063  1.0795
  128MOL0     H17264   7.933  10.280   8.655  0.2733 -0.9451  1.8623
  128MOL0     H17265   7.858  10.446   8.484  0.4778  1.3427  0.1412
  128MOL0     H17266   7.520  10.904   8.468 -2.4352 -1.2714  1.1550
  128MOL0     H17267   7.410  11.019   8.265 -0.9069 -0.3271  0.1232
  128MOL0     H17268   7.525  11.054   7.985 -0.1337 -0.2611  2.9695
  128MOL0     H17269   7.378  11.131   8.041 -1.9201 -2.8918  1.0268
  128MOL0     H17270   7.408  11.007   7.774  1.2603  0.2023 -0.2647
  128MOL0     H17271   7.382  11.186   7.819  0.8837  0.5233  3.5441
  128MOL0     H17272   7.163  10.990   7.877  2.1915 -0.5078  1.2227
  128MOL0     H17273   7.190  11.065   7.715 -1.1008 -1.5268 -0.0756
  128MOL0     H17274   7.171  11.214   7.977 -1.9021 -0.1187  0.4527
  128MOL0     H17275   7.195  11.290   7.814  1.1489  0.0893  1.0662
  128MOL0     H17276   6.790  11.251   7.821  1.1275  3.2699  0.4543
  128MOL0     H17277   7.508  10.687   8.013 -1.8994  0.5998  0.6950
  128MOL0     H17278   7.654  10.529   8.082  4.2871 -1.2219  0.6340
  128MOL0     H17279   7.702  10.519   8.253 -1.7912 -1.4431  3.4320
  128MOL0     H17280   7.547  10.452   8.201  1.3420 -0.5512 -2.5234
  129MOL0     O17281  10.459   8.944  10.795  0.1798  0.1262 -0.7987
  129MOL0     C17282  10.462   8.900  10.685  1.1714  0.7474 -0.1500
  129MOL0     O17283  10.421   8.773  10.656 -0.7055 -0.0708 -0.7995
  129MOL0     C17284  10.343   8.695  10.737  0.6759  0.0248 -0.1114
  129MOL0     C17285  10.363   8.564  10.710  0.1509  0.2570  0.0820
  129MOL0     C17286  10.308   8.457  10.784  0.4416 -0.1343  0.2539
  129MOL0     C17287  10.221   8.486  10.885  0.1941  0.2894 -0.6094
  129MOL0     O17288  10.165   8.388  10.972  0.0733  0.3664  0.0985
  129MOL0     C17289  10.259   8.288  11.020  0.5278 -0.2073 -0.4027
  129MOL0     C17290  10.276   8.312  11.172 -0.0234  0.6038  0.2554
  129MOL0     C17291  10.332   8.183  11.214 -0.3648  0.5443  0.0343
  129MOL0     C17292  10.364   8.195  11.366  0.4229  0.4958  0.9575
  129MOL0     C17293  10.374   8.055  11.422  0.6043 -0.4067  0.6101
  129MOL0     C17294  10.494   7.974  11.357  0.5645  0.1056  0.2521
  129MOL0     C17295  10.627   8.041  11.363 -0.1958  0.2010 -0.3969
  129MOL0     C17296  10.722   7.925  11.380  0.3769  0.5938 -0.0092
  129MOL0     N17297  10.749   7.903  11.523  0.5412  0.3517 -0.5211
  129MOL0     C17298  10.656   7.863  11.614  0.6779 -0.6354  0.2176
  129MOL0     C17299  10.726   7.854  11.734 -0.0008 -1.1943  0.5481
  129MOL0     C17300  10.667   7.821  11.861  1.1740 -0.7906 -0.3672
  129MOL0     C17301  10.659   7.942  11.958 -0.6922 -0.5565  0.3347
  129MOL0     C17302  10.551   8.050  11.927  1.1127  0.4613  0.7143
  129MOL0     C17303  10.612   8.194  11.924 -1.3300 -0.2659 -0.3873
  129MOL0     O17304  10.726   8.210  11.833  0.4142 -0.9506 -0.0020
  129MOL0     C17305  10.706   8.272  11.716 -0.3040 -0.7734  0.8142
  129MOL0     C17306  10.815   8.302  11.630 -0.0742  0.8189 -1.2441
  129MOL0     C17307  10.813   8.348  11.503 -0.2471 -0.3965  0.3230
  129MOL0     C17308  10.691   8.410  11.461  0.5174 -0.4141 -0.5937
  129MOL0     C17309  10.684   8.454  11.330  0.6657  0.0161 -0.3769
  129MOL0     O17310  10.783   8.414  11.235  0.3870 -1.4717  0.0759
  129MOL0     C17311  10.790   8.462  11.102 -0.0488 -0.1407 -0.2074
  129MOL0     C17312  10.766   8.595  11.060 -0.7204 -0.4515  0.5138
  129MOL0     C17313  10.766   8.627  10.918  1.0455 -0.1416 -1.4038
  129MOL0     C17314  10.799   8.529  10.833 -0.8154 -0.0171 -0.2609
  129MOL0     O17315  10.790   8.575  10.705  0.2516  0.7151 -0.7465
  129MOL0     C17316  10.871   8.497  10.614 -0.2216  0.4232 -0.0530
  129MOL0     C17317  10.870   8.563  10.484  0.9948  1.0102 -0.1676
  129MOL0     C17318  10.729   8.554  10.416 -0.3924  0.0215 -0.1340
  129MOL0     C17319  10.746   8.602  10.272  0.8485  0.3422 -0.5163
  129MOL0     C17320  10.611   8.610  10.194 -0.2034  0.9483  0.3651
  129MOL0     C17321  10.631   8.671  10.051 -0.9028  0.4563 -0.2729
  129MOL0     C17322  10.500   8.666   9.976 -0.3151  0.7834 -1.0761
  129MOL0     C17323  10.503   8.722   9.832 -1.1310  0.7245 -0.0279
  129MOL0    Cl17324  10.351   8.721   9.752 -0.2188  0.0985  0.0430
  129MOL0     C17325  10.819   8.392  10.875 -0.0267 -0.0436 -1.0622
  129MOL0     C17326  10.813   8.368  11.007 -0.3112 -0.0502 -0.5071
  129MOL0     O17327  10.580   8.515  11.307  0.5369 -0.5163  0.2530
  129MOL0     C17328  10.579   8.399  11.552  0.0265 -0.0650 -0.1712
  129MOL0     C17329  10.593   8.331  11.666  0.1253 -0.0955 -0.0011
  129MOL0     N17330  10.861   7.874  11.707  0.9358 -0.4972  0.0319
  129MOL0     N17331  10.868   7.909  11.586 -0.4999 -0.3795  0.2016
  129MOL0     C17332  10.203   8.620  10.920 -0.5644  0.1371  0.0118
  129MOL0     C17333  10.269   8.723  10.849  0.5861 -0.2370 -0.2136
  129MOL0     C17334  10.519   8.980  10.579  0.7421  0.7572  0.8374
  129MOL0     C17335  10.634   8.918  10.510 -0.3732 -0.7711  0.1684
  129MOL0     C17336  10.681   8.976  10.398  0.4979 -0.6641  0.5609
  129MOL0     C17337  10.646   9.110  10.364 -1.4573  0.2226 -0.2253
  129MOL0     O17338  10.719   9.184  10.278 -0.1377  0.8596  0.9340
  129MOL0     C17339  10.830   9.243  10.348 -0.0098 -0.1948 -0.3908
  129MOL0     C17340  10.943   9.266  10.240  0.0485 -0.4196  0.0111
  129MOL0     C17341  11.063   9.328  10.309  0.0128  0.4631 -0.0570
  129MOL0     C17342  11.187   9.339  10.226  0.3623  0.6098  0.5134
  129MOL0     C17343  11.153   9.406  10.104 -0.7861  1.2659 -0.4884
  129MOL0     C17344  11.140   9.474  10.010 -0.2662  1.0880  0.8219
  129MOL0     C17345  10.545   9.168  10.429 -0.0971 -0.7676  0.5282
  129MOL0     C17346  10.477   9.113  10.540  0.8111 -0.2536  0.1815
  129MOL0     C17347  10.367   9.176  10.620  1.6114 -1.3257 -0.1706
  129MOL0     H17348  10.442   8.533  10.643  0.5741 -0.0341  0.7062
  129MOL0     H17349  10.327   8.351  10.775 -2.7030 -1.0269  2.4934
  129MOL0     H17350  10.212   8.192  10.997  3.7318 -1.4518 -2.2958
  129MOL0     H17351  10.356   8.297  10.971  1.5220 -1.9224  1.1616
  129MOL0     H17352  10.185   8.352  11.217 -0.7720 -0.4681 -0.2590
  129MOL0     H17353  10.357   8.383  11.187 -0.3666  1.6152 -2.1514
  129MOL0     H17354  10.425   8.158  11.162  0.5787  3.3084  0.2644
  129MOL0     H17355  10.249   8.111  11.206 -0.9062  0.9380  1.6868
  129MOL0     H17356  10.463   8.242  11.372  2.1841 -2.6830 -0.6574
  129MOL0     H17357  10.289   8.254  11.418 -0.3961 -1.0991  1.6405
  129MOL0     H17358  10.397   8.069  11.527  0.2596  0.0383  0.6288
  129MOL0     H17359  10.279   8.000  11.409 -0.0955  1.3821 -3.6200
  129MOL0     H17360  10.490   7.877  11.407 -0.4321  0.9064  1.7858
  129MOL0     H17361  10.466   7.946  11.254 -2.1431 -3.1979  1.6919
  129MOL0     H17362  10.630   8.104  11.453 -3.7874 -0.1838  0.1678
  129MOL0     H17363  10.658   8.097  11.275  0.7839  0.6178  0.1915
  129MOL0     H17364  10.691   7.831  11.334 -0.7710  1.5266 -1.2338
  129MOL0     H17365  10.820   7.950  11.338 -0.2862  0.8318 -1.4609
  129MOL0     H17366  10.551   7.851  11.591  0.6829 -4.2992  1.4456
  129MOL0     H17367  10.575   7.762  11.852  0.5969 -0.0849  0.5996
  129MOL0     H17368  10.743   7.753  11.903  2.8444  0.2219 -1.6436
  129MOL0     H17369  10.638   7.899  12.056 -2.2774  0.3209  0.4216
  129MOL0     H17370  10.752   7.997  11.968 -1.3609  1.1195 -1.9476
  129MOL0     H17371  10.475   8.051  12.005  0.9719 -0.7266  0.6118
  129MOL0     H17372  10.494   8.039  11.834  0.8251 -1.5264  1.0876
  129MOL0     H17373  10.657   8.211  12.023  1.1440 -0.1318 -1.4451
  129MOL0     H17374  10.550   8.284  11.911 -0.2112  0.4574 -0.9510
  129MOL0     H17375  10.910   8.259  11.660 -1.2052 -0.7543  0.2511
  129MOL0     H17376  10.899   8.363  11.439  1.9534 -0.4012  3.1012
  129MOL0     H17377  10.731   8.660  11.139  0.1520  1.6158 -0.7280
  129MOL0     H17378  10.722   8.718  10.881 -2.3606 -0.8044  0.6375
  129MOL0     H17379  10.972   8.500  10.656 -0.7619  1.7266  1.2569
  129MOL0     H17380  10.837   8.394  10.599  0.1551  0.2948 -0.0486
  129MOL0     H17381  10.897   8.669  10.490  0.2322  1.1403  1.4216
  129MOL0     H17382  10.944   8.520  10.415 -1.4893 -0.8984 -1.8182
  129MOL0     H17383  10.692   8.452  10.427 -0.2257  0.0089  0.3406
  129MOL0     H17384  10.662   8.623  10.468  3.1060  1.8046  2.4655
  129MOL0     H17385  10.800   8.522  10.219  2.3805  0.9750  0.0338
  129MOL0     H17386  10.796   8.699  10.276  0.0056  0.7563  0.1736
  129MOL0     H17387  10.530   8.658  10.250  2.0649  3.2137  1.9828
  129MOL0     H17388  10.576   8.509  10.172 -0.7609  1.2119  0.0484
  129MOL0     H17389  10.671   8.772  10.057  2.1082 -0.7124  1.6538
  129MOL0     H17390  10.703   8.600  10.009  0.2211  1.1965  0.3362
  129MOL0     H17391  10.416   8.708  10.032 -1.2170 -2.3907  0.1910
  129MOL0     H17392  10.478   8.559   9.972  1.9088  0.0688  1.8906
  129MOL0     H17393  10.539   8.825   9.836  1.5793 -0.1448  0.9896
  129MOL0     H17394  10.573   8.659   9.776  1.1204  0.0226  3.2444
  129MOL0     H17395  10.853   8.320  10.801 -1.8707 -0.7996 -1.2335
  129MOL0     H17396  10.823   8.271  11.055  0.1207  1.3071  2.3537
  129MOL0     H17397  10.484   8.444  11.527  0.6650 -0.1379 -3.0963
  129MOL0     H17398  10.497   8.312  11.713  0.7520 -1.3113  0.8517
  129MOL0     H17399  10.135   8.636  11.003 -1.0171 -3.6339  0.5493
  129MOL0     H17400  10.234   8.824  10.866  0.7611  0.1873 -2.1215
  129MOL0     H17401  10.674   8.824  10.544 -1.0635 -0.6260  1.4159
  129MOL0     H17402  10.762   8.933  10.340  0.0397  0.2188 -0.7703
  129MOL0     H17403  10.873   9.189  10.433  1.3097 -0.1158 -0.9840
  129MOL0     H17404  10.795   9.333  10.399  2.5366  0.9477 -0.4727
  129MOL0     H17405  10.909   9.323  10.154 -1.2792 -0.6468  0.3628
  129MOL0     H17406  10.975   9.171  10.196  1.1187  0.7978 -1.9709
  129MOL0     H17407  11.096   9.270  10.395 -1.5796  4.9799  4.0732
  129MOL0     H17408  11.042   9.430  10.343 -2.8726  0.5701 -1.8718
  129MOL0     H17409  11.266   9.398  10.275  2.1785  1.3583 -2.9701
  129MOL0     H17410  11.230   9.239  10.212  3.6538  1.5655  2.5841
  129MOL0     H17411  11.125   9.541   9.929 -0.2388 -0.4016 -0.4725
  129MOL0     H17412  10.519   9.271  10.405  2.2717 -0.4367 -0.9233
  129MOL0     H17413  10.346   9.271  10.572  0.3940  0.0914  2.9090
  129MOL0     H17414  10.272   9.122  10.618  0.5773  0.4301 -0.1004
  129MOL0     H17415  10.380   9.211  10.722 -2.0441  1.3166 -0.4388
  130MOL0     O17416   6.270   9.856   4.789  0.0032  0.3186 -0.0178
  130MOL0     C17417   6.184   9.812   4.715  1.0313 -0.7376 -0.4578
  130MOL0     O17418   6.181   9.693   4.656  0.7173  0.1756 -0.2321
  130MOL0     C17419   6.287   9.606   4.678 -0.2569 -0.3530  1.0694
  130MOL0     C17420   6.427   9.628   4.696 -0.6108 -0.0315  0.6823
  130MOL0     C17421   6.502   9.524   4.734 -0.8022 -1.1132 -0.2974
  130MOL0     C17422   6.455   9.391   4.753 -1.1202  0.1860 -1.3402
  130MOL0     O17423   6.526   9.292   4.820 -0.2492  0.3543 -0.2757
  130MOL0     C17424   6.659   9.253   4.777 -0.0270  1.1340  1.3186
  130MOL0     C17425   6.730   9.158   4.866  0.4323 -0.6325  0.3746
  130MOL0     C17426   6.872   9.125   4.811 -0.0936  0.3741 -0.3482
  130MOL0     C17427   6.952   9.253   4.768  0.0344 -0.4234 -0.5988
  130MOL0     C17428   7.098   9.219   4.776 -0.2274  0.3395 -0.1292
  130MOL0     C17429   7.177   9.293   4.885 -0.1864 -0.3137 -0.3112
  130MOL0     C17430   7.175   9.217   5.023  0.0437 -0.4632  0.1281
  130MOL0     C17431   7.258   9.273   5.147  0.0868 -0.0355  0.5261
  130MOL0     N17432   7.381   9.346   5.095 -0.6599 -0.5271 -0.0791
  130MOL0     C17433   7.503   9.292   5.078 -0.3763 -0.6639  0.4327
  130MOL0     C17434   7.587   9.393   5.056 -1.1912  0.0447 -0.5726
  130MOL0     C17435   7.735   9.377   5.019 -0.5870  1.3200 -0.2622
  130MOL0     C17436   7.833   9.353   5.137  1.4988 -0.9043 -0.2197
  130MOL0     C17437   7.960   9.274   5.096  0.7647 -0.0755 -1.0018
  130MOL0     C17438   8.055   9.272   5.214 -0.2550 -0.1478  0.5173
  130MOL0     O17439   8.104   9.409   5.222 -0.3405  0.5446 -0.3938
  130MOL0     C17440   8.215   9.444   5.296  0.3447  0.0007 -0.0273
  130MOL0     C17441   8.269   9.569   5.277 -0.6727 -0.9124  0.1416
  130MOL0     C17442   8.382   9.607   5.332  0.4290  1.2548 -1.1185
  130MOL0     C17443   8.452   9.522   5.415  0.5442  0.0415  0.4708
  130MOL0     C17444   8.573   9.567   5.460 -0.4710 -0.3277  0.4347
  130MOL0     O17445   8.622   9.690   5.415  0.0454  0.4264  0.0449
  130MOL0     C17446   8.726   9.747   5.485 -0.0087  0.6451  0.1393
  130MOL0     C17447   8.818   9.818   5.414 -1.1732 -0.2926  0.4207
  130MOL0     C17448   8.936   9.879   5.467 -0.0536  0.1495 -0.4392
  130MOL0     C17449   8.963   9.853   5.605  1.1890  0.7079  0.7897
  130MOL0     O17450   9.067   9.888   5.676 -0.0541 -0.1926  0.4359
  130MOL0     C17451   9.176   9.934   5.601  0.5378  0.8625  0.0626
  130MOL0     C17452   9.296   9.953   5.688 -0.0848  0.3018  0.0101
  130MOL0     C17453   9.353   9.811   5.708  0.3056  0.4859 -0.7051
  130MOL0     C17454   9.488   9.821   5.788 -0.4138 -0.0594  0.7352
  130MOL0     C17455   9.614   9.849   5.703 -0.1484 -0.2293  0.7476
  130MOL0     C17456   9.671   9.985   5.737  0.0811 -0.0004  0.4951
  130MOL0     C17457   9.761  10.048   5.624  0.1951 -0.2798  0.6922
  130MOL0     C17458   9.777  10.196   5.664  0.3749  0.1585 -0.3949
  130MOL0    Cl17459   9.916  10.289   5.585 -0.3770  0.3753  0.8689
  130MOL0     C17460   8.865   9.785   5.680  0.0102  0.1764  0.2906
  130MOL0     C17461   8.749   9.733   5.625  0.3944  0.7101 -0.2402
  130MOL0     O17462   8.632   9.488   5.523 -0.6935  0.4722 -0.2882
  130MOL0     C17463   8.402   9.395   5.440 -0.3516  1.1883  0.3027
  130MOL0     C17464   8.284   9.356   5.380 -0.2791 -0.0198  0.7802
  130MOL0     N17465   7.521   9.515   5.060  1.0142  0.4378  0.8298
  130MOL0     N17466   7.398   9.484   5.083 -0.3188 -0.2162 -0.4306
  130MOL0     C17467   6.327   9.372   4.720 -0.1125 -0.1632  0.7895
  130MOL0     C17468   6.236   9.476   4.682 -0.1282 -0.4048  0.3890
  130MOL0     C17469   6.066   9.898   4.701  0.5080 -0.7912 -0.7267
  130MOL0     C17470   5.939   9.857   4.737 -0.2425 -0.0879  0.2155
  130MOL0     C17471   5.820   9.923   4.711 -0.7933 -0.3943 -0.7163
  130MOL0     C17472   5.825  10.048   4.659  0.0957  0.1630  1.0579
  130MOL0     O17473   5.708  10.116   4.646  0.2445  0.4398 -0.2276
  130MOL0     C17474   5.705  10.249   4.588  0.7071  0.6848 -0.0944
  130MOL0     C17475   5.557  10.287   4.564  0.3708 -0.3802 -0.8549
  130MOL0     C17476   5.497  10.203   4.452  1.0461 -0.2650 -0.5760
  130MOL0     C17477   5.345  10.223   4.439 -0.2823  0.1826  0.4387
  130MOL0     C17478   5.264  10.176   4.554  0.2024 -0.3403 -0.2334
  130MOL0     C17479   5.198  10.140   4.656  0.7533 -0.5008 -0.0556
  130MOL0     C17480   5.957  10.105   4.635 -0.0057  0.4163 -0.2401
  130MOL0     C17481   6.076  10.034   4.657 -0.2621  0.3296  0.0027
  130MOL0     C17482   6.204  10.095   4.612  0.4378 -0.8938 -0.7001
  130MOL0     H17483   6.460   9.731   4.697  1.4271 -0.6234  0.1557
  130MOL0     H17484   6.605   9.532   4.768 -1.5581 -0.8854  2.1245
  130MOL0     H17485   6.637   9.227   4.673  0.2318  3.1406  0.7229
  130MOL0     H17486   6.718   9.344   4.787 -0.0413  1.0847  1.8794
  130MOL0     H17487   6.669   9.069   4.884  0.2732 -0.7355 -0.6068
  130MOL0     H17488   6.742   9.207   4.963  1.3358 -0.8893  0.3971
  130MOL0     H17489   6.860   9.064   4.720  0.3448  0.5561 -0.5312
  130MOL0     H17490   6.920   9.060   4.885 -2.2339  1.2496  1.9268
  130MOL0     H17491   6.928   9.284   4.666  0.2869 -0.2793 -0.6169
  130MOL0     H17492   6.931   9.341   4.829  1.3898  0.7150 -1.6771
  130MOL0     H17493   7.112   9.111   4.763  0.9092  0.4225  0.3384
  130MOL0     H17494   7.132   9.259   4.680 -0.7522  0.1363 -0.4041
  130MOL0     H17495   7.284   9.297   4.860 -0.0653 -1.2281 -0.0071
  130MOL0     H17496   7.132   9.390   4.906  1.3914  0.2472  0.7209
  130MOL0     H17497   7.199   9.110   5.015 -0.5648 -1.0553  3.9627
  130MOL0     H17498   7.069   9.209   5.053 -0.0079  1.5274  0.5903
  130MOL0     H17499   7.205   9.340   5.215 -0.6104 -1.4440  1.4404
  130MOL0     H17500   7.281   9.189   5.214 -4.3947 -1.0288  1.1659
  130MOL0     H17501   7.509   9.187   5.051  2.1072 -0.3680 -0.4322
  130MOL0     H17502   7.754   9.294   4.951  3.3134 -0.4656  2.6650
  130MOL0     H17503   7.774   9.464   4.964  3.0630  0.4051  0.6414
  130MOL0     H17504   7.864   9.448   5.180  1.1202 -0.8280 -0.1069
  130MOL0     H17505   7.784   9.305   5.223  2.0264 -1.4494 -0.2186
  130MOL0     H17506   8.006   9.319   5.007 -0.8128  0.8475 -1.3866
  130MOL0     H17507   7.929   9.172   5.074 -0.6475  0.1028 -0.0094
  130MOL0     H17508   8.125   9.188   5.204 -1.3470 -1.1365  1.0037
  130MOL0     H17509   8.003   9.251   5.308 -0.7111  4.1032  1.3995
  130MOL0     H17510   8.214   9.645   5.222 -0.1288 -2.8299 -3.3623
  130MOL0     H17511   8.414   9.707   5.303  1.5092  0.5244 -2.5833
  130MOL0     H17512   8.799   9.824   5.307  0.0499  1.0508  0.2488
  130MOL0     H17513   9.003   9.941   5.410  1.3723  0.5299  1.5316
  130MOL0     H17514   9.207   9.855   5.533  0.3988  1.4808 -0.7383
  130MOL0     H17515   9.136  10.016   5.541 -1.0538  0.1304  0.0701
  130MOL0     H17516   9.378  10.000   5.633 -0.5191  2.1053  0.8062
  130MOL0     H17517   9.273  10.013   5.776 -2.2148  0.3228 -0.5153
  130MOL0     H17518   9.287   9.773   5.787 -1.6168  2.0606 -1.4753
  130MOL0     H17519   9.356   9.742   5.623  0.4252  0.1971 -0.4691
  130MOL0     H17520   9.507   9.720   5.825  0.5888 -0.5587 -1.0618
  130MOL0     H17521   9.486   9.895   5.868 -1.4394 -0.9392  1.5674
  130MOL0     H17522   9.580   9.844   5.599 -3.0595 -1.3720  1.6386
  130MOL0     H17523   9.691   9.774   5.725  2.4293  1.6350 -1.3164
  130MOL0     H17524   9.593  10.060   5.755 -0.5587 -0.3487 -0.7220
  130MOL0     H17525   9.725   9.990   5.832 -1.1650  1.2087  1.1792
  130MOL0     H17526   9.715  10.045   5.525  0.6398  2.9422  0.2758
  130MOL0     H17527   9.858   9.997   5.621 -0.2512 -1.2482  2.0606
  130MOL0     H17528   9.681  10.245   5.644 -0.5252 -0.9740  0.9501
  130MOL0     H17529   9.794  10.206   5.771 -2.7429 -2.0046  0.4454
  130MOL0     H17530   8.876   9.795   5.787  0.2165 -2.5569  0.5919
  130MOL0     H17531   8.677   9.665   5.670  0.0353 -2.0093 -4.3345
  130MOL0     H17532   8.452   9.316   5.495  0.4833 -0.5185 -2.6907
  130MOL0     H17533   8.230   9.265   5.406 -2.6456  1.4215  1.2336
  130MOL0     H17534   6.283   9.272   4.727 -1.1700  0.2574  0.3855
  130MOL0     H17535   6.133   9.454   4.656 -1.3456  1.1080  3.4432
  130MOL0     H17536   5.905   9.768   4.789  0.8824 -0.1996  0.7969
  130MOL0     H17537   5.723   9.881   4.733 -0.6149 -1.4951 -1.9102
  130MOL0     H17538   5.763  10.259   4.496  0.6416 -1.9413 -0.5005
  130MOL0     H17539   5.756  10.315   4.659  0.2058  0.0355  0.8909
  130MOL0     H17540   5.560  10.393   4.536  3.1648 -0.0399  0.4718
  130MOL0     H17541   5.498  10.272   4.655  0.0477  2.4023 -0.5293
  130MOL0     H17542   5.514  10.096   4.466 -1.7058 -1.0401 -2.2614
  130MOL0     H17543   5.537  10.229   4.354 -1.6168  2.6192 -1.0413
  130MOL0     H17544   5.310  10.323   4.413 -3.1391 -1.9440 -5.8084
  130MOL0     H17545   5.302  10.158   4.362 -1.0256  2.1376 -0.8760
  130MOL0     H17546   5.151  10.121   4.751  0.6986  0.5207  0.1294
  130MOL0     H17547   5.969  10.206   4.597 -1.9615  0.4048 -1.0534
  130MOL0     H17548   6.203  10.203   4.597  2.0439 -0.9010 -1.1125
  130MOL0     H17549   6.290  10.085   4.680  0.5971  0.3602 -0.6891
  130MOL0     H17550   6.228  10.056   4.513 -2.0016 -2.0092 -0.9187
  131MOL0     O17551   1.089  10.104  10.635 -0.7240 -0.6099  0.5346
  131MOL0     C17552   1.093  10.217  10.580  0.5293  0.6554  0.7603
  131MOL0     O17553   1.013  10.322  10.617  0.3495 -0.0913  0.0243
  131MOL0     C17554   0.922  10.318  10.722  0.5387 -0.4057  0.8353
  131MOL0     C17555   0.949  10.266  10.844 -0.3956 -1.0443 -0.0966
  131MOL0     C17556   0.861  10.268  10.948 -0.0731  0.0248 -0.3240
  131MOL0     C17557   0.738  10.341  10.928 -0.3940  0.5137  0.7493
  131MOL0     O17558   0.645  10.372  11.026 -0.2451 -0.5893  0.6408
  131MOL0     C17559   0.668  10.363  11.165  0.1421  0.0736 -0.3211
  131MOL0     C17560   0.608  10.243  11.226  0.2018 -0.7500 -0.8429
  131MOL0     C17561   0.626  10.213  11.383  1.0369  0.1414  0.5361
  131MOL0     C17562   0.505  10.141  11.444  0.3868  0.0571 -0.5152
  131MOL0     C17563   0.532  10.078  11.573  0.4274 -0.0497 -0.8003
  131MOL0     C17564   0.530  10.182  11.683 -0.6077 -0.0982 -0.4242
  131MOL0     C17565   0.515  10.122  11.823  0.0621 -0.9362  0.1604
  131MOL0     C17566   0.645  10.061  11.884  0.5899  0.1220 -0.2490
  131MOL0     N17567   0.665   9.917  11.837 -1.3791  0.4796 -0.0088
  131MOL0     C17568   0.791   9.851  11.834  0.2818  0.2521 -0.0719
  131MOL0     C17569   0.764   9.722  11.792 -0.5306  0.2697  0.5617
  131MOL0     C17570   0.883   9.623  11.776  0.8126  0.3196 -0.5477
  131MOL0     C17571   0.851   9.473  11.743  0.0617  0.0814 -0.0328
  131MOL0     C17572   0.964   9.403  11.667 -0.9054  1.2680  0.5390
  131MOL0     C17573   0.918   9.249  11.643 -0.5024  0.0616  0.2219
  131MOL0     O17574   1.012   9.172  11.562  0.0499 -0.3251 -0.0540
  131MOL0     C17575   1.142   9.137  11.595  0.8245 -1.2925  0.0830
  131MOL0     C17576   1.229   9.075  11.512  0.5985 -0.9016  0.1961
  131MOL0     C17577   1.355   9.043  11.554  0.4012 -0.6058 -0.0147
  131MOL0     C17578   1.394   9.058  11.687 -0.1627 -0.7890  0.2194
  131MOL0     C17579   1.540   9.026  11.719  0.7777 -0.1412  0.1525
  131MOL0     O17580   1.630   9.009  11.610  0.3620 -0.0439 -0.3278
  131MOL0     C17581   1.757   9.063  11.623 -0.2337  0.5575  0.7532
  131MOL0     C17582   1.788   9.188  11.675  0.0536  0.9953  0.3639
  131MOL0     C17583   1.919   9.225  11.689 -1.1037 -0.1384  0.2115
  131MOL0     C17584   2.023   9.150  11.640  0.0022 -0.6236  0.2472
  131MOL0     O17585   2.153   9.196  11.658 -0.4748 -0.0778 -0.7472
  131MOL0     C17586   2.216   9.139  11.778 -0.5461 -0.5844  0.4031
  131MOL0     C17587   2.283   9.246  11.866 -0.5131  0.1915 -0.2876
  131MOL0     C17588   2.186   9.343  11.936  0.4801 -0.4118  0.4515
  131MOL0     C17589   2.075   9.269  12.011 -0.1687  0.2933  0.1774
  131MOL0     C17590   1.967   9.343  12.078  0.3632 -0.1421 -0.3898
  131MOL0     C17591   2.023   9.454  12.167 -0.0832  0.3047 -0.7071
  131MOL0     C17592   1.912   9.528  12.247 -0.2403 -0.4871  0.0789
  131MOL0     C17593   1.983   9.624  12.347  0.3873  0.9640  0.8570
  131MOL0    Cl17594   1.873   9.739  12.427 -0.6599  0.2924  0.3787
  131MOL0     C17595   1.992   9.024  11.585  0.0976 -0.1414 -0.6277
  131MOL0     C17596   1.858   8.980  11.576  0.0691  0.3905 -0.7652
  131MOL0     O17597   1.575   9.061  11.831  0.4304 -0.4612  0.2689
  131MOL0     C17598   1.300   9.103  11.775 -0.0463 -0.0345 -0.2532
  131MOL0     C17599   1.174   9.152  11.726 -0.4448  0.2487 -0.5367
  131MOL0     N17600   0.629   9.713  11.766 -0.8923  0.5785 -0.9077
  131MOL0     N17601   0.571   9.818  11.807  0.1020  0.8386  0.0953
  131MOL0     C17602   0.709  10.394  10.795 -0.1763  0.2063 -0.1887
  131MOL0     C17603   0.799  10.385  10.692 -0.3932  0.9479  0.3532
  131MOL0     C17604   1.171  10.234  10.459 -0.0550  0.6757 -1.4010
  131MOL0     C17605   1.173  10.127  10.368  0.1352 -0.8067  0.1715
  131MOL0     C17606   1.264  10.129  10.262 -0.6474 -0.9318 -0.6077
  131MOL0     C17607   1.344  10.242  10.223  0.3970 -0.4689 -0.0823
  131MOL0     O17608   1.409  10.237  10.097 -0.5070 -0.6731 -0.1944
  131MOL0     C17609   1.487  10.357  10.061  1.0164  0.0538 -0.4657
  131MOL0     C17610   1.532  10.335   9.919 -0.7559 -0.8604 -0.8141
  131MOL0     C17611   1.414  10.291   9.830  0.1126 -0.9813  0.0217
  131MOL0     C17612   1.425  10.306   9.679 -0.4908 -0.5198 -1.0570
  131MOL0     C17613   1.474  10.441   9.645 -0.4963  0.2616  0.8766
  131MOL0     C17614   1.484  10.564   9.613 -0.3236 -0.6015 -0.1089
  131MOL0     C17615   1.338  10.353  10.314  0.3063  0.7007  0.5385
  131MOL0     C17616   1.254  10.345  10.431 -0.0533 -0.1255  0.5322
  131MOL0     C17617   1.274  10.456  10.527  0.3915 -1.0558 -0.1414
  131MOL0     H17618   1.054  10.239  10.858 -1.1422 -3.0182  2.6898
  131MOL0     H17619   0.881  10.230  11.048 -2.4050 -1.7889 -0.4469
  131MOL0     H17620   0.777  10.363  11.179  0.2276  1.0412 -0.8940
  131MOL0     H17621   0.631  10.457  11.207  0.3444  0.0949 -0.1897
  131MOL0     H17622   0.651  10.155  11.177 -0.8409 -0.6276 -2.0046
  131MOL0     H17623   0.503  10.244  11.198  0.8155  2.5643 -3.5684
  131MOL0     H17624   0.642  10.307  11.436 -0.2243 -1.0106  3.1591
  131MOL0     H17625   0.715  10.149  11.392  2.4820  2.0868  0.7168
  131MOL0     H17626   0.429  10.217  11.462  2.3933  1.2732  4.5009
  131MOL0     H17627   0.470  10.060  11.380  0.3793 -2.5745  2.5311
  131MOL0     H17628   0.456  10.001  11.590  1.0589 -1.2874 -3.1550
  131MOL0     H17629   0.624  10.021  11.589  1.3580  1.3089 -1.0950
  131MOL0     H17630   0.624  10.237  11.675  0.5179 -1.9850 -0.8234
  131MOL0     H17631   0.446  10.247  11.660  0.9375  2.1644 -0.0025
  131MOL0     H17632   0.438  10.045  11.828  0.3657 -1.1645  1.7470
  131MOL0     H17633   0.478  10.208  11.880  2.8227  2.1304 -2.2796
  131MOL0     H17634   0.735  10.118  11.859  2.3976  0.1095  5.0220
  131MOL0     H17635   0.643  10.056  11.994  0.4287 -0.1617 -0.2644
  131MOL0     H17636   0.892   9.888  11.849 -0.0237  1.3194 -0.5443
  131MOL0     H17637   0.944   9.651  11.690  1.4572  0.2272 -0.1277
  131MOL0     H17638   0.949   9.617  11.864  0.2675  1.8489  0.0059
  131MOL0     H17639   0.832   9.431  11.842 -0.0283  1.6196  0.6396
  131MOL0     H17640   0.759   9.481  11.684 -0.5075  0.3415  0.8645
  131MOL0     H17641   1.058   9.404  11.722 -0.9071 -1.8019  0.7712
  131MOL0     H17642   0.970   9.460  11.573  0.1199  0.9906  0.4331
  131MOL0     H17643   0.820   9.272  11.599 -0.6023  2.8496  1.6447
  131MOL0     H17644   0.907   9.199  11.740 -0.2909  0.3019  0.3682
  131MOL0     H17645   1.195   9.061  11.410 -2.3671 -2.1035  1.2129
  131MOL0     H17646   1.407   8.976  11.486 -0.1790  0.1966 -1.2878
  131MOL0     H17647   1.703   9.248  11.704 -0.4549  0.1002  0.7759
  131MOL0     H17648   1.950   9.318  11.735  1.1616 -0.0436 -1.3561
  131MOL0     H17649   2.147   9.070  11.825 -4.0344  2.7097  0.5865
  131MOL0     H17650   2.298   9.087  11.727  0.6522  2.2294 -0.8017
  131MOL0     H17651   2.329   9.199  11.954 -1.4470 -4.4040 -1.9538
  131MOL0     H17652   2.355   9.289  11.795 -2.2657  0.0586 -2.2728
  131MOL0     H17653   2.249   9.403  12.002  1.1776 -0.2632 -0.3345
  131MOL0     H17654   2.140   9.406  11.859  1.0941  1.1840  1.3337
  131MOL0     H17655   2.123   9.207  12.087  0.6727  1.8301  0.9493
  131MOL0     H17656   2.025   9.202  11.940 -0.7136  1.2787 -0.3899
  131MOL0     H17657   1.909   9.272  12.138 -1.5929  2.3673  0.8828
  131MOL0     H17658   1.896   9.386  12.006  0.1800  0.9388  0.4037
  131MOL0     H17659   2.090   9.403  12.237 -2.0223 -0.9148  0.3569
  131MOL0     H17660   2.073   9.531  12.107 -0.5316  1.5294  0.4398
  131MOL0     H17661   1.853   9.457  12.306 -0.1860 -1.4524 -0.9914
  131MOL0     H17662   1.847   9.588  12.183  0.5561  2.5676  1.9190
  131MOL0     H17663   2.038   9.564  12.421  0.6402 -2.0275 -1.5615
  131MOL0     H17664   2.057   9.677  12.286  1.0065 -1.6801 -0.8351
  131MOL0     H17665   2.064   8.959  11.537  0.6199  3.0897 -4.7682
  131MOL0     H17666   1.825   8.886  11.534  0.4120 -0.7028  1.2709
  131MOL0     H17667   1.331   9.104  11.879  0.5478 -3.1059 -0.3069
  131MOL0     H17668   1.109   9.207  11.793 -0.2150 -0.5456  0.3524
  131MOL0     H17669   0.608  10.430  10.774  0.4544  2.8801  0.9659
  131MOL0     H17670   0.781  10.428  10.594 -2.5778 -0.1347  0.2185
  131MOL0     H17671   1.108  10.042  10.382  0.5199 -1.1616 -0.1930
  131MOL0     H17672   1.276  10.036  10.209 -3.4934 -2.8727  1.8291
  131MOL0     H17673   1.571  10.377  10.129  0.8751 -1.9487  0.3483
  131MOL0     H17674   1.428  10.448  10.049  0.7115 -0.5140 -5.0818
  131MOL0     H17675   1.616  10.265   9.924  2.8077  3.0966  2.7859
  131MOL0     H17676   1.574  10.429   9.882 -1.0238 -1.4603 -2.7547
  131MOL0     H17677   1.326  10.350   9.859 -2.0769 -3.3910 -1.3130
  131MOL0     H17678   1.390  10.186   9.846 -1.5744 -0.6173  0.1412
  131MOL0     H17679   1.492  10.229   9.641  3.8143  0.4624  3.5383
  131MOL0     H17680   1.331  10.286   9.625 -0.9472 -2.8756  0.4643
  131MOL0     H17681   1.501  10.662   9.574  0.7311 -0.0032  1.7326
  131MOL0     H17682   1.375  10.450  10.282  0.0496  0.5959 -0.1016
  131MOL0     H17683   1.376  10.495  10.527  1.4838 -3.6739  1.3852
  131MOL0     H17684   1.202  10.537  10.511 -0.3179 -0.9090  3.0711
  131MOL0     H17685   1.245  10.422  10.627 -0.6225 -3.4457 -1.1769
  132MOL0     O17686   4.639   1.573   9.963 -0.0555  0.2710  0.1044
  132MOL0     C17687   4.545   1.599  10.034 -0.4921 -0.0351 -0.2604
  132MOL0     O17688   4.549   1.719  10.107  0.9075 -0.4502  0.1488
  132MOL0     C17689   4.644   1.814  10.093  1.0194 -0.0743  0.3315
  132MOL0     C17690   4.706   1.867  10.209 -1.0430  0.0788 -0.8240
  132MOL0     C17691   4.803   1.960  10.188  0.1321 -0.7777 -0.3780
  132MOL0     C17692   4.844   2.008  10.055 -0.1562 -0.4573 -0.0003
  132MOL0     O17693   4.956   2.081  10.030  0.0763  0.6191 -0.0209
  132MOL0     C17694   5.035   2.116  10.143 -0.3878 -0.2458 -0.2018
  132MOL0     C17695   5.173   2.162  10.091  0.5654  0.0064 -0.1545
  132MOL0     C17696   5.257   2.057  10.013 -0.5950 -0.0533 -0.1677
  132MOL0     C17697   5.389   2.112   9.948  0.1033 -0.1184  0.1341
  132MOL0     C17698   5.501   2.160  10.051 -0.2194 -0.4290 -0.3209
  132MOL0     C17699   5.546   2.045  10.137  0.4579  1.2136 -0.1082
  132MOL0     C17700   5.671   2.078  10.211  0.1646 -0.6441  0.9260
  132MOL0     C17701   5.723   1.966  10.296  0.3260 -0.3956  1.3518
  132MOL0     N17702   5.792   2.014  10.413  0.4770 -0.4483  0.2705
  132MOL0     C17703   5.922   2.055  10.423  0.6307  0.0942 -0.1915
  132MOL0     C17704   5.946   2.064  10.552 -0.2916 -0.7447 -0.0401
  132MOL0     C17705   6.068   2.124  10.623 -0.7367 -1.0104  1.4961
  132MOL0     C17706   6.188   2.078  10.539 -0.0861 -0.9966  0.2149
  132MOL0     C17707   6.327   2.122  10.604  0.3202 -0.2004  0.5944
  132MOL0     C17708   6.366   2.052  10.735 -0.6277 -0.1394 -0.1807
  132MOL0     O17709   6.271   1.955  10.772 -0.0737 -0.4650 -0.6953
  132MOL0     C17710   6.313   1.868  10.875 -0.5134 -0.0954 -0.1968
  132MOL0     C17711   6.246   1.742  10.873  0.4227 -0.8742  0.2309
  132MOL0     C17712   6.280   1.639  10.963  0.3172  0.7166 -0.7306
  132MOL0     C17713   6.393   1.654  11.060  0.9209  0.4742  0.1833
  132MOL0     C17714   6.447   1.542  11.134 -0.2648  0.2281 -0.3306
  132MOL0     O17715   6.382   1.425  11.116 -0.3244 -0.0920  0.2021
  132MOL0     C17716   6.423   1.310  11.169 -0.3848 -0.4044  1.5689
  132MOL0     C17717   6.411   1.203  11.074  0.1506 -0.8878  0.5063
  132MOL0     C17718   6.463   1.082  11.121  0.3336 -0.6089  0.7666
  132MOL0     C17719   6.520   1.070  11.245 -0.3491  0.8801 -0.1403
  132MOL0     O17720   6.529   0.946  11.301  0.6149  0.7746 -0.5769
  132MOL0     C17721   6.420   0.853  11.278 -0.5644  0.5648  0.9904
  132MOL0     C17722   6.436   0.748  11.389 -0.0029 -0.2379 -0.2058
  132MOL0     C17723   6.547   0.641  11.384  0.5069 -0.5483  0.7785
  132MOL0     C17724   6.534   0.546  11.511 -0.3332  0.0315 -0.7110
  132MOL0     C17725   6.652   0.453  11.515 -0.3298 -1.0618 -0.1267
  132MOL0     C17726   6.648   0.341  11.410  1.0428 -0.4843 -0.1313
  132MOL0     C17727   6.721   0.213  11.459  0.2553  0.4932  0.7805
  132MOL0     C17728   6.624   0.115  11.528  0.4082  0.6554  0.6052
  132MOL0    Cl17729   6.545   0.184  11.671  0.3014 -0.4659 -0.5835
  132MOL0     C17730   6.533   1.171  11.333  0.9168 -0.2310  0.1974
  132MOL0     C17731   6.475   1.296  11.293  0.4765  0.1885 -0.6616
  132MOL0     O17732   6.548   1.569  11.207 -0.1025  0.3672 -0.6415
  132MOL0     C17733   6.454   1.780  11.060  0.2055  0.3040 -0.2652
  132MOL0     C17734   6.414   1.889  10.984  0.5673  0.2808  0.4816
  132MOL0     N17735   5.836   2.009  10.625 -0.2773 -0.0720 -0.1714
  132MOL0     N17736   5.750   1.981  10.538  0.2916  0.2810  0.0795
  132MOL0     C17737   4.772   1.956   9.949 -1.4982 -0.0287 -0.2015
  132MOL0     C17738   4.674   1.863   9.965  0.2441 -0.3989  0.2312
  132MOL0     C17739   4.446   1.502  10.052  1.1239 -0.1115 -0.0614
  132MOL0     C17740   4.453   1.385   9.978  0.0694  1.1085 -0.1329
  132MOL0     C17741   4.358   1.279   9.992  0.2736  0.5794 -0.3265
  132MOL0     C17742   4.248   1.295  10.078  0.2294 -0.3196  0.3075
  132MOL0     O17743   4.148   1.206  10.072 -0.1598  0.1968 -0.2999
  132MOL0     C17744   4.130   1.114  10.189 -0.5816 -0.2489 -0.3310
  132MOL0     C17745   3.997   1.128  10.251 -1.3941 -0.1911 -0.3899
  132MOL0     C17746   3.892   1.147  10.146  0.0849  0.1456 -0.0101
  132MOL0     C17747   3.878   1.029  10.052 -0.5949 -0.5212 -0.1918
  132MOL0     C17748   3.761   1.029   9.977 -0.3157  0.2393 -0.1448
  132MOL0     C17749   3.659   1.052   9.912 -0.7364 -0.7610 -0.8018
  132MOL0     C17750   4.228   1.410  10.145  0.0372 -0.9090 -0.0612
  132MOL0     C17751   4.330   1.515  10.139 -0.0780  0.5757  0.7743
  132MOL0     C17752   4.304   1.638  10.223  0.7033 -0.7401 -1.0483
  132MOL0     H17753   4.687   1.817  10.304 -2.9015  1.4480 -0.4124
  132MOL0     H17754   4.856   1.991  10.277  1.0931  0.4949 -1.3543
  132MOL0     H17755   4.988   2.198  10.198  2.4033  0.2347  1.6847
  132MOL0     H17756   5.047   2.028  10.207  0.9525 -2.0575 -2.7846
  132MOL0     H17757   5.229   2.210  10.171 -0.8145  2.1272 -0.3602
  132MOL0     H17758   5.168   2.243  10.016  4.0576 -0.1258 -0.7110
  132MOL0     H17759   5.190   2.008   9.941  0.0153 -1.2119  0.0207
  132MOL0     H17760   5.287   1.984  10.089 -2.4606  0.2918  0.9680
  132MOL0     H17761   5.434   2.028   9.895  0.3111  1.4050 -2.2470
  132MOL0     H17762   5.368   2.193   9.877  2.4013  0.6643  0.2575
  132MOL0     H17763   5.582   2.208   9.995 -0.4161  0.5118  0.1891
  132MOL0     H17764   5.462   2.242  10.112  0.0665 -0.4754 -0.0726
  132MOL0     H17765   5.476   2.016  10.215 -2.7814 -0.7489 -3.4451
  132MOL0     H17766   5.557   1.956  10.076  1.2743  0.6932  0.7748
  132MOL0     H17767   5.643   2.172  10.258  0.3831  0.2432 -0.6412
  132MOL0     H17768   5.755   2.111  10.148  0.6851  1.7391  2.6977
  132MOL0     H17769   5.631   1.908  10.308 -0.7831  0.5588 -1.4976
  132MOL0     H17770   5.789   1.909  10.230 -1.2127 -1.5569  0.7537
  132MOL0     H17771   5.981   2.108  10.350  2.6098  1.2051  2.0708
  132MOL0     H17772   6.050   2.231  10.612 -1.2165 -1.2579 -0.4049
  132MOL0     H17773   6.071   2.099  10.729  0.0359  2.2662  2.3580
  132MOL0     H17774   6.187   1.969  10.527 -2.4684 -1.0950  0.7397
  132MOL0     H17775   6.179   2.120  10.439 -0.4872  1.5732  1.2618
  132MOL0     H17776   6.331   2.228  10.630  0.9334 -0.3726  1.2339
  132MOL0     H17777   6.398   2.110  10.521  0.1921  1.3593  0.2424
  132MOL0     H17778   6.368   2.121  10.820 -3.5924 -1.2643  0.9552
  132MOL0     H17779   6.462   2.001  10.721 -0.4688 -0.9521  3.0989
  132MOL0     H17780   6.178   1.731  10.790 -0.7569 -0.5082  1.1090
  132MOL0     H17781   6.225   1.547  10.946 -0.6422  1.2601 -0.6375
  132MOL0     H17782   6.355   1.219  10.982 -1.8809  3.2383  2.2024
  132MOL0     H17783   6.443   0.994  11.061  0.5999  0.3691 -0.8056
  132MOL0     H17784   6.336   0.919  11.301 -0.6297  2.0974 -2.9410
  132MOL0     H17785   6.421   0.820  11.174 -3.5474  3.5562 -0.1388
  132MOL0     H17786   6.457   0.810  11.477 -0.6907  1.1707 -1.0000
  132MOL0     H17787   6.340   0.696  11.400 -0.8509  1.1814 -0.6727
  132MOL0     H17788   6.543   0.587  11.290 -0.4884  1.3216 -0.3009
  132MOL0     H17789   6.644   0.691  11.383  1.1190 -1.6319  2.1236
  132MOL0     H17790   6.446   0.484  11.500 -0.8136  0.5273  0.2479
  132MOL0     H17791   6.526   0.617  11.594 -0.0390  0.0865 -0.7269
  132MOL0     H17792   6.662   0.399  11.609 -0.2696  0.0693  0.5427
  132MOL0     H17793   6.742   0.513  11.498 -0.8447 -0.2616 -0.0810
  132MOL0     H17794   6.542   0.321  11.392  0.5142  3.3263 -2.4894
  132MOL0     H17795   6.688   0.375  11.314 -0.3213 -1.9113 -1.2574
  132MOL0     H17796   6.808   0.248  11.516  2.5436 -0.0350 -2.1520
  132MOL0     H17797   6.769   0.164  11.374  3.3236  3.2038  0.7577
  132MOL0     H17798   6.548   0.086  11.455  0.9059  0.2184  0.2537
  132MOL0     H17799   6.675   0.022  11.556 -2.9581 -1.3632  0.6631
  132MOL0     H17800   6.573   1.165  11.433  0.2631  0.2387  0.4865
  132MOL0     H17801   6.467   1.382  11.358  1.8777 -1.3075  1.6301
  132MOL0     H17802   6.533   1.793  11.133  0.6830 -2.4291 -0.1899
  132MOL0     H17803   6.466   1.984  10.987  0.1530  0.5346 -0.0957
  132MOL0     H17804   4.794   1.996   9.850 -0.3583  0.8398  0.3880
  132MOL0     H17805   4.614   1.818   9.887 -1.4944 -1.2754  1.9961
  132MOL0     H17806   4.521   1.388   9.894  0.6760  1.3065  0.3638
  132MOL0     H17807   4.376   1.194   9.927  0.3348  0.1662  0.2281
  132MOL0     H17808   4.195   1.142  10.272 -2.5621 -1.6092  1.8282
  132MOL0     H17809   4.141   1.012  10.151 -3.5226 -1.6411  2.0961
  132MOL0     H17810   4.007   1.222  10.306 -0.1399 -0.7667  0.3991
  132MOL0     H17811   3.965   1.053  10.324  2.2848 -1.0815  0.4913
  132MOL0     H17812   3.904   1.238  10.086  0.9255  0.2866  0.3539
  132MOL0     H17813   3.799   1.151  10.203 -0.2338 -0.3364 -0.4818
  132MOL0     H17814   3.943   1.038   9.964 -2.7330 -1.4424 -1.9591
  132MOL0     H17815   3.902   0.940  10.112 -1.2002 -0.8049 -0.3728
  132MOL0     H17816   3.568   1.081   9.862 -0.6958 -1.0899 -1.0642
  132MOL0     H17817   4.133   1.429  10.193 -0.6252  1.9197 -2.2412
  132MOL0     H17818   4.217   1.623  10.287  1.7986  0.0502  0.6987
  132MOL0     H17819   4.388   1.650  10.293 -2.0035  1.7848  2.0623
  132MOL0     H17820   4.291   1.724  10.158 -0.2800  0.5259  0.7469
  133MOL0     O17821   5.509  10.716   2.606 -0.6428  1.0910  0.1438
  133MOL0     C17822   5.475  10.828   2.564 -0.8239 -0.2299  0.0107
  133MOL0     O17823   5.365  10.899   2.608  0.2041  0.3312 -1.0626
  133MOL0     C17824   5.297  10.854   2.723  1.1533  0.5223 -0.3687
  133MOL0     C17825   5.176  10.781   2.718 -0.4812  0.7569  0.2614
  133MOL0     C17826   5.111  10.743   2.837  0.4842  0.0737  0.6071
  133MOL0     C17827   5.166  10.765   2.961 -0.2984  0.5159  0.3201
  133MOL0     O17828   5.099  10.743   3.075 -0.1208 -0.2588 -0.0437
  133MOL0     C17829   4.985  10.650   3.072 -0.3575 -0.3843  0.3390
  133MOL0     C17830   4.913  10.659   3.217  1.2674  0.7088  1.0434
  133MOL0     C17831   4.776  10.595   3.189  0.1507  0.2461 -0.6543
  133MOL0     C17832   4.684  10.602   3.305 -0.0274 -0.0928  0.5072
  133MOL0     C17833   4.555  10.523   3.278 -0.5535 -0.0174  0.5339
  133MOL0     C17834   4.482  10.556   3.144  0.3742  0.4078  0.1973
  133MOL0     C17835   4.335  10.506   3.133 -0.1033  0.3255 -0.0292
  133MOL0     C17836   4.267  10.506   2.995 -0.0336  0.8580 -0.3116
  133MOL0     N17837   4.243  10.645   2.939  0.1155 -0.7645 -0.0862
  133MOL0     C17838   4.331  10.712   2.860 -1.0076 -0.2433 -0.7396
  133MOL0     C17839   4.270  10.829   2.830  0.5485 -0.3730 -0.1223
  133MOL0     C17840   4.317  10.941   2.747  0.6880 -0.6385 -0.1865
  133MOL0     C17841   4.271  10.913   2.606  0.3098 -0.1539  0.5107
  133MOL0     C17842   4.280  11.034   2.511 -1.1259  0.2171 -0.0723
  133MOL0     C17843   4.427  11.056   2.468 -0.7352  0.4258  0.8970
  133MOL0     O17844   4.482  10.969   2.372 -0.1954  0.3885 -0.1305
  133MOL0     C17845   4.505  11.010   2.244  0.0460  0.0444 -0.5388
  133MOL0     C17846   4.626  10.962   2.190  0.3709 -0.2811 -0.6632
  133MOL0     C17847   4.668  10.977   2.064 -0.8077 -0.0061  0.1074
  133MOL0     C17848   4.599  11.072   1.974 -0.3342 -0.4670  0.0602
  133MOL0     C17849   4.639  11.096   1.834  0.1227 -0.4667  0.3759
  133MOL0     O17850   4.548  11.153   1.752 -0.2417  0.4014 -0.7821
  133MOL0     C17851   4.587  11.142   1.619 -0.5707 -1.3610  0.0941
  133MOL0     C17852   4.672  11.244   1.552  0.0176 -0.0042  0.4586
  133MOL0     C17853   4.713  11.225   1.422  0.6974  0.0082 -0.0821
  133MOL0     C17854   4.664  11.110   1.354  0.0110  0.9248 -0.3449
  133MOL0     O17855   4.713  11.079   1.227  0.0599 -0.2471 -0.6057
  133MOL0     C17856   4.827  11.139   1.170 -0.7077 -0.7527 -0.7709
  133MOL0     C17857   4.817  11.131   1.026  0.8335  0.0198  0.3104
  133MOL0     C17858   4.944  11.167   0.947 -0.2318 -0.0542 -1.2079
  133MOL0     C17859   4.909  11.176   0.797  0.4229  0.7284 -0.7559
  133MOL0     C17860   5.037  11.174   0.708  0.2054 -0.9741  0.4663
  133MOL0     C17861   5.008  11.175   0.560  0.7559  0.2215  0.8245
  133MOL0     C17862   5.139  11.192   0.481 -0.1698 -0.3421 -0.2700
  133MOL0     C17863   5.120  11.238   0.341 -0.3451 -0.8568 -0.0555
  133MOL0    Cl17864   4.996  11.141   0.245  0.1025 -0.0160 -0.8299
  133MOL0     C17865   4.589  11.016   1.420  0.3739  0.4604 -0.0825
  133MOL0     C17866   4.551  11.030   1.558  0.1582 -0.7544  1.6835
  133MOL0     O17867   4.747  11.041   1.798  0.4510 -0.5549  0.6969
  133MOL0     C17868   4.480  11.116   2.028  0.1810 -0.8714  0.3064
  133MOL0     C17869   4.431  11.100   2.165 -0.0763  0.1653 -1.0554
  133MOL0     N17870   4.143  10.829   2.882 -0.3381  0.5739 -0.6538
  133MOL0     N17871   4.122  10.724   2.944  0.1446  1.0962  0.4578
  133MOL0     C17872   5.279  10.855   2.967 -0.7485  1.0093  0.4665
  133MOL0     C17873   5.348  10.893   2.849  0.4536  0.3757 -0.0080
  133MOL0     C17874   5.538  10.886   2.439 -0.4349 -0.8829 -0.2766
  133MOL0     C17875   5.447  10.948   2.338 -0.2879 -0.4071 -1.4710
  133MOL0     C17876   5.501  11.017   2.232  0.6280  0.0557 -0.3904
  133MOL0     C17877   5.641  11.014   2.214 -0.5185 -0.2506  1.0855
  133MOL0     O17878   5.687  11.093   2.119  0.3236  0.4451  0.4335
  133MOL0     C17879   5.819  11.078   2.067  0.7111  0.4911 -0.4414
  133MOL0     C17880   5.835  11.192   1.968 -0.9692 -0.1829 -0.3186
  133MOL0     C17881   5.749  11.163   1.849 -0.1107 -0.0077  0.3110
  133MOL0     C17882   5.759  11.278   1.747 -0.0391 -0.2005  0.0676
  133MOL0     C17883   5.679  11.228   1.631  0.2751 -0.9158 -0.5089
  133MOL0     C17884   5.607  11.196   1.542 -1.3919  1.1604  0.3408
  133MOL0     C17885   5.725  10.957   2.311  0.3710  0.7855 -0.5646
  133MOL0     C17886   5.681  10.896   2.432  1.1326 -0.0465  0.4809
  133MOL0     C17887   5.775  10.853   2.538  0.1880 -0.8055 -0.5971
  133MOL0     H17888   5.138  10.756   2.619  1.3103  3.6902 -1.3153
  133MOL0     H17889   5.019  10.685   2.829  1.6173 -1.9328  1.2158
  133MOL0     H17890   4.911  10.671   2.994  1.9069 -0.0161 -1.8682
  133MOL0     H17891   5.017  10.549   3.045 -1.1967  0.0085 -2.4717
  133MOL0     H17892   4.885  10.759   3.250 -6.2307 -0.1646 -0.8167
  133MOL0     H17893   4.976  10.589   3.272  1.6563 -1.3411 -1.7568
  133MOL0     H17894   4.794  10.491   3.160  1.1682  0.4286 -0.7145
  133MOL0     H17895   4.722  10.657   3.117  0.2578  0.2167 -0.7592
  133MOL0     H17896   4.736  10.573   3.397 -3.1742  0.3778  2.6070
  133MOL0     H17897   4.666  10.710   3.314  0.5078  0.5200 -3.8488
  133MOL0     H17898   4.579  10.418   3.291 -0.0521  0.1503  0.9516
  133MOL0     H17899   4.484  10.547   3.358 -0.1088 -1.0194  1.2522
  133MOL0     H17900   4.479  10.665   3.135  1.8349  0.4668  0.1597
  133MOL0     H17901   4.531  10.507   3.060 -1.4349 -1.3116  0.0743
  133MOL0     H17902   4.277  10.556   3.210 -1.5242  0.0478 -0.8846
  133MOL0     H17903   4.340  10.398   3.153 -1.2703 -0.2274 -2.4168
  133MOL0     H17904   4.339  10.463   2.925 -2.2568 -1.0736 -1.5963
  133MOL0     H17905   4.179  10.440   3.003 -0.0510  1.0916  2.2462
  133MOL0     H17906   4.436  10.692   2.840 -0.4355  2.7599 -1.2387
  133MOL0     H17907   4.276  11.029   2.796  1.1288 -0.1534 -0.6732
  133MOL0     H17908   4.426  10.951   2.743  0.5878  0.9871  0.5668
  133MOL0     H17909   4.334  10.842   2.552  1.3074  1.3244 -0.3506
  133MOL0     H17910   4.166  10.885   2.604 -0.8974  3.6989 -1.8514
  133MOL0     H17911   4.249  11.121   2.569  2.0577 -0.8907  3.7881
  133MOL0     H17912   4.210  11.009   2.431 -2.2299 -5.1015  2.0849
  133MOL0     H17913   4.489  11.055   2.558  1.5202 -1.3825 -0.5743
  133MOL0     H17914   4.426  11.157   2.426  0.8079 -0.4727 -1.5187
  133MOL0     H17915   4.669  10.883   2.251  0.7562  0.4508  0.0251
  133MOL0     H17916   4.755  10.921   2.031 -0.9346 -0.7308  0.9687
  133MOL0     H17917   4.701  11.333   1.607  0.0406 -0.6346  1.4689
  133MOL0     H17918   4.775  11.295   1.368  0.1079 -1.3519 -2.6966
  133MOL0     H17919   4.839  11.246   1.192 -5.1412 -0.4669  1.3542
  133MOL0     H17920   4.898  11.064   1.206 -2.7698 -1.6215  1.7821
  133MOL0     H17921   4.775  11.039   0.984 -3.0745  1.4356  0.7038
  133MOL0     H17922   4.744  11.210   1.007 -1.2986 -2.2242 -1.7144
  133MOL0     H17923   4.995  11.249   0.999  0.5081 -2.8813  2.9858
  133MOL0     H17924   5.006  11.077   0.956 -4.3121 -3.0278 -0.0322
  133MOL0     H17925   4.847  11.263   0.768  2.1690  2.1078 -0.5044
  133MOL0     H17926   4.851  11.086   0.774  2.6103 -0.6537 -1.1299
  133MOL0     H17927   5.102  11.088   0.726  1.7949 -0.3732 -1.8228
  133MOL0     H17928   5.097  11.264   0.726 -1.8073  1.5040 -3.6991
  133MOL0     H17929   4.947  11.094   0.519 -1.5080  2.6340 -0.9488
  133MOL0     H17930   4.955  11.267   0.532  0.5791 -0.8405 -2.8288
  133MOL0     H17931   5.202  11.103   0.490 -0.5888 -0.5863  0.3262
  133MOL0     H17932   5.195  11.274   0.527 -2.9930  2.6855 -1.7727
  133MOL0     H17933   5.086  11.340   0.360  0.5990 -0.9898  2.9464
  133MOL0     H17934   5.215  11.241   0.287 -0.6903 -3.9815 -1.0377
  133MOL0     H17935   4.560  10.917   1.386 -2.0623 -0.4040  3.7737
  133MOL0     H17936   4.516  10.950   1.622  3.0340 -0.7398  3.4121
  133MOL0     H17937   4.430  11.186   1.963  0.8763 -0.2629  0.4034
  133MOL0     H17938   4.345  11.144   2.214 -0.8991 -0.8663 -1.5331
  133MOL0     H17939   5.313  10.879   3.068 -0.3211 -0.1596  0.6163
  133MOL0     H17940   5.427  10.967   2.854  1.3130 -0.4548 -0.7896
  133MOL0     H17941   5.341  10.934   2.355  0.2653 -1.6382  1.7722
  133MOL0     H17942   5.443  11.065   2.153 -1.0381 -2.8425 -1.0886
  133MOL0     H17943   5.833  10.980   2.021  0.5415  0.6636 -0.8609
  133MOL0     H17944   5.900  11.090   2.140 -1.0664 -0.6708  1.8798
  133MOL0     H17945   5.934  11.186   1.921 -1.0822  2.1098 -0.9503
  133MOL0     H17946   5.827  11.290   2.015  1.8492  0.4088 -0.8853
  133MOL0     H17947   5.646  11.142   1.878 -1.4351  1.1920 -3.0286
  133MOL0     H17948   5.769  11.064   1.807 -1.4879 -0.3570  0.4265
  133MOL0     H17949   5.722  11.375   1.781 -0.9878 -1.0115  1.4236
  133MOL0     H17950   5.865  11.296   1.725  1.1889 -1.4151  4.0706
  133MOL0     H17951   5.550  11.177   1.453  0.3231  0.8036 -0.7375
  133MOL0     H17952   5.833  10.953   2.314  0.3026 -2.2342  1.4135
  133MOL0     H17953   5.868  10.814   2.495  1.9348  1.2745  1.0410
  133MOL0     H17954   5.813  10.942   2.589 -1.6948 -1.0819  1.4400
  133MOL0     H17955   5.735  10.794   2.621  0.7637  3.1066  2.7953
  134MOL0     O17956   5.696   3.939   8.240 -0.4633  0.2832  0.7497
  134MOL0     C17957   5.632   3.894   8.336  0.5710 -0.4375  0.7763
  134MOL0     O17958   5.545   3.971   8.408  0.3658  0.6043  0.6827
  134MOL0     C17959   5.546   4.105   8.376 -0.5568 -0.2880 -0.8766
  134MOL0     C17960   5.451   4.160   8.292 -0.0695 -0.2183 -0.0503
  134MOL0     C17961   5.449   4.297   8.270 -0.3024  0.2745  0.9511
  134MOL0     C17962   5.547   4.382   8.330  0.4033  0.1158  0.5674
  134MOL0     O17963   5.550   4.520   8.307 -0.5723  0.5246 -0.8153
  134MOL0     C17964   5.530   4.572   8.175  0.0859  0.7326  0.2446
  134MOL0     C17965   5.541   4.723   8.185  0.4767 -1.1777  0.6794
  134MOL0     C17966   5.499   4.806   8.054 -0.4224 -0.4383 -1.8721
  134MOL0     C17967   5.546   4.959   8.051  0.0957  0.4804  1.0603
  134MOL0     C17968   5.483   5.014   7.920  0.6697 -0.4949  0.6741
  134MOL0     C17969   5.548   4.982   7.789 -0.3690 -0.7943 -0.0856
  134MOL0     C17970   5.695   5.029   7.768  0.3067 -0.7488 -0.3126
  134MOL0     C17971   5.705   5.162   7.686  0.0186  0.8957 -0.2339
  134MOL0     N17972   5.632   5.274   7.754 -0.0766 -1.2137 -0.5806
  134MOL0     C17973   5.679   5.351   7.861 -0.4976  0.3118  0.1150
  134MOL0     C17974   5.568   5.418   7.901  0.0528  0.3902 -0.6374
  134MOL0     C17975   5.573   5.511   8.015 -0.2236  1.2029 -0.7703
  134MOL0     C17976   5.478   5.632   8.007 -0.9344 -0.0972 -0.0300
  134MOL0     C17977   5.419   5.657   8.151 -0.3700  0.3086 -0.0757
  134MOL0     C17978   5.280   5.574   8.165  0.8036  0.0737 -0.1647
  134MOL0     O17979   5.223   5.594   8.293 -0.1621  0.3660 -0.3690
  134MOL0     C17980   5.116   5.517   8.316 -0.3499 -0.0737 -0.2627
  134MOL0     C17981   4.987   5.549   8.260 -0.2236  0.1376 -0.1410
  134MOL0     C17982   4.889   5.466   8.298 -0.3267  0.2203 -0.0372
  134MOL0     C17983   4.904   5.338   8.354  0.0527 -0.4803  0.5250
  134MOL0     C17984   4.795   5.247   8.372  0.7395 -0.2219  0.7070
  134MOL0     O17985   4.826   5.139   8.454 -0.0012  0.7976  0.6944
  134MOL0     C17986   4.735   5.038   8.462 -0.6339 -0.3642 -0.4402
  134MOL0     C17987   4.637   5.051   8.551  0.0692  0.2540 -1.0891
  134MOL0     C17988   4.543   4.953   8.573 -0.1472  0.0997  0.1791
  134MOL0     C17989   4.549   4.834   8.511 -1.1760 -0.2191  0.2183
  134MOL0     O17990   4.469   4.732   8.565 -0.6233  0.1005 -0.3858
  134MOL0     C17991   4.520   4.597   8.561 -0.9362 -0.3401  0.7765
  134MOL0     C17992   4.406   4.497   8.559 -0.2704 -0.0789 -0.2437
  134MOL0     C17993   4.451   4.352   8.539 -0.1109 -0.8829  0.3980
  134MOL0     C17994   4.343   4.251   8.582 -0.3364  0.6363 -0.8551
  134MOL0     C17995   4.391   4.108   8.602  0.0842 -0.6899 -0.4508
  134MOL0     C17996   4.281   4.001   8.631  0.0266 -0.0797  0.0164
  134MOL0     C17997   4.188   4.035   8.743 -0.8959  0.3718 -0.4068
  134MOL0     C17998   4.078   3.931   8.783 -0.4068  0.4127 -0.5447
  134MOL0    Cl17999   4.002   3.860   8.646  0.2901  0.0860  0.8295
  134MOL0     C18000   4.643   4.823   8.410 -0.2148 -0.1768  0.4812
  134MOL0     C18001   4.737   4.924   8.376 -0.1484 -0.0720  0.2527
  134MOL0     O18002   4.689   5.281   8.319  0.1049 -0.0301  0.1797
  134MOL0     C18003   5.033   5.308   8.400 -0.3915 -0.6173  0.3329
  134MOL0     C18004   5.136   5.401   8.388 -0.4127 -0.5117 -0.1810
  134MOL0     N18005   5.467   5.385   7.822  0.5079  0.1367 -0.1069
  134MOL0     N18006   5.505   5.300   7.731  0.1664 -0.2521 -0.2219
  134MOL0     C18007   5.641   4.326   8.414 -0.4636  0.0699 -0.4025
  134MOL0     C18008   5.639   4.186   8.440  0.2255 -0.3027  0.2401
  134MOL0     C18009   5.635   3.746   8.366 -0.8207  0.2402 -0.1160
  134MOL0     C18010   5.563   3.705   8.480 -0.8528  0.0742  0.5573
  134MOL0     C18011   5.554   3.567   8.520  0.0182 -0.2448  0.6180
  134MOL0     C18012   5.603   3.464   8.435 -0.6263  0.0616 -0.0116
  134MOL0     O18013   5.581   3.330   8.472  0.2842  0.0803 -0.0824
  134MOL0     C18014   5.627   3.298   8.598 -0.2517 -0.3711 -0.6591
  134MOL0     C18015   5.640   3.148   8.611 -0.3199 -0.1749 -0.2697
  134MOL0     C18016   5.767   3.109   8.532  1.4471 -0.1770 -0.5377
  134MOL0     C18017   5.774   2.955   8.500 -0.5866 -0.2705  0.2623
  134MOL0     C18018   5.697   2.857   8.582  0.3445 -0.2197 -0.1201
  134MOL0     C18019   5.638   2.794   8.666 -0.5129  0.1443 -0.5882
  134MOL0     C18020   5.676   3.508   8.321 -0.4600 -0.1386 -0.4056
  134MOL0     C18021   5.685   3.647   8.282 -0.2953  0.5475  0.0112
  134MOL0     C18022   5.753   3.674   8.153 -0.6450  0.2011  0.0010
  134MOL0     H18023   5.389   4.087   8.239  3.0094 -1.2730 -2.4844
  134MOL0     H18024   5.382   4.340   8.196  4.4309  1.7250 -2.9660
  134MOL0     H18025   5.587   4.521   8.097  1.9539  1.3236  1.1778
  134MOL0     H18026   5.425   4.555   8.147 -0.0749  0.8675  0.7500
  134MOL0     H18027   5.648   4.736   8.199  0.0581  2.3543  1.3530
  134MOL0     H18028   5.477   4.752   8.269  1.3440 -2.5815  1.8669
  134MOL0     H18029   5.392   4.802   8.031 -0.7684  0.1581 -0.4664
  134MOL0     H18030   5.545   4.744   7.977  0.6584  1.4689 -2.8418
  134MOL0     H18031   5.510   5.010   8.141  0.3343 -0.0018  1.4316
  134MOL0     H18032   5.655   4.964   8.051  0.2593 -1.8812  0.7974
  134MOL0     H18033   5.377   4.990   7.909  0.7249 -0.3083 -0.3339
  134MOL0     H18034   5.486   5.123   7.928  2.6086 -0.6161  2.9473
  134MOL0     H18035   5.560   4.874   7.803  6.2063 -0.0082  5.6606
  134MOL0     H18036   5.478   4.988   7.705 -0.3910  0.5328  0.0062
  134MOL0     H18037   5.756   4.957   7.712 -0.1395 -1.1680 -0.2739
  134MOL0     H18038   5.739   5.038   7.867 -0.7003 -3.3842  0.4810
  134MOL0     H18039   5.812   5.176   7.673  0.0896  0.5164 -0.0595
  134MOL0     H18040   5.657   5.143   7.589  0.7079  1.6090 -0.7265
  134MOL0     H18041   5.781   5.359   7.896 -0.9763  0.8455  1.4360
  134MOL0     H18042   5.548   5.446   8.100 -0.7894 -0.7447 -2.3481
  134MOL0     H18043   5.678   5.535   8.033 -0.5855  0.7548  2.8349
  134MOL0     H18044   5.545   5.715   7.982  0.5996 -0.7608  1.6657
  134MOL0     H18045   5.393   5.615   7.940 -1.8625  0.0486  1.0684
  134MOL0     H18046   5.396   5.761   8.176 -2.7887 -1.1347  4.9109
  134MOL0     H18047   5.499   5.628   8.221 -0.1867  0.8709 -0.0434
  134MOL0     H18048   5.294   5.467   8.151 -1.4632 -0.2355 -0.4190
  134MOL0     H18049   5.214   5.607   8.084  0.4716 -0.6090 -0.1768
  134MOL0     H18050   4.962   5.627   8.189 -1.1323  1.1582  1.2600
  134MOL0     H18051   4.792   5.502   8.266 -1.3323 -0.4843  2.0251
  134MOL0     H18052   4.616   5.141   8.607  0.4762 -0.6720  0.6101
  134MOL0     H18053   4.460   4.972   8.640  1.2303  3.0387  1.2475
  134MOL0     H18054   4.581   4.584   8.471 -2.7293 -1.7568 -0.2989
  134MOL0     H18055   4.578   4.586   8.653 -2.2290  1.2449  1.8472
  134MOL0     H18056   4.351   4.504   8.654 -1.1989  1.5269 -0.8665
  134MOL0     H18057   4.331   4.510   8.481 -0.5313 -0.3311 -0.0380
  134MOL0     H18058   4.487   4.338   8.437 -2.3979  1.7410 -0.9058
  134MOL0     H18059   4.531   4.334   8.612  0.5647  1.0756  0.1887
  134MOL0     H18060   4.267   4.246   8.503 -0.6481 -1.9780 -0.4823
  134MOL0     H18061   4.291   4.284   8.673  1.2126  0.3993  0.1587
  134MOL0     H18062   4.468   4.105   8.680  1.8783 -1.0362 -2.1644
  134MOL0     H18063   4.437   4.064   8.513  0.7431 -1.0332  0.0511
  134MOL0     H18064   4.221   3.979   8.542  2.1477  0.4931 -1.6400
  134MOL0     H18065   4.340   3.912   8.652  1.2907  0.2934 -1.7193
  134MOL0     H18066   4.143   4.134   8.727 -1.1540  0.0058 -2.0924
  134MOL0     H18067   4.258   4.045   8.826  1.0193 -1.2791 -1.7305
  134MOL0     H18068   4.137   3.856   8.836  1.4265  3.2111  1.6570
  134MOL0     H18069   3.996   3.970   8.844 -1.9480  0.1403 -2.3403
  134MOL0     H18070   4.634   4.735   8.347 -1.7035 -3.3775  4.6479
  134MOL0     H18071   4.812   4.906   8.300  0.3525  0.2356  0.6731
  134MOL0     H18072   5.043   5.218   8.459 -0.6036  0.7118  2.5288
  134MOL0     H18073   5.231   5.384   8.435 -1.7489 -1.7236  2.2387
  134MOL0     H18074   5.722   4.381   8.460 -0.2787 -1.0031  0.6158
  134MOL0     H18075   5.713   4.143   8.507  1.7593  2.3430  0.3924
  134MOL0     H18076   5.518   3.776   8.548  0.0137  3.3327 -2.0137
  134MOL0     H18077   5.475   3.542   8.590 -0.8976 -1.4053 -0.7710
  134MOL0     H18078   5.549   3.335   8.665  0.9375  2.1606 -0.5276
  134MOL0     H18079   5.725   3.346   8.605 -0.9720  1.3462 -1.6149
  134MOL0     H18080   5.555   3.107   8.555 -0.8662 -0.1616  0.5329
  134MOL0     H18081   5.627   3.100   8.709  2.1727  0.9655  0.6924
  134MOL0     H18082   5.852   3.132   8.598  0.4847  2.6290 -0.1467
  134MOL0     H18083   5.785   3.175   8.446  0.5569  0.7937 -0.0057
  134MOL0     H18084   5.743   2.959   8.396 -1.9290 -1.9474  0.5550
  134MOL0     H18085   5.879   2.927   8.512  0.2033  2.9645  2.4038
  134MOL0     H18086   5.598   2.736   8.747  0.0794 -0.9136 -1.0314
  134MOL0     H18087   5.717   3.423   8.267  1.9337 -0.6140  1.9347
  134MOL0     H18088   5.832   3.748   8.157 -0.3069 -0.0415 -1.7371
  134MOL0     H18089   5.809   3.588   8.116  1.0041  1.1974  0.1201
  134MOL0     H18090   5.679   3.703   8.078 -1.1141  1.3406  0.8715
  135MOL0     O18091   2.933   9.314  11.244  0.2183  0.5926 -0.0413
  135MOL0     C18092   3.046   9.276  11.203  0.3010  0.0630  0.1105
  135MOL0     O18093   3.170   9.317  11.242 -0.5462 -0.0410 -0.5278
  135MOL0     C18094   3.185   9.433  11.313 -0.5116  0.3711 -0.1643
  135MOL0     C18095   3.120   9.458  11.438 -0.7297  0.3517 -0.0533
  135MOL0     C18096   3.133   9.580  11.498 -0.0395 -0.6424 -0.8979
  135MOL0     C18097   3.211   9.684  11.451  0.7265  0.4084  0.3945
  135MOL0     O18098   3.227   9.799  11.511 -0.6854 -0.5304  0.1412
  135MOL0     C18099   3.129   9.852  11.587  0.8519  0.5323  0.2932
  135MOL0     C18100   3.129  10.002  11.583  0.6429  0.0017 -1.1243
  135MOL0     C18101   3.130  10.058  11.725 -0.7025 -0.2399  0.2554
  135MOL0     C18102   3.131  10.217  11.713  0.3314  0.6526 -0.1748
  135MOL0     C18103   3.214  10.275  11.832  0.1464  0.1105 -0.2542
  135MOL0     C18104   3.180  10.421  11.839  0.9590  0.2661 -0.1538
  135MOL0     C18105   3.237  10.491  11.970 -0.0080  0.1674  0.1253
  135MOL0     C18106   3.176  10.628  11.969 -0.5216 -0.0545  0.5393
  135MOL0     N18107   3.188  10.679  12.104  0.2763  0.3301 -0.5189
  135MOL0     C18108   3.084  10.692  12.196  1.1116 -0.3734 -0.7427
  135MOL0     C18109   3.135  10.756  12.308 -0.5422  0.2528  0.6510
  135MOL0     C18110   3.071  10.777  12.432  1.0454 -0.1698  0.3154
  135MOL0     C18111   2.987  10.909  12.449  0.1365 -0.7210  0.2525
  135MOL0     C18112   2.854  10.893  12.369 -0.1585  0.0955  0.0159
  135MOL0     C18113   2.733  10.957  12.436 -0.7518  0.2057 -0.0682
  135MOL0     O18114   2.696  10.890  12.557 -0.8588  0.3259  1.2849
  135MOL0     C18115   2.705  10.948  12.670  0.9426  0.3481  0.3703
  135MOL0     C18116   2.641  11.067  12.695 -0.1306  0.3541  0.0133
  135MOL0     C18117   2.647  11.122  12.822 -1.0921 -0.2207  0.0284
  135MOL0     C18118   2.716  11.061  12.928 -0.5920 -0.4284 -0.6178
  135MOL0     C18119   2.761  11.132  13.046 -0.0424 -0.1662 -0.9482
  135MOL0     O18120   2.756  11.053  13.158  0.4845  0.2309 -0.1334
  135MOL0     C18121   2.833  11.095  13.259  0.4038  0.5580 -0.3606
  135MOL0     C18122   2.775  11.122  13.383 -0.3450  0.5004 -0.2936
  135MOL0     C18123   2.861  11.151  13.492  0.9847  0.7551  0.3443
  135MOL0     C18124   2.999  11.147  13.484 -0.0091 -0.7149  0.0982
  135MOL0     O18125   3.082  11.188  13.585 -0.4412 -0.5167 -1.1064
  135MOL0     C18126   3.204  11.255  13.546 -0.5160 -0.9202  0.0330
  135MOL0     C18127   3.285  11.332  13.655 -0.1927 -1.1602  0.1321
  135MOL0     C18128   3.444  11.323  13.626 -0.2256  0.9733  0.4255
  135MOL0     C18129   3.517  11.462  13.608 -0.5652  0.5356 -0.7278
  135MOL0     C18130   3.661  11.428  13.563 -0.4582 -0.3494  0.2577
  135MOL0     C18131   3.755  11.549  13.613 -0.4256  0.8776  0.3614
  135MOL0     C18132   3.775  11.572  13.761  0.8362 -0.0548  1.2244
  135MOL0     C18133   3.910  11.642  13.797 -0.0393 -0.8939  0.2062
  135MOL0    Cl18134   3.902  11.807  13.721 -0.3764  0.0130 -0.0914
  135MOL0     C18135   3.055  11.115  13.358 -0.1136 -0.4125  0.4052
  135MOL0     C18136   2.972  11.089  13.249  0.0679  0.3195 -0.0781
  135MOL0     O18137   2.789  11.254  13.043  0.6246  0.2004  0.1321
  135MOL0     C18138   2.777  10.935  12.901 -0.1575 -0.1460  0.5655
  135MOL0     C18139   2.770  10.879  12.773  0.4454 -0.3802  0.0782
  135MOL0     N18140   3.269  10.784  12.273  0.3235 -0.3294 -0.4369
  135MOL0     N18141   3.302  10.738  12.164  0.4403 -0.5925 -0.1125
  135MOL0     C18142   3.286   9.659  11.333 -0.8957 -0.6240  0.2761
  135MOL0     C18143   3.273   9.531  11.275  0.2129 -0.8184 -0.4943
  135MOL0     C18144   3.053   9.173  11.094 -0.4780  0.3968  0.3980
  135MOL0     C18145   3.178   9.137  11.030  0.2485  1.0213  0.9551
  135MOL0     C18146   3.193   9.042  10.926  0.1910  0.9460  0.8247
  135MOL0     C18147   3.079   8.965  10.894  0.5077  0.0326  0.3897
  135MOL0     O18148   3.092   8.863  10.801 -0.2216 -0.8289 -0.2279
  135MOL0     C18149   3.125   8.746  10.865  0.2673 -0.1411 -0.0092
  135MOL0     C18150   3.152   8.628  10.762  0.2667  0.4756 -0.0166
  135MOL0     C18151   3.233   8.495  10.812  0.3837  0.1974 -0.5929
  135MOL0     C18152   3.369   8.535  10.874  0.1421  0.0387 -0.3157
  135MOL0     C18153   3.362   8.530  11.019 -0.3897  0.9555  0.0184
  135MOL0     C18154   3.349   8.516  11.135  0.5877  0.3548 -0.3020
  135MOL0     C18155   2.956   9.000  10.946  0.3640  0.0281 -0.2574
  135MOL0     C18156   2.941   9.102  11.045  0.2800 -0.7042 -0.4789
  135MOL0     C18157   2.793   9.114  11.098 -0.7363  0.1518  0.2487
  135MOL0     H18158   3.067   9.377  11.486  1.0761 -0.8191  0.0536
  135MOL0     H18159   3.073   9.610  11.582 -1.2637  3.5098 -2.9881
  135MOL0     H18160   3.032   9.813  11.556  1.7197 -1.6708  0.1611
  135MOL0     H18161   3.135   9.808  11.687  0.2714 -1.4839 -0.4938
  135MOL0     H18162   3.030  10.024  11.541 -0.5496  0.9045  1.8924
  135MOL0     H18163   3.210  10.042  11.520  2.8694 -0.2472  1.3943
  135MOL0     H18164   3.226  10.027  11.767 -0.2133  1.7493  0.7195
  135MOL0     H18165   3.058  10.017  11.796  1.2251 -1.2533  1.7285
  135MOL0     H18166   3.170  10.239  11.613 -1.6887 -2.1786 -1.7204
  135MOL0     H18167   3.032  10.264  11.702  0.4001  0.4300 -2.1035
  135MOL0     H18168   3.176  10.231  11.925  2.2815 -2.2885 -0.3940
  135MOL0     H18169   3.319  10.257  11.807  1.3691  0.3140  3.9698
  135MOL0     H18170   3.225  10.472  11.753  0.5764  2.3184  0.8041
  135MOL0     H18171   3.072  10.438  11.841  0.8981 -0.1552  2.0004
  135MOL0     H18172   3.346  10.487  11.973 -0.0256 -3.6140  0.3564
  135MOL0     H18173   3.207  10.435  12.059  0.7837 -0.8570 -0.2380
  135MOL0     H18174   3.213  10.690  11.888  2.5226 -2.0243  0.2735
  135MOL0     H18175   3.068  10.642  11.953  0.0209  3.2342 -1.0520
  135MOL0     H18176   2.978  10.669  12.192  0.5348  1.5875  1.2852
  135MOL0     H18177   3.003  10.697  12.464 -1.5563  2.3148  1.4730
  135MOL0     H18178   3.152  10.783  12.505  0.3466  1.0692  1.0182
  135MOL0     H18179   2.973  10.925  12.556  0.3332  1.0626  0.0365
  135MOL0     H18180   3.058  10.986  12.417 -0.5542  0.1081  0.6908
  135MOL0     H18181   2.845  10.787  12.344 -1.7365 -0.2082  1.6644
  135MOL0     H18182   2.863  10.931  12.267  1.7215  0.4582  0.2785
  135MOL0     H18183   2.648  10.941  12.368 -0.8829  1.9917 -0.3644
  135MOL0     H18184   2.739  11.065  12.445 -1.1579  0.3496 -1.3471
  135MOL0     H18185   2.587  11.107  12.610  0.6573  2.0077  0.2611
  135MOL0     H18186   2.596  11.218  12.828 -0.4522  0.2294 -1.2786
  135MOL0     H18187   2.667  11.117  13.378 -0.2784 -2.1576 -0.9100
  135MOL0     H18188   2.818  11.180  13.588 -2.7331  4.2174 -2.0083
  135MOL0     H18189   3.265  11.179  13.497 -0.2295  0.1494 -1.3290
  135MOL0     H18190   3.180  11.330  13.470  3.2824 -0.4524 -0.9212
  135MOL0     H18191   3.262  11.438  13.643  0.9128 -1.2399 -5.5923
  135MOL0     H18192   3.250  11.297  13.753  1.9687 -1.6038  0.8054
  135MOL0     H18193   3.486  11.263  13.708 -3.0322  1.0504  2.0425
  135MOL0     H18194   3.458  11.270  13.531  0.1410 -0.5765  1.3033
  135MOL0     H18195   3.517  11.502  13.709  4.0111  1.2212 -0.8028
  135MOL0     H18196   3.473  11.525  13.530  2.1857  1.4366 -1.6537
  135MOL0     H18197   3.672  11.414  13.455 -2.5367 -2.6450  0.2440
  135MOL0     H18198   3.694  11.335  13.610  1.3207  0.1003 -0.0418
  135MOL0     H18199   3.855  11.518  13.580 -0.5711 -0.3173  0.9897
  135MOL0     H18200   3.723  11.638  13.558  1.3406  1.0258 -0.4870
  135MOL0     H18201   3.777  11.473  13.809  3.5798  0.5675  2.6027
  135MOL0     H18202   3.688  11.617  13.811  1.1040  2.9479 -0.7780
  135MOL0     H18203   3.925  11.641  13.905 -2.9725 -0.2058  0.7193
  135MOL0     H18204   3.984  11.585  13.740 -1.9798 -1.9045 -1.4707
  135MOL0     H18205   3.159  11.125  13.329 -0.0541  1.2265  1.0734
  135MOL0     H18206   3.010  11.054  13.154  1.6279  1.1080  0.2209
  135MOL0     H18207   2.835  10.882  12.976  0.4419 -0.4479 -0.0975
  135MOL0     H18208   2.805  10.781  12.742  3.0244  0.1310  1.1180
  135MOL0     H18209   3.353   9.735  11.297 -0.9931  0.1219  1.6137
  135MOL0     H18210   3.341   9.514  11.192  1.9329  0.4248  0.5762
  135MOL0     H18211   3.271   9.186  11.058  2.3446 -1.8534 -0.4883
  135MOL0     H18212   3.292   9.022  10.884 -0.2739 -1.1377  0.6042
  135MOL0     H18213   3.044   8.719  10.933  0.4933 -1.1811 -0.1435
  135MOL0     H18214   3.220   8.763  10.918  0.3521 -0.9483  0.1025
  135MOL0     H18215   3.217   8.649  10.676  0.8576 -1.2107 -0.0276
  135MOL0     H18216   3.057   8.591  10.724  1.1638 -3.0982  0.8755
  135MOL0     H18217   3.250   8.426  10.729  2.9230 -0.8838  0.7148
  135MOL0     H18218   3.162   8.449  10.883  0.9304  1.4947  0.8475
  135MOL0     H18219   3.437   8.452  10.857 -0.5322 -1.0246  1.8884
  135MOL0     H18220   3.390   8.637  10.838 -3.4935  0.5902 -1.3368
  135MOL0     H18221   3.336   8.505  11.240  1.8176 -1.6505 -0.3148
  135MOL0     H18222   2.869   8.953  10.901  0.9088 -0.3924 -0.8917
  135MOL0     H18223   2.740   9.184  11.034  1.4440  0.8055 -0.9593
  135MOL0     H18224   2.731   9.024  11.088  1.6853 -1.9117  2.3102
  135MOL0     H18225   2.787   9.139  11.205  1.4784 -3.6422  1.4820
  136MOL0     O18226   4.874   6.056   4.046  0.4502  0.6142  0.5990
  136MOL0     C18227   4.915   6.004   3.941 -0.3955  0.2982 -0.6253
  136MOL0     O18228   4.825   5.954   3.850  0.3760  0.8629  0.0659
  136MOL0     C18229   4.692   5.969   3.887  0.4785  0.2982 -0.2264
  136MOL0     C18230   4.630   5.883   3.980 -1.2802 -0.2550 -0.3761
  136MOL0     C18231   4.495   5.895   4.009 -0.7081 -0.2989 -0.0408
  136MOL0     C18232   4.415   5.989   3.940 -0.4465 -0.2703  0.0283
  136MOL0     O18233   4.279   5.997   3.949  0.0434 -0.2661  0.1622
  136MOL0     C18234   4.213   5.977   4.075 -0.6174 -0.3802 -0.4608
  136MOL0     C18235   4.066   6.004   4.056 -0.3433 -0.2479 -0.5905
  136MOL0     C18236   3.988   5.943   4.172 -0.6692 -0.6370  0.0137
  136MOL0     C18237   3.846   6.007   4.163  0.2499  0.0168 -0.0679
  136MOL0     C18238   3.754   5.974   4.277  0.6231  0.3589  0.0772
  136MOL0     C18239   3.687   5.840   4.245  0.1147 -0.6467 -1.2404
  136MOL0     C18240   3.585   5.816   4.346  0.3523 -0.7976  0.6267
  136MOL0     C18241   3.502   5.696   4.305 -0.4187  1.2932  0.1830
  136MOL0     N18242   3.397   5.645   4.390  0.3694  0.1804 -0.3978
  136MOL0     C18243   3.347   5.693   4.508 -0.1673 -0.4366  0.0545
  136MOL0     C18244   3.224   5.627   4.530 -0.8270 -0.2032  0.1179
  136MOL0     C18245   3.135   5.673   4.637  0.5115 -0.0342  0.4684
  136MOL0     C18246   3.137   5.560   4.751 -0.1325 -0.2575  0.3653
  136MOL0     C18247   3.080   5.424   4.720  0.3974  0.1859  0.5792
  136MOL0     C18248   2.923   5.428   4.693  0.7357  0.2216 -0.0923
  136MOL0     O18249   2.848   5.425   4.817  0.0382  0.2212  1.0922
  136MOL0     C18250   2.832   5.532   4.883  0.7126 -0.4293 -0.4580
  136MOL0     C18251   2.809   5.514   5.017 -0.1203  0.2323  0.4854
  136MOL0     C18252   2.806   5.622   5.107 -0.0084  0.6884  0.1381
  136MOL0     C18253   2.788   5.752   5.059 -0.7375 -0.0168 -0.2990
  136MOL0     C18254   2.767   5.875   5.134  0.2882 -1.0194 -0.2227
  136MOL0     O18255   2.793   5.996   5.067  0.5770 -0.3151 -0.2128
  136MOL0     C18256   2.762   6.112   5.125  1.1624  0.0202  0.0557
  136MOL0     C18257   2.832   6.153   5.228 -0.5100 -0.2801  0.4823
  136MOL0     C18258   2.812   6.281   5.290 -0.5619  0.0616 -0.7157
  136MOL0     C18259   2.714   6.372   5.234 -0.2755  0.0803  0.3382
  136MOL0     O18260   2.697   6.496   5.290  0.4197  0.0233 -0.5293
  136MOL0     C18261   2.571   6.503   5.363  0.0700  0.4174 -0.2797
  136MOL0     C18262   2.599   6.533   5.509 -0.2145  0.8428 -0.7356
  136MOL0     C18263   2.640   6.402   5.580  0.2262 -0.3579  1.5269
  136MOL0     C18264   2.652   6.409   5.730 -0.1388 -0.2009 -0.0350
  136MOL0     C18265   2.739   6.294   5.775 -0.1877 -0.1692 -0.7588
  136MOL0     C18266   2.686   6.158   5.719  0.0667  0.3699 -0.1404
  136MOL0     C18267   2.770   6.032   5.749  0.5217  0.1434 -0.0065
  136MOL0     C18268   2.715   5.907   5.684  0.2200 -0.3479  0.4734
  136MOL0    Cl18269   2.818   5.761   5.685 -0.5119  0.1978  0.0369
  136MOL0     C18270   2.647   6.331   5.122 -0.6728  0.8972  0.4292
  136MOL0     C18271   2.671   6.208   5.062 -0.7969 -0.5772 -0.2135
  136MOL0     O18272   2.744   5.872   5.250  0.3240 -0.3023  0.5818
  136MOL0     C18273   2.800   5.768   4.918  0.3521  0.0905 -0.1096
  136MOL0     C18274   2.821   5.661   4.833  0.5875 -0.5764 -0.2361
  136MOL0     N18275   3.205   5.543   4.423  0.3292 -0.6345 -0.6789
  136MOL0     N18276   3.306   5.551   4.344 -0.5070 -0.5924 -0.2954
  136MOL0     C18277   4.473   6.070   3.840  0.1108 -1.0540 -0.0109
  136MOL0     C18278   4.614   6.065   3.816  0.0172  0.3213 -0.3241
  136MOL0     C18279   5.063   5.997   3.899 -0.4890  0.4261 -0.9538
  136MOL0     C18280   5.105   5.937   3.775  0.4425 -0.2837 -1.4413
  136MOL0     C18281   5.238   5.921   3.731  0.0291  0.1920 -1.3436
  136MOL0     C18282   5.336   5.984   3.804 -0.2110 -0.2049 -0.1650
  136MOL0     O18283   5.465   5.973   3.755  0.4094 -0.0443 -0.5175
  136MOL0     C18284   5.566   6.054   3.813  0.3946 -0.5650  0.1287
  136MOL0     C18285   5.659   6.118   3.709 -0.3291  0.1120 -0.9866
  136MOL0     C18286   5.766   6.031   3.637  0.2802  0.0563 -0.1606
  136MOL0     C18287   5.855   6.109   3.541 -0.3301  0.4423 -0.0546
  136MOL0     C18288   5.794   6.176   3.434 -0.1776  0.3499  1.3599
  136MOL0     C18289   5.737   6.241   3.352 -0.6344  0.1114  0.8578
  136MOL0     C18290   5.300   6.034   3.937  0.0200  0.1314  0.5081
  136MOL0     C18291   5.170   6.040   3.990  0.5588  0.4529 -0.0935
  136MOL0     C18292   5.148   6.083   4.136 -0.1439  0.1577  0.3215
  136MOL0     H18293   4.684   5.810   4.039 -3.2732 -3.8750 -2.6455
  136MOL0     H18294   4.448   5.827   4.079  1.7230 -0.7473  1.2584
  136MOL0     H18295   4.217   5.874   4.110  1.3436 -0.6597 -1.3755
  136MOL0     H18296   4.257   6.044   4.149  0.4365  1.4144 -2.5765
  136MOL0     H18297   4.025   5.969   3.961  1.9410 -0.4949 -1.5585
  136MOL0     H18298   4.050   6.112   4.060  0.4684 -0.1436  0.4500
  136MOL0     H18299   4.037   5.964   4.268  3.1269 -1.7816 -1.4688
  136MOL0     H18300   3.992   5.834   4.165 -0.9541 -0.8633  2.4045
  136MOL0     H18301   3.853   6.115   4.156 -0.4873  0.0480 -0.4360
  136MOL0     H18302   3.803   5.967   4.070 -1.8672  2.4551 -0.2245
  136MOL0     H18303   3.807   5.973   4.373 -1.4285 -2.3914  1.3361
  136MOL0     H18304   3.674   6.048   4.289  1.9954  1.7175  1.3510
  136MOL0     H18305   3.629   5.849   4.153 -1.1132  0.9584 -0.3558
  136MOL0     H18306   3.755   5.755   4.239  2.3570  1.0319 -1.0047
  136MOL0     H18307   3.518   5.902   4.340  1.3170 -0.0694 -4.6636
  136MOL0     H18308   3.628   5.798   4.445 -0.2229  0.5435  1.1430
  136MOL0     H18309   3.472   5.705   4.201 -1.5974 -4.2889 -0.2658
  136MOL0     H18310   3.573   5.613   4.316 -1.1368  0.6366 -0.0705
  136MOL0     H18311   3.377   5.779   4.567 -0.0920  1.7753 -2.9659
  136MOL0     H18312   3.173   5.762   4.687  5.0777 -1.6949  0.5172
  136MOL0     H18313   3.041   5.685   4.584  1.8661  0.3800 -2.0091
  136MOL0     H18314   3.242   5.544   4.776 -0.4712 -1.8544  0.8617
  136MOL0     H18315   3.086   5.597   4.840 -1.7128  1.6478 -1.2255
  136MOL0     H18316   3.100   5.342   4.790 -2.7883 -0.2046  1.1903
  136MOL0     H18317   3.112   5.389   4.621 -1.0206 -1.0485  0.5192
  136MOL0     H18318   2.899   5.336   4.638  2.2378 -0.1793 -0.1434
  136MOL0     H18319   2.880   5.497   4.620 -0.3017  0.4537  0.7266
  136MOL0     H18320   2.802   5.412   5.056 -2.0274  0.4674  0.8672
  136MOL0     H18321   2.798   5.605   5.213  1.6823  2.6418  0.6406
  136MOL0     H18322   2.891   6.076   5.277  3.8264  2.0873 -0.4179
  136MOL0     H18323   2.865   6.308   5.381  0.6818 -1.8244 -0.8228
  136MOL0     H18324   2.511   6.584   5.322 -0.7176 -0.1073 -0.1910
  136MOL0     H18325   2.510   6.413   5.357  3.9134 -2.6729  1.9774
  136MOL0     H18326   2.687   6.598   5.519  0.0378  0.2677  1.2542
  136MOL0     H18327   2.520   6.584   5.565  1.5616  0.1891  2.6708
  136MOL0     H18328   2.569   6.326   5.548 -0.1519  0.5956 -0.0120
  136MOL0     H18329   2.741   6.367   5.554  0.3463  0.7514  0.3758
  136MOL0     H18330   2.555   6.412   5.780 -1.5336  0.4714 -2.6407
  136MOL0     H18331   2.696   6.506   5.754 -1.2364  0.6833 -1.4731
  136MOL0     H18332   2.744   6.299   5.884  1.7563  3.6438 -0.8690
  136MOL0     H18333   2.839   6.315   5.736 -0.1788  0.2501 -0.5176
  136MOL0     H18334   2.579   6.143   5.740  0.2520 -3.2639 -1.2039
  136MOL0     H18335   2.704   6.158   5.612  0.0451  1.3308 -0.1528
  136MOL0     H18336   2.804   6.019   5.852  4.1289  0.7921 -0.9626
  136MOL0     H18337   2.868   6.056   5.708  0.2639  0.0812 -0.6732
  136MOL0     H18338   2.621   5.882   5.733 -0.6511  1.9032  0.0637
  136MOL0     H18339   2.687   5.930   5.581 -2.4287  0.6395  1.3275
  136MOL0     H18340   2.592   6.402   5.062  0.0733 -0.1054 -1.5341
  136MOL0     H18341   2.623   6.172   4.971 -2.8145 -1.2502  1.0398
  136MOL0     H18342   2.804   5.868   4.875 -1.3391 -0.3496 -1.3862
  136MOL0     H18343   2.846   5.693   4.732 -0.5576  1.0931 -0.0300
  136MOL0     H18344   4.399   6.130   3.789 -1.2970 -3.3641 -0.8642
  136MOL0     H18345   4.672   6.115   3.740 -0.2202 -0.2894 -0.9152
  136MOL0     H18346   5.028   5.901   3.707  0.9725  0.2818 -2.3577
  136MOL0     H18347   5.248   5.863   3.639 -0.2466 -0.0638 -1.2139
  136MOL0     H18348   5.633   5.988   3.869 -1.8069 -0.4032  3.2804
  136MOL0     H18349   5.519   6.133   3.873 -1.9278 -1.3682 -0.5234
  136MOL0     H18350   5.716   6.192   3.765 -1.4042  1.0780 -1.1371
  136MOL0     H18351   5.608   6.181   3.635  1.2044  0.7069 -1.5823
  136MOL0     H18352   5.717   5.954   3.578  1.0747 -0.8392  0.3138
  136MOL0     H18353   5.819   5.977   3.716  0.0317  0.1464  0.0683
  136MOL0     H18354   5.903   6.188   3.600  2.0260 -2.1348  1.8000
  136MOL0     H18355   5.932   6.037   3.511  2.3952  3.8161 -1.9298
  136MOL0     H18356   5.685   6.297   3.276  0.1313 -1.7875 -1.1920
  136MOL0     H18357   5.371   6.071   4.011 -0.3872 -0.7347  1.3623
  136MOL0     H18358   5.101   6.182   4.147  2.8884  1.7031  0.5788
  136MOL0     H18359   5.104   6.007   4.200  0.7846  0.2822  1.1345
  136MOL0     H18360   5.241   6.110   4.188  0.1992  1.1378 -0.7521
  137MOL0     O18361   9.564   0.415   1.223 -0.9470 -0.0434 -1.1628
  137MOL0     C18362   9.455   0.408   1.171 -0.2447 -0.0070  1.0751
  137MOL0     O18363   9.371   0.523   1.166  0.0545 -0.5065  0.2890
  137MOL0     C18364   9.409   0.624   1.249  0.2772 -1.0702 -0.2043
  137MOL0     C18365   9.530   0.689   1.229 -0.7385 -0.3158 -0.3257
  137MOL0     C18366   9.562   0.809   1.284 -0.4699  0.6179  0.7983
  137MOL0     C18367   9.455   0.872   1.351 -0.9497  0.5751  0.5721
  137MOL0     O18368   9.485   0.999   1.399  0.0003 -0.2347 -0.3958
  137MOL0     C18369   9.498   0.996   1.539 -0.1183  1.1555  0.3616
  137MOL0     C18370   9.546   1.143   1.560  0.1454  0.4006 -0.2432
  137MOL0     C18371   9.507   1.201   1.698 -0.1838  0.4441  0.0836
  137MOL0     C18372   9.582   1.326   1.737  0.3536 -0.6758  0.4657
  137MOL0     C18373   9.634   1.322   1.878 -0.2217  0.4190  0.8000
  137MOL0     C18374   9.523   1.327   1.987 -1.3424 -1.0395 -0.9089
  137MOL0     C18375   9.431   1.454   1.984 -1.2056 -0.6948  0.1301
  137MOL0     C18376   9.506   1.595   1.980  0.4059 -0.1752 -0.9410
  137MOL0     N18377   9.439   1.694   1.892  0.1431 -0.7618 -0.4832
  137MOL0     C18378   9.338   1.786   1.944 -0.2416  1.6095  1.5945
  137MOL0     C18379   9.289   1.849   1.834 -0.5546  0.2568  0.9882
  137MOL0     C18380   9.179   1.956   1.855  0.4459 -1.1359  0.1534
  137MOL0     C18381   9.036   1.908   1.815 -0.2496  0.8163 -0.2149
  137MOL0     C18382   8.933   2.028   1.806 -0.6395  0.0729  0.5909
  137MOL0     C18383   8.798   1.980   1.760 -0.1506  0.3656 -0.6253
  137MOL0     O18384   8.752   1.901   1.864 -0.3349  0.0002  0.2396
  137MOL0     C18385   8.666   1.793   1.843 -0.0097 -0.5831 -0.3871
  137MOL0     C18386   8.632   1.716   1.952  0.5748  0.8100 -0.4399
  137MOL0     C18387   8.538   1.622   1.929 -0.3688  0.7081 -0.2492
  137MOL0     C18388   8.462   1.601   1.814  0.2273 -0.2463 -0.5149
  137MOL0     C18389   8.350   1.507   1.799  0.0412 -0.0991  0.4220
  137MOL0     O18390   8.304   1.453   1.909 -0.1814 -0.5163 -0.2101
  137MOL0     C18391   8.205   1.357   1.908 -0.0671  0.2592  0.6681
  137MOL0     C18392   8.231   1.227   1.881  1.3461  0.6686  0.3677
  137MOL0     C18393   8.128   1.125   1.891  0.6514 -0.6963  0.3631
  137MOL0     C18394   7.999   1.162   1.938 -0.1425 -1.2796 -0.0777
  137MOL0     O18395   7.897   1.079   1.948 -0.5409  0.3563  0.4920
  137MOL0     C18396   7.932   0.975   2.037  0.0514  0.2109  0.7917
  137MOL0     C18397   7.800   0.878   2.021 -1.6000 -0.4246  0.0570
  137MOL0     C18398   7.715   0.881   2.143  0.3255  0.0850 -0.0521
  137MOL0     C18399   7.653   1.019   2.166  0.7098  0.4403 -0.1067
  137MOL0     C18400   7.541   1.003   2.269 -0.6445 -0.3016 -0.0619
  137MOL0     C18401   7.464   1.135   2.312 -1.5839  0.7017  0.5692
  137MOL0     C18402   7.370   1.092   2.428  0.3219 -0.1360  0.2368
  137MOL0     C18403   7.253   1.003   2.378 -0.7762 -0.0124  0.2952
  137MOL0    Cl18404   7.224   0.903   2.524  0.5565 -0.1396  0.4051
  137MOL0     C18405   7.975   1.295   1.967 -0.5293 -0.6926  0.6999
  137MOL0     C18406   8.077   1.392   1.952  0.9927 -0.5820  0.1953
  137MOL0     O18407   8.308   1.469   1.689 -0.3780 -0.1219  0.2903
  137MOL0     C18408   8.494   1.685   1.703  0.6174  0.7060 -1.0558
  137MOL0     C18409   8.592   1.777   1.723 -0.3765  0.8321  0.0506
  137MOL0     N18410   9.351   1.789   1.723 -0.6877 -0.1853  0.2189
  137MOL0     N18411   9.434   1.692   1.760 -0.4216  0.8083 -0.7474
  137MOL0     C18412   9.329   0.811   1.360  0.2287  0.2662 -1.0468
  137MOL0     C18413   9.305   0.684   1.318 -0.6885 -0.7964  0.2065
  137MOL0     C18414   9.419   0.280   1.100 -0.2082 -0.9396  0.7422
  137MOL0     C18415   9.301   0.277   1.019  0.6669 -0.3560  0.6935
  137MOL0     C18416   9.246   0.159   0.970  0.8523  0.7925  0.6346
  137MOL0     C18417   9.302   0.036   0.994 -0.5048 -0.2245  0.3357
  137MOL0     O18418   9.254  -0.079   0.944  0.4302 -0.2507 -0.7161
  137MOL0     C18419   9.206  -0.085   0.814 -0.3285  0.2287  0.6156
  137MOL0     C18420   9.316  -0.143   0.736 -0.5841 -0.2088 -0.0053
  137MOL0     C18421   9.354  -0.289   0.788 -0.5263 -0.4391  0.1912
  137MOL0     C18422   9.262  -0.404   0.730 -0.0529  0.1165  0.1551
  137MOL0     C18423   9.252  -0.418   0.587 -0.3258  0.3500  0.4500
  137MOL0     C18424   9.276  -0.439   0.474 -0.3304  0.2698  0.4305
  137MOL0     C18425   9.425   0.039   1.064 -0.5382  0.2959 -0.1235
  137MOL0     C18426   9.485   0.159   1.112 -0.6799  0.2970 -0.1637
  137MOL0     C18427   9.621   0.148   1.186  0.2782 -0.0024 -0.9638
  137MOL0     H18428   9.602   0.641   1.163  0.9551 -4.5939  3.9565
  137MOL0     H18429   9.664   0.845   1.271 -0.8762  2.1476  1.5835
  137MOL0     H18430   9.402   0.986   1.589 -0.5626 -0.9067 -0.7816
  137MOL0     H18431   9.573   0.927   1.577 -0.8103  0.8242  1.1501
  137MOL0     H18432   9.500   1.207   1.484 -0.0010  1.1453  0.4705
  137MOL0     H18433   9.654   1.137   1.543  0.4492 -1.1361  1.7875
  137MOL0     H18434   9.516   1.129   1.780  2.6192  1.1502  0.5105
  137MOL0     H18435   9.398   1.210   1.690 -0.6019  0.3743  3.7803
  137MOL0     H18436   9.667   1.366   1.681  1.6806 -1.9942  1.4566
  137MOL0     H18437   9.513   1.411   1.730  0.8174 -0.1174  2.1797
  137MOL0     H18438   9.703   1.237   1.884 -0.1204  0.4720  0.4245
  137MOL0     H18439   9.708   1.402   1.883  1.7233 -1.2751  0.6832
  137MOL0     H18440   9.458   1.240   1.976  0.4622 -2.4657 -0.7733
  137MOL0     H18441   9.560   1.302   2.088 -1.1026  2.0110 -0.1251
  137MOL0     H18442   9.358   1.456   2.065 -1.7405 -0.8769 -0.3352
  137MOL0     H18443   9.379   1.441   1.889 -0.8523 -0.4020 -0.1104
  137MOL0     H18444   9.492   1.643   2.078 -1.2551  1.0401 -1.7302
  137MOL0     H18445   9.613   1.595   1.955  0.9733 -1.0581  1.2464
  137MOL0     H18446   9.310   1.802   2.047 -1.6858  0.8852  1.3308
  137MOL0     H18447   9.175   2.001   1.955  1.6136 -2.3533  0.7842
  137MOL0     H18448   9.201   2.029   1.778 -1.6762 -2.7956 -2.2006
  137MOL0     H18449   9.034   1.854   1.719 -1.3473  0.5936 -0.0889
  137MOL0     H18450   8.991   1.829   1.875 -0.1902  0.9841  0.0490
  137MOL0     H18451   8.970   2.104   1.736  1.0226 -0.6632  0.6337
  137MOL0     H18452   8.922   2.068   1.907 -2.9211 -0.1389  0.4816
  137MOL0     H18453   8.798   1.924   1.666 -1.6317 -0.9586  0.1057
  137MOL0     H18454   8.732   2.067   1.754 -0.6237 -0.0204 -1.0953
  137MOL0     H18455   8.685   1.735   2.045  1.4447 -1.4430 -0.3992
  137MOL0     H18456   8.507   1.566   2.016 -0.8459  0.5925 -0.4900
  137MOL0     H18457   8.326   1.204   1.834  1.3282 -0.8061  0.9898
  137MOL0     H18458   8.148   1.026   1.852 -0.2743 -0.8397  0.2361
  137MOL0     H18459   8.017   0.920   1.998  0.6035  0.0638  2.1410
  137MOL0     H18460   7.957   0.992   2.142 -0.1082 -6.1349  2.2210
  137MOL0     H18461   7.739   0.893   1.932 -1.2991 -0.7952 -0.2146
  137MOL0     H18462   7.834   0.775   2.012  0.8862  0.1961  1.2099
  137MOL0     H18463   7.630   0.812   2.136  1.1225 -0.8842 -0.6340
  137MOL0     H18464   7.778   0.842   2.224  2.6377  2.2125 -0.7011
  137MOL0     H18465   7.599   1.054   2.077 -2.6030  0.0861  1.5954
  137MOL0     H18466   7.725   1.098   2.192  2.6947 -1.7381  1.3776
  137MOL0     H18467   7.586   0.955   2.357 -0.7857 -0.0549  0.1429
  137MOL0     H18468   7.470   0.934   2.222  0.6709 -1.5355 -0.3154
  137MOL0     H18469   7.538   1.212   2.334  0.3533 -0.6032 -0.9516
  137MOL0     H18470   7.409   1.164   2.222 -1.6074  0.2369  0.4294
  137MOL0     H18471   7.318   1.175   2.475 -1.7814 -1.8348  1.0562
  137MOL0     H18472   7.435   1.033   2.493  1.3232  2.0263  1.2796
  137MOL0     H18473   7.165   1.061   2.349 -0.8542 -0.5799 -0.6540
  137MOL0     H18474   7.274   0.928   2.301  1.9716 -0.9171  1.7979
  137MOL0     H18475   7.878   1.324   2.007  0.1415  0.8886  1.2591
  137MOL0     H18476   8.055   1.496   1.972 -2.9986 -1.0000 -1.2041
  137MOL0     H18477   8.447   1.669   1.606  0.5449  0.7095 -1.0212
  137MOL0     H18478   8.629   1.823   1.632 -0.6675 -2.7709 -2.0869
  137MOL0     H18479   9.251   0.861   1.415  1.9085  2.8089 -0.8045
  137MOL0     H18480   9.207   0.638   1.322 -1.0141 -0.1658 -0.4968
  137MOL0     H18481   9.244   0.369   1.012 -0.2498 -1.0007 -1.7880
  137MOL0     H18482   9.150   0.152   0.920  1.2690  0.5970 -0.1507
  137MOL0     H18483   9.170   0.003   0.761 -2.5622 -1.2316 -0.4448
  137MOL0     H18484   9.121  -0.154   0.820  2.5953 -3.9108 -0.9533
  137MOL0     H18485   9.390  -0.063   0.733  1.6714 -2.1578  0.1980
  137MOL0     H18486   9.279  -0.164   0.635  0.0021  0.2432 -0.3192
  137MOL0     H18487   9.368  -0.290   0.896  1.1875  4.2769  0.2585
  137MOL0     H18488   9.454  -0.309   0.748 -0.2040 -1.2014  1.3348
  137MOL0     H18489   9.310  -0.493   0.773  2.4017  1.6467  0.8073
  137MOL0     H18490   9.165  -0.392   0.778  0.6913  2.7225  1.1592
  137MOL0     H18491   9.282  -0.442   0.368  1.8451  0.1315  0.5277
  137MOL0     H18492   9.474  -0.053   1.095 -1.8585 -1.2145 -2.2840
  137MOL0     H18493   9.657   0.045   1.177 -1.9964 -1.1765  1.8359
  137MOL0     H18494   9.698   0.209   1.139 -0.0168  1.8145  0.7489
  137MOL0     H18495   9.607   0.170   1.292 -0.6733  1.9691 -1.4536
  138MOL0     O18496   0.255   2.530   7.289  0.2892  0.2311 -0.0503
  138MOL0     C18497   0.239   2.459   7.192  1.3116  0.9084  0.1243
  138MOL0     O18498   0.272   2.322   7.186  0.4575 -0.0142 -0.4946
  138MOL0     C18499   0.322   2.268   7.301 -1.1972 -0.8110  0.0040
  138MOL0     C18500   0.463   2.246   7.311  0.9805 -0.1782  0.9189
  138MOL0     C18501   0.517   2.173   7.418 -0.9683 -0.3318 -0.5116
  138MOL0     C18502   0.436   2.151   7.531  0.5754 -0.1650  0.8997
  138MOL0     O18503   0.462   2.084   7.645  0.5387 -0.4160  0.4041
  138MOL0     C18504   0.585   2.013   7.654  0.1152  0.6034  0.9516
  138MOL0     C18505   0.588   1.884   7.565 -0.1389 -1.1448  0.1244
  138MOL0     C18506   0.505   1.779   7.621 -0.1513 -0.3085 -0.1756
  138MOL0     C18507   0.491   1.661   7.524  0.4140  0.0449  0.8902
  138MOL0     C18508   0.403   1.558   7.574 -0.0722  0.1236 -0.2333
  138MOL0     C18509   0.431   1.421   7.511 -1.0175 -0.1021 -1.0741
  138MOL0     C18510   0.330   1.314   7.551 -0.3144  0.3166  0.5460
  138MOL0     C18511   0.389   1.170   7.541 -0.2327 -0.2260 -0.1348
  138MOL0     N18512   0.334   1.098   7.656  0.3396 -0.0053 -0.0957
  138MOL0     C18513   0.212   1.026   7.659 -0.4808  0.0937  0.7383
  138MOL0     C18514   0.206   0.979   7.785  0.3569 -1.0019 -0.2244
  138MOL0     C18515   0.101   0.886   7.837  0.9667  0.5784 -0.3287
  138MOL0     C18516  -0.047   0.937   7.821 -0.6964 -0.2559 -0.1790
  138MOL0     C18517  -0.146   0.827   7.838  1.2847  0.1588  0.1277
  138MOL0     C18518  -0.121   0.708   7.742 -0.0665 -0.5644  0.6594
  138MOL0     O18519  -0.240   0.635   7.713  0.3847  0.4824 -0.6145
  138MOL0     C18520  -0.306   0.545   7.796 -0.5241 -0.3633  0.5528
  138MOL0     C18521  -0.273   0.517   7.932  0.4129 -0.8242 -0.2539
  138MOL0     C18522  -0.357   0.437   8.016 -0.1228  0.7108  0.0536
  138MOL0     C18523  -0.465   0.364   7.954 -0.8007 -0.1083  0.5564
  138MOL0     C18524  -0.537   0.259   8.024 -0.0957 -0.0139  0.0659
  138MOL0     O18525  -0.468   0.159   8.084 -0.4408  0.0132 -0.0686
  138MOL0     C18526  -0.530   0.052   8.139  1.2282  0.0721  1.4662
  138MOL0     C18527  -0.520  -0.077   8.082  0.0795 -0.0492 -0.0923
  138MOL0     C18528  -0.591  -0.183   8.143  0.3520  0.0227  0.3746
  138MOL0     C18529  -0.679  -0.153   8.250 -0.6332  0.1288  0.2136
  138MOL0     O18530  -0.771  -0.254   8.285 -0.5917 -0.2885 -0.3368
  138MOL0     C18531  -0.764  -0.298   8.417 -0.4591 -0.0684 -0.9406
  138MOL0     C18532  -0.833  -0.434   8.432 -0.5101  0.2250  0.3032
  138MOL0     C18533  -0.732  -0.548   8.403  0.8645 -0.4284 -0.4329
  138MOL0     C18534  -0.787  -0.673   8.338 -0.2062  0.8438 -0.6584
  138MOL0     C18535  -0.819  -0.773   8.451  0.0998 -0.5684 -0.2894
  138MOL0     C18536  -0.756  -0.912   8.410 -0.5134 -0.4294 -0.1786
  138MOL0     C18537  -0.774  -1.020   8.523  0.5878  0.5928 -0.1447
  138MOL0     C18538  -0.868  -1.128   8.474  0.1757 -0.0068 -0.3523
  138MOL0    Cl18539  -1.042  -1.074   8.466 -0.2614 -0.1173  0.3023
  138MOL0     C18540  -0.684  -0.025   8.304 -0.3284 -0.0972  0.0670
  138MOL0     C18541  -0.610   0.074   8.258  0.0552 -0.5530  1.1653
  138MOL0     O18542  -0.655   0.259   8.004 -0.2412  1.0795  0.2575
  138MOL0     C18543  -0.494   0.397   7.821  0.3336  0.2104 -0.9012
  138MOL0     C18544  -0.418   0.477   7.743  0.3027  0.5822  0.6416
  138MOL0     N18545   0.315   1.030   7.856 -0.0955 -0.0479 -0.2286
  138MOL0     N18546   0.390   1.109   7.784  0.4253  0.3429  0.7437
  138MOL0     C18547   0.300   2.184   7.524  0.4564  0.3244  0.0027
  138MOL0     C18548   0.245   2.232   7.402  0.7133 -1.3234  0.2512
  138MOL0     C18549   0.193   2.520   7.066  0.9947  0.1569 -0.0594
  138MOL0     C18550   0.248   2.642   7.018 -0.3356 -0.2336 -0.1149
  138MOL0     C18551   0.195   2.697   6.896  0.3542  0.6051  0.1321
  138MOL0     C18552   0.108   2.627   6.819 -0.1136  0.0427  0.4306
  138MOL0     O18553   0.036   2.667   6.710  0.3090 -0.9956  0.7316
  138MOL0     C18554   0.023   2.801   6.667  0.6653  0.4320  0.1170
  138MOL0     C18555   0.149   2.827   6.585 -0.0298 -0.2218 -0.4405
  138MOL0     C18556   0.143   2.765   6.442 -0.6728  0.8273 -0.4984
  138MOL0     C18557   0.273   2.715   6.374 -0.1629  0.0850 -0.3687
  138MOL0     C18558   0.372   2.829   6.389  0.0940  0.9256 -0.0491
  138MOL0     C18559   0.457   2.919   6.388  0.1117  0.2561 -1.5538
  138MOL0     C18560   0.075   2.498   6.856  0.6213  0.2324 -0.7986
  138MOL0     C18561   0.099   2.449   6.986 -0.1193 -0.1461  0.5660
  138MOL0     C18562   0.019   2.334   7.025  0.1494  0.3129  0.5958
  138MOL0     H18563   0.527   2.274   7.227  1.2743  0.4027  1.3359
  138MOL0     H18564   0.620   2.143   7.403 -0.6343 -0.5003  1.8714
  138MOL0     H18565   0.657   2.080   7.606 -1.6167 -0.1668 -3.1431
  138MOL0     H18566   0.604   1.989   7.759 -2.2919 -2.4093  0.8373
  138MOL0     H18567   0.688   1.840   7.565  1.0780  1.3289  1.7732
  138MOL0     H18568   0.561   1.925   7.468  2.8659  3.6957  0.9690
  138MOL0     H18569   0.408   1.827   7.633  0.7185  1.2756  0.9907
  138MOL0     H18570   0.538   1.744   7.720  0.0483  0.6967  0.1214
  138MOL0     H18571   0.446   1.700   7.432 -0.7330 -1.6010  0.7174
  138MOL0     H18572   0.589   1.623   7.493  2.3778  4.2593  1.1899
  138MOL0     H18573   0.406   1.546   7.683 -2.2026 -0.3540 -0.1882
  138MOL0     H18574   0.299   1.580   7.546  0.4848 -1.1990 -3.8134
  138MOL0     H18575   0.429   1.433   7.403  1.5917 -1.7077 -1.3923
  138MOL0     H18576   0.530   1.384   7.539 -1.2568 -1.1775 -1.6271
  138MOL0     H18577   0.245   1.329   7.484  0.7322  0.4386 -0.8083
  138MOL0     H18578   0.309   1.325   7.658 -0.8153  1.6985  0.3274
  138MOL0     H18579   0.355   1.127   7.447 -1.3725  3.8007 -1.8170
  138MOL0     H18580   0.499   1.175   7.545 -0.2649  1.4609 -0.3746
  138MOL0     H18581   0.140   1.013   7.578  0.0416 -0.6696  0.3820
  138MOL0     H18582   0.114   0.797   7.775 -0.2450 -0.1466  0.4370
  138MOL0     H18583   0.118   0.849   7.938 -0.1887 -0.5246 -0.5169
  138MOL0     H18584  -0.062   0.995   7.912 -1.2378 -0.8081  0.0939
  138MOL0     H18585  -0.063   0.987   7.725 -2.6908  0.7319  0.6102
  138MOL0     H18586  -0.246   0.872   7.838  1.5300  0.7383  1.1127
  138MOL0     H18587  -0.130   0.798   7.942  0.0398  2.5428  1.0556
  138MOL0     H18588  -0.047   0.633   7.770 -1.2641 -2.3284 -0.7155
  138MOL0     H18589  -0.103   0.767   7.652 -2.7160  3.7297  2.5769
  138MOL0     H18590  -0.190   0.575   7.972  0.3288  1.3822 -2.9971
  138MOL0     H18591  -0.350   0.431   8.125 -3.4720 -1.0749  0.2936
  138MOL0     H18592  -0.464  -0.096   7.991 -0.8072 -2.6671 -0.1746
  138MOL0     H18593  -0.584  -0.281   8.096 -0.8649 -0.4709  1.2037
  138MOL0     H18594  -0.657  -0.309   8.439 -0.4309  1.8464  0.0845
  138MOL0     H18595  -0.802  -0.224   8.488  0.6051  0.8431 -1.2895
  138MOL0     H18596  -0.885  -0.437   8.528 -0.6359 -0.1464  0.2259
  138MOL0     H18597  -0.910  -0.441   8.354 -2.4009 -0.7133  2.1379
  138MOL0     H18598  -0.659  -0.511   8.330 -2.2196 -0.3867 -3.8120
  138MOL0     H18599  -0.685  -0.562   8.500  1.3451  0.1644 -0.5703
  138MOL0     H18600  -0.716  -0.717   8.268 -0.5706 -0.7862 -0.0478
  138MOL0     H18601  -0.880  -0.649   8.286 -1.6605 -2.0657  0.3644
  138MOL0     H18602  -0.928  -0.784   8.452 -0.3308  1.8949 -3.4246
  138MOL0     H18603  -0.776  -0.736   8.545  0.8171  3.4486 -1.9853
  138MOL0     H18604  -0.807  -0.944   8.319  2.7862  0.5453 -2.5673
  138MOL0     H18605  -0.649  -0.901   8.390 -0.8225 -0.0247 -1.7399
  138MOL0     H18606  -0.815  -0.971   8.612  0.8790  1.5220 -0.5034
  138MOL0     H18607  -0.673  -1.057   8.541  1.1837  1.9713 -0.4796
  138MOL0     H18608  -0.842  -1.164   8.375  0.7011 -2.0122  0.4634
  138MOL0     H18609  -0.855  -1.211   8.544 -2.6398  0.3023  0.7008
  138MOL0     H18610  -0.741  -0.020   8.396  0.4455  2.7523  0.5075
  138MOL0     H18611  -0.613   0.173   8.301  0.9976  0.3838 -0.7822
  138MOL0     H18612  -0.592   0.356   7.800 -2.6315  2.7180  5.5272
  138MOL0     H18613  -0.462   0.504   7.648  1.6869 -0.7783 -0.4219
  138MOL0     H18614   0.234   2.172   7.609  3.4523 -4.6231  2.0322
  138MOL0     H18615   0.137   2.234   7.390  0.9211 -0.6685 -2.1674
  138MOL0     H18616   0.307   2.683   7.099 -0.7509 -1.1472  0.6736
  138MOL0     H18617   0.232   2.799   6.887  2.3992 -0.1357 -0.5003
  138MOL0     H18618   0.022   2.877   6.746  0.6921  0.4835  0.0679
  138MOL0     H18619  -0.067   2.821   6.608  0.7869  0.6148 -0.0040
  138MOL0     H18620   0.236   2.796   6.643 -2.1752 -2.6235  1.7574
  138MOL0     H18621   0.156   2.935   6.573  1.0284 -0.1181  0.9393
  138MOL0     H18622   0.112   2.843   6.371 -1.9101  2.4837  1.7487
  138MOL0     H18623   0.081   2.677   6.457  0.6491  0.2560  2.1691
  138MOL0     H18624   0.316   2.628   6.424 -0.2557 -0.1396 -0.6800
  138MOL0     H18625   0.249   2.690   6.271  3.4274  1.6273 -1.7427
  138MOL0     H18626   0.532   2.995   6.386 -0.7844  1.1825 -1.0686
  138MOL0     H18627   0.012   2.436   6.793 -1.2378  0.4586  0.7221
  138MOL0     H18628  -0.079   2.340   6.977  0.7237  2.8184 -0.4320
  138MOL0     H18629   0.076   2.247   6.992  0.0978 -0.5492  2.5957
  138MOL0     H18630   0.009   2.325   7.134 -0.5816 -0.9110  0.4531
  139MOL0     O18631   8.256   8.277   1.679  0.3566 -0.8396 -0.8301
  139MOL0     C18632   8.148   8.281   1.742 -1.0862 -0.3684  0.9967
  139MOL0     O18633   8.023   8.263   1.689 -0.0701  0.7453  0.4898
  139MOL0     C18634   7.981   8.173   1.589 -0.3461  1.1017 -1.1404
  139MOL0     C18635   8.073   8.115   1.502 -0.7049 -0.2954 -0.5540
  139MOL0     C18636   8.030   8.032   1.395  0.1953 -0.0565 -0.1299
  139MOL0     C18637   7.899   7.986   1.388  0.6007 -1.0646 -1.7566
  139MOL0     O18638   7.849   7.920   1.281  0.0513 -0.3583  0.4016
  139MOL0     C18639   7.918   7.819   1.213  0.6802  0.0949  0.3504
  139MOL0     C18640   7.819   7.713   1.164 -0.4945  0.0452  0.1894
  139MOL0     C18641   7.735   7.638   1.260  0.5054 -0.0055 -0.3146
  139MOL0     C18642   7.623   7.563   1.187 -0.0636  0.4081 -0.9525
  139MOL0     C18643   7.514   7.653   1.129  0.1034 -1.0880  0.1531
  139MOL0     C18644   7.402   7.571   1.076  0.1010 -0.2727  0.9790
  139MOL0     C18645   7.307   7.515   1.179  0.9248  0.7362 -0.1663
  139MOL0     C18646   7.256   7.377   1.133 -0.4980  0.7029 -0.8817
  139MOL0     N18647   7.197   7.376   0.999  0.5236  0.6235  0.1545
  139MOL0     C18648   7.136   7.479   0.935 -0.7997  0.1076  0.6915
  139MOL0     C18649   7.072   7.414   0.831  0.5539 -0.2149  0.3749
  139MOL0     C18650   6.982   7.480   0.729 -0.5247  0.3104 -0.9288
  139MOL0     C18651   6.860   7.560   0.784  0.7598 -0.1516  0.5180
  139MOL0     C18652   6.776   7.630   0.678  0.1673  0.4717 -0.0652
  139MOL0     C18653   6.843   7.731   0.599  0.5793  0.3058 -0.5972
  139MOL0     O18654   6.746   7.817   0.540  0.1603 -0.5756 -0.6435
  139MOL0     C18655   6.776   7.951   0.516 -0.1088  0.0761 -0.3652
  139MOL0     C18656   6.683   8.025   0.454  1.1216  0.0910 -0.4769
  139MOL0     C18657   6.711   8.159   0.418  0.9991 -0.3179 -0.6203
  139MOL0     C18658   6.839   8.213   0.440  0.0740  0.1031  1.2578
  139MOL0     C18659   6.883   8.344   0.387 -0.3784 -0.3782  0.5355
  139MOL0     O18660   6.784   8.415   0.334  0.4500  0.2794 -0.3573
  139MOL0     C18661   6.802   8.543   0.310 -1.2966 -0.5948 -1.2386
  139MOL0     C18662   6.718   8.643   0.355  0.1067 -0.1312 -0.2467
  139MOL0     C18663   6.738   8.775   0.307  1.1068 -0.3402  1.1780
  139MOL0     C18664   6.851   8.813   0.229  0.2452 -0.1507 -0.4746
  139MOL0     O18665   6.861   8.946   0.204 -0.0778 -0.2789 -0.3771
  139MOL0     C18666   6.931   9.004   0.095 -0.5909  0.1405  1.0000
  139MOL0     C18667   6.899   9.152   0.074 -0.0840  0.9005 -0.7297
  139MOL0     C18668   6.943   9.239   0.196 -0.0531  0.7958 -0.0030
  139MOL0     C18669   6.937   9.394   0.161  0.6727  1.4041  0.6225
  139MOL0     C18670   6.982   9.478   0.281  0.7920 -0.7932 -1.3034
  139MOL0     C18671   6.972   9.634   0.232  0.3672 -0.1484  0.0313
  139MOL0     C18672   7.022   9.732   0.333 -0.5162  0.5620 -1.2016
  139MOL0     C18673   7.003   9.875   0.278 -0.2619 -0.3892 -0.0736
  139MOL0    Cl18674   7.059   9.983   0.402  0.1142  0.2556  0.1048
  139MOL0     C18675   6.941   8.711   0.194 -1.0646 -0.3749  0.8300
  139MOL0     C18676   6.908   8.582   0.240  0.1951  0.1315  0.4349
  139MOL0     O18677   7.005   8.372   0.387  0.5388 -0.0903 -0.5039
  139MOL0     C18678   6.934   8.132   0.500 -0.0284 -0.0962  0.3904
  139MOL0     C18679   6.900   8.003   0.529  0.5494 -0.6558 -0.2939
  139MOL0     N18680   7.097   7.277   0.847 -0.7942 -0.5321  0.8198
  139MOL0     N18681   7.178   7.252   0.940 -0.1160  1.0005  0.0461
  139MOL0     C18682   7.805   8.051   1.481  0.1875  1.3504 -0.0060
  139MOL0     C18683   7.847   8.137   1.580  0.1033  0.7318  0.1557
  139MOL0     C18684   8.156   8.345   1.872 -0.3755 -0.0225 -0.5892
  139MOL0     C18685   8.036   8.371   1.937  0.5566  0.7959 -1.4262
  139MOL0     C18686   8.029   8.430   2.070 -0.1036  0.6571  0.8113
  139MOL0     C18687   8.147   8.472   2.129 -0.2655  0.2939  0.0981
  139MOL0     O18688   8.156   8.540   2.253  0.7724  0.2957 -0.5319
  139MOL0     C18689   8.034   8.567   2.338  0.1549 -0.4456 -0.0536
  139MOL0     C18690   7.970   8.703   2.286 -0.6362  0.0249 -0.7469
  139MOL0     C18691   7.842   8.732   2.371 -0.3008  0.2472 -0.3933
  139MOL0     C18692   7.778   8.858   2.299 -0.4367 -0.0712  0.2985
  139MOL0     C18693   7.685   8.910   2.390 -0.7501  0.0822 -0.5457
  139MOL0     C18694   7.585   8.938   2.456 -0.4324  0.9151 -0.4478
  139MOL0     C18695   8.271   8.449   2.065  0.5107 -1.0158 -0.4428
  139MOL0     C18696   8.278   8.391   1.931 -0.1886  0.1827  0.2841
  139MOL0     C18697   8.416   8.402   1.869 -0.4694 -0.0120  0.3021
  139MOL0     H18698   8.178   8.140   1.501 -1.0242  1.2029 -2.6530
  139MOL0     H18699   8.107   8.012   1.321  2.2674  4.3724  0.5120
  139MOL0     H18700   7.976   7.870   1.135  0.4430  0.3087  0.3099
  139MOL0     H18701   7.988   7.766   1.279 -1.3223 -2.0397  0.8979
  139MOL0     H18702   7.878   7.637   1.111 -0.8586  0.7994 -1.3679
  139MOL0     H18703   7.759   7.757   1.084 -0.3830  1.9860  1.1232
  139MOL0     H18704   7.693   7.707   1.334  1.3190  0.6171 -0.4081
  139MOL0     H18705   7.795   7.563   1.312 -2.2563 -3.3121 -1.5450
  139MOL0     H18706   7.662   7.501   1.106  0.9669 -0.7507  0.3857
  139MOL0     H18707   7.577   7.496   1.260  2.6389 -4.5875 -3.3530
  139MOL0     H18708   7.479   7.731   1.197  3.6403  0.7656  0.0913
  139MOL0     H18709   7.548   7.716   1.047 -0.5053  0.6907  1.2218
  139MOL0     H18710   7.348   7.630   1.001 -1.5130 -2.7181  0.0633
  139MOL0     H18711   7.442   7.491   1.013 -3.7452 -1.4809 -0.1946
  139MOL0     H18712   7.223   7.585   1.189  0.2447 -0.1913  0.8928
  139MOL0     H18713   7.356   7.508   1.277 -0.0600 -2.3389  0.1905
  139MOL0     H18714   7.342   7.310   1.123  0.4595  1.3620  1.9297
  139MOL0     H18715   7.194   7.327   1.207  0.5905 -1.3349 -1.2550
  139MOL0     H18716   7.134   7.585   0.954 -0.3695  0.8960 -2.9387
  139MOL0     H18717   7.034   7.557   0.672 -2.2578  2.2488 -0.0014
  139MOL0     H18718   6.943   7.398   0.668  0.4075 -1.2575  0.4726
  139MOL0     H18719   6.796   7.492   0.843 -0.3994 -1.2746 -1.8797
  139MOL0     H18720   6.909   7.639   0.840  2.0832 -0.2281 -0.4922
  139MOL0     H18721   6.692   7.677   0.730  0.1392  1.1716 -0.7376
  139MOL0     H18722   6.737   7.549   0.617 -2.2159 -1.0931  3.2294
  139MOL0     H18723   6.900   7.679   0.522 -1.8804  0.5111 -2.6686
  139MOL0     H18724   6.910   7.783   0.668  1.5945 -1.9876  0.2459
  139MOL0     H18725   6.582   7.987   0.441  0.2788  2.3033 -0.7611
  139MOL0     H18726   6.643   8.211   0.352  2.6301 -0.0653 -2.1770
  139MOL0     H18727   6.625   8.617   0.404  0.1855 -0.5208 -0.3036
  139MOL0     H18728   6.657   8.847   0.317  3.1789  2.3338  0.1448
  139MOL0     H18729   7.037   8.992   0.119  0.2175  0.9375 -1.7825
  139MOL0     H18730   6.916   8.944   0.005 -2.5208  1.0816  0.6367
  139MOL0     H18731   6.947   9.188  -0.018  0.3162  3.3889  0.3765
  139MOL0     H18732   6.791   9.160   0.057 -1.7138 -5.5743  3.1638
  139MOL0     H18733   6.877   9.213   0.279  0.0853 -2.6417 -0.8280
  139MOL0     H18734   7.044   9.207   0.219  0.3262  0.1859 -2.2500
  139MOL0     H18735   6.832   9.415   0.140 -0.0322 -1.2514  1.0939
  139MOL0     H18736   6.999   9.398   0.071  1.6741 -2.8128  0.9272
  139MOL0     H18737   7.088   9.453   0.290  0.4384 -1.8481  0.2806
  139MOL0     H18738   6.915   9.448   0.362 -1.8102  2.7913 -1.8872
  139MOL0     H18739   7.030   9.648   0.140 -0.3604  1.0357 -0.2780
  139MOL0     H18740   6.871   9.665   0.204  0.3299  3.2215  3.1472
  139MOL0     H18741   7.120   9.716   0.379 -1.1041 -0.6014 -0.2969
  139MOL0     H18742   6.960   9.732   0.423  0.5938 -0.9587 -0.3846
  139MOL0     H18743   7.074   9.872   0.195 -0.8381 -4.2704 -0.6128
  139MOL0     H18744   6.900   9.888   0.245  0.0087  0.3322 -0.6591
  139MOL0     H18745   7.033   8.725   0.139 -0.9373 -1.8524  0.6067
  139MOL0     H18746   6.974   8.513   0.188  0.9409  2.3231 -1.7037
  139MOL0     H18747   7.028   8.171   0.539 -1.7044  1.0886  3.7061
  139MOL0     H18748   6.984   7.952   0.574  1.2918  1.7552  1.2473
  139MOL0     H18749   7.698   8.041   1.465 -0.3975  0.1174  3.7420
  139MOL0     H18750   7.777   8.184   1.648  1.1482  1.7436  0.5578
  139MOL0     H18751   7.945   8.336   1.891  1.2594 -1.1989 -1.4227
  139MOL0     H18752   7.932   8.434   2.118 -0.4688  0.9515  0.0632
  139MOL0     H18753   8.056   8.592   2.442 -3.3779 -1.3583  1.0586
  139MOL0     H18754   7.964   8.483   2.335 -0.0316 -0.2962  0.1250
  139MOL0     H18755   7.939   8.681   2.183 -1.0295 -1.7602 -0.2831
  139MOL0     H18756   8.038   8.787   2.303 -0.8399  0.0515 -0.0372
  139MOL0     H18757   7.868   8.747   2.477  0.9371 -0.8642 -0.5043
  139MOL0     H18758   7.763   8.656   2.375  0.2855 -0.3265  1.3662
  139MOL0     H18759   7.843   8.943   2.275  0.8984 -0.7183  1.4755
  139MOL0     H18760   7.731   8.803   2.217  1.8564 -3.5797  1.1114
  139MOL0     H18761   7.514   8.964   2.532  1.0650 -1.5440  1.9438
  139MOL0     H18762   8.360   8.495   2.106  0.7237 -1.6919 -0.1258
  139MOL0     H18763   8.488   8.455   1.933 -1.9914  0.5602  1.6112
  139MOL0     H18764   8.448   8.298   1.861 -0.7669 -0.0558 -0.2613
  139MOL0     H18765   8.417   8.455   1.774  3.4674 -1.5360 -0.6988
  140MOL0     O18766   0.645   9.281   3.487  0.1534 -0.7282 -0.6076
  140MOL0     C18767   0.687   9.231   3.385 -0.3948  0.1719 -0.6715
  140MOL0     O18768   0.696   9.303   3.272 -0.4611 -0.4811  0.7697
  140MOL0     C18769   0.654   9.436   3.256 -1.0547  0.9718  0.8141
  140MOL0     C18770   0.618   9.477   3.124 -0.2233 -0.2242  0.4056
  140MOL0     C18771   0.585   9.611   3.095 -0.1074 -0.3688 -0.5024
  140MOL0     C18772   0.587   9.706   3.192  0.2609  0.3041 -0.2129
  140MOL0     O18773   0.530   9.833   3.192  0.0886  0.4461  0.8762
  140MOL0     C18774   0.421   9.857   3.101 -0.3093  0.0104 -1.1730
  140MOL0     C18775   0.385  10.006   3.132 -0.4711  0.1303 -0.0311
  140MOL0     C18776   0.296  10.064   3.019 -0.2755  0.6963  0.3777
  140MOL0     C18777   0.210  10.176   3.077  0.1738 -0.4793  0.6825
  140MOL0     C18778   0.138  10.252   2.966  0.4142 -0.6426  0.3373
  140MOL0     C18779   0.030  10.357   3.008 -0.4714  0.2888 -0.4698
  140MOL0     C18780  -0.022  10.434   2.888 -0.6959 -0.2482 -0.1043
  140MOL0     C18781  -0.137  10.532   2.923 -0.4727  0.6038  0.1571
  140MOL0     N18782  -0.164  10.606   2.795  0.3015  0.6228 -0.4495
  140MOL0     C18783  -0.103  10.719   2.768 -0.3914  1.1000 -0.7163
  140MOL0     C18784  -0.176  10.763   2.669  0.2571 -0.8585  0.8097
  140MOL0     C18785  -0.160  10.901   2.638 -0.1228  0.5781  0.0004
  140MOL0     C18786  -0.022  10.957   2.615  0.8367 -0.9413  0.1064
  140MOL0     C18787  -0.034  11.111   2.598 -0.3637  0.9416 -0.1012
  140MOL0     C18788   0.105  11.181   2.617 -1.3511  0.1851 -0.4344
  140MOL0     O18789   0.082  11.323   2.583  0.4664 -0.8917 -0.0415
  140MOL0     C18790   0.099  11.358   2.448 -0.3767  1.3318  0.9687
  140MOL0     C18791   0.022  11.459   2.379 -0.5098  0.3144 -0.2330
  140MOL0     C18792   0.044  11.505   2.255 -0.0303 -0.7463  0.7538
  140MOL0     C18793   0.157  11.451   2.187  1.0934 -0.6113 -0.6770
  140MOL0     C18794   0.181  11.508   2.050 -0.1246  0.3742 -0.5755
  140MOL0     O18795   0.159  11.642   2.040 -0.0047 -0.7228 -0.3449
  140MOL0     C18796   0.214  11.705   1.930 -1.1286 -0.6646  0.2054
  140MOL0     C18797   0.284  11.827   1.942 -0.3772 -0.4732  0.1923
  140MOL0     C18798   0.346  11.890   1.831  0.8399 -0.2239  0.1545
  140MOL0     C18799   0.330  11.834   1.711 -1.4287 -0.0900  0.7665
  140MOL0     O18800   0.374  11.912   1.599 -0.0817  0.5223 -0.8710
  140MOL0     C18801   0.398  11.860   1.469  0.6438 -0.5232  0.0460
  140MOL0     C18802   0.282  11.870   1.375 -0.1912 -0.8513  0.3153
  140MOL0     C18803   0.203  12.000   1.392  0.5150  0.0132  0.4411
  140MOL0     C18804   0.091  11.997   1.282 -0.1363 -0.4149  0.1143
  140MOL0     C18805  -0.012  12.117   1.304  0.6954  0.5968  0.6616
  140MOL0     C18806  -0.085  12.158   1.175  0.3482  0.2164 -0.8184
  140MOL0     C18807  -0.132  12.043   1.081  0.4077 -0.0276  0.9577
  140MOL0     C18808  -0.138  12.087   0.935 -0.1772 -0.2433  0.6986
  140MOL0    Cl18809  -0.224  11.971   0.830  0.0725  0.0253  0.2051
  140MOL0     C18810   0.257  11.722   1.696  0.9563 -0.3022 -0.0333
  140MOL0     C18811   0.195  11.656   1.801  0.7375 -0.2823 -0.6349
  140MOL0     O18812   0.220  11.426   1.971 -0.5367 -0.4341  0.1738
  140MOL0     C18813   0.235  11.355   2.247  0.5114  0.5090  1.3412
  140MOL0     C18814   0.209  11.312   2.371 -0.0892  0.4964 -0.1362
  140MOL0     N18815  -0.277  10.671   2.622  0.4828  0.4231 -0.7549
  140MOL0     N18816  -0.266  10.580   2.714  0.6509 -0.4875 -0.3405
  140MOL0     C18817   0.640   9.669   3.318 -0.3976 -0.1904 -0.3827
  140MOL0     C18818   0.668   9.538   3.349  0.1990 -0.5855  0.4430
  140MOL0     C18819   0.775   9.105   3.407  0.6145  0.0088 -0.3753
  140MOL0     C18820   0.882   9.090   3.313  0.1499 -0.3039  0.2817
  140MOL0     C18821   0.955   8.973   3.309 -0.2823 -0.2353 -0.3529
  140MOL0     C18822   0.940   8.873   3.406  0.6607 -0.0986  1.2391
  140MOL0     O18823   1.022   8.764   3.388  0.2200  0.3583 -0.0466
  140MOL0     C18824   1.071   8.698   3.508  0.3904  0.1296  0.6829
  140MOL0     C18825   1.169   8.596   3.462 -0.0279  0.1857 -0.0365
  140MOL0     C18826   1.296   8.658   3.405 -0.0287  0.4144 -0.3604
  140MOL0     C18827   1.387   8.554   3.328  0.6734  0.1169 -0.3684
  140MOL0     C18828   1.434   8.441   3.405 -0.4280  0.3557  0.2383
  140MOL0     C18829   1.490   8.365   3.469  0.3791 -0.3383  0.3257
  140MOL0     C18830   0.843   8.901   3.509 -0.0528 -0.1518 -0.3691
  140MOL0     C18831   0.759   9.014   3.504  0.0966  0.1099  0.1702
  140MOL0     C18832   0.648   9.016   3.609 -0.4306  0.3595  0.5539
  140MOL0     H18833   0.614   9.400   3.048  0.3714 -1.6193  1.7273
  140MOL0     H18834   0.564   9.644   2.994  6.2271  1.2116 -1.7543
  140MOL0     H18835   0.447   9.836   2.997 -1.1764 -4.1804 -0.7298
  140MOL0     H18836   0.337   9.790   3.121  1.7218 -2.7900 -1.4834
  140MOL0     H18837   0.470  10.075   3.136  0.1302 -0.6444  2.2538
  140MOL0     H18838   0.340  10.017   3.231 -0.4312  1.0492 -0.1042
  140MOL0     H18839   0.235   9.978   2.989  0.7323  0.0244  0.1949
  140MOL0     H18840   0.358  10.096   2.935 -1.0081  0.5650 -0.2249
  140MOL0     H18841   0.130  10.132   3.137  0.5775 -5.0631 -1.6588
  140MOL0     H18842   0.285  10.230   3.136  2.5706 -2.3154 -0.4813
  140MOL0     H18843   0.220  10.302   2.913 -0.0006 -0.4728 -0.1465
  140MOL0     H18844   0.083  10.175   2.913 -1.2485  1.1814 -0.7360
  140MOL0     H18845  -0.049  10.310   3.067 -2.0853  2.0256 -1.1869
  140MOL0     H18846   0.076  10.430   3.075 -3.2657  0.7163  1.1215
  140MOL0     H18847  -0.054  10.364   2.811  0.6587 -1.8515  0.7209
  140MOL0     H18848   0.059  10.493   2.844 -1.3317  0.6071 -0.1639
  140MOL0     H18849  -0.226  10.485   2.964 -0.7940 -0.5240 -1.7254
  140MOL0     H18850  -0.097  10.606   2.993 -0.4507  1.4043 -0.6767
  140MOL0     H18851  -0.015  10.747   2.826 -0.1809 -1.8534  0.6053
  140MOL0     H18852  -0.212  10.893   2.542  0.9445 -5.2239 -0.4499
  140MOL0     H18853  -0.208  10.970   2.709 -3.3529 -1.4101 -0.0293
  140MOL0     H18854   0.039  10.949   2.705  3.7848 -0.7190 -1.7432
  140MOL0     H18855   0.027  10.902   2.535  1.8175 -0.9945  0.7219
  140MOL0     H18856  -0.121  11.148   2.651 -1.8207 -2.1400 -0.1318
  140MOL0     H18857  -0.056  11.121   2.491  1.1473 -3.5293 -1.0719
  140MOL0     H18858   0.183  11.130   2.560 -2.7949 -0.2313 -2.1189
  140MOL0     H18859   0.136  11.179   2.722  0.3585  1.6897 -0.8765
  140MOL0     H18860  -0.052  11.519   2.432 -0.7248  0.8318 -1.0928
  140MOL0     H18861  -0.017  11.579   2.204  3.0712 -0.2779 -2.7254
  140MOL0     H18862   0.285  11.889   2.032 -1.6351  2.2364 -1.5349
  140MOL0     H18863   0.394  11.987   1.824  4.0865 -1.7275 -0.2311
  140MOL0     H18864   0.479  11.922   1.429  3.0172 -2.5990  1.3342
  140MOL0     H18865   0.424  11.754   1.462 -0.8494 -0.9300  0.3867
  140MOL0     H18866   0.323  11.864   1.274 -1.2635 -0.0356 -0.1873
  140MOL0     H18867   0.211  11.788   1.385 -0.1237 -0.7353  2.0237
  140MOL0     H18868   0.152  12.005   1.488 -3.1737 -1.0246 -1.2653
  140MOL0     H18869   0.266  12.090   1.391  1.4437 -0.5725  2.2662
  140MOL0     H18870   0.033  11.904   1.283 -0.9077 -0.0614 -2.9288
  140MOL0     H18871   0.129  12.003   1.180  0.6114 -2.0800  0.2559
  140MOL0     H18872   0.046  12.207   1.326  1.3040  0.4584 -0.2984
  140MOL0     H18873  -0.078  12.094   1.388 -1.6062  1.8631 -0.6863
  140MOL0     H18874  -0.176  12.213   1.201  1.1901  0.6723  1.3646
  140MOL0     H18875  -0.014  12.223   1.123  2.6462  0.0062  1.8221
  140MOL0     H18876  -0.218  11.982   1.110  1.6882 -1.5632  1.6704
  140MOL0     H18877  -0.059  11.962   1.082  1.5917  1.0086  0.3977
  140MOL0     H18878  -0.187  12.185   0.929  2.3257  1.2326  2.5515
  140MOL0     H18879  -0.039  12.093   0.891  0.4339  1.7210  2.2176
  140MOL0     H18880   0.221  11.678   1.604 -1.3501 -0.6707  0.9903
  140MOL0     H18881   0.116  11.583   1.789  2.7417 -2.8020  0.4553
  140MOL0     H18882   0.315  11.297   2.200  0.2298 -0.7737  2.3925
  140MOL0     H18883   0.272  11.231   2.404  0.4369  0.1986 -1.8117
  140MOL0     H18884   0.660   9.740   3.398  1.6034  0.8350 -1.6945
  140MOL0     H18885   0.697   9.528   3.453 -1.6669 -0.8535  0.9661
  140MOL0     H18886   0.909   9.157   3.232  0.4642 -1.1850 -0.3595
  140MOL0     H18887   1.035   8.958   3.237 -1.0779  1.9046 -1.8076
  140MOL0     H18888   0.989   8.649   3.562 -1.6554  0.9585 -1.4483
  140MOL0     H18889   1.108   8.775   3.576  0.6488  2.0271 -1.4408
  140MOL0     H18890   1.130   8.528   3.386  1.0066  1.1110 -1.4585
  140MOL0     H18891   1.194   8.534   3.549  0.7735 -0.3560 -0.6411
  140MOL0     H18892   1.357   8.709   3.480  0.5864  0.7369 -1.0635
  140MOL0     H18893   1.258   8.731   3.333 -2.4760  2.1064  2.4056
  140MOL0     H18894   1.321   8.520   3.247  0.0340  1.9536 -0.6537
  140MOL0     H18895   1.475   8.596   3.278  2.3895 -2.1753  0.5015
  140MOL0     H18896   1.555   8.297   3.520  2.5310 -0.8942 -2.9124
  140MOL0     H18897   0.835   8.825   3.586 -1.9986 -0.9736 -1.3119
  140MOL0     H18898   0.548   9.032   3.568 -0.9534 -0.1650  1.6042
  140MOL0     H18899   0.653   8.918   3.657 -0.2024  0.7725  1.3828
  140MOL0     H18900   0.670   9.090   3.687  0.2143  1.9574 -1.0606
  141MOL0     O18901   0.079  11.378   6.530 -0.2695  0.5606  0.8180
  141MOL0     C18902  -0.018  11.341   6.595 -0.5859  0.1229 -0.6584
  141MOL0     O18903  -0.121  11.268   6.547  0.3676  0.2289 -0.3688
  141MOL0     C18904  -0.158  11.246   6.419 -0.8536 -0.3449 -0.4382
  141MOL0     C18905  -0.277  11.300   6.390 -0.5205  0.2542  0.0598
  141MOL0     C18906  -0.327  11.284   6.255  0.4837  0.9667 -0.9106
  141MOL0     C18907  -0.260  11.217   6.153 -1.1585  0.1915 -0.1740
  141MOL0     O18908  -0.313  11.208   6.030  0.4778  0.4300 -0.2664
  141MOL0     C18909  -0.217  11.169   5.934 -0.4636  0.4053  1.0105
  141MOL0     C18910  -0.287  11.152   5.798  0.5561  0.0156  0.0413
  141MOL0     C18911  -0.370  11.269   5.739  0.1231 -1.4479  0.0227
  141MOL0     C18912  -0.288  11.404   5.744  0.3042  0.3135 -0.5560
  141MOL0     C18913  -0.364  11.506   5.653 -0.2783  0.8242 -0.3155
  141MOL0     C18914  -0.293  11.628   5.622 -0.0202 -0.9131 -0.6883
  141MOL0     C18915  -0.232  11.707   5.741  0.3915  0.3706 -0.1329
  141MOL0     C18916  -0.240  11.862   5.726 -0.4834 -0.2039 -0.1734
  141MOL0     N18917  -0.159  11.919   5.834  1.2157 -0.0919 -0.7137
  141MOL0     C18918  -0.222  11.990   5.943  0.0841  0.3396  0.3499
  141MOL0     C18919  -0.116  12.054   5.997 -0.7696 -0.5759 -0.0097
  141MOL0     C18920  -0.121  12.135   6.125 -0.1889  1.1611  0.8300
  141MOL0     C18921  -0.196  12.267   6.105 -0.1276 -0.0994  0.4705
  141MOL0     C18922  -0.338  12.252   6.176 -0.1947 -0.0535  0.2018
  141MOL0     C18923  -0.419  12.373   6.146 -0.6125  0.1812 -0.6113
  141MOL0     O18924  -0.535  12.378   6.234  0.1518 -0.1618 -0.4239
  141MOL0     C18925  -0.601  12.497   6.218 -0.2964 -0.3658 -0.8639
  141MOL0     C18926  -0.575  12.603   6.129  0.3243 -0.1412  0.0033
  141MOL0     C18927  -0.666  12.712   6.120 -0.6475  0.2585  0.2199
  141MOL0     C18928  -0.780  12.715   6.198 -0.0211 -0.6691 -0.5885
  141MOL0     C18929  -0.886  12.815   6.173 -0.7388 -0.6482 -1.0238
  141MOL0     O18930  -1.003  12.787   6.228 -0.4484  0.0568 -0.3745
  141MOL0     C18931  -1.098  12.890   6.246  0.6011 -1.3084 -0.1150
  141MOL0     C18932  -1.184  12.942   6.141 -0.7866  1.1274 -0.5013
  141MOL0     C18933  -1.285  13.024   6.187 -0.0083  0.1905  0.0394
  141MOL0     C18934  -1.307  13.073   6.320 -1.0142 -0.0542 -0.8336
  141MOL0     O18935  -1.403  13.157   6.337  0.1268  0.3730  0.0424
  141MOL0     C18936  -1.437  13.212   6.461 -0.4530  0.2837 -0.8838
  141MOL0     C18937  -1.349  13.334   6.492 -0.1153 -0.3747  0.0572
  141MOL0     C18938  -1.315  13.440   6.373  0.2074  0.3493 -0.3669
  141MOL0     C18939  -1.403  13.571   6.391  0.1351  0.1557  0.8726
  141MOL0     C18940  -1.356  13.684   6.483 -0.2297 -0.3028 -0.1893
  141MOL0     C18941  -1.308  13.653   6.626  0.9698  1.1612  0.4651
  141MOL0     C18942  -1.273  13.766   6.723  0.3641  0.0953 -0.4494
  141MOL0     C18943  -1.384  13.848   6.780  0.6338  1.2931  0.4738
  141MOL0    Cl18944  -1.460  13.951   6.647 -0.0646  0.8707  0.0065
  141MOL0     C18945  -1.214  13.028   6.420  0.1285 -0.2474 -0.2010
  141MOL0     C18946  -1.113  12.931   6.384  0.2906 -0.5276 -0.7098
  141MOL0     O18947  -0.862  12.915   6.102 -0.8510  0.0695  0.0614
  141MOL0     C18948  -0.802  12.611   6.286  0.0091 -0.0432 -0.4795
  141MOL0     C18949  -0.709  12.513   6.301 -0.1404  0.8563  0.2435
  141MOL0     N18950  -0.003  12.021   5.925  0.0666 -0.1704 -0.1513
  141MOL0     N18951  -0.029  11.943   5.828 -0.8216  0.2721 -0.5966
  141MOL0     C18952  -0.124  11.181   6.185 -0.7316 -0.5290 -0.8114
  141MOL0     C18953  -0.081  11.188   6.315  0.0169  0.2020 -0.6115
  141MOL0     C18954  -0.014  11.377   6.745 -0.9776 -1.5974  0.1576
  141MOL0     C18955   0.115  11.405   6.803  0.6437  0.2971  0.1008
  141MOL0     C18956   0.128  11.443   6.932 -0.0984  0.7556 -0.0102
  141MOL0     C18957   0.018  11.440   7.019  0.6745 -0.3440 -0.6422
  141MOL0     O18958   0.032  11.454   7.153 -0.1906 -0.3474 -0.7269
  141MOL0     C18959   0.168  11.432   7.209 -0.2361  0.0131 -0.6014
  141MOL0     C18960   0.163  11.444   7.368 -0.3973 -0.2738  0.1901
  141MOL0     C18961   0.303  11.416   7.435 -0.4178 -0.5797 -0.5758
  141MOL0     C18962   0.298  11.410   7.589 -1.2161 -0.0542  0.0065
  141MOL0     C18963   0.428  11.406   7.657 -1.3236  0.0826 -0.6299
  141MOL0     C18964   0.540  11.395   7.710  0.7258  0.4555 -0.8698
  141MOL0     C18965  -0.109  11.419   6.967 -0.7313  0.8142 -0.7550
  141MOL0     C18966  -0.125  11.373   6.831  0.0163 -0.5689 -0.6273
  141MOL0     C18967  -0.273  11.354   6.794 -0.0398  0.3915 -0.6902
  141MOL0     H18968  -0.326  11.334   6.480 -0.6180 -0.9092  0.4684
  141MOL0     H18969  -0.430  11.308   6.230 -0.5945 -1.8000  0.4650
  141MOL0     H18970  -0.128  11.229   5.912 -0.3302 -0.6524 -1.7958
  141MOL0     H18971  -0.172  11.072   5.959  1.7230  2.0055  3.9039
  141MOL0     H18972  -0.369  11.081   5.813  2.6586 -3.4187 -2.9967
  141MOL0     H18973  -0.228  11.088   5.732 -2.1229 -1.7469 -0.8439
  141MOL0     H18974  -0.465  11.277   5.792  0.7054 -0.4814  0.9444
  141MOL0     H18975  -0.401  11.244   5.637  2.9146  2.3415 -2.0172
  141MOL0     H18976  -0.259  11.437   5.845 -2.1870 -3.0683  1.4797
  141MOL0     H18977  -0.191  11.380   5.698  0.9660  2.0500 -0.1621
  141MOL0     H18978  -0.393  11.468   5.555 -3.2435  1.6633  0.1553
  141MOL0     H18979  -0.455  11.540   5.702  1.1078 -1.2023  4.1912
  141MOL0     H18980  -0.225  11.614   5.538 -2.4422 -1.8887 -2.5982
  141MOL0     H18981  -0.368  11.693   5.575  1.1324  0.2694 -0.9331
  141MOL0     H18982  -0.125  11.685   5.746  0.6176  1.5453  0.4387
  141MOL0     H18983  -0.271  11.693   5.842  0.1161  0.6817 -0.1942
  141MOL0     H18984  -0.185  11.885   5.634  0.5567 -1.5827  0.0579
  141MOL0     H18985  -0.342  11.899   5.735  0.2625  1.5256  2.0156
  141MOL0     H18986  -0.329  11.991   5.966 -0.4288  0.5770 -1.8463
  141MOL0     H18987  -0.162  12.074   6.206  0.5637 -0.0284  0.3564
  141MOL0     H18988  -0.018  12.154   6.159  0.3317 -1.8422  1.2243
  141MOL0     H18989  -0.135  12.340   6.159  1.4198 -1.6504  0.9146
  141MOL0     H18990  -0.215  12.279   5.998  0.6276  1.6228  0.5027
  141MOL0     H18991  -0.328  12.225   6.282  0.8960 -3.3579 -0.6154
  141MOL0     H18992  -0.383  12.165   6.128 -0.1520 -0.5601  1.0644
  141MOL0     H18993  -0.443  12.369   6.039  0.2758 -3.7932 -0.8206
  141MOL0     H18994  -0.356  12.461   6.158 -1.5386  0.7045  0.5345
  141MOL0     H18995  -0.491  12.615   6.062  2.5519 -1.3040  2.4262
  141MOL0     H18996  -0.665  12.788   6.043 -2.3751  0.7021  0.5972
  141MOL0     H18997  -1.186  12.915   6.036 -2.8262 -1.4489  0.0692
  141MOL0     H18998  -1.348  13.069   6.112  0.5647 -0.1808 -0.6770
  141MOL0     H18999  -1.530  13.270   6.456  0.4433  2.0879  1.4325
  141MOL0     H19000  -1.444  13.136   6.540  1.2545 -2.1011 -2.8932
  141MOL0     H19001  -1.383  13.391   6.579  1.4499  0.1853  0.3429
  141MOL0     H19002  -1.247  13.303   6.517  0.9468  1.2215 -1.9709
  141MOL0     H19003  -1.208  13.454   6.386  0.2226  0.3820 -0.5379
  141MOL0     H19004  -1.344  13.391   6.279  0.3531  1.9875 -1.2879
  141MOL0     H19005  -1.488  13.527   6.443  0.4179 -2.4173 -0.6563
  141MOL0     H19006  -1.430  13.620   6.297  2.7715  2.1219  1.0322
  141MOL0     H19007  -1.433  13.759   6.464  0.3415  0.5518  0.7208
  141MOL0     H19008  -1.266  13.733   6.444  0.3960 -1.3040 -0.0674
  141MOL0     H19009  -1.385  13.593   6.676  2.4397 -2.1913 -0.9290
  141MOL0     H19010  -1.215  13.595   6.626  1.4947  1.8791  3.0223
  141MOL0     H19011  -1.203  13.844   6.691 -0.0875  1.0017  0.6897
  141MOL0     H19012  -1.239  13.719   6.815 -1.5724  1.6160  1.1434
  141MOL0     H19013  -1.457  13.785   6.832  2.7994 -1.6237  0.2893
  141MOL0     H19014  -1.348  13.905   6.866 -0.1851  0.2949  1.5127
  141MOL0     H19015  -1.223  13.052   6.526  2.0135 -2.1388  0.4580
  141MOL0     H19016  -1.044  12.905   6.464  1.3567  3.1800 -0.2456
  141MOL0     H19017  -0.896  12.590   6.337 -0.6802 -0.8552 -2.0181
  141MOL0     H19018  -0.724  12.429   6.368  1.9327  0.7405  0.6384
  141MOL0     H19019  -0.065  11.118   6.120 -2.5517 -4.3952  0.9544
  141MOL0     H19020   0.017  11.152   6.343  0.8003  2.2373 -0.5936
  141MOL0     H19021   0.208  11.392   6.749  0.5508 -2.7952  0.5275
  141MOL0     H19022   0.233  11.455   6.957  1.4324 -1.9404 -4.2052
  141MOL0     H19023   0.238  11.502   7.162 -1.7240  0.7267 -1.8047
  141MOL0     H19024   0.189  11.338   7.157  0.3098  2.3347 -4.9878
  141MOL0     H19025   0.102  11.369   7.419  1.2190 -1.8950 -0.1666
  141MOL0     H19026   0.127  11.542   7.400  2.8744  0.8006  0.9609
  141MOL0     H19027   0.368  11.501   7.412 -3.7929  2.6451  0.7359
  141MOL0     H19028   0.337  11.319   7.398 -0.2206 -1.2247  1.2060
  141MOL0     H19029   0.261  11.503   7.633  1.8549  1.5606 -0.5099
  141MOL0     H19030   0.227  11.332   7.617 -0.8783 -1.6703 -3.1746
  141MOL0     H19031   0.630  11.384   7.767  1.0294 -1.1095 -1.5843
  141MOL0     H19032  -0.192  11.422   7.036 -0.4464 -0.0802 -0.3615
  141MOL0     H19033  -0.339  11.377   6.877 -0.5608 -1.5339 -0.5286
  141MOL0     H19034  -0.286  11.425   6.711 -1.3707 -1.2124 -1.9074
  141MOL0     H19035  -0.282  11.251   6.760  0.2474 -1.1052  3.3343
  142MOL0     O19036   5.814   6.306   7.409  0.0387  0.6443 -0.2840
  142MOL0     C19037   5.821   6.342   7.296 -1.4329  0.9370 -0.9337
  142MOL0     O19038   5.857   6.257   7.195  0.7326 -0.3088 -0.5156
  142MOL0     C19039   5.916   6.137   7.235 -1.5075 -0.2330 -0.2485
  142MOL0     C19040   6.049   6.134   7.275 -0.1570  0.7187 -0.3221
  142MOL0     C19041   6.123   6.022   7.297 -0.1953 -0.3875  0.1406
  142MOL0     C19042   6.055   5.901   7.278 -0.9218  0.3049 -0.7023
  142MOL0     O19043   6.129   5.772   7.278  0.4667  0.3042 -0.3746
  142MOL0     C19044   6.267   5.762   7.335  0.1624  0.2742  0.4941
  142MOL0     C19045   6.289   5.802   7.484  0.1383  0.7555  0.4575
  142MOL0     C19046   6.405   5.744   7.557  0.4521  0.2573 -0.6884
  142MOL0     C19047   6.411   5.823   7.693 -0.1768  0.0663  0.3437
  142MOL0     C19048   6.530   5.793   7.802  1.0086 -0.6829  0.4634
  142MOL0     C19049   6.660   5.837   7.732  0.4952  0.4155 -0.4594
  142MOL0     C19050   6.782   5.804   7.822  0.3857 -0.3179 -0.4638
  142MOL0     C19051   6.876   5.696   7.764  0.3638 -0.2299 -0.6147
  142MOL0     N19052   6.809   5.566   7.748 -0.1224  0.5806  0.6157
  142MOL0     C19053   6.771   5.524   7.626 -0.4264  0.2598  0.1967
  142MOL0     C19054   6.712   5.398   7.644  0.5992 -0.6887  0.6341
  142MOL0     C19055   6.684   5.297   7.535  0.1181 -0.0597  0.2808
  142MOL0     C19056   6.548   5.237   7.571 -0.4641  0.5159  0.0257
  142MOL0     C19057   6.439   5.345   7.541 -0.4885 -0.2935  0.8403
  142MOL0     C19058   6.293   5.284   7.557  0.1120  0.4812  0.6843
  142MOL0     O19059   6.259   5.243   7.689  0.8577  0.3063 -0.2429
  142MOL0     C19060   6.224   5.344   7.774 -0.2570 -0.2680  0.3698
  142MOL0     C19061   6.319   5.426   7.845  0.2536 -0.3501 -0.4856
  142MOL0     C19062   6.276   5.537   7.921  0.3662  0.5142  0.0635
  142MOL0     C19063   6.142   5.572   7.931 -0.0647  0.6711  0.2412
  142MOL0     C19064   6.101   5.682   8.019 -0.1271 -0.7088  0.2572
  142MOL0     O19065   5.969   5.704   8.020  0.6497  0.4555 -0.1764
  142MOL0     C19066   5.906   5.806   8.091 -0.1529 -0.5170 -0.7454
  142MOL0     C19067   5.778   5.846   8.046 -0.0630  0.2436  0.3626
  142MOL0     C19068   5.717   5.952   8.101  0.5718 -0.0061  0.8064
  142MOL0     C19069   5.772   6.026   8.207  0.0773  0.3052  0.8449
  142MOL0     O19070   5.699   6.126   8.259  0.4607 -0.5587 -0.0283
  142MOL0     C19071   5.759   6.255   8.274 -0.0682  0.5871 -0.5452
  142MOL0     C19072   5.736   6.316   8.410  0.1069  0.0401  0.5455
  142MOL0     C19073   5.782   6.226   8.522  0.9842 -0.2236 -0.1699
  142MOL0     C19074   5.732   6.289   8.652 -0.3824 -0.1211 -0.5926
  142MOL0     C19075   5.791   6.219   8.770  0.2056  0.2943  0.1863
  142MOL0     C19076   5.724   6.082   8.791 -1.2918 -1.0920 -0.6062
  142MOL0     C19077   5.791   6.002   8.908  0.4324  0.0544 -0.2945
  142MOL0     C19078   5.803   6.074   9.047  0.3668 -0.7669  0.1047
  142MOL0    Cl19079   5.633   6.109   9.104 -0.0932  0.6164  0.5754
  142MOL0     C19080   5.898   5.986   8.257  0.6498  0.7459 -0.5357
  142MOL0     C19081   5.952   5.864   8.211 -0.5306  1.2915  0.1296
  142MOL0     O19082   6.180   5.746   8.086 -0.3711  0.3199 -0.2129
  142MOL0     C19083   6.052   5.496   7.849  1.0621  0.5016 -0.3491
  142MOL0     C19084   6.088   5.385   7.770 -0.3827  0.4784 -0.8873
  142MOL0     N19085   6.723   5.372   7.780  0.6891  0.1459  0.4246
  142MOL0     N19086   6.777   5.471   7.842 -0.3725  0.4473  0.0081
  142MOL0     C19087   5.922   5.902   7.240  0.0572  0.0147 -0.2093
  142MOL0     C19088   5.853   6.014   7.202 -0.0283  0.2002  0.3378
  142MOL0     C19089   5.807   6.485   7.264 -1.3080 -0.8219 -0.0368
  142MOL0     C19090   5.889   6.542   7.166 -0.5080  1.2380  0.4000
  142MOL0     C19091   5.899   6.683   7.140 -0.6836 -0.7161 -0.5543
  142MOL0     C19092   5.813   6.768   7.213 -0.3221  1.0949  0.5354
  142MOL0     O19093   5.807   6.907   7.218 -1.4511 -0.2383 -0.7324
  142MOL0     C19094   5.913   6.971   7.153 -0.2547 -0.2349  0.4387
  142MOL0     C19095   6.049   6.968   7.233  0.3515 -0.8988  0.4044
  142MOL0     C19096   6.040   7.026   7.376 -0.0662 -0.1466  0.0874
  142MOL0     C19097   5.980   6.923   7.481  0.6828  0.4040  0.4203
  142MOL0     C19098   5.987   6.962   7.620 -0.3159 -0.5915  0.0561
  142MOL0     C19099   5.978   7.020   7.725  0.3279  0.2939 -0.9628
  142MOL0     C19100   5.716   6.712   7.294  0.5655 -0.3850 -0.2289
  142MOL0     C19101   5.717   6.573   7.322 -0.1992 -0.4454  0.1859
  142MOL0     C19102   5.599   6.528   7.400  0.6658  0.0601 -0.6614
  142MOL0     H19103   6.102   6.228   7.281  2.4495 -0.7381  1.1202
  142MOL0     H19104   6.231   6.023   7.304 -0.1841  2.6561  0.9258
  142MOL0     H19105   6.290   5.657   7.313 -0.2980  0.8369 -3.5699
  142MOL0     H19106   6.333   5.819   7.269 -1.9673 -0.6606 -2.7312
  142MOL0     H19107   6.211   5.749   7.539  1.4019 -3.3612 -1.2879
  142MOL0     H19108   6.292   5.911   7.486  3.2270  0.7548  0.5709
  142MOL0     H19109   6.498   5.736   7.499  1.1127 -0.0684  0.3941
  142MOL0     H19110   6.385   5.641   7.590  0.8672  0.3159 -0.2423
  142MOL0     H19111   6.429   5.926   7.660  1.1461  0.6461  2.6410
  142MOL0     H19112   6.318   5.827   7.750 -1.4734  0.1954 -1.6599
  142MOL0     H19113   6.507   5.855   7.889 -2.1463 -1.6788  0.4617
  142MOL0     H19114   6.535   5.684   7.818  0.1021 -1.2385 -2.4027
  142MOL0     H19115   6.676   5.786   7.637 -0.4915  0.4967 -0.6730
  142MOL0     H19116   6.656   5.944   7.708  2.3980  1.0614  1.6710
  142MOL0     H19117   6.752   5.763   7.918  0.3737 -2.0513 -1.1765
  142MOL0     H19118   6.834   5.894   7.857 -1.2481  0.0542  1.1526
  142MOL0     H19119   6.915   5.729   7.668  0.5684 -0.4786 -0.6191
  142MOL0     H19120   6.960   5.688   7.833 -1.1645 -1.2507  1.2327
  142MOL0     H19121   6.780   5.575   7.531  2.1656 -0.9904 -0.3191
  142MOL0     H19122   6.686   5.344   7.436  1.6889 -0.0588  0.2879
  142MOL0     H19123   6.760   5.219   7.537 -1.1400 -1.5718 -3.3912
  142MOL0     H19124   6.523   5.152   7.506  1.2721 -0.8384  1.0244
  142MOL0     H19125   6.528   5.215   7.676  2.6085  3.2613  1.3588
  142MOL0     H19126   6.454   5.366   7.435 -0.5506  1.4032  1.1345
  142MOL0     H19127   6.445   5.435   7.603  0.0865  0.0817  0.2521
  142MOL0     H19128   6.289   5.197   7.491  0.4163  0.0308  1.2608
  142MOL0     H19129   6.227   5.364   7.520  0.1799  0.2462  0.0439
  142MOL0     H19130   6.417   5.381   7.861  0.0826 -1.0823 -1.3968
  142MOL0     H19131   6.343   5.597   7.981  1.1146  0.8149 -1.0298
  142MOL0     H19132   5.736   5.787   7.965 -1.0370  0.4477  0.7002
  142MOL0     H19133   5.623   5.996   8.069 -1.2663 -3.9969  0.1036
  142MOL0     H19134   5.866   6.257   8.254 -0.1353  2.1405 -0.8422
  142MOL0     H19135   5.720   6.317   8.193 -2.3949 -0.4363 -0.2905
  142MOL0     H19136   5.801   6.403   8.403  0.3435  0.7746  6.5722
  142MOL0     H19137   5.630   6.344   8.417  0.2261  0.1483  2.3079
  142MOL0     H19138   5.736   6.127   8.519 -1.2276  0.6130  2.0429
  142MOL0     H19139   5.891   6.220   8.526  0.9073 -3.0532 -0.3512
  142MOL0     H19140   5.623   6.292   8.664 -0.3897 -1.7492 -0.0713
  142MOL0     H19141   5.767   6.392   8.658 -1.8680  0.3450  0.5402
  142MOL0     H19142   5.784   6.279   8.861 -0.7920  1.0421 -0.3628
  142MOL0     H19143   5.894   6.198   8.740 -0.2804 -0.5984 -0.9357
  142MOL0     H19144   5.615   6.094   8.799 -1.2688 -0.5140 -1.0773
  142MOL0     H19145   5.739   6.014   8.707  2.3798 -1.8410  0.4864
  142MOL0     H19146   5.892   5.967   8.887  0.3725  0.7795 -1.8851
  142MOL0     H19147   5.725   5.919   8.934 -0.1189  0.7948  0.7876
  142MOL0     H19148   5.860   6.012   9.117 -0.0339 -0.2336  0.9150
  142MOL0     H19149   5.865   6.164   9.038 -1.2377  0.4631  0.9586
  142MOL0     H19150   5.929   6.028   8.352  0.5020 -3.3596  1.5797
  142MOL0     H19151   6.034   5.816   8.263  0.9684  0.1540 -2.9938
  142MOL0     H19152   5.950   5.534   7.852  1.0976  0.6938 -1.2560
  142MOL0     H19153   6.001   5.350   7.716 -1.4067  3.4045 -1.3286
  142MOL0     H19154   5.878   5.803   7.233 -1.3705  0.4071  2.0182
  142MOL0     H19155   5.758   6.005   7.149 -0.3008 -1.0893  0.9893
  142MOL0     H19156   5.963   6.479   7.118 -1.5560  0.6876 -0.5624
  142MOL0     H19157   5.982   6.719   7.081  2.7088 -2.2899  2.8532
  142MOL0     H19158   5.875   7.073   7.140  0.0869 -0.2605 -0.8155
  142MOL0     H19159   5.936   6.921   7.059 -1.7250 -2.1803  1.0478
  142MOL0     H19160   6.111   7.047   7.190 -2.6918  0.4652 -1.8504
  142MOL0     H19161   6.096   6.869   7.236  4.0639  0.7587  2.1021
  142MOL0     H19162   5.983   7.120   7.377  1.0471  0.6554 -2.6843
  142MOL0     H19163   6.138   7.053   7.418 -0.8879  0.8089  1.4839
  142MOL0     H19164   5.873   6.915   7.460  0.6968 -1.3972  0.8639
  142MOL0     H19165   6.021   6.822   7.483 -3.2643 -1.3952  2.9226
  142MOL0     H19166   5.975   7.080   7.814 -2.7628  2.3975 -2.2888
  142MOL0     H19167   5.636   6.775   7.331 -1.8025 -4.1720  1.6597
  142MOL0     H19168   5.625   6.492   7.500 -3.4031  3.3971  1.9020
  142MOL0     H19169   5.527   6.609   7.413 -1.0006 -1.8061  3.2185
  142MOL0     H19170   5.549   6.445   7.349 -0.8469  0.3810  0.2518
  143MOL0     O19171   9.248   0.315   2.582 -0.0104 -0.6513  0.8833
  143MOL0     C19172   9.141   0.254   2.589 -0.6565 -0.5221  0.5683
  143MOL0     O19173   9.103   0.159   2.500 -0.3384 -0.1192 -0.8049
  143MOL0     C19174   9.188   0.095   2.415 -0.6306 -0.6644 -1.6339
  143MOL0     C19175   9.316   0.049   2.454 -0.7419  0.5025 -0.0723
  143MOL0     C19176   9.405  -0.015   2.356  0.0373  0.0488 -0.3015
  143MOL0     C19177   9.352  -0.065   2.239 -0.0254 -0.0471  0.8918
  143MOL0     O19178   9.409  -0.131   2.130 -0.2434  0.7838 -0.2281
  143MOL0     C19179   9.540  -0.184   2.156  0.1577 -1.2342  0.1510
  143MOL0     C19180   9.612  -0.247   2.035 -0.4011  0.3127  0.2560
  143MOL0     C19181   9.752  -0.314   2.072  0.9314  0.1613  0.1072
  143MOL0     C19182   9.801  -0.414   1.970 -0.2860 -0.3590  1.7699
  143MOL0     C19183   9.835  -0.339   1.846 -1.2729 -0.3288 -0.0401
  143MOL0     C19184   9.857  -0.443   1.728  0.1710 -0.4208 -0.5208
  143MOL0     C19185   9.722  -0.479   1.669  0.1888 -0.3020  0.6013
  143MOL0     C19186   9.733  -0.607   1.584 -0.2271  0.9520 -0.7152
  143MOL0     N19187   9.603  -0.630   1.534  0.6717  0.3328  0.1178
  143MOL0     C19188   9.511  -0.697   1.606  0.4449 -0.6600 -0.5168
  143MOL0     C19189   9.416  -0.718   1.515 -0.3143 -0.7804  1.4144
  143MOL0     C19190   9.295  -0.789   1.540  0.0685 -0.1013  0.2716
  143MOL0     C19191   9.168  -0.737   1.452  0.8429 -0.2228  0.4710
  143MOL0     C19192   9.050  -0.825   1.457 -0.3716 -0.1341  0.3191
  143MOL0     C19193   8.923  -0.756   1.399 -0.7030 -0.3764 -0.3340
  143MOL0     O19194   8.799  -0.831   1.411  0.6855  0.4744  0.7537
  143MOL0     C19195   8.715  -0.813   1.521  0.9389  0.1586  0.0292
  143MOL0     C19196   8.734  -0.710   1.610 -0.1539  0.2561 -0.2240
  143MOL0     C19197   8.652  -0.704   1.725  0.5388  0.5139  0.3717
  143MOL0     C19198   8.538  -0.790   1.741 -0.2990 -0.3614 -0.3473
  143MOL0     C19199   8.438  -0.769   1.856 -0.6879 -1.6269  0.6535
  143MOL0     O19200   8.470  -0.678   1.960  0.0935  0.6445 -0.4977
  143MOL0     C19201   8.373  -0.660   2.060  0.0499 -1.1124  0.4276
  143MOL0     C19202   8.295  -0.541   2.058 -0.0072  0.5025  0.0098
  143MOL0     C19203   8.200  -0.512   2.166 -0.3056 -0.4999  0.4852
  143MOL0     C19204   8.176  -0.605   2.266 -0.2695  0.6179  0.3886
  143MOL0     O19205   8.077  -0.596   2.366  0.6743 -0.0323  1.2505
  143MOL0     C19206   7.954  -0.519   2.338 -1.0032  0.6600  0.3520
  143MOL0     C19207   7.882  -0.573   2.211 -0.1300  0.8757 -0.0295
  143MOL0     C19208   7.808  -0.709   2.226 -0.1638  0.2440  0.0553
  143MOL0     C19209   7.910  -0.824   2.208 -0.1103 -0.4302 -0.6752
  143MOL0     C19210   7.860  -0.937   2.130  0.0018  0.7033 -1.0374
  143MOL0     C19211   7.767  -1.020   2.210  0.2020  0.6202 -0.4942
  143MOL0     C19212   7.677  -1.091   2.110  0.1246 -0.1898 -0.1165
  143MOL0     C19213   7.590  -1.195   2.191 -1.2990 -0.7769  0.0247
  143MOL0    Cl19214   7.691  -1.339   2.214 -0.5041 -0.1667 -0.3702
  143MOL0     C19215   8.243  -0.727   2.265 -0.2624  0.1059 -0.6535
  143MOL0     C19216   8.344  -0.750   2.170  0.1321  0.4368  0.5150
  143MOL0     O19217   8.333  -0.831   1.848 -0.6543 -0.5188  0.6726
  143MOL0     C19218   8.510  -0.884   1.639 -0.1368  0.2635 -0.0254
  143MOL0     C19219   8.602  -0.903   1.533 -0.2653  0.3143 -0.7236
  143MOL0     N19220   9.447  -0.667   1.382 -0.4648 -0.2491 -0.4617
  143MOL0     N19221   9.563  -0.604   1.412  0.1596  0.6708 -0.0204
  143MOL0     C19222   9.227  -0.020   2.207  1.1265  0.1432 -0.1034
  143MOL0     C19223   9.146   0.068   2.287 -0.1560  1.1309 -1.1746
  143MOL0     C19224   9.043   0.314   2.691 -0.5046  1.0875  0.4587
  143MOL0     C19225   9.083   0.441   2.745  1.2023 -0.2452  0.4492
  143MOL0     C19226   8.986   0.491   2.839 -0.0023 -0.0875 -0.0369
  143MOL0     C19227   8.867   0.430   2.874  0.1337 -0.0542 -0.4058
  143MOL0     O19228   8.778   0.480   2.967  0.2899  0.1682  0.1099
  143MOL0     C19229   8.830   0.508   3.091  0.4665  0.2817 -0.2661
  143MOL0     C19230   8.761   0.427   3.187  0.7268  0.0825 -0.6555
  143MOL0     C19231   8.763   0.269   3.195  0.2572 -0.3767 -0.2287
  143MOL0     C19232   8.915   0.219   3.220  0.9593  0.7207  0.5647
  143MOL0     C19233   8.969   0.272   3.345 -1.4186  0.9458  0.2957
  143MOL0     C19234   9.026   0.309   3.444  0.0805 -0.8055 -0.9196
  143MOL0     C19235   8.837   0.307   2.821 -0.0065  0.5938  0.6646
  143MOL0     C19236   8.928   0.241   2.732 -1.2693 -1.1582  0.5997
  143MOL0     C19237   8.894   0.108   2.668 -0.1534  0.3486  1.2415
  143MOL0     H19238   9.353   0.079   2.551 -4.4889  0.8291  1.4323
  143MOL0     H19239   9.507  -0.028   2.390 -0.3046  0.7169  1.0206
  143MOL0     H19240   9.604  -0.106   2.198 -1.7158  0.6907 -0.3540
  143MOL0     H19241   9.526  -0.265   2.227 -1.4383 -1.4306 -0.3409
  143MOL0     H19242   9.622  -0.168   1.960  0.9626  1.2770  1.4109
  143MOL0     H19243   9.549  -0.327   1.994  0.5963 -0.5719  0.4173
  143MOL0     H19244   9.731  -0.373   2.162 -4.3857 -1.9405 -2.0814
  143MOL0     H19245   9.831  -0.241   2.091  0.1564  1.2498 -0.7175
  143MOL0     H19246   9.894  -0.465   1.999 -0.9965 -2.6824  0.1929
  143MOL0     H19247   9.718  -0.482   1.952 -1.3334  1.7557 -2.7577
  143MOL0     H19248   9.752  -0.273   1.819  0.8939  1.0101 -4.2514
  143MOL0     H19249   9.918  -0.269   1.856 -0.6302 -0.9874 -0.6028
  143MOL0     H19250   9.919  -0.409   1.644  2.6346 -1.2188  0.8759
  143MOL0     H19251   9.906  -0.529   1.775  1.7874  1.7901  2.1250
  143MOL0     H19252   9.706  -0.388   1.610 -0.8484 -0.8451  0.0258
  143MOL0     H19253   9.644  -0.503   1.742  1.8323 -1.9833  1.9113
  143MOL0     H19254   9.804  -0.587   1.503  0.3857 -0.0344 -0.4288
  143MOL0     H19255   9.780  -0.691   1.636  2.1145  1.5943 -1.6941
  143MOL0     H19256   9.500  -0.725   1.711 -0.9127 -1.7417 -0.9211
  143MOL0     H19257   9.314  -0.894   1.516  0.3137  0.1301 -0.5595
  143MOL0     H19258   9.278  -0.771   1.647  1.7558  3.9197  0.0225
  143MOL0     H19259   9.145  -0.636   1.487  0.4080 -1.3619  3.7917
  143MOL0     H19260   9.205  -0.732   1.349  0.6229  4.2306  0.4124
  143MOL0     H19261   9.041  -0.843   1.565  1.0011 -1.1674  0.2809
  143MOL0     H19262   9.059  -0.924   1.413  0.8404 -0.6110  1.5734
  143MOL0     H19263   8.948  -0.759   1.293  3.7498  2.9595  0.3424
  143MOL0     H19264   8.910  -0.650   1.426 -0.8674  0.3123 -2.8895
  143MOL0     H19265   8.822  -0.647   1.618  1.3950 -1.8738  0.5595
  143MOL0     H19266   8.670  -0.632   1.804 -1.6360  0.8943  0.5856
  143MOL0     H19267   8.299  -0.467   1.979 -2.2460 -0.1196 -0.7629
  143MOL0     H19268   8.162  -0.411   2.168  1.7597  0.3177  0.9611
  143MOL0     H19269   7.896  -0.524   2.431 -0.6431 -1.3179  0.5178
  143MOL0     H19270   7.972  -0.412   2.322 -0.4759  0.3973 -0.9650
  143MOL0     H19271   7.803  -0.500   2.195  1.0578  1.6902 -2.9327
  143MOL0     H19272   7.934  -0.567   2.114 -2.3028  0.3973 -1.2766
  143MOL0     H19273   7.772  -0.697   2.328 -3.1521 -1.7541 -0.6422
  143MOL0     H19274   7.720  -0.710   2.162 -0.6730  2.3029  0.6316
  143MOL0     H19275   7.928  -0.860   2.309 -0.5415  0.8430 -0.1281
  143MOL0     H19276   7.999  -0.791   2.153  0.9876 -1.2363  0.5867
  143MOL0     H19277   7.936  -1.012   2.104  0.3444 -0.0924  1.9131
  143MOL0     H19278   7.809  -0.903   2.040 -3.5404 -5.2629 -1.8575
  143MOL0     H19279   7.817  -1.088   2.279 -2.5256 -1.2953 -0.2209
  143MOL0     H19280   7.710  -0.953   2.275 -1.8061 -0.8736 -0.6167
  143MOL0     H19281   7.742  -1.142   2.037  2.4843  0.8337  1.1412
  143MOL0     H19282   7.612  -1.019   2.060 -2.1321 -0.2416  2.5691
  143MOL0     H19283   7.575  -1.145   2.287  2.9397  0.9857  0.0142
  143MOL0     H19284   7.498  -1.234   2.147 -1.1577 -0.6877 -0.3607
  143MOL0     H19285   8.210  -0.796   2.342  1.8377  0.1828  0.4120
  143MOL0     H19286   8.383  -0.851   2.184 -0.6749  0.2181  1.2679
  143MOL0     H19287   8.419  -0.940   1.621 -1.5074  2.8291 -1.8252
  143MOL0     H19288   8.582  -0.984   1.463 -1.4562  0.2828 -0.3675
  143MOL0     H19289   9.191  -0.048   2.108  1.8624  0.2019 -0.3909
  143MOL0     H19290   9.047   0.104   2.259 -1.5483 -0.5257  1.3208
  143MOL0     H19291   9.177   0.489   2.724  1.2215 -0.6238 -0.3460
  143MOL0     H19292   9.009   0.590   2.877 -0.8768  0.1645 -0.1344
  143MOL0     H19293   8.816   0.614   3.115 -1.8181  0.6286 -2.6395
  143MOL0     H19294   8.937   0.487   3.103  0.3062  0.5521  2.0146
  143MOL0     H19295   8.656   0.456   3.199  0.1834 -2.2766  0.8592
  143MOL0     H19296   8.798   0.453   3.287  1.7596 -2.4060 -0.3187
  143MOL0     H19297   8.732   0.235   3.095 -0.6291  1.2849 -0.5518
  143MOL0     H19298   8.697   0.230   3.273  0.6115  3.2984  2.1009
  143MOL0     H19299   8.914   0.109   3.223 -2.1098  0.6854  2.0026
  143MOL0     H19300   8.973   0.242   3.130 -0.9386  1.0322 -0.6406
  143MOL0     H19301   9.059   0.349   3.537 -2.4242 -1.9403  0.5751
  143MOL0     H19302   8.740   0.261   2.835  0.3225 -0.1106  0.6973
  143MOL0     H19303   8.953   0.017   2.687  0.1067  0.0322 -0.8434
  143MOL0     H19304   8.790   0.082   2.690 -0.7821 -0.0366 -1.7566
  143MOL0     H19305   8.889   0.109   2.558  2.0343 -1.7374  1.0485
  144MOL0     O19306   3.327   3.161   2.830 -0.1109  0.1786 -0.2037
  144MOL0     C19307   3.383   3.047   2.824 -0.9500  0.9828  0.3820
  144MOL0     O19308   3.466   2.994   2.917 -0.4621 -0.1059  0.4853
  144MOL0     C19309   3.421   2.977   3.043 -0.1990 -0.1077  0.1643
  144MOL0     C19310   3.293   2.994   3.103  0.0137  0.1117  0.9313
  144MOL0     C19311   3.272   2.981   3.234 -0.5227 -0.4480  0.6490
  144MOL0     C19312   3.363   2.930   3.327  0.3000 -0.1847 -0.0408
  144MOL0     O19313   3.313   2.908   3.455  0.2236  0.9767  0.2716
  144MOL0     C19314   3.413   2.848   3.548  0.2393 -0.0930  0.8578
  144MOL0     C19315   3.340   2.800   3.662  0.7884  0.2746 -0.9684
  144MOL0     C19316   3.414   2.677   3.701  0.7163 -0.4166 -0.0527
  144MOL0     C19317   3.374   2.647   3.849 -0.7446  0.7020  0.6643
  144MOL0     C19318   3.390   2.493   3.882 -0.2450 -0.2546 -0.3542
  144MOL0     C19319   3.281   2.400   3.833 -0.8130 -0.2396  0.8711
  144MOL0     C19320   3.298   2.254   3.881 -0.3404 -0.6117 -0.1796
  144MOL0     C19321   3.442   2.199   3.838 -0.4435  1.2534 -1.0176
  144MOL0     N19322   3.442   2.053   3.855 -0.8604  0.0874  0.4229
  144MOL0     C19323   3.437   1.983   3.972 -0.0809  1.1864 -0.5523
  144MOL0     C19324   3.457   1.849   3.932 -0.2166 -0.6453 -1.4385
  144MOL0     C19325   3.474   1.721   4.022 -0.0955 -0.4142 -0.4011
  144MOL0     C19326   3.345   1.710   4.106 -0.0612 -0.2192  0.5912
  144MOL0     C19327   3.350   1.604   4.216 -0.1306  0.5122 -0.5798
  144MOL0     C19328   3.237   1.632   4.322 -0.3269  0.1610  0.6615
  144MOL0     O19329   3.252   1.563   4.446  0.2747 -0.1979  0.0469
  144MOL0     C19330   3.234   1.423   4.450 -1.0151 -0.2628 -0.7203
  144MOL0     C19331   3.271   1.363   4.575  0.3178 -0.5864 -0.4462
  144MOL0     C19332   3.280   1.225   4.591 -0.4110  0.2978 -0.2148
  144MOL0     C19333   3.247   1.139   4.473 -1.0883 -0.8807  0.3335
  144MOL0     C19334   3.267   0.996   4.474 -0.5906  0.6276  0.3879
  144MOL0     O19335   3.350   0.948   4.566  0.0880 -0.1344 -0.9391
  144MOL0     C19336   3.343   0.819   4.593  0.8359 -0.0059 -0.0435
  144MOL0     C19337   3.340   0.788   4.733  0.0854 -0.5363  0.4674
  144MOL0     C19338   3.311   0.660   4.778 -1.0831  0.2589 -0.3569
  144MOL0     C19339   3.321   0.550   4.684  0.3243 -1.0450  0.1580
  144MOL0     O19340   3.316   0.429   4.753 -0.0915  0.8955  0.0919
  144MOL0     C19341   3.251   0.316   4.706  0.5498  0.2190 -0.5195
  144MOL0     C19342   3.106   0.331   4.699 -0.4447  0.9313  0.4952
  144MOL0     C19343   3.029   0.211   4.652  0.6903  0.3439  0.2347
  144MOL0     C19344   3.035   0.095   4.746 -0.6061 -0.9713 -0.2423
  144MOL0     C19345   2.939  -0.019   4.701 -0.9409 -0.1830 -0.6558
  144MOL0     C19346   2.932  -0.129   4.813  0.6637  0.2112 -0.2872
  144MOL0     C19347   3.066  -0.215   4.828  0.6420  0.4254  0.1936
  144MOL0     C19348   3.133  -0.269   4.697 -0.2147 -0.5939  0.1141
  144MOL0    Cl19349   3.016  -0.382   4.606 -0.0906 -0.9454 -0.1246
  144MOL0     C19350   3.337   0.581   4.549  0.3215  0.4435  0.2213
  144MOL0     C19351   3.339   0.710   4.503  0.9787  0.2758 -0.0677
  144MOL0     O19352   3.210   0.931   4.389 -0.0931 -0.5344 -0.2022
  144MOL0     C19353   3.186   1.204   4.370 -0.3372  0.1895 -0.3396
  144MOL0     C19354   3.193   1.342   4.352 -0.0417 -0.4794  0.2260
  144MOL0     N19355   3.453   1.853   3.794  0.1891 -0.4252 -0.6422
  144MOL0     N19356   3.454   1.964   3.749  0.1444 -0.0384  0.6283
  144MOL0     C19357   3.492   2.890   3.271  0.4119  0.5778 -0.3085
  144MOL0     C19358   3.521   2.918   3.133  0.5548 -0.5479  0.7997
  144MOL0     C19359   3.402   2.980   2.691  0.6542 -0.7394  0.7328
  144MOL0     C19360   3.477   2.865   2.691  0.3096  0.2095 -0.0015
  144MOL0     C19361   3.489   2.786   2.574 -0.9587 -1.0904 -0.3177
  144MOL0     C19362   3.424   2.812   2.457 -0.2257 -0.2550 -0.2503
  144MOL0     O19363   3.463   2.727   2.360  0.8307  0.1034  0.3079
  144MOL0     C19364   3.395   2.747   2.232 -0.3479  0.0085 -0.4062
  144MOL0     C19365   3.253   2.700   2.233 -0.2969 -0.5877  0.2909
  144MOL0     C19366   3.191   2.682   2.095 -0.1095  0.2159  0.5402
  144MOL0     C19367   3.118   2.544   2.101 -0.3067 -0.2737  1.1263
  144MOL0     C19368   3.025   2.564   1.987 -0.4191 -0.3146 -0.2321
  144MOL0     C19369   2.963   2.587   1.883 -0.8891  0.0043  0.5702
  144MOL0     C19370   3.341   2.929   2.459  0.0537  0.0284 -0.5651
  144MOL0     C19371   3.330   3.013   2.565 -0.0654  0.6514  0.1345
  144MOL0     C19372   3.262   3.144   2.545  0.6863  0.8517 -0.5117
  144MOL0     H19373   3.219   3.036   3.035  3.6233  1.3617 -2.6894
  144MOL0     H19374   3.184   3.029   3.275 -0.1494 -0.7091  1.7967
  144MOL0     H19375   3.446   2.756   3.497  0.8596  0.6827 -0.1790
  144MOL0     H19376   3.495   2.915   3.575  2.9594 -3.0478  0.5186
  144MOL0     H19377   3.240   2.766   3.634  0.4069  1.7131 -1.4376
  144MOL0     H19378   3.321   2.886   3.727 -1.0527  1.7632 -3.2747
  144MOL0     H19379   3.520   2.702   3.695  0.7193 -0.4209 -0.0183
  144MOL0     H19380   3.400   2.598   3.627 -2.2540  0.4285 -0.5323
  144MOL0     H19381   3.436   2.703   3.920 -0.8429  0.7670  0.6992
  144MOL0     H19382   3.272   2.680   3.874 -1.2257 -1.1472  1.2974
  144MOL0     H19383   3.481   2.456   3.833  0.4832 -0.9131  1.4115
  144MOL0     H19384   3.399   2.477   3.990  2.8821  0.1692 -0.4645
  144MOL0     H19385   3.189   2.448   3.868 -0.6582  2.6623 -2.1357
  144MOL0     H19386   3.272   2.414   3.725 -0.0099  5.2670  1.2514
  144MOL0     H19387   3.215   2.191   3.849 -1.5485  1.2142 -0.7818
  144MOL0     H19388   3.295   2.257   3.990 -0.9736  0.3315 -0.2147
  144MOL0     H19389   3.469   2.217   3.734 -1.7211  2.7039 -1.1400
  144MOL0     H19390   3.516   2.254   3.897 -1.9697  2.1922  0.0931
  144MOL0     H19391   3.432   2.017   4.075  2.5714  0.2184 -0.0158
  144MOL0     H19392   3.489   1.627   3.968 -0.0421 -0.1827 -0.7948
  144MOL0     H19393   3.561   1.738   4.087 -2.4831 -2.2684  3.6773
  144MOL0     H19394   3.325   1.802   4.161 -1.7069 -1.0425  1.4461
  144MOL0     H19395   3.260   1.697   4.038 -1.9388  1.5068  2.4406
  144MOL0     H19396   3.448   1.618   4.263 -1.7599  1.6528  2.7653
  144MOL0     H19397   3.342   1.502   4.176 -1.1417  1.5530 -3.1978
  144MOL0     H19398   3.136   1.618   4.281  0.5419 -3.1493 -0.7350
  144MOL0     H19399   3.259   1.734   4.355 -2.3737  1.0258 -0.4760
  144MOL0     H19400   3.288   1.420   4.667 -0.1330 -0.4686 -0.4347
  144MOL0     H19401   3.324   1.177   4.677  2.2529 -2.5175 -2.8787
  144MOL0     H19402   3.353   0.869   4.805 -0.7465 -1.2014  1.3976
  144MOL0     H19403   3.310   0.649   4.886  2.1703  1.0506 -0.1401
  144MOL0     H19404   3.276   0.298   4.601 -0.8929 -3.2534 -0.3923
  144MOL0     H19405   3.278   0.233   4.771  2.1020  1.7025  0.8402
  144MOL0     H19406   3.063   0.376   4.789 -0.5544  3.6007 -0.7888
  144MOL0     H19407   3.088   0.418   4.635 -0.5209  0.3915 -0.2337
  144MOL0     H19408   2.930   0.259   4.650  1.9630  3.1312 -1.5278
  144MOL0     H19409   3.051   0.183   4.548  1.3777 -0.9924  0.7196
  144MOL0     H19410   3.008   0.119   4.850 -3.2278 -1.5791 -0.7147
  144MOL0     H19411   3.142   0.071   4.743 -0.9305 -2.3145 -1.9904
  144MOL0     H19412   2.986  -0.075   4.620 -1.0473 -2.4975  0.7695
  144MOL0     H19413   2.847   0.024   4.661 -0.7360  2.2363  1.2707
  144MOL0     H19414   2.913  -0.072   4.904 -1.6615  0.3241 -0.7941
  144MOL0     H19415   2.842  -0.190   4.804  1.8428 -1.9163  1.4903
  144MOL0     H19416   3.034  -0.308   4.876 -1.7978  1.7019  1.2026
  144MOL0     H19417   3.130  -0.145   4.882  2.2404 -1.5812  1.0334
  144MOL0     H19418   3.175  -0.191   4.632  3.0067 -1.6398  0.7665
  144MOL0     H19419   3.216  -0.327   4.737  0.3239  1.7266  2.7047
  144MOL0     H19420   3.355   0.499   4.481 -2.5046 -0.7949  0.8080
  144MOL0     H19421   3.338   0.730   4.396 -1.2387  0.3136 -0.0913
  144MOL0     H19422   3.148   1.143   4.288  0.3843 -0.8142  0.0551
  144MOL0     H19423   3.144   1.382   4.264 -0.8319 -0.3613  0.7126
  144MOL0     H19424   3.575   2.849   3.328  1.4969  2.7797 -0.1707
  144MOL0     H19425   3.627   2.905   3.112  1.2895  3.7889  0.8611
  144MOL0     H19426   3.524   2.838   2.784 -2.6334  0.6359  1.7355
  144MOL0     H19427   3.560   2.704   2.575  1.0360  0.5271  1.0670
  144MOL0     H19428   3.443   2.700   2.145  0.1453  2.1949 -1.3887
  144MOL0     H19429   3.399   2.854   2.209  2.5675  0.1744  0.4895
  144MOL0     H19430   3.193   2.781   2.275 -1.9331  0.4334 -3.5853
  144MOL0     H19431   3.248   2.617   2.304  0.2379 -0.0198  1.0031
  144MOL0     H19432   3.262   2.659   2.015 -2.6395 -1.3667 -1.4187
  144MOL0     H19433   3.140   2.775   2.067 -0.1290  0.6434  1.9034
  144MOL0     H19434   3.192   2.464   2.094  3.1387  2.7877 -1.0697
  144MOL0     H19435   3.058   2.526   2.191  0.6920 -2.6326  1.3739
  144MOL0     H19436   2.908   2.608   1.794 -2.7547 -0.7870  1.4873
  144MOL0     H19437   3.285   2.963   2.372 -2.5037 -0.9208  0.6263
  144MOL0     H19438   3.242   3.156   2.438  1.3641  1.4826 -0.5750
  144MOL0     H19439   3.174   3.148   2.609  0.9507  1.5013 -0.1816
  144MOL0     H19440   3.339   3.214   2.579  1.4655 -0.5402  0.6838
  145MOL0     O19441   4.769   2.527   9.501 -0.0646  0.0335  0.5511
  145MOL0     C19442   4.817   2.496   9.388 -0.0318  0.2400  0.1431
  145MOL0     O19443   4.901   2.394   9.357 -0.5106 -0.0054 -0.1028
  145MOL0     C19444   4.939   2.292   9.442  0.2113  0.2565 -0.5424
  145MOL0     C19445   5.026   2.204   9.384 -0.1182  0.3492 -0.3636
  145MOL0     C19446   5.086   2.101   9.454 -0.1609  0.1527  0.4376
  145MOL0     C19447   5.054   2.077   9.594 -0.1730  1.7881  0.1169
  145MOL0     O19448   5.099   1.977   9.680  0.0323  0.1501  0.1048
  145MOL0     C19449   5.153   1.854   9.617 -0.2727 -0.4863 -0.6004
  145MOL0     C19450   5.161   1.749   9.730  0.0959 -0.4447  0.4426
  145MOL0     C19451   5.022   1.705   9.765 -0.1473 -0.5925 -0.5110
  145MOL0     C19452   5.008   1.630   9.895 -0.0421  0.2298 -0.3541
  145MOL0     C19453   5.064   1.712  10.013 -0.7714  0.3629 -0.4277
  145MOL0     C19454   5.035   1.632  10.146  0.5112 -0.0930 -0.5258
  145MOL0     C19455   5.074   1.706  10.280  0.3813  0.0593  0.1993
  145MOL0     C19456   5.073   1.626  10.405 -0.8143  0.1809  0.3362
  145MOL0     N19457   5.089   1.723  10.521 -0.9652 -0.2706 -0.1228
  145MOL0     C19458   5.206   1.741  10.582  0.6431 -0.2548  0.1094
  145MOL0     C19459   5.197   1.849  10.664  0.7462  0.1957 -0.1688
  145MOL0     C19460   5.315   1.920  10.735  0.0361 -0.9423 -0.7030
  145MOL0     C19461   5.425   1.972  10.630 -0.0413 -0.6538  0.5005
  145MOL0     C19462   5.365   2.051  10.516  0.3850  0.2125  1.0030
  145MOL0     C19463   5.287   2.182  10.554 -0.6269  0.5351  0.1524
  145MOL0     O19464   5.381   2.289  10.601  0.0437  0.5812  0.4007
  145MOL0     C19465   5.380   2.407  10.529  0.6702  0.1310 -0.7537
  145MOL0     C19466   5.424   2.416  10.395 -0.4628  1.1923  0.3440
  145MOL0     C19467   5.438   2.544  10.341 -0.4872  0.5725  0.1906
  145MOL0     C19468   5.386   2.656  10.401 -0.6416  0.1404 -0.2723
  145MOL0     C19469   5.392   2.790  10.336  0.2982  0.3005  0.0954
  145MOL0     O19470   5.475   2.793  10.229 -1.0469  1.0799 -0.7857
  145MOL0     C19471   5.476   2.901  10.143 -0.2640  0.1911 -0.1808
  145MOL0     C19472   5.424   2.883  10.017  1.0331 -0.1650  0.3944
  145MOL0     C19473   5.415   2.997   9.934 -0.4849  0.3778 -0.1413
  145MOL0     C19474   5.430   3.127   9.978  0.1995  0.3718  0.1254
  145MOL0     O19475   5.392   3.218   9.890  0.1098  0.3547 -0.1405
  145MOL0     C19476   5.437   3.350   9.920 -1.4081  0.0668 -0.4969
  145MOL0     C19477   5.422   3.426   9.785  0.5053  0.2935 -0.8699
  145MOL0     C19478   5.453   3.579   9.804  0.5991 -0.3539  0.1340
  145MOL0     C19479   5.430   3.665   9.679  0.1204 -0.4849 -0.3192
  145MOL0     C19480   5.486   3.811   9.712  0.0762 -0.0122 -0.2605
  145MOL0     C19481   5.492   3.907   9.591 -0.4541  0.4068  0.2447
  145MOL0     C19482   5.359   3.898   9.510 -0.4322  0.1621  0.0830
  145MOL0     C19483   5.343   4.010   9.417  0.2411 -0.1438  1.0383
  145MOL0    Cl19484   5.460   3.985   9.266 -0.0177 -0.0257  0.0575
  145MOL0     C19485   5.476   3.141  10.113  0.0372  0.4906  0.0060
  145MOL0     C19486   5.493   3.027  10.193  0.2217 -1.0671  0.3909
  145MOL0     O19487   5.313   2.877  10.371 -1.3969  0.1260  0.4992
  145MOL0     C19488   5.327   2.645  10.520 -0.2379  0.1415  0.0798
  145MOL0     C19489   5.334   2.527  10.585  0.2216  0.2341  0.0946
  145MOL0     N19490   5.057   1.874  10.663 -0.1019 -0.3206 -0.1038
  145MOL0     N19491   5.000   1.800  10.578  0.4813  0.1305 -0.8694
  145MOL0     C19492   4.962   2.170   9.652 -0.0298 -0.2024 -0.2585
  145MOL0     C19493   4.915   2.278   9.580 -0.4747  0.4762 -0.0781
  145MOL0     C19494   4.802   2.590   9.278  0.7090 -0.4040  0.6612
  145MOL0     C19495   4.739   2.708   9.321  0.7020 -0.8298  0.0141
  145MOL0     C19496   4.726   2.812   9.234  0.7776  0.0634 -0.0857
  145MOL0     C19497   4.786   2.812   9.105 -0.1504 -0.6916 -0.2184
  145MOL0     O19498   4.775   2.923   9.021 -0.2126 -0.1611 -0.3173
  145MOL0     C19499   4.726   3.049   9.075 -0.4122 -0.3245  1.1750
  145MOL0     C19500   4.813   3.130   9.163 -0.2590 -0.4826  0.6256
  145MOL0     C19501   4.751   3.260   9.199 -0.2390  0.3367 -0.2378
  145MOL0     C19502   4.814   3.334   9.320  0.5802  0.1675 -0.2725
  145MOL0     C19503   4.757   3.473   9.324  0.1202  0.3747  0.1456
  145MOL0     C19504   4.706   3.587   9.335  0.1500  0.0000 -0.7007
  145MOL0     C19505   4.843   2.693   9.059 -0.0021  0.5023  0.1780
  145MOL0     C19506   4.844   2.576   9.147  0.3008 -0.4244 -0.3241
  145MOL0     C19507   4.898   2.455   9.078  0.0227  0.6844 -0.0799
  145MOL0     H19508   5.051   2.225   9.280  1.1310 -1.5359 -0.4977
  145MOL0     H19509   5.154   2.036   9.401  0.6212 -0.7781  2.5068
  145MOL0     H19510   5.089   1.814   9.537 -1.1037 -1.3575  0.4643
  145MOL0     H19511   5.256   1.880   9.594 -0.4835  1.8350  0.8373
  145MOL0     H19512   5.223   1.786   9.812 -0.9817 -3.9438  3.0534
  145MOL0     H19513   5.216   1.663   9.691  1.7660 -0.9492  3.6151
  145MOL0     H19514   4.984   1.643   9.683  0.7566 -1.5453 -0.2289
  145MOL0     H19515   4.959   1.794   9.767  2.8509  1.8756 -3.9726
  145MOL0     H19516   4.901   1.618   9.909 -0.3601  1.8924 -1.0865
  145MOL0     H19517   5.055   1.532   9.886  1.3380  0.8664 -0.4326
  145MOL0     H19518   5.168   1.745  10.002 -0.8290  0.2269 -1.4387
  145MOL0     H19519   5.007   1.806  10.016  1.9932  2.3438 -3.1418
  145MOL0     H19520   4.927   1.619  10.158  0.1693  3.1031  0.9077
  145MOL0     H19521   5.089   1.538  10.139  1.5537  0.5893 -2.5469
  145MOL0     H19522   4.996   1.780  10.297  1.7777  1.5461  0.3927
  145MOL0     H19523   5.166   1.760  10.256 -1.9908  2.9788 -3.5313
  145MOL0     H19524   4.973   1.583  10.407 -0.4827 -0.9237  4.9906
  145MOL0     H19525   5.142   1.545  10.429 -0.4574  0.7770  1.4161
  145MOL0     H19526   5.301   1.693  10.561 -0.2445 -1.3784 -1.5911
  145MOL0     H19527   5.273   2.005  10.789 -1.4269 -1.3069 -1.2341
  145MOL0     H19528   5.365   1.854  10.807  0.7318 -0.1083 -0.4077
  145MOL0     H19529   5.503   2.034  10.676 -0.9128  1.3180 -0.5550
  145MOL0     H19530   5.471   1.884  10.585  3.1514  1.0669  0.1482
  145MOL0     H19531   5.294   1.983  10.467  0.5010  2.4205 -2.5525
  145MOL0     H19532   5.440   2.073  10.440 -0.7338  0.1406 -0.1380
  145MOL0     H19533   5.209   2.149  10.622  1.7417 -1.1351  2.2087
  145MOL0     H19534   5.248   2.223  10.460  1.4689  2.2506 -0.0538
  145MOL0     H19535   5.457   2.322  10.352 -3.8743 -1.3050  2.6580
  145MOL0     H19536   5.479   2.533  10.241 -0.7585 -4.8180  0.3701
  145MOL0     H19537   5.406   2.786   9.971  3.2224  0.5982 -2.3102
  145MOL0     H19538   5.372   2.998   9.835  0.8218 -1.0047 -0.7670
  145MOL0     H19539   5.379   3.388  10.004 -1.5998 -2.5016  0.6305
  145MOL0     H19540   5.543   3.362   9.945 -0.7042 -2.1757 -2.0674
  145MOL0     H19541   5.485   3.374   9.713 -0.2779 -1.8258 -0.1197
  145MOL0     H19542   5.323   3.411   9.743  0.8538  0.1699 -1.6579
  145MOL0     H19543   5.371   3.606   9.871 -1.5551 -0.4810 -2.3056
  145MOL0     H19544   5.546   3.596   9.858 -0.1119 -1.3881  1.7573
  145MOL0     H19545   5.325   3.668   9.650 -0.4098 -2.1511  1.1955
  145MOL0     H19546   5.487   3.630   9.593  0.0414  0.5058 -0.7925
  145MOL0     H19547   5.586   3.797   9.754  0.2677 -0.5571 -0.8652
  145MOL0     H19548   5.430   3.860   9.792  0.6183  1.5262 -0.7865
  145MOL0     H19549   5.504   4.007   9.635 -4.3976  1.7441 -1.2372
  145MOL0     H19550   5.572   3.872   9.525 -0.4585 -0.9645  0.9489
  145MOL0     H19551   5.276   3.876   9.578  1.0253  1.7453  2.5682
  145MOL0     H19552   5.368   3.812   9.444  1.6298  0.7075 -0.4053
  145MOL0     H19553   5.240   4.009   9.380  0.1959  2.0319  0.9628
  145MOL0     H19554   5.359   4.106   9.468 -1.6561  0.5058  0.4732
  145MOL0     H19555   5.493   3.238  10.159  0.0015  0.7376 -0.4989
  145MOL0     H19556   5.524   3.055  10.293 -2.8987 -0.2409  1.2571
  145MOL0     H19557   5.281   2.728  10.573 -0.7464  0.3419 -0.6472
  145MOL0     H19558   5.281   2.516  10.679  2.3599 -1.9410  1.1718
  145MOL0     H19559   4.947   2.153   9.758 -0.7507 -0.3209 -0.3729
  145MOL0     H19560   4.850   2.345   9.635  0.6680  1.4075  0.1804
  145MOL0     H19561   4.687   2.719   9.416  2.4624  2.3927  0.7668
  145MOL0     H19562   4.661   2.890   9.275  0.4462  0.5207 -1.4143
  145MOL0     H19563   4.640   3.023   9.137  1.6673  0.7785  4.8193
  145MOL0     H19564   4.690   3.100   8.985  0.0475 -0.2568  1.0259
  145MOL0     H19565   4.905   3.144   9.106 -0.9829 -2.1883 -1.0603
  145MOL0     H19566   4.830   3.063   9.248 -0.5172 -0.4058  0.7394
  145MOL0     H19567   4.648   3.240   9.232 -1.3198  0.1625 -3.4164
  145MOL0     H19568   4.750   3.319   9.108 -2.5123  2.2659  0.9316
  145MOL0     H19569   4.778   3.276   9.405  2.0315  1.2671  1.1583
  145MOL0     H19570   4.923   3.331   9.326  0.4814 -1.0912  1.7861
  145MOL0     H19571   4.667   3.687   9.333 -3.4931 -1.2674 -2.3758
  145MOL0     H19572   4.860   2.676   8.953 -0.3387  0.7907  0.0739
  145MOL0     H19573   4.898   2.474   8.970 -0.1598 -1.7919 -0.5695
  145MOL0     H19574   4.992   2.426   9.125 -2.4670 -0.6720  4.7989
  145MOL0     H19575   4.837   2.370   9.109 -0.6652  1.9324  2.2327
  146MOL0     O19576  10.123   9.704   7.464  0.0389 -0.0986 -0.6653
  146MOL0     C19577  10.241   9.729   7.479 -0.1707  0.7656 -0.2978
  146MOL0     O19578  10.299   9.851   7.499  0.1121  0.0120  0.5037
  146MOL0     C19579  10.213   9.961   7.533  0.6035 -0.1182 -1.1080
  146MOL0     C19580  10.261  10.038   7.639 -0.6755  1.0505 -0.4750
  146MOL0     C19581  10.206  10.149   7.694  0.9033 -0.1482 -0.1541
  146MOL0     C19582  10.088  10.191   7.635  0.0204 -0.2845 -0.2340
  146MOL0     O19583  10.036  10.312   7.678 -0.4390 -0.6079 -0.8052
  146MOL0     C19584  10.079  10.427   7.599  0.7145 -0.0525 -0.3411
  146MOL0     C19585   9.994  10.547   7.638  0.2820  0.1523  0.0521
  146MOL0     C19586  10.022  10.671   7.548  0.0310 -0.2490  0.0111
  146MOL0     C19587   9.910  10.773   7.549 -0.1284 -0.0175 -0.5960
  146MOL0     C19588   9.940  10.911   7.482 -1.0567  0.5463 -0.1822
  146MOL0     C19589   9.975  10.939   7.336 -0.3518 -0.7598  0.7936
  146MOL0     C19590  10.119  10.893   7.313 -0.1347  0.4292 -0.8315
  146MOL0     C19591  10.174  10.934   7.182 -0.1343  0.7410 -0.2437
  146MOL0     N19592  10.105  10.872   7.066 -0.2571 -0.8360 -0.7540
  146MOL0     C19593  10.024  10.949   6.986 -0.1410 -0.6190 -0.2009
  146MOL0     C19594   9.973  10.853   6.905  0.4351 -1.0043  0.5744
  146MOL0     C19595   9.905  10.885   6.779  0.2099  0.6894  0.5276
  146MOL0     C19596   9.967  10.811   6.661 -0.3879 -0.0131  0.9771
  146MOL0     C19597  10.108  10.858   6.611  0.3326  0.3248 -0.6362
  146MOL0     C19598  10.116  11.003   6.566 -0.4910  0.6530 -0.1024
  146MOL0     O19599  10.122  11.094   6.681 -0.3382 -1.3046 -0.1499
  146MOL0     C19600  10.216  11.198   6.677 -0.5955  0.5352 -0.1726
  146MOL0     C19601  10.237  11.273   6.560 -1.2235  1.5141  1.2596
  146MOL0     C19602  10.334  11.370   6.551 -1.0541 -0.1544  0.1003
  146MOL0     C19603  10.405  11.402   6.668  0.5061 -0.5806 -0.8673
  146MOL0     C19604  10.533  11.487   6.671 -0.5581  0.8349 -0.0135
  146MOL0     O19605  10.570  11.555   6.561 -0.5192 -0.4506 -0.5128
  146MOL0     C19606  10.704  11.594   6.564 -0.4612  0.7303  0.2955
  146MOL0     C19607  10.734  11.703   6.647  0.5495  0.2099 -0.5100
  146MOL0     C19608  10.863  11.757   6.640 -1.0517  0.4714 -0.4672
  146MOL0     C19609  10.971  11.707   6.564  1.1138  0.5880  0.0824
  146MOL0     O19610  11.098  11.743   6.572  0.1942 -0.2826  0.9963
  146MOL0     C19611  11.125  11.815   6.699 -0.2824  0.2105 -0.7548
  146MOL0     C19612  11.276  11.826   6.716 -0.3745 -0.9453  0.4669
  146MOL0     C19613  11.362  11.697   6.743  0.5782  0.3967  0.1112
  146MOL0     C19614  11.506  11.744   6.769  0.1138  0.2235  0.3764
  146MOL0     C19615  11.576  11.771   6.641 -0.5052 -0.2504  0.2244
  146MOL0     C19616  11.726  11.795   6.649 -0.6428 -0.2708 -0.3555
  146MOL0     C19617  11.780  11.790   6.508  0.0502  0.3405  0.2229
  146MOL0     C19618  11.771  11.915   6.421 -0.3640 -0.3773 -0.5728
  146MOL0    Cl19619  11.872  11.896   6.274 -0.2995  0.1529  0.1915
  146MOL0     C19620  10.941  11.596   6.474  0.2727 -0.0165  0.6112
  146MOL0     C19621  10.810  11.537   6.488  1.2905 -0.3489  0.1297
  146MOL0     O19622  10.592  11.489   6.777  0.9839  0.4275 -0.0287
  146MOL0     C19623  10.364  11.338   6.794 -0.5956  0.1326  0.0820
  146MOL0     C19624  10.272  11.240   6.792  0.3120 -0.3240 -0.9109
  146MOL0     N19625  10.020  10.730   6.937  0.2969 -0.0816 -0.1610
  146MOL0     N19626  10.100  10.741   7.031  0.0743 -0.2841  0.3936
  146MOL0     C19627  10.032  10.118   7.526  1.0154  0.5710  1.2691
  146MOL0     C19628  10.098  10.000   7.481  0.3158 -1.0426  0.1581
  146MOL0     C19629  10.343   9.622   7.476 -0.4722 -0.5575 -0.5637
  146MOL0     C19630  10.458   9.621   7.561 -0.2142 -0.9262  0.4708
  146MOL0     C19631  10.551   9.520   7.564  0.3940 -0.1833 -0.0723
  146MOL0     C19632  10.539   9.410   7.479 -0.0395  0.6127  1.0462
  146MOL0     O19633  10.636   9.314   7.463  0.0342 -0.6697 -0.2830
  146MOL0     C19634  10.768   9.338   7.518 -0.4353  1.3050  0.1713
  146MOL0     C19635  10.817   9.196   7.561  0.3871  0.7836  0.3407
  146MOL0     C19636  10.902   9.178   7.687 -0.8006  0.1587 -0.4594
  146MOL0     C19637  10.843   9.238   7.815 -0.3180 -0.6027  0.1041
  146MOL0     C19638  10.875   9.379   7.841 -0.0182  0.4488 -0.6271
  146MOL0     C19639  10.924   9.483   7.861  0.8083 -0.8077  0.1360
  146MOL0     C19640  10.429   9.407   7.389 -0.3228  0.9589  0.0598
  146MOL0     C19641  10.332   9.508   7.388 -0.7852 -0.2958  0.2167
  146MOL0     C19642  10.236   9.509   7.261 -0.6622  0.3307 -0.4321
  146MOL0     H19643  10.358  10.009   7.679 -0.4111  0.8553 -1.2315
  146MOL0     H19644  10.240  10.198   7.784 -0.1870  0.0519  0.1629
  146MOL0     H19645  10.183  10.437   7.634 -0.5016 -3.3188  5.7990
  146MOL0     H19646  10.067  10.402   7.493  0.3735  1.0199 -0.5624
  146MOL0     H19647  10.008  10.572   7.744 -0.4517 -1.7822  0.6454
  146MOL0     H19648   9.887  10.526   7.626  0.2956 -1.1043  1.7980
  146MOL0     H19649  10.021  10.631   7.447  2.9396  0.1285 -0.2300
  146MOL0     H19650  10.119  10.715   7.571 -0.3531  0.3572  0.5436
  146MOL0     H19651   9.834  10.725   7.487  0.1861 -2.6527  0.9241
  146MOL0     H19652   9.876  10.793   7.651 -0.7555 -0.5631 -0.6926
  146MOL0     H19653   9.852  10.971   7.504 -0.9067  1.5302 -2.1239
  146MOL0     H19654  10.015  10.947   7.553  0.1167  2.6660 -2.3690
  146MOL0     H19655   9.909  10.885   7.267 -1.8181 -0.3248  1.8194
  146MOL0     H19656   9.966  11.048   7.333  0.6956 -0.5926  2.4462
  146MOL0     H19657  10.128  10.784   7.315 -0.8478  0.3769  0.1933
  146MOL0     H19658  10.189  10.932   7.387 -1.2853 -2.1768  1.8490
  146MOL0     H19659  10.145  11.039   7.169 -3.0925 -0.0558 -0.8111
  146MOL0     H19660  10.282  10.917   7.181 -0.6589 -4.2687  1.9579
  146MOL0     H19661  10.022  11.058   6.982  4.4483 -0.2425  1.2228
  146MOL0     H19662   9.802  10.851   6.789  0.1245  0.8486  0.2275
  146MOL0     H19663   9.904  10.992   6.753  1.2786  1.1930  2.3644
  146MOL0     H19664   9.966  10.703   6.676  1.8446  0.0916  2.4306
  146MOL0     H19665   9.899  10.829   6.577  0.8517  1.4390  0.2415
  146MOL0     H19666  10.133  10.800   6.522  0.7863 -2.6853  1.2964
  146MOL0     H19667  10.182  10.840   6.690  1.0586 -2.3918 -1.8045
  146MOL0     H19668  10.033  11.039   6.505 -0.7255  1.6052  0.7556
  146MOL0     H19669  10.203  11.013   6.501 -0.0502 -1.8483  0.0234
  146MOL0     H19670  10.175  11.259   6.472 -0.2281  0.4398  0.7086
  146MOL0     H19671  10.362  11.414   6.456  1.2529 -1.7842 -0.0401
  146MOL0     H19672  10.655  11.747   6.708 -1.0102 -1.3174 -1.3215
  146MOL0     H19673  10.873  11.842   6.706  2.2555  0.2594 -0.5420
  146MOL0     H19674  11.084  11.915   6.685 -1.4417 -0.1246  0.1146
  146MOL0     H19675  11.090  11.773   6.793 -0.3543  3.4874  0.8113
  146MOL0     H19676  11.301  11.873   6.620  1.0391 -1.7488  0.4098
  146MOL0     H19677  11.301  11.907   6.785  3.8221 -1.1933 -0.4854
  146MOL0     H19678  11.341  11.650   6.840  1.7415 -0.1188  0.1290
  146MOL0     H19679  11.343  11.621   6.666 -1.0472  0.5118  0.3607
  146MOL0     H19680  11.563  11.666   6.821  2.4089 -1.3232 -3.9454
  146MOL0     H19681  11.506  11.837   6.827  0.1233  1.5373 -1.6286
  146MOL0     H19682  11.531  11.862   6.602  0.5502  0.7097  1.1686
  146MOL0     H19683  11.566  11.683   6.577 -0.0667  0.1683 -0.4212
  146MOL0     H19684  11.750  11.894   6.689 -0.6853 -1.6334  3.4456
  146MOL0     H19685  11.769  11.728   6.724 -1.0342  1.1052  1.1642
  146MOL0     H19686  11.733  11.708   6.452 -2.1434  2.5144 -1.3650
  146MOL0     H19687  11.888  11.776   6.509  0.2326  1.4069 -1.0371
  146MOL0     H19688  11.667  11.948   6.412 -0.6512 -0.9835  0.3605
  146MOL0     H19689  11.814  12.003   6.469 -3.7806  0.4883  1.2292
  146MOL0     H19690  11.017  11.544   6.416 -2.1840 -0.9873 -2.0139
  146MOL0     H19691  10.787  11.439   6.448  1.6022 -0.4712  0.2435
  146MOL0     H19692  10.417  11.346   6.889 -1.0643  2.3185  0.2114
  146MOL0     H19693  10.261  11.183   6.883 -2.1254  2.4409  0.7083
  146MOL0     H19694   9.940  10.154   7.480  3.6793  4.5928 -1.6407
  146MOL0     H19695  10.055   9.953   7.393  1.9996 -4.6584  1.0605
  146MOL0     H19696  10.472   9.711   7.619 -0.7118 -2.7766  3.6892
  146MOL0     H19697  10.632   9.538   7.635  1.0701  0.4377 -0.9829
  146MOL0     H19698  10.781   9.418   7.591  4.7473  1.9041 -1.0304
  146MOL0     H19699  10.838   9.367   7.439  0.9968  1.4652  1.4594
  146MOL0     H19700  10.865   9.152   7.473 -1.2485 -2.1717  0.7874
  146MOL0     H19701  10.733   9.128   7.579  0.4047  0.1656 -1.6439
  146MOL0     H19702  10.999   9.225   7.665 -1.5723  1.2902 -1.6436
  146MOL0     H19703  10.916   9.070   7.698  3.3753  0.5340 -0.6459
  146MOL0     H19704  10.735   9.223   7.825 -0.2258 -1.6824 -0.4150
  146MOL0     H19705  10.885   9.181   7.898  1.3813 -0.2056 -0.4442
  146MOL0     H19706  10.980   9.574   7.864  1.2475 -1.0151  3.8910
  146MOL0     H19707  10.434   9.328   7.314 -1.1204 -0.8933  1.8422
  146MOL0     H19708  10.259   9.432   7.187  0.2509  0.3611 -0.1903
  146MOL0     H19709  10.129   9.507   7.286 -1.2192  0.7234 -2.5589
  146MOL0     H19710  10.257   9.597   7.200 -0.0255  1.4155  1.2756
  147MOL0     O19711   4.227   3.307   0.099  0.3356  0.3682  0.5895
  147MOL0     C19712   4.269   3.316  -0.011 -0.1671 -0.4173 -0.8515
  147MOL0     O19713   4.292   3.217  -0.100 -0.0837 -0.0529 -0.1659
  147MOL0     C19714   4.222   3.095  -0.097 -1.2280  0.1701  0.0429
  147MOL0     C19715   4.094   3.074  -0.043 -0.2336 -1.0760  0.3791
  147MOL0     C19716   4.035   2.947  -0.051 -0.4798  0.2015 -0.2988
  147MOL0     C19717   4.102   2.842  -0.110  0.1131 -0.6347  0.6921
  147MOL0     O19718   4.025   2.723  -0.117  0.2668 -0.1191  0.4077
  147MOL0     C19719   4.043   2.634  -0.008  0.0942 -0.8422 -0.5086
  147MOL0     C19720   3.920   2.548   0.020  0.0091 -0.5277  0.1987
  147MOL0     C19721   3.964   2.414   0.084  0.3869 -0.9610  0.4271
  147MOL0     C19722   3.848   2.325   0.135 -0.3725  0.2063 -0.4495
  147MOL0     C19723   3.880   2.195   0.217  0.2497  0.6795  0.5549
  147MOL0     C19724   3.990   2.197   0.302 -0.2865 -0.5434 -0.6066
  147MOL0     C19725   4.007   2.064   0.360 -0.1958 -0.7637 -0.3755
  147MOL0     C19726   4.126   1.987   0.304  0.0309  0.9757 -0.7190
  147MOL0     N19727   4.149   1.856   0.362 -0.6782 -1.2164 -0.0629
  147MOL0     C19728   4.055   1.753   0.352  0.0501 -1.2308  0.1085
  147MOL0     C19729   4.118   1.646   0.404 -0.4387  0.0924 -0.3785
  147MOL0     C19730   4.072   1.503   0.413  1.0047  0.5137  1.0731
  147MOL0     C19731   4.155   1.420   0.304 -0.2428  0.0892  0.6664
  147MOL0     C19732   4.103   1.267   0.292  0.1053 -0.1781  0.8973
  147MOL0     C19733   4.125   1.210   0.434 -0.6090  0.0737  0.1876
  147MOL0     O19734   4.113   1.067   0.413  0.8448 -0.0415 -0.7097
  147MOL0     C19735   4.219   0.990   0.389  0.6020  0.5851  0.3764
  147MOL0     C19736   4.349   1.031   0.368 -0.0046 -0.1288 -0.0290
  147MOL0     C19737   4.444   0.927   0.350 -0.1142 -0.7432  0.2986
  147MOL0     C19738   4.409   0.793   0.318  0.1543 -0.0695 -0.3070
  147MOL0     C19739   4.509   0.687   0.300 -0.0758 -0.4285 -0.5301
  147MOL0     O19740   4.640   0.716   0.257  0.6339 -0.2420 -0.2664
  147MOL0     C19741   4.744   0.627   0.283  0.2560 -0.3293  0.7796
  147MOL0     C19742   4.845   0.615   0.186  0.0760  0.4800  0.0149
  147MOL0     C19743   4.946   0.526   0.207  0.4117 -0.6648 -0.7588
  147MOL0     C19744   4.948   0.432   0.310 -0.8107  0.6349  0.6839
  147MOL0     O19745   5.058   0.335   0.324  0.2335 -1.1731 -0.0848
  147MOL0     C19746   5.045   0.215   0.405 -0.8690 -0.0824  0.1854
  147MOL0     C19747   5.179   0.140   0.389 -0.1395  0.1213  0.1324
  147MOL0     C19748   5.301   0.227   0.427  0.3551  0.2040  1.1210
  147MOL0     C19749   5.446   0.168   0.419  0.6723  0.5498 -0.8434
  147MOL0     C19750   5.532   0.240   0.518 -0.1389 -0.1110 -0.2522
  147MOL0     C19751   5.550   0.389   0.478 -0.3437  0.2340 -0.9514
  147MOL0     C19752   5.677   0.449   0.522  0.1337 -0.1046 -0.9215
  147MOL0     C19753   5.697   0.590   0.489  0.4250 -0.8145 -0.7426
  147MOL0    Cl19754   5.559   0.680   0.550  0.2473  0.1925  0.6515
  147MOL0     C19755   4.849   0.436   0.399  0.7558 -0.3022 -0.7466
  147MOL0     C19756   4.745   0.529   0.390 -0.3293 -0.4781  0.3756
  147MOL0     O19757   4.463   0.573   0.323  1.0969  0.1606  0.8821
  147MOL0     C19758   4.271   0.762   0.320 -0.8285 -0.3274 -0.4729
  147MOL0     C19759   4.180   0.858   0.358  0.8539  0.3103 -0.6776
  147MOL0     N19760   4.244   1.687   0.445  0.0294  0.7751  0.7512
  147MOL0     N19761   4.259   1.809   0.428 -0.1006  0.3353  0.7024
  147MOL0     C19762   4.235   2.855  -0.158  0.5634 -0.8541  0.0472
  147MOL0     C19763   4.299   2.980  -0.148  0.1989 -0.8262 -0.2050
  147MOL0     C19764   4.309   3.452  -0.062  0.8803 -0.0649 -0.3873
  147MOL0     C19765   4.352   3.462  -0.191 -0.7471  1.0017  0.1544
  147MOL0     C19766   4.385   3.576  -0.251 -0.3768  0.4367  0.2169
  147MOL0     C19767   4.363   3.696  -0.188  0.5367  1.2288  0.3943
  147MOL0     O19768   4.400   3.811  -0.242 -0.3787 -0.3698 -0.5432
  147MOL0     C19769   4.368   3.844  -0.377 -0.4569 -0.1416  0.9847
  147MOL0     C19770   4.416   3.990  -0.407 -0.4685 -0.5588  1.0628
  147MOL0     C19771   4.568   3.987  -0.439  1.0170  0.5812 -0.5544
  147MOL0     C19772   4.614   4.123  -0.464  0.6432 -0.0787  0.2591
  147MOL0     C19773   4.576   4.172  -0.600  0.1297 -1.5322 -0.7815
  147MOL0     C19774   4.529   4.211  -0.709  0.2054  0.1843 -0.8431
  147MOL0     C19775   4.302   3.695  -0.064  0.1890 -0.1040  0.1743
  147MOL0     C19776   4.280   3.571   0.006 -0.4630 -0.1787  0.2458
  147MOL0     C19777   4.238   3.588   0.153 -0.2693 -0.1267 -0.3210
  147MOL0     H19778   4.046   3.164  -0.006 -0.6440 -1.0184 -0.2893
  147MOL0     H19779   3.934   2.927  -0.019  0.2947  0.1665  2.3220
  147MOL0     H19780   4.114   2.556  -0.037 -1.7507 -2.2284 -1.5075
  147MOL0     H19781   4.084   2.686   0.079 -0.3667 -0.8314 -0.2977
  147MOL0     H19782   3.885   2.523  -0.081  1.2663 -0.1617 -0.3631
  147MOL0     H19783   3.838   2.594   0.076  0.9996  0.4689  0.8749
  147MOL0     H19784   4.028   2.432   0.171 -3.0085  3.3100  2.3635
  147MOL0     H19785   4.018   2.352   0.011 -0.7936 -3.7220  1.7562
  147MOL0     H19786   3.782   2.388   0.196 -2.4746 -0.5922 -1.7656
  147MOL0     H19787   3.788   2.287   0.051 -1.2945  0.3371  0.1318
  147MOL0     H19788   3.791   2.169   0.276  1.2745 -2.1966  0.9860
  147MOL0     H19789   3.894   2.122   0.138  0.3303  1.0603  0.2163
  147MOL0     H19790   4.077   2.230   0.245 -0.6903 -0.5213 -1.2196
  147MOL0     H19791   3.971   2.274   0.379  2.7607  0.0832 -0.3655
  147MOL0     H19792   3.919   2.001   0.340  0.4443 -1.1790 -2.0259
  147MOL0     H19793   4.007   2.077   0.468 -3.8999 -1.1023 -0.1990
  147MOL0     H19794   4.109   1.969   0.198  0.2705  1.3107 -0.8164
  147MOL0     H19795   4.209   2.058   0.312 -0.0753  0.9162  2.4053
  147MOL0     H19796   3.954   1.754   0.313  0.2493 -0.2967 -0.3966
  147MOL0     H19797   4.090   1.457   0.511  0.4592  0.8886  1.3568
  147MOL0     H19798   3.964   1.498   0.396  0.6347 -0.8432  3.4236
  147MOL0     H19799   4.158   1.472   0.208  3.1038 -1.2380 -0.1101
  147MOL0     H19800   4.263   1.424   0.318 -0.2625  0.8787  0.5961
  147MOL0     H19801   4.176   1.210   0.234 -0.6992  0.9801 -1.3839
  147MOL0     H19802   4.000   1.246   0.260  0.0744 -2.2583  2.1979
  147MOL0     H19803   4.056   1.243   0.513  0.3908 -1.4494  1.7569
  147MOL0     H19804   4.224   1.242   0.467 -0.6494  0.2038  0.1825
  147MOL0     H19805   4.396   1.124   0.396  1.4488 -0.5140 -1.0626
  147MOL0     H19806   4.541   0.971   0.371 -1.9728  4.1082 -0.0717
  147MOL0     H19807   4.853   0.675   0.095  0.7208  0.9967  0.4051
  147MOL0     H19808   5.035   0.517   0.146 -0.2150 -0.8961 -1.6687
  147MOL0     H19809   5.030   0.239   0.511  1.2102 -2.6767  1.1505
  147MOL0     H19810   4.962   0.163   0.357 -1.2067  1.6622 -1.2144
  147MOL0     H19811   5.180   0.046   0.444  1.1292  0.0120 -0.0380
  147MOL0     H19812   5.181   0.101   0.287 -0.1355 -2.8506  1.1763
  147MOL0     H19813   5.298   0.313   0.359 -2.1216 -1.4118 -1.0155
  147MOL0     H19814   5.277   0.268   0.526 -1.3983 -1.0666  1.2595
  147MOL0     H19815   5.485   0.191   0.319 -2.3979  1.2227 -2.0199
  147MOL0     H19816   5.451   0.063   0.449  0.9308 -0.4554 -4.0667
  147MOL0     H19817   5.632   0.196   0.508 -2.0150 -4.7017 -1.8376
  147MOL0     H19818   5.498   0.237   0.622  0.9108 -1.6819  0.0741
  147MOL0     H19819   5.551   0.403   0.369 -0.4729 -1.0529 -1.1369
  147MOL0     H19820   5.472   0.439   0.537 -0.0812 -1.6682  1.1513
  147MOL0     H19821   5.755   0.381   0.486  0.8292 -0.1453  0.5581
  147MOL0     H19822   5.666   0.439   0.631 -2.9340 -0.4750 -1.1698
  147MOL0     H19823   5.787   0.631   0.535  1.0390 -1.8878 -0.9347
  147MOL0     H19824   5.693   0.591   0.380  1.2057 -0.1554 -0.7768
  147MOL0     H19825   4.841   0.372   0.486  0.4048 -0.0840 -0.6178
  147MOL0     H19826   4.676   0.549   0.472  0.0200  1.3388  0.2712
  147MOL0     H19827   4.230   0.664   0.297 -0.4413 -0.8112  0.7798
  147MOL0     H19828   4.076   0.827   0.357  0.9468 -0.0738 -2.6618
  147MOL0     H19829   4.272   2.765  -0.206  0.3978 -0.1409 -1.4874
  147MOL0     H19830   4.401   3.001  -0.179 -0.1432 -0.9981 -1.4855
  147MOL0     H19831   4.360   3.375  -0.255 -4.3306 -0.8158  1.8827
  147MOL0     H19832   4.422   3.561  -0.351 -2.6932  1.4590 -0.8649
  147MOL0     H19833   4.261   3.844  -0.396 -0.5974  2.5417  1.4580
  147MOL0     H19834   4.412   3.774  -0.448 -1.6918  3.2077 -3.5035
  147MOL0     H19835   4.395   4.061  -0.326 -1.5289  0.0463  0.2831
  147MOL0     H19836   4.362   4.036  -0.490  1.5229  3.0896  1.5897
  147MOL0     H19837   4.592   3.923  -0.524  0.9156 -0.7550  0.4012
  147MOL0     H19838   4.620   3.948  -0.351 -1.3491  0.9924  1.1441
  147MOL0     H19839   4.580   4.176  -0.375  2.3210 -1.1685  1.6064
  147MOL0     H19840   4.723   4.120  -0.455  0.7148 -2.3057 -0.6338
  147MOL0     H19841   4.475   4.232  -0.798 -0.3567 -2.3634 -1.1840
  147MOL0     H19842   4.281   3.794  -0.025 -0.0843  1.4489 -3.5306
  147MOL0     H19843   4.308   3.529   0.214 -4.3778 -4.6698  0.6979
  147MOL0     H19844   4.211   3.689   0.185  3.8111  1.2841 -0.7840
  147MOL0     H19845   4.143   3.536   0.172  0.0706 -1.3809 -1.8587
  148MOL0     O19846   4.503   4.818  11.180 -0.5738 -0.3841 -0.8255
  148MOL0     C19847   4.396   4.803  11.234 -0.9582  0.2609  0.3265
  148MOL0     O19848   4.330   4.897  11.306 -0.9192  0.5776 -0.2557
  148MOL0     C19849   4.389   5.012  11.338 -0.1169  0.3601 -0.1845
  148MOL0     C19850   4.498   5.025  11.420 -0.7480 -0.4055 -0.1308
  148MOL0     C19851   4.558   5.159  11.438 -0.6838 -0.2659 -0.0384
  148MOL0     C19852   4.505   5.275  11.387  0.5022  0.2291  0.7019
  148MOL0     O19853   4.549   5.403  11.416  0.2473 -0.0250  0.2917
  148MOL0     C19854   4.677   5.429  11.364 -0.6960 -0.6263 -0.3454
  148MOL0     C19855   4.730   5.554  11.433 -0.2584 -0.0107 -0.4479
  148MOL0     C19856   4.865   5.592  11.378 -0.4805  0.5559  0.2024
  148MOL0     C19857   4.986   5.572  11.469 -0.2320 -0.2259 -0.5075
  148MOL0     C19858   5.025   5.709  11.542  0.7149  0.2215 -0.1125
  148MOL0     C19859   5.070   5.826  11.449 -0.1278 -0.7129 -0.5902
  148MOL0     C19860   5.194   5.815  11.347 -0.2708  0.3808 -0.3288
  148MOL0     C19861   5.269   5.943  11.302  0.7564 -0.0181  0.2033
  148MOL0     N19862   5.184   6.027  11.221  0.3202 -0.1091  0.4423
  148MOL0     C19863   5.184   6.162  11.209  0.3780 -0.0304  0.4087
  148MOL0     C19864   5.130   6.183  11.084 -0.6307 -0.9041  0.4454
  148MOL0     C19865   5.107   6.319  11.022 -0.0153  0.7992 -0.1463
  148MOL0     C19866   4.960   6.346  11.021 -0.2254 -1.6916 -0.4629
  148MOL0     C19867   4.899   6.426  10.903  0.4181 -0.1587  0.0868
  148MOL0     C19868   4.759   6.458  10.942  0.6522  0.7706 -0.3350
  148MOL0     O19869   4.760   6.570  11.029 -0.5816  0.2538 -0.5799
  148MOL0     C19870   4.652   6.588  11.108  0.6053 -0.1827 -0.4743
  148MOL0     C19871   4.673   6.673  11.220 -0.2344 -0.9102 -0.9044
  148MOL0     C19872   4.583   6.709  11.316 -0.1230  0.0258  0.7975
  148MOL0     C19873   4.451   6.660  11.291 -0.1387 -0.3355  0.8543
  148MOL0     C19874   4.339   6.695  11.389 -0.2537  0.1418 -0.3648
  148MOL0     O19875   4.383   6.777  11.485 -0.0808  0.7957 -0.5238
  148MOL0     C19876   4.303   6.859  11.558 -0.5270  0.8152 -0.3220
  148MOL0     C19877   4.283   6.827  11.696  0.1358 -0.1913 -0.2679
  148MOL0     C19878   4.187   6.898  11.771 -0.0165  0.2400  0.0017
  148MOL0     C19879   4.126   7.006  11.715  0.4281 -0.3318  0.8121
  148MOL0     O19880   4.040   7.078  11.803 -0.0375  0.3135 -0.0454
  148MOL0     C19881   3.916   7.129  11.748  0.6100 -0.0514  0.9591
  148MOL0     C19882   3.830   7.196  11.856  0.0749  0.3015 -0.1409
  148MOL0     C19883   3.828   7.103  11.984  1.2359 -0.6183  0.0285
  148MOL0     C19884   3.779   6.960  11.947 -0.0441 -0.3850 -1.3058
  148MOL0     C19885   3.698   6.889  12.052  0.4200 -0.1094  0.3324
  148MOL0     C19886   3.563   6.947  12.065 -0.0582 -0.5061 -0.3399
  148MOL0     C19887   3.493   6.857  12.165 -0.9162  0.0912 -1.0711
  148MOL0     C19888   3.346   6.899  12.185 -0.4092  0.1032  0.2280
  148MOL0    Cl19889   3.260   6.917  12.033 -0.0522  0.4308  0.1413
  148MOL0     C19890   4.152   7.042  11.580 -0.8870 -0.3800  0.2253
  148MOL0     C19891   4.241   6.967  11.504 -0.2043 -0.6728 -0.2080
  148MOL0     O19892   4.228   6.653  11.381 -0.2502  0.0167 -0.4300
  148MOL0     C19893   4.416   6.584  11.185  0.2863 -0.6474  0.2329
  148MOL0     C19894   4.518   6.546  11.099 -0.4710  0.3322  0.4486
  148MOL0     N19895   5.077   6.064  11.033 -0.3522 -0.2284 -0.0587
  148MOL0     N19896   5.102   5.977  11.121  0.4446 -0.0168 -1.0785
  148MOL0     C19897   4.402   5.243  11.297 -0.0003 -0.1665  0.2776
  148MOL0     C19898   4.355   5.124  11.276 -0.5297  0.0629 -0.0494
  148MOL0     C19899   4.322   4.674  11.202 -0.0027  0.5830 -0.0430
  148MOL0     C19900   4.184   4.671  11.224  0.2987  0.2976  0.3975
  148MOL0     C19901   4.099   4.557  11.197  0.7839  0.2110 -0.0870
  148MOL0     C19902   4.147   4.437  11.129 -0.4630 -0.3730  0.2563
  148MOL0     O19903   4.070   4.328  11.100  0.1913  0.1212  0.0741
  148MOL0     C19904   4.120   4.236  11.003 -0.0119  0.4510  0.3421
  148MOL0     C19905   4.004   4.147  10.950 -0.4782  0.4087  0.1405
  148MOL0     C19906   3.919   4.229  10.854 -0.0997  0.1473  0.2855
  148MOL0     C19907   3.995   4.293  10.742  0.5220  0.2641 -0.0348
  148MOL0     C19908   4.051   4.197  10.650  0.0550  0.2923 -0.1519
  148MOL0     C19909   4.103   4.127  10.560 -0.4804 -0.6286 -0.3833
  148MOL0     C19910   4.288   4.432  11.123  1.0113 -0.5805  0.2848
  148MOL0     C19911   4.371   4.547  11.157 -0.4019 -0.1093 -0.0032
  148MOL0     C19912   4.522   4.525  11.134 -0.0802  0.3406 -0.1249
  148MOL0     H19913   4.549   4.945  11.474 -1.1847  0.2955  1.3813
  148MOL0     H19914   4.634   5.156  11.515 -1.5305 -2.8253  0.8059
  148MOL0     H19915   4.744   5.347  11.392 -1.9175 -1.9903 -1.2851
  148MOL0     H19916   4.686   5.450  11.257  0.7287  0.8031  0.0242
  148MOL0     H19917   4.751   5.541  11.540  0.5563  1.5092 -0.3809
  148MOL0     H19918   4.648   5.626  11.423 -0.5750 -0.3198 -0.0695
  148MOL0     H19919   4.869   5.691  11.334  0.3240  0.6567  0.4953
  148MOL0     H19920   4.882   5.521  11.297 -2.2580  0.2729  0.0278
  148MOL0     H19921   4.957   5.493  11.538 -0.6845 -0.9779 -1.5377
  148MOL0     H19922   5.078   5.536  11.422  1.3708  4.2811 -1.3079
  148MOL0     H19923   4.938   5.728  11.605 -1.1761 -1.3434 -2.1086
  148MOL0     H19924   5.099   5.695  11.622  1.1021  0.1020 -0.4853
  148MOL0     H19925   4.992   5.876  11.391  1.8409  0.7359 -2.1266
  148MOL0     H19926   5.107   5.900  11.521 -0.7554  1.4113 -2.3351
  148MOL0     H19927   5.170   5.757  11.257  3.2146  1.4048 -2.0842
  148MOL0     H19928   5.264   5.752  11.401  0.3414  1.7344  0.4963
  148MOL0     H19929   5.301   6.000  11.390 -1.2828  1.3429  0.1296
  148MOL0     H19930   5.359   5.905  11.252  0.9120 -1.2582  1.3407
  148MOL0     H19931   5.215   6.228  11.289  1.0730  1.6913 -1.1877
  148MOL0     H19932   5.161   6.404  11.066 -1.3134  2.5057 -1.6934
  148MOL0     H19933   5.127   6.305  10.915 -4.5206 -0.5853 -1.0270
  148MOL0     H19934   4.907   6.250  11.021 -0.5914 -1.7531  4.6045
  148MOL0     H19935   4.940   6.399  11.115  1.1336  0.6631 -1.4327
  148MOL0     H19936   4.896   6.369  10.810  0.9138 -0.5372  0.2949
  148MOL0     H19937   4.961   6.514  10.884  0.7338 -0.4522 -0.2702
  148MOL0     H19938   4.725   6.366  10.991  0.3140 -0.3693 -2.5725
  148MOL0     H19939   4.703   6.480  10.850 -0.9570  0.2398  0.4822
  148MOL0     H19940   4.774   6.710  11.235 -1.2932  1.5109  0.9760
  148MOL0     H19941   4.611   6.759  11.408  3.2484 -1.1456  0.5195
  148MOL0     H19942   4.346   6.748  11.736  1.2103  2.0139  2.8423
  148MOL0     H19943   4.165   6.868  11.873  0.2676  3.8889  1.2772
  148MOL0     H19944   3.928   7.202  11.668  0.8161 -0.4796  0.5919
  148MOL0     H19945   3.855   7.052  11.699 -2.8985  2.1781  1.4740
  148MOL0     H19946   3.867   7.298  11.868 -2.1937  1.6947 -3.5363
  148MOL0     H19947   3.728   7.199  11.816  0.9972  2.7230 -2.5584
  148MOL0     H19948   3.919   7.118  12.044  1.8789 -0.8877 -0.8641
  148MOL0     H19949   3.748   7.141  12.049  0.9383  0.8293 -1.1327
  148MOL0     H19950   3.869   6.903  11.923  1.5078  1.0530  0.7316
  148MOL0     H19951   3.729   6.977  11.851 -1.9988  3.8052  0.2396
  148MOL0     H19952   3.754   6.888  12.146  2.4102  0.9490 -0.7645
  148MOL0     H19953   3.693   6.782  12.031  0.3264 -0.1082  0.3489
  148MOL0     H19954   3.573   7.046  12.110 -0.5400 -0.5175 -0.2069
  148MOL0     H19955   3.511   6.952  11.968  0.6633  0.2152 -0.6981
  148MOL0     H19956   3.547   6.873  12.259 -0.0390  2.6535 -1.9023
  148MOL0     H19957   3.489   6.756  12.123  1.7976 -2.1174  3.2766
  148MOL0     H19958   3.289   6.831  12.249 -1.7105  0.2828 -0.7114
  148MOL0     H19959   3.345   7.001  12.225  1.8791 -0.3901  1.7302
  148MOL0     H19960   4.109   7.130  11.534  0.6320 -0.0268 -0.6000
  148MOL0     H19961   4.241   7.002  11.401  2.1413 -0.8084 -0.3164
  148MOL0     H19962   4.310   6.571  11.170  0.3362 -0.3934 -0.3720
  148MOL0     H19963   4.486   6.481  11.019  2.1405 -0.9511  0.3605
  148MOL0     H19964   4.344   5.322  11.249 -1.1226 -0.6012  0.8872
  148MOL0     H19965   4.277   5.123  11.200 -0.2371 -0.4903 -0.3480
  148MOL0     H19966   4.143   4.758  11.273 -0.0522  0.2135  0.2636
  148MOL0     H19967   4.001   4.572  11.240  0.8034 -0.7672  0.3421
  148MOL0     H19968   4.198   4.170  11.043 -1.0092 -1.9414 -1.4512
  148MOL0     H19969   4.168   4.291  10.921  1.5294 -1.1789  0.0915
  148MOL0     H19970   3.935   4.117  11.029 -0.3950  0.6679  0.3122
  148MOL0     H19971   4.044   4.062  10.894  0.7034 -0.7153  2.5526
  148MOL0     H19972   3.869   4.306  10.912  1.7515  0.8085  1.0874
  148MOL0     H19973   3.847   4.154  10.822  1.0498 -0.3503 -1.2979
  148MOL0     H19974   3.919   4.340  10.679  1.9135  2.1363 -0.4077
  148MOL0     H19975   4.066   4.372  10.767  2.7239 -0.4291 -3.4292
  148MOL0     H19976   4.161   4.069  10.491  0.5210 -1.1633  0.8671
  148MOL0     H19977   4.332   4.339  11.086 -0.6279 -1.2812  0.0143
  148MOL0     H19978   4.581   4.589  11.201 -0.3612  2.1899 -1.5439
  148MOL0     H19979   4.549   4.421  11.152 -1.5315  0.1289  0.9594
  148MOL0     H19980   4.550   4.565  11.036 -0.2235  1.4031  0.2561
  149MOL0     O19981  11.497   9.528   1.652  0.3417  0.4111  0.6736
  149MOL0     C19982  11.421   9.535   1.748  0.4473 -0.2586 -0.6452
  149MOL0     O19983  11.302   9.609   1.748  0.4373 -0.3802  0.4875
  149MOL0     C19984  11.261   9.664   1.626 -1.1886 -0.0320 -0.4224
  149MOL0     C19985  11.156   9.616   1.558  0.7795 -0.0583  0.0995
  149MOL0     C19986  11.118   9.673   1.440 -1.5028  0.0259  0.6799
  149MOL0     C19987  11.202   9.774   1.386 -0.1489 -0.3204  0.5003
  149MOL0     O19988  11.175   9.848   1.272  0.5200  0.1917  0.4632
  149MOL0     C19989  11.084   9.781   1.177 -0.2499  0.5744  0.7961
  149MOL0     C19990  11.068   9.888   1.073 -0.0206 -0.1229  0.2609
  149MOL0     C19991  11.010   9.841   0.943  0.4907  1.3948  0.3290
  149MOL0     C19992  11.059   9.927   0.828 -0.4311  0.3928 -0.8582
  149MOL0     C19993  10.988   9.887   0.695 -0.0730 -0.7736  0.2685
  149MOL0     C19994  10.843   9.940   0.702 -0.2632 -0.4241 -0.4681
  149MOL0     C19995  10.782   9.951   0.565 -0.0885  0.4637  0.2964
  149MOL0     C19996  10.830  10.075   0.492  1.2559  0.4505  0.2776
  149MOL0     N19997  10.800  10.065   0.350  0.2263 -0.1209 -0.6484
  149MOL0     C19998  10.685  10.085   0.286 -0.0779  0.9824  0.1541
  149MOL0     C19999  10.708  10.035   0.162  0.0845  0.2742  0.1167
  149MOL0     C20000  10.600  10.011   0.055 -0.5691 -0.4818  0.2235
  149MOL0     C20001  10.528  10.146   0.027  0.7968 -0.0908  0.2642
  149MOL0     C20002  10.633  10.226  -0.049 -0.2008 -0.1835  0.7682
  149MOL0     C20003  10.562  10.336  -0.130  0.3237  0.7230 -0.0657
  149MOL0     O20004  10.493  10.275  -0.240  0.0076  0.1590 -0.7555
  149MOL0     C20005  10.382  10.332  -0.297  1.1608  1.0056  0.6239
  149MOL0     C20006  10.308  10.253  -0.385  0.1299 -0.0886 -1.5548
  149MOL0     C20007  10.190  10.302  -0.440 -0.0280  0.0317  0.4221
  149MOL0     C20008  10.137  10.428  -0.399 -0.0749 -0.7187  0.2294
  149MOL0     C20009  10.001  10.463  -0.437 -0.4933  0.6975  0.3038
  149MOL0     O20010   9.936  10.365  -0.516 -0.5505  0.3198 -0.0873
  149MOL0     C20011   9.812  10.382  -0.550  1.1810  0.0170  0.8915
  149MOL0     C20012   9.777  10.487  -0.633 -0.5256 -0.0983 -0.3976
  149MOL0     C20013   9.655  10.497  -0.695  0.8396 -0.2568 -0.0067
  149MOL0     C20014   9.549  10.407  -0.653  0.2343  0.1406 -0.3460
  149MOL0     O20015   9.422  10.432  -0.697  0.4135  0.2302  0.5470
  149MOL0     C20016   9.319  10.341  -0.648  0.3757 -0.2098  0.0939
  149MOL0     C20017   9.176  10.373  -0.669  0.5522 -0.0779 -0.4065
  149MOL0     C20018   9.090  10.250  -0.650 -0.2156  0.6649  0.4657
  149MOL0     C20019   8.946  10.289  -0.617  0.2888  0.4114  0.3248
  149MOL0     C20020   8.843  10.176  -0.643  0.0924 -0.1509  1.0749
  149MOL0     C20021   8.703  10.219  -0.628 -0.2349  0.7581  0.2962
  149MOL0     C20022   8.590  10.110  -0.643 -0.5299  0.1792  0.3266
  149MOL0     C20023   8.622  10.007  -0.750 -0.1927  0.0660 -1.1609
  149MOL0    Cl20024   8.630  10.098  -0.907  0.1662  0.4126  0.0590
  149MOL0     C20025   9.582  10.292  -0.574  0.3880  0.5649 -0.4986
  149MOL0     C20026   9.714  10.285  -0.526 -0.0241 -0.3813 -0.2997
  149MOL0     O20027   9.957  10.578  -0.411 -0.3294 -0.1117 -0.4828
  149MOL0     C20028  10.220  10.513  -0.326  0.1019 -0.5497 -0.3950
  149MOL0     C20029  10.337  10.464  -0.268 -0.4571 -0.0648  0.4598
  149MOL0     N20030  10.841  10.001   0.149  0.3755  0.1094  0.4200
  149MOL0     N20031  10.883  10.011   0.263  0.3987  0.1228 -0.2569
  149MOL0     C20032  11.310   9.826   1.454  0.2053  0.5306  0.4967
  149MOL0     C20033  11.339   9.776   1.577 -0.1932  0.8548  0.0363
  149MOL0     C20034  11.463   9.473   1.881 -0.6711  0.1257  0.4008
  149MOL0     C20035  11.360   9.432   1.968 -1.1218  0.7485 -0.5608
  149MOL0     C20036  11.381   9.360   2.087 -0.0320 -0.0006 -0.1796
  149MOL0     C20037  11.516   9.331   2.123  1.0562  0.8941 -0.1228
  149MOL0     O20038  11.558   9.296   2.247 -0.2969  0.1240 -0.2981
  149MOL0     C20039  11.471   9.233   2.337  0.0177  0.3224  0.0262
  149MOL0     C20040  11.539   9.191   2.469  0.6035 -1.1061 -1.4573
  149MOL0     C20041  11.665   9.099   2.464  0.4034  0.6066  0.5097
  149MOL0     C20042  11.740   9.104   2.602 -0.3128 -0.5963  0.8515
  149MOL0     C20043  11.649   9.064   2.708  1.2852  0.8636 -0.0260
  149MOL0     C20044  11.578   9.041   2.804  0.5451  0.4612  0.0186
  149MOL0     C20045  11.623   9.369   2.032 -0.6127  0.4711 -0.3520
  149MOL0     C20046  11.595   9.431   1.909 -0.0732  0.4242  0.7368
  149MOL0     C20047  11.715   9.464   1.819 -0.4055  0.3033  0.3615
  149MOL0     H20048  11.113   9.526   1.600  0.7403  0.1369  0.4866
  149MOL0     H20049  11.034   9.628   1.388  1.0321 -3.3456 -0.9108
  149MOL0     H20050  11.127   9.691   1.132 -1.7055  1.5922 -3.0793
  149MOL0     H20051  10.984   9.757   1.213 -1.3397  0.4597 -2.0821
  149MOL0     H20052  11.155   9.945   1.040 -0.0794 -1.5045 -2.6258
  149MOL0     H20053  10.998   9.966   1.101  2.0350  2.5075 -1.4269
  149MOL0     H20054  10.901   9.842   0.951  0.5497 -0.6900  2.4160
  149MOL0     H20055  11.031   9.734   0.939 -1.2301  1.0474 -1.0186
  149MOL0     H20056  11.041  10.033   0.850 -2.2896 -0.4906  2.4953
  149MOL0     H20057  11.167   9.910   0.821 -0.6204 -1.3514  0.0822
  149MOL0     H20058  11.041   9.940   0.615 -0.3105  0.7175  1.0613
  149MOL0     H20059  10.988   9.781   0.670 -1.6515 -1.3186  2.2802
  149MOL0     H20060  10.784   9.866   0.756  1.2393 -0.1455  1.6772
  149MOL0     H20061  10.832  10.033   0.759  2.6354 -0.2233 -0.0607
  149MOL0     H20062  10.673   9.954   0.578  0.1013  1.1219  1.9690
  149MOL0     H20063  10.815   9.859   0.515  2.5075  1.9044 -0.8484
  149MOL0     H20064  10.783  10.162   0.539 -0.7461 -1.1074  1.3386
  149MOL0     H20065  10.938  10.089   0.497  1.5414 -1.6751  1.4031
  149MOL0     H20066  10.594  10.124   0.332 -0.8426  2.0037 -2.0904
  149MOL0     H20067  10.633   9.968  -0.040 -2.4931  0.5688 -0.9909
  149MOL0     H20068  10.524   9.946   0.101 -0.9896  0.0960  0.3464
  149MOL0     H20069  10.439  10.122  -0.033 -1.2683  2.4169  2.0725
  149MOL0     H20070  10.483  10.196   0.114 -0.8770 -4.8268  2.4420
  149MOL0     H20071  10.701  10.160  -0.103 -1.0477  0.3016 -0.9683
  149MOL0     H20072  10.691  10.281   0.027 -1.8917 -0.7981  2.5779
  149MOL0     H20073  10.637  10.408  -0.165  1.1384  1.1213  2.3191
  149MOL0     H20074  10.491  10.380  -0.058 -0.6512 -2.9309  1.4248
  149MOL0     H20075  10.346  10.155  -0.409  2.8550  1.0317 -2.1519
  149MOL0     H20076  10.138  10.249  -0.519 -0.6029  1.4946 -0.2033
  149MOL0     H20077   9.862  10.551  -0.655 -2.2045  2.2873 -0.3454
  149MOL0     H20078   9.627  10.581  -0.757 -3.6346 -1.2562  0.3644
  149MOL0     H20079   9.335  10.253  -0.710 -1.0632  0.3843 -1.1958
  149MOL0     H20080   9.323  10.312  -0.542 -0.1666 -3.7542 -0.7356
  149MOL0     H20081   9.152  10.456  -0.602  0.2506 -0.5698  0.1002
  149MOL0     H20082   9.163  10.399  -0.774 -0.2865 -2.0244 -0.8354
  149MOL0     H20083   9.094  10.188  -0.740 -1.1328 -1.5562  1.8770
  149MOL0     H20084   9.133  10.190  -0.569  2.4771  2.6198  0.6380
  149MOL0     H20085   8.921  10.375  -0.680  0.4523 -0.0218 -0.3393
  149MOL0     H20086   8.935  10.315  -0.511 -1.2364 -0.2729  0.3659
  149MOL0     H20087   8.859  10.086  -0.582  3.3423  0.4128  1.2759
  149MOL0     H20088   8.861  10.151  -0.748  3.0023  0.5133  1.3273
  149MOL0     H20089   8.699  10.259  -0.526  3.9026 -1.8036  1.7370
  149MOL0     H20090   8.690  10.296  -0.704 -0.6837  0.7327  0.3458
  149MOL0     H20091   8.499  10.152  -0.687 -1.4539  1.2593  3.0705
  149MOL0     H20092   8.578  10.070  -0.542 -2.0083  0.5538  0.3151
  149MOL0     H20093   8.718   9.962  -0.721 -2.1425 -4.7873 -1.2952
  149MOL0     H20094   8.553   9.922  -0.752  2.5600 -2.6502  3.0981
  149MOL0     H20095   9.512  10.210  -0.557  2.6813 -1.1899  0.9640
  149MOL0     H20096   9.735  10.205  -0.456 -2.2372  1.9981  3.4098
  149MOL0     H20097  10.191  10.611  -0.291 -0.3397 -1.2898  1.4489
  149MOL0     H20098  10.393  10.539  -0.212 -2.5819  1.7107  0.3504
  149MOL0     H20099  11.369   9.907   1.411 -2.0487  1.4927 -0.9921
  149MOL0     H20100  11.421   9.800   1.644  0.5544  1.4353 -1.0692
  149MOL0     H20101  11.265   9.483   1.953 -1.1904  1.7899  2.6317
  149MOL0     H20102  11.292   9.362   2.150  0.0759  3.9568  0.0859
  149MOL0     H20103  11.438   9.136   2.299  1.2688 -0.9836  2.0445
  149MOL0     H20104  11.378   9.287   2.355  0.1284  0.1164  1.3236
  149MOL0     H20105  11.464   9.149   2.537  3.4578 -1.6996  1.5549
  149MOL0     H20106  11.578   9.288   2.503  0.7906 -2.0825  1.3476
  149MOL0     H20107  11.730   9.127   2.380  1.1540  0.4075  1.0092
  149MOL0     H20108  11.635   8.995   2.447  1.5916  0.0124  1.8439
  149MOL0     H20109  11.832   9.047   2.588 -0.2982 -0.1511 -1.1647
  149MOL0     H20110  11.771   9.208   2.619  0.3319  0.0800 -3.4477
  149MOL0     H20111  11.532   9.028   2.900 -0.8898  0.6089 -0.6221
  149MOL0     H20112  11.727   9.343   2.052  0.8754  5.0368 -0.9440
  149MOL0     H20113  11.721   9.561   1.768  2.1034  0.4178  0.7635
  149MOL0     H20114  11.808   9.457   1.877  0.2600 -0.9336 -0.7866
  149MOL0     H20115  11.718   9.389   1.740 -2.1837 -1.9472  2.2673
  150MOL0     O20116   1.802   5.103   1.777  0.0565 -0.2657  0.0529
  150MOL0     C20117   1.790   5.203   1.714  0.0128 -0.8914 -0.5765
  150MOL0     O20118   1.775   5.328   1.769  0.4352 -1.0664 -0.8988
  150MOL0     C20119   1.779   5.355   1.902  0.0675  0.8631  0.4503
  150MOL0     C20120   1.804   5.482   1.942 -0.1792  0.4345 -0.7439
  150MOL0     C20121   1.810   5.516   2.078 -0.2470  0.0857  0.3082
  150MOL0     C20122   1.796   5.420   2.178 -0.2123 -1.2203 -0.2913
  150MOL0     O20123   1.815   5.459   2.311 -0.0876  0.6912 -0.0738
  150MOL0     C20124   1.940   5.407   2.347 -0.4829 -0.0764  0.5052
  150MOL0     C20125   1.950   5.420   2.500 -0.5490  0.1419  0.4008
  150MOL0     C20126   1.972   5.556   2.547  0.1300  0.3116 -0.4521
  150MOL0     C20127   2.114   5.580   2.579  0.2117 -0.2889  1.0800
  150MOL0     C20128   2.210   5.580   2.462 -1.1300  0.4771  0.1605
  150MOL0     C20129   2.342   5.655   2.498 -0.3119  0.1571 -0.3117
  150MOL0     C20130   2.325   5.808   2.502  0.2778 -0.5010  0.5142
  150MOL0     C20131   2.429   5.878   2.411  0.3171 -0.4378 -0.7126
  150MOL0     N20132   2.554   5.879   2.477 -0.7236  0.4235  0.3749
  150MOL0     C20133   2.661   5.808   2.429  0.4001  0.2063 -0.2757
  150MOL0     C20134   2.760   5.842   2.515  0.3206  0.2934 -0.5028
  150MOL0     C20135   2.903   5.783   2.514 -0.1947 -0.1177  0.2112
  150MOL0     C20136   3.000   5.884   2.445 -0.0577 -0.2860 -0.1834
  150MOL0     C20137   3.134   5.821   2.408 -0.8351  0.4866 -0.0461
  150MOL0     C20138   3.218   5.922   2.337 -1.0452 -0.2682  0.3586
  150MOL0     O20139   3.144   6.028   2.270 -0.0134 -0.6616 -0.1553
  150MOL0     C20140   3.188   6.092   2.154 -0.0616  0.6424  1.3185
  150MOL0     C20141   3.319   6.116   2.130 -0.5141 -0.7462 -0.1123
  150MOL0     C20142   3.365   6.177   2.017  0.3930  0.7687  0.2679
  150MOL0     C20143   3.281   6.219   1.926  0.7455 -0.3019  0.0569
  150MOL0     C20144   3.331   6.282   1.807 -0.0028  0.6404  0.2463
  150MOL0     O20145   3.454   6.263   1.760 -0.2631  0.2096  0.5232
  150MOL0     C20146   3.500   6.340   1.655 -0.2522 -0.2867 -0.6409
  150MOL0     C20147   3.562   6.461   1.677  0.7036  0.5377 -0.3932
  150MOL0     C20148   3.617   6.537   1.570  0.3983 -0.5857  0.4010
  150MOL0     C20149   3.607   6.487   1.435 -1.1745  0.8755 -0.3850
  150MOL0     O20150   3.663   6.567   1.338  0.6106  0.1469 -0.7438
  150MOL0     C20151   3.683   6.496   1.222  0.2158 -0.8364  0.0212
  150MOL0     C20152   3.731   6.594   1.115  1.2590 -0.1508  0.0406
  150MOL0     C20153   3.857   6.673   1.142  0.5227 -0.5223 -0.1156
  150MOL0     C20154   3.919   6.719   1.014  0.0443 -0.7389  0.5156
  150MOL0     C20155   4.021   6.834   1.031  0.2936  0.1729  0.2295
  150MOL0     C20156   4.127   6.849   0.918 -0.4334  1.2650  0.5272
  150MOL0     C20157   4.078   6.897   0.780 -0.0812  0.4646  0.4797
  150MOL0     C20158   4.160   6.831   0.665 -0.4317  0.4091  0.5907
  150MOL0    Cl20159   4.308   6.936   0.633  0.2652  0.1340 -0.2720
  150MOL0     C20160   3.546   6.358   1.416 -0.2103  0.0023 -0.6733
  150MOL0     C20161   3.493   6.288   1.524  0.9227 -0.0737 -0.7567
  150MOL0     O20162   3.247   6.362   1.761 -0.2493  0.4481 -0.8997
  150MOL0     C20163   3.142   6.184   1.943  0.1010 -0.5060  0.4153
  150MOL0     C20164   3.094   6.125   2.057  0.5215 -0.6034  0.2955
  150MOL0     N20165   2.706   5.899   2.624  0.1828 -0.1088  0.6773
  150MOL0     N20166   2.587   5.935   2.595  0.4108  0.0337 -0.6597
  150MOL0     C20167   1.755   5.296   2.137  0.3202  1.4652  0.3704
  150MOL0     C20168   1.758   5.263   2.008  0.3692  0.7913  0.0248
  150MOL0     C20169   1.784   5.192   1.566 -0.0657  0.5180 -0.2146
  150MOL0     C20170   1.708   5.296   1.503 -0.1955 -0.9573 -0.0510
  150MOL0     C20171   1.728   5.322   1.363  0.0658  0.6263  0.1228
  150MOL0     C20172   1.811   5.234   1.293  0.8055 -0.0958 -0.0103
  150MOL0     O20173   1.818   5.237   1.155 -0.3344 -0.0488  0.3160
  150MOL0     C20174   1.765   5.346   1.084  0.2035  0.0810  0.6276
  150MOL0     C20175   1.803   5.317   0.936 -1.2437 -1.2542 -0.9824
  150MOL0     C20176   1.699   5.238   0.852  0.9081  0.2699 -0.0090
  150MOL0     C20177   1.743   5.185   0.715 -0.2013 -0.7204 -0.2706
  150MOL0     C20178   1.848   5.274   0.653  0.1286  0.1891 -0.5291
  150MOL0     C20179   1.945   5.336   0.616  0.1580 -0.0228 -0.2954
  150MOL0     C20180   1.872   5.127   1.353 -0.0691 -0.0955 -0.1729
  150MOL0     C20181   1.858   5.105   1.491 -0.3649  0.4559  0.6474
  150MOL0     C20182   1.951   4.994   1.556  0.0583 -0.2091  1.4058
  150MOL0     H20183   1.825   5.566   1.877 -3.4048  2.8943  1.1089
  150MOL0     H20184   1.820   5.624   2.085  2.4832 -0.0129 -0.6830
  150MOL0     H20185   1.939   5.300   2.325 -4.7692 -0.2670  0.6859
  150MOL0     H20186   2.027   5.436   2.288 -0.3310 -0.9818  0.2773
  150MOL0     H20187   2.025   5.349   2.537  1.9860  3.0340  1.1840
  150MOL0     H20188   1.852   5.395   2.539 -0.2640 -1.5385  0.1360
  150MOL0     H20189   1.924   5.573   2.643  0.9069 -0.8427  0.1646
  150MOL0     H20190   1.935   5.624   2.469 -0.2176 -2.3454 -2.7702
  150MOL0     H20191   2.123   5.678   2.629 -1.1982  0.8199 -0.6997
  150MOL0     H20192   2.156   5.513   2.654 -0.9564  0.4405  2.4437
  150MOL0     H20193   2.237   5.480   2.426 -2.7914  0.4171 -1.0238
  150MOL0     H20194   2.164   5.644   2.386  0.4914  0.6485 -0.7251
  150MOL0     H20195   2.371   5.618   2.596 -1.3231  2.2185  0.8246
  150MOL0     H20196   2.421   5.635   2.426  1.6974  1.9253  1.2876
  150MOL0     H20197   2.323   5.835   2.607 -0.6422 -1.3686  0.7429
  150MOL0     H20198   2.227   5.832   2.460  1.4822  2.5542 -0.8844
  150MOL0     H20199   2.440   5.812   2.324  0.5431 -0.2483 -0.8285
  150MOL0     H20200   2.381   5.972   2.386 -2.4852 -0.9086  2.2427
  150MOL0     H20201   2.663   5.738   2.346  1.1862  0.7046 -0.6868
  150MOL0     H20202   2.927   5.760   2.618 -1.7317  0.2058  0.6618
  150MOL0     H20203   2.897   5.689   2.459  3.6291 -0.3855  0.0234
  150MOL0     H20204   2.949   5.914   2.353  1.8175 -2.8621 -2.2160
  150MOL0     H20205   3.013   5.974   2.507  0.3825 -1.9108  2.2365
  150MOL0     H20206   3.122   5.734   2.342  1.3395  0.4039 -0.4096
  150MOL0     H20207   3.173   5.788   2.505 -1.2092  1.0208  0.2909
  150MOL0     H20208   3.282   5.875   2.261  0.1610  3.0313 -0.8560
  150MOL0     H20209   3.286   5.974   2.405 -0.0650  2.2300 -2.3452
  150MOL0     H20210   3.385   6.084   2.211 -0.4335 -2.7053 -0.8941
  150MOL0     H20211   3.468   6.208   2.003 -0.9880  5.5227 -1.0404
  150MOL0     H20212   3.563   6.489   1.781  0.7241  1.3373 -0.6000
  150MOL0     H20213   3.658   6.636   1.584  1.6904 -0.9794 -0.4063
  150MOL0     H20214   3.770   6.435   1.250  1.2855 -0.1526 -1.6084
  150MOL0     H20215   3.612   6.430   1.171  0.0472 -0.3799 -0.3352
  150MOL0     H20216   3.744   6.523   1.033  2.6909  1.6290 -1.3551
  150MOL0     H20217   3.654   6.655   1.066  1.8138 -2.2928 -3.9904
  150MOL0     H20218   3.825   6.759   1.201  0.5610 -0.3588 -0.3307
  150MOL0     H20219   3.922   6.611   1.206 -2.3830 -1.3243  2.2744
  150MOL0     H20220   3.832   6.759   0.961  0.4398  1.1202  1.1688
  150MOL0     H20221   3.978   6.635   0.976  0.9612  0.6855 -1.3691
  150MOL0     H20222   4.066   6.806   1.126  0.6708 -0.0108  0.0000
  150MOL0     H20223   3.974   6.931   1.045 -2.8961 -1.4871  2.2356
  150MOL0     H20224   4.206   6.912   0.960  1.8695 -1.1483  0.0217
  150MOL0     H20225   4.170   6.750   0.905  0.6760  1.6834  0.9044
  150MOL0     H20226   4.063   7.005   0.772 -0.0835  0.3812 -0.8545
  150MOL0     H20227   3.978   6.855   0.769  0.9444 -1.6971 -1.4886
  150MOL0     H20228   4.191   6.727   0.682 -1.8063 -0.5853 -2.2235
  150MOL0     H20229   4.104   6.832   0.570  2.2182  2.9604 -1.1061
  150MOL0     H20230   3.540   6.308   1.320  3.0726 -1.3078 -0.3261
  150MOL0     H20231   3.444   6.193   1.503 -0.5173  0.0780  1.5236
  150MOL0     H20232   3.073   6.202   1.861  0.7998  0.9533  0.1143
  150MOL0     H20233   2.988   6.125   2.082  0.4743  1.3363  0.2650
  150MOL0     H20234   1.727   5.222   2.212 -0.9625  0.8273 -0.6929
  150MOL0     H20235   1.734   5.158   1.992  1.3391  0.8980 -2.6307
  150MOL0     H20236   1.633   5.353   1.557  1.3309 -0.6920  1.9247
  150MOL0     H20237   1.669   5.397   1.310  1.5568  1.5349 -0.2964
  150MOL0     H20238   1.817   5.431   1.130  0.1205 -0.5490  1.9402
  150MOL0     H20239   1.656   5.358   1.087  0.2715  2.0106 -1.6163
  150MOL0     H20240   1.903   5.273   0.938 -0.7155 -0.0901  0.6246
  150MOL0     H20241   1.810   5.418   0.893  2.4247 -0.3137  1.3626
  150MOL0     H20242   1.623   5.314   0.830  0.4364 -1.2056 -4.4933
  150MOL0     H20243   1.662   5.154   0.911  3.3618  0.0191  1.2754
  150MOL0     H20244   1.803   5.094   0.731  1.1830  0.5228  2.1322
  150MOL0     H20245   1.653   5.183   0.653 -1.2658  0.5011  1.1651
  150MOL0     H20246   2.039   5.381   0.594  0.2958 -0.9040 -1.6731
  150MOL0     H20247   1.947   5.072   1.298  1.3960  2.4771 -0.8759
  150MOL0     H20248   2.007   4.952   1.471  2.8803  2.9650  1.4602
  150MOL0     H20249   2.022   5.036   1.628  4.4234  0.4414 -2.7418
  150MOL0     H20250   1.876   4.924   1.594 -1.1551 -1.7279 -3.0980
  151MOL0     O20251   2.758   7.681   5.289  0.4363  0.0135  0.6617
  151MOL0     C20252   2.768   7.710   5.171 -0.7359  0.8478 -0.3988
  151MOL0     O20253   2.781   7.835   5.115 -0.0405  0.0406 -0.3612
  151MOL0     C20254   2.741   7.938   5.193 -0.6527 -0.1939 -0.1362
  151MOL0     C20255   2.630   8.014   5.160 -0.5815 -0.0234 -0.1755
  151MOL0     C20256   2.589   8.120   5.238 -0.1352 -0.0276 -0.7219
  151MOL0     C20257   2.661   8.157   5.352 -0.8556  0.3322 -0.6719
  151MOL0     O20258   2.632   8.278   5.417  0.5681  0.5011  0.3710
  151MOL0     C20259   2.648   8.281   5.565  0.5732  0.6901  0.4463
  151MOL0     C20260   2.599   8.414   5.620  0.0869 -0.8412  0.3527
  151MOL0     C20261   2.447   8.426   5.591  0.2297 -0.3461 -0.5199
  151MOL0     C20262   2.386   8.565   5.634  0.5111 -0.2926 -0.0083
  151MOL0     C20263   2.247   8.556   5.588  1.2640  0.3025 -0.2065
  151MOL0     C20264   2.175   8.684   5.635  0.1791  1.0349  0.4294
  151MOL0     C20265   2.052   8.722   5.545  0.3630 -1.5923  0.2537
  151MOL0     C20266   1.928   8.639   5.535  0.3471  0.9178  0.1683
  151MOL0     N20267   1.867   8.625   5.659  0.7290  1.6642  0.6372
  151MOL0     C20268   1.753   8.697   5.687  0.9149  0.4170  1.3889
  151MOL0     C20269   1.720   8.661   5.807 -0.7751 -0.5554  0.4102
  151MOL0     C20270   1.593   8.699   5.879 -0.1978 -0.0909 -0.3092
  151MOL0     C20271   1.479   8.611   5.848  0.2551  0.0630 -0.4042
  151MOL0     C20272   1.346   8.665   5.899  0.4943 -0.1267 -0.9507
  151MOL0     C20273   1.284   8.776   5.813  0.2080 -1.7558 -0.1836
  151MOL0     O20274   1.142   8.773   5.842  0.1151 -0.5118  0.3660
  151MOL0     C20275   1.041   8.793   5.751  0.2569 -0.2510 -0.2276
  151MOL0     C20276   1.062   8.899   5.660 -0.3996  0.5504  0.5884
  151MOL0     C20277   0.969   8.931   5.560  0.2708  0.9075  0.6297
  151MOL0     C20278   0.857   8.842   5.546  0.4450  0.0108 -0.2472
  151MOL0     C20279   0.775   8.856   5.420  0.0001  0.5777  0.2955
  151MOL0     O20280   0.651   8.800   5.418  0.3536  0.2428  0.3992
  151MOL0     C20281   0.570   8.804   5.305  0.7240  0.5127 -0.5307
  151MOL0     C20282   0.468   8.716   5.315  0.6810 -0.4543 -0.6223
  151MOL0     C20283   0.391   8.683   5.208  1.6934 -0.8837  0.6668
  151MOL0     C20284   0.397   8.757   5.094 -0.6127  0.4024  0.6140
  151MOL0     O20285   0.338   8.710   4.981 -0.0675  0.1217  0.2226
  151MOL0     C20286   0.296   8.811   4.876 -0.6016 -0.1811 -0.1742
  151MOL0     C20287   0.188   8.756   4.773  0.9151 -0.0945 -0.8634
  151MOL0     C20288   0.046   8.759   4.838  0.0946  0.5160 -0.4203
  151MOL0     C20289  -0.062   8.747   4.730 -0.6719  1.4002 -0.5198
  151MOL0     C20290  -0.200   8.718   4.786  0.6968 -0.0421  0.0224
  151MOL0     C20291  -0.310   8.696   4.683  0.3194  1.5359 -0.4792
  151MOL0     C20292  -0.324   8.814   4.584 -0.5070  0.4829 -0.4612
  151MOL0     C20293  -0.459   8.799   4.505 -1.2975  1.0390 -0.3084
  151MOL0    Cl20294  -0.592   8.841   4.609  0.1241  0.3524 -0.0803
  151MOL0     C20295   0.479   8.870   5.097 -0.5492  0.5847 -0.5258
  151MOL0     C20296   0.567   8.894   5.201 -0.3287  0.1989  0.5820
  151MOL0     O20297   0.826   8.918   5.327 -0.6410  0.0324  1.0815
  151MOL0     C20298   0.838   8.733   5.634  0.0969 -0.3166 -0.1653
  151MOL0     C20299   0.935   8.703   5.731 -0.0677 -0.5851  0.6256
  151MOL0     N20300   1.804   8.563   5.851  0.5166 -0.0745 -0.0567
  151MOL0     N20301   1.893   8.542   5.760 -0.3485  1.0626 -0.4771
  151MOL0     C20302   2.769   8.079   5.394 -0.7599  0.1700  0.4500
  151MOL0     C20303   2.809   7.971   5.308  0.7767  0.0303  0.1750
  151MOL0     C20304   2.801   7.596   5.076  0.0075  0.1965  0.5152
  151MOL0     C20305   2.854   7.473   5.131 -0.5155  0.2007  0.1376
  151MOL0     C20306   2.868   7.362   5.047  0.3164 -0.0018 -0.4296
  151MOL0     C20307   2.839   7.364   4.910 -0.6687  1.4976 -0.1489
  151MOL0     O20308   2.840   7.242   4.846 -0.3511  0.0279 -0.0911
  151MOL0     C20309   2.847   7.248   4.703  1.0166 -0.2334  0.2167
  151MOL0     C20310   2.857   7.104   4.645 -0.2856  0.0008  0.0733
  151MOL0     C20311   2.722   7.058   4.585  0.8006  0.1787 -0.2970
  151MOL0     C20312   2.624   7.004   4.696 -0.7015  0.4344 -0.5303
  151MOL0     C20313   2.508   6.927   4.652 -0.1789  0.1489  0.3119
  151MOL0     C20314   2.406   6.863   4.626  0.1487 -0.5410  0.4946
  151MOL0     C20315   2.784   7.480   4.864  0.2657  1.4146  0.1971
  151MOL0     C20316   2.771   7.599   4.939 -1.2277 -1.1851  0.5475
  151MOL0     C20317   2.708   7.706   4.873 -0.1275 -0.4569  0.1403
  151MOL0     H20318   2.594   7.988   5.061 -0.0732 -1.0364 -0.1103
  151MOL0     H20319   2.515   8.191   5.205 -1.5516 -2.0603 -2.1849
  151MOL0     H20320   2.586   8.205   5.614 -2.6863  2.8643 -0.0051
  151MOL0     H20321   2.748   8.252   5.599  1.1746  3.7682  1.6005
  151MOL0     H20322   2.653   8.498   5.575 -3.2862  1.6031  0.4821
  151MOL0     H20323   2.621   8.415   5.727  0.4443 -0.2858  0.2777
  151MOL0     H20324   2.394   8.339   5.632  0.0489  0.4972  1.1190
  151MOL0     H20325   2.436   8.415   5.482  3.4325 -0.5237 -0.9127
  151MOL0     H20326   2.398   8.579   5.742 -0.5717  4.1776 -0.2709
  151MOL0     H20327   2.436   8.652   5.593  0.5555  1.1334  2.8078
  151MOL0     H20328   2.237   8.549   5.479 -1.3084  0.3529 -0.0338
  151MOL0     H20329   2.204   8.467   5.635  2.9069 -0.0525  0.6868
  151MOL0     H20330   2.141   8.663   5.737 -0.9398 -2.8401 -0.5562
  151MOL0     H20331   2.249   8.764   5.637 -0.1926  1.4009 -0.0602
  151MOL0     H20332   2.082   8.749   5.444  2.5072 -0.2551  1.1971
  151MOL0     H20333   2.020   8.816   5.591  1.5127 -1.3400  0.5565
  151MOL0     H20334   1.863   8.681   5.458 -4.4874  0.0766  3.3240
  151MOL0     H20335   1.954   8.536   5.509 -1.0913  0.7244 -0.6003
  151MOL0     H20336   1.704   8.767   5.620  0.6230 -2.1096 -1.2937
  151MOL0     H20337   1.607   8.693   5.987  0.5309  0.0495 -0.3901
  151MOL0     H20338   1.567   8.803   5.861  2.0502  0.5188 -0.2229
  151MOL0     H20339   1.480   8.595   5.740  1.4941 -1.2315 -0.2299
  151MOL0     H20340   1.489   8.514   5.899 -4.3076 -1.1990 -1.4401
  151MOL0     H20341   1.371   8.701   5.999  3.8637  2.5447 -2.5494
  151MOL0     H20342   1.267   8.590   5.892 -0.8056  1.2671 -2.0241
  151MOL0     H20343   1.298   8.756   5.707  1.9393  2.9406 -1.0311
  151MOL0     H20344   1.331   8.874   5.825  1.4576 -2.2014 -1.2435
  151MOL0     H20345   1.148   8.962   5.684  0.0226 -0.5214  2.0021
  151MOL0     H20346   0.995   9.009   5.489  1.9836 -1.5372 -1.6130
  151MOL0     H20347   0.451   8.651   5.400 -2.6895  1.2983  0.2199
  151MOL0     H20348   0.322   8.600   5.216 -0.0524  0.2071 -1.8343
  151MOL0     H20349   0.239   8.891   4.925 -1.4278  0.0150 -1.4156
  151MOL0     H20350   0.378   8.860   4.824 -2.5641  1.3499 -2.0342
  151MOL0     H20351   0.190   8.830   4.692  1.7457 -0.4831 -1.2116
  151MOL0     H20352   0.211   8.653   4.742 -1.2848 -0.5134 -1.2992
  151MOL0     H20353   0.041   8.671   4.904 -2.4156 -0.7719 -2.1555
  151MOL0     H20354   0.021   8.847   4.897  1.4307  1.5939 -1.4152
  151MOL0     H20355  -0.036   8.665   4.663 -1.4647 -1.0627  2.0152
  151MOL0     H20356  -0.074   8.838   4.670  0.0067  0.4214 -2.1891
  151MOL0     H20357  -0.244   8.802   4.839 -0.7235  0.7522 -2.2530
  151MOL0     H20358  -0.200   8.638   4.861 -0.3367  2.9856  3.4936
  151MOL0     H20359  -0.287   8.604   4.629  0.4682 -0.6865  3.0116
  151MOL0     H20360  -0.403   8.676   4.737  0.8410 -1.0226 -0.4008
  151MOL0     H20361  -0.239   8.811   4.516 -1.1960  1.0319 -1.3833
  151MOL0     H20362  -0.328   8.909   4.638  1.5963 -1.1261  2.8313
  151MOL0     H20363  -0.462   8.852   4.409  2.8685  1.5250 -0.3562
  151MOL0     H20364  -0.451   8.694   4.474 -1.8108  1.3230 -1.4540
  151MOL0     H20365   0.493   8.932   5.009 -0.8920  1.1163 -0.2147
  151MOL0     H20366   0.645   8.969   5.197  1.2562 -1.4243 -0.1816
  151MOL0     H20367   0.761   8.657   5.628 -1.2792  0.8230  1.7707
  151MOL0     H20368   0.930   8.611   5.788  1.0942 -1.7224 -1.0495
  151MOL0     H20369   2.836   8.094   5.478  0.8776 -0.0867 -0.7566
  151MOL0     H20370   2.894   7.913   5.342 -0.4778 -2.7440 -1.1395
  151MOL0     H20371   2.866   7.465   5.239  2.0843  0.3768 -0.0560
  151MOL0     H20372   2.870   7.271   5.106 -1.9827  0.3100  0.2295
  151MOL0     H20373   2.937   7.302   4.674  1.2102  0.1631  1.4713
  151MOL0     H20374   2.763   7.305   4.663  1.1655  2.0085  2.7722
  151MOL0     H20375   2.908   7.049   4.725 -1.7285  1.5178  2.1321
  151MOL0     H20376   2.930   7.104   4.563 -0.2468 -4.4657 -0.1470
  151MOL0     H20377   2.748   6.974   4.520  0.6088  0.3010 -0.5313
  151MOL0     H20378   2.674   7.134   4.524 -0.5916 -0.9402 -0.6546
  151MOL0     H20379   2.688   6.946   4.764  1.2222  0.9426 -1.8096
  151MOL0     H20380   2.594   7.096   4.748  0.8857  1.6254 -1.6108
  151MOL0     H20381   2.319   6.804   4.603 -0.9497  0.6102  1.5496
  151MOL0     H20382   2.761   7.493   4.759  4.7542  2.5152 -0.8432
  151MOL0     H20383   2.784   7.782   4.851 -1.7487  1.5753  1.1595
  151MOL0     H20384   2.658   7.677   4.780  2.0112 -1.2916 -0.7932
  151MOL0     H20385   2.628   7.759   4.926 -0.0234 -1.9606  1.9082
  152MOL0     O20386  11.251   0.648  11.270  0.2546 -0.6425 -0.0512
  152MOL0     C20387  11.260   0.528  11.245 -0.5343 -0.0581  0.0408
  152MOL0     O20388  11.382   0.464  11.238  0.0574  0.5760 -0.0006
  152MOL0     C20389  11.499   0.538  11.255 -0.0350  0.2029  0.9117
  152MOL0     C20390  11.547   0.622  11.154  0.4804  0.5439 -1.1829
  152MOL0     C20391  11.658   0.700  11.176 -0.8070  0.0811 -0.0435
  152MOL0     C20392  11.736   0.691  11.291  0.4334 -0.0253 -0.3951
  152MOL0     O20393  11.847   0.764  11.295 -0.3874 -1.1070  0.6915
  152MOL0     C20394  11.891   0.823  11.428 -0.3625 -0.3458 -0.0635
  152MOL0     C20395  11.782   0.912  11.501 -0.5444  1.1633 -0.7558
  152MOL0     C20396  11.739   1.037  11.429  0.6946 -0.3927  0.8008
  152MOL0     C20397  11.847   1.149  11.390 -0.4787 -0.7413 -1.2672
  152MOL0     C20398  11.803   1.248  11.278 -0.3570  0.2071 -0.1100
  152MOL0     C20399  11.677   1.330  11.310  0.2493  0.2536 -0.3490
  152MOL0     C20400  11.685   1.407  11.447 -0.8931  0.7989 -0.3418
  152MOL0     C20401  11.566   1.501  11.463  0.7129  0.0640  1.2588
  152MOL0     N20402  11.579   1.560  11.593  0.0696  0.2209 -0.8285
  152MOL0     C20403  11.555   1.489  11.705  0.2888 -0.8256 -0.0920
  152MOL0     C20404  11.596   1.577  11.801  0.1998  0.0438 -0.0608
  152MOL0     C20405  11.599   1.539  11.945  1.1641 -0.6154 -0.5140
  152MOL0     C20406  11.670   1.634  12.034 -0.2712 -0.5114  0.0518
  152MOL0     C20407  11.656   1.575  12.180 -0.0819  0.0630  0.2781
  152MOL0     C20408  11.552   1.662  12.246  0.5361  0.6568 -0.2651
  152MOL0     O20409  11.595   1.799  12.247  0.6012  0.1161 -0.2458
  152MOL0     C20410  11.532   1.897  12.306 -0.2583  0.1085  0.3839
  152MOL0     C20411  11.567   2.021  12.259  0.2998 -0.1664  0.1965
  152MOL0     C20412  11.510   2.131  12.315  0.4035 -0.9342  1.1911
  152MOL0     C20413  11.401   2.120  12.402 -0.8026  0.8798  0.0726
  152MOL0     C20414  11.329   2.245  12.447  0.6046 -0.2826 -1.3864
  152MOL0     O20415  11.365   2.372  12.396 -0.9692 -0.2643 -0.8914
  152MOL0     C20416  11.328   2.485  12.475 -0.7342  0.7791  1.0841
  152MOL0     C20417  11.427   2.571  12.527 -0.0800  0.3696 -0.4800
  152MOL0     C20418  11.393   2.680  12.609  0.1756  1.0292  0.2113
  152MOL0     C20419  11.266   2.694  12.650 -0.5036 -0.3948 -0.9219
  152MOL0     O20420  11.229   2.797  12.733 -0.5584 -0.0337 -0.4856
  152MOL0     C20421  11.319   2.841  12.835  0.1096  0.6972 -0.0691
  152MOL0     C20422  11.261   2.803  12.980  0.9085 -0.5256  0.2022
  152MOL0     C20423  11.333   2.689  13.034 -0.6718  0.3752  0.3593
  152MOL0     C20424  11.262   2.560  12.974 -0.0202  0.3909 -0.6465
  152MOL0     C20425  11.315   2.425  13.048  0.7093 -0.5853  0.5303
  152MOL0     C20426  11.233   2.410  13.169 -0.3359  1.0222  0.8144
  152MOL0     C20427  11.283   2.285  13.244  0.1403 -0.0719 -0.4199
  152MOL0     C20428  11.228   2.272  13.381  0.0432 -0.0532 -0.1302
  152MOL0    Cl20429  11.323   2.150  13.460  0.3352 -0.1928 -0.6489
  152MOL0     C20430  11.160   2.620  12.597 -0.6851  0.8651 -0.1293
  152MOL0     C20431  11.193   2.515  12.510  0.4043 -0.8433 -0.0606
  152MOL0     O20432  11.251   2.227  12.545 -1.1680 -1.2845  0.4759
  152MOL0     C20433  11.359   1.990  12.448  0.4346 -0.3428  0.6074
  152MOL0     C20434  11.428   1.886  12.397  0.0657 -0.5022  0.7709
  152MOL0     N20435  11.649   1.694  11.743 -0.1120 -0.1234 -0.1085
  152MOL0     N20436  11.645   1.682  11.615  0.4153 -0.6757  0.0358
  152MOL0     C20437  11.691   0.600  11.390  0.8062 -0.1705 -0.3426
  152MOL0     C20438  11.571   0.531  11.376  0.0956  0.0814 -0.1133
  152MOL0     C20439  11.143   0.443  11.235  0.7901  0.3500 -0.3736
  152MOL0     C20440  11.168   0.303  11.202  0.4406 -0.8259  0.2486
  152MOL0     C20441  11.063   0.211  11.217  0.6178  0.5431 -0.1325
  152MOL0     C20442  10.927   0.244  11.245 -0.0481 -0.5855 -0.8237
  152MOL0     O20443  10.812   0.178  11.254  0.1872 -0.3937 -0.3846
  152MOL0     C20444  10.826   0.030  11.264 -0.0135 -0.2605  0.3623
  152MOL0     C20445  10.815  -0.025  11.124  0.6816  0.0764 -0.4944
  152MOL0     C20446  10.792  -0.177  11.114  0.3651  0.4019  0.1707
  152MOL0     C20447  10.921  -0.254  11.139 -0.5875  0.1702 -0.7039
  152MOL0     C20448  10.943  -0.308  11.276  0.2841 -0.4757  0.2273
  152MOL0     C20449  10.963  -0.347  11.388 -0.3920 -0.5230 -0.3229
  152MOL0     C20450  10.902   0.374  11.273 -0.3599 -0.7144  0.1114
  152MOL0     C20451  11.002   0.477  11.274 -0.5551  0.7668  0.0310
  152MOL0     C20452  10.958   0.614  11.309  0.8498 -0.1026  0.4524
  152MOL0     H20453  11.493   0.652  11.065  1.0243  1.2332 -1.2910
  152MOL0     H20454  11.699   0.758  11.094  3.0054 -1.2203  0.7471
  152MOL0     H20455  11.915   0.738  11.492 -3.3837  0.3619  2.2751
  152MOL0     H20456  11.985   0.878  11.423  0.5959 -2.0066 -1.3061
  152MOL0     H20457  11.826   0.940  11.597 -1.8637 -0.8249  0.4825
  152MOL0     H20458  11.694   0.849  11.514 -1.5587  2.7524  0.4009
  152MOL0     H20459  11.673   1.081  11.505 -1.4560 -2.7807  0.4404
  152MOL0     H20460  11.683   1.016  11.338  3.5346  2.8432 -1.9595
  152MOL0     H20461  11.870   1.205  11.481 -1.0366 -4.2219  1.2057
  152MOL0     H20462  11.937   1.102  11.349  0.3134  0.4575 -0.9591
  152MOL0     H20463  11.884   1.321  11.268 -1.2562  1.0006 -1.8825
  152MOL0     H20464  11.810   1.199  11.180  0.1581  2.4339 -1.2351
  152MOL0     H20465  11.670   1.406  11.231 -0.0144  2.1853  1.4589
  152MOL0     H20466  11.588   1.266  11.319  0.9589 -0.5190  1.7061
  152MOL0     H20467  11.774   1.467  11.465 -1.8148  1.3973  3.0822
  152MOL0     H20468  11.697   1.335  11.529  5.3186  0.1054 -1.4372
  152MOL0     H20469  11.562   1.571  11.380 -0.4703  0.9181  2.0140
  152MOL0     H20470  11.474   1.443  11.457 -0.3414  1.7331  0.6804
  152MOL0     H20471  11.516   1.389  11.718  0.5123 -1.5925 -4.1447
  152MOL0     H20472  11.497   1.560  11.979  1.7837  0.3438  0.8872
  152MOL0     H20473  11.631   1.437  11.967  0.6874 -0.2283  2.4045
  152MOL0     H20474  11.772   1.623  11.996  0.4199 -2.2382  2.1829
  152MOL0     H20475  11.639   1.738  12.022 -1.9795 -0.8446  1.1606
  152MOL0     H20476  11.754   1.576  12.229 -0.7241  0.4746  1.5970
  152MOL0     H20477  11.618   1.473  12.169 -0.1650  0.1568 -0.3620
  152MOL0     H20478  11.558   1.632  12.350  0.5603  0.2457 -0.3848
  152MOL0     H20479  11.453   1.644  12.203 -0.1459 -0.0459  1.5278
  152MOL0     H20480  11.635   2.038  12.177  1.0809 -0.1778  0.8238
  152MOL0     H20481  11.539   2.235  12.301  0.2417 -1.2098 -1.8967
  152MOL0     H20482  11.530   2.542  12.505  0.3909  1.3304  0.3610
  152MOL0     H20483  11.481   2.729  12.652  2.4524 -1.9832 -0.6828
  152MOL0     H20484  11.423   2.806  12.827 -0.0029  0.3209  0.1232
  152MOL0     H20485  11.328   2.950  12.833  1.5927  0.7048  2.4534
  152MOL0     H20486  11.269   2.894  13.041 -0.3692  2.5638 -3.7679
  152MOL0     H20487  11.152   2.790  12.973  0.7217  0.8964  0.0627
  152MOL0     H20488  11.436   2.673  12.999 -0.6176  0.3821  0.5181
  152MOL0     H20489  11.329   2.692  13.143  0.4712 -2.4448  0.5824
  152MOL0     H20490  11.290   2.544  12.870  1.9023 -1.2100  0.0463
  152MOL0     H20491  11.153   2.568  12.973 -0.0065  0.5485 -1.0842
  152MOL0     H20492  11.420   2.436  13.078  1.2761  2.0698 -1.9465
  152MOL0     H20493  11.296   2.335  12.989  2.5720 -0.1996 -0.7527
  152MOL0     H20494  11.245   2.502  13.227 -4.6987  1.7115  0.9776
  152MOL0     H20495  11.126   2.400  13.150 -0.9721  5.1634  1.2436
  152MOL0     H20496  11.392   2.292  13.250  0.4626 -4.1004  1.3456
  152MOL0     H20497  11.266   2.193  13.187  3.0297 -0.1293 -1.3419
  152MOL0     H20498  11.231   2.365  13.438 -3.7534  0.7079 -0.9190
  152MOL0     H20499  11.125   2.236  13.376  0.0504 -0.3424  1.3539
  152MOL0     H20500  11.059   2.631  12.634 -0.9909 -1.1038 -0.2702
  152MOL0     H20501  11.118   2.457  12.457  0.5553 -0.4177 -0.7501
  152MOL0     H20502  11.283   1.983  12.525 -0.2302  1.7783  0.2216
  152MOL0     H20503  11.397   1.787  12.431  2.0487 -2.1327 -1.7621
  152MOL0     H20504  11.735   0.600  11.489 -1.0542  2.5172  0.5969
  152MOL0     H20505  11.534   0.475  11.462  0.4205 -0.0581 -0.0631
  152MOL0     H20506  11.267   0.269  11.177  2.1151  3.6623 -0.1448
  152MOL0     H20507  11.097   0.114  11.182  1.0116  1.0565 -1.2595
  152MOL0     H20508  10.739   0.006  11.327  0.3495  4.8554  3.4173
  152MOL0     H20509  10.927   0.005  11.297  1.7769  0.5733 -3.8425
  152MOL0     H20510  10.898   0.003  11.059 -1.2140  1.9868 -2.2596
  152MOL0     H20511  10.722   0.003  11.073  0.5195 -1.3240 -1.0275
  152MOL0     H20512  10.753  -0.194  11.013 -0.0882  1.4098  0.1679
  152MOL0     H20513  10.715  -0.207  11.185 -0.9076  1.2464 -0.8050
  152MOL0     H20514  10.928  -0.342  11.074 -1.0175 -1.4557  1.3572
  152MOL0     H20515  11.007  -0.188  11.126 -1.7255  1.6367 -1.1094
  152MOL0     H20516  10.955  -0.354  11.495 -2.4408 -0.3079 -0.4094
  152MOL0     H20517  10.797   0.405  11.276  0.3400  2.0871 -1.2567
  152MOL0     H20518  10.855   0.621  11.347  0.3647  1.3563 -1.0049
  152MOL0     H20519  11.034   0.650  11.380  1.0997  1.5459 -0.5920
  152MOL0     H20520  10.966   0.692  11.233  0.8556 -0.0789  0.4762
  153MOL0     O20521   9.273   6.716   1.461  0.1811 -0.0515 -0.5715
  153MOL0     C20522   9.356   6.668   1.538  0.7780  0.3644  0.7859
  153MOL0     O20523   9.347   6.683   1.674  0.1030  0.6817 -0.1024
  153MOL0     C20524   9.240   6.738   1.745 -0.4211  0.5017 -0.3439
  153MOL0     C20525   9.257   6.755   1.884 -0.6264 -0.2581 -0.4678
  153MOL0     C20526   9.148   6.793   1.965 -0.3359  0.1843 -0.0238
  153MOL0     C20527   9.030   6.842   1.911 -1.0719  0.6016  0.4816
  153MOL0     O20528   8.940   6.888   1.999 -0.3979 -0.2938 -0.2209
  153MOL0     C20529   8.844   6.975   1.942 -0.4456 -0.2787 -0.2382
  153MOL0     C20530   8.779   7.063   2.051 -0.3577 -0.3855 -0.2128
  153MOL0     C20531   8.652   7.117   1.999  0.5786 -0.4293 -0.7069
  153MOL0     C20532   8.686   7.252   1.931  0.4606  0.6567  1.4605
  153MOL0     C20533   8.566   7.341   1.911 -0.3203 -0.1335 -0.1871
  153MOL0     C20534   8.532   7.403   2.046  0.4838 -0.2391  0.7383
  153MOL0     C20535   8.391   7.460   2.047  0.7791 -0.2442  0.0520
  153MOL0     C20536   8.273   7.354   2.033 -0.0443 -0.1797 -0.1513
  153MOL0     N20537   8.144   7.409   2.053  0.3446  0.7848  0.0540
  153MOL0     C20538   8.033   7.353   2.004  0.3585  1.0553 -0.0133
  153MOL0     C20539   7.930   7.417   2.057 -0.3696  0.2512 -0.1610
  153MOL0     C20540   7.785   7.401   2.006  0.3792  0.7878  0.1578
  153MOL0     C20541   7.682   7.452   2.099  0.8285  0.9027 -0.0268
  153MOL0     C20542   7.531   7.445   2.050 -0.0579 -1.2576 -0.4340
  153MOL0     C20543   7.469   7.562   1.966  0.1346  0.8666  0.2725
  153MOL0     O20544   7.455   7.677   2.056 -0.9503  0.4000  0.5303
  153MOL0     C20545   7.409   7.787   1.992  0.5366 -0.8980 -0.3677
  153MOL0     C20546   7.482   7.851   1.887 -0.2485 -0.8862 -0.6447
  153MOL0     C20547   7.455   7.985   1.845  0.1550  0.6083  0.0823
  153MOL0     C20548   7.352   8.061   1.907 -0.6668 -0.3851 -0.3793
  153MOL0     C20549   7.337   8.200   1.878  0.2671  0.2787 -0.2335
  153MOL0     O20550   7.228   8.267   1.933 -0.0332  0.5674  1.1968
  153MOL0     C20551   7.143   8.364   1.869 -0.5453  0.4871  1.0372
  153MOL0     C20552   7.027   8.396   1.931 -0.1340  0.2219 -0.0686
  153MOL0     C20553   6.938   8.489   1.868 -0.6031  0.7868 -0.4838
  153MOL0     C20554   6.974   8.557   1.748 -0.0581  0.1752 -0.3273
  153MOL0     O20555   6.916   8.670   1.701 -0.4762 -0.2967  0.8146
  153MOL0     C20556   6.871   8.750   1.802 -0.2628 -0.1716 -0.2906
  153MOL0     C20557   6.846   8.888   1.738 -0.8128 -0.5454 -0.3703
  153MOL0     C20558   6.839   8.992   1.846  0.1440  1.0518  0.5589
  153MOL0     C20559   6.977   9.030   1.902  0.5639  0.3933 -0.4027
  153MOL0     C20560   6.999   9.179   1.894  0.7773  0.8764  0.2165
  153MOL0     C20561   7.141   9.223   1.928  1.3094  0.3277  0.1258
  153MOL0     C20562   7.153   9.370   1.927  1.1809  0.1260 -0.0091
  153MOL0     C20563   7.289   9.416   1.951 -0.1947 -0.8818  0.0436
  153MOL0    Cl20564   7.394   9.391   1.801  0.3306  0.1630  0.4733
  153MOL0     C20565   7.092   8.517   1.679  0.1554  0.5025  0.2385
  153MOL0     C20566   7.163   8.408   1.734 -0.3568  0.2352 -0.0694
  153MOL0     O20567   7.407   8.239   1.783  0.3624  0.2223  0.1009
  153MOL0     C20568   7.279   7.993   2.009 -0.4258 -0.9941  0.1474
  153MOL0     C20569   7.310   7.861   2.052 -0.0325 -1.2752  0.1129
  153MOL0     N20570   7.985   7.517   2.129 -0.6861 -0.5025  0.1571
  153MOL0     N20571   8.116   7.506   2.135 -0.1959 -0.8848 -0.8833
  153MOL0     C20572   9.002   6.819   1.774  0.1494 -0.4746  0.5507
  153MOL0     C20573   9.111   6.770   1.695 -0.0203  0.7412  0.4438
  153MOL0     C20574   9.481   6.591   1.496 -0.0546  0.4284 -0.1485
  153MOL0     C20575   9.580   6.565   1.591 -0.9271 -0.5724 -0.0843
  153MOL0     C20576   9.697   6.500   1.556  0.6256  0.4376  0.3825
  153MOL0     C20577   9.723   6.455   1.431  0.0367 -0.6374 -0.1910
  153MOL0     O20578   9.835   6.376   1.416  0.4970 -0.8201 -0.5135
  153MOL0     C20579   9.924   6.446   1.327 -0.5160  0.2378  0.3274
  153MOL0     C20580  10.036   6.355   1.295 -0.4406 -1.0341 -1.0276
  153MOL0     C20581  10.109   6.297   1.413 -0.7048 -0.0316  0.6621
  153MOL0     C20582  10.161   6.399   1.512  0.5706 -0.2028  0.5268
  153MOL0     C20583  10.258   6.346   1.602  0.2356 -1.5343  0.4266
  153MOL0     C20584  10.346   6.288   1.671  0.5389 -0.3066 -0.6592
  153MOL0     C20585   9.623   6.480   1.340  0.0631 -0.0079 -0.5172
  153MOL0     C20586   9.507   6.551   1.367  0.1986  0.1588  0.7304
  153MOL0     C20587   9.403   6.576   1.258 -0.7748 -0.2631 -0.2573
  153MOL0     H20588   9.353   6.735   1.931 -0.4286  0.1377 -0.6918
  153MOL0     H20589   9.164   6.798   2.072  2.1197 -1.4782 -0.2233
  153MOL0     H20590   8.896   7.047   1.878 -0.2973 -0.4399 -0.2998
  153MOL0     H20591   8.774   6.911   1.888 -1.1396  0.0859  0.2140
  153MOL0     H20592   8.852   7.139   2.079 -0.2751 -0.3147 -0.6136
  153MOL0     H20593   8.759   7.010   2.144  0.0990 -3.5956 -1.7763
  153MOL0     H20594   8.583   7.123   2.084  0.1996 -3.3434 -0.6784
  153MOL0     H20595   8.603   7.054   1.924 -1.3515  2.8415 -2.3889
  153MOL0     H20596   8.760   7.310   1.986 -0.0420  3.0863 -0.2818
  153MOL0     H20597   8.737   7.234   1.836 -1.2238  0.5753  0.5218
  153MOL0     H20598   8.587   7.433   1.855  0.3059  0.3009  0.7425
  153MOL0     H20599   8.481   7.290   1.864 -1.6717  0.3205  1.6764
  153MOL0     H20600   8.537   7.333   2.129 -1.5174 -2.4004 -0.8113
  153MOL0     H20601   8.598   7.487   2.064  0.0630  0.4624 -0.8193
  153MOL0     H20602   8.381   7.522   1.958 -3.3148 -0.8025 -0.0711
  153MOL0     H20603   8.377   7.510   2.144  4.7879  2.7233 -0.6558
  153MOL0     H20604   8.295   7.300   1.941 -0.4754 -0.4010 -0.1279
  153MOL0     H20605   8.294   7.284   2.115  2.0562 -2.2614 -2.3114
  153MOL0     H20606   8.018   7.261   1.947  0.4526 -0.2793  2.0109
  153MOL0     H20607   7.766   7.474   1.927  1.4914  2.7460  1.5917
  153MOL0     H20608   7.768   7.299   1.973 -0.9769  0.2473  2.3121
  153MOL0     H20609   7.694   7.394   2.191  2.2731  2.0976  0.5815
  153MOL0     H20610   7.709   7.556   2.119  0.5974  0.9476  0.0564
  153MOL0     H20611   7.471   7.444   2.142 -1.6241  0.4818 -1.3786
  153MOL0     H20612   7.522   7.353   1.992 -0.0349 -0.2447 -2.1117
  153MOL0     H20613   7.374   7.521   1.930  1.0641 -2.7637  1.5384
  153MOL0     H20614   7.525   7.580   1.875  0.0836  1.1717  0.3017
  153MOL0     H20615   7.569   7.799   1.848  2.6198  0.9108  2.7110
  153MOL0     H20616   7.527   8.032   1.779  0.7117  2.6046  1.9746
  153MOL0     H20617   7.000   8.331   2.014  0.8848  0.3166  0.3553
  153MOL0     H20618   6.846   8.490   1.925 -0.2575 -3.7522  0.6101
  153MOL0     H20619   6.774   8.706   1.830  0.4088 -1.2551  0.4264
  153MOL0     H20620   6.939   8.759   1.887  2.6861 -2.4213 -2.2044
  153MOL0     H20621   6.933   8.910   1.676  0.5557  1.5131  2.0886
  153MOL0     H20622   6.753   8.899   1.681 -0.4415 -0.7267 -1.0190
  153MOL0     H20623   6.775   9.074   1.813  0.9284  1.3981 -0.1235
  153MOL0     H20624   6.782   8.950   1.929  1.4987  2.8773  2.5405
  153MOL0     H20625   7.050   8.976   1.841  1.4383 -0.8117  1.6000
  153MOL0     H20626   6.974   9.000   2.007  1.6245  1.2358 -0.1115
  153MOL0     H20627   6.918   9.213   1.959  0.2186 -1.0496  0.5938
  153MOL0     H20628   6.974   9.206   1.790  1.0220 -0.8288 -0.3119
  153MOL0     H20629   7.161   9.189   2.030  2.9008  0.3543 -0.1575
  153MOL0     H20630   7.200   9.167   1.856 -0.5519  0.0534 -1.2718
  153MOL0     H20631   7.091   9.423   2.000  0.8020 -0.0120 -0.2299
  153MOL0     H20632   7.121   9.416   1.834  2.1916  0.5190 -0.1753
  153MOL0     H20633   7.278   9.524   1.968  0.6429 -0.2490 -2.7749
  153MOL0     H20634   7.336   9.375   2.041  1.3630  1.6400  0.4948
  153MOL0     H20635   7.126   8.570   1.591  0.1605  0.2081  0.0641
  153MOL0     H20636   7.251   8.382   1.677 -0.4114  0.8839 -0.4578
  153MOL0     H20637   7.213   8.049   2.074  0.5318  0.3224  0.0352
  153MOL0     H20638   7.255   7.813   2.132  0.2403 -1.4352  0.2064
  153MOL0     H20639   8.904   6.841   1.734  0.8788  1.6437 -0.2196
  153MOL0     H20640   9.087   6.754   1.590 -0.6328  0.7904  0.5747
  153MOL0     H20641   9.569   6.609   1.689 -3.8233 -2.3820  0.5292
  153MOL0     H20642   9.775   6.486   1.630  1.6409  0.4426 -0.6695
  153MOL0     H20643   9.971   6.536   1.368 -0.8441  0.7962 -0.5127
  153MOL0     H20644   9.884   6.471   1.228  2.3830 -0.0808 -1.0218
  153MOL0     H20645  10.113   6.406   1.237  1.0927  1.2456  2.6536
  153MOL0     H20646   9.999   6.272   1.234 -2.7347 -0.9136  0.0887
  153MOL0     H20647  10.198   6.250   1.369 -1.3060  1.7836 -2.9172
  153MOL0     H20648  10.044   6.224   1.460 -2.1580  1.3025  0.7977
  153MOL0     H20649  10.202   6.468   1.437 -2.2706 -0.7579 -1.7235
  153MOL0     H20650  10.090   6.458   1.571  0.6273  0.6755 -0.2591
  153MOL0     H20651  10.413   6.241   1.740 -2.0385 -2.1198  0.7902
  153MOL0     H20652   9.644   6.449   1.238  1.6109 -0.5342 -0.0668
  153MOL0     H20653   9.400   6.684   1.245 -1.4499 -0.2093  0.3039
  153MOL0     H20654   9.442   6.519   1.174  1.3240  1.3862 -0.4920
  153MOL0     H20655   9.303   6.537   1.280 -0.4380 -1.7258 -1.1585
  154MOL0     O20656   1.515   9.204   5.164  0.7151 -0.9630 -0.3041
  154MOL0     C20657   1.587   9.304   5.129 -0.0849 -0.3089 -0.6894
  154MOL0     O20658   1.644   9.319   5.003  0.4084  0.4897  0.8223
  154MOL0     C20659   1.633   9.218   4.907  0.2274  0.6322 -0.1167
  154MOL0     C20660   1.662   9.084   4.934 -0.7058  0.7488 -0.0110
  154MOL0     C20661   1.665   8.988   4.826  0.7485 -0.6413 -0.5553
  154MOL0     C20662   1.658   9.034   4.692  0.2645 -1.3978  0.0222
  154MOL0     O20663   1.681   8.951   4.588  0.3092  0.3084  0.3590
  154MOL0     C20664   1.782   8.859   4.609 -1.3069  0.3034  0.4959
  154MOL0     C20665   1.846   8.828   4.462 -1.0414 -0.5927  0.6778
  154MOL0     C20666   1.976   8.917   4.424  0.2495 -0.2247  0.3705
  154MOL0     C20667   2.029   8.884   4.282 -0.4556  0.6930 -0.3195
  154MOL0     C20668   2.129   8.988   4.240 -0.0513 -0.1102 -1.1618
  154MOL0     C20669   2.171   8.944   4.106 -0.0414  0.1578  0.4188
  154MOL0     C20670   2.278   9.021   4.037 -0.4121  0.0383 -0.6231
  154MOL0     C20671   2.247   9.174   4.029  0.3911  0.2868 -0.0035
  154MOL0     N20672   2.107   9.200   3.981 -0.2929  0.0670 -0.2246
  154MOL0     C20673   2.029   9.153   3.874 -0.4500  0.0817 -0.4617
  154MOL0     C20674   1.901   9.194   3.908 -0.1314  0.1716 -0.1727
  154MOL0     C20675   1.772   9.172   3.826 -0.7696  0.6046  0.0605
  154MOL0     C20676   1.742   9.022   3.820 -0.4045 -0.7875  0.0196
  154MOL0     C20677   1.747   8.949   3.950  0.1122  0.0454  0.1453
  154MOL0     C20678   1.667   8.818   3.939  0.8030 -0.5610  0.1028
  154MOL0     O20679   1.702   8.734   4.050  0.4426 -0.9290  0.3661
  154MOL0     C20680   1.828   8.677   4.061  0.1864 -0.3545 -0.0689
  154MOL0     C20681   1.851   8.608   4.171 -0.1574 -0.4453 -1.0204
  154MOL0     C20682   1.974   8.555   4.205  0.3907 -0.3057  0.3149
  154MOL0     C20683   2.065   8.536   4.100  0.1817 -0.4933 -0.9273
  154MOL0     C20684   2.167   8.442   4.117  0.3023  0.2195  1.0182
  154MOL0     O20685   2.151   8.345   4.214 -0.1256  0.1061  0.0993
  154MOL0     C20686   2.223   8.226   4.193  0.0227 -0.8688 -0.7911
  154MOL0     C20687   2.218   8.144   4.086  0.4781  0.2827 -0.1750
  154MOL0     C20688   2.298   8.028   4.069  0.3212 -0.4685 -0.4603
  154MOL0     C20689   2.389   7.995   4.174  0.5099 -0.2652  1.0493
  154MOL0     O20690   2.467   7.887   4.179 -0.4141 -0.0544  0.4745
  154MOL0     C20691   2.536   7.840   4.067  0.2583  0.1314  0.2554
  154MOL0     C20692   2.636   7.744   4.126 -0.2412  0.3444  0.7569
  154MOL0     C20693   2.732   7.705   4.008  0.1311 -0.0556 -0.6901
  154MOL0     C20694   2.868   7.661   4.066  0.1332  0.1268  0.6950
  154MOL0     C20695   2.962   7.643   3.952 -0.8894  0.0059  0.7135
  154MOL0     C20696   3.099   7.603   4.014 -0.6198 -0.1296  0.5531
  154MOL0     C20697   3.207   7.579   3.906  0.5534 -0.1596  1.8351
  154MOL0     C20698   3.343   7.543   3.959 -0.0952  1.0389  0.1916
  154MOL0    Cl20699   3.444   7.518   3.812  0.0891  0.1688 -0.2552
  154MOL0     C20700   2.395   8.076   4.287  1.1992  1.2429  0.1942
  154MOL0     C20701   2.294   8.176   4.304 -0.6404 -0.3537  0.8520
  154MOL0     O20702   2.255   8.441   4.031 -0.1206  0.0240 -0.3738
  154MOL0     C20703   2.035   8.602   3.974 -0.5379  0.9495 -0.8070
  154MOL0     C20704   1.916   8.666   3.954 -0.2185 -0.3119  0.1473
  154MOL0     N20705   1.902   9.268   4.016 -0.7766  0.0389 -0.7197
  154MOL0     N20706   2.025   9.274   4.061  0.1665  0.1544  0.6161
  154MOL0     C20707   1.626   9.164   4.674 -0.3906 -0.0245  0.0246
  154MOL0     C20708   1.623   9.257   4.776  1.4865 -0.3104  0.3070
  154MOL0     C20709   1.611   9.418   5.228  0.8463 -0.0531  0.2600
  154MOL0     C20710   1.723   9.412   5.306  0.4739  0.3349 -0.1050
  154MOL0     C20711   1.743   9.502   5.408 -0.5364 -0.1423  0.2272
  154MOL0     C20712   1.644   9.593   5.441 -0.1168 -0.6134  0.0789
  154MOL0     O20713   1.657   9.688   5.545 -0.7728 -0.4954 -0.1984
  154MOL0     C20714   1.783   9.699   5.608 -1.0870  0.9938  0.0335
  154MOL0     C20715   1.785   9.802   5.722  0.9390  0.7662 -0.6465
  154MOL0     C20716   1.769   9.942   5.674 -0.5261  0.8781 -0.2126
  154MOL0     C20717   1.804  10.057   5.762 -0.7253 -0.8771 -0.6327
  154MOL0     C20718   1.701  10.082   5.869 -0.5278 -0.0667  0.9582
  154MOL0     C20719   1.613  10.088   5.949 -0.1133 -0.1588  0.0478
  154MOL0     C20720   1.525   9.589   5.373 -0.4027  0.1691 -0.2955
  154MOL0     C20721   1.506   9.505   5.263 -1.0663  0.3551 -0.5589
  154MOL0     C20722   1.390   9.532   5.176  0.5389 -0.3858  0.7904
  154MOL0     H20723   1.683   9.041   5.032  0.2507 -1.6520 -1.1854
  154MOL0     H20724   1.699   8.894   4.870  3.8335  0.3272 -0.6099
  154MOL0     H20725   1.861   8.890   4.678  1.2011  0.5736 -2.2788
  154MOL0     H20726   1.738   8.768   4.650  1.2557 -0.5231  1.6091
  154MOL0     H20727   1.773   8.836   4.380  2.6266 -0.8451 -2.9352
  154MOL0     H20728   1.870   8.721   4.467 -1.8398 -0.9662 -1.7905
  154MOL0     H20729   2.050   8.912   4.504 -0.6275 -1.4718  1.1626
  154MOL0     H20730   1.937   9.019   4.427  0.3861 -0.1472 -0.4052
  154MOL0     H20731   2.067   8.782   4.277 -3.9602 -1.2102  4.4828
  154MOL0     H20732   1.948   8.893   4.208 -0.2345  0.1267 -0.6367
  154MOL0     H20733   2.091   9.089   4.224  1.0952  0.0008 -3.6484
  154MOL0     H20734   2.212   8.981   4.311 -0.3405 -0.1973 -0.8280
  154MOL0     H20735   2.197   8.838   4.103 -1.6596 -0.2483 -1.9158
  154MOL0     H20736   2.079   8.947   4.047  1.0802 -5.1298 -2.2026
  154MOL0     H20737   2.283   8.989   3.933  3.1793  0.2671 -0.6698
  154MOL0     H20738   2.375   9.003   4.084  0.1258 -3.3092 -2.6934
  154MOL0     H20739   2.253   9.218   4.128 -0.2281  0.0062  0.1690
  154MOL0     H20740   2.318   9.208   3.953 -1.7056  0.1217 -2.1783
  154MOL0     H20741   2.050   9.089   3.789  0.3323  0.0288 -0.2376
  154MOL0     H20742   1.684   9.222   3.866 -0.3705 -0.0931  1.9168
  154MOL0     H20743   1.798   9.214   3.728 -2.2540  1.4138 -0.0004
  154MOL0     H20744   1.642   9.022   3.775 -0.2185  2.5076 -0.6308
  154MOL0     H20745   1.817   8.983   3.751  1.4024 -2.1996  2.6144
  154MOL0     H20746   1.688   9.013   4.017 -2.3597  0.3366 -2.1483
  154MOL0     H20747   1.846   8.920   3.985  0.4810  0.3222 -0.6598
  154MOL0     H20748   1.687   8.783   3.837  0.3745 -0.3664 -0.0519
  154MOL0     H20749   1.561   8.845   3.950  0.7649 -1.4770  2.5967
  154MOL0     H20750   1.769   8.622   4.241  2.4953  2.7984  1.8633
  154MOL0     H20751   1.988   8.517   4.306  1.3877 -2.8427 -0.6895
  154MOL0     H20752   2.161   8.184   4.002 -0.1504  1.4753  0.7822
  154MOL0     H20753   2.300   7.980   3.971 -1.4448  3.0492 -2.4156
  154MOL0     H20754   2.470   7.791   3.994  1.9426 -2.3442  0.2625
  154MOL0     H20755   2.589   7.926   4.024 -0.3475  1.0944  1.3646
  154MOL0     H20756   2.684   7.788   4.214  0.7394  2.8011 -0.8699
  154MOL0     H20757   2.585   7.656   4.166 -1.2311 -0.1836 -1.5142
  154MOL0     H20758   2.682   7.633   3.942 -1.1868 -0.4643  0.6949
  154MOL0     H20759   2.757   7.795   3.950  1.4792  1.7478  2.4338
  154MOL0     H20760   2.858   7.562   4.112  3.8047 -2.1811 -2.8096
  154MOL0     H20761   2.911   7.736   4.134  1.5167  0.2099 -0.2440
  154MOL0     H20762   2.980   7.726   3.883  2.1008 -2.3543 -1.6203
  154MOL0     H20763   2.908   7.568   3.895 -2.4083  0.5820  1.3333
  154MOL0     H20764   3.139   7.667   4.094 -1.6939  0.8429  0.3473
  154MOL0     H20765   3.071   7.508   4.059 -2.7605 -1.6275 -3.5207
  154MOL0     H20766   3.228   7.668   3.846  1.5121 -0.5454  1.5695
  154MOL0     H20767   3.187   7.506   3.827  0.4994  2.3063 -0.5653
  154MOL0     H20768   3.384   7.623   4.021 -0.6928  2.3590 -1.0446
  154MOL0     H20769   3.318   7.455   4.018  0.6048  0.4642 -0.3552
  154MOL0     H20770   2.467   8.060   4.367  0.9591 -2.5923 -0.1663
  154MOL0     H20771   2.279   8.221   4.402 -2.6680  1.6046 -0.2471
  154MOL0     H20772   2.099   8.584   3.888 -0.0896 -2.5530  0.1104
  154MOL0     H20773   1.893   8.701   3.854  0.7133  2.0779  0.7177
  154MOL0     H20774   1.601   9.206   4.576 -0.9216  1.3743  0.7332
  154MOL0     H20775   1.602   9.362   4.760  1.6264 -0.4284 -0.7178
  154MOL0     H20776   1.788   9.326   5.292  1.5460  0.7143  2.1910
  154MOL0     H20777   1.840   9.502   5.457 -0.6475 -0.3047  0.4436
  154MOL0     H20778   1.848   9.735   5.527  0.8434 -1.9671  0.1111
  154MOL0     H20779   1.810   9.601   5.648 -2.7991 -0.3836 -1.9976
  154MOL0     H20780   1.884   9.796   5.769 -0.1225 -0.3558  1.5812
  154MOL0     H20781   1.709   9.781   5.798  1.5342  1.0163  0.0272
  154MOL0     H20782   1.671   9.962   5.631  0.6359 -0.4762 -3.9049
  154MOL0     H20783   1.839   9.958   5.591  1.3371  1.5214  1.4209
  154MOL0     H20784   1.901  10.039   5.809  0.0052  0.2892 -1.6214
  154MOL0     H20785   1.798  10.152   5.708  0.1577  1.7040  3.3590
  154MOL0     H20786   1.542  10.096   6.029 -0.6528  2.2310 -0.5944
  154MOL0     H20787   1.446   9.660   5.397  2.1466  3.3932 -0.7589
  154MOL0     H20788   1.382   9.469   5.087 -1.6742  1.8054 -0.7075
  154MOL0     H20789   1.288   9.520   5.214  0.6372  0.7050  1.4244
  154MOL0     H20790   1.403   9.635   5.142  4.0448 -0.9830 -0.0153
  155MOL0     O20791   5.154   8.905   5.939  0.9678  0.3474  0.3904
  155MOL0     C20792   5.172   9.010   5.999  0.1297 -1.0697  0.7677
  155MOL0     O20793   5.112   9.123   5.956  0.4110 -0.7243 -0.1592
  155MOL0     C20794   5.143   9.181   5.832  1.5300 -0.1149  0.3182
  155MOL0     C20795   5.239   9.130   5.744  0.3294  0.2680 -0.2833
  155MOL0     C20796   5.267   9.197   5.626 -0.2407 -0.7286  0.3702
  155MOL0     C20797   5.190   9.310   5.580  0.3071  0.0849  0.2682
  155MOL0     O20798   5.203   9.359   5.451 -0.0686 -0.5773  0.4316
  155MOL0     C20799   5.332   9.415   5.428  0.4632 -0.6691 -0.8035
  155MOL0     C20800   5.333   9.504   5.303 -0.1894  0.4458 -0.1209
  155MOL0     C20801   5.311   9.441   5.165  0.0673  0.7189 -0.7510
  155MOL0     C20802   5.416   9.325   5.145  0.6248 -0.0845  1.0691
  155MOL0     C20803   5.393   9.233   5.032  0.0467  0.0209  0.0377
  155MOL0     C20804   5.263   9.153   5.034  0.0742 -0.2078  0.2825
  155MOL0     C20805   5.224   9.084   5.158 -0.0250  0.0691  0.3724
  155MOL0     C20806   5.309   8.977   5.209  0.1613 -0.9966 -0.6634
  155MOL0     N20807   5.338   8.879   5.107 -0.7843  0.6790 -0.5458
  155MOL0     C20808   5.243   8.797   5.048  0.3317  0.2363  0.3805
  155MOL0     C20809   5.318   8.701   4.994 -0.2180  0.0071 -0.7952
  155MOL0     C20810   5.257   8.579   4.933 -0.2622  0.6426  0.8461
  155MOL0     C20811   5.212   8.478   5.045  0.6415 -0.6856 -0.4252
  155MOL0     C20812   5.119   8.368   4.986 -0.7915 -0.1710 -0.5262
  155MOL0     C20813   5.197   8.278   4.904  0.0801  0.2271 -0.3114
  155MOL0     O20814   5.105   8.184   4.853 -0.3569  0.7552  0.1396
  155MOL0     C20815   5.176   8.075   4.803  0.1497 -0.4391  0.6570
  155MOL0     C20816   5.219   7.965   4.878  1.0066 -0.2218  0.2174
  155MOL0     C20817   5.293   7.854   4.825 -0.2276  0.1381  0.3214
  155MOL0     C20818   5.325   7.852   4.688 -1.4852  0.0601  0.6729
  155MOL0     C20819   5.415   7.739   4.631  0.2937  1.0196 -0.2195
  155MOL0     O20820   5.479   7.663   4.728  0.8377  0.9790  1.1899
  155MOL0     C20821   5.576   7.590   4.671 -0.2673 -1.0208 -0.4096
  155MOL0     C20822   5.557   7.456   4.650  1.1008  0.2870 -0.5273
  155MOL0     C20823   5.648   7.392   4.575 -0.4148  0.0951 -0.4250
  155MOL0     C20824   5.776   7.439   4.539 -0.3146  0.2013 -0.5295
  155MOL0     O20825   5.848   7.344   4.470 -0.8100 -0.1039 -0.4117
  155MOL0     C20826   5.940   7.398   4.366  0.7249 -0.4516 -0.2844
  155MOL0     C20827   6.041   7.286   4.330 -0.4020  0.5876 -0.3363
  155MOL0     C20828   6.128   7.255   4.456 -0.2676  0.5442  0.4315
  155MOL0     C20829   6.262   7.173   4.429 -0.5625  0.8053 -0.1321
  155MOL0     C20830   6.302   7.074   4.539  0.1109  0.4964  0.2842
  155MOL0     C20831   6.439   7.017   4.509  0.1823 -0.6608  0.2322
  155MOL0     C20832   6.554   7.115   4.548 -0.1370 -0.0560  0.0396
  155MOL0     C20833   6.660   7.104   4.438  0.3369  1.2404  0.2377
  155MOL0    Cl20834   6.757   6.966   4.461  0.1148  0.3101  0.1411
  155MOL0     C20835   5.799   7.577   4.569  0.6113  0.4589  0.9901
  155MOL0     C20836   5.697   7.651   4.634  0.0485  1.4582  0.7326
  155MOL0     O20837   5.433   7.718   4.509 -0.8244  0.4462 -0.0110
  155MOL0     C20838   5.287   7.962   4.615 -0.5627 -0.1457  0.2209
  155MOL0     C20839   5.207   8.067   4.666 -0.2639 -0.2467  0.9095
  155MOL0     N20840   5.456   8.714   5.022 -0.4926  0.5030  0.6312
  155MOL0     N20841   5.469   8.831   5.079 -0.7493  0.1663  0.6368
  155MOL0     C20842   5.089   9.352   5.660  0.1380  0.4599  0.0024
  155MOL0     C20843   5.075   9.298   5.788 -0.5704 -0.7610  0.4828
  155MOL0     C20844   5.273   9.021   6.113  0.9386  0.5173  0.4139
  155MOL0     C20845   5.269   9.147   6.185 -0.2437  0.7576  0.1925
  155MOL0     C20846   5.338   9.155   6.304  0.8781  0.6064 -0.9844
  155MOL0     C20847   5.425   9.055   6.347 -0.4012  0.0087 -0.1245
  155MOL0     O20848   5.491   9.075   6.464  0.0606  0.9483  0.1591
  155MOL0     C20849   5.559   8.971   6.534 -0.4531 -0.0937  0.4395
  155MOL0     C20850   5.703   8.979   6.482  0.1804  0.1104 -0.2050
  155MOL0     C20851   5.788   8.882   6.561  0.0469  0.0021 -0.1525
  155MOL0     C20852   5.937   8.899   6.544 -1.2807 -0.2773 -0.3688
  155MOL0     C20853   6.001   9.031   6.580 -0.3256 -0.2226 -0.2609
  155MOL0     C20854   6.073   9.128   6.612  0.2399  0.2563  0.6070
  155MOL0     C20855   5.441   8.941   6.269 -0.2013 -0.4278 -0.0729
  155MOL0     C20856   5.356   8.918   6.158 -0.3087  0.3323  0.9124
  155MOL0     C20857   5.367   8.791   6.093 -0.3178  0.4719  0.1185
  155MOL0     H20858   5.300   9.044   5.767  3.5240  3.1403  3.2768
  155MOL0     H20859   5.344   9.169   5.555  1.7908  2.0418  1.2645
  155MOL0     H20860   5.368   9.471   5.515  0.1863 -2.7854  0.7587
  155MOL0     H20861   5.396   9.327   5.418 -0.3194 -1.0369 -2.9688
  155MOL0     H20862   5.436   9.542   5.302  0.2177 -0.6030 -0.9950
  155MOL0     H20863   5.263   9.586   5.312 -1.8542 -0.6927 -1.8953
  155MOL0     H20864   5.328   9.527   5.099  0.0365  2.7993  1.7698
  155MOL0     H20865   5.205   9.421   5.148  0.0024  0.1283  0.2189
  155MOL0     H20866   5.516   9.369   5.136 -0.3068  1.7337 -1.9114
  155MOL0     H20867   5.420   9.267   5.238  2.8658 -1.5199  0.1434
  155MOL0     H20868   5.384   9.292   4.941 -2.1564  0.3593  0.4064
  155MOL0     H20869   5.482   9.169   5.030  0.4977  0.6573 -1.2224
  155MOL0     H20870   5.185   9.228   5.018 -1.0321 -1.7326 -2.0017
  155MOL0     H20871   5.257   9.102   4.937  0.0037  1.7155 -0.7777
  155MOL0     H20872   5.125   9.043   5.135  0.8747 -2.7076  0.9613
  155MOL0     H20873   5.214   9.150   5.244 -0.4349 -0.1640  0.5100
  155MOL0     H20874   5.403   9.027   5.235 -0.4319  0.7212 -1.6607
  155MOL0     H20875   5.256   8.928   5.291 -0.9186  0.6606 -0.3329
  155MOL0     H20876   5.137   8.816   5.035  0.1695  0.3504  1.7402
  155MOL0     H20877   5.166   8.602   4.877 -0.0490 -0.5394 -0.0363
  155MOL0     H20878   5.325   8.536   4.858  2.4291  1.3594  2.7338
  155MOL0     H20879   5.300   8.435   5.096  2.9452  3.6801 -0.2101
  155MOL0     H20880   5.153   8.534   5.118 -3.2667 -1.9063 -2.3884
  155MOL0     H20881   5.043   8.411   4.920 -0.5945  0.3307 -0.4330
  155MOL0     H20882   5.078   8.307   5.068  0.9731 -2.6528 -1.3883
  155MOL0     H20883   5.271   8.233   4.971 -2.2457 -1.5682  1.2066
  155MOL0     H20884   5.237   8.333   4.818 -0.5397  2.1577  0.5762
  155MOL0     H20885   5.186   7.985   4.980 -2.0224  1.6407 -0.9671
  155MOL0     H20886   5.334   7.771   4.881  4.7300 -0.0546 -3.0189
  155MOL0     H20887   5.462   7.407   4.667  0.1336  0.1188 -5.2273
  155MOL0     H20888   5.629   7.291   4.540  0.8256 -0.8665  1.4918
  155MOL0     H20889   5.883   7.423   4.276 -0.1840  0.9650  0.6541
  155MOL0     H20890   5.990   7.491   4.397 -1.6561  0.5280  0.8726
  155MOL0     H20891   5.995   7.200   4.279 -0.9399  1.3967 -1.2462
  155MOL0     H20892   6.101   7.333   4.252 -1.1596  1.6548 -0.2918
  155MOL0     H20893   6.151   7.352   4.500  0.1051  1.1050 -0.9464
  155MOL0     H20894   6.070   7.197   4.529  0.4264 -0.7362  0.0047
  155MOL0     H20895   6.339   7.251   4.420  0.0737  0.2710  0.6092
  155MOL0     H20896   6.252   7.121   4.334  0.8032 -1.4603  0.8821
  155MOL0     H20897   6.228   6.994   4.550 -0.6478  1.4426  2.5919
  155MOL0     H20898   6.307   7.121   4.638  1.1363  0.0750  0.4374
  155MOL0     H20899   6.455   6.930   4.573  1.1961  0.5405  1.7010
  155MOL0     H20900   6.437   6.995   4.402 -2.8280  2.2134 -0.4769
  155MOL0     H20901   6.593   7.086   4.646 -1.5577 -2.0961  0.0761
  155MOL0     H20902   6.532   7.222   4.554 -1.3466 -0.3456  1.1358
  155MOL0     H20903   6.603   7.094   4.345 -1.6414  2.8675  1.2016
  155MOL0     H20904   6.713   7.198   4.429  0.4056  1.1024 -1.1124
  155MOL0     H20905   5.883   7.625   4.520  1.7712 -1.0398  1.4107
  155MOL0     H20906   5.702   7.759   4.645  1.9316  1.6857 -1.5608
  155MOL0     H20907   5.297   7.969   4.507 -2.2865  1.5238  0.1129
  155MOL0     H20908   5.172   8.137   4.591  0.7897 -1.1712 -0.5154
  155MOL0     H20909   5.031   9.434   5.620 -0.7477 -0.8123 -1.4487
  155MOL0     H20910   5.003   9.348   5.852 -1.4837 -0.2134 -0.9390
  155MOL0     H20911   5.220   9.241   6.160  0.0918  0.8065 -0.2939
  155MOL0     H20912   5.324   9.243   6.366 -2.2008 -1.1975  1.1305
  155MOL0     H20913   5.509   8.875   6.519  1.1053 -1.4177  3.0203
  155MOL0     H20914   5.574   8.969   6.642  0.3392  0.5497  0.3494
  155MOL0     H20915   5.735   9.082   6.497  0.9332  0.1040 -1.5859
  155MOL0     H20916   5.718   8.960   6.375  0.7002  1.0291 -0.3058
  155MOL0     H20917   5.759   8.779   6.539  2.0379 -0.3793 -1.2897
  155MOL0     H20918   5.759   8.869   6.666 -2.8456  0.1241 -0.8679
  155MOL0     H20919   6.002   8.829   6.597  0.6119  2.6795  1.5676
  155MOL0     H20920   5.949   8.891   6.436  0.6455 -1.4471 -0.1218
  155MOL0     H20921   6.133   9.206   6.656  1.6361 -1.4072  1.7678
  155MOL0     H20922   5.510   8.866   6.305  2.3063  1.8716  0.1739
  155MOL0     H20923   5.449   8.730   6.132 -1.5140  1.2131  4.2955
  155MOL0     H20924   5.276   8.731   6.106 -0.0307 -0.5199 -2.0005
  155MOL0     H20925   5.381   8.812   5.987 -0.4998 -1.6701 -0.3753
  156MOL0     O20926   5.622   3.755   4.343  0.5832 -0.7138 -0.1434
  156MOL0     C20927   5.647   3.807   4.237 -0.6726 -0.0668  0.9119
  156MOL0     O20928   5.562   3.880   4.160  0.4669  0.2099  0.1725
  156MOL0     C20929   5.428   3.886   4.197 -0.4053 -0.1486  0.2546
  156MOL0     C20930   5.379   3.931   4.325 -0.0310  0.1496 -0.5212
  156MOL0     C20931   5.244   3.925   4.360 -0.7365 -0.0160 -0.4691
  156MOL0     C20932   5.152   3.877   4.278  0.2483  0.7040  0.9565
  156MOL0     O20933   5.021   3.878   4.326 -0.2854 -0.2813  0.6330
  156MOL0     C20934   4.913   3.850   4.241  0.3852 -0.2919 -0.2819
  156MOL0     C20935   4.793   3.938   4.282  0.5777 -0.2752 -0.5235
  156MOL0     C20936   4.817   4.086   4.275  0.3066  0.8298 -1.3600
  156MOL0     C20937   4.700   4.159   4.338 -0.5970 -0.0537  0.2520
  156MOL0     C20938   4.677   4.305   4.307 -0.2939  0.1356 -0.7041
  156MOL0     C20939   4.543   4.350   4.368 -1.6384 -0.2625  0.4675
  156MOL0     C20940   4.422   4.327   4.267  0.3771 -0.3317 -0.4635
  156MOL0     C20941   4.277   4.332   4.322 -0.7040 -0.8443 -0.4892
  156MOL0     N20942   4.258   4.259   4.452  0.2328  0.2178  0.2163
  156MOL0     C20943   4.168   4.156   4.469  0.2668 -0.6535  0.1885
  156MOL0     C20944   4.124   4.163   4.595  0.2494 -0.3510  0.3425
  156MOL0     C20945   4.024   4.085   4.675 -0.0577  0.5466  0.4952
  156MOL0     C20946   3.930   4.173   4.768 -0.3059 -1.0698  0.6269
  156MOL0     C20947   3.853   4.293   4.698 -0.6141  0.2151 -0.1146
  156MOL0     C20948   3.801   4.257   4.558 -0.2632  0.3450 -0.6375
  156MOL0     O20949   3.691   4.338   4.513  0.1362  0.5575 -0.5698
  156MOL0     C20950   3.616   4.285   4.409  0.0838 -0.0835  0.4509
  156MOL0     C20951   3.609   4.150   4.358 -0.1095  0.2917 -0.3595
  156MOL0     C20952   3.533   4.138   4.242 -0.2619 -0.5079  0.5070
  156MOL0     C20953   3.490   4.243   4.163 -0.3541 -0.0417 -0.1427
  156MOL0     C20954   3.427   4.230   4.025  0.7002 -0.3243 -0.1979
  156MOL0     O20955   3.452   4.111   3.968  0.0992  0.4175 -0.3893
  156MOL0     C20956   3.456   4.096   3.835 -0.0104  0.9291 -0.4206
  156MOL0     C20957   3.409   3.977   3.775  0.3326  0.2824  0.0039
  156MOL0     C20958   3.411   3.945   3.644 -0.9855  0.0468  0.1448
  156MOL0     C20959   3.480   4.022   3.556 -0.5566  0.5496 -0.6828
  156MOL0     O20960   3.489   3.973   3.430 -0.4118  0.6792 -0.6609
  156MOL0     C20961   3.517   4.068   3.335 -0.1150  0.1348  0.3559
  156MOL0     C20962   3.543   4.010   3.198  0.6985 -0.4716 -0.3452
  156MOL0     C20963   3.673   3.943   3.158 -0.0672 -0.2574  1.0301
  156MOL0     C20964   3.661   3.915   2.997  0.3739  0.4793 -0.3503
  156MOL0     C20965   3.804   3.892   2.951 -0.6873 -0.2600  0.3345
  156MOL0     C20966   3.866   3.757   2.998  0.2810 -0.6757 -0.5034
  156MOL0     C20967   4.023   3.762   2.980  0.5089 -1.1442 -1.1378
  156MOL0     C20968   4.090   3.781   2.844 -1.1755  0.0615 -0.7745
  156MOL0    Cl20969   4.109   3.952   2.792 -0.1473 -0.1163  0.4321
  156MOL0     C20970   3.547   4.139   3.608 -0.5063  0.1889 -0.6726
  156MOL0     C20971   3.540   4.170   3.746 -0.5314 -0.0287  0.0874
  156MOL0     O20972   3.368   4.326   3.973  0.5055  0.7776  0.1436
  156MOL0     C20973   3.506   4.367   4.213 -0.2244  0.0624 -0.1669
  156MOL0     C20974   3.570   4.396   4.331  0.1279  0.9814  0.3656
  156MOL0     N20975   4.200   4.263   4.665  0.4234  0.2171  0.0711
  156MOL0     N20976   4.275   4.317   4.574 -0.0516 -0.3706  0.7310
  156MOL0     C20977   5.201   3.824   4.153  0.4809  0.4206 -0.1844
  156MOL0     C20978   5.337   3.835   4.113 -0.3874  0.1943 -0.0806
  156MOL0     C20979   5.787   3.797   4.190 -1.1252  0.3058  0.5807
  156MOL0     C20980   5.897   3.809   4.286  0.3280  0.4284 -0.6139
  156MOL0     C20981   6.027   3.808   4.250 -0.0953  0.3612 -0.3877
  156MOL0     C20982   6.070   3.792   4.118  0.0068 -0.3735  0.7068
  156MOL0     O20983   6.207   3.780   4.087  1.0726 -0.3202 -0.4591
  156MOL0     C20984   6.251   3.753   3.946 -0.0325 -0.1965  0.3384
  156MOL0     C20985   6.391   3.806   3.924  0.6319 -0.0867 -0.1128
  156MOL0     C20986   6.449   3.774   3.781 -0.0201 -0.8823 -0.2881
  156MOL0     C20987   6.572   3.863   3.749 -0.0801  0.4708  0.0069
  156MOL0     C20988   6.537   4.002   3.715 -1.2282  0.4570  0.2179
  156MOL0     C20989   6.503   4.119   3.690 -0.9720  0.8799  0.7316
  156MOL0     C20990   5.961   3.769   4.022 -0.1132 -0.2100  0.9383
  156MOL0     C20991   5.825   3.781   4.051  0.4964  0.4442 -0.4835
  156MOL0     C20992   5.723   3.746   3.942 -0.7350  0.1521 -0.0982
  156MOL0     H20993   5.444   3.978   4.398  0.3797 -0.5942 -0.4023
  156MOL0     H20994   5.232   3.949   4.465 -0.8602 -0.1193 -0.4596
  156MOL0     H20995   4.925   3.858   4.133 -1.9642 -0.3983 -0.6115
  156MOL0     H20996   4.898   3.741   4.242  2.9572 -0.7138  1.5613
  156MOL0     H20997   4.761   3.899   4.379 -0.6957  1.8820 -0.0119
  156MOL0     H20998   4.706   3.921   4.219 -0.3786  2.1890 -0.0094
  156MOL0     H20999   4.831   4.113   4.169  4.4789  4.0481 -0.2855
  156MOL0     H21000   4.913   4.114   4.320 -1.0071 -0.4761  2.6630
  156MOL0     H21001   4.606   4.111   4.308 -1.4493  0.8688  1.3693
  156MOL0     H21002   4.713   4.141   4.445 -1.6521  0.6133  0.5021
  156MOL0     H21003   4.754   4.354   4.366  0.3985 -2.0926  0.3646
  156MOL0     H21004   4.690   4.334   4.202 -0.7215  2.8577 -0.0867
  156MOL0     H21005   4.528   4.297   4.462  0.3858 -0.8576  0.5019
  156MOL0     H21006   4.564   4.456   4.385  1.6950 -1.1584  2.8280
  156MOL0     H21007   4.436   4.226   4.227 -0.2059 -1.6067  2.2778
  156MOL0     H21008   4.413   4.403   4.189  1.9963  0.4167  0.0536
  156MOL0     H21009   4.265   4.438   4.347 -0.4782 -0.1751 -3.0284
  156MOL0     H21010   4.202   4.304   4.248 -0.9741  1.6450 -1.2562
  156MOL0     H21011   4.115   4.090   4.401 -1.1674 -0.7331  1.3172
  156MOL0     H21012   3.960   4.029   4.605  0.8754 -0.5655  0.4999
  156MOL0     H21013   4.074   4.012   4.739 -0.4452  0.2413  0.4552
  156MOL0     H21014   3.851   4.108   4.809 -1.1801 -0.0471  0.6149
  156MOL0     H21015   3.985   4.219   4.851  4.4354 -1.6325 -1.8712
  156MOL0     H21016   3.926   4.373   4.682  0.1595 -0.4979 -0.2416
  156MOL0     H21017   3.778   4.333   4.767 -0.4784  3.0978 -1.5112
  156MOL0     H21018   3.764   4.155   4.567 -0.8763  0.6391  0.3346
  156MOL0     H21019   3.890   4.271   4.495 -0.5662  2.4853 -0.6610
  156MOL0     H21020   3.650   4.067   4.415  0.8335 -0.1122 -1.5865
  156MOL0     H21021   3.503   4.039   4.209 -2.2578 -0.0391  0.8365
  156MOL0     H21022   3.364   3.897   3.831 -1.2581 -2.1856 -4.3004
  156MOL0     H21023   3.388   3.846   3.607 -0.9477 -0.8300  2.3581
  156MOL0     H21024   3.424   4.126   3.325 -1.1562 -0.4675  4.6360
  156MOL0     H21025   3.604   4.131   3.358 -0.4379  0.6682  0.1372
  156MOL0     H21026   3.458   3.941   3.200 -1.3512  1.9175  0.9131
  156MOL0     H21027   3.515   4.084   3.122  1.9102  0.6437  0.2675
  156MOL0     H21028   3.751   4.018   3.171 -0.9523  0.7094  0.9077
  156MOL0     H21029   3.697   3.854   3.216  1.1928 -1.7545 -1.6173
  156MOL0     H21030   3.626   3.995   2.930 -0.2540  0.1437 -0.4283
  156MOL0     H21031   3.586   3.836   2.984  0.1078  0.2999  1.7925
  156MOL0     H21032   3.867   3.972   2.990 -0.5759 -0.6249  0.9156
  156MOL0     H21033   3.808   3.902   2.842  1.3463  3.1177  0.5748
  156MOL0     H21034   3.837   3.727   3.099  3.1576  0.6251  0.8492
  156MOL0     H21035   3.822   3.687   2.926  0.9469 -1.0439 -0.5661
  156MOL0     H21036   4.049   3.661   3.014 -1.0643 -1.7548 -1.6297
  156MOL0     H21037   4.066   3.823   3.060 -0.6947  0.4538 -1.6582
  156MOL0     H21038   4.187   3.730   2.844 -0.6640  0.9939 -1.8597
  156MOL0     H21039   4.044   3.723   2.765  1.1807 -2.0792 -0.7069
  156MOL0     H21040   3.615   4.205   3.555  1.7925  0.4870  2.3939
  156MOL0     H21041   3.597   4.248   3.796 -1.8735  1.3336 -0.4433
  156MOL0     H21042   3.463   4.450   4.157  1.6477 -1.5628 -4.3982
  156MOL0     H21043   3.580   4.496   4.370  1.5025  0.6600  0.9041
  156MOL0     H21044   5.124   3.790   4.085  1.1524 -1.0199 -0.2596
  156MOL0     H21045   5.387   3.798   4.024  1.3881  2.0383  0.0797
  156MOL0     H21046   5.867   3.835   4.387 -0.7246  0.2071 -0.8502
  156MOL0     H21047   6.091   3.839   4.332  0.7600  1.4563 -1.4268
  156MOL0     H21048   6.192   3.793   3.863  0.0935 -0.6335  0.0409
  156MOL0     H21049   6.253   3.646   3.925  3.4813  0.3137 -2.9336
  156MOL0     H21050   6.463   3.759   3.992  1.5166 -0.9176 -1.5710
  156MOL0     H21051   6.393   3.915   3.938 -3.2546  0.4212 -2.2121
  156MOL0     H21052   6.361   3.792   3.719 -1.3349 -0.2719  1.6553
  156MOL0     H21053   6.493   3.674   3.774  1.2608 -0.4567  1.1444
  156MOL0     H21054   6.642   3.872   3.832 -1.5587  1.7702  1.1801
  156MOL0     H21055   6.625   3.822   3.662  1.2672 -1.0087  1.4713
  156MOL0     H21056   6.480   4.224   3.691 -4.1155  0.2872  1.0982
  156MOL0     H21057   5.991   3.742   3.921  0.5894  2.4278  0.3640
  156MOL0     H21058   5.744   3.648   3.897  1.5534  1.1002 -1.2304
  156MOL0     H21059   5.621   3.739   3.980 -1.0547  1.3448 -0.6881
  156MOL0     H21060   5.721   3.817   3.860 -0.4668 -4.0590 -4.1380
  157MOL0     O21061   7.297  10.694   8.620  0.0512 -0.2683  0.3208
  157MOL0     C21062   7.172  10.700   8.636  0.1925 -0.6215  0.5232
  157MOL0     O21063   7.100  10.642   8.743 -0.2131  0.0208  0.2243
  157MOL0     C21064   7.168  10.566   8.824  0.3389  1.0932 -0.4095
  157MOL0     C21065   7.153  10.422   8.829  0.2787  0.4808  0.3955
  157MOL0     C21066   7.227  10.355   8.925 -0.5843 -0.6407 -0.5913
  157MOL0     C21067   7.334  10.418   8.999 -0.0873 -0.7756  1.1567
  157MOL0     O21068   7.424  10.343   9.066 -0.1723  0.3736  0.1764
  157MOL0     C21069   7.365  10.244   9.159  0.0514 -0.2958  0.9774
  157MOL0     C21070   7.472  10.140   9.198  0.1034  1.3096  0.0803
  157MOL0     C21071   7.518  10.072   9.063 -0.0560 -0.2421 -0.3776
  157MOL0     C21072   7.623   9.962   9.077 -0.0553 -0.0119  0.5622
  157MOL0     C21073   7.664   9.900   8.942  0.5342  0.0483 -0.4385
  157MOL0     C21074   7.557   9.860   8.840 -0.0108  0.0850  0.0183
  157MOL0     C21075   7.614   9.803   8.715 -0.3722  0.2607 -0.6170
  157MOL0     C21076   7.702   9.894   8.624  0.0529  0.0360  0.0179
  157MOL0     N21077   7.615   9.982   8.556 -0.2443  0.0914  1.4588
  157MOL0     C21078   7.581  10.119   8.576  0.0068  0.4465 -0.2795
  157MOL0     C21079   7.485  10.142   8.486 -0.0631  0.4261 -0.7861
  157MOL0     C21080   7.404  10.261   8.463 -0.1552 -0.5397  0.2686
  157MOL0     C21081   7.270  10.231   8.515  0.3051 -0.8224 -0.3646
  157MOL0     C21082   7.150  10.311   8.444 -0.8009 -0.0146  0.4445
  157MOL0     C21083   7.013  10.246   8.458 -0.5553  0.0294  0.1591
  157MOL0     O21084   6.951  10.293   8.569 -0.6168  0.1672 -0.4835
  157MOL0     C21085   6.823  10.258   8.597  0.6037 -0.4278 -0.4244
  157MOL0     C21086   6.746  10.167   8.521  0.3845 -0.5327  0.2144
  157MOL0     C21087   6.619  10.136   8.573  0.4371  0.2263 -0.3966
  157MOL0     C21088   6.572  10.178   8.700 -0.2437  0.4247  0.7726
  157MOL0     C21089   6.443  10.138   8.751 -0.3816  0.5772  0.0640
  157MOL0     O21090   6.369  10.041   8.681  0.0849 -0.2608 -0.1322
  157MOL0     C21091   6.232  10.043   8.702  0.9259  0.3771 -0.4450
  157MOL0     C21092   6.147  10.045   8.596  0.8576 -0.0960  0.5599
  157MOL0     C21093   6.011  10.033   8.617  0.5422  0.7109 -0.6286
  157MOL0     C21094   5.956   9.999   8.735  0.3821 -0.8066 -0.2774
  157MOL0     O21095   5.824   9.967   8.770  0.5229  0.0959 -0.4106
  157MOL0     C21096   5.740   9.921   8.656  0.4696 -0.6139 -0.4318
  157MOL0     C21097   5.637   9.808   8.698  0.5212  0.5026  0.2161
  157MOL0     C21098   5.561   9.782   8.568  1.2359  0.8448 -0.5602
  157MOL0     C21099   5.457   9.665   8.595 -0.1916 -0.7617  0.8335
  157MOL0     C21100   5.512   9.537   8.635 -0.9888 -0.2608  0.1023
  157MOL0     C21101   5.404   9.424   8.616 -0.9522  0.1890  0.5907
  157MOL0     C21102   5.479   9.293   8.609 -0.5177 -0.6083  0.7573
  157MOL0     C21103   5.390   9.180   8.579 -0.2718  0.2086  0.4827
  157MOL0    Cl21104   5.496   9.043   8.521  0.3781  0.0964 -0.4438
  157MOL0     C21105   6.044   9.997   8.850 -0.0621  0.6810  0.0114
  157MOL0     C21106   6.180  10.019   8.826 -0.4816 -0.0315 -0.4116
  157MOL0     O21107   6.402  10.199   8.849 -0.1129 -0.2775  0.7232
  157MOL0     C21108   6.652  10.274   8.761  0.0338  0.2187  0.4119
  157MOL0     C21109   6.773  10.316   8.712 -0.0108 -0.6888 -0.0239
  157MOL0     N21110   7.455  10.027   8.418  0.5873 -0.2489  0.2964
  157MOL0     N21111   7.524   9.932   8.460  0.4202  0.3135 -0.1538
  157MOL0     C21112   7.332  10.561   9.011  0.0197  0.2388  0.3540
  157MOL0     C21113   7.253  10.630   8.919  1.0346 -0.0687  0.6423
  157MOL0     C21114   7.091  10.774   8.534  0.5062  0.5372  0.5143
  157MOL0     C21115   7.144  10.779   8.409  0.5461 -1.4274 -0.1419
  157MOL0     C21116   7.076  10.820   8.302 -0.0920 -1.9130 -1.4838
  157MOL0     C21117   6.937  10.855   8.314  0.2012  0.4647 -0.9862
  157MOL0     O21118   6.872  10.880   8.199 -0.7474 -0.2673 -0.1256
  157MOL0     C21119   6.732  10.853   8.196  0.2195  0.0513  0.2770
  157MOL0     C21120   6.631  10.965   8.229 -0.1312 -0.2258 -0.7238
  157MOL0     C21121   6.667  11.088   8.152 -0.6727 -0.2321  0.1732
  157MOL0     C21122   6.542  11.166   8.110  0.8659 -0.5037 -0.1523
  157MOL0     C21123   6.563  11.300   8.069 -0.7269 -0.7732  0.0275
  157MOL0     C21124   6.585  11.417   8.051 -0.4603  0.4193 -0.7173
  157MOL0     C21125   6.877  10.850   8.444 -1.0364 -0.6474 -0.5404
  157MOL0     C21126   6.954  10.812   8.553 -0.3787 -1.2916 -0.3147
  157MOL0     C21127   6.900  10.850   8.692 -0.4718 -0.2866  1.1901
  157MOL0     H21128   7.091  10.371   8.757  3.1112  0.8403 -2.5216
  157MOL0     H21129   7.222  10.247   8.934 -0.3002 -0.4967  2.0146
  157MOL0     H21130   7.344  10.289   9.256  4.4312  0.0696  1.9574
  157MOL0     H21131   7.283  10.188   9.114  3.5031 -2.9299 -2.8029
  157MOL0     H21132   7.436  10.062   9.266 -3.1073  0.8172 -1.9776
  157MOL0     H21133   7.556  10.197   9.238  3.1375 -1.2044 -2.1271
  157MOL0     H21134   7.566  10.155   9.011 -0.3003  0.6723  0.8021
  157MOL0     H21135   7.434  10.047   8.998  1.2728  2.3977 -3.3628
  157MOL0     H21136   7.709  10.014   9.119  3.0262 -2.5064 -2.0852
  157MOL0     H21137   7.602   9.889   9.156  1.6748  0.4262  1.4515
  157MOL0     H21138   7.725   9.978   8.895 -1.4173  1.7059 -0.3452
  157MOL0     H21139   7.736   9.823   8.970 -0.8061 -0.9302  0.3899
  157MOL0     H21140   7.485   9.790   8.884  0.6411 -0.5861  0.0461
  157MOL0     H21141   7.504   9.949   8.806 -2.1305 -0.7618  0.8909
  157MOL0     H21142   7.527   9.761   8.663 -1.4077  0.1179  1.1358
  157MOL0     H21143   7.676   9.717   8.741 -1.1381  0.4705  2.2466
  157MOL0     H21144   7.785   9.945   8.674 -0.0532 -1.1093  1.4247
  157MOL0     H21145   7.753   9.836   8.546  2.2253  2.3214 -0.3832
  157MOL0     H21146   7.623  10.186   8.650 -2.4491  0.9236  0.7755
  157MOL0     H21147   7.444  10.355   8.501  1.0311 -1.2142  0.7517
  157MOL0     H21148   7.388  10.280   8.357 -0.1544  3.2800  0.8184
  157MOL0     H21149   7.254  10.127   8.485  3.4609 -2.1452  1.9453
  157MOL0     H21150   7.262  10.241   8.624 -4.1493  1.3275 -0.6478
  157MOL0     H21151   7.176  10.320   8.338  3.3706  1.8829  1.4249
  157MOL0     H21152   7.131  10.411   8.485  0.1667  0.6908 -0.7597
  157MOL0     H21153   7.020  10.138   8.470 -0.0199  0.1173  0.6584
  157MOL0     H21154   6.956  10.270   8.368  1.0105 -0.1547 -0.9267
  157MOL0     H21155   6.776  10.122   8.427 -4.2085 -0.9262 -1.3427
  157MOL0     H21156   6.562  10.067   8.510  0.2926 -2.0002  2.0101
  157MOL0     H21157   6.185  10.064   8.497 -0.8912  0.8787  0.0264
  157MOL0     H21158   5.954  10.035   8.524 -1.3337  3.9882  0.4466
  157MOL0     H21159   5.684  10.009   8.623  3.5690  1.5601 -0.3718
  157MOL0     H21160   5.803   9.884   8.575  2.0328  0.7857  0.0863
  157MOL0     H21161   5.691   9.716   8.723 -0.5798 -0.6502 -1.4573
  157MOL0     H21162   5.587   9.840   8.790  0.1562 -1.9702  0.9590
  157MOL0     H21163   5.508   9.872   8.538 -3.5457 -1.1645  0.8893
  157MOL0     H21164   5.627   9.753   8.486 -0.4772 -1.7257 -1.1329
  157MOL0     H21165   5.389   9.644   8.512 -1.7754 -1.0198  2.1417
  157MOL0     H21166   5.395   9.701   8.677  0.6992  5.9198 -0.8429
  157MOL0     H21167   5.544   9.538   8.740 -1.8785  1.8830  0.4068
  157MOL0     H21168   5.599   9.518   8.570 -0.7301 -3.3076  1.1696
  157MOL0     H21169   5.328   9.436   8.694 -2.0433  1.0430 -0.5588
  157MOL0     H21170   5.348   9.432   8.522  0.2950  0.1716 -0.1796
  157MOL0     H21171   5.531   9.275   8.703  1.2765 -2.2462 -0.4961
  157MOL0     H21172   5.549   9.299   8.526 -0.1466 -2.0066  0.9616
  157MOL0     H21173   5.340   9.142   8.669 -1.4782  0.2274 -0.1500
  157MOL0     H21174   5.308   9.193   8.508 -1.0048  0.4098  1.3541
  157MOL0     H21175   6.000   9.972   8.946  2.8007 -2.2619  0.7220
  157MOL0     H21176   6.240  10.005   8.915 -1.1145  2.1045  0.4111
  157MOL0     H21177   6.619  10.327   8.850  0.8694 -1.2562  1.6614
  157MOL0     H21178   6.835  10.389   8.763 -0.5561 -1.7516  2.2788
  157MOL0     H21179   7.409  10.593   9.081 -0.3295  2.4189 -0.1721
  157MOL0     H21180   7.251  10.738   8.930  1.4080  0.2808 -2.0244
  157MOL0     H21181   7.245  10.745   8.389  1.7346  1.6421  0.0314
  157MOL0     H21182   7.120  10.832   8.204  0.0989  2.6981 -1.0765
  157MOL0     H21183   6.707  10.763   8.252  0.1514  0.3592  0.7448
  157MOL0     H21184   6.702  10.840   8.091  2.0676  0.3623 -0.3434
  157MOL0     H21185   6.623  10.987   8.336 -1.4150  1.3086 -1.0927
  157MOL0     H21186   6.528  10.930   8.216 -0.5753 -1.7387  4.6832
  157MOL0     H21187   6.713  11.069   8.055  0.6469  1.3431  0.4585
  157MOL0     H21188   6.731  11.144   8.221  0.8162 -2.1534  0.4349
  157MOL0     H21189   6.491  11.113   8.029  3.6416 -0.7732 -1.8222
  157MOL0     H21190   6.472  11.162   8.195  0.9450 -0.9061 -0.1082
  157MOL0     H21191   6.602  11.521   8.031  1.6490  0.3685  0.4887
  157MOL0     H21192   6.776  10.880   8.466 -0.6393 -1.5755  3.2194
  157MOL0     H21193   6.822  10.926   8.690 -0.7711 -0.2704  5.1169
  157MOL0     H21194   6.860  10.757   8.733 -2.4142 -2.4754 -4.7252
  157MOL0     H21195   6.986  10.885   8.751 -1.2487 -1.5548  3.1854
  158MOL0     O21196   1.906   3.885   4.405  0.0706  0.0243 -0.0286
  158MOL0     C21197   1.783   3.905   4.409  0.0545  0.8789 -0.7815
  158MOL0     O21198   1.729   4.019   4.417  0.2928 -0.1713 -0.1439
  158MOL0     C21199   1.793   4.136   4.384  0.4837  0.5558  0.4763
  158MOL0     C21200   1.890   4.160   4.285 -0.0910 -0.2977 -0.4611
  158MOL0     C21201   1.959   4.281   4.276  1.4256 -0.8930  0.8201
  158MOL0     C21202   1.935   4.392   4.364 -0.1901  0.8515 -0.6338
  158MOL0     O21203   2.017   4.501   4.353 -0.0160  0.7875  0.5945
  158MOL0     C21204   1.979   4.615   4.430 -0.2254 -0.2862 -0.1911
  158MOL0     C21205   2.068   4.732   4.413 -0.1096 -0.4977 -1.1075
  158MOL0     C21206   2.030   4.813   4.292  1.0124  0.6831  0.0854
  158MOL0     C21207   2.133   4.930   4.250  0.4800  0.0513 -0.2538
  158MOL0     C21208   2.276   4.891   4.214 -0.1646 -0.2379 -0.0383
  158MOL0     C21209   2.372   5.006   4.248 -0.4740  0.6089 -0.4655
  158MOL0     C21210   2.331   5.127   4.167  0.5252  0.5010 -0.2454
  158MOL0     C21211   2.428   5.250   4.195 -0.3117  0.1166  0.5739
  158MOL0     N21212   2.379   5.370   4.122  0.4658 -0.1352  0.1167
  158MOL0     C21213   2.386   5.402   3.988  0.0245  0.7650 -0.5997
  158MOL0     C21214   2.313   5.518   3.977 -0.0617  0.6911  0.2173
  158MOL0     C21215   2.280   5.568   3.840  0.1406 -0.8963  0.7079
  158MOL0     C21216   2.151   5.656   3.822  0.5827  0.4114  0.2646
  158MOL0     C21217   2.173   5.811   3.828 -0.6834  0.5711  0.2013
  158MOL0     C21218   2.249   5.847   3.957  0.5185  0.0691  0.0180
  158MOL0     O21219   2.273   5.988   3.970 -0.5299 -0.0912  0.7216
  158MOL0     C21220   2.270   6.050   4.091 -0.1381  0.3850 -0.1956
  158MOL0     C21221   2.299   6.190   4.087  0.5499 -0.3782  1.3458
  158MOL0     C21222   2.321   6.263   4.205  0.4997 -0.0774 -0.6231
  158MOL0     C21223   2.325   6.202   4.330 -0.7139 -0.0386  0.5099
  158MOL0     C21224   2.359   6.277   4.452 -0.1340  0.9602  1.1292
  158MOL0     O21225   2.320   6.207   4.563 -0.1449  0.0094  0.4493
  158MOL0     C21226   2.337   6.246   4.690 -0.1630  0.0128  0.1384
  158MOL0     C21227   2.389   6.372   4.734 -0.5751 -0.3177  0.1475
  158MOL0     C21228   2.388   6.401   4.870  0.7857  0.0924 -0.2319
  158MOL0     C21229   2.352   6.302   4.964 -0.4201  0.9236  0.3711
  158MOL0     O21230   2.351   6.339   5.099 -0.8681 -0.2183  0.4441
  158MOL0     C21231   2.217   6.349   5.151  0.4409 -0.5556 -1.0978
  158MOL0     C21232   2.168   6.493   5.142  0.3406  0.0340 -0.1089
  158MOL0     C21233   2.034   6.516   5.226  0.2798  0.3782  0.8517
  158MOL0     C21234   1.995   6.662   5.222 -0.3714  0.9006  0.8053
  158MOL0     C21235   1.872   6.706   5.309  0.3399 -0.1491 -0.2467
  158MOL0     C21236   1.915   6.705   5.457 -0.1578 -0.9219 -0.0928
  158MOL0     C21237   1.795   6.745   5.551  0.1900  0.0777  0.1491
  158MOL0     C21238   1.785   6.668   5.679  0.4579 -0.4368  0.5493
  158MOL0    Cl21239   1.639   6.737   5.765 -0.0976  0.4443  0.1330
  158MOL0     C21240   2.317   6.171   4.920  0.7460  0.0281 -0.3992
  158MOL0     C21241   2.297   6.148   4.785  0.9150 -0.3151  0.9246
  158MOL0     O21242   2.407   6.387   4.451 -0.1773 -0.0387  0.8322
  158MOL0     C21243   2.306   6.064   4.325  0.9456 -0.2767 -0.1759
  158MOL0     C21244   2.267   5.990   4.214  0.4900 -0.1139  0.2706
  158MOL0     N21245   2.278   5.560   4.107  0.1240  0.6534 -0.2967
  158MOL0     N21246   2.316   5.471   4.192  0.2154  0.1334 -0.4396
  158MOL0     C21247   1.839   4.356   4.459  0.7628 -0.5544 -0.1872
  158MOL0     C21248   1.765   4.240   4.471 -0.7262  0.6566  0.0273
  158MOL0     C21249   1.700   3.781   4.391 -0.2036  0.5113  0.5246
  158MOL0     C21250   1.652   3.700   4.498  0.1531 -0.8153  0.4343
  158MOL0     C21251   1.608   3.569   4.476 -0.6137 -0.6198 -0.7022
  158MOL0     C21252   1.575   3.527   4.347  0.6530 -0.7449 -0.2635
  158MOL0     O21253   1.518   3.404   4.335 -0.1860 -0.3963  0.2231
  158MOL0     C21254   1.489   3.367   4.199  0.6773  0.8325 -0.8074
  158MOL0     C21255   1.457   3.219   4.218 -0.0684 -0.2043  1.0227
  158MOL0     C21256   1.529   3.128   4.106 -0.3009 -0.6120  0.0109
  158MOL0     C21257   1.452   3.098   3.979 -0.5813 -1.3981  0.4014
  158MOL0     C21258   1.402   3.219   3.908  0.6593 -0.5634  0.4048
  158MOL0     C21259   1.350   3.318   3.862 -0.4966 -0.1975 -0.0787
  158MOL0     C21260   1.625   3.603   4.238 -0.3566  0.6132  0.0460
  158MOL0     C21261   1.673   3.727   4.262  0.0436 -0.5785  0.5506
  158MOL0     C21262   1.711   3.806   4.139  0.0406 -0.9198  0.5413
  158MOL0     H21263   1.902   4.079   4.214 -0.6225 -1.0313  0.2608
  158MOL0     H21264   2.029   4.295   4.194 -0.1386 -1.3540 -0.6334
  158MOL0     H21265   1.879   4.651   4.402  0.8274  0.9497 -2.5815
  158MOL0     H21266   1.979   4.589   4.537 -1.4834 -0.2301 -0.1595
  158MOL0     H21267   2.172   4.701   4.407  0.3538  0.9011 -0.7001
  158MOL0     H21268   2.056   4.800   4.497 -2.6987  1.0784 -2.6026
  158MOL0     H21269   1.931   4.856   4.313 -0.3730 -0.8937 -2.7238
  158MOL0     H21270   2.016   4.740   4.213  2.1571 -1.8306  2.0812
  158MOL0     H21271   2.089   4.978   4.162  1.6528 -0.1791 -0.9903
  158MOL0     H21272   2.131   5.001   4.333  1.4660 -1.3145  1.0019
  158MOL0     H21273   2.305   4.806   4.277  0.2732  0.4721  0.7382
  158MOL0     H21274   2.287   4.860   4.110 -1.3045 -1.0990  0.0699
  158MOL0     H21275   2.369   5.020   4.357  0.5424  1.2807 -0.5098
  158MOL0     H21276   2.472   4.967   4.230 -1.9311 -4.0366  0.1580
  158MOL0     H21277   2.228   5.153   4.192  0.7377 -0.6108  2.0285
  158MOL0     H21278   2.332   5.090   4.064 -0.6073  0.7874 -0.3669
  158MOL0     H21279   2.422   5.260   4.304 -1.4324 -3.6060  0.9859
  158MOL0     H21280   2.532   5.227   4.170  0.6382  3.6677  0.8083
  158MOL0     H21281   2.427   5.338   3.910  1.1705 -2.3608  2.3028
  158MOL0     H21282   2.361   5.635   3.812  1.2191 -3.5099 -3.3292
  158MOL0     H21283   2.282   5.489   3.764 -0.4711  0.3248 -0.6101
  158MOL0     H21284   2.101   5.639   3.726  2.0355 -0.6444 -0.3505
  158MOL0     H21285   2.083   5.628   3.903 -0.3403 -4.1069 -1.7690
  158MOL0     H21286   2.074   5.855   3.820 -1.6931 -1.9056 -4.0247
  158MOL0     H21287   2.235   5.832   3.740  0.8943 -1.6667  0.6942
  158MOL0     H21288   2.352   5.810   3.948  0.8907  1.4136 -2.0663
  158MOL0     H21289   2.192   5.799   4.037 -2.0525 -0.8456 -2.2172
  158MOL0     H21290   2.316   6.229   3.987  3.7417 -1.5345  1.3015
  158MOL0     H21291   2.333   6.371   4.202 -4.5368  0.7366 -0.2081
  158MOL0     H21292   2.429   6.443   4.662 -1.8333 -0.4810 -0.7531
  158MOL0     H21293   2.410   6.496   4.919 -0.4801 -0.8594  2.3544
  158MOL0     H21294   2.131   6.292   5.115 -0.6769  0.4516 -0.1086
  158MOL0     H21295   2.218   6.325   5.258 -2.7493 -1.6797 -1.2071
  158MOL0     H21296   2.245   6.566   5.172 -1.3346  2.6769 -1.8255
  158MOL0     H21297   2.131   6.514   5.041  2.6510  2.7311 -0.5270
  158MOL0     H21298   1.953   6.455   5.185  0.1663  0.5392  0.8361
  158MOL0     H21299   2.049   6.476   5.327  1.4100  0.8629  0.8917
  158MOL0     H21300   1.969   6.697   5.122 -2.4328 -0.4929  0.7982
  158MOL0     H21301   2.087   6.709   5.256  0.1092 -0.7515  1.8815
  158MOL0     H21302   1.791   6.634   5.300 -0.6359  0.8687  0.2241
  158MOL0     H21303   1.842   6.806   5.279 -0.2025 -0.7325 -1.7387
  158MOL0     H21304   1.953   6.606   5.486  1.8627 -0.0975  0.2192
  158MOL0     H21305   1.999   6.772   5.474 -2.6015  1.6560  3.0592
  158MOL0     H21306   1.698   6.747   5.502  0.5491 -2.7466 -0.8842
  158MOL0     H21307   1.799   6.845   5.597 -2.4996 -0.6926  2.2893
  158MOL0     H21308   1.754   6.565   5.660 -1.2580  0.4074 -1.6277
  158MOL0     H21309   1.876   6.665   5.740  1.6889 -1.7672 -1.2418
  158MOL0     H21310   2.313   6.079   4.977  1.4267 -0.3820 -0.9878
  158MOL0     H21311   2.276   6.047   4.751 -0.9221  0.5831 -0.7970
  158MOL0     H21312   2.313   6.014   4.421  3.2904 -1.3573 -0.8545
  158MOL0     H21313   2.241   5.887   4.233  0.1788 -0.0127  0.4100
  158MOL0     H21314   1.806   4.434   4.527  0.2718  0.6187 -1.7233
  158MOL0     H21315   1.709   4.211   4.560  1.4281 -1.8604  0.6686
  158MOL0     H21316   1.661   3.737   4.599  0.8208  0.1512  0.0426
  158MOL0     H21317   1.577   3.520   4.567 -0.3094  1.6284  0.6717
  158MOL0     H21318   1.572   3.391   4.132  0.6806  2.0526 -0.3928
  158MOL0     H21319   1.402   3.419   4.158 -0.4342 -1.3808 -1.4150
  158MOL0     H21320   1.349   3.209   4.210 -0.2176 -0.4119  2.8230
  158MOL0     H21321   1.489   3.184   4.317  0.3236  2.1773  1.8237
  158MOL0     H21322   1.538   3.026   4.142  1.9038 -1.2703 -2.0961
  158MOL0     H21323   1.635   3.151   4.092 -0.1902 -0.9951  0.2121
  158MOL0     H21324   1.514   3.039   3.911 -1.4334 -1.5020 -0.3026
  158MOL0     H21325   1.370   3.030   4.004 -4.2372  2.3208 -0.3585
  158MOL0     H21326   1.303   3.401   3.813  0.1211 -0.1548 -0.6150
  158MOL0     H21327   1.603   3.569   4.137  3.7300  0.7498 -1.0828
  158MOL0     H21328   1.714   3.915   4.151  0.1302 -0.7988 -0.5028
  158MOL0     H21329   1.803   3.762   4.100 -0.3749  0.6585 -2.5010
  158MOL0     H21330   1.628   3.777   4.074  0.0968 -1.8822  0.8851
  159MOL0     O21331   6.563   1.577   4.562 -0.5521 -0.1239 -0.6725
  159MOL0     C21332   6.452   1.537   4.604  0.0463 -0.2955  0.4776
  159MOL0     O21333   6.434   1.427   4.683  0.2722  0.0633 -0.0360
  159MOL0     C21334   6.534   1.390   4.765 -0.7455 -0.0674  0.4482
  159MOL0     C21335   6.629   1.300   4.734  0.2174  1.1388  0.1726
  159MOL0     C21336   6.726   1.267   4.834 -0.3381  0.3660 -0.5697
  159MOL0     C21337   6.733   1.327   4.964 -0.3842 -0.0131  0.7408
  159MOL0     O21338   6.836   1.276   5.044  0.0997  0.2924  0.0911
  159MOL0     C21339   6.831   1.312   5.185  0.4141 -0.6145  0.4180
  159MOL0     C21340   6.936   1.220   5.245  0.2541  0.4927  0.0256
  159MOL0     C21341   6.949   1.241   5.392 -0.4503 -0.6888 -0.4172
  159MOL0     C21342   7.033   1.127   5.446  0.2221  0.3041 -0.8866
  159MOL0     C21343   7.172   1.156   5.424  0.3149 -0.7129 -0.2125
  159MOL0     C21344   7.273   1.097   5.521  0.1454  0.4742  0.5338
  159MOL0     C21345   7.419   1.138   5.480 -0.7273  0.1891  0.0948
  159MOL0     C21346   7.515   1.034   5.545  0.6043  0.0464 -0.4269
  159MOL0     N21347   7.549   1.063   5.688  0.2173 -0.2945 -0.1940
  159MOL0     C21348   7.502   1.167   5.772  0.1980 -0.0865 -0.0967
  159MOL0     C21349   7.561   1.136   5.892 -0.0630 -0.6095 -0.1497
  159MOL0     C21350   7.560   1.228   6.007  0.2127 -0.1617  0.0489
  159MOL0     C21351   7.700   1.277   6.061  0.0943  0.2926 -0.6775
  159MOL0     C21352   7.696   1.388   6.166 -1.3774 -0.3191 -0.4712
  159MOL0     C21353   7.637   1.342   6.302 -0.5712  0.5011  0.2646
  159MOL0     O21354   7.629   1.448   6.406  1.0612 -0.5496  0.5165
  159MOL0     C21355   7.558   1.550   6.362  0.9369  0.3451 -0.2129
  159MOL0     C21356   7.420   1.544   6.338  0.4531  0.3701  0.5831
  159MOL0     C21357   7.342   1.632   6.257 -0.8164 -0.1390  0.0105
  159MOL0     C21358   7.407   1.747   6.213  0.5049 -0.5989  0.3755
  159MOL0     C21359   7.332   1.856   6.144  0.0215  0.2248  0.0259
  159MOL0     O21360   7.390   1.986   6.129 -0.9943  0.1227  0.2249
  159MOL0     C21361   7.330   2.097   6.078  0.6247  0.1404 -0.7186
  159MOL0     C21362   7.413   2.203   6.072  0.3452 -0.6123 -0.9391
  159MOL0     C21363   7.373   2.328   6.025  0.5208 -0.0524 -0.0320
  159MOL0     C21364   7.238   2.338   5.965  0.2619 -0.8039 -0.9000
  159MOL0     O21365   7.187   2.447   5.896  0.5466  1.0088  1.2973
  159MOL0     C21366   7.260   2.566   5.875  0.4190  0.8870 -0.7113
  159MOL0     C21367   7.197   2.660   5.767  0.5644  0.1519  0.5065
  159MOL0     C21368   7.054   2.718   5.803 -0.5153 -0.1097 -0.3866
  159MOL0     C21369   7.000   2.816   5.697  0.9339  0.7699  0.5894
  159MOL0     C21370   6.869   2.879   5.757 -0.9701 -0.0570 -0.2790
  159MOL0     C21371   6.806   2.956   5.636 -0.0044  0.3103 -0.7489
  159MOL0     C21372   6.667   3.018   5.675 -0.1917 -0.2593 -0.1862
  159MOL0     C21373   6.609   3.116   5.576 -0.0324  0.1858 -0.2867
  159MOL0    Cl21374   6.697   3.272   5.566 -0.2306  0.0331 -0.0298
  159MOL0     C21375   7.149   2.228   5.971  0.5013 -0.9087  0.4419
  159MOL0     C21376   7.196   2.112   6.031  0.0108  0.3627  0.5067
  159MOL0     O21377   7.210   1.830   6.116 -0.2093 -0.7146 -0.2637
  159MOL0     C21378   7.542   1.771   6.248 -0.6608 -0.8010  0.4955
  159MOL0     C21379   7.611   1.674   6.325  0.6320 -0.1508  0.0890
  159MOL0     N21380   7.628   1.011   5.879 -1.0634 -1.0031 -0.0809
  159MOL0     N21381   7.623   0.970   5.758 -0.5241  0.2960  0.1383
  159MOL0     C21382   6.635   1.423   4.992  0.4765 -0.0367  0.1085
  159MOL0     C21383   6.539   1.459   4.889 -0.8159  0.1914  0.0013
  159MOL0     C21384   6.327   1.570   4.533  0.0613 -0.0743  0.3990
  159MOL0     C21385   6.321   1.537   4.400  0.2637  0.1741  0.0685
  159MOL0     C21386   6.198   1.556   4.332  0.1167 -0.2981 -0.2448
  159MOL0     C21387   6.085   1.609   4.390  0.4457 -0.0370 -0.1470
  159MOL0     O21388   5.981   1.626   4.307  0.8363 -0.4870  0.7146
  159MOL0     C21389   5.848   1.594   4.370  0.0557  0.3977  0.7751
  159MOL0     C21390   5.737   1.614   4.269  0.5687 -0.1289  0.9980
  159MOL0     C21391   5.717   1.764   4.233 -0.0317 -0.7125  0.6198
  159MOL0     C21392   5.604   1.778   4.127 -0.6501 -0.0257  0.6354
  159MOL0     C21393   5.498   1.857   4.169  1.3209 -0.0896  0.3154
  159MOL0     C21394   5.388   1.912   4.194 -0.1204  1.0146 -0.0169
  159MOL0     C21395   6.092   1.656   4.531  0.4042  1.1424  0.7427
  159MOL0     C21396   6.214   1.621   4.599  0.2701 -1.5264 -0.1670
  159MOL0     C21397   6.213   1.643   4.746  0.2498 -1.2691 -0.6017
  159MOL0     H21398   6.626   1.236   4.646  0.0952 -0.4237  1.2704
  159MOL0     H21399   6.786   1.181   4.804 -1.8778 -0.6220 -0.9266
  159MOL0     H21400   6.849   1.416   5.213 -2.7932 -0.3394  2.0211
  159MOL0     H21401   6.736   1.296   5.238  0.5572 -0.4384  0.7326
  159MOL0     H21402   7.035   1.223   5.200  0.4565 -0.1281  0.4127
  159MOL0     H21403   6.907   1.115   5.228  0.6506  0.1792  1.1615
  159MOL0     H21404   6.850   1.243   5.439  0.1516  0.6361  0.8868
  159MOL0     H21405   6.991   1.342   5.393 -1.1390 -0.3896  0.7929
  159MOL0     H21406   7.008   1.131   5.553 -0.4474  0.1694 -1.0330
  159MOL0     H21407   6.996   1.028   5.418 -0.2336 -0.0521  0.8183
  159MOL0     H21408   7.188   1.108   5.327  1.6910 -0.1243 -0.3023
  159MOL0     H21409   7.181   1.265   5.421 -4.3562  0.1699  4.5450
  159MOL0     H21410   7.254   1.116   5.627 -0.2803  1.2997  0.3152
  159MOL0     H21411   7.259   0.989   5.515 -3.5013  0.8670 -0.1757
  159MOL0     H21412   7.450   1.240   5.505 -2.3886  1.8463 -3.8090
  159MOL0     H21413   7.427   1.130   5.371  1.2327 -0.4975  0.2460
  159MOL0     H21414   7.482   0.930   5.542  0.4633 -0.0001  1.5454
  159MOL0     H21415   7.603   1.049   5.482  0.9131  1.3803  0.2969
  159MOL0     H21416   7.430   1.248   5.771 -0.3218 -0.4757  1.6480
  159MOL0     H21417   7.507   1.317   5.972 -1.5166 -0.5905  1.3786
  159MOL0     H21418   7.503   1.180   6.087 -1.4877  0.6075 -0.6403
  159MOL0     H21419   7.739   1.185   6.106 -4.0048 -1.5215 -0.3564
  159MOL0     H21420   7.767   1.307   5.980  0.0534 -0.7388 -1.1027
  159MOL0     H21421   7.653   1.475   6.116  3.6252  2.8496  0.0566
  159MOL0     H21422   7.802   1.408   6.183 -1.3431 -0.8190 -0.0737
  159MOL0     H21423   7.699   1.262   6.345 -4.0596 -2.3105  0.5075
  159MOL0     H21424   7.541   1.293   6.284 -0.1263  0.0482 -0.9534
  159MOL0     H21425   7.371   1.452   6.367  1.8377 -1.5745 -2.6560
  159MOL0     H21426   7.236   1.607   6.255 -1.2693  1.0459  2.9450
  159MOL0     H21427   7.513   2.205   6.114  0.8878 -1.2465 -2.1589
  159MOL0     H21428   7.441   2.411   6.040 -0.9025  1.0365  0.6154
  159MOL0     H21429   7.279   2.610   5.973 -2.5246 -0.9920  0.8233
  159MOL0     H21430   7.363   2.544   5.843 -0.2016 -1.9717 -0.9909
  159MOL0     H21431   7.255   2.752   5.755 -0.8543  1.0984  0.7002
  159MOL0     H21432   7.196   2.607   5.672  2.0165  2.1238 -0.6922
  159MOL0     H21433   6.986   2.632   5.810 -1.1773  0.4730  0.4549
  159MOL0     H21434   7.048   2.757   5.904  2.3791 -2.1789  0.7213
  159MOL0     H21435   6.993   2.768   5.599 -1.8471  4.8366 -1.5050
  159MOL0     H21436   7.072   2.898   5.690  2.6087 -0.5832  1.3672
  159MOL0     H21437   6.900   2.942   5.840  5.0340  0.6336 -2.5106
  159MOL0     H21438   6.794   2.803   5.781 -1.1879 -0.4669 -2.0889
  159MOL0     H21439   6.869   3.042   5.609 -1.0982  0.6792 -2.3015
  159MOL0     H21440   6.794   2.900   5.543 -3.5944  3.7336 -2.6288
  159MOL0     H21441   6.679   3.065   5.773  1.0878  2.1944 -1.4245
  159MOL0     H21442   6.600   2.932   5.680 -0.8747  0.3589  2.6876
  159MOL0     H21443   6.611   3.055   5.485 -1.6139 -0.1170 -0.1575
  159MOL0     H21444   6.505   3.132   5.606 -1.6956 -3.4066 -3.2381
  159MOL0     H21445   7.053   2.227   5.921  0.3378 -1.5631  0.7496
  159MOL0     H21446   7.127   2.028   6.025  2.0704 -1.4887  1.2644
  159MOL0     H21447   7.600   1.860   6.225  0.2984 -1.0536  1.8773
  159MOL0     H21448   7.717   1.686   6.344  1.0983 -2.6788 -0.5408
  159MOL0     H21449   6.635   1.460   5.094  2.1232  1.1954 -0.2959
  159MOL0     H21450   6.457   1.530   4.899 -0.1041  0.8765  1.2644
  159MOL0     H21451   6.404   1.484   4.353 -0.0710 -0.4987  0.2235
  159MOL0     H21452   6.195   1.540   4.225  2.3340 -2.6275 -0.0602
  159MOL0     H21453   5.830   1.659   4.456  2.5374  1.8916  0.2601
  159MOL0     H21454   5.867   1.491   4.403  1.2223  0.6444  0.9123
  159MOL0     H21455   5.642   1.575   4.307 -0.5280  0.0069 -1.4175
  159MOL0     H21456   5.750   1.561   4.174 -2.8135  0.4813  0.0746
  159MOL0     H21457   5.810   1.798   4.187 -0.8207  0.1137 -0.4215
  159MOL0     H21458   5.687   1.839   4.307 -3.1524  0.9149 -2.0168
  159MOL0     H21459   5.647   1.828   4.039 -3.1522 -0.0659 -0.6981
  159MOL0     H21460   5.566   1.682   4.092 -1.4276  0.0979  1.1400
  159MOL0     H21461   5.295   1.957   4.220 -0.7009  0.4602 -1.0496
  159MOL0     H21462   6.006   1.702   4.579  0.1518  2.1220 -0.5927
  159MOL0     H21463   6.127   1.705   4.770 -1.0328 -3.4523  0.7624
  159MOL0     H21464   6.193   1.548   4.797 -1.7406 -0.2477  0.6116
  159MOL0     H21465   6.294   1.695   4.798 -1.6985  2.3547 -0.8518
  160MOL0     O21466   3.206   7.534   1.016  0.5359 -0.9957 -0.4063
  160MOL0     C21467   3.324   7.501   0.983 -0.7032 -0.3982  0.9071
  160MOL0     O21468   3.360   7.377   0.943  0.3220  0.5544  0.7066
  160MOL0     C21469   3.262   7.282   0.951 -0.1963 -0.6657  0.5090
  160MOL0     C21470   3.177   7.258   0.846  0.0662 -0.5302  0.8319
  160MOL0     C21471   3.087   7.149   0.848  0.1152 -0.5925  0.0731
  160MOL0     C21472   3.084   7.060   0.950  0.1532 -0.8231  0.3785
  160MOL0     O21473   2.984   6.964   0.946 -0.2663 -0.5377 -0.3533
  160MOL0     C21474   2.996   6.839   1.015  0.2807 -0.6904  0.3901
  160MOL0     C21475   2.858   6.770   1.020  0.1559 -0.6767  0.2274
  160MOL0     C21476   2.883   6.623   1.058 -0.2912 -0.3219 -0.3762
  160MOL0     C21477   2.902   6.534   0.935 -0.5599  0.5872  0.5796
  160MOL0     C21478   2.998   6.413   0.955 -0.7487 -0.1926  0.1471
  160MOL0     C21479   3.004   6.323   0.839  1.0993 -0.2484  0.5510
  160MOL0     C21480   3.109   6.211   0.829 -1.4067  0.1298  0.4267
  160MOL0     C21481   3.100   6.126   0.947 -0.0418 -0.0872  0.2485
  160MOL0     N21482   2.962   6.076   0.960 -0.1013  0.0432 -0.1594
  160MOL0     C21483   2.870   6.098   1.062 -0.4766 -0.2346 -0.5341
  160MOL0     C21484   2.764   6.017   1.029 -0.7648  0.1482  0.0456
  160MOL0     C21485   2.639   6.003   1.123  0.1661  0.6836  0.5572
  160MOL0     C21486   2.665   6.006   1.269  0.3404  0.5467 -0.5512
  160MOL0     C21487   2.755   5.891   1.313  0.0537 -0.1398  0.1436
  160MOL0     C21488   2.727   5.758   1.269  0.1567  0.2091  0.5274
  160MOL0     O21489   2.594   5.735   1.313  0.1176 -0.3382  0.2591
  160MOL0     C21490   2.505   5.649   1.245  0.7678 -0.4471  0.9042
  160MOL0     C21491   2.538   5.516   1.219  0.2065  0.1757  0.1570
  160MOL0     C21492   2.440   5.425   1.182 -0.0357  0.0196 -0.7544
  160MOL0     C21493   2.311   5.468   1.153 -0.1825  0.2588  0.1374
  160MOL0     C21494   2.223   5.370   1.082 -0.3950 -0.6961  0.5667
  160MOL0     O21495   2.250   5.240   1.099  0.2204 -0.2357 -0.6283
  160MOL0     C21496   2.179   5.162   1.015 -0.0655  0.1956  0.6368
  160MOL0     C21497   2.180   5.174   0.872  0.4312  0.2935 -0.3849
  160MOL0     C21498   2.110   5.083   0.793  0.3759 -0.0537 -0.4065
  160MOL0     C21499   2.028   4.978   0.847  0.2898 -0.1138 -0.2555
  160MOL0     O21500   1.961   4.895   0.768 -0.6119  1.0241  0.6893
  160MOL0     C21501   1.850   4.828   0.823 -0.3281 -0.4670 -0.1994
  160MOL0     C21502   1.800   4.729   0.720 -0.7301  0.2660 -0.1338
  160MOL0     C21503   1.736   4.799   0.586 -0.5967 -0.9267 -0.3959
  160MOL0     C21504   1.693   4.686   0.497 -1.0148 -0.0512 -0.7943
  160MOL0     C21505   1.620   4.730   0.381 -0.5215 -0.4495 -0.8364
  160MOL0     C21506   1.594   4.608   0.293 -0.2215  0.5783  0.3603
  160MOL0     C21507   1.516   4.655   0.166  0.0956  0.4495 -0.1644
  160MOL0     C21508   1.544   4.561   0.051  0.0718  1.0317 -0.6196
  160MOL0    Cl21509   1.427   4.564  -0.090 -0.1475  0.0582  0.4668
  160MOL0     C21510   2.034   4.964   0.992  0.2538 -0.4454  0.9338
  160MOL0     C21511   2.108   5.049   1.070  0.9537  0.5818 -0.1071
  160MOL0     O21512   2.128   5.418   1.021  0.7668 -0.6149 -0.1859
  160MOL0     C21513   2.272   5.605   1.169 -0.0429  0.1471  0.0085
  160MOL0     C21514   2.379   5.689   1.213  0.5959 -0.6611  0.0320
  160MOL0     N21515   2.793   5.952   0.909  0.5636 -1.4847 -0.8355
  160MOL0     N21516   2.909   5.993   0.868 -1.2671 -0.4602  0.2655
  160MOL0     C21517   3.164   7.077   1.062 -0.3754  0.4399 -0.4744
  160MOL0     C21518   3.248   7.195   1.061 -0.1044 -0.0831 -0.0000
  160MOL0     C21519   3.425   7.613   0.969 -0.9011 -0.5534 -0.1768
  160MOL0     C21520   3.553   7.564   0.965 -0.2374 -0.0448 -0.1399
  160MOL0     C21521   3.665   7.650   0.969 -0.5797  0.2572 -0.8020
  160MOL0     C21522   3.655   7.788   0.974  0.2731 -0.2112  0.5953
  160MOL0     O21523   3.756   7.885   0.982  0.7349  1.3061 -0.3487
  160MOL0     C21524   3.883   7.849   1.026 -0.3880 -0.3360 -0.8176
  160MOL0     C21525   3.966   7.982   1.014  0.7640  0.2623  0.2087
  160MOL0     C21526   3.894   8.093   1.092 -0.1775 -0.3753  0.0191
  160MOL0     C21527   3.974   8.219   1.066 -0.2981 -0.1314 -0.6825
  160MOL0     C21528   3.906   8.323   1.146 -0.0154  0.5359 -0.3950
  160MOL0     C21529   3.838   8.388   1.222 -0.3688 -0.2718  0.2454
  160MOL0     C21530   3.526   7.840   0.983 -0.3064 -0.1133  0.5946
  160MOL0     C21531   3.407   7.761   0.977 -0.0196 -0.3323  0.1812
  160MOL0     C21532   3.283   7.832   0.985 -0.2240 -0.4227 -0.3122
  160MOL0     H21533   3.188   7.326   0.762  0.9262 -0.1827  1.2209
  160MOL0     H21534   3.025   7.135   0.760 -0.8837  2.0368  0.2647
  160MOL0     H21535   3.070   6.778   0.963 -1.0310 -1.9222 -0.0885
  160MOL0     H21536   3.026   6.847   1.119  0.1121 -1.2316  0.4835
  160MOL0     H21537   2.816   6.766   0.920 -1.2333 -2.5853  0.8333
  160MOL0     H21538   2.803   6.832   1.091 -1.4653 -1.3232 -0.4277
  160MOL0     H21539   2.793   6.596   1.113 -2.4020  0.2122 -3.2922
  160MOL0     H21540   2.973   6.618   1.120 -0.6981 -2.5063  0.1158
  160MOL0     H21541   2.805   6.494   0.906 -0.6845  2.6628 -2.3013
  160MOL0     H21542   2.933   6.597   0.851 -3.2700  1.7290  0.3238
  160MOL0     H21543   3.100   6.450   0.940 -0.4786 -1.8533 -2.7257
  160MOL0     H21544   2.993   6.365   1.053 -1.4911 -0.5327 -0.0524
  160MOL0     H21545   2.898   6.298   0.836  1.2150 -0.8639  1.4352
  160MOL0     H21546   3.002   6.386   0.750 -3.5309  0.4777  0.9260
  160MOL0     H21547   3.207   6.257   0.812 -1.0818  0.2757  2.4223
  160MOL0     H21548   3.079   6.153   0.742 -2.3868 -0.9167  1.4168
  160MOL0     H21549   3.174   6.046   0.946 -1.0349 -1.0398 -1.5042
  160MOL0     H21550   3.135   6.186   1.032  1.8992 -0.6614 -0.1093
  160MOL0     H21551   2.890   6.159   1.150  1.5670  1.1514 -1.8610
  160MOL0     H21552   2.584   6.096   1.109  1.0852  1.2221  0.4356
  160MOL0     H21553   2.573   5.918   1.101  0.7696  0.8537 -2.1847
  160MOL0     H21554   2.712   6.099   1.301 -0.0744  0.6146 -0.1340
  160MOL0     H21555   2.567   6.001   1.317  0.8068  3.1476  0.8382
  160MOL0     H21556   2.763   5.893   1.422  3.7157 -0.0094 -0.0135
  160MOL0     H21557   2.857   5.916   1.284  1.8010 -2.4147  3.6478
  160MOL0     H21558   2.792   5.685   1.316  0.4643  0.4302  0.4472
  160MOL0     H21559   2.724   5.749   1.160  1.1495 -0.9630  0.5800
  160MOL0     H21560   2.623   5.462   1.259  1.7542 -1.2049 -4.4307
  160MOL0     H21561   2.467   5.320   1.175 -0.5030 -0.2705  1.1477
  160MOL0     H21562   2.235   5.248   0.814  0.0743 -0.7770 -2.1696
  160MOL0     H21563   2.112   5.103   0.686  0.5384  1.4596 -0.1481
  160MOL0     H21564   1.875   4.776   0.916  0.7134  1.0382  0.3841
  160MOL0     H21565   1.766   4.897   0.838  1.7642  2.2602 -0.4105
  160MOL0     H21566   1.878   4.653   0.706 -2.5328 -1.4752 -1.3550
  160MOL0     H21567   1.717   4.678   0.769 -0.3166  0.5033  0.8405
  160MOL0     H21568   1.651   4.852   0.630 -1.0103 -2.2102  0.4249
  160MOL0     H21569   1.808   4.857   0.528 -1.7138  1.7059  0.7235
  160MOL0     H21570   1.652   4.603   0.555  2.2185 -1.1108  0.2036
  160MOL0     H21571   1.786   4.645   0.455  1.0492  0.0515  3.2122
  160MOL0     H21572   1.684   4.793   0.319 -1.8870  0.3230 -1.5034
  160MOL0     H21573   1.526   4.782   0.402  0.6151  0.6212  2.2376
  160MOL0     H21574   1.695   4.582   0.258  0.8238  1.4888  2.4584
  160MOL0     H21575   1.550   4.522   0.344  0.9176 -0.0157  0.3765
  160MOL0     H21576   1.535   4.759   0.142 -0.7821  0.7138  0.2509
  160MOL0     H21577   1.413   4.640   0.197  0.6841 -0.8512  1.3057
  160MOL0     H21578   1.643   4.595   0.019  0.2611  0.4879 -0.6131
  160MOL0     H21579   1.558   4.462   0.095  2.4330  1.1100 -1.0711
  160MOL0     H21580   1.992   4.886   1.054  1.2391 -0.9878  0.9400
  160MOL0     H21581   2.107   5.032   1.177  1.5845  1.6523  0.0877
  160MOL0     H21582   2.178   5.648   1.137  0.7842  1.0799 -1.2353
  160MOL0     H21583   2.360   5.796   1.215  1.3578 -0.5260  0.3508
  160MOL0     H21584   3.168   7.004   1.142  4.1963 -0.3023 -1.1459
  160MOL0     H21585   3.305   7.211   1.152 -2.1335  1.4048  1.0959
  160MOL0     H21586   3.576   7.458   0.959 -0.6049 -0.0484 -3.6106
  160MOL0     H21587   3.763   7.604   0.964 -0.4121  0.4934  0.2296
  160MOL0     H21588   3.935   7.767   0.975 -0.7557 -1.2535  0.2346
  160MOL0     H21589   3.898   7.811   1.128 -0.6572 -1.6467 -1.2484
  160MOL0     H21590   3.991   8.013   0.912  2.1570 -1.0551  0.1134
  160MOL0     H21591   4.058   7.949   1.064  2.0168  1.4561 -1.1861
  160MOL0     H21592   3.885   8.065   1.198 -0.8146  2.2509  0.7353
  160MOL0     H21593   3.795   8.110   1.048 -0.3267 -0.6474  0.2435
  160MOL0     H21594   4.072   8.204   1.114 -0.1515  1.6841 -0.3400
  160MOL0     H21595   4.003   8.243   0.963 -4.5224 -0.8376 -2.2433
  160MOL0     H21596   3.776   8.441   1.291 -2.7428 -0.3483 -1.6822
  160MOL0     H21597   3.525   7.949   0.984  2.0704  0.0431 -1.9590
  160MOL0     H21598   3.208   7.798   1.058  0.5110  0.2781  0.7981
  160MOL0     H21599   3.300   7.936   1.016  0.9379 -1.0174  1.1369
  160MOL0     H21600   3.239   7.831   0.884 -0.6485  0.6713 -0.1540
  161MOL0     O21601   2.091   8.787   1.466 -0.6761 -0.0489  0.5573
  161MOL0     C21602   2.044   8.748   1.362  0.3225  0.5313 -0.0237
  161MOL0     O21603   2.049   8.614   1.322 -0.8578 -0.1834  0.2368
  161MOL0     C21604   2.141   8.518   1.368 -1.0831 -0.4801  0.5796
  161MOL0     C21605   2.256   8.533   1.443  1.3403  0.0512 -0.3427
  161MOL0     C21606   2.333   8.427   1.483  0.7241 -0.9321 -0.8937
  161MOL0     C21607   2.292   8.301   1.453  0.1227  1.2410 -0.5108
  161MOL0     O21608   2.342   8.179   1.495  0.1072  0.7595  0.5918
  161MOL0     C21609   2.432   8.184   1.609  1.3810 -0.5105  0.4205
  161MOL0     C21610   2.431   8.046   1.668 -0.4323 -0.0539 -0.6556
  161MOL0     C21611   2.487   8.020   1.809 -1.0764 -0.3495  0.8205
  161MOL0     C21612   2.644   8.051   1.801 -0.9931  0.4489 -0.0050
  161MOL0     C21613   2.721   7.928   1.821  0.1518  0.6514 -0.3468
  161MOL0     C21614   2.851   7.969   1.895 -0.5794 -0.2946 -0.5174
  161MOL0     C21615   2.951   7.859   1.919  0.7187  0.6368 -0.9497
  161MOL0     C21616   2.894   7.769   2.026  0.3831 -0.3916  0.0038
  161MOL0     N21617   3.006   7.709   2.101 -0.1355 -0.0613 -0.6381
  161MOL0     C21618   3.034   7.725   2.237  0.3201  0.2727  0.4625
  161MOL0     C21619   3.125   7.620   2.257  1.3327 -0.3203  0.4326
  161MOL0     C21620   3.172   7.600   2.407  0.3810 -0.3465  0.6372
  161MOL0     C21621   3.089   7.486   2.455  0.2675  0.3911 -0.2096
  161MOL0     C21622   3.158   7.349   2.417 -0.1006  0.7168  0.2397
  161MOL0     C21623   3.065   7.235   2.440 -0.3235 -0.1015 -0.1970
  161MOL0     O21624   2.999   7.186   2.331 -0.3835  0.4319  0.2325
  161MOL0     C21625   2.887   7.258   2.293  0.8907  0.0809 -0.4265
  161MOL0     C21626   2.879   7.320   2.169  0.1171 -0.7581  0.3171
  161MOL0     C21627   2.780   7.419   2.140  0.6342  0.2815 -0.1039
  161MOL0     C21628   2.681   7.454   2.239 -0.9415 -0.4288 -0.0613
  161MOL0     C21629   2.581   7.559   2.208 -0.8520 -0.0930 -1.0891
  161MOL0     O21630   2.497   7.581   2.318  0.4943 -0.0763  0.3658
  161MOL0     C21631   2.394   7.676   2.308  0.6721 -0.5337  0.5296
  161MOL0     C21632   2.423   7.810   2.297  0.3458  0.5145  0.4412
  161MOL0     C21633   2.321   7.904   2.284 -0.0119 -0.7082  0.4555
  161MOL0     C21634   2.187   7.867   2.277 -0.0700  0.5277  0.5700
  161MOL0     O21635   2.087   7.957   2.257  0.2000 -0.1335  0.3127
  161MOL0     C21636   2.116   8.062   2.169  0.4825  0.7579  0.6077
  161MOL0     C21637   1.986   8.112   2.104  0.1158 -0.7999 -0.8165
  161MOL0     C21638   2.002   8.225   2.005  0.5481  1.1384  0.5505
  161MOL0     C21639   2.030   8.163   1.868 -0.2781 -0.8716 -0.5864
  161MOL0     C21640   2.021   8.267   1.754  0.4483  0.2072 -0.5353
  161MOL0     C21641   1.870   8.309   1.718  1.2100 -0.2849  0.3205
  161MOL0     C21642   1.837   8.431   1.641 -0.5855  0.3545  0.2132
  161MOL0     C21643   1.920   8.552   1.683  0.1181 -0.2520  0.3982
  161MOL0    Cl21644   1.902   8.593   1.856 -0.2064 -0.1287  0.4442
  161MOL0     C21645   2.157   7.723   2.273 -0.8890  0.2807 -0.8675
  161MOL0     C21646   2.266   7.629   2.297  0.5880 -0.3307 -0.4841
  161MOL0     O21647   2.574   7.617   2.098  1.0421 -1.0602  0.2320
  161MOL0     C21648   2.691   7.382   2.365  0.6255  0.3722  0.2869
  161MOL0     C21649   2.791   7.292   2.386 -0.1820  0.4848  0.4134
  161MOL0     N21650   3.144   7.548   2.146 -0.0879 -0.3128 -1.0599
  161MOL0     N21651   3.089   7.619   2.052 -0.2836  0.1685 -0.4376
  161MOL0     C21652   2.179   8.282   1.363  1.0686  0.3080  0.5468
  161MOL0     C21653   2.103   8.389   1.329 -0.6566  0.1650  0.7014
  161MOL0     C21654   1.949   8.831   1.276  0.4567 -0.7304 -0.3516
  161MOL0     C21655   1.856   8.756   1.194 -0.9008 -1.4477  0.2110
  161MOL0     C21656   1.761   8.816   1.120  0.0070  0.8355 -0.7302
  161MOL0     C21657   1.746   8.954   1.114 -0.0485 -0.6214  0.6458
  161MOL0     O21658   1.649   9.008   1.027 -0.2068  0.1100 -0.2588
  161MOL0     C21659   1.659   9.148   0.975 -0.3907  0.4677 -1.0550
  161MOL0     C21660   1.528   9.170   0.881 -0.3939 -0.2875 -0.5101
  161MOL0     C21661   1.544   9.115   0.737  0.8366 -0.2638 -1.0856
  161MOL0     C21662   1.413   9.139   0.651 -1.4170  0.8144  0.4134
  161MOL0     C21663   1.396   9.281   0.593  0.2537  0.1110  0.0707
  161MOL0     C21664   1.390   9.377   0.513 -0.6522 -0.8794 -0.1213
  161MOL0     C21665   1.828   9.023   1.200  0.8223 -1.2738  0.1932
  161MOL0     C21666   1.926   8.968   1.276  1.0254 -0.4158 -0.2016
  161MOL0     C21667   2.011   9.066   1.346 -0.0753 -0.1938  1.0487
  161MOL0     H21668   2.299   8.624   1.483  1.5422 -1.4534  3.2185
  161MOL0     H21669   2.421   8.457   1.541  0.6807 -0.6186 -0.9864
  161MOL0     H21670   2.525   8.240   1.594 -0.2918  2.3415 -0.0349
  161MOL0     H21671   2.385   8.246   1.686 -0.0731  1.2315 -1.7439
  161MOL0     H21672   2.469   7.966   1.603 -1.5322 -1.5367  0.4529
  161MOL0     H21673   2.323   8.034   1.675 -1.0828  3.8238 -2.0764
  161MOL0     H21674   2.458   7.919   1.840  2.3880 -2.8880 -3.0807
  161MOL0     H21675   2.434   8.092   1.871 -0.7042  0.0204  0.7080
  161MOL0     H21676   2.679   8.096   1.707 -1.0342 -0.7277 -0.5961
  161MOL0     H21677   2.683   8.121   1.875  2.4474 -0.9787 -0.2816
  161MOL0     H21678   2.674   7.852   1.884 -2.2338  1.2407 -1.3059
  161MOL0     H21679   2.742   7.878   1.726 -1.3197 -0.5473 -0.0892
  161MOL0     H21680   2.899   8.046   1.834 -1.2383  0.3220 -0.2773
  161MOL0     H21681   2.819   8.024   1.984  2.1193  0.8118 -0.1332
  161MOL0     H21682   3.045   7.903   1.951  0.0948  1.5866 -0.3916
  161MOL0     H21683   2.951   7.794   1.831 -1.4636  1.8097 -1.8918
  161MOL0     H21684   2.827   7.825   2.092 -2.2559 -0.9969 -1.9631
  161MOL0     H21685   2.836   7.696   1.968 -1.7789  3.2082 -2.7870
  161MOL0     H21686   3.010   7.810   2.300  0.5836 -0.3398  1.4195
  161MOL0     H21687   3.280   7.587   2.413  0.8592 -0.1752 -3.9519
  161MOL0     H21688   3.152   7.685   2.473 -2.0284 -0.6573  0.4193
  161MOL0     H21689   3.075   7.475   2.563 -2.9881 -2.6463 -0.7426
  161MOL0     H21690   2.986   7.486   2.417 -0.0604 -1.3858  0.5844
  161MOL0     H21691   3.248   7.332   2.475  0.7400  0.7162 -1.0291
  161MOL0     H21692   3.190   7.359   2.313 -0.2750  1.9999  0.2897
  161MOL0     H21693   3.004   7.242   2.530  1.3282  0.5161  0.9226
  161MOL0     H21694   3.134   7.157   2.473  0.0058  0.7205  1.1357
  161MOL0     H21695   2.947   7.297   2.086  1.4371 -1.6961  1.5962
  161MOL0     H21696   2.791   7.479   2.051  2.1313  2.0943  1.2454
  161MOL0     H21697   2.527   7.841   2.302  1.2287 -2.2587  4.2592
  161MOL0     H21698   2.363   8.004   2.277 -0.8948 -0.4139 -1.3150
  161MOL0     H21699   2.162   8.149   2.216 -2.8387  2.7073  0.5449
  161MOL0     H21700   2.187   8.031   2.092 -0.7262 -0.9835  0.1336
  161MOL0     H21701   1.933   8.037   2.045 -0.8673 -0.8431  0.0891
  161MOL0     H21702   1.920   8.150   2.183  0.6529 -0.9816 -0.2750
  161MOL0     H21703   1.911   8.286   2.014 -0.8581 -0.8481  0.6726
  161MOL0     H21704   2.083   8.289   2.038  0.7803 -0.2755  2.9658
  161MOL0     H21705   1.966   8.078   1.842 -2.6259  0.9420 -1.1646
  161MOL0     H21706   2.134   8.132   1.880  1.1961  3.9365  1.5169
  161MOL0     H21707   2.070   8.227   1.665  3.9425 -1.2933  1.8188
  161MOL0     H21708   2.083   8.353   1.779 -0.7088  0.7521  0.5378
  161MOL0     H21709   1.834   8.221   1.664  0.9467 -0.3807  0.6418
  161MOL0     H21710   1.806   8.304   1.807 -0.2585  1.2138 -0.5785
  161MOL0     H21711   1.731   8.457   1.655 -0.4974 -0.6833  4.0365
  161MOL0     H21712   1.860   8.399   1.539  2.6016  1.7819  0.3771
  161MOL0     H21713   2.024   8.540   1.650  0.7956 -2.3645  2.9569
  161MOL0     H21714   1.884   8.630   1.615 -2.1623 -0.6817  1.0282
  161MOL0     H21715   2.055   7.687   2.265 -0.3784 -1.3828 -0.3648
  161MOL0     H21716   2.255   7.521   2.304 -5.0433  0.0312  1.3685
  161MOL0     H21717   2.625   7.409   2.447 -2.1028  0.6422 -1.8251
  161MOL0     H21718   2.794   7.251   2.486 -2.6113 -2.5212 -0.5779
  161MOL0     H21719   2.147   8.180   1.347  1.7391  0.4024 -1.5770
  161MOL0     H21720   2.016   8.384   1.264  0.1358 -0.6930 -0.3263
  161MOL0     H21721   1.854   8.648   1.192  0.3084 -1.4935  0.4914
  161MOL0     H21722   1.710   8.755   1.046 -1.1754  1.6232 -0.5853
  161MOL0     H21723   1.746   9.165   0.912  2.6508 -2.0480  2.0331
  161MOL0     H21724   1.663   9.213   1.064 -1.4706 -0.7612 -0.0524
  161MOL0     H21725   1.514   9.279   0.884  2.5257  0.1961  3.4376
  161MOL0     H21726   1.446   9.113   0.926 -0.7524  1.7780  1.6169
  161MOL0     H21727   1.568   9.008   0.741  1.5398 -0.0752  0.4246
  161MOL0     H21728   1.630   9.162   0.689 -0.4574  0.5811 -2.6997
  161MOL0     H21729   1.419   9.082   0.558 -5.2704  2.5846 -1.1176
  161MOL0     H21730   1.321   9.107   0.699 -1.2325 -1.7451 -0.7631
  161MOL0     H21731   1.378   9.454   0.439  1.3801 -0.1223  0.2648
  161MOL0     H21732   1.803   9.128   1.203 -3.5762 -2.0740 -1.3771
  161MOL0     H21733   1.974   9.077   1.449  0.8371 -1.9498  1.6024
  161MOL0     H21734   2.113   9.030   1.355 -0.9907 -3.1435  0.5086
  161MOL0     H21735   2.015   9.164   1.298 -0.1023  0.3238  2.0702
  162MOL0     O21736   8.208  10.559   5.079  0.0719  0.2905 -0.1880
  162MOL0     C21737   8.223  10.474   5.165  0.1271  0.6319  0.5481
  162MOL0     O21738   8.182  10.336   5.149 -0.2755  0.6057  0.1313
  162MOL0     C21739   8.117  10.304   5.035  0.0065 -0.6030 -0.4787
  162MOL0     C21740   8.015  10.376   4.957 -0.3939  0.0975  0.0654
  162MOL0     C21741   7.953  10.312   4.844 -0.4468  0.4148  1.4138
  162MOL0     C21742   8.013  10.190   4.795  0.8608 -0.2162 -0.6125
  162MOL0     O21743   7.971  10.156   4.674  0.2319  0.5254  0.4377
  162MOL0     C21744   7.974  10.017   4.632  0.0061  0.7754 -0.5614
  162MOL0     C21745   7.875  10.002   4.518 -1.1056 -0.1288 -0.0704
  162MOL0     C21746   7.864   9.853   4.474 -0.4356  1.2439  0.1865
  162MOL0     C21747   7.788   9.835   4.342  0.8130 -0.0403 -0.0327
  162MOL0     C21748   7.693   9.952   4.293  0.0537  0.2079  0.8816
  162MOL0     C21749   7.562   9.959   4.370 -0.4622  0.3780  0.9837
  162MOL0     C21750   7.478  10.074   4.314  0.3439 -0.7757 -0.1129
  162MOL0     C21751   7.329  10.054   4.340  0.8036  0.7968  0.4384
  162MOL0     N21752   7.255   9.973   4.238  0.0811 -0.0999 -0.4144
  162MOL0     C21753   7.242  10.021   4.109 -1.1451 -0.7210  1.7128
  162MOL0     C21754   7.204   9.907   4.036 -0.9769 -1.2095 -0.9317
  162MOL0     C21755   7.187   9.897   3.887  0.0426  0.5815 -0.5414
  162MOL0     C21756   7.077   9.993   3.839 -0.9365  0.5885  0.9421
  162MOL0     C21757   7.098  10.015   3.683 -0.0638 -0.1228 -0.9146
  162MOL0     C21758   6.966  10.058   3.618  0.7817 -0.3523 -0.2034
  162MOL0     O21759   6.904   9.953   3.545  0.8004 -0.2193  0.6013
  162MOL0     C21760   6.957   9.910   3.432 -0.5271  0.5275  0.7049
  162MOL0     C21761   6.889   9.810   3.364  0.1367 -1.0076  0.0038
  162MOL0     C21762   6.927   9.783   3.237 -0.3623  0.0917  0.5973
  162MOL0     C21763   7.015   9.859   3.165 -0.4841 -0.3784  0.2551
  162MOL0     C21764   7.049   9.827   3.021  0.7267  0.6954  1.1582
  162MOL0     O21765   6.978   9.721   2.965 -0.7050  0.5518  0.0623
  162MOL0     C21766   6.966   9.720   2.829 -0.0108  0.4427 -0.1970
  162MOL0     C21767   6.849   9.778   2.772 -0.6837  0.8903  0.0361
  162MOL0     C21768   6.838   9.755   2.636  0.0016 -0.4083 -0.1328
  162MOL0     C21769   6.929   9.683   2.561  0.4925 -0.5253  0.1884
  162MOL0     O21770   6.916   9.674   2.418  0.3249  0.2841 -0.8824
  162MOL0     C21771   6.957   9.789   2.345  0.1446  0.2590  0.8041
  162MOL0     C21772   6.914   9.778   2.193 -0.6540 -0.1614  0.7016
  162MOL0     C21773   6.756   9.775   2.180  0.6428  0.3598 -0.4760
  162MOL0     C21774   6.719   9.785   2.029  0.1348  0.0574 -0.3765
  162MOL0     C21775   6.564   9.764   1.997  0.7053 -0.3166  0.7018
  162MOL0     C21776   6.544   9.605   1.989 -0.5194 -0.1876 -0.7936
  162MOL0     C21777   6.397   9.577   1.977  0.2942  0.1836 -0.0853
  162MOL0     C21778   6.343   9.605   1.829  0.0622 -0.6717 -0.7370
  162MOL0    Cl21779   6.201   9.694   1.837  0.2336  0.3100  0.0775
  162MOL0     C21780   7.036   9.620   2.620  0.0079  0.6401 -0.3564
  162MOL0     C21781   7.055   9.648   2.753  1.1671  1.0282  0.0593
  162MOL0     O21782   7.134   9.893   2.962 -0.2581  1.2937 -0.2635
  162MOL0     C21783   7.096   9.947   3.237 -0.5229 -0.0767 -0.7695
  162MOL0     C21784   7.067   9.972   3.369 -0.4369 -0.2705  0.4186
  162MOL0     N21785   7.182   9.807   4.125  0.0475  0.9611  0.3763
  162MOL0     N21786   7.223   9.839   4.240  0.2634 -0.3849  0.0455
  162MOL0     C21787   8.112  10.127   4.869 -0.5751  0.7407 -1.3619
  162MOL0     C21788   8.161  10.182   4.987 -0.3192 -0.5158 -0.3741
  162MOL0     C21789   8.271  10.535   5.298 -0.1378 -0.3584  0.0650
  162MOL0     C21790   8.198  10.491   5.410  0.3126  0.2037 -0.6622
  162MOL0     C21791   8.216  10.553   5.540 -0.4193  0.9549  0.1084
  162MOL0     C21792   8.323  10.645   5.557  1.1573 -0.5966  0.3834
  162MOL0     O21793   8.351  10.688   5.686 -0.4086  0.0702  0.0681
  162MOL0     C21794   8.283  10.795   5.728 -0.3741 -1.3094  0.0018
  162MOL0     C21795   8.362  10.866   5.836 -0.0233  0.1621  0.2497
  162MOL0     C21796   8.485  10.928   5.772 -0.9203 -0.4576  0.6917
  162MOL0     C21797   8.606  10.953   5.871 -0.2313 -0.7866 -0.3793
  162MOL0     C21798   8.719  11.032   5.815  0.1509  0.5314 -0.1073
  162MOL0     C21799   8.807  11.096   5.772  0.1576  0.1303 -0.1153
  162MOL0     C21800   8.392  10.696   5.446  0.1192  0.4200  0.1185
  162MOL0     C21801   8.369  10.636   5.317 -1.0293  0.8081  0.3941
  162MOL0     C21802   8.467  10.679   5.204 -0.3471 -0.4660 -0.3799
  162MOL0     H21803   7.987  10.480   4.960  0.6786  0.4836 -1.6511
  162MOL0     H21804   7.885  10.376   4.789 -0.1860  0.4841  1.1689
  162MOL0     H21805   8.079  10.006   4.605  0.5047  2.4651  0.5001
  162MOL0     H21806   7.951   9.945   4.712  0.7579 -1.5252 -2.2959
  162MOL0     H21807   7.902  10.070   4.436  2.3318 -2.2212 -0.8745
  162MOL0     H21808   7.781  10.036   4.562 -1.0562  0.2738 -0.2694
  162MOL0     H21809   7.796   9.821   4.554 -0.0692 -0.3059 -0.0948
  162MOL0     H21810   7.963   9.806   4.475 -1.6231 -1.4053  1.0092
  162MOL0     H21811   7.858   9.817   4.259  1.6443  2.3174  0.0891
  162MOL0     H21812   7.724   9.746   4.341 -0.6900  0.9872  1.0908
  162MOL0     H21813   7.746  10.048   4.284  0.9329 -0.4018 -0.8741
  162MOL0     H21814   7.660   9.935   4.190 -0.8471  2.2968  0.7670
  162MOL0     H21815   7.500   9.869   4.365 -0.6461  0.4159  2.1687
  162MOL0     H21816   7.586   9.979   4.475 -0.4159 -0.2682  1.1043
  162MOL0     H21817   7.499  10.080   4.207  2.2771  3.0735  0.3131
  162MOL0     H21818   7.501  10.169   4.363 -0.1521 -2.0423  2.7681
  162MOL0     H21819   7.319   9.992   4.429 -0.0066  1.9369  1.1704
  162MOL0     H21820   7.279  10.152   4.346  2.2938  1.4700  3.7043
  162MOL0     H21821   7.245  10.121   4.068 -3.1488 -1.7651 -1.3416
  162MOL0     H21822   7.283   9.917   3.839  0.7409 -1.2915 -0.0117
  162MOL0     H21823   7.165   9.791   3.869  0.2387  0.5696 -0.7248
  162MOL0     H21824   6.986   9.937   3.863 -0.0769  0.1475  3.5061
  162MOL0     H21825   7.085  10.090   3.890 -0.5914  1.5883 -0.9139
  162MOL0     H21826   7.135   9.924   3.636  2.2535  1.3838 -2.2272
  162MOL0     H21827   7.177  10.091   3.680 -0.7199  0.6074 -0.1125
  162MOL0     H21828   6.983  10.151   3.563  1.4973  0.6188  1.5673
  162MOL0     H21829   6.897  10.094   3.695  1.4662  0.8652 -0.1237
  162MOL0     H21830   6.801   9.773   3.415  0.9510 -1.4693  1.1186
  162MOL0     H21831   6.868   9.710   3.183 -0.7009 -0.7309  2.0263
  162MOL0     H21832   6.772   9.827   2.831 -0.1418  1.7537  0.0292
  162MOL0     H21833   6.752   9.788   2.577  0.2720 -0.9467 -0.8389
  162MOL0     H21834   6.916   9.878   2.393 -2.8338 -0.4492 -0.1865
  162MOL0     H21835   7.066   9.797   2.352  0.7705  4.7361 -5.4028
  162MOL0     H21836   6.968   9.858   2.142 -2.5113  1.3816  1.0257
  162MOL0     H21837   6.942   9.678   2.160  0.8809  0.4199  0.1648
  162MOL0     H21838   6.712   9.683   2.221  3.0675 -0.6294  0.0498
  162MOL0     H21839   6.722   9.865   2.233  1.7431 -1.3324  3.4758
  162MOL0     H21840   6.785   9.725   1.966 -0.6508  2.4289 -3.7066
  162MOL0     H21841   6.746   9.885   1.995  1.2681 -0.6698 -1.6792
  162MOL0     H21842   6.536   9.810   1.903 -0.1820 -1.2311  0.5039
  162MOL0     H21843   6.502   9.811   2.074 -2.6493  0.2919 -2.1359
  162MOL0     H21844   6.604   9.552   1.915 -1.0901  0.0785 -1.4559
  162MOL0     H21845   6.567   9.583   2.094 -3.3967  3.2167  0.7578
  162MOL0     H21846   6.338   9.635   2.048  1.9135  1.2432  0.4342
  162MOL0     H21847   6.384   9.468   1.986 -0.4202  0.1277 -1.4750
  162MOL0     H21848   6.411   9.677   1.784  1.4544 -1.1056  0.6119
  162MOL0     H21849   6.339   9.518   1.762 -0.3430 -0.5768 -0.8425
  162MOL0     H21850   7.102   9.552   2.567  0.0864  0.2464  0.2279
  162MOL0     H21851   7.138   9.601   2.805  0.6817  1.8597  1.6508
  162MOL0     H21852   7.174  10.005   3.189  0.4734  1.8832  2.8055
  162MOL0     H21853   7.116  10.055   3.418  0.2787  0.9694 -2.2240
  162MOL0     H21854   8.154  10.032   4.839 -1.8705  0.0476 -1.0782
  162MOL0     H21855   8.237  10.120   5.034  0.4718 -0.8434 -2.0234
  162MOL0     H21856   8.126  10.410   5.406 -0.7341  1.1186 -0.7386
  162MOL0     H21857   8.150  10.528   5.623 -0.8657  3.1380  0.4646
  162MOL0     H21858   8.182  10.771   5.762 -0.6537  3.2293  3.3579
  162MOL0     H21859   8.266  10.859   5.641 -0.2138 -1.4254 -0.1160
  162MOL0     H21860   8.402  10.799   5.913 -1.3648 -1.1161 -0.1227
  162MOL0     H21861   8.293  10.933   5.888 -1.3645 -2.2099  1.6843
  162MOL0     H21862   8.477  11.030   5.733  1.9616  1.0379  3.5158
  162MOL0     H21863   8.528  10.868   5.691 -2.2925 -0.4542 -0.0715
  162MOL0     H21864   8.558  11.004   5.955 -3.8556 -1.3226 -1.9167
  162MOL0     H21865   8.646  10.858   5.907 -0.2114 -0.2658  1.0238
  162MOL0     H21866   8.889  11.159   5.742 -1.1350  2.0805  0.2256
  162MOL0     H21867   8.474  10.765   5.462 -0.7806  1.7528 -0.7757
  162MOL0     H21868   8.466  10.787   5.190 -3.7028 -0.2581  0.5667
  162MOL0     H21869   8.569  10.657   5.237 -0.5433 -0.9360 -0.0697
  162MOL0     H21870   8.465  10.624   5.109  1.7192 -0.8130 -0.2783
  163MOL0     O21871   1.549   9.516   6.598 -0.3335  0.2178 -1.0081
  163MOL0     C21872   1.518   9.423   6.520 -0.1085 -0.3719 -0.0222
  163MOL0     O21873   1.419   9.352   6.532  0.0909  0.0409 -0.9568
  163MOL0     C21874   1.315   9.370   6.627  0.3745 -0.4075 -0.4069
  163MOL0     C21875   1.259   9.252   6.677 -0.9226 -0.2561  0.0689
  163MOL0     C21876   1.166   9.257   6.782 -0.2165 -0.0244  0.5072
  163MOL0     C21877   1.124   9.386   6.837 -0.5984  0.7947  0.5309
  163MOL0     O21878   1.060   9.387   6.965  0.1583  0.2471  1.4828
  163MOL0     C21879   1.048   9.507   7.032 -0.3624 -0.3032  0.4474
  163MOL0     C21880   0.981   9.478   7.164 -0.0380 -0.3807  0.1840
  163MOL0     C21881   1.069   9.539   7.276  0.6515 -0.2486 -0.3309
  163MOL0     C21882   1.018   9.505   7.415 -0.0207  1.0134 -0.7324
  163MOL0     C21883   1.109   9.570   7.526  0.0890  0.9125 -0.6000
  163MOL0     C21884   1.147   9.712   7.542 -1.1604 -0.3120 -0.0586
  163MOL0     C21885   1.014   9.793   7.564  0.0680  0.0291  0.5916
  163MOL0     C21886   1.029   9.944   7.547 -0.1715 -0.8160  1.8771
  163MOL0     N21887   1.039   9.973   7.401 -1.1777  1.2368 -1.3992
  163MOL0     C21888   0.936   9.950   7.311 -0.5495 -0.7465  0.5632
  163MOL0     C21889   0.993   9.960   7.190  1.5436 -0.5236  0.0193
  163MOL0     C21890   0.925   9.943   7.059 -0.7726 -0.5612  0.5595
  163MOL0     C21891   0.781   9.888   7.077  0.7166 -0.3431  0.0761
  163MOL0     C21892   0.724   9.832   6.958 -0.0507 -0.0291  0.4907
  163MOL0     C21893   0.565   9.813   6.969  0.4813 -1.2832 -0.4709
  163MOL0     O21894   0.486   9.929   7.010  0.7280 -0.0318  0.5027
  163MOL0     C21895   0.400  10.004   6.924  1.0194  0.3942 -0.8480
  163MOL0     C21896   0.312  10.099   6.989  0.0314 -0.4628  0.8671
  163MOL0     C21897   0.228  10.172   6.907  1.6930  0.7847 -0.2884
  163MOL0     C21898   0.209  10.155   6.768 -0.0196 -0.3131 -1.1082
  163MOL0     C21899   0.090  10.211   6.695  0.7141 -0.3593  0.0739
  163MOL0     O21900   0.076  10.168   6.570  0.2312 -0.4903  0.0693
  163MOL0     C21901  -0.051  10.184   6.517 -0.0675  0.6552  0.5103
  163MOL0     C21902  -0.159  10.104   6.568 -0.6908 -0.4600 -0.1698
  163MOL0     C21903  -0.288  10.104   6.513 -0.7214 -0.0932 -0.5904
  163MOL0     C21904  -0.307  10.178   6.392 -0.4046  0.8930 -0.4608
  163MOL0     O21905  -0.424  10.153   6.331  0.3484  0.3409 -0.4585
  163MOL0     C21906  -0.483  10.249   6.241 -0.3044  0.6728 -0.2865
  163MOL0     C21907  -0.435  10.235   6.092 -0.4044 -0.7499 -0.2689
  163MOL0     C21908  -0.515  10.338   6.000 -0.1525  0.0681  0.7504
  163MOL0     C21909  -0.443  10.366   5.871 -0.9471 -0.1265  0.4222
  163MOL0     C21910  -0.481  10.509   5.824  0.0940  0.3819 -0.1434
  163MOL0     C21911  -0.622  10.533   5.773  0.7379  0.4872  0.0049
  163MOL0     C21912  -0.666  10.672   5.757  0.0776  0.1046 -0.4814
  163MOL0     C21913  -0.809  10.678   5.698 -0.3597  0.3363 -0.3010
  163MOL0    Cl21914  -0.940  10.614   5.806 -0.1149 -0.1469 -0.1353
  163MOL0     C21915  -0.203  10.260   6.345  0.8208 -0.2984  0.0302
  163MOL0     C21916  -0.076  10.256   6.408 -0.7337 -0.1019 -0.6361
  163MOL0     O21917   0.020  10.288   6.755  0.6995  0.1147 -0.1280
  163MOL0     C21918   0.291  10.054   6.705  0.0053 -0.0564 -0.1773
  163MOL0     C21919   0.386   9.988   6.790 -1.1780  0.1043  0.9084
  163MOL0     N21920   1.123  10.003   7.212 -0.2305 -0.2666 -0.2251
  163MOL0     N21921   1.154  10.001   7.336 -0.3250 -0.3845  0.3761
  163MOL0     C21922   1.171   9.498   6.770 -0.2567 -0.0869 -0.1644
  163MOL0     C21923   1.265   9.496   6.665 -0.4394  0.3746 -0.0612
  163MOL0     C21924   1.587   9.413   6.395 -0.2885  0.9178  0.3733
  163MOL0     C21925   1.504   9.376   6.285  1.0192  0.5007  0.6817
  163MOL0     C21926   1.557   9.382   6.154  0.4166  0.1982 -0.4494
  163MOL0     C21927   1.692   9.400   6.126 -0.4742  0.1320 -0.0364
  163MOL0     O21928   1.755   9.373   6.004 -0.1378  0.3921 -0.2358
  163MOL0     C21929   1.712   9.454   5.898 -0.6509 -0.3221  0.4281
  163MOL0     C21930   1.649   9.367   5.792  0.7055  0.4933 -1.1262
  163MOL0     C21931   1.645   9.211   5.823 -0.8131 -0.2666  0.3777
  163MOL0     C21932   1.593   9.127   5.712 -0.3693  0.4240  0.1210
  163MOL0     C21933   1.670   9.139   5.590 -0.1142 -0.3794 -0.3703
  163MOL0     C21934   1.739   9.115   5.492  0.4096 -0.2086 -0.6122
  163MOL0     C21935   1.769   9.442   6.233  0.1513 -0.3447  0.4777
  163MOL0     C21936   1.722   9.452   6.362 -0.1615 -0.7728  0.5588
  163MOL0     C21937   1.818   9.504   6.464 -1.2339 -0.5160  0.7237
  163MOL0     H21938   1.304   9.158   6.646  1.6216  1.1653 -0.8915
  163MOL0     H21939   1.154   9.164   6.838  2.5548 -0.2027  0.9732
  163MOL0     H21940   1.148   9.550   7.042 -1.0590  1.1733  1.3321
  163MOL0     H21941   0.972   9.570   6.985 -2.3823 -3.4191 -0.7989
  163MOL0     H21942   1.005   9.374   7.187 -1.0804 -0.7297 -0.2811
  163MOL0     H21943   0.878   9.513   7.169 -0.1029  0.2030 -3.0281
  163MOL0     H21944   1.081   9.648   7.275 -0.7100 -0.0516 -2.5572
  163MOL0     H21945   1.162   9.482   7.263 -0.0281 -0.9098 -2.6811
  163MOL0     H21946   0.920   9.551   7.428 -0.4237 -0.4272  2.4102
  163MOL0     H21947   1.018   9.396   7.428 -0.8790  0.2630 -5.3428
  163MOL0     H21948   1.065   9.529   7.618 -0.9473  1.4584 -0.8386
  163MOL0     H21949   1.205   9.518   7.522 -0.2501 -0.2697  2.9250
  163MOL0     H21950   1.213   9.719   7.629  0.4327 -2.0164 -1.0666
  163MOL0     H21951   1.199   9.753   7.455 -1.2624 -0.5840 -0.2468
  163MOL0     H21952   0.977   9.770   7.665 -1.8425  2.4407  0.5291
  163MOL0     H21953   0.940   9.754   7.493  0.7053  2.7691 -1.7393
  163MOL0     H21954   0.941  10.003   7.575 -1.6818 -0.2099 -3.1181
  163MOL0     H21955   1.118   9.971   7.604  0.4672 -0.3709  0.7009
  163MOL0     H21956   0.844   9.899   7.340 -2.1417 -0.1680 -2.9893
  163MOL0     H21957   0.906  10.031   6.998 -0.1988 -3.1834 -3.8459
  163MOL0     H21958   0.993   9.875   7.006 -0.5333 -0.7678  1.1172
  163MOL0     H21959   0.779   9.813   7.157 -1.0039  0.6841  1.0595
  163MOL0     H21960   0.728   9.976   7.115 -0.2217 -0.9612  0.2256
  163MOL0     H21961   0.767   9.737   6.928 -0.1666  0.5700 -1.7711
  163MOL0     H21962   0.749   9.908   6.883  2.9765  0.3202  1.7314
  163MOL0     H21963   0.556   9.729   7.039  3.8375 -0.8680  0.6574
  163MOL0     H21964   0.535   9.788   6.867 -0.4179  0.4337 -0.6609
  163MOL0     H21965   0.313  10.109   7.097  0.6450 -1.6016  0.9880
  163MOL0     H21966   0.166  10.243   6.961  4.2163  1.4891  1.8965
  163MOL0     H21967  -0.131  10.042   6.652  2.1925  1.8506  0.7439
  163MOL0     H21968  -0.365  10.045   6.561 -1.0266 -1.3072 -2.4586
  163MOL0     H21969  -0.591  10.234   6.231 -0.8128  2.9247  0.9764
  163MOL0     H21970  -0.471  10.353   6.272 -1.3845  0.2016  1.9357
  163MOL0     H21971  -0.336  10.278   6.075 -1.3186  2.7543  2.1553
  163MOL0     H21972  -0.450  10.132   6.058  0.9567 -1.4202  1.0246
  163MOL0     H21973  -0.616  10.304   5.974  0.4863  0.6058 -3.0144
  163MOL0     H21974  -0.527  10.426   6.064 -0.8646 -0.1172  0.8822
  163MOL0     H21975  -0.454  10.285   5.798  1.4499 -0.9597  0.8804
  163MOL0     H21976  -0.336  10.358   5.895 -1.1417 -0.5741  1.1934
  163MOL0     H21977  -0.403  10.531   5.751 -0.9232 -2.5858 -2.3616
  163MOL0     H21978  -0.454  10.585   5.897  0.3873  0.7355 -0.6135
  163MOL0     H21979  -0.629  10.487   5.674  2.7085  1.7092 -0.7586
  163MOL0     H21980  -0.699  10.488   5.837 -3.2620  1.3198 -3.6811
  163MOL0     H21981  -0.594  10.738   5.709 -1.8336  3.1483  0.5419
  163MOL0     H21982  -0.678  10.711   5.859 -0.1115 -4.1408  1.3234
  163MOL0     H21983  -0.827  10.784   5.675 -0.7423 -0.2226 -2.9637
  163MOL0     H21984  -0.811  10.615   5.608  0.9154 -2.8895  1.7585
  163MOL0     H21985  -0.206  10.320   6.254  3.5558 -0.0839 -0.0152
  163MOL0     H21986   0.007  10.318   6.377 -0.8401  0.8923  0.9781
  163MOL0     H21987   0.289  10.034   6.599  2.4613  0.5159 -0.3983
  163MOL0     H21988   0.454   9.920   6.739  2.7669  1.8962  3.2145
  163MOL0     H21989   1.169   9.596   6.816  0.9639  0.7641 -1.8199
  163MOL0     H21990   1.302   9.590   6.626  0.2469  0.4159  0.6526
  163MOL0     H21991   1.401   9.343   6.288  0.9106  0.8575  0.8963
  163MOL0     H21992   1.500   9.376   6.062  3.1012  0.9481 -2.2907
  163MOL0     H21993   1.797   9.504   5.852 -2.5048  1.1344 -1.6068
  163MOL0     H21994   1.645   9.534   5.931 -1.9456 -0.4410 -1.6859
  163MOL0     H21995   1.713   9.394   5.707  2.6129  2.8386  0.9051
  163MOL0     H21996   1.549   9.406   5.769  0.0788 -2.1927 -3.5060
  163MOL0     H21997   1.573   9.200   5.905 -0.1129 -0.2532  1.0175
  163MOL0     H21998   1.736   9.160   5.858 -2.0499 -4.0265 -1.4651
  163MOL0     H21999   1.570   9.022   5.731 -1.4493  0.2632 -1.8064
  163MOL0     H22000   1.493   9.166   5.689  0.8180  2.7818 -1.3509
  163MOL0     H22001   1.816   9.097   5.420 -0.9695 -1.0931 -1.9247
  163MOL0     H22002   1.864   9.489   6.211  0.3429 -0.8082  0.2989
  163MOL0     H22003   1.856   9.418   6.520  2.8985  0.6353  0.0650
  163MOL0     H22004   1.895   9.552   6.403 -5.5291  0.9274 -4.3275
  163MOL0     H22005   1.782   9.591   6.519  2.4570  2.0273 -0.5125
  164MOL0     O22006   1.116   5.934   4.930 -0.3280 -0.1263  0.4201
  164MOL0     C22007   1.166   5.980   4.826  0.8053  0.1262 -0.4689
  164MOL0     O22008   1.137   6.102   4.769  0.5609  0.3492  0.6174
  164MOL0     C22009   1.053   6.183   4.835  0.5498  0.5243 -0.6960
  164MOL0     C22010   0.914   6.186   4.814  0.2716 -0.0551  0.1183
  164MOL0     C22011   0.834   6.289   4.877 -0.6674  0.2418  0.2902
  164MOL0     C22012   0.895   6.385   4.951 -0.2265 -0.4506 -0.8090
  164MOL0     O22013   0.846   6.491   5.022 -0.1341  0.0999  0.4347
  164MOL0     C22014   0.702   6.502   5.018 -0.3190  0.1090 -0.4012
  164MOL0     C22015   0.654   6.584   4.904  0.9405  0.4002  0.5073
  164MOL0     C22016   0.506   6.591   4.924  0.5453 -0.5145 -0.2572
  164MOL0     C22017   0.449   6.658   4.803  0.6815  0.5132  1.0780
  164MOL0     C22018   0.301   6.691   4.819 -0.7692 -0.3294  0.3312
  164MOL0     C22019   0.243   6.731   4.680 -0.4726  0.1141 -0.5691
  164MOL0     C22020   0.103   6.796   4.707  0.4931 -0.0557 -0.4231
  164MOL0     C22021  -0.002   6.693   4.735  0.0643  0.3368  0.2494
  164MOL0     N22022  -0.130   6.751   4.760  0.9476  0.0171 -0.2614
  164MOL0     C22023  -0.161   6.875   4.812 -0.2903 -0.1132 -0.1773
  164MOL0     C22024  -0.295   6.880   4.793  0.2012 -0.1190 -0.5585
  164MOL0     C22025  -0.382   6.997   4.841  0.1478  0.3425 -0.3538
  164MOL0     C22026  -0.498   7.039   4.741 -0.7283  0.8940 -0.1936
  164MOL0     C22027  -0.610   6.943   4.728  1.0594 -0.0590 -0.3506
  164MOL0     C22028  -0.668   6.875   4.855  0.1692  0.7929 -0.1223
  164MOL0     O22029  -0.795   6.804   4.833  0.3908  0.6753 -0.6237
  164MOL0     C22030  -0.835   6.706   4.911 -0.1907  0.3549  0.1412
  164MOL0     C22031  -0.782   6.676   5.038  0.9571 -0.0386  0.3403
  164MOL0     C22032  -0.837   6.564   5.102 -1.0978 -0.3905 -0.8253
  164MOL0     C22033  -0.943   6.490   5.050 -0.2457  0.7222  0.6912
  164MOL0     C22034  -0.988   6.368   5.129  1.0862 -0.1439  0.6304
  164MOL0     O22035  -0.938   6.347   5.255 -0.6711 -0.0802 -0.2633
  164MOL0     C22036  -0.957   6.230   5.329 -0.3214 -0.6651  1.7642
  164MOL0     C22037  -1.048   6.231   5.429 -0.0508 -1.1194 -0.1792
  164MOL0     C22038  -1.083   6.112   5.503 -0.4979 -0.9524  0.3265
  164MOL0     C22039  -1.013   5.987   5.477  0.3342 -0.2717 -0.4377
  164MOL0     O22040  -1.033   5.877   5.554  0.8107 -0.3297 -0.1591
  164MOL0     C22041  -1.161   5.862   5.630 -0.3889 -0.6867  0.3695
  164MOL0     C22042  -1.192   5.720   5.667  0.5092  0.0117  0.5682
  164MOL0     C22043  -1.226   5.630   5.546  0.6613 -0.2148  0.7679
  164MOL0     C22044  -1.219   5.485   5.592  1.0242  0.5803  0.2377
  164MOL0     C22045  -1.332   5.430   5.682 -0.3007  0.4523  0.6254
  164MOL0     C22046  -1.310   5.285   5.725  0.5020  0.8329  0.4059
  164MOL0     C22047  -1.432   5.229   5.811 -0.9383  0.2840  0.0582
  164MOL0     C22048  -1.413   5.082   5.857  0.0830  0.6838  0.4683
  164MOL0    Cl22049  -1.576   5.022   5.900  0.1868  0.0857  0.2725
  164MOL0     C22050  -0.939   5.986   5.361 -0.2766 -1.2044  0.1273
  164MOL0     C22051  -0.896   6.104   5.295 -0.1483  0.6555  0.9454
  164MOL0     O22052  -1.061   6.290   5.061 -0.2867 -0.1675  0.2487
  164MOL0     C22053  -0.986   6.515   4.919  0.1211  0.2762 -0.7624
  164MOL0     C22054  -0.941   6.630   4.855 -0.5583  0.5019 -0.3195
  164MOL0     N22055  -0.342   6.762   4.736  0.1728 -0.7188 -0.2324
  164MOL0     N22056  -0.241   6.690   4.716  0.2620  0.4159 -0.4783
  164MOL0     C22057   1.028   6.372   4.980 -0.7591  0.6843 -0.2712
  164MOL0     C22058   1.110   6.273   4.926 -0.6222  0.2106  0.1050
  164MOL0     C22059   1.256   5.898   4.743  0.1618  0.3427 -0.3085
  164MOL0     C22060   1.377   5.857   4.806  0.6930  0.2373 -0.1169
  164MOL0     C22061   1.466   5.803   4.725 -0.4413 -0.4074 -0.7830
  164MOL0     C22062   1.453   5.794   4.583  0.6148 -0.0969  0.2681
  164MOL0     O22063   1.539   5.727   4.490 -0.4533 -0.1744 -0.5830
  164MOL0     C22064   1.669   5.692   4.536  0.7021  0.0044 -0.6768
  164MOL0     C22065   1.758   5.649   4.418 -0.0555 -0.8055  0.3612
  164MOL0     C22066   1.699   5.547   4.308  0.3852  0.3823  0.1781
  164MOL0     C22067   1.810   5.489   4.215  0.7134  0.2373  0.7204
  164MOL0     C22068   1.885   5.600   4.152  0.1509  0.8654 -0.3200
  164MOL0     C22069   1.939   5.706   4.116 -0.0003  0.3823 -0.7291
  164MOL0     C22070   1.332   5.844   4.522  0.0030 -0.3610  0.4302
  164MOL0     C22071   1.234   5.892   4.607  1.1958 -0.1288  0.7576
  164MOL0     C22072   1.104   5.929   4.532 -0.4768  0.4430 -0.9507
  164MOL0     H22073   0.880   6.114   4.739 -0.0198  1.1130 -0.9040
  164MOL0     H22074   0.727   6.293   4.861 -0.9424 -0.5655  1.7139
  164MOL0     H22075   0.647   6.407   5.019 -3.8393  1.9466 -1.1501
  164MOL0     H22076   0.677   6.543   5.116  1.9076 -1.1349  0.7580
  164MOL0     H22077   0.684   6.533   4.812 -0.6035  0.3942 -0.0082
  164MOL0     H22078   0.696   6.685   4.915  4.9275 -0.8519 -1.1861
  164MOL0     H22079   0.481   6.651   5.012 -0.3733 -2.5521  0.9511
  164MOL0     H22080   0.458   6.493   4.939 -0.6524  0.1251  0.2323
  164MOL0     H22081   0.504   6.750   4.778 -2.6748  2.1283 -1.0020
  164MOL0     H22082   0.455   6.594   4.715  2.4609 -0.1378  1.6206
  164MOL0     H22083   0.247   6.612   4.871  0.4788 -1.5642 -0.1889
  164MOL0     H22084   0.299   6.783   4.877 -1.4856  0.2073 -0.5113
  164MOL0     H22085   0.314   6.798   4.632 -0.1715 -0.7494 -1.3372
  164MOL0     H22086   0.229   6.644   4.616 -0.0641  0.5346 -1.2434
  164MOL0     H22087   0.070   6.857   4.622  1.2402  0.5618 -0.2797
  164MOL0     H22088   0.107   6.868   4.790  1.1693 -1.5833  0.9316
  164MOL0     H22089   0.001   6.610   4.664  0.3186  0.2786  0.3263
  164MOL0     H22090   0.024   6.641   4.828 -3.7967  1.8553  2.4002
  164MOL0     H22091  -0.094   6.947   4.858  1.7876 -0.8138 -1.9404
  164MOL0     H22092  -0.434   6.969   4.932 -0.2786 -0.9494 -0.9692
  164MOL0     H22093  -0.315   7.084   4.848  1.5231 -0.5286 -1.8214
  164MOL0     H22094  -0.518   7.146   4.757  1.3962  1.1094  1.5366
  164MOL0     H22095  -0.448   7.035   4.645  1.8468  0.5799  1.0763
  164MOL0     H22096  -0.571   6.870   4.656  2.7642 -3.3076  3.4629
  164MOL0     H22097  -0.687   7.008   4.684 -0.8617 -3.0959 -1.8122
  164MOL0     H22098  -0.688   6.955   4.927 -0.6915  0.3669  0.1395
  164MOL0     H22099  -0.592   6.808   4.896 -1.5339  0.1208  2.1658
  164MOL0     H22100  -0.699   6.726   5.087  2.1277 -2.2307  0.7352
  164MOL0     H22101  -0.792   6.542   5.198  0.2037  4.8342  0.1071
  164MOL0     H22102  -1.097   6.327   5.446 -0.5976 -1.3989 -0.1608
  164MOL0     H22103  -1.170   6.120   5.568 -2.1094  3.5362 -1.9533
  164MOL0     H22104  -1.160   5.916   5.725  0.8677  1.3679 -0.7441
  164MOL0     H22105  -1.249   5.900   5.577 -1.5152  0.7391  3.0442
  164MOL0     H22106  -1.112   5.678   5.728 -0.9572  0.5238  2.9536
  164MOL0     H22107  -1.281   5.714   5.730 -1.1387 -0.9322 -1.7179
  164MOL0     H22108  -1.325   5.658   5.510  0.4711 -0.2238  1.2832
  164MOL0     H22109  -1.159   5.642   5.460 -0.8698 -4.8181 -1.4120
  164MOL0     H22110  -1.123   5.460   5.640  1.3156  1.1030 -0.0707
  164MOL0     H22111  -1.222   5.421   5.503  0.1999 -1.2387  1.4930
  164MOL0     H22112  -1.428   5.449   5.633 -0.5590 -2.7873 -0.3949
  164MOL0     H22113  -1.331   5.493   5.771  0.8306 -0.0592  0.9863
  164MOL0     H22114  -1.317   5.234   5.628 -0.4239  2.6932 -0.5589
  164MOL0     H22115  -1.216   5.277   5.779  0.3973  0.2965  0.5212
  164MOL0     H22116  -1.517   5.236   5.741 -0.3007 -2.3591 -1.0917
  164MOL0     H22117  -1.452   5.300   5.892  2.3941 -0.5323  1.7759
  164MOL0     H22118  -1.370   5.026   5.773  2.4047  0.6921  1.5772
  164MOL0     H22119  -1.339   5.060   5.934  0.0864 -0.6529  0.1054
  164MOL0     H22120  -0.894   5.894   5.327  0.1270 -1.1516  0.5181
  164MOL0     H22121  -0.817   6.107   5.221  3.0081  0.9607  4.0885
  164MOL0     H22122  -1.054   6.456   4.857 -0.6826  2.2165 -1.8631
  164MOL0     H22123  -0.991   6.667   4.766 -1.7589  1.7467  0.8248
  164MOL0     H22124   1.076   6.431   5.056 -2.4153  0.6903  0.8279
  164MOL0     H22125   1.216   6.279   4.950 -0.7250 -0.0925  0.6547
  164MOL0     H22126   1.403   5.864   4.911  0.1285 -2.1233  0.2355
  164MOL0     H22127   1.547   5.753   4.776  0.0174 -0.7018 -1.7778
  164MOL0     H22128   1.653   5.607   4.603 -0.9482  0.2982 -0.6519
  164MOL0     H22129   1.706   5.771   4.602 -0.5139 -0.7788  1.0125
  164MOL0     H22130   1.849   5.606   4.461  1.5442  1.4325 -0.5874
  164MOL0     H22131   1.783   5.735   4.355 -2.3414 -1.7034 -1.8947
  164MOL0     H22132   1.630   5.604   4.245 -1.6944  0.6516  2.5407
  164MOL0     H22133   1.643   5.464   4.352 -0.6871  1.5382  1.0505
  164MOL0     H22134   1.868   5.416   4.272 -1.4943 -1.5924  0.7598
  164MOL0     H22135   1.758   5.436   4.135 -1.6486  2.6135  0.5438
  164MOL0     H22136   1.993   5.793   4.086  1.0005  0.1074  0.1984
  164MOL0     H22137   1.315   5.843   4.415 -3.9341  2.6342  0.8039
  164MOL0     H22138   1.098   5.853   4.454  2.9252 -0.2351 -0.6989
  164MOL0     H22139   1.011   5.930   4.589 -1.3175  2.7092 -2.2626
  164MOL0     H22140   1.119   6.033   4.503  0.8741  0.4343 -0.3748
  165MOL0     O22141   2.309   6.876   6.687 -0.5735 -0.5547  0.6474
  165MOL0     C22142   2.287   6.926   6.795 -0.1665  0.1845  0.4031
  165MOL0     O22143   2.200   6.867   6.884 -0.1877  0.4403  0.6028
  165MOL0     C22144   2.120   6.773   6.830  0.9158  0.3340 -0.7412
  165MOL0     C22145   2.001   6.804   6.771 -0.0268 -0.6419  0.0497
  165MOL0     C22146   1.908   6.718   6.705 -0.4937  0.3568 -0.2829
  165MOL0     C22147   1.945   6.573   6.704 -0.2228 -0.6568 -0.3123
  165MOL0     O22148   1.870   6.475   6.644 -0.0235 -0.7697 -0.2037
  165MOL0     C22149   1.736   6.514   6.591  0.0845 -0.3397 -0.7966
  165MOL0     C22150   1.679   6.391   6.515 -0.4398  0.6432 -0.6906
  165MOL0     C22151   1.654   6.277   6.613 -0.0600  0.5327 -0.1085
  165MOL0     C22152   1.590   6.162   6.529 -0.4542  0.6496  0.4458
  165MOL0     C22153   1.670   6.033   6.542 -0.1022 -0.0633 -0.0454
  165MOL0     C22154   1.625   5.933   6.431  0.0111 -0.5516 -0.3507
  165MOL0     C22155   1.705   5.807   6.431  0.0700  0.0889 -0.2957
  165MOL0     C22156   1.659   5.696   6.331  0.4898 -0.3960 -0.3565
  165MOL0     N22157   1.666   5.730   6.192 -0.4226  0.3600 -0.4917
  165MOL0     C22158   1.754   5.800   6.109  0.3657 -0.8647 -0.1841
  165MOL0     C22159   1.715   5.792   5.981  0.3053  0.2638  0.0326
  165MOL0     C22160   1.807   5.809   5.860 -0.3933  0.6364  0.6775
  165MOL0     C22161   1.724   5.836   5.731  1.0256  0.3942 -0.1112
  165MOL0     C22162   1.662   5.708   5.665  0.5017  0.2386  0.1881
  165MOL0     C22163   1.754   5.584   5.636  0.3820 -0.4870  0.1931
  165MOL0     O22164   1.702   5.507   5.520 -0.2394  0.7440 -0.1306
  165MOL0     C22165   1.592   5.420   5.534  0.2256 -0.1572  0.2740
  165MOL0     C22166   1.496   5.400   5.644  0.3670  0.7787 -0.4828
  165MOL0     C22167   1.390   5.309   5.634 -0.7003  0.5289 -0.9852
  165MOL0     C22168   1.380   5.231   5.514 -0.3402 -0.4751 -0.3795
  165MOL0     C22169   1.273   5.137   5.498  0.7249 -0.6368 -0.8444
  165MOL0     O22170   1.285   5.043   5.410 -0.4591  0.0292  0.1313
  165MOL0     C22171   1.174   4.969   5.377 -0.1725  0.2475 -0.5776
  165MOL0     C22172   1.186   4.830   5.378 -0.4583  0.1278  0.1496
  165MOL0     C22173   1.084   4.747   5.320  0.2768 -0.4675  0.3905
  165MOL0     C22174   0.964   4.814   5.279  0.1905  0.3197 -0.2092
  165MOL0     O22175   0.856   4.735   5.243 -0.1941 -0.7946  0.0457
  165MOL0     C22176   0.752   4.795   5.152  0.2896  0.4493  0.1809
  165MOL0     C22177   0.672   4.695   5.088  0.1806  0.3709 -0.1631
  165MOL0     C22178   0.740   4.627   4.970 -0.2946  0.1425  0.4065
  165MOL0     C22179   0.636   4.557   4.883  0.9711  0.7371  1.2093
  165MOL0     C22180   0.702   4.477   4.768 -0.9700  0.0122 -0.3961
  165MOL0     C22181   0.622   4.390   4.687 -0.9786  0.4653 -0.2415
  165MOL0     C22182   0.564   4.462   4.558  0.1558 -0.3672 -0.2868
  165MOL0     C22183   0.514   4.369   4.448  0.4417 -0.8821 -0.9036
  165MOL0    Cl22184   0.328   4.352   4.446  0.1417 -0.0934  0.0278
  165MOL0     C22185   0.948   4.947   5.297  0.0276  0.7885  0.1211
  165MOL0     C22186   1.053   5.020   5.349 -0.0377  0.0527  0.3017
  165MOL0     O22187   1.179   5.146   5.565  0.0137 -0.8390  0.0484
  165MOL0     C22188   1.468   5.251   5.403 -0.3105  0.5101 -0.6438
  165MOL0     C22189   1.570   5.336   5.423 -0.4054  0.5116 -0.1347
  165MOL0     N22190   1.595   5.722   5.985 -0.9683 -0.8446  0.0962
  165MOL0     N22191   1.576   5.689   6.104  0.3117  0.4954 -1.0796
  165MOL0     C22192   2.069   6.539   6.751 -0.3916  0.3325 -0.8178
  165MOL0     C22193   2.154   6.632   6.816 -0.1350 -0.0984 -0.5430
  165MOL0     C22194   2.329   7.069   6.813  0.3041 -0.4848 -0.7012
  165MOL0     C22195   2.398   7.086   6.933 -0.3498  0.5297 -0.0443
  165MOL0     C22196   2.467   7.204   6.956 -0.0466 -0.5866 -0.4054
  165MOL0     C22197   2.445   7.310   6.872  0.8043  0.0001 -1.2558
  165MOL0     O22198   2.495   7.438   6.892  0.2276 -0.1386  0.4314
  165MOL0     C22199   2.575   7.476   7.007  0.6297  0.2947  0.5641
  165MOL0     C22200   2.570   7.637   7.010 -0.0837  0.7426 -0.3265
  165MOL0     C22201   2.681   7.696   7.097 -0.0146  1.0230 -0.9837
  165MOL0     C22202   2.639   7.701   7.245 -0.3776  0.3201 -1.0772
  165MOL0     C22203   2.751   7.732   7.330  0.1141 -0.1552 -1.0312
  165MOL0     C22204   2.843   7.764   7.401  0.4899  0.8725 -0.3963
  165MOL0     C22205   2.393   7.287   6.743  0.7490  0.2597  0.9708
  165MOL0     C22206   2.331   7.170   6.714  0.5570 -0.8265 -0.2728
  165MOL0     C22207   2.251   7.161   6.589  0.3618 -0.1971 -0.1902
  165MOL0     H22208   1.971   6.909   6.774  0.3245 -0.5567  1.4505
  165MOL0     H22209   1.811   6.741   6.661 -0.0470  0.1249 -1.4425
  165MOL0     H22210   1.664   6.541   6.669 -1.3163 -1.1837 -1.7517
  165MOL0     H22211   1.748   6.605   6.531  0.0559  0.7522  0.7967
  165MOL0     H22212   1.744   6.356   6.434 -0.8301  1.2202 -1.2639
  165MOL0     H22213   1.580   6.419   6.478  0.1152  1.4333 -1.6147
  165MOL0     H22214   1.588   6.313   6.692  2.6018  3.0211  1.1776
  165MOL0     H22215   1.751   6.240   6.648  0.2682  0.6231 -0.8861
  165MOL0     H22216   1.485   6.151   6.559 -1.1780  1.9374 -1.4227
  165MOL0     H22217   1.585   6.193   6.424 -4.6892 -1.8981 -0.3357
  165MOL0     H22218   1.777   6.051   6.530  1.4599 -4.5360  3.7824
  165MOL0     H22219   1.646   6.005   6.646  0.4412  2.4252  0.8122
  165MOL0     H22220   1.519   5.910   6.444 -0.3057  0.4830 -1.0190
  165MOL0     H22221   1.642   5.975   6.332  1.5107  2.3053  0.9797
  165MOL0     H22222   1.705   5.767   6.533  3.9505 -1.6073 -0.7764
  165MOL0     H22223   1.806   5.846   6.414 -0.6029  0.9717 -2.6382
  165MOL0     H22224   1.710   5.601   6.343 -0.5247 -0.8086  1.0477
  165MOL0     H22225   1.554   5.681   6.360  0.5847  1.0154  0.8838
  165MOL0     H22226   1.856   5.824   6.135  0.1471 -0.1544  0.0461
  165MOL0     H22227   1.867   5.899   5.877  1.3038 -0.6048  1.5356
  165MOL0     H22228   1.872   5.721   5.852 -0.2948  0.7930 -0.4291
  165MOL0     H22229   1.638   5.900   5.752 -0.1128 -0.8058 -0.8943
  165MOL0     H22230   1.776   5.888   5.650 -0.9853  2.0382 -0.4335
  165MOL0     H22231   1.638   5.751   5.567  2.4804  3.0368  0.7963
  165MOL0     H22232   1.571   5.681   5.720 -2.1538  2.1152 -2.9137
  165MOL0     H22233   1.761   5.522   5.726  1.0947  0.7526  1.0234
  165MOL0     H22234   1.851   5.627   5.609 -1.3399  2.4820 -1.8968
  165MOL0     H22235   1.516   5.455   5.736  1.4262 -0.3022 -0.0295
  165MOL0     H22236   1.323   5.294   5.718 -0.2786  1.3937 -0.4782
  165MOL0     H22237   1.282   4.791   5.412 -0.6927 -0.7080 -0.1225
  165MOL0     H22238   1.103   4.640   5.325  3.0988 -0.0081  1.2884
  165MOL0     H22239   0.681   4.849   5.216 -1.4488  2.0419 -2.8524
  165MOL0     H22240   0.800   4.867   5.085 -0.3402  0.4490 -0.2831
  165MOL0     H22241   0.630   4.616   5.151 -1.0460 -1.2907 -2.8744
  165MOL0     H22242   0.579   4.731   5.042 -0.7838 -1.0940  0.5677
  165MOL0     H22243   0.789   4.709   4.917  0.3067 -0.5163 -0.0890
  165MOL0     H22244   0.823   4.561   4.995  0.6803  0.0730 -2.5832
  165MOL0     H22245   0.561   4.625   4.841 -0.4053 -0.6996  1.2361
  165MOL0     H22246   0.575   4.492   4.946 -1.5009 -0.4252 -2.0593
  165MOL0     H22247   0.774   4.408   4.814  1.7900  0.9511 -2.9918
  165MOL0     H22248   0.759   4.546   4.706 -0.2046 -1.3133 -1.2220
  165MOL0     H22249   0.689   4.309   4.657 -1.5913 -2.0563  4.2562
  165MOL0     H22250   0.539   4.355   4.750 -0.2574  1.3909  1.2876
  165MOL0     H22251   0.644   4.522   4.513  2.0270 -1.3463  1.5388
  165MOL0     H22252   0.482   4.526   4.592  2.4152 -0.0357  5.7887
  165MOL0     H22253   0.549   4.413   4.355 -0.1083  2.8203  0.4803
  165MOL0     H22254   0.573   4.279   4.465 -0.5690 -0.8854  4.7880
  165MOL0     H22255   0.849   4.987   5.275  0.2594  1.6101  0.5106
  165MOL0     H22256   1.031   5.123   5.373 -0.5058 -0.6971  3.6366
  165MOL0     H22257   1.471   5.189   5.313  0.1176 -1.6392  0.7694
  165MOL0     H22258   1.657   5.327   5.358 -0.6638 -0.7015 -0.3241
  165MOL0     H22259   2.085   6.433   6.768 -0.9979  0.4674  0.7147
  165MOL0     H22260   2.243   6.601   6.870  0.8115  1.7692 -0.9579
  165MOL0     H22261   2.427   7.000   6.992 -0.0176 -1.1484 -2.5359
  165MOL0     H22262   2.543   7.212   7.033 -0.1260  0.4686 -0.4232
  165MOL0     H22263   2.683   7.460   6.997  0.3854 -0.8811 -0.4612
  165MOL0     H22264   2.538   7.435   7.101 -1.3550  0.8106  0.0534
  165MOL0     H22265   2.478   7.655   7.065 -1.2602 -3.7322 -0.4186
  165MOL0     H22266   2.571   7.690   6.914 -2.0870  0.2160 -0.6899
  165MOL0     H22267   2.695   7.798   7.060  1.0553  1.4614  0.5563
  165MOL0     H22268   2.774   7.638   7.098 -0.6373 -0.0166 -0.8627
  165MOL0     H22269   2.569   7.786   7.243 -0.3547  0.3342 -1.6274
  165MOL0     H22270   2.586   7.609   7.272  3.3901 -2.3027 -1.8266
  165MOL0     H22271   2.907   7.796   7.481 -0.2269  1.0287  0.1334
  165MOL0     H22272   2.400   7.372   6.675  2.4947 -0.5076  0.1433
  165MOL0     H22273   2.312   7.117   6.509  0.1858 -4.0090  1.5613
  165MOL0     H22274   2.155   7.110   6.602 -1.0047  2.7313  2.4839
  165MOL0     H22275   2.239   7.264   6.554 -0.7506  0.5791  2.3019
  166MOL0     O22276   1.357   7.013   4.314 -0.9758  0.3340 -0.0026
  166MOL0     C22277   1.345   6.931   4.221 -0.7803 -0.6459 -0.7795
  166MOL0     O22278   1.239   6.923   4.140  1.1182  0.5609 -0.7071
  166MOL0     C22279   1.126   6.989   4.183  0.6533  0.3489 -0.6128
  166MOL0     C22280   1.010   6.917   4.226  0.5074 -0.3119  0.1512
  166MOL0     C22281   0.898   6.983   4.274 -0.3625 -1.5041 -0.1747
  166MOL0     C22282   0.891   7.116   4.276  0.4297 -0.3276 -0.8574
  166MOL0     O22283   0.786   7.181   4.324  0.1244  0.1355 -0.3193
  166MOL0     C22284   0.666   7.171   4.255 -0.3752  0.1447 -0.0044
  166MOL0     C22285   0.667   7.181   4.103 -0.7155 -0.9188  0.5533
  166MOL0     C22286   0.519   7.152   4.058 -0.3229 -0.1502 -1.4531
  166MOL0     C22287   0.426   7.275   4.092  0.2468 -0.5071  1.3680
  166MOL0     C22288   0.432   7.382   3.990 -0.5144  0.5953 -0.3540
  166MOL0     C22289   0.311   7.472   4.006 -1.2221  0.0070  0.3176
  166MOL0     C22290   0.295   7.555   3.875  0.0930  0.4345 -0.1479
  166MOL0     C22291   0.201   7.488   3.775 -0.5895 -0.7741 -0.0121
  166MOL0     N22292   0.210   7.339   3.760  0.3850  0.0198 -0.4698
  166MOL0     C22293   0.167   7.245   3.846 -0.6726  0.7909  0.1212
  166MOL0     C22294   0.211   7.122   3.795 -0.7298  0.6539  0.2076
  166MOL0     C22295   0.191   6.978   3.847 -0.4073  0.9461  0.1593
  166MOL0     C22296   0.059   6.915   3.796 -0.5082 -1.1957 -0.3839
  166MOL0     C22297   0.057   6.860   3.658  0.7116  0.3125  0.1745
  166MOL0     C22298  -0.069   6.776   3.626  0.0652  0.8420 -0.4651
  166MOL0     O22299  -0.178   6.861   3.638 -0.4497 -0.7995 -0.7256
  166MOL0     C22300  -0.302   6.810   3.611 -0.0627  0.5326 -1.4189
  166MOL0     C22301  -0.332   6.687   3.550  0.2359 -0.1225  0.2275
  166MOL0     C22302  -0.460   6.651   3.517 -0.4325  0.2504  0.5268
  166MOL0     C22303  -0.564   6.744   3.534  0.0738  0.1761  0.6663
  166MOL0     C22304  -0.705   6.732   3.494  0.8712 -0.6865  0.0639
  166MOL0     O22305  -0.730   6.612   3.427  0.5302  0.0990  0.6283
  166MOL0     C22306  -0.861   6.589   3.383 -0.1018 -0.0397  0.0152
  166MOL0     C22307  -0.914   6.462   3.427 -0.1526  0.8737  0.1510
  166MOL0     C22308  -1.039   6.429   3.378 -0.4823  0.0700 -0.3135
  166MOL0     C22309  -1.115   6.508   3.290 -0.4955  0.1386  0.2888
  166MOL0     O22310  -1.240   6.484   3.232  0.2256  0.0264 -0.9927
  166MOL0     C22311  -1.308   6.371   3.287  0.5448  0.1291  0.3382
  166MOL0     C22312  -1.460   6.381   3.250 -0.1998 -0.7520 -0.7662
  166MOL0     C22313  -1.473   6.372   3.094  0.2332 -0.2004  0.4171
  166MOL0     C22314  -1.612   6.304   3.070 -0.2151 -0.3594  0.4478
  166MOL0     C22315  -1.738   6.397   3.107  0.0925 -0.9475 -0.3958
  166MOL0     C22316  -1.874   6.344   3.070  1.3693 -0.7654  1.1446
  166MOL0     C22317  -1.918   6.234   3.166  0.7227  0.1117 -0.2439
  166MOL0     C22318  -2.057   6.178   3.148 -0.0843 -0.7599 -0.0098
  166MOL0    Cl22319  -2.052   6.063   3.013 -0.7113  0.4435 -0.4173
  166MOL0     C22320  -1.063   6.630   3.250  0.2241  1.0426 -0.2128
  166MOL0     C22321  -0.934   6.670   3.302  1.1282  1.0989 -0.5806
  166MOL0     O22322  -0.786   6.821   3.513  0.5220  0.4918 -0.1660
  166MOL0     C22323  -0.535   6.866   3.593 -0.4318  1.5559 -0.4322
  166MOL0     C22324  -0.406   6.900   3.628 -0.3346  0.2478  0.5827
  166MOL0     N22325   0.290   7.145   3.689 -1.1852  0.0896  0.7742
  166MOL0     N22326   0.291   7.277   3.674 -0.6215 -0.0239 -0.0188
  166MOL0     C22327   1.009   7.195   4.247 -0.2611  0.1720 -0.0333
  166MOL0     C22328   1.120   7.130   4.194 -0.8047 -0.1828  1.1209
  166MOL0     C22329   1.474   6.863   4.176 -0.2096 -0.0349 -1.0330
  166MOL0     C22330   1.511   6.863   4.045  0.0972  0.4667  0.6922
  166MOL0     C22331   1.607   6.782   3.994  0.3186 -0.4947 -0.9702
  166MOL0     C22332   1.683   6.693   4.076 -0.6381 -0.9114  0.5720
  166MOL0     O22333   1.779   6.626   4.016  0.0704  0.2622  0.4766
  166MOL0     C22334   1.800   6.493   4.066  0.3574 -0.7862 -0.2178
  166MOL0     C22335   1.918   6.439   3.989 -0.4508 -0.3821  0.3753
  166MOL0     C22336   1.867   6.346   3.873  0.2922 -0.4506  0.3839
  166MOL0     C22337   1.997   6.283   3.807  0.2174  0.6624 -0.7298
  166MOL0     C22338   2.042   6.365   3.692  0.1382  0.1625 -0.2599
  166MOL0     C22339   2.081   6.419   3.586  0.0922 -0.2452  1.0681
  166MOL0     C22340   1.654   6.702   4.222  0.5424 -0.3007  0.0867
  166MOL0     C22341   1.547   6.782   4.265 -0.5175  0.1425 -0.3697
  166MOL0     C22342   1.523   6.775   4.409  0.0913  0.2347 -0.2959
  166MOL0     H22343   0.994   6.810   4.229 -1.4324 -0.0358  1.4430
  166MOL0     H22344   0.819   6.919   4.314  0.1812 -1.0970  1.6608
  166MOL0     H22345   0.611   7.080   4.281 -3.4827  1.7133 -0.6008
  166MOL0     H22346   0.607   7.258   4.287 -5.0492 -0.5303 -5.2330
  166MOL0     H22347   0.733   7.113   4.049 -0.2854  0.7507 -1.1521
  166MOL0     H22348   0.687   7.278   4.057  1.3373 -2.9561 -3.2936
  166MOL0     H22349   0.481   7.060   4.105  1.8413  1.0593  3.3944
  166MOL0     H22350   0.512   7.138   3.950  2.3341 -0.3899 -1.6590
  166MOL0     H22351   0.326   7.231   4.090  1.0090 -2.6055  3.9431
  166MOL0     H22352   0.437   7.318   4.191  3.0452  0.4347  0.7413
  166MOL0     H22353   0.526   7.434   4.011  0.7737 -1.8595  0.3857
  166MOL0     H22354   0.440   7.334   3.892  2.0010 -1.3820  0.6809
  166MOL0     H22355   0.222   7.416   4.036 -1.3634 -0.8838 -1.6176
  166MOL0     H22356   0.335   7.536   4.092 -1.1114 -0.3554  0.5579
  166MOL0     H22357   0.397   7.580   3.845  1.4540 -1.4002  2.5549
  166MOL0     H22358   0.251   7.653   3.901  1.4019  1.1459 -0.5329
  166MOL0     H22359   0.101   7.507   3.813  0.4698  1.1506  2.0506
  166MOL0     H22360   0.218   7.531   3.676  4.5001 -0.2915  0.7991
  166MOL0     H22361   0.100   7.260   3.930  1.3440  1.2256  1.7235
  166MOL0     H22362   0.276   6.917   3.814 -0.1290  1.7236 -0.6137
  166MOL0     H22363   0.195   6.979   3.956  2.2355  2.1546  0.1228
  166MOL0     H22364   0.048   6.827   3.861 -3.0138 -3.6423 -3.7391
  166MOL0     H22365  -0.024   6.983   3.817  1.0716  0.4227  0.8502
  166MOL0     H22366   0.142   6.795   3.633 -1.4696 -2.6925 -0.0361
  166MOL0     H22367   0.069   6.945   3.590  5.0193  0.9341  1.4123
  166MOL0     H22368  -0.084   6.706   3.709 -2.2132  3.4925  1.5606
  166MOL0     H22369  -0.068   6.726   3.529 -0.0801 -0.5552  0.2209
  166MOL0     H22370  -0.257   6.612   3.531 -0.3705 -0.6518 -0.1317
  166MOL0     H22371  -0.486   6.557   3.469  0.5710 -0.1564  0.7669
  166MOL0     H22372  -0.854   6.405   3.496 -3.2868  0.5836  2.8850
  166MOL0     H22373  -1.072   6.329   3.403 -0.6634  0.5434  1.4996
  166MOL0     H22374  -1.261   6.275   3.260  0.7942 -1.0013  4.1682
  166MOL0     H22375  -1.300   6.358   3.396  0.2303  1.3552  0.5145
  166MOL0     H22376  -1.515   6.300   3.299 -2.4117  0.9082 -0.3487
  166MOL0     H22377  -1.495   6.475   3.292  2.8983  0.1301  0.1075
  166MOL0     H22378  -1.477   6.474   3.053 -1.5057  0.9897  3.2805
  166MOL0     H22379  -1.395   6.315   3.043 -0.2637  0.1008 -0.7025
  166MOL0     H22380  -1.609   6.214   3.133 -0.2747  0.6774  1.9785
  166MOL0     H22381  -1.618   6.274   2.965 -3.7613 -2.8887  1.1794
  166MOL0     H22382  -1.721   6.494   3.059  1.0998  1.1263  3.7688
  166MOL0     H22383  -1.722   6.411   3.214  0.3202 -2.6780 -0.1599
  166MOL0     H22384  -1.942   6.428   3.081  2.0843 -0.1418  0.8874
  166MOL0     H22385  -1.861   6.311   2.966  1.6154  0.6672  0.6943
  166MOL0     H22386  -1.901   6.276   3.265  1.6227  1.0701 -0.7776
  166MOL0     H22387  -1.844   6.155   3.148 -1.1242 -1.4286 -1.4084
  166MOL0     H22388  -2.074   6.122   3.241 -1.0361 -0.1917  0.1705
  166MOL0     H22389  -2.134   6.254   3.136 -0.3800 -1.1735 -0.7840
  166MOL0     H22390  -1.123   6.695   3.188  2.4144  1.3764 -2.1073
  166MOL0     H22391  -0.892   6.767   3.276  3.3928  0.5177  0.6346
  166MOL0     H22392  -0.613   6.936   3.619 -2.8332 -0.5460 -1.4736
  166MOL0     H22393  -0.392   7.001   3.666 -0.7813  1.0484 -1.2596
  166MOL0     H22394   1.016   7.303   4.261 -0.9960  0.0377  1.6563
  166MOL0     H22395   1.210   7.188   4.175 -0.7175 -0.6279  0.0778
  166MOL0     H22396   1.451   6.920   3.974  1.5970 -1.9966 -2.8397
  166MOL0     H22397   1.636   6.763   3.891  2.3111 -1.1668 -0.3265
  166MOL0     H22398   1.708   6.435   4.061  0.9316 -1.7049 -0.4194
  166MOL0     H22399   1.821   6.491   4.173 -1.2426 -0.1470  0.1273
  166MOL0     H22400   1.984   6.376   4.049  0.3292 -0.7755 -0.8535
  166MOL0     H22401   1.983   6.517   3.948  0.3739 -0.4623  1.4778
  166MOL0     H22402   1.811   6.412   3.806 -0.3149 -0.2343  1.0958
  166MOL0     H22403   1.800   6.270   3.915  0.3877 -1.5111 -1.2857
  166MOL0     H22404   2.080   6.271   3.877 -1.0452  1.3175  0.9510
  166MOL0     H22405   1.972   6.183   3.772  1.1186 -0.2807  1.1904
  166MOL0     H22406   2.114   6.460   3.492 -2.6877  2.7158  1.2025
  166MOL0     H22407   1.707   6.653   4.303  0.9230 -0.3962 -0.2163
  166MOL0     H22408   1.579   6.694   4.457  1.3729  1.1100 -0.2504
  166MOL0     H22409   1.547   6.868   4.462 -2.4263 -0.1389  1.6658
  166MOL0     H22410   1.416   6.755   4.422 -0.3440  1.3128 -1.9339
  167MOL0     O22411  10.084   7.843   4.313 -0.4402  0.1864  0.0050
  167MOL0     C22412  10.044   7.788   4.209 -0.3375  0.7519  0.9948
  167MOL0     O22413  10.069   7.828   4.085 -0.3947 -0.3522  0.5061
  167MOL0     C22414  10.107   7.960   4.057  0.5074 -0.1820  1.2678
  167MOL0     C22415  10.213   7.986   3.975  0.5115 -0.2173  0.2424
  167MOL0     C22416  10.252   8.116   3.942  0.1539 -0.1140  0.5844
  167MOL0     C22417  10.180   8.231   3.984 -0.7821 -0.0881  0.8698
  167MOL0     O22418  10.197   8.365   3.954  0.1028 -0.0202  0.3314
  167MOL0     C22419  10.337   8.419   3.966  0.7420 -0.6053 -0.2354
  167MOL0     C22420  10.305   8.566   3.978  0.8058  0.9211  0.4240
  167MOL0     C22421  10.431   8.660   3.991 -0.2447 -0.1051 -0.4246
  167MOL0     C22422  10.408   8.758   4.115  0.5434  0.0219  0.1380
  167MOL0     C22423  10.510   8.868   4.116  0.4692  0.4775  0.0632
  167MOL0     C22424  10.655   8.817   4.127  0.5855 -0.8180 -0.0825
  167MOL0     C22425  10.748   8.941   4.147  0.5814 -1.0072 -0.2904
  167MOL0     C22426  10.749   9.001   4.286 -0.9201  0.5274 -0.3693
  167MOL0     N22427  10.844   9.109   4.289 -0.5770  0.2849 -0.4255
  167MOL0     C22428  10.816   9.242   4.252 -0.5478 -0.5407  0.7509
  167MOL0     C22429  10.932   9.301   4.275 -1.2676  0.2727  0.5432
  167MOL0     C22430  10.972   9.452   4.264  0.0212  0.6727 -0.2889
  167MOL0     C22431  10.897   9.532   4.370  0.6064  0.8836 -0.2364
  167MOL0     C22432  10.970   9.669   4.389  0.2009 -0.2470  0.5054
  167MOL0     C22433  10.972   9.761   4.272 -0.1634 -0.1194 -0.0894
  167MOL0     O22434  11.065   9.727   4.161 -0.1785  0.4748 -0.5378
  167MOL0     C22435  11.143   9.840   4.116  0.0711  0.1084 -0.5630
  167MOL0     C22436  11.281   9.815   4.084  0.1403  0.4393  0.0557
  167MOL0     C22437  11.363   9.920   4.038  0.0547 -0.9593 -0.2064
  167MOL0     C22438  11.311  10.052   4.017 -0.0806  0.5355 -0.1908
  167MOL0     C22439  11.403  10.166   3.976  0.0948  0.9873 -0.1072
  167MOL0     O22440  11.349  10.292   3.953 -0.1190  0.6420  0.2138
  167MOL0     C22441  11.423  10.398   3.930 -0.6512  0.4741 -0.0361
  167MOL0     C22442  11.384  10.493   3.842  0.7592 -0.4707 -0.0626
  167MOL0     C22443  11.457  10.609   3.823 -0.4677  0.1000 -0.3271
  167MOL0     C22444  11.585  10.630   3.876  0.6371 -0.4407 -0.0659
  167MOL0     O22445  11.670  10.738   3.855 -0.2944 -0.4140 -0.3183
  167MOL0     C22446  11.640  10.847   3.768 -0.0337 -0.6318 -0.0234
  167MOL0     C22447  11.754  10.941   3.770  0.1762 -0.5137 -0.0037
  167MOL0     C22448  11.794  10.982   3.914  0.2287 -0.1137 -0.4223
  167MOL0     C22449  11.901  11.097   3.897 -0.6198 -0.2158  0.7078
  167MOL0     C22450  11.856  11.222   3.832 -0.1215 -0.3305  0.6429
  167MOL0     C22451  11.930  11.353   3.864  0.2646 -0.2505  0.6097
  167MOL0     C22452  11.893  11.474   3.772  0.1728  0.0647 -0.7473
  167MOL0     C22453  11.818  11.581   3.860 -0.7988 -1.5219  0.4025
  167MOL0    Cl22454  11.658  11.547   3.931 -0.0486  0.0582 -0.8449
  167MOL0     C22455  11.633  10.532   3.961 -0.9906  0.3722 -0.0029
  167MOL0     C22456  11.556  10.416   3.989  0.3186  0.1473 -0.1721
  167MOL0     O22457  11.514  10.134   3.947 -0.4945  0.1770 -0.6502
  167MOL0     C22458  11.174  10.075   4.041  0.2743  0.2484 -0.4258
  167MOL0     C22459  11.092   9.972   4.094  0.0997 -0.0346 -0.3437
  167MOL0     N22460  11.037   9.209   4.309  0.0957  0.8826 -0.7081
  167MOL0     N22461  10.980   9.095   4.330  0.1070  1.1552  0.3225
  167MOL0     C22462  10.066   8.203   4.066 -0.9625  0.2750  0.5233
  167MOL0     C22463  10.028   8.069   4.093  0.5588  0.0327 -0.4656
  167MOL0     C22464   9.976   7.655   4.221  0.0706 -0.0726  0.7761
  167MOL0     C22465   9.901   7.599   4.109 -0.8483  0.1389  0.2457
  167MOL0     C22466   9.842   7.479   4.114  0.0940  0.4322 -0.3690
  167MOL0     C22467   9.851   7.403   4.229 -1.2470 -0.8911 -0.5519
  167MOL0     O22468   9.784   7.284   4.230 -0.0665  0.2747 -0.5796
  167MOL0     C22469   9.808   7.193   4.336 -0.3298  0.2226  0.9757
  167MOL0     C22470   9.725   7.070   4.305 -0.0522  0.8672  0.1299
  167MOL0     C22471   9.763   6.949   4.404  0.3981 -0.1256  0.6154
  167MOL0     C22472   9.645   6.844   4.406 -0.2104 -0.1127 -0.2770
  167MOL0     C22473   9.664   6.723   4.491  0.5862 -0.7257 -0.0671
  167MOL0     C22474   9.692   6.634   4.572 -0.1360  0.8397  0.4935
  167MOL0     C22475   9.916   7.446   4.347 -0.8282 -0.9645 -0.4433
  167MOL0     C22476   9.975   7.579   4.340 -0.4349 -0.5129 -0.2380
  167MOL0     C22477  10.041   7.612   4.470 -0.7054 -0.6268 -0.3134
  167MOL0     H22478  10.271   7.899   3.948  1.0490  0.1935  0.0474
  167MOL0     H22479  10.337   8.116   3.875 -3.4192 -1.8112 -4.5405
  167MOL0     H22480  10.394   8.387   4.054 -0.0905  1.5897  1.1639
  167MOL0     H22481  10.403   8.391   3.883  0.5514 -0.5149 -0.4185
  167MOL0     H22482  10.242   8.581   4.066  3.0421 -1.8693  2.6517
  167MOL0     H22483  10.246   8.614   3.899 -1.6679 -1.5782  0.5855
  167MOL0     H22484  10.446   8.714   3.897  0.5807 -1.1581 -0.9084
  167MOL0     H22485  10.523   8.606   4.016  0.1773  0.4015 -0.8425
  167MOL0     H22486  10.313   8.810   4.105  0.6580 -0.1964 -3.1278
  167MOL0     H22487  10.405   8.703   4.209 -3.0086 -1.0570 -0.4543
  167MOL0     H22488  10.515   8.942   4.036 -0.4538  1.0475  0.5231
  167MOL0     H22489  10.491   8.933   4.202  0.2196 -0.0777  0.4336
  167MOL0     H22490  10.659   8.737   4.202 -3.5136 -0.3783  0.8722
  167MOL0     H22491  10.667   8.776   4.027 -1.2177 -0.0885 -0.6348
  167MOL0     H22492  10.712   9.021   4.082 -0.9905 -1.9150 -0.5823
  167MOL0     H22493  10.853   8.911   4.138  0.9324 -1.4009  3.3033
  167MOL0     H22494  10.651   9.045   4.307 -3.5194 -3.9738 -1.7701
  167MOL0     H22495  10.762   8.922   4.361 -2.7381 -2.5829 -3.0514
  167MOL0     H22496  10.722   9.281   4.212  0.1573 -0.2887 -0.7332
  167MOL0     H22497  11.079   9.463   4.283  0.3479 -0.2361 -1.4808
  167MOL0     H22498  10.956   9.489   4.163  0.0061 -2.4326 -1.5432
  167MOL0     H22499  10.793   9.537   4.337 -0.2212 -2.1056  1.5870
  167MOL0     H22500  10.894   9.484   4.468 -0.4576  1.0784 -0.1697
  167MOL0     H22501  11.072   9.655   4.424 -0.9146 -2.5922  3.1745
  167MOL0     H22502  10.913   9.724   4.464 -1.2135  0.1010 -0.7704
  167MOL0     H22503  10.999   9.862   4.303  1.9321 -0.2026 -1.3913
  167MOL0     H22504  10.869   9.766   4.235 -0.3463 -1.1488  0.2522
  167MOL0     H22505  11.325   9.718   4.106  2.1103  0.6524 -2.4843
  167MOL0     H22506  11.469   9.910   4.019  0.2960 -2.5032  1.5754
  167MOL0     H22507  11.286  10.477   3.798  0.5958  1.5715 -0.5394
  167MOL0     H22508  11.413  10.679   3.753  1.2979 -1.0534 -2.7892
  167MOL0     H22509  11.622  10.810   3.667 -1.3930  0.6621 -0.2917
  167MOL0     H22510  11.556  10.911   3.796 -0.4148 -0.4863 -1.4650
  167MOL0     H22511  11.834  10.879   3.729 -0.7225 -0.5796 -1.7443
  167MOL0     H22512  11.750  11.028   3.704  2.6953 -0.0374  0.3552
  167MOL0     H22513  11.707  11.019   3.969  0.7526 -2.5787  2.3351
  167MOL0     H22514  11.844  10.897   3.962  0.2973  0.4017  0.4450
  167MOL0     H22515  11.977  11.036   3.847 -3.7621 -1.4526 -3.0810
  167MOL0     H22516  11.936  11.138   3.992 -1.1070  3.4839 -0.5528
  167MOL0     H22517  11.753  11.230   3.870  0.1195 -0.7749  1.4192
  167MOL0     H22518  11.843  11.215   3.724 -0.7602  1.2708  0.5878
  167MOL0     H22519  11.912  11.360   3.972 -2.1799  2.0519  0.1483
  167MOL0     H22520  12.038  11.343   3.847  0.7349  2.4314  1.5957
  167MOL0     H22521  11.839  11.438   3.685  0.7144 -0.2864 -0.9473
  167MOL0     H22522  11.987  11.517   3.735  1.0906  0.7562  2.1315
  167MOL0     H22523  11.878  11.614   3.945 -1.4486  1.3929 -0.1612
  167MOL0     H22524  11.800  11.659   3.786  0.1555 -0.3141  1.4049
  167MOL0     H22525  11.727  10.557   4.009 -1.3028  1.6828 -0.0317
  167MOL0     H22526  11.600  10.349   4.062 -1.1293  0.6372  1.2361
  167MOL0     H22527  11.142  10.178   4.028  0.7584  0.4565  0.0082
  167MOL0     H22528  10.988  10.001   4.109  0.2771  0.5812 -0.2773
  167MOL0     H22529  10.007   8.289   4.097  0.0579  0.7699  1.1658
  167MOL0     H22530   9.938   8.044   4.149  1.2760 -2.0719 -0.1494
  167MOL0     H22531   9.900   7.661   4.020  0.9275  1.0996  0.8503
  167MOL0     H22532   9.775   7.444   4.036  1.1349  1.6839 -1.8882
  167MOL0     H22533   9.770   7.243   4.425  1.0893  1.9467  0.6712
  167MOL0     H22534   9.915   7.169   4.343  0.2645  2.0959 -0.7340
  167MOL0     H22535   9.735   7.037   4.201 -0.6457 -1.4641  0.7601
  167MOL0     H22536   9.622   7.106   4.312  0.2999  1.8163  0.6640
  167MOL0     H22537   9.799   6.982   4.502 -1.5474 -0.1276  1.3696
  167MOL0     H22538   9.847   6.910   4.346 -0.6832  0.3905 -1.3877
  167MOL0     H22539   9.547   6.887   4.430 -1.8241 -2.8081 -1.4736
  167MOL0     H22540   9.632   6.807   4.304 -1.5457  1.3007 -0.6567
  167MOL0     H22541   9.733   6.555   4.631 -3.1457 -0.0334  1.5934
  167MOL0     H22542   9.948   7.383   4.428  3.2622 -0.4685 -1.4092
  167MOL0     H22543  10.015   7.555   4.560  0.2562 -0.9440 -0.2275
  167MOL0     H22544  10.147   7.594   4.451 -0.4026 -1.2492  1.7397
  167MOL0     H22545  10.025   7.711   4.515  2.4649  0.3533 -1.0650
  168MOL0     O22546   1.719   6.452  10.578  0.1135 -0.1497  0.2794
  168MOL0     C22547   1.752   6.337  10.541  0.1962  0.6071 -0.3837
  168MOL0     O22548   1.815   6.248  10.623  0.0828  0.9411  0.2520
  168MOL0     C22549   1.886   6.297  10.731  0.4749  0.5428  0.2289
  168MOL0     C22550   1.997   6.389  10.725  0.6712  0.0249  0.4072
  168MOL0     C22551   2.069   6.427  10.839  0.0130 -0.2543 -0.0567
  168MOL0     C22552   2.026   6.371  10.966  0.2954 -0.7043 -0.6468
  168MOL0     O22553   2.077   6.415  11.088  0.0949 -0.4489 -0.3682
  168MOL0     C22554   2.073   6.326  11.200 -0.1644  0.1734 -0.1504
  168MOL0     C22555   2.170   6.376  11.311 -0.0938  0.1190 -0.0015
  168MOL0     C22556   2.324   6.395  11.289  0.0012 -0.0689  0.4795
  168MOL0     C22557   2.413   6.444  11.412 -0.3934  0.2953  0.1526
  168MOL0     C22558   2.558   6.479  11.365 -0.6605 -0.7291  0.2000
  168MOL0     C22559   2.641   6.499  11.483  0.2726 -0.0239 -0.3902
  168MOL0     C22560   2.787   6.538  11.455 -0.5383 -0.5888 -0.0897
  168MOL0     C22561   2.804   6.680  11.386 -0.0145 -0.3099  0.5147
  168MOL0     N22562   2.872   6.776  11.485  0.6307  0.4209  0.2623
  168MOL0     C22563   2.837   6.773  11.617 -0.0457  0.9562  0.1561
  168MOL0     C22564   2.946   6.829  11.679 -0.0978 -0.3417 -0.2553
  168MOL0     C22565   2.977   6.837  11.821  0.4049  0.5871 -0.1550
  168MOL0     C22566   2.859   6.883  11.911  0.0933  0.5895 -0.3312
  168MOL0     C22567   2.816   7.028  11.872 -1.4501 -1.5293  0.2984
  168MOL0     C22568   2.718   7.087  11.973  0.5647  0.2244 -0.0703
  168MOL0     O22569   2.778   7.096  12.104  0.1461 -0.4280  0.6380
  168MOL0     C22570   2.698   7.140  12.205 -0.5513  0.5341  0.2141
  168MOL0     C22571   2.612   7.235  12.185 -0.4273 -0.0728  0.5897
  168MOL0     C22572   2.541   7.286  12.292 -0.2147  1.1509 -0.5338
  168MOL0     C22573   2.555   7.243  12.423 -0.7107  0.1054 -0.1720
  168MOL0     C22574   2.480   7.295  12.533 -0.4177 -0.6352  0.4599
  168MOL0     O22575   2.529   7.266  12.660 -0.4918  0.5255  0.7036
  168MOL0     C22576   2.454   7.289  12.774  0.6010 -0.5284 -0.7223
  168MOL0     C22577   2.467   7.190  12.875 -0.9193 -0.8386 -0.4105
  168MOL0     C22578   2.395   7.201  12.995  0.1532  0.0550 -0.4867
  168MOL0     C22579   2.296   7.294  12.996  0.2348 -0.4738 -0.5536
  168MOL0     O22580   2.225   7.301  13.119 -0.1547  0.1214 -0.0097
  168MOL0     C22581   2.086   7.279  13.122  0.3122  0.9731  0.4409
  168MOL0     C22582   2.034   7.282  13.266  0.9446 -0.0069 -0.4383
  168MOL0     C22583   1.895   7.210  13.280 -0.8403 -0.6419 -0.0039
  168MOL0     C22584   1.846   7.240  13.417  0.7181  0.1909  0.2875
  168MOL0     C22585   1.703   7.177  13.453  0.3721  0.5109  0.5931
  168MOL0     C22586   1.694   7.148  13.606 -0.8552  0.6130 -0.5082
  168MOL0     C22587   1.673   7.275  13.675 -1.2915  0.4584  0.6513
  168MOL0     C22588   1.716   7.255  13.821  0.5318  0.0179  0.3559
  168MOL0    Cl22589   1.898   7.273  13.836  0.2131 -0.4088 -0.1878
  168MOL0     C22590   2.285   7.402  12.897  0.2349  0.3854  0.1726
  168MOL0     C22591   2.366   7.393  12.788 -0.6864  0.1158  0.6041
  168MOL0     O22592   2.379   7.355  12.508 -0.0723  0.2914  0.3338
  168MOL0     C22593   2.641   7.127  12.438  0.7832 -0.2078  0.1292
  168MOL0     C22594   2.706   7.084  12.330 -0.4917  1.7689 -0.8430
  168MOL0     N22595   3.040   6.862  11.579  0.1635 -0.4633 -0.3762
  168MOL0     N22596   2.996   6.816  11.475 -0.7368 -0.7455  0.8366
  168MOL0     C22597   1.915   6.281  10.972 -0.4121 -1.0162 -0.3161
  168MOL0     C22598   1.842   6.253  10.859 -0.3847 -0.4265  0.3196
  168MOL0     C22599   1.704   6.294  10.409  0.0832  1.0296  0.1227
  168MOL0     C22600   1.697   6.158  10.376 -0.0229 -0.1740  0.4383
  168MOL0     C22601   1.639   6.106  10.260 -0.0889 -0.7713  0.0007
  168MOL0     C22602   1.592   6.191  10.166  1.6024 -0.5191  0.0779
  168MOL0     O22603   1.538   6.125  10.057 -0.3357  0.1155  0.4366
  168MOL0     C22604   1.420   6.168   9.999  0.0890  0.3164 -0.1015
  168MOL0     C22605   1.314   6.174  10.111  0.4489 -1.3153  0.3951
  168MOL0     C22606   1.274   6.036  10.171 -0.0159 -0.7357  0.5492
  168MOL0     C22607   1.220   6.032  10.312  0.4947  0.4761  0.3586
  168MOL0     C22608   1.284   6.118  10.402  0.5514 -0.7309 -0.0852
  168MOL0     C22609   1.334   6.179  10.492  0.2858 -0.3269  0.2906
  168MOL0     C22610   1.591   6.327  10.188 -0.5765 -0.1652 -0.2227
  168MOL0     C22611   1.653   6.377  10.301 -0.4624 -0.4848  0.2614
  168MOL0     C22612   1.664   6.524  10.298 -0.6522 -0.4521 -0.5649
  168MOL0     H22613   2.043   6.412  10.630 -0.0217  0.5534  0.1928
  168MOL0     H22614   2.154   6.494  10.833 -0.9352  0.8801 -1.5701
  168MOL0     H22615   1.971   6.310  11.235 -0.5254 -0.0856 -1.2960
  168MOL0     H22616   2.104   6.227  11.165  1.0147  0.6822 -0.5870
  168MOL0     H22617   2.153   6.321  11.404 -1.3029 -2.7318 -1.7723
  168MOL0     H22618   2.145   6.480  11.334  2.8297  0.9820 -0.3326
  168MOL0     H22619   2.341   6.459  11.202  0.4529 -1.6787 -0.6624
  168MOL0     H22620   2.355   6.292  11.272  0.4081  0.2261 -0.6636
  168MOL0     H22621   2.368   6.537  11.448  0.8250  1.0757 -0.2589
  168MOL0     H22622   2.417   6.371  11.494  2.0950  1.4831  1.2148
  168MOL0     H22623   2.589   6.388  11.311 -0.2418  0.4067 -1.5571
  168MOL0     H22624   2.562   6.567  11.301  1.0582  0.0653  1.3395
  168MOL0     H22625   2.601   6.572  11.553 -0.6256  1.3096 -2.2223
  168MOL0     H22626   2.642   6.413  11.550 -1.6600  0.8461  0.8022
  168MOL0     H22627   2.840   6.463  11.395  0.5748  0.0757  0.0522
  168MOL0     H22628   2.844   6.525  11.547  0.6112 -2.8469 -1.0556
  168MOL0     H22629   2.846   6.669  11.285  3.7773 -1.5435  2.0748
  168MOL0     H22630   2.707   6.728  11.367  0.8950  1.5783  0.4028
  168MOL0     H22631   2.750   6.733  11.667 -0.2855  0.2436 -0.8093
  168MOL0     H22632   2.992   6.736  11.861 -1.5935  0.3042 -0.0001
  168MOL0     H22633   3.053   6.914  11.834  0.4347  0.4145  0.7916
  168MOL0     H22634   2.776   6.811  11.902 -0.8100  1.5389  0.2025
  168MOL0     H22635   2.876   6.872  12.019  0.5943 -1.3470 -0.5609
  168MOL0     H22636   2.770   7.027  11.773 -0.4568 -0.1310 -0.2111
  168MOL0     H22637   2.898   7.100  11.871 -0.7309 -2.3014  1.5190
  168MOL0     H22638   2.632   7.019  11.973  0.1226  0.7781 -0.4372
  168MOL0     H22639   2.687   7.184  11.933  1.4694 -0.6042 -3.0879
  168MOL0     H22640   2.604   7.286  12.090 -0.1052  1.6419  1.4407
  168MOL0     H22641   2.479   7.373  12.275  0.0258  1.9627  2.2024
  168MOL0     H22642   2.548   7.119  12.860  0.1341  0.0435  0.8718
  168MOL0     H22643   2.435   7.136  13.072 -0.5871 -1.0037 -0.9727
  168MOL0     H22644   2.039   7.357  13.061  0.1526 -0.9612 -2.1208
  168MOL0     H22645   2.057   7.188  13.067 -1.6217 -0.0416  2.9433
  168MOL0     H22646   2.100   7.238  13.341  1.8642  1.4416 -0.3645
  168MOL0     H22647   2.029   7.391  13.275  0.8904  0.0706 -1.3369
  168MOL0     H22648   1.829   7.257  13.206  0.3810  2.4502  0.7239
  168MOL0     H22649   1.889   7.103  13.261 -0.9783 -0.4667 -1.0282
  168MOL0     H22650   1.835   7.348  13.429 -0.2286  0.0733  0.5314
  168MOL0     H22651   1.932   7.208  13.477  0.6124 -1.0789 -0.2033
  168MOL0     H22652   1.677   7.086  13.398 -0.8462  1.1559  0.0512
  168MOL0     H22653   1.623   7.244  13.419  1.8460  0.5506 -3.2103
  168MOL0     H22654   1.608   7.085  13.633  0.1423  0.4012  2.5637
  168MOL0     H22655   1.785   7.093  13.634 -0.3467  1.9995  0.6632
  168MOL0     H22656   1.567   7.305  13.673 -1.1988  0.8436  1.2702
  168MOL0     H22657   1.723   7.364  13.637 -1.6400  0.6729  0.6808
  168MOL0     H22658   1.672   7.337  13.878  2.2200  0.5332  0.9924
  168MOL0     H22659   1.675   7.169  13.874 -2.9280  2.6266  2.3405
  168MOL0     H22660   2.217   7.486  12.904 -2.0410 -1.2956 -0.5762
  168MOL0     H22661   2.365   7.464  12.706  1.2902 -3.5035 -2.8995
  168MOL0     H22662   2.648   7.071  12.531 -2.0258 -0.0827  0.4877
  168MOL0     H22663   2.782   7.009  12.349 -2.3616  0.3362  1.6779
  168MOL0     H22664   1.882   6.247  11.069  2.0780 -1.1957  0.5391
  168MOL0     H22665   1.755   6.190  10.869 -0.7290  0.4204  4.5794
  168MOL0     H22666   1.728   6.079  10.444  0.6533 -0.0328  0.2929
  168MOL0     H22667   1.624   6.000  10.245  0.8884 -0.7373 -1.3073
  168MOL0     H22668   1.386   6.112   9.911 -1.4972 -1.0751  1.3315
  168MOL0     H22669   1.438   6.269   9.961  0.6650  0.6775  1.0844
  168MOL0     H22670   1.226   6.223  10.069  1.6148 -1.4790 -2.4828
  168MOL0     H22671   1.347   6.236  10.194  0.3883 -1.1827  0.3195
  168MOL0     H22672   1.368   5.981  10.173 -0.4608 -1.5131  2.3518
  168MOL0     H22673   1.204   5.991  10.101  0.7308 -1.1124  0.0296
  168MOL0     H22674   1.119   6.072  10.304  1.0441  1.9722  0.6316
  168MOL0     H22675   1.221   5.927  10.341  1.0742  0.3793  0.0026
  168MOL0     H22676   1.375   6.245  10.565 -1.5926  1.6494 -0.3302
  168MOL0     H22677   1.541   6.395  10.119 -0.1943  0.6681  0.3032
  168MOL0     H22678   1.605   6.570  10.218  2.4138  1.8628 -1.6931
  168MOL0     H22679   1.634   6.576  10.390  2.4397 -1.2449  1.0545
  168MOL0     H22680   1.771   6.546  10.292  0.1708 -3.3730  1.3355
  169MOL0     O22681   9.768  11.132   4.736  0.0435  1.0458 -0.6826
  169MOL0     C22682   9.853  11.094   4.653  0.7066  1.2882 -1.2470
  169MOL0     O22683   9.838  11.115   4.518 -0.4769  0.5142 -0.2420
  169MOL0     C22684   9.734  11.160   4.440 -0.0815  0.2003 -0.8730
  169MOL0     C22685   9.756  11.165   4.302  0.0310  0.0674  0.0293
  169MOL0     C22686   9.639  11.177   4.221 -0.1037  0.4520  0.0823
  169MOL0     C22687   9.514  11.210   4.266 -0.0778 -0.3801  0.0684
  169MOL0     O22688   9.412  11.219   4.180  0.3714 -0.1888  1.1842
  169MOL0     C22689   9.319  11.111   4.178 -0.5800 -0.7605 -0.6245
  169MOL0     C22690   9.241  11.101   4.055 -0.9579  0.0863  0.1532
  169MOL0     C22691   9.328  11.066   3.932  0.1793 -0.1193 -0.6343
  169MOL0     C22692   9.273  11.087   3.791 -0.2585  0.3149 -0.2876
  169MOL0     C22693   9.162  10.996   3.746 -0.4067 -0.4823 -0.4534
  169MOL0     C22694   9.130  11.013   3.594 -0.1510  0.2939  0.1745
  169MOL0     C22695   9.008  10.927   3.565  1.3142 -1.0780 -0.9084
  169MOL0     C22696   8.955  10.956   3.426 -0.2560  0.5433 -0.1565
  169MOL0     N22697   9.055  10.926   3.316  0.7969 -0.5030 -0.4619
  169MOL0     C22698   9.074  10.803   3.255  0.4298  0.1660  0.6498
  169MOL0     C22699   9.175  10.830   3.170 -0.3030 -0.1620  0.6856
  169MOL0     C22700   9.227  10.742   3.059 -0.2837  1.1905 -0.1197
  169MOL0     C22701   9.134  10.618   3.029 -0.0572  0.2643  0.0446
  169MOL0     C22702   9.225  10.510   2.956 -0.0516  1.0644  0.2773
  169MOL0     C22703   9.173  10.360   2.946  0.2678 -0.5198  0.4869
  169MOL0     O22704   9.036  10.354   2.908 -0.7334 -0.4920  0.1747
  169MOL0     C22705   8.984  10.255   2.829 -0.3917  0.6037  0.0125
  169MOL0     C22706   8.930  10.135   2.886  0.2009 -0.0392  0.7252
  169MOL0     C22707   8.855  10.039   2.798 -0.5274 -0.1312  0.0857
  169MOL0     C22708   8.822  10.083   2.668 -0.0544 -0.1801 -0.7870
  169MOL0     C22709   8.732   9.998   2.585 -0.1555  0.2272  0.7683
  169MOL0     O22710   8.657   9.903   2.651 -0.6337  0.2463  0.3479
  169MOL0     C22711   8.601   9.802   2.580  0.7207  0.0648  0.5116
  169MOL0     C22712   8.670   9.689   2.550 -0.1707  0.0363  0.4481
  169MOL0     C22713   8.614   9.582   2.480  0.8216  0.1589 -0.0529
  169MOL0     C22714   8.481   9.574   2.446 -0.3344 -0.3533 -0.2626
  169MOL0     O22715   8.444   9.467   2.371 -0.1641  0.2543  0.1236
  169MOL0     C22716   8.406   9.499   2.235 -0.5176 -1.1668 -0.4856
  169MOL0     C22717   8.407   9.370   2.148  0.2067  0.0953 -0.9655
  169MOL0     C22718   8.345   9.394   2.012  0.4508 -0.2263 -0.0060
  169MOL0     C22719   8.191   9.370   1.995 -0.7551  1.1006  0.0540
  169MOL0     C22720   8.141   9.366   1.849  0.0826 -0.5495  0.3676
  169MOL0     C22721   7.999   9.309   1.850  0.0284 -0.0818  0.5127
  169MOL0     C22722   7.912   9.372   1.954  0.8927 -0.9772 -0.3045
  169MOL0     C22723   7.764   9.346   1.911 -0.2676 -0.3655  0.1601
  169MOL0    Cl22724   7.655   9.404   2.031 -0.2585 -0.0679 -0.4203
  169MOL0     C22725   8.401   9.694   2.467  0.1314  0.0084 -0.7263
  169MOL0     C22726   8.463   9.799   2.539  0.0182 -0.0157  1.3862
  169MOL0     O22727   8.721  10.036   2.466 -0.0610 -0.0641 -0.8666
  169MOL0     C22728   8.868  10.203   2.624 -1.0141 -0.0091  1.0870
  169MOL0     C22729   8.955  10.283   2.703 -0.6201  0.7702 -0.7845
  169MOL0     N22730   9.216  10.957   3.184  0.5113  0.1190  0.3938
  169MOL0     N22731   9.139  11.019   3.274  0.0863  0.2807  0.2107
  169MOL0     C22732   9.500  11.229   4.403  0.1520 -0.3057  0.2230
  169MOL0     C22733   9.609  11.203   4.488  0.4102  0.4779 -0.1092
  169MOL0     C22734   9.981  11.038   4.708  0.0324 -0.5341  0.5626
  169MOL0     C22735  10.095  11.033   4.618  0.5524  0.6653  0.1719
  169MOL0     C22736  10.218  10.974   4.653  0.2432  0.8198 -0.2076
  169MOL0     C22737  10.233  10.915   4.775 -0.7945  0.1177 -0.1043
  169MOL0     O22738  10.351  10.858   4.790  0.2272  0.2191  0.1643
  169MOL0     C22739  10.450  10.951   4.844  0.3823  0.1854  0.4835
  169MOL0     C22740  10.585  10.879   4.840 -0.4093  0.1722 -0.2784
  169MOL0     C22741  10.693  10.920   4.946  0.5717 -0.5866 -0.1611
  169MOL0     C22742  10.751  11.067   4.948  0.3085 -0.2837 -0.8215
  169MOL0     C22743  10.683  11.154   5.033 -0.1435  0.1809 -1.1826
  169MOL0     C22744  10.619  11.222   5.123 -0.3057  0.0011 -0.0979
  169MOL0     C22745  10.125  10.921   4.864 -0.3623  0.1476 -0.1352
  169MOL0     C22746   9.998  10.969   4.834 -0.3349 -1.1096  0.1638
  169MOL0     C22747   9.894  10.937   4.939 -0.4670  0.2231  0.2444
  169MOL0     H22748   9.856  11.138   4.267  0.5949 -0.7632  2.1070
  169MOL0     H22749   9.639  11.163   4.113  0.1204  2.4462 -0.2068
  169MOL0     H22750   9.367  11.013   4.188 -0.5602 -0.6419  0.5627
  169MOL0     H22751   9.267  11.116   4.274  2.9739  1.8575  1.3957
  169MOL0     H22752   9.202  11.200   4.030 -1.3162 -0.6008 -2.2912
  169MOL0     H22753   9.169  11.020   4.072 -1.5952  0.2401 -1.6384
  169MOL0     H22754   9.356  10.961   3.940 -1.9203 -0.6211  1.0370
  169MOL0     H22755   9.418  11.127   3.944 -0.8295  0.8887  3.5238
  169MOL0     H22756   9.235  11.190   3.802  1.8371  1.0039  0.9371
  169MOL0     H22757   9.348  11.074   3.713 -0.3289  1.8697 -0.6493
  169MOL0     H22758   9.188  10.891   3.762 -0.5917 -0.1268  2.6732
  169MOL0     H22759   9.077  11.025   3.808 -0.3394  0.0845 -0.6211
  169MOL0     H22760   9.113  11.119   3.572  0.7654  0.6824  1.1910
  169MOL0     H22761   9.221  10.992   3.538 -0.4335  0.8155 -0.4892
  169MOL0     H22762   8.940  10.965   3.642  2.6955 -2.0834  0.8803
  169MOL0     H22763   9.021  10.820   3.580 -2.4242 -1.5856 -0.4183
  169MOL0     H22764   8.876  10.881   3.412  1.7615 -1.1308 -4.7864
  169MOL0     H22765   8.917  11.055   3.402  3.3680  1.4180 -3.3972
  169MOL0     H22766   9.011  10.714   3.256  1.2119 -0.6666 -3.9334
  169MOL0     H22767   9.219  10.799   2.966  2.6120 -0.4721 -1.5508
  169MOL0     H22768   9.330  10.709   3.075 -1.2046 -2.5340 -0.8585
  169MOL0     H22769   9.094  10.579   3.123 -0.4712  1.4579  0.3805
  169MOL0     H22770   9.039  10.641   2.980 -1.1466 -0.9737  1.4708
  169MOL0     H22771   9.313  10.496   3.020  0.2135 -3.0490 -0.7098
  169MOL0     H22772   9.250  10.544   2.855 -1.1476  1.9244  0.2909
  169MOL0     H22773   9.173  10.298   3.036  1.3716  0.5751  1.2778
  169MOL0     H22774   9.229  10.304   2.870 -0.5860 -2.9619  1.5621
  169MOL0     H22775   8.950  10.112   2.990  1.9136  2.1439  0.9349
  169MOL0     H22776   8.815   9.942   2.827 -0.4071 -1.5679 -3.9562
  169MOL0     H22777   8.777   9.696   2.568 -0.3150 -1.0434  1.8399
  169MOL0     H22778   8.673   9.501   2.438  2.3000  1.5744 -0.8335
  169MOL0     H22779   8.299   9.522   2.229 -0.3996  0.4826  2.1585
  169MOL0     H22780   8.458   9.583   2.189 -0.4325 -1.9524 -1.8995
  169MOL0     H22781   8.512   9.346   2.126  0.8579  0.9227  1.0266
  169MOL0     H22782   8.350   9.292   2.198 -0.5557  1.4828  0.4260
  169MOL0     H22783   8.369   9.496   1.981 -1.1069  0.5905  1.3418
  169MOL0     H22784   8.389   9.329   1.935 -1.4202 -0.6720 -0.7586
  169MOL0     H22785   8.141   9.457   2.040  1.3808  2.0949  0.6077
  169MOL0     H22786   8.170   9.270   2.034 -0.7102  0.7205 -0.8502
  169MOL0     H22787   8.193   9.299   1.780 -0.6243  1.2853 -2.0945
  169MOL0     H22788   8.138   9.467   1.808  0.6073  0.5139  2.7654
  169MOL0     H22789   7.944   9.320   1.756 -0.0578  0.4472  0.6221
  169MOL0     H22790   8.012   9.203   1.873  0.0273 -0.3899 -0.8102
  169MOL0     H22791   7.920   9.481   1.954 -2.4156 -0.6238  0.3392
  169MOL0     H22792   7.926   9.329   2.054  0.4303 -1.7226 -0.5501
  169MOL0     H22793   7.736   9.394   1.817 -2.3067 -0.1968  0.8023
  169MOL0     H22794   7.741   9.239   1.903  2.2453 -0.9065 -0.5468
  169MOL0     H22795   8.297   9.701   2.437 -0.8457 -0.3739  2.2082
  169MOL0     H22796   8.389   9.872   2.570 -3.0827 -0.8729 -3.0625
  169MOL0     H22797   8.854  10.225   2.519  3.3156 -0.9379  0.1179
  169MOL0     H22798   8.985  10.381   2.667  2.5137 -0.6285 -2.3791
  169MOL0     H22799   9.404  11.257   4.446 -1.2549 -2.4856 -1.2765
  169MOL0     H22800   9.591  11.216   4.594  0.6929 -0.3965  0.0503
  169MOL0     H22801  10.097  11.077   4.519 -0.6652  0.4135  0.0220
  169MOL0     H22802  10.295  10.957   4.578 -0.6615 -2.3854 -0.5882
  169MOL0     H22803  10.399  10.981   4.936 -1.2631  0.1561 -0.3728
  169MOL0     H22804  10.446  11.034   4.773 -0.1171 -0.3623 -0.1472
  169MOL0     H22805  10.627  10.894   4.740 -0.9354  1.4307 -0.3268
  169MOL0     H22806  10.575  10.770   4.851  1.4063  0.2197  3.1119
  169MOL0     H22807  10.786  10.869   4.919  0.3008 -0.9379 -0.4393
  169MOL0     H22808  10.645  10.911   5.044  2.1817  3.0909  1.1419
  169MOL0     H22809  10.857  11.069   4.972  0.9549 -1.3905 -3.2929
  169MOL0     H22810  10.753  11.126   4.855  2.2833  0.1363 -0.5603
  169MOL0     H22811  10.560  11.271   5.198 -0.8564  2.7861 -2.2157
  169MOL0     H22812  10.144  10.876   4.961 -3.0600  1.6743  1.2169
  169MOL0     H22813   9.793  10.932   4.897 -0.1484 -0.3762 -0.4822
  169MOL0     H22814   9.925  10.854   5.002  0.4473  0.3840  0.0223
  169MOL0     H22815   9.908  11.017   5.011  3.0895 -0.0851  0.0543
  170MOL0     O22816   5.554   3.849  10.159 -0.4365 -0.3930  0.0679
  170MOL0     C22817   5.629   3.754  10.138  0.3711  0.1215  0.7068
  170MOL0     O22818   5.619   3.631  10.199  0.2029  0.5495 -0.7290
  170MOL0     C22819   5.506   3.589  10.273 -0.3280 -0.1513  0.3976
  170MOL0     C22820   5.378   3.623  10.235  0.2614  0.0765 -0.7699
  170MOL0     C22821   5.271   3.589  10.312 -0.8651 -0.0535 -0.4775
  170MOL0     C22822   5.289   3.512  10.433 -0.5283  0.2129 -0.2860
  170MOL0     O22823   5.168   3.484  10.495  0.2925 -0.5640 -0.9380
  170MOL0     C22824   5.141   3.541  10.625 -0.8232 -0.6029  0.9085
  170MOL0     C22825   4.989   3.529  10.666  0.5042 -0.0495  0.3800
  170MOL0     C22826   4.966   3.589  10.807  0.2216 -0.6489 -0.5179
  170MOL0     C22827   4.809   3.593  10.844 -0.2669  0.4339  0.8122
  170MOL0     C22828   4.786   3.641  10.980  0.1463  0.0297 -0.0513
  170MOL0     C22829   4.826   3.551  11.101 -0.2496  0.8180  0.2432
  170MOL0     C22830   4.823   3.627  11.229  0.6202  0.3440 -0.1105
  170MOL0     C22831   4.885   3.546  11.344  0.5344  0.6235  0.1449
  170MOL0     N22832   4.786   3.456  11.414  0.0032  0.2154  0.2891
  170MOL0     C22833   4.723   3.489  11.523  0.5584 -0.3048 -1.1133
  170MOL0     C22834   4.671   3.375  11.576 -0.3920  0.0218  0.5841
  170MOL0     C22835   4.589   3.348  11.698  0.6471 -0.0387 -0.4068
  170MOL0     C22836   4.608   3.449  11.806 -0.7249 -0.3562 -0.4554
  170MOL0     C22837   4.560   3.400  11.943 -0.1031 -1.4078  0.2602
  170MOL0     C22838   4.671   3.346  12.027 -0.5609  0.2605  0.2230
  170MOL0     O22839   4.705   3.450  12.120 -0.1187  0.7664 -0.3077
  170MOL0     C22840   4.629   3.464  12.231  0.6446  0.2022 -0.3218
  170MOL0     C22841   4.656   3.567  12.320  0.8626  0.6105 -0.5766
  170MOL0     C22842   4.586   3.591  12.437 -0.2718 -0.0900  0.3794
  170MOL0     C22843   4.475   3.510  12.470  0.6830 -0.6660 -0.0165
  170MOL0     C22844   4.409   3.527  12.600 -0.0420 -0.4650 -0.0146
  170MOL0     O22845   4.337   3.424  12.652 -0.4592 -0.0513 -0.0103
  170MOL0     C22846   4.273   3.448  12.774 -0.8958  0.4365  0.7229
  170MOL0     C22847   4.305   3.359  12.875 -0.4387 -0.2421  0.4236
  170MOL0     C22848   4.261   3.380  13.011  1.2827  1.3108 -0.2273
  170MOL0     C22849   4.166   3.489  13.032  0.2820 -0.1098  0.1409
  170MOL0     O22850   4.115   3.527  13.146 -0.2743 -1.1243 -0.8926
  170MOL0     C22851   4.160   3.466  13.274 -0.4379  0.2005  0.3067
  170MOL0     C22852   4.106   3.523  13.402 -0.2166  0.3856  0.5702
  170MOL0     C22853   3.957   3.499  13.406 -0.0866  0.3664 -0.0451
  170MOL0     C22854   3.892   3.484  13.540 -0.1777 -0.5282 -0.1970
  170MOL0     C22855   3.883   3.623  13.617  0.8353 -0.0465  1.0220
  170MOL0     C22856   3.813   3.597  13.748  0.1923 -0.2383  0.1857
  170MOL0     C22857   3.815   3.720  13.842  0.4124 -1.1703 -0.5035
  170MOL0     C22858   3.709   3.695  13.950  0.7981 -0.7368 -0.1336
  170MOL0    Cl22859   3.718   3.812  14.083  0.3676 -0.2713 -0.2144
  170MOL0     C22860   4.125   3.569  12.925  0.1516 -0.1544  0.6505
  170MOL0     C22861   4.178   3.550  12.792  0.2632  0.4774  0.0630
  170MOL0     O22862   4.439   3.628  12.664  0.1326 -0.0614 -0.1075
  170MOL0     C22863   4.446   3.408  12.379 -1.0156  0.2315  0.3779
  170MOL0     C22864   4.517   3.391  12.263 -0.0402 -0.1641  0.1926
  170MOL0     N22865   4.702   3.276  11.487 -0.5330  0.5056  0.9887
  170MOL0     N22866   4.771   3.324  11.389  0.3095  0.4546  0.1652
  170MOL0     C22867   5.420   3.479  10.473  0.0706 -0.2385 -0.2373
  170MOL0     C22868   5.527   3.513  10.389  0.6791 -0.0468  0.6908
  170MOL0     C22869   5.752   3.779  10.056  0.1275 -0.0651  0.0034
  170MOL0     C22870   5.858   3.685  10.049 -0.4503 -0.0538 -0.5435
  170MOL0     C22871   5.972   3.706   9.971  0.1151  0.4767 -0.7038
  170MOL0     C22872   5.988   3.817   9.897  0.4674  0.2521  0.3350
  170MOL0     O22873   6.090   3.841   9.817 -0.8333  0.3150 -0.2380
  170MOL0     C22874   6.092   3.772   9.681 -0.6532 -0.1096  0.3148
  170MOL0     C22875   6.238   3.748   9.633  0.2655 -0.5697 -0.7114
  170MOL0     C22876   6.258   3.706   9.493  0.5075  0.4620 -0.1432
  170MOL0     C22877   6.169   3.587   9.443  0.4192 -0.5070 -0.6785
  170MOL0     C22878   6.185   3.462   9.520 -0.3456 -0.1688 -0.3476
  170MOL0     C22879   6.211   3.361   9.571  0.3910 -0.2446 -0.8332
  170MOL0     C22880   5.887   3.915   9.902 -0.2687  0.4742 -0.9035
  170MOL0     C22881   5.771   3.904   9.984  0.0259  0.1139 -0.7127
  170MOL0     C22882   5.691   4.026   9.996 -0.5244 -0.6484 -0.5296
  170MOL0     H22883   5.360   3.694  10.155 -2.8578  3.4229  2.5125
  170MOL0     H22884   5.169   3.621  10.295 -1.0513  3.2630  4.7133
  170MOL0     H22885   5.194   3.475  10.694  0.6788 -3.2922 -2.5168
  170MOL0     H22886   5.179   3.644  10.629  0.8849 -0.9353 -2.6778
  170MOL0     H22887   4.966   3.424  10.646  5.0814 -0.8455 -2.2363
  170MOL0     H22888   4.930   3.594  10.600 -1.5743 -0.2027  2.0169
  170MOL0     H22889   4.997   3.694  10.819 -1.6372 -0.3576  3.4823
  170MOL0     H22890   5.030   3.539  10.880 -0.8198  1.8113  2.3110
  170MOL0     H22891   4.763   3.651  10.764  0.2563 -0.2301  0.0093
  170MOL0     H22892   4.772   3.493  10.817 -0.6759  1.4237 -2.9446
  170MOL0     H22893   4.843   3.734  10.992  2.4391 -0.7523 -3.5687
  170MOL0     H22894   4.682   3.671  10.993  0.7487  1.9657  0.6397
  170MOL0     H22895   4.757   3.467  11.113  2.5964 -1.5602  1.1714
  170MOL0     H22896   4.925   3.506  11.093 -0.9544 -0.5207 -4.0864
  170MOL0     H22897   4.722   3.650  11.262  0.5977  2.3946 -1.4393
  170MOL0     H22898   4.871   3.725  11.226 -2.8879  2.1947 -3.3792
  170MOL0     H22899   4.963   3.476  11.313  0.8760  1.9525 -2.2807
  170MOL0     H22900   4.928   3.618  11.414  1.7896  3.1223 -2.9424
  170MOL0     H22901   4.714   3.586  11.571 -0.1985 -0.9274  0.0288
  170MOL0     H22902   4.487   3.359  11.660  0.8572  2.1830 -0.4962
  170MOL0     H22903   4.608   3.248  11.737  1.4197  0.1412 -0.3111
  170MOL0     H22904   4.709   3.489  11.824 -1.5857  1.1768  1.4091
  170MOL0     H22905   4.543   3.531  11.773  1.8170  0.2186 -4.7644
  170MOL0     H22906   4.484   3.321  11.941  1.6740 -3.2175  0.4236
  170MOL0     H22907   4.516   3.488  11.990  0.1051 -1.0081 -0.2849
  170MOL0     H22908   4.765   3.309  11.985 -0.9551 -0.1131 -0.3294
  170MOL0     H22909   4.631   3.251  12.061 -2.9523  2.3690  4.0351
  170MOL0     H22910   4.734   3.641  12.305  2.3613 -0.0637  3.0082
  170MOL0     H22911   4.628   3.665  12.504  4.1755  0.9396 -3.1049
  170MOL0     H22912   4.375   3.280  12.847 -2.3774 -1.2489 -1.8879
  170MOL0     H22913   4.301   3.320  13.092 -3.6450 -0.6194  1.1754
  170MOL0     H22914   4.140   3.359  13.265 -0.0571  0.2378 -1.3877
  170MOL0     H22915   4.269   3.475  13.272 -0.4065 -0.2466 -0.3168
  170MOL0     H22916   4.159   3.477  13.486  4.0359  1.8867 -1.0084
  170MOL0     H22917   4.128   3.630  13.411  0.6052  0.3055 -0.3206
  170MOL0     H22918   3.920   3.585  13.349  6.4959  1.8954 -3.0709
  170MOL0     H22919   3.933   3.414  13.341  3.5625 -0.0583 -1.0592
  170MOL0     H22920   3.945   3.409  13.599  2.1242 -0.3022 -1.8440
  170MOL0     H22921   3.794   3.438  13.525  0.1369 -1.7221  1.1656
  170MOL0     H22922   3.826   3.695  13.558  4.9596  1.3230 -1.7309
  170MOL0     H22923   3.984   3.660  13.637 -0.0044  2.0543  1.6340
  170MOL0     H22924   3.714   3.551  13.737  0.9692 -2.4958  1.7426
  170MOL0     H22925   3.869   3.519  13.801  1.6188 -0.0830 -1.0188
  170MOL0     H22926   3.792   3.814  13.792 -0.3448 -0.0055  1.9380
  170MOL0     H22927   3.915   3.733  13.885  0.3981  0.2200 -0.8552
  170MOL0     H22928   3.604   3.698  13.918  0.1438 -2.6500  1.6601
  170MOL0     H22929   3.729   3.598  13.996 -0.7062 -0.4021  1.3457
  170MOL0     H22930   4.062   3.645  12.972  1.3822  0.7312  0.9346
  170MOL0     H22931   4.156   3.625  12.717  2.4558  2.7582  1.5492
  170MOL0     H22932   4.357   3.348  12.393 -1.7801  1.5196  1.1830
  170MOL0     H22933   4.494   3.299  12.210 -0.0721 -1.2863  2.0773
  170MOL0     H22934   5.426   3.426  10.567 -1.8697 -0.0484  0.0378
  170MOL0     H22935   5.630   3.492  10.417  0.4561  0.8436  2.3245
  170MOL0     H22936   5.846   3.592  10.103 -1.1752 -0.4965 -1.4422
  170MOL0     H22937   6.045   3.626   9.970  1.0166  1.2351  0.7201
  170MOL0     H22938   6.042   3.831   9.604  1.8582 -0.1425 -1.4824
  170MOL0     H22939   6.034   3.680   9.690 -0.3561 -0.3165  0.1202
  170MOL0     H22940   6.262   3.667   9.703 -2.6270  0.7443  2.0362
  170MOL0     H22941   6.299   3.837   9.648 -0.7622  0.1064 -0.4088
  170MOL0     H22942   6.358   3.687   9.453  0.0181  0.5601 -1.4678
  170MOL0     H22943   6.220   3.794   9.441 -0.7498 -0.3603 -0.6781
  170MOL0     H22944   6.065   3.619   9.448 -0.5006 -3.1066 -1.3492
  170MOL0     H22945   6.193   3.578   9.337 -0.7975  2.7056 -1.3110
  170MOL0     H22946   6.214   3.265   9.619 -0.1683  1.4783  3.0383
  170MOL0     H22947   5.903   4.009   9.850  0.7493 -0.1390 -1.7424
  170MOL0     H22948   5.674   4.061  10.098  1.4630 -1.2308  0.0410
  170MOL0     H22949   5.736   4.103   9.932 -2.5458  0.2348 -0.9767
  170MOL0     H22950   5.599   4.017   9.937  0.6126 -1.1813 -2.3143
  171MOL0     O22951  10.266   1.291   1.688  0.3394  0.3153 -0.5208
  171MOL0     C22952  10.261   1.363   1.587  0.1863  0.9560  0.2037
  171MOL0     O22953  10.186   1.333   1.481 -0.5781  0.2789 -0.0835
  171MOL0     C22954  10.102   1.221   1.499  0.8645 -0.3926 -0.1620
  171MOL0     C22955   9.993   1.212   1.587  0.0037  0.3629 -0.0423
  171MOL0     C22956   9.932   1.090   1.623  0.2277  0.2587  0.3647
  171MOL0     C22957   9.976   0.975   1.552  0.1599 -0.7754 -0.1691
  171MOL0     O22958   9.894   0.867   1.582  0.0643  0.3127 -0.1108
  171MOL0     C22959   9.907   0.731   1.517  0.2299 -0.5402  0.0309
  171MOL0     C22960   9.787   0.665   1.575  0.4121  0.7987  0.2162
  171MOL0     C22961   9.758   0.524   1.513  0.0174 -0.2379  0.2877
  171MOL0     C22962   9.871   0.432   1.548 -0.1345  0.3911  0.3665
  171MOL0     C22963   9.874   0.304   1.465  0.3495 -0.6474  0.6995
  171MOL0     C22964   9.939   0.181   1.537 -0.2491 -0.1086 -0.8121
  171MOL0     C22965   9.887   0.046   1.465 -0.0570  0.4164  0.5794
  171MOL0     C22966   9.926  -0.092   1.531 -0.9240 -0.0133  0.8413
  171MOL0     N22967  10.071  -0.116   1.509  0.0292  0.4740 -0.0350
  171MOL0     C22968  10.121  -0.142   1.386  0.3223 -0.9167  0.1117
  171MOL0     C22969  10.251  -0.182   1.416 -0.3828  0.0258 -0.0284
  171MOL0     C22970  10.339  -0.205   1.309 -0.0277 -0.2254  0.0720
  171MOL0     C22971  10.288  -0.329   1.227  0.4707 -0.6915  0.0822
  171MOL0     C22972  10.372  -0.366   1.103  0.7459  0.7665 -0.2769
  171MOL0     C22973  10.321  -0.475   1.013  0.7431 -0.4718  0.1123
  171MOL0     O22974  10.321  -0.436   0.874 -0.2875  0.8226 -0.2207
  171MOL0     C22975  10.297  -0.513   0.768 -0.2542 -1.5309 -0.4987
  171MOL0     C22976  10.248  -0.640   0.776  0.2878  0.3609 -0.2630
  171MOL0     C22977  10.223  -0.718   0.666  0.0763  0.0945 -1.0816
  171MOL0     C22978  10.229  -0.658   0.543  0.8377 -0.3114  0.0211
  171MOL0     C22979  10.200  -0.738   0.427  1.1214  1.1226 -0.6090
  171MOL0     O22980  10.131  -0.860   0.436  0.1968 -0.5124  0.0093
  171MOL0     C22981  10.116  -0.951   0.331 -0.1048  0.0020 -0.4881
  171MOL0     C22982  10.131  -1.087   0.356  0.5231 -0.8458 -0.1566
  171MOL0     C22983  10.127  -1.197   0.266  0.3521 -0.3206  0.0777
  171MOL0     C22984  10.114  -1.163   0.133  0.0257  0.4294 -0.8851
  171MOL0     O22985  10.122  -1.258   0.038 -0.9991  0.5393 -0.2176
  171MOL0     C22986  10.081  -1.398   0.054  0.5267 -0.1233 -0.3439
  171MOL0     C22987  10.126  -1.459  -0.077  0.4132 -0.0443  0.3542
  171MOL0     C22988  10.089  -1.608  -0.072  0.2427  0.6573  1.2156
  171MOL0     C22989  10.070  -1.676  -0.214 -0.6836 -0.2095 -0.5407
  171MOL0     C22990   9.946  -1.641  -0.299 -0.4333 -0.1924 -0.7991
  171MOL0     C22991   9.940  -1.720  -0.432  0.4951  0.3503  0.6685
  171MOL0     C22992   9.803  -1.725  -0.499 -0.0009  0.8253  0.4728
  171MOL0     C22993   9.813  -1.780  -0.641 -0.5102  0.8587 -0.0023
  171MOL0    Cl22994   9.835  -1.962  -0.637 -0.2727  0.6734  0.0741
  171MOL0     C22995  10.093  -1.026   0.104  1.2188 -0.6768 -0.0332
  171MOL0     C22996  10.097  -0.919   0.194 -0.4161  0.4666 -0.6102
  171MOL0     O22997  10.239  -0.688   0.321  0.7612 -0.6597 -0.6985
  171MOL0     C22998  10.257  -0.517   0.529  0.2338  0.0896  0.8167
  171MOL0     C22999  10.302  -0.450   0.643 -0.2400  0.0234 -0.8163
  171MOL0     N23000  10.270  -0.183   1.550 -0.9846 -0.0787 -0.1942
  171MOL0     N23001  10.163  -0.131   1.603  0.7303  0.6696  0.2567
  171MOL0     C23002  10.087   0.985   1.465  0.0234 -0.2937  0.3355
  171MOL0     C23003  10.142   1.107   1.436 -0.1338 -0.1508  0.0387
  171MOL0     C23004  10.351   1.488   1.594 -0.6262 -0.5667  1.5149
  171MOL0     C23005  10.308   1.602   1.531  0.6272 -1.1138  0.1108
  171MOL0     C23006  10.376   1.723   1.534  0.0105 -0.2141  0.3441
  171MOL0     C23007  10.498   1.730   1.605  0.4869  0.0357  0.3408
  171MOL0     O23008  10.586   1.834   1.617  0.1457  0.2703 -0.2485
  171MOL0     C23009  10.561   1.958   1.560  0.7902  0.1609  0.1175
  171MOL0     C23010  10.607   1.964   1.416 -0.5292 -0.0769  0.3885
  171MOL0     C23011  10.583   2.099   1.344 -0.7071 -0.9240 -0.2269
  171MOL0     C23012  10.571   2.105   1.195 -0.5421 -0.4442 -0.7489
  171MOL0     C23013  10.697   2.090   1.123  0.7741  0.0005  0.6748
  171MOL0     C23014  10.795   2.099   1.057 -1.1081 -0.5213 -0.1190
  171MOL0     C23015  10.542   1.618   1.668  0.1107 -0.1322  0.0142
  171MOL0     C23016  10.476   1.492   1.666  0.3121  0.7012 -0.4115
  171MOL0     C23017  10.553   1.372   1.721  0.3166 -1.5217  0.5248
  171MOL0     H23018   9.971   1.309   1.631  0.8256 -0.4299  2.2697
  171MOL0     H23019   9.850   1.086   1.694  0.6190  1.3370  0.8998
  171MOL0     H23020   9.894   0.727   1.408 -0.5964 -2.2858  0.1580
  171MOL0     H23021  10.010   0.711   1.550  0.8627  4.1404  1.6389
  171MOL0     H23022   9.697   0.724   1.558  0.9692  1.4239 -0.6279
  171MOL0     H23023   9.797   0.653   1.683  1.2452 -0.6664  0.0115
  171MOL0     H23024   9.758   0.530   1.403 -2.5118 -0.5287  0.2235
  171MOL0     H23025   9.661   0.488   1.547  0.4146 -1.0286  0.5990
  171MOL0     H23026   9.969   0.479   1.555  1.0426 -1.8895  0.3719
  171MOL0     H23027   9.853   0.406   1.653 -0.7333  1.2131  0.4793
  171MOL0     H23028   9.767   0.289   1.448  0.1022  1.2645  0.3357
  171MOL0     H23029   9.923   0.328   1.370  0.8528  1.6723  1.4914
  171MOL0     H23030  10.049   0.188   1.531  0.1049 -0.9780  2.5223
  171MOL0     H23031   9.914   0.167   1.642 -2.2319 -1.6160 -1.4332
  171MOL0     H23032   9.930   0.043   1.364 -0.5960 -0.7255  0.3660
  171MOL0     H23033   9.780   0.058   1.442  0.0122  1.2364  0.6536
  171MOL0     H23034   9.893  -0.097   1.635  1.7283 -0.0344  1.7611
  171MOL0     H23035   9.877  -0.177   1.482  1.8484 -1.1901 -0.1093
  171MOL0     H23036  10.079  -0.136   1.286  1.8467 -1.5738 -0.6140
  171MOL0     H23037  10.328  -0.125   1.236  1.1819  0.0284  0.1397
  171MOL0     H23038  10.442  -0.226   1.341  0.3803 -1.9566 -2.1665
  171MOL0     H23039  10.287  -0.418   1.290  2.1181 -0.7370  0.0849
  171MOL0     H23040  10.184  -0.319   1.193  0.1707 -2.2757  0.4279
  171MOL0     H23041  10.471  -0.401   1.134  1.0329  3.7450  2.6424
  171MOL0     H23042  10.383  -0.276   1.042  1.7201 -0.9123 -2.7889
  171MOL0     H23043  10.220  -0.511   1.034  1.0915 -1.2519  0.4549
  171MOL0     H23044  10.388  -0.559   1.029  0.4722 -0.3091  2.3581
  171MOL0     H23045  10.229  -0.685   0.873  0.5053  4.3197  1.8249
  171MOL0     H23046  10.182  -0.819   0.673 -2.9872  1.3596  2.0321
  171MOL0     H23047  10.152  -1.107   0.461  3.4037 -1.6057 -0.8079
  171MOL0     H23048  10.162  -1.296   0.295 -2.1569 -1.0752  0.7687
  171MOL0     H23049  10.131  -1.440   0.142 -1.3891  0.0493  0.8837
  171MOL0     H23050   9.975  -1.413   0.073 -0.3949 -0.7662 -4.8596
  171MOL0     H23051  10.093  -1.417  -0.172  2.1142  0.8822  0.1308
  171MOL0     H23052  10.235  -1.453  -0.087  0.1110  3.9945 -4.3774
  171MOL0     H23053  10.156  -1.672  -0.015 -0.9394  0.2849  2.2447
  171MOL0     H23054   9.991  -1.616  -0.024  0.2796 -3.0180  0.9315
  171MOL0     H23055  10.054  -1.782  -0.192  2.2748 -0.7957 -0.7404
  171MOL0     H23056  10.160  -1.662  -0.274  0.3192  0.6027  1.0824
  171MOL0     H23057   9.960  -1.539  -0.335  0.3890 -1.3957 -4.3437
  171MOL0     H23058   9.859  -1.648  -0.234  0.3765 -1.2059  0.2130
  171MOL0     H23059  10.016  -1.677  -0.497 -0.6696  0.7954 -0.4310
  171MOL0     H23060   9.968  -1.825  -0.428  1.8273  0.4511 -2.9906
  171MOL0     H23061   9.754  -1.628  -0.507 -0.8749  0.3894  0.3852
  171MOL0     H23062   9.746  -1.800  -0.445 -3.4322  1.6097 -1.7405
  171MOL0     H23063   9.718  -1.758  -0.690 -0.3516  0.6627 -0.3979
  171MOL0     H23064   9.894  -1.734  -0.699 -0.0458  0.5135  0.3623
  171MOL0     H23065  10.074  -1.008  -0.001 -1.5988  1.1488  0.6637
  171MOL0     H23066  10.095  -0.812   0.176  1.3143  1.0803  2.1997
  171MOL0     H23067  10.242  -0.459   0.438  1.2395  0.8497  1.1202
  171MOL0     H23068  10.344  -0.349   0.644  0.3736 -0.2117  0.6966
  171MOL0     H23069  10.126   0.899   1.412  0.3552  1.5669 -2.7096
  171MOL0     H23070  10.226   1.127   1.370  0.2058  1.1170  0.8019
  171MOL0     H23071  10.214   1.590   1.478  0.2034 -0.2351  0.6336
  171MOL0     H23072  10.342   1.799   1.465  1.3521 -1.9192 -2.3930
  171MOL0     H23073  10.614   2.037   1.614  3.3373  0.8435 -3.0590
  171MOL0     H23074  10.458   1.995   1.557  2.1137  4.5444  1.2798
  171MOL0     H23075  10.551   1.892   1.355 -2.7226 -0.2198  2.4206
  171MOL0     H23076  10.714   1.943   1.410 -0.1491  2.0360 -3.2558
  171MOL0     H23077  10.652   2.177   1.376  0.0487 -0.5547 -2.5575
  171MOL0     H23078  10.481   2.125   1.375 -0.6088  0.8433 -1.2807
  171MOL0     H23079  10.496   2.032   1.163 -0.8426  0.0429 -1.1659
  171MOL0     H23080  10.526   2.201   1.167 -1.2685 -0.9041 -1.1839
  171MOL0     H23081  10.892   2.095   1.011 -0.4266 -0.0286  1.2224
  171MOL0     H23082  10.636   1.627   1.723  2.8540 -3.2976 -3.5448
  171MOL0     H23083  10.660   1.394   1.708 -0.1026 -0.6143 -1.8635
  171MOL0     H23084  10.546   1.349   1.828 -0.9437 -0.3518  0.7160
  171MOL0     H23085  10.520   1.290   1.657 -1.0028  0.7763 -1.9281
  172MOL0     O23086   5.584   1.282   4.339 -0.1325 -0.1656  0.0631
  172MOL0     C23087   5.620   1.261   4.455 -0.3985 -0.0108  0.4547
  172MOL0     O23088   5.739   1.217   4.488  0.2555 -0.4073  0.2735
  172MOL0     C23089   5.835   1.158   4.415 -0.1423 -0.2256  0.5620
  172MOL0     C23090   5.966   1.146   4.465  0.7332 -1.0298  0.4355
  172MOL0     C23091   6.071   1.098   4.385 -0.3695  0.9588 -0.6930
  172MOL0     C23092   6.055   1.059   4.256  0.2291 -0.6811  0.7349
  172MOL0     O23093   6.140   1.040   4.158  0.6445  0.2458 -0.2326
  172MOL0     C23094   6.170   1.156   4.082 -0.3767 -0.5026 -0.7851
  172MOL0     C23095   6.322   1.153   4.073  0.0181 -0.9056  0.0636
  172MOL0     C23096   6.370   1.135   3.928 -0.2823  0.5516 -0.0247
  172MOL0     C23097   6.520   1.138   3.916  0.7381 -0.1836  0.9393
  172MOL0     C23098   6.560   1.116   3.777 -1.2452  0.9634  0.2447
  172MOL0     C23099   6.565   1.235   3.680  1.3673  0.4778 -0.6534
  172MOL0     C23100   6.564   1.202   3.527  1.5955  0.0598  0.2952
  172MOL0     C23101   6.702   1.233   3.479 -0.8496  1.2887 -0.3275
  172MOL0     N23102   6.815   1.136   3.482  0.0886  0.9877 -0.7424
  172MOL0     C23103   6.805   1.011   3.430 -0.8365 -0.0885 -0.3375
  172MOL0     C23104   6.916   0.946   3.465  0.3064  0.5615 -1.0601
  172MOL0     C23105   6.946   0.805   3.429 -0.1797 -0.2782 -0.1623
  172MOL0     C23106   6.954   0.786   3.276  0.1061  0.7607 -0.4183
  172MOL0     C23107   6.995   0.642   3.247 -0.0046 -0.1827 -0.3227
  172MOL0     C23108   6.960   0.596   3.099 -0.3295  0.4071 -0.2878
  172MOL0     O23109   7.075   0.622   3.012  1.0315  0.4291 -0.9071
  172MOL0     C23110   7.100   0.563   2.894 -0.3495  0.8224 -0.7158
  172MOL0     C23111   7.023   0.448   2.844 -0.1786 -0.1782  0.1252
  172MOL0     C23112   7.058   0.394   2.724  0.2751  0.0105  0.2110
  172MOL0     C23113   7.153   0.454   2.641 -0.0692  0.4908 -1.1097
  172MOL0     C23114   7.152   0.422   2.500  0.2786  0.0806 -0.0150
  172MOL0     O23115   7.054   0.350   2.447  0.8924 -0.1851 -0.1530
  172MOL0     C23116   7.048   0.315   2.316  0.4189 -0.6205  0.5177
  172MOL0     C23117   7.154   0.299   2.232  0.2182  0.2339 -0.7038
  172MOL0     C23118   7.120   0.253   2.104 -0.2071 -0.2456  0.0037
  172MOL0     C23119   6.989   0.246   2.050 -0.1023 -0.0194 -0.5541
  172MOL0     O23120   6.969   0.227   1.915  0.3603  0.2276 -0.3173
  172MOL0     C23121   7.027   0.324   1.827  0.5525  0.1056  0.6989
  172MOL0     C23122   7.030   0.259   1.686  0.4910 -0.8302  0.0382
  172MOL0     C23123   7.108   0.128   1.658  0.3104 -0.6438 -0.0106
  172MOL0     C23124   7.256   0.143   1.687 -0.9165 -0.1795 -1.0291
  172MOL0     C23125   7.346   0.039   1.632 -0.3322 -0.1012 -0.8780
  172MOL0     C23126   7.376  -0.077   1.729 -0.2808  0.5003  0.8025
  172MOL0     C23127   7.491  -0.167   1.664 -1.3233 -0.8923 -0.2912
  172MOL0     C23128   7.509  -0.300   1.733  0.9717 -0.0674 -0.1062
  172MOL0    Cl23129   7.536  -0.275   1.897  0.6429  0.1096  0.2795
  172MOL0     C23130   6.881   0.280   2.139  0.0646  0.6243  0.5325
  172MOL0     C23131   6.914   0.301   2.265 -0.2891 -0.0325  0.8685
  172MOL0     O23132   7.244   0.466   2.437 -0.0921  0.0839 -1.0457
  172MOL0     C23133   7.219   0.574   2.685  1.0119 -0.0126  0.1064
  172MOL0     C23134   7.198   0.624   2.811  0.0242  0.1881  0.2367
  172MOL0     N23135   6.980   1.022   3.558 -0.1336  0.3768 -0.0342
  172MOL0     N23136   6.924   1.135   3.570 -0.5358  0.8423  0.0887
  172MOL0     C23137   5.918   1.058   4.214 -0.1059 -0.1626 -0.6520
  172MOL0     C23138   5.809   1.103   4.289  0.2878  0.7237 -0.2041
  172MOL0     C23139   5.515   1.268   4.558 -0.2874  0.1642 -0.7942
  172MOL0     C23140   5.441   1.394   4.578  0.3772  0.0266 -0.0675
  172MOL0     C23141   5.321   1.400   4.647 -0.1492 -0.3596  0.1971
  172MOL0     C23142   5.274   1.296   4.723 -0.3817  0.6221  1.2708
  172MOL0     O23143   5.170   1.296   4.816  1.3905  0.0783  0.1392
  172MOL0     C23144   5.073   1.403   4.800  0.3298  0.3690 -0.2926
  172MOL0     C23145   4.940   1.367   4.862  0.2914 -0.4588 -0.1384
  172MOL0     C23146   4.956   1.354   5.018 -0.2710  0.4614  0.4027
  172MOL0     C23147   4.829   1.321   5.096  0.5782  0.7052 -0.0290
  172MOL0     C23148   4.777   1.183   5.087  0.6615  0.7846 -1.2570
  172MOL0     C23149   4.741   1.067   5.090  0.0816  0.8150 -0.1387
  172MOL0     C23150   5.357   1.174   4.722 -1.2822  0.0453  0.1514
  172MOL0     C23151   5.479   1.164   4.641  0.5065  0.1829 -0.9687
  172MOL0     C23152   5.549   1.031   4.650  0.5005 -0.1878 -0.1359
  172MOL0     H23153   5.990   1.173   4.568 -2.3476 -0.7602  1.1898
  172MOL0     H23154   6.167   1.091   4.436 -1.1606 -2.2630  0.6273
  172MOL0     H23155   6.125   1.145   3.983 -3.6969  0.5108  0.4686
  172MOL0     H23156   6.131   1.254   4.112 -0.8429 -0.5726 -1.1481
  172MOL0     H23157   6.370   1.075   4.133  0.3934 -0.5292  0.2637
  172MOL0     H23158   6.369   1.249   4.100  1.3953 -0.9434 -1.9644
  172MOL0     H23159   6.334   1.225   3.878 -0.4759  1.1296  1.1309
  172MOL0     H23160   6.326   1.040   3.896 -4.0878  1.2609  2.4390
  172MOL0     H23161   6.552   1.234   3.959 -0.9648  1.1255 -0.5508
  172MOL0     H23162   6.556   1.054   3.977  0.4891  0.0985  1.4897
  172MOL0     H23163   6.652   1.058   3.770 -1.0228  1.3253  0.1804
  172MOL0     H23164   6.485   1.044   3.742 -1.9692  2.4618 -1.4040
  172MOL0     H23165   6.464   1.276   3.687  0.3128 -1.6235 -2.1844
  172MOL0     H23166   6.627   1.319   3.711 -0.7342  1.4902  1.0951
  172MOL0     H23167   6.495   1.272   3.479  0.0102 -0.4347  1.7533
  172MOL0     H23168   6.540   1.105   3.485  3.5748  0.0666 -1.0000
  172MOL0     H23169   6.687   1.237   3.371  1.9103  0.2508 -0.8258
  172MOL0     H23170   6.731   1.336   3.503  1.7522  0.2412  1.4316
  172MOL0     H23171   6.720   0.969   3.378 -2.0254 -0.1629  1.5817
  172MOL0     H23172   7.036   0.764   3.475  0.4749  1.4841  0.2025
  172MOL0     H23173   6.862   0.748   3.470 -1.0532  0.9036 -0.2519
  172MOL0     H23174   6.851   0.789   3.237 -0.6141 -1.9703  1.0115
  172MOL0     H23175   7.018   0.860   3.227  1.5836  0.2302  0.6767
  172MOL0     H23176   6.940   0.578   3.316 -2.5773  0.4304 -1.6737
  172MOL0     H23177   7.100   0.620   3.266  0.1070 -0.1877 -0.9264
  172MOL0     H23178   6.870   0.646   3.062  0.5585  0.5427 -2.4300
  172MOL0     H23179   6.945   0.487   3.098 -1.6064  0.5702 -0.5291
  172MOL0     H23180   6.953   0.391   2.904  1.4457 -0.9695  1.3532
  172MOL0     H23181   7.006   0.306   2.686  0.4787  0.2830 -0.7302
  172MOL0     H23182   7.260   0.319   2.247  0.3398  1.6854 -2.9403
  172MOL0     H23183   7.208   0.237   2.042 -0.3082  0.3267 -0.2956
  172MOL0     H23184   6.987   0.425   1.843  2.6382  0.5360  4.3827
  172MOL0     H23185   7.130   0.342   1.860  1.1536 -0.7461 -0.6552
  172MOL0     H23186   6.926   0.246   1.656  0.3286 -0.9982  0.6688
  172MOL0     H23187   7.078   0.333   1.620  1.0631  1.2226  2.5790
  172MOL0     H23188   7.066   0.052   1.724 -0.4437 -1.6473 -1.5815
  172MOL0     H23189   7.100   0.100   1.552 -2.3440 -2.0028  0.4669
  172MOL0     H23190   7.261   0.156   1.795  1.5003  1.0565 -1.2131
  172MOL0     H23191   7.293   0.238   1.646  1.3938 -0.5041  0.0980
  172MOL0     H23192   7.431   0.099   1.600 -0.8366  1.4513  0.5540
  172MOL0     H23193   7.296  -0.009   1.547 -0.0593  0.3291 -1.2845
  172MOL0     H23194   7.426  -0.037   1.817 -1.2157  0.1731  1.4904
  172MOL0     H23195   7.284  -0.131   1.752 -0.9778  2.0424  1.7534
  172MOL0     H23196   7.581  -0.106   1.671  0.6188 -3.5643 -0.5997
  172MOL0     H23197   7.461  -0.183   1.560  0.3234  4.4227 -1.9049
  172MOL0     H23198   7.419  -0.362   1.725  0.8097 -0.3005  2.5089
  172MOL0     H23199   7.589  -0.358   1.686  0.6916 -0.7847  0.2813
  172MOL0     H23200   6.776   0.280   2.111  0.6299 -0.4298 -1.7947
  172MOL0     H23201   6.820   0.308   2.320 -1.8808  1.3409 -1.8123
  172MOL0     H23202   7.296   0.630   2.633  0.3736  1.3006  0.5348
  172MOL0     H23203   7.258   0.710   2.837  1.8021 -1.1833  0.9099
  172MOL0     H23204   5.905   1.030   4.110  0.0004  1.3184 -1.0861
  172MOL0     H23205   5.711   1.103   4.242  0.1052 -1.9906  0.0427
  172MOL0     H23206   5.463   1.487   4.527  0.4988  0.2920  0.4668
  172MOL0     H23207   5.283   1.501   4.658  1.1053  0.4432 -2.1228
  172MOL0     H23208   5.057   1.425   4.694  0.0550 -0.7082 -0.4848
  172MOL0     H23209   5.115   1.486   4.856  0.0426  1.2714 -1.3747
  172MOL0     H23210   4.919   1.272   4.812  3.6027 -0.7755 -1.1727
  172MOL0     H23211   4.863   1.444   4.850 -1.5947 -1.4380  3.8140
  172MOL0     H23212   5.005   1.441   5.063  1.3594 -0.8008  1.1804
  172MOL0     H23213   5.026   1.271   5.034 -2.4078 -1.4305  0.3511
  172MOL0     H23214   4.840   1.332   5.204 -0.2655 -0.2554  0.1823
  172MOL0     H23215   4.756   1.397   5.067  0.0452 -0.6828 -2.6920
  172MOL0     H23216   4.703   0.967   5.082  2.6052 -0.1272 -1.6729
  172MOL0     H23217   5.337   1.081   4.776 -3.0243 -0.8455 -1.8726
  172MOL0     H23218   5.525   0.981   4.745  1.0894  0.9896  0.6597
  172MOL0     H23219   5.513   0.967   4.569  2.3354 -0.0022 -1.1632
  172MOL0     H23220   5.658   1.038   4.658  0.5156 -1.2372  0.9381
  173MOL0     O23221   6.518   8.549   5.856 -0.5968 -1.0440 -0.0179
  173MOL0     C23222   6.528   8.672   5.841  0.6851  0.2245  0.5756
  173MOL0     O23223   6.627   8.743   5.900  0.4345  0.1262  0.1416
  173MOL0     C23224   6.721   8.676   5.966 -0.5386  0.0528  0.0765
  173MOL0     C23225   6.859   8.686   5.929 -0.3270 -0.2295 -0.0621
  173MOL0     C23226   6.963   8.631   6.007 -0.3142 -0.3405 -0.5209
  173MOL0     C23227   6.927   8.558   6.123 -0.1101 -0.4161  0.4973
  173MOL0     O23228   7.022   8.501   6.204  0.2813  0.2117 -0.7253
  173MOL0     C23229   7.153   8.490   6.145 -0.3537  0.1527  0.4366
  173MOL0     C23230   7.236   8.395   6.233  0.8079  0.5212  0.3835
  173MOL0     C23231   7.250   8.451   6.379  0.7937 -0.0857  0.7950
  173MOL0     C23232   7.354   8.376   6.468  0.3599  0.9429 -1.1197
  173MOL0     C23233   7.342   8.218   6.473 -0.6018  0.3503  0.7722
  173MOL0     C23234   7.451   8.154   6.560 -0.1299 -0.3541  1.0886
  173MOL0     C23235   7.452   7.999   6.529 -0.1486 -0.5586 -0.8932
  173MOL0     C23236   7.538   7.924   6.635  0.3988 -0.6298 -0.0017
  173MOL0     N23237   7.525   7.782   6.633  0.4615  0.1497  0.3171
  173MOL0     C23238   7.468   7.706   6.731 -0.2716 -0.5039 -0.3661
  173MOL0     C23239   7.484   7.578   6.683  1.1550 -0.3037 -0.1622
  173MOL0     C23240   7.433   7.461   6.743  0.6215 -0.0139  0.5014
  173MOL0     C23241   7.481   7.459   6.883 -0.4919 -0.2070  0.3161
  173MOL0     C23242   7.465   7.322   6.947 -0.9488  0.4494 -0.4404
  173MOL0     C23243   7.576   7.296   7.053  0.1200 -0.3056  0.3122
  173MOL0     O23244   7.555   7.164   7.104  0.0040 -0.3137  0.1320
  173MOL0     C23245   7.617   7.140   7.224 -0.5531 -0.1414  0.0765
  173MOL0     C23246   7.560   7.044   7.313 -0.0600 -0.2575 -0.6607
  173MOL0     C23247   7.623   6.995   7.429 -0.5218  0.3485  0.2353
  173MOL0     C23248   7.752   7.043   7.470 -0.3525  0.3730 -0.2847
  173MOL0     C23249   7.823   6.992   7.585 -0.3732  0.1883  0.5339
  173MOL0     O23250   7.802   6.868   7.622  0.2792  0.5393 -0.2243
  173MOL0     C23251   7.853   6.827   7.740 -0.3987 -0.4450  0.0400
  173MOL0     C23252   7.765   6.789   7.837  0.7276  0.4927  0.3037
  173MOL0     C23253   7.804   6.733   7.959 -0.5655  0.3635  0.4600
  173MOL0     C23254   7.942   6.722   7.986  0.7128 -0.5888  1.0487
  173MOL0     O23255   7.986   6.683   8.111  0.6663  0.7137  0.2756
  173MOL0     C23256   8.125   6.678   8.144 -0.5660 -0.2119 -0.4357
  173MOL0     C23257   8.133   6.671   8.302 -0.7775  0.2606 -0.2356
  173MOL0     C23258   8.276   6.656   8.357  0.4035 -0.2480  0.7623
  173MOL0     C23259   8.282   6.730   8.487  0.6562  0.1331  0.1528
  173MOL0     C23260   8.370   6.660   8.604  1.1153 -0.5460  0.7297
  173MOL0     C23261   8.309   6.528   8.658  0.7017 -0.1653  0.1835
  173MOL0     C23262   8.386   6.489   8.787  0.7016  0.6175  0.3273
  173MOL0     C23263   8.304   6.393   8.870 -0.6456  0.0813 -0.4314
  173MOL0    Cl23264   8.229   6.268   8.782 -0.3439  0.0887  0.4016
  173MOL0     C23265   8.030   6.752   7.883  0.5085 -0.5426  0.4148
  173MOL0     C23266   7.985   6.803   7.764  0.3676  0.4124 -0.4356
  173MOL0     O23267   7.896   7.068   7.643 -0.4388 -0.8473 -0.3118
  173MOL0     C23268   7.804   7.146   7.392  0.0668 -0.6504  1.0382
  173MOL0     C23269   7.735   7.198   7.277  0.1577 -1.0578 -0.8453
  173MOL0     N23270   7.569   7.587   6.574 -0.8417 -0.0532 -0.3319
  173MOL0     N23271   7.595   7.710   6.546  0.1823 -0.7746  0.4954
  173MOL0     C23272   6.794   8.549   6.170  0.2530 -0.0915  0.4630
  173MOL0     C23273   6.692   8.617   6.097 -0.1336 -0.0548  0.1754
  173MOL0     C23274   6.427   8.740   5.755 -0.2524  0.4971 -0.6653
  173MOL0     C23275   6.332   8.819   5.825  0.4032  0.0637 -0.1996
  173MOL0     C23276   6.233   8.886   5.752  0.5905  0.6164 -0.1727
  173MOL0     C23277   6.214   8.863   5.617  0.5216  0.3237  0.1023
  173MOL0     O23278   6.098   8.923   5.557  0.2944  0.5271 -0.4959
  173MOL0     C23279   6.070   8.881   5.417 -0.6071  0.8420 -0.1087
  173MOL0     C23280   6.048   8.731   5.392  0.3711 -1.2883 -0.3236
  173MOL0     C23281   5.896   8.698   5.394  0.3082 -0.5614  0.5895
  173MOL0     C23282   5.848   8.595   5.297 -0.0612 -0.4036  0.8765
  173MOL0     C23283   5.920   8.467   5.318 -0.0584 -0.5792  0.7390
  173MOL0     C23284   5.980   8.361   5.305  0.4943  0.4628  0.5462
  173MOL0     C23285   6.309   8.781   5.550 -0.4523 -1.1453 -0.2190
  173MOL0     C23286   6.414   8.721   5.616  0.0582  0.4365 -0.1789
  173MOL0     C23287   6.529   8.658   5.541 -0.2447 -0.8424  0.4787
  173MOL0     H23288   6.879   8.755   5.847  0.3571 -1.5864 -1.0783
  173MOL0     H23289   7.065   8.638   5.972  0.0668  0.0098  0.6364
  173MOL0     H23290   7.148   8.453   6.043 -4.0119  2.9478 -0.6315
  173MOL0     H23291   7.191   8.593   6.141 -1.0240  0.4048  0.3953
  173MOL0     H23292   7.328   8.405   6.174 -0.1735  3.6944 -0.8268
  173MOL0     H23293   7.197   8.293   6.235 -0.1033  0.8701  1.4117
  173MOL0     H23294   7.150   8.453   6.423  0.0088  1.3496 -0.9259
  173MOL0     H23295   7.280   8.555   6.363 -2.3182  0.4883 -2.6834
  173MOL0     H23296   7.445   8.398   6.412 -0.2743  0.1219 -2.5123
  173MOL0     H23297   7.360   8.404   6.574  1.1720 -5.0579  0.7721
  173MOL0     H23298   7.254   8.186   6.528 -1.2672  2.9430  1.3395
  173MOL0     H23299   7.341   8.181   6.370 -1.7089 -1.7560  1.4983
  173MOL0     H23300   7.551   8.192   6.536  0.1186 -0.8491  1.3336
  173MOL0     H23301   7.420   8.184   6.660  1.1017 -2.9388  2.3423
  173MOL0     H23302   7.487   7.979   6.427  1.0181 -1.5346 -0.3267
  173MOL0     H23303   7.347   7.968   6.537 -0.8632  1.8020  6.9222
  173MOL0     H23304   7.639   7.946   6.598 -0.0250  1.6062  0.0231
  173MOL0     H23305   7.515   7.971   6.732 -3.4198 -3.0753  0.4693
  173MOL0     H23306   7.415   7.737   6.820 -2.1565 -0.3184 -1.4968
  173MOL0     H23307   7.324   7.457   6.733  0.8520 -0.0897 -3.2685
  173MOL0     H23308   7.457   7.385   6.668 -0.8998  1.8593 -2.0437
  173MOL0     H23309   7.584   7.496   6.895 -0.7159  1.6123 -2.4504
  173MOL0     H23310   7.414   7.526   6.937 -0.1467 -1.6950  2.7486
  173MOL0     H23311   7.466   7.241   6.874 -2.6083 -0.1656  0.1860
  173MOL0     H23312   7.369   7.315   6.999  0.1733 -1.9240  1.5222
  173MOL0     H23313   7.568   7.367   7.136  0.6814 -0.6055  0.6253
  173MOL0     H23314   7.666   7.322   6.997 -0.2020 -2.0276 -1.0884
  173MOL0     H23315   7.460   7.015   7.280  0.2964  0.5341 -2.5450
  173MOL0     H23316   7.584   6.901   7.467  1.3376 -1.9198 -3.0118
  173MOL0     H23317   7.661   6.802   7.811  1.5059  0.4777 -3.3205
  173MOL0     H23318   7.736   6.714   8.042  0.1752  1.5763  1.4018
  173MOL0     H23319   8.162   6.582   8.105  0.6865 -0.6606  1.6902
  173MOL0     H23320   8.182   6.766   8.116 -1.6879  1.3296  1.8053
  173MOL0     H23321   8.079   6.757   8.341 -3.5964 -1.4130 -0.2113
  173MOL0     H23322   8.077   6.588   8.344  0.9879 -2.1835 -2.3719
  173MOL0     H23323   8.297   6.550   8.367  0.4139 -0.3999 -0.7131
  173MOL0     H23324   8.344   6.683   8.276  0.3628  1.4973  1.2493
  173MOL0     H23325   8.180   6.738   8.526  0.7513  2.5715  0.0718
  173MOL0     H23326   8.314   6.834   8.476 -0.5222  0.4375 -0.4713
  173MOL0     H23327   8.388   6.723   8.691 -1.5637  0.5311  0.5863
  173MOL0     H23328   8.471   6.637   8.567  1.2235  1.3017 -0.2505
  173MOL0     H23329   8.205   6.555   8.682  1.0880  4.2199 -2.1808
  173MOL0     H23330   8.310   6.444   8.587  1.4407 -0.0070  0.0054
  173MOL0     H23331   8.403   6.580   8.845 -0.0445  2.6751 -2.4876
  173MOL0     H23332   8.480   6.444   8.753  1.6137  2.2129  0.6361
  173MOL0     H23333   8.367   6.348   8.948 -1.1077 -2.4508 -1.4232
  173MOL0     H23334   8.226   6.456   8.914  0.9185  0.1748  2.4637
  173MOL0     H23335   8.136   6.739   7.904  1.5404  1.5161 -2.6843
  173MOL0     H23336   8.058   6.831   7.690  1.4542  0.0181  0.4606
  173MOL0     H23337   7.895   7.196   7.423  0.7305 -1.6155  0.6973
  173MOL0     H23338   7.773   7.286   7.227 -3.5794 -0.9866 -3.9987
  173MOL0     H23339   6.758   8.494   6.256 -2.1848  2.3209  1.1379
  173MOL0     H23340   6.590   8.602   6.130  0.3323 -2.6675  0.7183
  173MOL0     H23341   6.335   8.826   5.933  1.2477 -3.5099  0.1158
  173MOL0     H23342   6.164   8.948   5.808  1.8503  0.7084  1.3406
  173MOL0     H23343   6.161   8.916   5.369  0.9244  1.4175  2.9262
  173MOL0     H23344   5.980   8.940   5.397 -1.9150 -0.2457  2.1262
  173MOL0     H23345   6.104   8.663   5.457  0.2832 -1.4187 -0.3847
  173MOL0     H23346   6.084   8.720   5.290 -1.9712  0.2976 -1.4134
  173MOL0     H23347   5.847   8.794   5.377  1.1476  0.0682  1.6196
  173MOL0     H23348   5.874   8.665   5.496 -0.7226  2.1746  1.3279
  173MOL0     H23349   5.740   8.590   5.312 -0.3939 -3.0887 -1.4383
  173MOL0     H23350   5.869   8.632   5.196  2.6153  0.8804  1.7902
  173MOL0     H23351   6.021   8.264   5.284  1.4196  1.0626 -0.4929
  173MOL0     H23352   6.297   8.757   5.445  0.8472 -0.3561 -0.5755
  173MOL0     H23353   6.517   8.689   5.437 -4.0666  0.4963  1.1343
  173MOL0     H23354   6.629   8.694   5.568 -1.2962  3.4750 -0.6338
  173MOL0     H23355   6.520   8.549   5.542  1.9672 -1.0780  0.2146
  174MOL0     O23356   1.517  11.215   5.473 -0.0380 -0.1634 -0.1313
  174MOL0     C23357   1.530  11.332   5.433  0.1435  0.2148  0.2105
  174MOL0     O23358   1.487  11.384   5.317 -0.7076 -0.7733  0.0251
  174MOL0     C23359   1.415  11.310   5.235 -0.4738  0.2370 -0.4103
  174MOL0     C23360   1.475  11.183   5.202  0.9182 -0.7434 -0.0481
  174MOL0     C23361   1.404  11.091   5.130 -0.6293 -0.0062 -0.4225
  174MOL0     C23362   1.282  11.122   5.077 -0.3013 -0.2972  0.1768
  174MOL0     O23363   1.203  11.024   5.013 -0.4698  0.6587  0.4261
  174MOL0     C23364   1.222  10.884   5.051  0.0117 -0.2923  0.4274
  174MOL0     C23365   1.100  10.804   5.005 -0.4313  0.4000 -0.1349
  174MOL0     C23366   1.075  10.672   5.072  0.6688  0.0364 -0.4458
  174MOL0     C23367   1.037  10.672   5.215  0.1903 -0.3845  0.3872
  174MOL0     C23368   0.968  10.536   5.247  0.5848 -0.1562  1.2483
  174MOL0     C23369   0.943  10.536   5.389  1.0488 -0.2389 -0.1619
  174MOL0     C23370   0.850  10.411   5.421  0.2999  0.6355 -0.0927
  174MOL0     C23371   0.924  10.274   5.436 -0.2483  0.2599  0.0053
  174MOL0     N23372   0.910  10.187   5.314  0.0765 -0.5051 -1.0070
  174MOL0     C23373   0.825  10.075   5.304 -0.3487 -0.5616 -1.3732
  174MOL0     C23374   0.860  10.004   5.198 -0.0107 -1.0276 -0.6948
  174MOL0     C23375   0.819   9.866   5.157  0.1226  1.2127 -0.0124
  174MOL0     C23376   0.926   9.767   5.201 -0.7727 -0.3218 -0.8875
  174MOL0     C23377   0.927   9.727   5.344 -0.0125  0.0785 -0.1835
  174MOL0     C23378   1.037   9.631   5.389 -0.1704 -1.5338  0.2684
  174MOL0     O23379   0.998   9.503   5.357  0.2713 -0.3714 -0.1491
  174MOL0     C23380   1.084   9.397   5.381 -0.6474  0.0583 -1.4465
  174MOL0     C23381   1.042   9.281   5.310  0.2935  0.8366 -0.4351
  174MOL0     C23382   1.115   9.164   5.327  0.1104 -0.4759 -1.1047
  174MOL0     C23383   1.219   9.152   5.421 -0.1178  0.3476 -0.7216
  174MOL0     C23384   1.285   9.018   5.452 -0.2178  0.6349  0.1692
  174MOL0     O23385   1.302   8.933   5.338  0.1032  0.2731  0.0839
  174MOL0     C23386   1.370   8.819   5.353 -0.6568  0.4396 -1.0258
  174MOL0     C23387   1.501   8.824   5.320  0.1316 -0.9100 -1.0216
  174MOL0     C23388   1.594   8.715   5.331  0.7180 -0.2602 -0.4901
  174MOL0     C23389   1.554   8.590   5.379  1.2095  0.1673 -0.3307
  174MOL0     O23390   1.623   8.479   5.386 -1.1166  0.5451 -1.2901
  174MOL0     C23391   1.567   8.357   5.376 -0.6506  0.1896 -0.2913
  174MOL0     C23392   1.674   8.256   5.360  0.0889 -0.0230  1.1632
  174MOL0     C23393   1.759   8.231   5.483 -0.0093 -0.3502 -0.6307
  174MOL0     C23394   1.860   8.113   5.462  0.0900  1.1213 -0.1062
  174MOL0     C23395   1.995   8.136   5.532 -0.4273  0.1950  0.1380
  174MOL0     C23396   1.998   8.150   5.685 -0.0402  0.3090  0.3799
  174MOL0     C23397   2.137   8.116   5.737 -0.5807 -0.1619  0.0162
  174MOL0     C23398   2.155   8.163   5.881  0.1844 -0.6156 -0.6281
  174MOL0    Cl23399   2.323   8.136   5.921  0.5499  0.0715 -0.0430
  174MOL0     C23400   1.422   8.587   5.416 -0.0633 -0.7378 -0.1646
  174MOL0     C23401   1.336   8.700   5.413 -0.4188  0.6640  0.3130
  174MOL0     O23402   1.354   9.013   5.559 -0.6906 -0.1456  0.1708
  174MOL0     C23403   1.271   9.271   5.476  0.1825  0.3095 -0.6813
  174MOL0     C23404   1.205   9.395   5.457  0.6945  0.6042  0.3062
  174MOL0     N23405   0.976  10.081   5.133  0.7351  0.5707  0.1236
  174MOL0     N23406   0.994  10.185   5.210 -0.3531  0.8416 -0.3767
  174MOL0     C23407   1.222  11.245   5.099  0.7598 -0.7621 -0.6457
  174MOL0     C23408   1.291  11.340   5.180  0.4124 -0.4087  0.3492
  174MOL0     C23409   1.611  11.427   5.520  0.3084  0.5862 -0.6905
  174MOL0     C23410   1.605  11.566   5.474 -0.0483  0.4014 -0.6376
  174MOL0     C23411   1.689  11.660   5.547 -0.5128  0.6134 -0.6008
  174MOL0     C23412   1.759  11.625   5.670 -0.1626  0.4741  0.4747
  174MOL0     O23413   1.825  11.716   5.742  0.5758  0.4331  0.4715
  174MOL0     C23414   1.822  11.853   5.710 -0.4456  0.3057 -0.1464
  174MOL0     C23415   1.890  11.912   5.831 -0.7521  0.7322  0.2152
  174MOL0     C23416   2.038  11.920   5.828  0.3779 -0.4523 -0.6466
  174MOL0     C23417   2.081  12.015   5.943 -0.3542 -0.7839 -1.0669
  174MOL0     C23418   2.222  12.049   5.926 -0.3325  0.5101 -0.7040
  174MOL0     C23419   2.348  12.057   5.902 -0.3593 -0.1942 -0.0791
  174MOL0     C23420   1.748  11.489   5.713 -0.9009 -0.8878  0.6062
  174MOL0     C23421   1.685  11.396   5.631  0.0953  0.3826  0.6150
  174MOL0     C23422   1.705  11.253   5.676  0.0321 -0.9686 -0.7644
  174MOL0     H23423   1.572  11.162   5.244  1.1816  0.5884  0.0202
  174MOL0     H23424   1.452  10.994   5.125  0.4582  0.3037  2.1967
  174MOL0     H23425   1.308  10.842   4.997 -0.0031  0.2994 -0.0685
  174MOL0     H23426   1.238  10.880   5.159  0.1093  1.9277  0.5368
  174MOL0     H23427   1.121  10.771   4.903  0.0528  0.9264 -0.2088
  174MOL0     H23428   1.005  10.856   4.991 -1.5635 -2.2262 -3.5815
  174MOL0     H23429   1.158  10.612   5.034 -0.7702 -0.1037 -3.7166
  174MOL0     H23430   0.985  10.626   5.030  0.4774 -1.0546  1.0825
  174MOL0     H23431   1.127  10.683   5.276 -1.9948  3.1263  3.4088
  174MOL0     H23432   0.974  10.757   5.244  2.2457  0.5652  2.3590
  174MOL0     H23433   0.875  10.543   5.188 -0.6504  2.0628  3.2744
  174MOL0     H23434   1.023  10.453   5.202 -1.1033 -0.1805 -0.9759
  174MOL0     H23435   1.037  10.520   5.443  2.3174 -2.5313 -2.7836
  174MOL0     H23436   0.888  10.621   5.430  0.3920 -0.8438  0.2299
  174MOL0     H23437   0.778  10.401   5.339  2.7973  0.9433 -2.4842
  174MOL0     H23438   0.789  10.426   5.511 -2.0879 -1.5862 -1.2168
  174MOL0     H23439   1.030  10.300   5.445 -0.0742  0.2885 -1.7670
  174MOL0     H23440   0.901  10.219   5.527  2.7262 -0.5591  0.3532
  174MOL0     H23441   0.753  10.023   5.366 -0.4347 -1.2442 -2.0363
  174MOL0     H23442   0.726   9.842   5.209  0.8263 -2.0213  0.0122
  174MOL0     H23443   0.803   9.847   5.051 -0.0607  0.2765  0.1734
  174MOL0     H23444   0.917   9.671   5.149 -0.5050 -1.7640  1.5581
  174MOL0     H23445   1.026   9.803   5.176  0.3861 -2.1042  0.8958
  174MOL0     H23446   0.827   9.682   5.355  0.9828 -2.5363 -1.0840
  174MOL0     H23447   0.939   9.816   5.407 -0.6269 -1.1497  1.7774
  174MOL0     H23448   1.048   9.644   5.498 -0.1164  0.7769  0.0405
  174MOL0     H23449   1.124   9.667   5.332  0.2846 -0.5427  1.5298
  174MOL0     H23450   0.950   9.282   5.253 -0.6563  1.4998  1.0743
  174MOL0     H23451   1.071   9.075   5.283 -1.5673 -1.1725  1.7003
  174MOL0     H23452   1.542   8.921   5.295 -1.3076  0.2130  0.7133
  174MOL0     H23453   1.700   8.720   5.309  0.7598 -2.5590 -0.9816
  174MOL0     H23454   1.525   8.331   5.474  3.4518 -1.6403  1.2114
  174MOL0     H23455   1.501   8.344   5.290 -0.3276 -1.2831 -0.3375
  174MOL0     H23456   1.626   8.161   5.333 -1.3037  0.3254  2.2732
  174MOL0     H23457   1.729   8.284   5.270 -2.5813  0.5340 -0.4098
  174MOL0     H23458   1.810   8.326   5.502 -1.4396  0.1104  1.1214
  174MOL0     H23459   1.689   8.193   5.558  0.6589 -0.2630  0.0571
  174MOL0     H23460   1.884   8.107   5.355 -0.0120  2.1741 -0.1962
  174MOL0     H23461   1.805   8.024   5.494  0.1467 -1.0568 -5.0376
  174MOL0     H23462   2.036   8.232   5.499  0.8277  0.3211  1.8796
  174MOL0     H23463   2.064   8.055   5.504  0.5799  1.4066 -1.0161
  174MOL0     H23464   1.969   8.254   5.706 -0.7577 -0.3620  3.2233
  174MOL0     H23465   1.933   8.077   5.734 -0.5996 -0.0748 -0.9101
  174MOL0     H23466   2.216   8.152   5.671 -0.4229 -0.5265  0.0032
  174MOL0     H23467   2.140   8.007   5.738 -2.0339 -0.2390 -0.7719
  174MOL0     H23468   2.135   8.271   5.875 -0.8255 -0.8879 -2.9460
  174MOL0     H23469   2.079   8.129   5.952  1.2483  1.5860  1.7546
  174MOL0     H23470   1.367   8.497   5.442 -2.8437  0.6651 -0.7132
  174MOL0     H23471   1.232   8.686   5.440 -0.4390  1.1819  0.5127
  174MOL0     H23472   1.365   9.255   5.529  0.1599 -2.2624 -1.2859
  174MOL0     H23473   1.240   9.477   5.519  1.9100 -2.4705  4.1296
  174MOL0     H23474   1.127  11.276   5.057  0.6339  0.2528  0.3369
  174MOL0     H23475   1.241  11.433   5.204  2.0611  0.3804  0.8947
  174MOL0     H23476   1.546  11.593   5.387  1.5724 -0.8360 -2.2011
  174MOL0     H23477   1.689  11.761   5.508 -0.2170  2.0353  2.7542
  174MOL0     H23478   1.727  11.906   5.699 -1.5705 -0.9136  2.5652
  174MOL0     H23479   1.877  11.880   5.620 -3.0032  2.9904 -1.0503
  174MOL0     H23480   1.873  11.855   5.922  0.8065  2.0415  1.3852
  174MOL0     H23481   1.833  12.003   5.852  2.7157  3.4448 -1.1209
  174MOL0     H23482   2.058  11.971   5.733  2.5658 -2.3511 -1.2991
  174MOL0     H23483   2.089  11.823   5.834  1.1660  0.0506  3.3437
  174MOL0     H23484   2.008  12.097   5.943 -0.2030 -0.6253  0.3154
  174MOL0     H23485   2.072  11.957   6.036  0.2867 -0.4556 -0.7928
  174MOL0     H23486   2.442  12.069   5.851  0.6854 -4.0416  0.6321
  174MOL0     H23487   1.805  11.459   5.801 -0.2259 -1.9408 -0.1635
  174MOL0     H23488   1.772  11.238   5.761 -0.4744  1.7578  0.1971
  174MOL0     H23489   1.606  11.216   5.704  0.0585  0.2528  1.0845
  174MOL0     H23490   1.735  11.189   5.592  0.9290 -2.0142  0.3128
  175MOL0     O23491   1.176  10.193   2.763  0.1016  0.2809  0.8590
  175MOL0     C23492   1.220  10.183   2.876 -0.4206  0.2391  0.4712
  175MOL0     O23493   1.276  10.072   2.929  0.1347 -0.1207 -0.3844
  175MOL0     C23494   1.287   9.954   2.865  0.5998 -0.0226  0.3784
  175MOL0     C23495   1.405   9.877   2.889  0.5786  0.8542  0.2384
  175MOL0     C23496   1.428   9.760   2.812 -0.2435  0.1071  0.9674
  175MOL0     C23497   1.344   9.716   2.711 -0.3375  0.1384  0.2921
  175MOL0     O23498   1.375   9.605   2.632  1.2310 -0.1838 -0.4520
  175MOL0     C23499   1.488   9.523   2.665  0.2983 -0.4766  0.5841
  175MOL0     C23500   1.504   9.430   2.548  0.0162 -1.1452 -0.5416
  175MOL0     C23501   1.639   9.370   2.535 -0.5782  0.2527 -0.3712
  175MOL0     C23502   1.657   9.277   2.408  0.2398 -0.2740 -0.7320
  175MOL0     C23503   1.807   9.250   2.400  0.4301  0.1982  0.3189
  175MOL0     C23504   1.855   9.186   2.276 -0.2195  0.0043  0.5707
  175MOL0     C23505   1.895   9.296   2.182  0.9814 -0.0757  0.6836
  175MOL0     C23506   1.906   9.242   2.027 -0.4299 -0.5836 -1.2407
  175MOL0     N23507   2.016   9.146   2.012 -0.2198  0.3724 -0.5138
  175MOL0     C23508   2.010   9.011   2.010  0.0479  0.0572 -0.6276
  175MOL0     C23509   2.127   8.981   1.947  0.1434  0.2701  0.0840
  175MOL0     C23510   2.148   8.835   1.923 -0.5022 -0.1010 -0.2003
  175MOL0     C23511   2.298   8.805   1.914 -0.3208  0.3067  0.0303
  175MOL0     C23512   2.327   8.652   1.901 -0.0824 -0.8420  0.0678
  175MOL0     C23513   2.482   8.613   1.918  0.4416 -0.1573 -0.4192
  175MOL0     O23514   2.498   8.482   1.862  0.5655  0.6780 -0.1334
  175MOL0     C23515   2.622   8.431   1.890  0.4797  0.3772 -0.1154
  175MOL0     C23516   2.660   8.374   2.010 -0.7178 -0.4880  0.0704
  175MOL0     C23517   2.788   8.326   2.026  0.4430 -0.3287 -0.1448
  175MOL0     C23518   2.877   8.337   1.922 -0.6505 -0.3214  0.4806
  175MOL0     C23519   3.013   8.279   1.948  0.1140  0.1687  0.1665
  175MOL0     O23520   3.031   8.230   2.078 -0.2509 -0.1506  0.7566
  175MOL0     C23521   3.158   8.197   2.099  0.2102 -0.2733 -0.0436
  175MOL0     C23522   3.185   8.064   2.142  1.0801 -0.4736  0.0711
  175MOL0     C23523   3.310   8.028   2.179  0.9673 -0.7666 -0.4828
  175MOL0     C23524   3.422   8.113   2.185  0.2899 -0.6667 -0.2105
  175MOL0     O23525   3.539   8.066   2.232 -0.6937  0.2294 -0.0045
  175MOL0     C23526   3.610   8.150   2.327  0.2241  0.2834 -0.2322
  175MOL0     C23527   3.719   8.071   2.395 -0.8696 -0.3944  0.2218
  175MOL0     C23528   3.836   8.154   2.445 -1.2713  0.0331  0.2227
  175MOL0     C23529   3.932   8.092   2.554 -0.0856 -0.2645 -0.9623
  175MOL0     C23530   4.057   8.186   2.581 -0.6696 -0.2590 -0.4499
  175MOL0     C23531   4.167   8.115   2.664 -0.3812  0.1006  0.2402
  175MOL0     C23532   4.114   8.045   2.794 -0.6567  0.3552 -0.6525
  175MOL0     C23533   4.230   7.955   2.841 -0.8920  0.0474  1.0130
  175MOL0    Cl23534   4.196   7.919   2.998 -0.3576  0.2981  0.5900
  175MOL0     C23535   3.397   8.247   2.148 -0.7588 -0.7417  0.0856
  175MOL0     C23536   3.263   8.286   2.111  0.2233  0.6117  0.9406
  175MOL0     O23537   3.090   8.268   1.850 -0.0226 -0.5015 -0.8888
  175MOL0     C23538   2.849   8.392   1.798  0.2265  0.1314 -0.0840
  175MOL0     C23539   2.719   8.444   1.793 -0.5518 -0.2803  0.6373
  175MOL0     N23540   2.193   9.093   1.908  0.0533 -0.6985  0.0001
  175MOL0     N23541   2.137   9.199   1.970 -0.5501  0.4099 -0.2530
  175MOL0     C23542   1.233   9.794   2.686  0.2800 -1.2094  1.0032
  175MOL0     C23543   1.196   9.909   2.759 -0.6658  0.3179 -0.7489
  175MOL0     C23544   1.211  10.285   2.977 -0.1871  0.5155  0.4485
  175MOL0     C23545   1.308  10.289   3.082 -0.3299  0.5225 -0.1334
  175MOL0     C23546   1.309  10.394   3.177 -0.1506  0.2667 -0.3563
  175MOL0     C23547   1.222  10.499   3.172 -0.3107 -0.2528 -0.1775
  175MOL0     O23548   1.240  10.593   3.272 -0.1040  0.6277 -0.2018
  175MOL0     C23549   1.132  10.675   3.324  0.5986  0.2998  1.2281
  175MOL0     C23550   1.154  10.821   3.285  0.5218  0.0237 -0.1365
  175MOL0     C23551   1.202  10.853   3.139  0.9194  0.0040 -0.6677
  175MOL0     C23552   1.257  10.992   3.124  0.7857  0.5198  1.3670
  175MOL0     C23553   1.375  11.015   3.211  0.0754 -1.3497 -0.9070
  175MOL0     C23554   1.479  11.033   3.264 -0.8665 -0.3482 -0.4527
  175MOL0     C23555   1.124  10.495   3.076 -0.4827  0.0448 -0.6138
  175MOL0     C23556   1.116  10.394   2.980  0.0374  0.2518 -0.2351
  175MOL0     C23557   0.998  10.394   2.886 -0.2903  0.2669  0.2653
  175MOL0     H23558   1.466   9.906   2.973  0.2490 -1.1223  1.2142
  175MOL0     H23559   1.515   9.706   2.850  0.7878 -0.3966 -1.8687
  175MOL0     H23560   1.579   9.583   2.663  0.1664 -0.0297 -4.2062
  175MOL0     H23561   1.479   9.470   2.760  2.2801  3.1634  3.0108
  175MOL0     H23562   1.494   9.488   2.456 -2.0996 -2.1670 -1.0173
  175MOL0     H23563   1.422   9.357   2.555 -0.1059 -0.9260  0.6343
  175MOL0     H23564   1.661   9.310   2.624 -0.0923  1.3277  0.2547
  175MOL0     H23565   1.723   9.440   2.544 -0.8401  0.5694 -0.3687
  175MOL0     H23566   1.613   9.178   2.421 -1.7822  0.1909 -3.1916
  175MOL0     H23567   1.621   9.327   2.317 -3.0580  0.5054  0.8364
  175MOL0     H23568   1.868   9.338   2.426  2.3540 -0.5883 -1.2790
  175MOL0     H23569   1.827   9.180   2.482  2.6259 -0.5006 -0.7450
  175MOL0     H23570   1.947   9.134   2.303 -0.0851  0.9142  1.9464
  175MOL0     H23571   1.770   9.127   2.239 -1.7885  3.6003 -2.1752
  175MOL0     H23572   1.986   9.349   2.211 -1.5536  2.9780  4.0590
  175MOL0     H23573   1.813   9.369   2.178  0.6711 -0.4707 -1.1040
  175MOL0     H23574   1.813   9.193   1.998 -2.3216  1.3286  1.1142
  175MOL0     H23575   1.917   9.331   1.964 -2.2460  0.9882  0.5080
  175MOL0     H23576   1.927   8.944   2.030 -0.0819  0.7511  1.4345
  175MOL0     H23577   2.115   8.776   2.009 -1.1504  0.0787 -0.3250
  175MOL0     H23578   2.098   8.804   1.831 -2.7890 -0.0882  0.9726
  175MOL0     H23579   2.338   8.856   1.826 -2.6295  0.6141 -0.9385
  175MOL0     H23580   2.349   8.848   2.001 -3.8286  1.9740  1.4819
  175MOL0     H23581   2.295   8.624   1.800 -1.8730 -1.9424  0.8959
  175MOL0     H23582   2.269   8.592   1.971  0.9128 -1.0583  0.7228
  175MOL0     H23583   2.521   8.619   2.020  0.0084  2.3481 -0.3334
  175MOL0     H23584   2.533   8.690   1.859  0.7203  1.0293  1.2836
  175MOL0     H23585   2.579   8.356   2.080  0.4561  1.0627  1.9252
  175MOL0     H23586   2.805   8.270   2.117  1.6121  0.3284  0.0581
  175MOL0     H23587   3.104   7.995   2.165  1.9189 -0.8937  1.9546
  175MOL0     H23588   3.315   7.928   2.220  1.5407 -0.2509  0.7757
  175MOL0     H23589   3.653   8.236   2.275  0.2143  1.9780  2.3344
  175MOL0     H23590   3.547   8.192   2.407 -0.0799  0.6224 -0.6449
  175MOL0     H23591   3.678   8.008   2.474 -3.7883  1.8579  0.6906
  175MOL0     H23592   3.763   8.014   2.313 -0.2613  0.2470  0.0908
  175MOL0     H23593   3.891   8.184   2.355  0.6172 -0.1550  1.2656
  175MOL0     H23594   3.802   8.248   2.491 -0.8582  0.9700 -1.3190
  175MOL0     H23595   3.975   8.005   2.505  2.1339 -2.1371  3.6760
  175MOL0     H23596   3.874   8.066   2.643  0.0748  1.2039 -0.3837
  175MOL0     H23597   4.027   8.264   2.652 -1.9664 -1.5910  0.5196
  175MOL0     H23598   4.090   8.235   2.489  2.1393 -0.7596  0.2080
  175MOL0     H23599   4.198   8.032   2.600 -2.1804 -3.2092  3.2971
  175MOL0     H23600   4.254   8.177   2.687 -0.2877  1.8761 -4.0398
  175MOL0     H23601   4.024   7.985   2.781 -1.9207  1.8656  0.6817
  175MOL0     H23602   4.088   8.130   2.858  1.8998  1.9465 -1.5509
  175MOL0     H23603   4.241   7.859   2.790 -2.5573 -0.1447  0.9548
  175MOL0     H23604   4.332   7.996   2.836 -0.7016 -0.5664 -0.5673
  175MOL0     H23605   3.470   8.327   2.152 -0.0917 -1.0624 -2.9475
  175MOL0     H23606   3.273   8.389   2.078  4.1858 -0.4922 -2.0560
  175MOL0     H23607   2.927   8.398   1.722  0.2272 -0.1622 -0.1090
  175MOL0     H23608   2.678   8.498   1.707 -3.6645 -0.6923  1.7159
  175MOL0     H23609   1.176   9.768   2.598 -0.1405  1.5600  0.3483
  175MOL0     H23610   1.103   9.962   2.745 -1.0044  0.9539  2.8682
  175MOL0     H23611   1.389  10.220   3.102  0.3647  1.3356 -0.0824
  175MOL0     H23612   1.393  10.399   3.245 -0.1837 -1.2610 -0.1857
  175MOL0     H23613   1.125  10.671   3.433  0.5426  1.9072  1.3136
  175MOL0     H23614   1.038  10.640   3.279  1.9481  0.8877 -2.3754
  175MOL0     H23615   1.242  10.852   3.342  1.0156 -3.1684  1.0497
  175MOL0     H23616   1.067  10.883   3.307 -1.1043 -2.3768  0.5985
  175MOL0     H23617   1.123  10.823   3.069  2.5350  0.8212 -2.9859
  175MOL0     H23618   1.297  10.809   3.106  1.2592  0.5424 -0.4141
  175MOL0     H23619   1.281  11.016   3.020  1.8197 -1.0255  1.2104
  175MOL0     H23620   1.172  11.059   3.143 -0.8991 -0.0343 -3.0756
  175MOL0     H23621   1.565  11.058   3.323 -0.8364  1.3102 -1.1354
  175MOL0     H23622   1.043  10.567   3.067 -2.1559 -1.8718 -1.7049
  175MOL0     H23623   0.932  10.476   2.914  1.8243  2.0284  0.4035
  175MOL0     H23624   1.024  10.408   2.781 -4.0711 -1.4078 -1.0656
  175MOL0     H23625   0.937  10.304   2.879  2.5273 -1.6393 -4.0417
  176MOL0     O23626   2.207   6.506   7.966 -0.8800  0.0073  0.7811
  176MOL0     C23627   2.236   6.507   8.085  0.5469 -0.9022 -0.3810
  176MOL0     O23628   2.167   6.578   8.172 -0.3029 -0.2949 -0.1596
  176MOL0     C23629   2.086   6.690   8.151 -0.1720  0.9168 -0.1236
  176MOL0     C23630   2.073   6.766   8.267  0.2477 -0.3806  0.3088
  176MOL0     C23631   2.003   6.885   8.261 -0.8152 -0.5146  0.2588
  176MOL0     C23632   1.938   6.929   8.145 -0.0585 -1.0163 -0.2100
  176MOL0     O23633   1.884   7.058   8.135  0.8015  0.0408  0.0749
  176MOL0     C23634   1.800   7.089   8.029  0.6913  0.8759  0.4320
  176MOL0     C23635   1.724   7.220   8.045  0.4392  0.0926 -0.2041
  176MOL0     C23636   1.625   7.209   8.164 -0.0551  0.8740  0.4732
  176MOL0     C23637   1.497   7.138   8.113  0.0893  0.1311 -0.0038
  176MOL0     C23638   1.388   7.113   8.214  0.3130  0.7944 -1.1074
  176MOL0     C23639   1.447   7.039   8.335 -0.0695 -1.5469  0.1249
  176MOL0     C23640   1.337   6.994   8.427 -0.5874 -0.3465 -1.0236
  176MOL0     C23641   1.261   7.105   8.501 -0.4720 -1.0099 -0.2824
  176MOL0     N23642   1.163   7.059   8.600  0.0100 -0.1651  0.0080
  176MOL0     C23643   1.125   7.121   8.714 -0.5277  0.2895  0.4423
  176MOL0     C23644   1.035   7.036   8.772 -0.1851  0.1445  0.2474
  176MOL0     C23645   0.984   7.043   8.904  0.9025 -0.0325  0.0992
  176MOL0     C23646   0.995   6.903   8.956  0.5169  0.4063 -1.3154
  176MOL0     C23647   0.977   6.917   9.112 -0.2147  0.8237 -0.8529
  176MOL0     C23648   1.113   6.958   9.178  0.7901 -0.2043  1.2785
  176MOL0     O23649   1.081   7.017   9.305  0.2805 -0.3022  0.4414
  176MOL0     C23650   1.185   7.078   9.377  0.6847 -0.7231  0.4526
  176MOL0     C23651   1.158   7.102   9.514  0.1760 -0.3560  0.2638
  176MOL0     C23652   1.244   7.185   9.593  0.5046 -0.0582 -0.3638
  176MOL0     C23653   1.369   7.230   9.543  0.2050 -0.5599  0.5144
  176MOL0     C23654   1.462   7.306   9.626 -0.1105  0.0731 -0.6064
  176MOL0     O23655   1.588   7.316   9.582  0.4619 -0.9361 -0.0458
  176MOL0     C23656   1.681   7.386   9.651 -0.6330  0.7738 -0.2836
  176MOL0     C23657   1.787   7.309   9.711  1.0812  0.0123  0.1119
  176MOL0     C23658   1.892   7.375   9.778  0.1945 -0.3527  1.1589
  176MOL0     C23659   1.891   7.515   9.788 -0.5343  0.4075 -0.2189
  176MOL0     O23660   1.988   7.578   9.848 -0.8859  0.3554  0.1053
  176MOL0     C23661   2.049   7.520   9.963 -0.1891 -0.6927  0.0090
  176MOL0     C23662   2.054   7.646  10.058 -0.1992  0.1731  0.2821
  176MOL0     C23663   2.132   7.608  10.188  0.3914  0.6203 -0.7454
  176MOL0     C23664   2.156   7.726  10.276  0.4439 -0.3619 -0.3962
  176MOL0     C23665   2.187   7.684  10.417 -0.5977  0.3566  0.1710
  176MOL0     C23666   2.178   7.808  10.516 -0.1689  0.0073  0.4133
  176MOL0     C23667   2.035   7.866  10.540  0.1435 -1.0461 -0.8633
  176MOL0     C23668   2.034   7.994  10.623 -0.5570 -0.5929  0.9709
  176MOL0    Cl23669   2.149   7.988  10.759 -0.1622 -0.1454  0.3940
  176MOL0     C23670   1.805   7.593   9.713 -0.4941  0.1736  0.4796
  176MOL0     C23671   1.690   7.528   9.649 -0.5098 -0.6402  0.9571
  176MOL0     O23672   1.415   7.353   9.730 -0.3714 -0.0724  0.4062
  176MOL0     C23673   1.400   7.204   9.422  0.9442  0.0046  0.0636
  176MOL0     C23674   1.310   7.129   9.336 -0.8617  0.2750 -0.1789
  176MOL0     N23675   1.013   6.942   8.679  1.1253  0.6334  0.9657
  176MOL0     N23676   1.090   6.948   8.579 -0.8728  0.4363  0.7684
  176MOL0     C23677   1.945   6.850   8.028  0.2080  0.5099 -0.3458
  176MOL0     C23678   2.025   6.732   8.030  0.2770 -0.2694  0.4136
  176MOL0     C23679   2.334   6.419   8.143 -0.7312  0.8991  0.4539
  176MOL0     C23680   2.313   6.376   8.274 -0.1501  0.8122 -0.1918
  176MOL0     C23681   2.388   6.275   8.334  0.2271 -0.1741  0.2209
  176MOL0     C23682   2.496   6.219   8.272  0.5178  0.1764  0.3430
  176MOL0     O23683   2.580   6.126   8.340  0.1633  0.6922  0.3551
  176MOL0     C23684   2.591   5.996   8.283  0.3244 -0.4719  0.0967
  176MOL0     C23685   2.507   5.897   8.367 -0.2490  0.0672 -0.2430
  176MOL0     C23686   2.588   5.889   8.508  0.4725 -0.6247  0.3574
  176MOL0     C23687   2.531   5.794   8.614  0.4338  0.2398  0.4846
  176MOL0     C23688   2.566   5.655   8.576  0.2606 -0.6801 -0.0587
  176MOL0     C23689   2.613   5.544   8.564 -0.7957 -0.5311  0.8150
  176MOL0     C23690   2.533   6.268   8.140  0.4760  0.9622 -1.0244
  176MOL0     C23691   2.446   6.360   8.075 -0.1833 -0.1282 -0.7221
  176MOL0     C23692   2.486   6.402   7.933  0.3189 -0.2234  0.4147
  176MOL0     H23693   2.109   6.716   8.357  1.9965  1.0337  0.4369
  176MOL0     H23694   1.979   6.935   8.354  1.3282 -0.2364  0.7099
  176MOL0     H23695   1.861   7.079   7.939  0.1317 -1.3310  0.2404
  176MOL0     H23696   1.722   7.013   8.035  0.4192  1.2019  1.1895
  176MOL0     H23697   1.685   7.253   7.949  4.1344  5.3109 -0.3375
  176MOL0     H23698   1.798   7.297   8.069  2.3113 -1.4701 -0.6176
  176MOL0     H23699   1.608   7.305   8.213  1.8687  0.7348  1.4770
  176MOL0     H23700   1.660   7.136   8.238 -4.1775  0.8596  2.6958
  176MOL0     H23701   1.451   7.202   8.037  0.6554  1.7488  0.9774
  176MOL0     H23702   1.508   7.042   8.062 -1.1917 -0.5378  0.9271
  176MOL0     H23703   1.358   7.210   8.255  3.3302  2.3899 -2.3195
  176MOL0     H23704   1.308   7.051   8.173  2.3386 -1.2999 -2.1223
  176MOL0     H23705   1.508   6.954   8.306  1.6373 -0.5576  0.7055
  176MOL0     H23706   1.514   7.101   8.395 -1.6574 -2.3354  2.8900
  176MOL0     H23707   1.392   6.937   8.503 -0.3759  1.0966 -0.0597
  176MOL0     H23708   1.283   6.925   8.361 -1.0890  1.0252 -2.0903
  176MOL0     H23709   1.332   7.173   8.550  0.3167 -1.1246 -1.2307
  176MOL0     H23710   1.209   7.176   8.437  0.0191  0.7134  1.1474
  176MOL0     H23711   1.174   7.205   8.762  1.3880  1.4077 -3.1244
  176MOL0     H23712   1.047   7.112   8.962  0.7471 -0.2012  0.4676
  176MOL0     H23713   0.881   7.078   8.916  0.2009 -2.4296  1.8497
  176MOL0     H23714   0.910   6.846   8.917 -0.6835 -0.4335  2.2056
  176MOL0     H23715   1.083   6.841   8.933  0.1970 -0.8008  0.5067
  176MOL0     H23716   0.924   6.828   9.145 -0.2597  0.6721 -1.3363
  176MOL0     H23717   0.906   6.997   9.135 -1.8892 -0.0314 -2.7455
  176MOL0     H23718   1.168   7.030   9.116 -1.1667  0.8371  0.6847
  176MOL0     H23719   1.188   6.885   9.211 -1.4614 -2.1500  2.3211
  176MOL0     H23720   1.069   7.062   9.563 -0.3522  0.2467 -0.1949
  176MOL0     H23721   1.219   7.205   9.696  1.9124  0.0798 -0.0285
  176MOL0     H23722   1.781   7.201   9.701 -0.1832 -0.0443  1.1889
  176MOL0     H23723   1.969   7.306   9.815 -1.5197 -2.1026  1.6324
  176MOL0     H23724   1.982   7.452  10.017 -0.0915 -3.3904 -2.9911
  176MOL0     H23725   2.146   7.473   9.946  0.2010 -0.1900  0.7373
  176MOL0     H23726   2.112   7.727  10.013 -0.5537  2.1074  3.0839
  176MOL0     H23727   1.956   7.692  10.074  0.1871  0.2162  2.9734
  176MOL0     H23728   2.072   7.532  10.240 -1.5441  2.1402 -0.6329
  176MOL0     H23729   2.228   7.560  10.170  1.1881  2.1022 -0.5915
  176MOL0     H23730   2.057   7.773  10.269 -1.3212 -3.3863  1.7671
  176MOL0     H23731   2.240   7.778  10.229  0.3680  0.9343  0.8429
  176MOL0     H23732   2.275   7.620  10.408 -1.4698 -0.5741 -2.8545
  176MOL0     H23733   2.105   7.619  10.449 -0.5890 -1.2117 -2.6379
  176MOL0     H23734   2.218   7.764  10.608 -2.5063 -2.6781  0.2793
  176MOL0     H23735   2.242   7.894  10.493 -0.4621  0.1292  0.0489
  176MOL0     H23736   1.975   7.784  10.581  1.4903 -1.9578 -0.6747
  176MOL0     H23737   1.991   7.890  10.443 -1.0907 -0.1451 -0.1137
  176MOL0     H23738   2.075   8.073  10.560 -3.5535  0.4518  0.1425
  176MOL0     H23739   1.937   8.027  10.662  0.2462  2.4490  0.5746
  176MOL0     H23740   1.818   7.700   9.722  1.1257  0.1040 -0.6320
  176MOL0     H23741   1.616   7.579   9.588  0.7572 -0.2255 -0.2993
  176MOL0     H23742   1.495   7.222   9.374  1.1742 -0.5980  0.2728
  176MOL0     H23743   1.343   7.109   9.235 -0.5845  0.1265 -0.0600
  176MOL0     H23744   1.894   6.882   7.938 -0.2889  0.0750 -0.2243
  176MOL0     H23745   2.023   6.678   7.936  0.6071 -2.6192  1.6594
  176MOL0     H23746   2.233   6.416   8.334 -1.3134 -0.0834 -1.0790
  176MOL0     H23747   2.360   6.254   8.436  1.6351  1.2523  0.9589
  176MOL0     H23748   2.693   5.959   8.270  0.2852 -0.5812  0.0975
  176MOL0     H23749   2.551   5.993   8.181 -0.8155  0.3337  0.5081
  176MOL0     H23750   2.509   5.804   8.309  0.8204  0.4694 -0.8680
  176MOL0     H23751   2.409   5.944   8.373 -0.5683 -0.1922 -2.7425
  176MOL0     H23752   2.582   5.988   8.556 -0.7843  0.0283 -1.0529
  176MOL0     H23753   2.694   5.878   8.486  1.3125  0.6803  3.2196
  176MOL0     H23754   2.582   5.814   8.709 -0.1473 -0.8468  1.0521
  176MOL0     H23755   2.427   5.820   8.636  0.9633  2.0553  1.0245
  176MOL0     H23756   2.652   5.452   8.525 -1.5793 -0.7226  0.4706
  176MOL0     H23757   2.627   6.231   8.101 -0.4550 -0.6466 -1.8387
  176MOL0     H23758   2.412   6.366   7.860  0.3417  1.1408 -0.3051
  176MOL0     H23759   2.476   6.510   7.926  3.5668  0.0995 -1.5015
  176MOL0     H23760   2.589   6.376   7.906  0.4660  0.5343  0.2437
  177MOL0     O23761  11.482   7.552   7.089  0.7863 -0.5375 -0.6167
  177MOL0     C23762  11.564   7.560   7.176  0.6660 -0.4749 -1.4045
  177MOL0     O23763  11.583   7.466   7.275  0.0739 -0.5739 -0.1063
  177MOL0     C23764  11.498   7.357   7.283  0.2015  0.2989  0.2099
  177MOL0     C23765  11.438   7.329   7.413 -0.0882  0.0098  0.3373
  177MOL0     C23766  11.352   7.222   7.429 -0.1287 -0.0962 -0.5311
  177MOL0     C23767  11.328   7.132   7.331 -0.3630  0.3314 -0.3107
  177MOL0     O23768  11.244   7.023   7.342  0.2286 -0.7354 -0.6259
  177MOL0     C23769  11.251   6.950   7.473  0.0819 -0.4555  0.2216
  177MOL0     C23770  11.115   6.924   7.513 -0.1623  0.4641  0.4337
  177MOL0     C23771  11.011   6.883   7.402 -0.0546 -0.3722  0.3592
  177MOL0     C23772  10.956   6.740   7.438  0.1245 -0.1800 -0.3672
  177MOL0     C23773  10.886   6.670   7.320 -0.3712  0.5977  0.3299
  177MOL0     C23774  10.849   6.526   7.341  0.3540  0.0434 -0.1956
  177MOL0     C23775  10.960   6.437   7.390  0.0495  0.9785  0.3187
  177MOL0     C23776  10.926   6.293   7.382  0.3901 -0.2442 -0.0312
  177MOL0     N23777  10.822   6.245   7.471 -0.8823 -0.9847  0.4574
  177MOL0     C23778  10.834   6.217   7.611 -0.0564  1.4009 -0.1244
  177MOL0     C23779  10.708   6.190   7.644  0.7834 -0.6400  0.3424
  177MOL0     C23780  10.677   6.171   7.793  0.5216  0.3911 -0.0490
  177MOL0     C23781  10.664   6.022   7.830  0.6825  0.6408 -0.0255
  177MOL0     C23782  10.796   5.966   7.861 -0.9192  0.2255 -0.0538
  177MOL0     C23783  10.795   5.816   7.905  0.2293 -0.4651 -0.0504
  177MOL0     O23784  10.919   5.786   7.962  0.4082  0.0304 -0.7296
  177MOL0     C23785  10.962   5.657   7.940  0.3128 -0.3657  0.5407
  177MOL0     C23786  10.915   5.557   8.015 -0.0443  1.4743 -0.1989
  177MOL0     C23787  10.950   5.425   7.969  0.4027 -0.2268  1.2682
  177MOL0     C23788  11.042   5.398   7.872 -1.0429  1.3465 -0.2328
  177MOL0     C23789  11.078   5.255   7.835 -0.5627  0.3381 -0.1143
  177MOL0     O23790  11.029   5.162   7.918 -0.1250 -0.1138  0.5926
  177MOL0     C23791  11.047   5.032   7.885 -0.1949 -0.3022  0.1516
  177MOL0     C23792  11.003   4.975   7.760 -0.1229  0.1425  0.0137
  177MOL0     C23793  11.015   4.841   7.725  0.0516 -0.4040  0.0868
  177MOL0     C23794  11.109   4.769   7.798 -0.2945 -0.5378 -0.0289
  177MOL0     O23795  11.149   4.638   7.769 -0.3568 -0.9878  0.1371
  177MOL0     C23796  11.186   4.639   7.629 -0.6974  0.1950 -0.0003
  177MOL0     C23797  11.110   4.539   7.544  0.4286  0.3394 -0.7086
  177MOL0     C23798  11.192   4.476   7.424  0.4531 -0.1479 -0.4114
  177MOL0     C23799  11.164   4.541   7.282  0.1575  0.0480  0.0628
  177MOL0     C23800  11.215   4.685   7.258  0.8754  0.4952  0.5146
  177MOL0     C23801  11.119   4.757   7.156 -0.4535  0.0029 -0.8052
  177MOL0     C23802  11.165   4.897   7.113 -0.1687 -0.0671 -0.6932
  177MOL0     C23803  11.123   5.000   7.218  0.3223 -0.0899  0.2580
  177MOL0    Cl23804  11.185   5.167   7.175  0.0754 -0.0736 -0.3982
  177MOL0     C23805  11.174   4.832   7.902  0.1019 -0.2890  0.1887
  177MOL0     C23806  11.138   4.956   7.951  0.7200 -0.2237 -0.2717
  177MOL0     O23807  11.151   5.237   7.739 -0.2650 -0.4844  0.9952
  177MOL0     C23808  11.095   5.509   7.797  0.1203 -0.5799  0.3352
  177MOL0     C23809  11.038   5.634   7.824  0.1237 -0.3287 -0.2741
  177MOL0     N23810  10.623   6.200   7.541  0.5499 -0.8963  0.7797
  177MOL0     N23811  10.695   6.233   7.433  0.3732 -0.3928 -0.6484
  177MOL0     C23812  11.391   7.158   7.207 -0.1782  0.3512  0.7412
  177MOL0     C23813  11.465   7.271   7.178  0.6029  0.0893 -0.6458
  177MOL0     C23814  11.644   7.695   7.183  0.4210 -0.2112 -0.1274
  177MOL0     C23815  11.753   7.694   7.273  0.0794 -0.2628 -1.0545
  177MOL0     C23816  11.821   7.808   7.301  0.2704  0.0778 -0.1490
  177MOL0     C23817  11.787   7.932   7.243 -0.6615  0.7991  0.2275
  177MOL0     O23818  11.862   8.046   7.255 -0.1798  0.0877 -0.4668
  177MOL0     C23819  11.776   8.157   7.297 -0.5342 -0.8670  0.6153
  177MOL0     C23820  11.855   8.271   7.361  0.4632  0.3669 -0.3768
  177MOL0     C23821  11.982   8.312   7.270 -0.4703  0.5896  0.1883
  177MOL0     C23822  12.070   8.397   7.347  0.1904 -0.0769  0.0853
  177MOL0     C23823  12.019   8.534   7.368  1.0735  0.2988 -0.2688
  177MOL0     C23824  11.981   8.651   7.359  0.1115  0.3939 -0.3104
  177MOL0     C23825  11.680   7.931   7.150  0.2245  0.4503  0.0546
  177MOL0     C23826  11.609   7.817   7.116  0.2263  0.9690 -0.3646
  177MOL0     C23827  11.505   7.823   7.008 -0.6417  0.5898  0.2685
  177MOL0     H23828  11.456   7.395   7.498 -0.8982  0.7662 -0.0592
  177MOL0     H23829  11.311   7.220   7.529 -4.3025 -1.6181 -2.0556
  177MOL0     H23830  11.307   6.857   7.464 -0.2784 -0.6719  0.2304
  177MOL0     H23831  11.291   7.005   7.559 -0.5255 -1.0903  0.9194
  177MOL0     H23832  11.082   7.012   7.568  0.4858 -0.5877  2.6071
  177MOL0     H23833  11.125   6.843   7.585  0.4274 -0.4389 -0.6200
  177MOL0     H23834  11.066   6.878   7.308 -1.2469 -0.8648 -0.3408
  177MOL0     H23835  10.936   6.962   7.392  0.7219  0.1025 -2.3192
  177MOL0     H23836  11.045   6.683   7.466 -0.1091 -1.5589 -2.2508
  177MOL0     H23837  10.888   6.748   7.523 -0.3581  0.3922 -0.7976
  177MOL0     H23838  10.792   6.726   7.306 -1.7209 -1.9209 -1.3286
  177MOL0     H23839  10.959   6.674   7.239  1.1519 -4.1107  1.1825
  177MOL0     H23840  10.777   6.527   7.423 -1.2204  0.2733 -1.5260
  177MOL0     H23841  10.807   6.493   7.246  0.0012  5.0963 -2.1488
  177MOL0     H23842  10.989   6.459   7.493 -0.9126  0.4087  0.7299
  177MOL0     H23843  11.035   6.462   7.315 -2.4040  3.6645 -1.4382
  177MOL0     H23844  10.916   6.264   7.277 -2.1613  1.4328 -0.3358
  177MOL0     H23845  11.022   6.256   7.420 -1.1139 -2.4050  2.0156
  177MOL0     H23846  10.926   6.201   7.665 -1.3889  0.4288  2.0221
  177MOL0     H23847  10.769   6.198   7.846  1.0161 -2.6831  0.8420
  177MOL0     H23848  10.593   6.234   7.825 -0.9665 -0.6523 -1.6749
  177MOL0     H23849  10.589   6.019   7.909  1.3510 -2.4047  0.6445
  177MOL0     H23850  10.616   5.980   7.741  0.4872  3.1572 -1.1856
  177MOL0     H23851  10.836   6.026   7.943  1.4358  0.9444 -1.6317
  177MOL0     H23852  10.867   5.966   7.778 -0.0620 -1.5865  0.6341
  177MOL0     H23853  10.779   5.751   7.818  0.2629 -0.4575 -0.0625
  177MOL0     H23854  10.708   5.811   7.970  0.2313  0.3450  0.0283
  177MOL0     H23855  10.849   5.580   8.098  1.5430  1.4739  1.1414
  177MOL0     H23856  10.918   5.350   8.041  1.2687 -0.3328  1.5594
  177MOL0     H23857  10.955   5.051   7.699  2.6629  0.3768 -2.1040
  177MOL0     H23858  10.984   4.786   7.637  1.9238 -0.0968 -0.8004
  177MOL0     H23859  11.175   4.738   7.586  0.0881 -0.9084 -2.9757
  177MOL0     H23860  11.294   4.621   7.633  0.5037  5.6848 -0.2664
  177MOL0     H23861  11.088   4.454   7.609  0.8914 -0.9434 -2.1740
  177MOL0     H23862  11.014   4.578   7.509  0.8193  2.4272  0.3608
  177MOL0     H23863  11.299   4.474   7.449  0.3092 -0.1766  0.2382
  177MOL0     H23864  11.159   4.372   7.413  1.4930 -0.4786 -0.5532
  177MOL0     H23865  11.057   4.531   7.264  0.2087 -2.6049  0.7650
  177MOL0     H23866  11.207   4.470   7.211  0.8076 -0.1333  0.6282
  177MOL0     H23867  11.318   4.683   7.222 -0.2801 -3.5120 -3.4417
  177MOL0     H23868  11.213   4.732   7.357 -1.0962 -2.2051  1.9012
  177MOL0     H23869  11.117   4.692   7.068 -0.8458 -1.2303  0.0892
  177MOL0     H23870  11.020   4.770   7.200 -0.4206  3.5358 -1.4219
  177MOL0     H23871  11.100   4.917   7.027 -0.4488 -3.8414 -1.5013
  177MOL0     H23872  11.273   4.892   7.098 -0.2611 -1.7719 -0.9860
  177MOL0     H23873  11.015   5.020   7.222  0.5581  2.0181 -1.6514
  177MOL0     H23874  11.161   4.961   7.313  1.0945 -0.2132 -0.1027
  177MOL0     H23875  11.249   4.783   7.963  2.3677 -0.9125 -2.8756
  177MOL0     H23876  11.193   4.982   8.041  3.3190 -1.4793 -1.3798
  177MOL0     H23877  11.167   5.507   7.716 -1.1340  3.0351 -1.0750
  177MOL0     H23878  11.061   5.716   7.756 -3.0485  0.6203 -0.3711
  177MOL0     H23879  11.365   7.093   7.124  0.5801  2.8647 -1.6082
  177MOL0     H23880  11.506   7.289   7.079 -0.4961 -2.5939 -1.6924
  177MOL0     H23881  11.782   7.605   7.328 -0.9089 -0.2005 -0.4040
  177MOL0     H23882  11.914   7.797   7.356  2.7184  1.0087 -3.7429
  177MOL0     H23883  11.705   8.120   7.372 -0.1382 -1.3778  0.7423
  177MOL0     H23884  11.730   8.202   7.208  0.3589  3.1700  1.9609
  177MOL0     H23885  11.885   8.215   7.450 -0.6437  1.7132  0.8859
  177MOL0     H23886  11.786   8.352   7.386 -2.1350 -1.4986 -1.0352
  177MOL0     H23887  11.960   8.356   7.172 -1.6607  2.6274  1.3109
  177MOL0     H23888  12.031   8.215   7.261 -0.1982  0.4591  2.6181
  177MOL0     H23889  12.083   8.349   7.444  2.6413  1.7051  0.7467
  177MOL0     H23890  12.168   8.403   7.299 -0.1769  0.5438 -0.6048
  177MOL0     H23891  11.928   8.741   7.335 -0.3113 -0.2564 -1.9239
  177MOL0     H23892  11.664   8.026   7.100  2.3048  0.6180 -0.3920
  177MOL0     H23893  11.538   7.754   6.929  2.2306  0.0858  1.7809
  177MOL0     H23894  11.419   7.768   7.046  1.2838 -3.2338 -0.4325
  177MOL0     H23895  11.482   7.925   6.976  0.3243  1.3108  1.7645
  178MOL0     O23896   9.842   7.627   2.229 -0.0957 -0.1712  0.9299
  178MOL0     C23897   9.776   7.715   2.173 -0.2043 -0.1519 -0.1862
  178MOL0     O23898   9.762   7.735   2.037 -0.5210  0.3218 -0.7311
  178MOL0     C23899   9.847   7.652   1.963  0.2572  0.2991 -0.0876
  178MOL0     C23900   9.809   7.522   1.905 -0.6793  0.1838 -0.8679
  178MOL0     C23901   9.901   7.447   1.833 -1.0505  0.6376 -0.9681
  178MOL0     C23902  10.028   7.501   1.811  0.6315 -0.0204  0.8174
  178MOL0     O23903  10.107   7.419   1.728 -0.0797 -0.5452  0.0274
  178MOL0     C23904  10.217   7.365   1.802  0.2579  0.7223  1.3080
  178MOL0     C23905  10.293   7.245   1.731  0.0370  0.6906  0.3669
  178MOL0     C23906  10.195   7.131   1.691  0.7978  0.8920  0.0098
  178MOL0     C23907  10.165   7.027   1.804  0.6046  0.5840 -0.2187
  178MOL0     C23908  10.071   6.911   1.774  0.3087  0.0239  0.1051
  178MOL0     C23909   9.931   6.973   1.757 -0.0373 -0.4928  0.4780
  178MOL0     C23910   9.826   6.865   1.712 -1.1519 -0.8500  1.1082
  178MOL0     C23911   9.686   6.937   1.703 -1.1323 -0.9606  0.0900
  178MOL0     N23912   9.632   6.989   1.828  0.3309  0.3835  0.0849
  178MOL0     C23913   9.655   7.113   1.893  0.0840  1.0122  0.5587
  178MOL0     C23914   9.582   7.109   2.010 -0.4998 -0.0241  0.1740
  178MOL0     C23915   9.586   7.219   2.112 -0.4526  0.6522 -0.5130
  178MOL0     C23916   9.686   7.175   2.231  0.6427  0.4036 -0.2129
  178MOL0     C23917   9.832   7.163   2.185 -0.7741  0.3677 -0.0018
  178MOL0     C23918   9.890   7.297   2.178 -0.3825  0.4277  0.5107
  178MOL0     O23919  10.016   7.292   2.101  0.4054  0.3908 -0.4311
  178MOL0     C23920  10.130   7.333   2.166 -0.1286 -0.0403  0.1839
  178MOL0     C23921  10.251   7.261   2.164  0.5977 -0.1800 -0.1121
  178MOL0     C23922  10.370   7.308   2.231 -0.5578 -0.7555 -0.7858
  178MOL0     C23923  10.364   7.442   2.290 -0.2625  0.2749  0.0514
  178MOL0     C23924  10.471   7.484   2.377  0.2490 -0.6056 -0.5302
  178MOL0     O23925  10.556   7.378   2.421 -0.0738  0.0207  0.1417
  178MOL0     C23926  10.647   7.421   2.512 -0.0776  0.3883 -0.1035
  178MOL0     C23927  10.772   7.470   2.473  0.4551 -0.7857  0.2169
  178MOL0     C23928  10.872   7.484   2.565  0.4604  0.2037 -0.2716
  178MOL0     C23929  10.856   7.449   2.700  0.4646  0.3856 -0.0414
  178MOL0     O23930  10.960   7.470   2.790 -0.6141  0.0305 -0.0798
  178MOL0     C23931  10.955   7.410   2.920  0.2483  0.1835  0.2435
  178MOL0     C23932  11.092   7.423   2.986  0.4385 -0.2445 -0.3480
  178MOL0     C23933  11.147   7.566   3.024 -0.0081  1.0179 -0.2068
  178MOL0     C23934  11.052   7.628   3.124  0.0702 -0.0849 -0.4908
  178MOL0     C23935  11.114   7.759   3.161 -0.7314  0.2772 -0.3510
  178MOL0     C23936  11.036   7.839   3.257  0.4678  0.7843 -0.1847
  178MOL0     C23937  11.081   7.986   3.246  0.0231 -0.6301  0.8324
  178MOL0     C23938  11.033   8.062   3.360  0.0925 -1.0228 -0.8243
  178MOL0    Cl23939  10.858   8.068   3.356  0.0968  0.1877  0.2478
  178MOL0     C23940  10.728   7.408   2.742  0.6229  0.3712  0.2448
  178MOL0     C23941  10.628   7.372   2.650 -0.4158 -0.1346  0.4927
  178MOL0     O23942  10.477   7.605   2.403 -0.1044  0.6775  0.4021
  178MOL0     C23943  10.259   7.526   2.261 -0.4590  0.4480  0.0080
  178MOL0     C23944  10.138   7.468   2.215  0.3596  0.7126  0.2593
  178MOL0     N23945   9.494   6.991   2.002  0.0696  0.2767  0.5248
  178MOL0     N23946   9.524   6.932   1.887  0.1552 -0.3955  0.1505
  178MOL0     C23947  10.061   7.622   1.862 -0.0578 -0.0566  0.4120
  178MOL0     C23948   9.973   7.695   1.938 -0.9429  0.0897 -0.2636
  178MOL0     C23949   9.689   7.813   2.256 -0.0276  0.4678 -0.2723
  178MOL0     C23950   9.599   7.891   2.184  0.5008 -0.9608  0.3761
  178MOL0     C23951   9.510   7.979   2.254 -0.4800 -0.8323  0.3510
  178MOL0     C23952   9.514   7.990   2.394  0.3966 -0.0144  0.5295
  178MOL0     O23953   9.427   8.067   2.466 -0.5906 -1.3171 -0.7426
  178MOL0     C23954   9.329   8.154   2.395 -0.5158  0.4795 -0.6240
  178MOL0     C23955   9.253   8.252   2.493  0.9386 -0.8325  0.6120
  178MOL0     C23956   9.350   8.363   2.547  0.3490 -1.2266  0.6549
  178MOL0     C23957   9.286   8.476   2.633  0.0845 -0.5232  0.6353
  178MOL0     C23958   9.155   8.447   2.683 -0.4262  0.5526 -0.1041
  178MOL0     C23959   9.050   8.408   2.728  0.2391 -0.1131  0.0039
  178MOL0     C23960   9.610   7.917   2.463 -0.2201 -0.1247 -0.1145
  178MOL0     C23961   9.693   7.829   2.399 -0.4797  0.6609 -0.5333
  178MOL0     C23962   9.765   7.730   2.488  0.2890 -0.3042 -0.5432
  178MOL0     H23963   9.705   7.491   1.919 -0.2183 -0.6905  0.9089
  178MOL0     H23964   9.891   7.345   1.797 -0.4098 -1.2464  3.6269
  178MOL0     H23965  10.292   7.444   1.810  0.1342  0.6818  3.2229
  178MOL0     H23966  10.189   7.333   1.902  1.4423 -1.4243  1.0176
  178MOL0     H23967  10.377   7.195   1.780 -0.8573 -0.2758  0.9625
  178MOL0     H23968  10.329   7.276   1.632  0.0011  1.5323  0.6086
  178MOL0     H23969  10.254   7.083   1.612 -2.1227 -1.3694 -1.0110
  178MOL0     H23970  10.103   7.172   1.650  0.8523  0.0921 -0.9617
  178MOL0     H23971  10.262   6.983   1.831  1.3757  1.4130 -1.5273
  178MOL0     H23972  10.127   7.075   1.895 -2.0610 -2.3234  0.3792
  178MOL0     H23973  10.090   6.843   1.690 -3.8377 -2.7987  1.1434
  178MOL0     H23974  10.068   6.836   1.854  0.4628 -3.3779 -2.7755
  178MOL0     H23975   9.911   7.011   1.858  1.6978 -0.8055  0.9853
  178MOL0     H23976   9.943   7.054   1.683  1.3706 -0.9556  0.1619
  178MOL0     H23977   9.821   6.787   1.789 -0.4878  0.1365  2.1908
  178MOL0     H23978   9.867   6.825   1.619  2.8963  3.8632  0.3997
  178MOL0     H23979   9.705   7.023   1.638 -1.8215 -1.9356 -1.4588
  178MOL0     H23980   9.614   6.874   1.650  0.5107 -2.5394 -0.3388
  178MOL0     H23981   9.707   7.202   1.860 -3.8182  2.6632 -1.8890
  178MOL0     H23982   9.614   7.319   2.077 -0.3292  0.8226  0.0582
  178MOL0     H23983   9.487   7.233   2.156 -0.2544  1.1288 -0.2096
  178MOL0     H23984   9.679   7.243   2.316 -0.6833 -0.3965  0.3570
  178MOL0     H23985   9.644   7.080   2.266  2.9065 -0.6977 -0.3023
  178MOL0     H23986   9.841   7.110   2.090 -0.6723  0.3719  0.0051
  178MOL0     H23987   9.892   7.102   2.253  0.0200  1.0479 -0.0774
  178MOL0     H23988   9.913   7.328   2.280  2.1562 -1.0279  0.4683
  178MOL0     H23989   9.830   7.379   2.139  2.1192  2.1932  0.1741
  178MOL0     H23990  10.262   7.166   2.112  1.0848  0.5177 -1.3270
  178MOL0     H23991  10.457   7.244   2.243  0.7730  0.5407 -2.9316
  178MOL0     H23992  10.794   7.483   2.367 -1.8274  0.6895 -0.1429
  178MOL0     H23993  10.975   7.505   2.537  0.3229  0.0177 -0.9399
  178MOL0     H23994  10.875   7.448   2.984 -0.2840 -0.4743 -0.0115
  178MOL0     H23995  10.915   7.308   2.909  0.3839 -0.0305  1.5246
  178MOL0     H23996  11.088   7.359   3.074 -0.1320  3.1446  2.3250
  178MOL0     H23997  11.149   7.371   2.909 -1.0571  2.3249 -3.4660
  178MOL0     H23998  11.242   7.547   3.074 -0.9475  1.1005  1.6621
  178MOL0     H23999  11.159   7.646   2.950 -1.4728  1.2910 -0.1803
  178MOL0     H24000  11.051   7.562   3.212  2.2180 -0.8025 -0.9405
  178MOL0     H24001  10.948   7.641   3.095 -0.9653 -1.7207  2.1273
  178MOL0     H24002  11.138   7.814   3.070  2.7584 -1.0014 -0.3746
  178MOL0     H24003  11.210   7.740   3.209  0.5049  1.0440 -2.3880
  178MOL0     H24004  10.932   7.828   3.224  0.0535  3.3698  0.0492
  178MOL0     H24005  11.054   7.796   3.356  0.9195  1.5582  0.0694
  178MOL0     H24006  11.067   8.037   3.150  2.3667  1.0000  1.2779
  178MOL0     H24007  11.190   7.990   3.252  0.1498 -0.8575 -0.8025
  178MOL0     H24008  11.065   8.018   3.455  0.7122  2.2907  0.6330
  178MOL0     H24009  11.068   8.166   3.354  2.4896 -1.8359 -2.1771
  178MOL0     H24010  10.704   7.388   2.846  0.8285 -3.2186 -0.2784
  178MOL0     H24011  10.531   7.334   2.678  0.2871 -0.5273  2.6111
  178MOL0     H24012  10.256   7.628   2.297 -1.5660  0.5942 -0.4542
  178MOL0     H24013  10.049   7.527   2.200 -2.0733 -2.2509  1.9728
  178MOL0     H24014  10.162   7.659   1.848 -0.3655 -0.3954 -3.8800
  178MOL0     H24015  10.008   7.782   1.992  1.2441  0.2343 -1.7743
  178MOL0     H24016   9.592   7.887   2.075  1.3380  2.8814  0.0303
  178MOL0     H24017   9.433   8.026   2.195 -1.1709  1.0526  2.6318
  178MOL0     H24018   9.252   8.087   2.357 -0.5018  1.2839 -2.1480
  178MOL0     H24019   9.375   8.198   2.307 -0.6187 -0.9791 -1.4385
  178MOL0     H24020   9.217   8.191   2.576 -0.5997  1.4853  1.7745
  178MOL0     H24021   9.162   8.297   2.452  0.5568 -0.1119  2.1464
  178MOL0     H24022   9.389   8.415   2.459 -2.2139 -4.1172 -2.4716
  178MOL0     H24023   9.422   8.299   2.598 -2.7807 -4.6163  1.2219
  178MOL0     H24024   9.368   8.494   2.704  0.6131 -1.4761  0.2781
  178MOL0     H24025   9.276   8.566   2.572  1.2919  0.8319  2.3001
  178MOL0     H24026   8.962   8.375   2.779  1.6475 -0.1269  2.6045
  178MOL0     H24027   9.599   7.917   2.571  0.7434 -3.6293  0.0968
  178MOL0     H24028   9.868   7.709   2.457  0.0107 -2.3471 -0.2773
  178MOL0     H24029   9.775   7.774   2.588 -0.8907 -0.5146 -0.3213
  178MOL0     H24030   9.703   7.642   2.509 -1.6165  0.2336 -3.4388
  179MOL0     O24031   2.052   2.834   1.907 -0.8956 -0.1293 -0.3013
  179MOL0     C24032   2.175   2.855   1.898  0.2080 -0.5094  0.2439
  179MOL0     O24033   2.232   2.963   1.837  0.1629  0.2003 -0.4099
  179MOL0     C24034   2.151   3.065   1.790 -0.6280  0.1441 -0.1127
  179MOL0     C24035   2.159   3.122   1.662  0.2122 -0.0718  0.1499
  179MOL0     C24036   2.078   3.228   1.629  0.7277 -0.6777  0.2275
  179MOL0     C24037   1.990   3.286   1.718 -0.2031 -1.1850 -0.4529
  179MOL0     O24038   1.920   3.400   1.685  0.5042 -0.5624 -0.3963
  179MOL0     C24039   1.993   3.506   1.629 -1.6721 -0.7694 -0.9795
  179MOL0     C24040   2.128   3.530   1.692 -0.7451  0.1147 -0.4410
  179MOL0     C24041   2.117   3.596   1.830 -0.1249 -0.4063 -0.0540
  179MOL0     C24042   2.164   3.743   1.823 -0.0588 -0.2486  0.0182
  179MOL0     C24043   2.171   3.804   1.970 -0.1284 -0.8197 -0.2866
  179MOL0     C24044   2.237   3.947   1.964  0.1779 -0.3091  0.5951
  179MOL0     C24045   2.126   4.039   1.921  0.1455  0.1919 -0.0272
  179MOL0     C24046   2.172   4.186   1.939 -0.6887 -0.5098 -0.2303
  179MOL0     N24047   2.118   4.243   2.055  0.6991  0.6510 -0.4272
  179MOL0     C24048   2.191   4.272   2.165  0.4598 -0.0345 -0.1907
  179MOL0     C24049   2.103   4.343   2.252  0.1118  0.3146  0.3272
  179MOL0     C24050   2.147   4.381   2.391  0.2654 -0.3870 -0.0316
  179MOL0     C24051   2.168   4.535   2.388 -0.0905 -0.9666  0.3570
  179MOL0     C24052   2.164   4.586   2.537  0.6003 -0.4472 -0.5181
  179MOL0     C24053   2.167   4.746   2.540 -0.4307  0.8564  0.5930
  179MOL0     O24054   2.177   4.788   2.673 -0.5033 -0.2852  0.1929
  179MOL0     C24055   2.299   4.800   2.732 -0.5249 -0.7495 -0.4231
  179MOL0     C24056   2.297   4.857   2.854  0.6884  1.1261 -0.3411
  179MOL0     C24057   2.414   4.899   2.925  1.3474 -0.1862 -0.0004
  179MOL0     C24058   2.533   4.856   2.872  0.3779 -0.5059  0.7889
  179MOL0     C24059   2.664   4.888   2.950 -0.9511 -0.5749  0.2785
  179MOL0     O24060   2.777   4.859   2.874  0.3129  0.5445 -0.5023
  179MOL0     C24061   2.893   4.911   2.916 -0.9043  0.2898  0.5726
  179MOL0     C24062   2.922   5.043   2.949  0.3072 -0.1314 -0.0166
  179MOL0     C24063   3.054   5.066   3.005  0.4830 -0.9873  0.2161
  179MOL0     C24064   3.157   4.966   3.014  0.6259  0.0004 -0.3013
  179MOL0     O24065   3.272   5.005   3.075  0.3471 -0.1311 -0.3107
  179MOL0     C24066   3.384   4.914   3.062 -0.5870 -0.1793 -0.4795
  179MOL0     C24067   3.499   5.012   3.040  0.0446  0.3586  0.2695
  179MOL0     C24068   3.624   4.946   2.968 -1.2942  0.4945  0.0073
  179MOL0     C24069   3.666   4.811   3.039 -0.2528  0.3261  0.6530
  179MOL0     C24070   3.797   4.746   2.987 -0.2142 -0.0026  0.2396
  179MOL0     C24071   3.778   4.649   2.876  0.0460  0.8001 -0.4389
  179MOL0     C24072   3.910   4.570   2.869 -0.5677  0.9091  0.2879
  179MOL0     C24073   3.894   4.461   2.763  0.8410  0.9343 -0.5856
  179MOL0    Cl24074   3.780   4.331   2.828 -0.0751 -0.2130 -0.5798
  179MOL0     C24075   3.120   4.832   2.986  0.0417  0.4417  0.7685
  179MOL0     C24076   2.991   4.808   2.934 -0.2639  0.0536 -0.2232
  179MOL0     O24077   2.655   4.949   3.057  0.0194 -0.1905 -0.0455
  179MOL0     C24078   2.541   4.783   2.751  0.1737  0.6421 -0.5875
  179MOL0     C24079   2.427   4.769   2.670  0.0940  1.3651  0.2269
  179MOL0     N24080   1.983   4.348   2.191 -0.2494  0.2274 -0.2603
  179MOL0     N24081   1.995   4.299   2.068  0.3699 -0.5514  0.3685
  179MOL0     C24082   1.971   3.229   1.845  0.0317 -0.3628 -0.0540
  179MOL0     C24083   2.058   3.122   1.884  0.5517  0.3657 -0.9922
  179MOL0     C24084   2.276   2.755   1.929  0.0736 -0.2346 -1.9704
  179MOL0     C24085   2.249   2.634   1.867  0.3993  0.3459 -0.0005
  179MOL0     C24086   2.343   2.534   1.873 -1.0948  0.3334 -0.4755
  179MOL0     C24087   2.454   2.542   1.960  0.9229 -0.2711  0.2869
  179MOL0     O24088   2.523   2.424   1.983 -0.2954 -0.9090  0.4837
  179MOL0     C24089   2.651   2.414   2.054 -0.3558  0.1579 -0.7473
  179MOL0     C24090   2.722   2.287   2.000 -1.5784  0.0325  0.8671
  179MOL0     C24091   2.655   2.151   2.034 -0.3505 -0.7441 -0.5817
  179MOL0     C24092   2.705   2.112   2.176 -0.2470  0.6938  0.8219
  179MOL0     C24093   2.848   2.087   2.192  0.4625  0.0912 -1.5492
  179MOL0     C24094   2.964   2.070   2.217 -0.7749  1.1010  0.4110
  179MOL0     C24095   2.486   2.656   2.024  0.4662  0.0537 -0.8437
  179MOL0     C24096   2.399   2.776   2.007 -0.9496 -0.6024  0.3739
  179MOL0     C24097   2.435   2.913   2.081 -1.0770  0.4269 -0.3349
  179MOL0     H24098   2.222   3.078   1.586 -3.9708 -5.4078 -0.7763
  179MOL0     H24099   2.080   3.274   1.531  2.2239  3.6009  2.0429
  179MOL0     H24100   2.015   3.495   1.523 -1.4167 -0.4334 -0.9639
  179MOL0     H24101   1.938   3.601   1.629 -1.0107 -0.3382  0.8949
  179MOL0     H24102   2.171   3.610   1.629 -1.8965  0.7512 -0.4488
  179MOL0     H24103   2.206   3.454   1.698  0.8268  1.6849  0.2564
  179MOL0     H24104   2.181   3.539   1.898 -1.0862 -2.7039 -1.0144
  179MOL0     H24105   2.013   3.590   1.863  0.9078  0.3723  3.9319
  179MOL0     H24106   2.267   3.754   1.787  1.0680  0.4592  3.1139
  179MOL0     H24107   2.103   3.791   1.747 -0.2664 -1.4340 -0.5934
  179MOL0     H24108   2.068   3.801   2.008  0.0168  0.2444  0.2366
  179MOL0     H24109   2.238   3.744   2.032 -0.8700 -2.2144 -0.7901
  179MOL0     H24110   2.260   3.970   2.068 -0.1662 -2.2672  1.1385
  179MOL0     H24111   2.329   3.955   1.906 -0.0517  2.6128  0.4605
  179MOL0     H24112   2.039   4.024   1.986  0.6289  1.6579  1.0205
  179MOL0     H24113   2.099   4.004   1.821  1.8268  4.2286 -2.1226
  179MOL0     H24114   2.281   4.193   1.947 -0.6423 -2.3263  1.5056
  179MOL0     H24115   2.129   4.239   1.853 -0.6164 -0.7859 -0.4414
  179MOL0     H24116   2.296   4.246   2.176  0.6699 -0.6034 -2.8492
  179MOL0     H24117   2.071   4.348   2.463 -0.0095  3.5367  1.7852
  179MOL0     H24118   2.237   4.329   2.425  1.2594  2.2624  1.7973
  179MOL0     H24119   2.267   4.560   2.347 -1.4072  2.4574 -1.1511
  179MOL0     H24120   2.093   4.585   2.327 -0.2047 -0.4351  0.9203
  179MOL0     H24121   2.243   4.532   2.591  0.8101 -0.3928 -0.7649
  179MOL0     H24122   2.073   4.562   2.592  1.6678 -2.8938  0.3359
  179MOL0     H24123   2.081   4.783   2.482 -0.0320 -1.4165 -1.6645
  179MOL0     H24124   2.248   4.776   2.473 -2.4674  1.2933 -1.8635
  179MOL0     H24125   2.201   4.870   2.904  0.4625  1.7237 -0.9156
  179MOL0     H24126   2.407   4.953   3.020  2.7013 -1.4713  0.8759
  179MOL0     H24127   2.847   5.120   2.960  0.7581  0.1409  1.4143
  179MOL0     H24128   3.093   5.165   3.026 -2.4224  0.6697 -1.5295
  179MOL0     H24129   3.395   4.851   3.151 -3.0442  1.8756  1.4270
  179MOL0     H24130   3.380   4.854   2.971  1.6267 -2.4915  0.8106
  179MOL0     H24131   3.466   5.088   2.969 -2.0067  0.1633  0.9544
  179MOL0     H24132   3.525   5.058   3.136  1.5743 -1.0202  0.5619
  179MOL0     H24133   3.613   4.921   2.862  0.3933  1.1249 -0.3392
  179MOL0     H24134   3.717   5.002   2.983  0.4866 -2.0752 -0.6562
  179MOL0     H24135   3.584   4.740   3.025 -0.3372  0.8014 -1.7471
  179MOL0     H24136   3.683   4.832   3.145 -0.4514  0.5234  0.6470
  179MOL0     H24137   3.847   4.701   3.073  1.5952 -0.4481 -0.9943
  179MOL0     H24138   3.868   4.824   2.957 -1.9101  2.0286  1.1785
  179MOL0     H24139   3.693   4.584   2.898 -0.2321  1.2121 -0.2670
  179MOL0     H24140   3.754   4.694   2.779 -1.6855  0.4611 -0.2133
  179MOL0     H24141   3.928   4.529   2.969 -2.1765 -1.1535 -0.1848
  179MOL0     H24142   3.993   4.627   2.828  0.6338 -1.6813 -1.1107
  179MOL0     H24143   3.837   4.484   2.672 -0.0645 -0.9662 -0.5390
  179MOL0     H24144   3.990   4.413   2.745  0.3506 -0.4534  0.3768
  179MOL0     H24145   3.178   4.744   3.011 -1.9726 -0.1238  4.0649
  179MOL0     H24146   2.961   4.705   2.922 -4.0561  1.1378 -1.7952
  179MOL0     H24147   2.631   4.732   2.719 -0.7515 -0.0841 -2.1768
  179MOL0     H24148   2.415   4.711   2.580 -1.2827  0.5868  0.8741
  179MOL0     H24149   1.903   3.282   1.911  1.0641  1.5891 -0.4549
  179MOL0     H24150   2.042   3.082   1.984 -4.3086  0.0945 -1.6336
  179MOL0     H24151   2.157   2.615   1.814  0.1328  1.4705  0.0202
  179MOL0     H24152   2.321   2.438   1.828  3.1155 -0.0801 -2.0937
  179MOL0     H24153   2.637   2.429   2.161 -2.4921  0.4708 -1.0324
  179MOL0     H24154   2.715   2.494   2.017  1.0509 -2.2257 -4.0136
  179MOL0     H24155   2.826   2.288   2.036 -1.6761 -1.8772  1.3409
  179MOL0     H24156   2.724   2.296   1.891 -2.8292  1.1812  0.9273
  179MOL0     H24157   2.701   2.080   1.964  2.4018  0.0348  0.3172
  179MOL0     H24158   2.548   2.146   2.013 -0.0586 -0.6795 -2.1974
  179MOL0     H24159   2.669   2.188   2.246 -0.8464 -2.3086  3.9941
  179MOL0     H24160   2.672   2.009   2.191  0.0864  0.3612 -0.5330
  179MOL0     H24161   3.067   2.040   2.216 -1.6521 -2.5725  1.9708
  179MOL0     H24162   2.564   2.672   2.097 -0.6067  0.3490  0.2738
  179MOL0     H24163   2.340   2.951   2.121 -0.3781  1.8851 -0.0019
  179MOL0     H24164   2.506   2.902   2.163  1.3538  1.9197 -2.1185
  179MOL0     H24165   2.482   2.989   2.018  0.3115  0.0675  0.2381
  180MOL0     O24166   4.698   2.415  10.754 -0.2682 -0.1515 -1.3684
  180MOL0     C24167   4.781   2.382  10.842  0.0553  0.4699  0.1762
  180MOL0     O24168   4.881   2.450  10.903  0.2831 -0.9121  1.0785
  180MOL0     C24169   4.912   2.582  10.853 -0.2831  0.4806 -0.0223
  180MOL0     C24170   4.969   2.612  10.723  0.2480  0.5952 -0.0747
  180MOL0     C24171   4.995   2.749  10.686  0.8684 -0.5157  0.1970
  180MOL0     C24172   4.959   2.857  10.772  0.3461  0.2257 -0.4004
  180MOL0     O24173   4.985   2.981  10.729 -0.5948  0.0297  0.2307
  180MOL0     C24174   4.886   3.029  10.632  0.4884 -0.3547 -0.4317
  180MOL0     C24175   4.936   3.134  10.543 -1.0166  0.3668 -0.9306
  180MOL0     C24176   5.014   3.081  10.427 -0.7760 -0.1914 -1.5330
  180MOL0     C24177   5.051   3.191  10.332  0.4565 -0.0975  0.1097
  180MOL0     C24178   5.092   3.140  10.184 -0.5003  0.0328  0.2642
  180MOL0     C24179   4.972   3.122  10.103  0.6534 -0.2331 -0.2747
  180MOL0     C24180   5.015   3.071   9.967 -0.5052 -0.2473 -1.3846
  180MOL0     C24181   4.906   2.995   9.895  0.3817 -0.1738  0.2994
  180MOL0     N24182   4.941   2.995   9.749 -0.7239 -0.0212 -0.3755
  180MOL0     C24183   5.058   2.972   9.689 -0.2126  0.1261 -0.0590
  180MOL0     C24184   5.032   2.992   9.554 -0.4469  1.2802 -0.5818
  180MOL0     C24185   5.132   2.989   9.440 -0.1760  0.0726  0.0089
  180MOL0     C24186   5.096   2.878   9.333 -0.0581 -0.4547  0.2533
  180MOL0     C24187   5.226   2.803   9.293 -1.1627  0.0498 -0.3663
  180MOL0     C24188   5.209   2.668   9.237 -0.0542 -0.2251  1.0295
  180MOL0     O24189   5.338   2.618   9.216  0.1726 -0.3987  1.2477
  180MOL0     C24190   5.365   2.489   9.226  0.2592  0.7779  1.1006
  180MOL0     C24191   5.317   2.402   9.322  1.7085 -0.2007 -0.1060
  180MOL0     C24192   5.365   2.278   9.342  0.3500  0.5399  0.7919
  180MOL0     C24193   5.472   2.230   9.261  0.2879 -0.6366 -0.5687
  180MOL0     C24194   5.536   2.103   9.287  0.2046  0.9820 -0.0463
  180MOL0     O24195   5.649   2.078   9.219 -0.0240  0.0428  0.1449
  180MOL0     C24196   5.716   1.959   9.222 -0.3476 -0.0106 -0.2275
  180MOL0     C24197   5.825   1.941   9.302 -0.3939  0.4137 -0.1129
  180MOL0     C24198   5.912   1.831   9.292  0.5112  0.2222  0.4835
  180MOL0     C24199   5.876   1.728   9.210  0.1237  0.5130 -0.1975
  180MOL0     O24200   5.952   1.615   9.188  0.1083  0.1273  0.0234
  180MOL0     C24201   6.084   1.603   9.250 -1.1348  0.2640 -0.7507
  180MOL0     C24202   6.143   1.461   9.236 -0.1464 -0.6491 -0.0596
  180MOL0     C24203   6.176   1.437   9.085  0.3201 -1.2111 -0.0652
  180MOL0     C24204   6.228   1.294   9.057 -0.0611  0.1777  0.1526
  180MOL0     C24205   6.126   1.181   9.084 -0.5714  0.0242  0.4058
  180MOL0     C24206   6.210   1.056   9.110  1.3784  0.3012  0.0068
  180MOL0     C24207   6.134   0.922   9.094 -0.4875  0.6923 -0.7168
  180MOL0     C24208   6.015   0.918   9.194  0.7689  0.2447 -0.9443
  180MOL0    Cl24209   6.065   0.962   9.356 -0.0693 -0.8884 -0.0408
  180MOL0     C24210   5.754   1.733   9.142  0.7674 -0.3590  0.4709
  180MOL0     C24211   5.677   1.847   9.145  0.0746 -0.7910  0.3746
  180MOL0     O24212   5.490   2.020   9.364  0.0808 -0.7633  0.4595
  180MOL0     C24213   5.523   2.320   9.174 -0.2470  0.9369  0.1190
  180MOL0     C24214   5.471   2.445   9.138  0.3750  0.0469  0.4912
  180MOL0     N24215   4.903   3.044   9.539 -0.1179  0.3174  0.6458
  180MOL0     N24216   4.850   3.032   9.654 -0.2039 -0.0519  0.0124
  180MOL0     C24217   4.896   2.827  10.889 -0.4080 -0.2646 -1.1286
  180MOL0     C24218   4.869   2.691  10.930  0.9082  0.1430  0.2640
  180MOL0     C24219   4.751   2.239  10.899  0.7113 -0.1401  0.3731
  180MOL0     C24220   4.625   2.187  10.875  0.3724  0.5816 -0.5286
  180MOL0     C24221   4.598   2.050  10.922  0.3443  0.6412 -0.2780
  180MOL0     C24222   4.690   1.981  10.996 -0.5776 -0.0305  0.0569
  180MOL0     O24223   4.670   1.858  11.040 -0.2090  0.3303 -0.5233
  180MOL0     C24224   4.553   1.837  11.125  0.0293  0.5828  0.4549
  180MOL0     C24225   4.576   1.716  11.214 -0.4203 -0.6433  0.3151
  180MOL0     C24226   4.694   1.745  11.319 -0.8231  0.1559 -0.2312
  180MOL0     C24227   4.814   1.661  11.277 -0.7779  0.7715 -0.4157
  180MOL0     C24228   4.799   1.514  11.307 -0.8310 -0.3642  0.9383
  180MOL0     C24229   4.818   1.396  11.318  0.2764  0.2456  0.2632
  180MOL0     C24230   4.816   2.035  11.006 -0.0174 -1.0336  0.5174
  180MOL0     C24231   4.848   2.164  10.967 -0.8898  0.0828  0.0289
  180MOL0     C24232   4.988   2.202  10.998  0.4162 -0.3254 -0.6543
  180MOL0     H24233   4.985   2.533  10.651  0.3628 -0.0991  0.6955
  180MOL0     H24234   5.032   2.788  10.592 -1.9523  0.9859 -0.4059
  180MOL0     H24235   4.851   2.943  10.575  0.7790 -0.5840 -0.2727
  180MOL0     H24236   4.800   3.060  10.692  1.2852 -0.5234  0.8622
  180MOL0     H24237   4.994   3.211  10.594 -0.3257 -1.1250  0.6264
  180MOL0     H24238   4.854   3.198  10.508 -1.1516  0.2660 -0.8036
  180MOL0     H24239   4.969   2.992  10.382  1.1211 -1.2978 -1.3505
  180MOL0     H24240   5.110   3.041  10.460 -1.5737  0.6685  2.2575
  180MOL0     H24241   4.970   3.265  10.324  0.3181 -0.0929  1.3059
  180MOL0     H24242   5.139   3.239  10.376  0.5518 -0.0397 -0.1405
  180MOL0     H24243   5.174   3.193  10.134 -0.0705 -0.6327  0.2532
  180MOL0     H24244   5.139   3.043  10.202 -0.2859 -0.1013 -0.9739
  180MOL0     H24245   4.899   3.054  10.150 -1.5140  0.3833 -2.5429
  180MOL0     H24246   4.924   3.219  10.091  1.1664 -0.2593 -3.1848
  180MOL0     H24247   5.107   3.013   9.981 -1.1004 -0.5104  3.1752
  180MOL0     H24248   5.043   3.163   9.915  2.3047  1.3261  2.3828
  180MOL0     H24249   4.904   2.895   9.940 -2.0749  1.0584  3.2600
  180MOL0     H24250   4.807   3.040   9.911 -0.5913 -2.1030  0.1485
  180MOL0     H24251   5.144   2.945   9.749 -0.4246  1.2833  0.8003
  180MOL0     H24252   5.149   3.083   9.387  0.5165 -2.3652 -4.5185
  180MOL0     H24253   5.224   2.955   9.488 -0.4689 -2.2916 -0.9925
  180MOL0     H24254   5.016   2.810   9.364  0.1731 -0.4029  0.9900
  180MOL0     H24255   5.063   2.923   9.239 -1.3407 -2.2704 -0.2292
  180MOL0     H24256   5.290   2.799   9.381 -2.0430  1.7085  0.3993
  180MOL0     H24257   5.268   2.862   9.210 -0.1188  1.2058  0.9455
  180MOL0     H24258   5.161   2.670   9.139  3.2841 -3.5733 -0.9084
  180MOL0     H24259   5.148   2.612   9.309  1.3121 -0.6581  1.8951
  180MOL0     H24260   5.240   2.443   9.387  2.1892  1.4498 -0.5270
  180MOL0     H24261   5.329   2.207   9.416 -1.1114  0.8165  0.3746
  180MOL0     H24262   5.857   2.029   9.357 -1.1878  2.1949 -2.3062
  180MOL0     H24263   6.009   1.828   9.340  0.0569 -1.9458  1.3937
  180MOL0     H24264   6.154   1.677   9.209 -0.2867 -0.8291 -1.3153
  180MOL0     H24265   6.081   1.614   9.359  1.1788 -0.4561 -0.5542
  180MOL0     H24266   6.229   1.448   9.302  1.5047  2.5432 -1.3499
  180MOL0     H24267   6.071   1.386   9.269 -1.6281  0.8083  0.1508
  180MOL0     H24268   6.087   1.469   9.029  1.4850  1.7927 -0.4103
  180MOL0     H24269   6.266   1.493   9.057  0.6557 -1.2585  0.8955
  180MOL0     H24270   6.322   1.275   9.108  0.2091  2.1286  0.4843
  180MOL0     H24271   6.246   1.280   8.950 -2.6598 -2.6354 -0.0280
  180MOL0     H24272   6.051   1.174   9.005 -1.9263  2.2706  1.3988
  180MOL0     H24273   6.071   1.218   9.171 -1.1218  0.2225 -0.0186
  180MOL0     H24274   6.281   1.055   9.026 -1.2978 -0.4775 -2.3840
  180MOL0     H24275   6.259   1.058   9.208 -0.6606 -1.0590  1.1249
  180MOL0     H24276   6.206   0.846   9.124  0.5531  1.3544 -1.5049
  180MOL0     H24277   6.105   0.904   8.990 -1.0238  0.2807 -0.5017
  180MOL0     H24278   5.940   0.991   9.161 -0.8415 -1.2877 -0.8045
  180MOL0     H24279   5.967   0.822   9.209 -0.8871  1.3217  1.0850
  180MOL0     H24280   5.717   1.649   9.085 -3.2568  2.1569 -1.0360
  180MOL0     H24281   5.587   1.843   9.085 -0.0205  4.0603 -0.2731
  180MOL0     H24282   5.604   2.296   9.106 -2.0679  1.7394 -2.4833
  180MOL0     H24283   5.490   2.502   9.048 -1.3570  0.7647  0.5478
  180MOL0     H24284   4.870   2.902  10.963 -0.9207 -1.4655 -0.0590
  180MOL0     H24285   4.816   2.668  11.022  1.7277  0.3028  0.7860
  180MOL0     H24286   4.544   2.244  10.829 -0.6581 -0.7852 -0.4802
  180MOL0     H24287   4.498   2.014  10.900  0.3571  1.3847 -1.7081
  180MOL0     H24288   4.461   1.816  11.069  0.7144 -4.0218  0.6604
  180MOL0     H24289   4.535   1.924  11.187  0.5600  0.6833  0.4743
  180MOL0     H24290   4.593   1.629  11.149 -3.6770 -0.1570 -1.4478
  180MOL0     H24291   4.487   1.689  11.271  1.1553 -1.3302  2.5985
  180MOL0     H24292   4.657   1.720  11.419  1.9681 -0.4605  0.7270
  180MOL0     H24293   4.722   1.849  11.338  2.7678 -0.7794  0.2701
  180MOL0     H24294   4.843   1.674  11.173  0.1183 -2.7682 -0.7552
  180MOL0     H24295   4.896   1.704  11.335  0.5991  0.7276 -2.2738
  180MOL0     H24296   4.834   1.290  11.324 -2.4113 -0.3220 -0.8465
  180MOL0     H24297   4.895   1.973  11.047  1.8888  0.8278 -0.1494
  180MOL0     H24298   5.023   2.248  10.905  1.0730 -3.1473 -1.9013
  180MOL0     H24299   4.974   2.277  11.077 -0.7380 -0.6192 -0.5569
  180MOL0     H24300   5.061   2.127  11.030  1.4262  1.0239  0.3593
  181MOL0     O24301   4.176   6.514   4.005  0.4983 -0.8733  0.7397
  181MOL0     C24302   4.248   6.451   4.086  0.0604  0.0389 -1.1275
  181MOL0     O24303   4.208   6.391   4.205  0.2985 -0.1984 -0.3476
  181MOL0     C24304   4.084   6.424   4.254  0.2209 -0.3276  0.5757
  181MOL0     C24305   3.997   6.329   4.299  0.0660 -0.7782  0.0424
  181MOL0     C24306   3.874   6.361   4.350  0.9852  0.8492  0.6214
  181MOL0     C24307   3.828   6.486   4.339  0.3344 -0.5009 -0.3299
  181MOL0     O24308   3.700   6.523   4.364  0.6460  0.0415 -0.1202
  181MOL0     C24309   3.612   6.433   4.442 -0.9073  0.1358 -0.5426
  181MOL0     C24310   3.632   6.443   4.604 -0.1467 -0.3132 -0.6121
  181MOL0     C24311   3.577   6.577   4.654 -0.4926 -0.1158  0.1314
  181MOL0     C24312   3.430   6.593   4.635  0.5711 -0.8264  0.3841
  181MOL0     C24313   3.390   6.725   4.705  0.9512 -0.5693 -0.1892
  181MOL0     C24314   3.250   6.775   4.660 -0.7233  0.3850  0.2895
  181MOL0     C24315   3.226   6.925   4.683 -0.4361 -0.1940  0.0028
  181MOL0     C24316   3.295   7.017   4.589  0.4470 -0.2685 -1.0935
  181MOL0     N24317   3.278   7.155   4.634 -0.6447 -0.1303  0.2082
  181MOL0     C24318   3.338   7.207   4.747  0.6633 -1.0857 -1.5882
  181MOL0     C24319   3.290   7.332   4.772  0.1043  0.1253 -0.5298
  181MOL0     C24320   3.327   7.436   4.881 -0.3416  0.1610  0.3225
  181MOL0     C24321   3.278   7.582   4.835 -0.4523  0.2099 -0.2715
  181MOL0     C24322   3.130   7.604   4.856  0.5522  0.2981 -0.3813
  181MOL0     C24323   3.082   7.730   4.784 -0.5484 -0.7802  1.0054
  181MOL0     O24324   3.178   7.845   4.798 -0.0508  0.8928  0.1629
  181MOL0     C24325   3.184   7.930   4.901 -0.2719 -1.1427  0.4309
  181MOL0     C24326   3.307   7.990   4.933 -0.1793  0.1902 -0.5509
  181MOL0     C24327   3.316   8.092   5.033  0.6175  0.1431  0.6200
  181MOL0     C24328   3.210   8.124   5.116 -0.3920 -0.4667 -0.5552
  181MOL0     C24329   3.220   8.230   5.220 -0.4522 -0.9656 -0.2270
  181MOL0     O24330   3.111   8.237   5.309 -0.9127  0.0677  0.2119
  181MOL0     C24331   3.119   8.340   5.408  0.2827 -0.4002  0.2656
  181MOL0     C24332   2.996   8.404   5.419 -1.2519 -0.2655  0.2113
  181MOL0     C24333   2.980   8.515   5.510  0.9026  0.0268  0.2384
  181MOL0     C24334   3.080   8.566   5.587 -0.2005  0.1888  0.3493
  181MOL0     O24335   3.077   8.667   5.688  0.9841 -0.0800  0.4043
  181MOL0     C24336   2.945   8.729   5.711 -1.0526  0.7432  0.6263
  181MOL0     C24337   2.969   8.806   5.840 -1.0148 -0.5092  0.0675
  181MOL0     C24338   3.059   8.933   5.817  0.3535 -0.5248 -0.2439
  181MOL0     C24339   3.030   9.037   5.927  0.3968 -0.4468  0.8381
  181MOL0     C24340   3.105   9.168   5.889 -0.5289 -0.5341 -0.2476
  181MOL0     C24341   3.109   9.262   6.008 -0.2129 -0.0236  0.4592
  181MOL0     C24342   3.184   9.390   5.959 -0.2640  0.8464 -1.1226
  181MOL0     C24343   3.189   9.477   6.079  0.8355 -0.4918 -0.0633
  181MOL0    Cl24344   3.292   9.619   6.041 -0.0926  0.0746  0.2059
  181MOL0     C24345   3.212   8.506   5.566 -0.2085  0.5666 -0.4725
  181MOL0     C24346   3.227   8.388   5.488  1.1057  0.5301 -0.1840
  181MOL0     O24347   3.320   8.303   5.216  0.3610  0.0537 -0.4730
  181MOL0     C24348   3.084   8.063   5.085  0.4624  0.0010  0.5111
  181MOL0     C24349   3.074   7.968   4.974 -0.0585  0.4143 -0.6913
  181MOL0     N24350   3.203   7.349   4.670 -0.0083 -0.2551 -0.3538
  181MOL0     N24351   3.189   7.249   4.596 -0.3957 -0.3332  0.1133
  181MOL0     C24352   3.911   6.588   4.287  0.6403  0.1561  0.3760
  181MOL0     C24353   4.039   6.553   4.241 -0.8567  0.5082  0.4193
  181MOL0     C24354   4.388   6.428   4.040  0.3470 -0.4688  0.3559
  181MOL0     C24355   4.424   6.478   3.907  0.5428 -0.1049 -0.4079
  181MOL0     C24356   4.561   6.466   3.854  0.5256  0.0785 -0.7928
  181MOL0     C24357   4.654   6.397   3.930 -0.4298 -0.2201 -0.3440
  181MOL0     O24358   4.787   6.374   3.895  0.0288 -0.4213  0.3113
  181MOL0     C24359   4.832   6.406   3.761  0.1661 -0.4857 -0.0249
  181MOL0     C24360   4.979   6.380   3.765 -0.1762 -0.2454  0.9280
  181MOL0     C24361   5.059   6.409   3.634  0.6025  0.0825 -0.1332
  181MOL0     C24362   5.208   6.369   3.645  0.5248  0.3900 -0.0775
  181MOL0     C24363   5.271   6.380   3.509  0.3071 -0.1122  0.3230
  181MOL0     C24364   5.329   6.399   3.408  0.7114 -0.0627  0.8193
  181MOL0     C24365   4.614   6.352   4.064  0.0918 -0.1916  0.5342
  181MOL0     C24366   4.490   6.366   4.122  0.3029  0.3899 -0.1572
  181MOL0     C24367   4.464   6.302   4.251 -0.5179 -0.5171 -0.4967
  181MOL0     H24368   4.033   6.226   4.295  2.7564  0.0961 -0.6822
  181MOL0     H24369   3.822   6.281   4.400 -0.4403 -0.6206 -2.8896
  181MOL0     H24370   3.506   6.445   4.417 -0.9886  0.0707 -0.2217
  181MOL0     H24371   3.624   6.328   4.416 -0.2850  0.0318  0.1396
  181MOL0     H24372   3.740   6.433   4.619 -0.2724 -0.1419  0.4519
  181MOL0     H24373   3.593   6.358   4.659 -1.1162 -0.7578 -1.9235
  181MOL0     H24374   3.627   6.665   4.612 -2.6240  1.2341  0.2360
  181MOL0     H24375   3.587   6.587   4.762  2.4700 -0.8188  0.0074
  181MOL0     H24376   3.394   6.609   4.533  1.3482  1.4935  0.4259
  181MOL0     H24377   3.381   6.507   4.680  1.3965 -0.9498  1.0682
  181MOL0     H24378   3.388   6.713   4.814 -2.7037 -0.0415 -0.0732
  181MOL0     H24379   3.465   6.802   4.688  2.3433 -1.8136  0.1566
  181MOL0     H24380   3.227   6.727   4.565 -1.3815 -0.0600  0.6646
  181MOL0     H24381   3.171   6.732   4.722 -1.1628 -2.5681 -2.0734
  181MOL0     H24382   3.280   6.951   4.775 -1.0681  0.6653  0.1471
  181MOL0     H24383   3.121   6.948   4.703  0.1209  0.1248  3.2300
  181MOL0     H24384   3.403   7.008   4.572  0.4264  2.1157 -3.0523
  181MOL0     H24385   3.253   7.006   4.488 -0.1415 -0.3139 -0.8469
  181MOL0     H24386   3.410   7.148   4.802  0.0365 -0.2441  0.2543
  181MOL0     H24387   3.275   7.404   4.972 -0.3985 -2.4998 -0.5633
  181MOL0     H24388   3.436   7.430   4.884 -0.3456 -2.4522 -1.5240
  181MOL0     H24389   3.333   7.664   4.883 -2.1198  2.3695 -1.8150
  181MOL0     H24390   3.299   7.607   4.730 -1.7287  2.6048 -0.0312
  181MOL0     H24391   3.110   7.601   4.963  2.1754 -1.0400 -0.0689
  181MOL0     H24392   3.081   7.514   4.818  2.1667 -0.9470  0.3484
  181MOL0     H24393   2.983   7.750   4.827  0.5465 -0.8705  3.7862
  181MOL0     H24394   3.086   7.699   4.679 -1.6217  1.5647  0.2066
  181MOL0     H24395   3.400   7.972   4.879  0.5439 -2.1604  1.3481
  181MOL0     H24396   3.401   8.156   5.054  0.8370  0.4327 -1.0701
  181MOL0     H24397   2.909   8.372   5.364  0.0118  0.5901 -2.4526
  181MOL0     H24398   2.886   8.570   5.505  0.7681 -0.0888  1.2450
  181MOL0     H24399   2.907   8.790   5.629 -0.4441 -2.5680 -2.3722
  181MOL0     H24400   2.870   8.652   5.730  1.3161 -1.2618  2.5889
  181MOL0     H24401   2.866   8.830   5.870 -0.6229 -0.4929  1.4317
  181MOL0     H24402   2.999   8.737   5.918 -1.2574  0.0577  0.6706
  181MOL0     H24403   3.167   8.915   5.818  0.6132  0.9148 -0.0690
  181MOL0     H24404   3.041   8.979   5.719  2.7852 -1.4999 -1.2498
  181MOL0     H24405   3.070   9.002   6.023  0.5768  1.1337  1.3661
  181MOL0     H24406   2.923   9.055   5.943 -0.6362 -1.8317 -3.3361
  181MOL0     H24407   3.047   9.214   5.809 -2.4693 -2.3826 -0.0090
  181MOL0     H24408   3.205   9.147   5.851 -0.3418 -0.1282  0.0261
  181MOL0     H24409   3.010   9.293   6.039 -0.2095  3.8931 -2.6523
  181MOL0     H24410   3.166   9.208   6.084  0.3199 -0.8431 -0.4869
  181MOL0     H24411   3.131   9.442   5.878 -0.7300  2.7679  0.3227
  181MOL0     H24412   3.289   9.370   5.935  0.0153  0.7921  0.0773
  181MOL0     H24413   3.089   9.514   6.104  0.6832 -1.0771  0.2038
  181MOL0     H24414   3.240   9.429   6.164 -1.1414 -0.0193  1.4598
  181MOL0     H24415   3.292   8.522   5.638 -0.8885  1.0445  0.1954
  181MOL0     H24416   3.326   8.344   5.475  2.2066  3.0716 -0.9276
  181MOL0     H24417   2.998   8.081   5.150  1.2860 -1.8475  2.2327
  181MOL0     H24418   2.974   7.932   4.954  1.5346 -4.0573 -1.7473
  181MOL0     H24419   3.887   6.693   4.280  0.4423  0.0713 -0.2867
  181MOL0     H24420   4.110   6.630   4.211  1.4712 -0.6984  2.4428
  181MOL0     H24421   4.349   6.531   3.849 -2.0931 -0.5732  2.2993
  181MOL0     H24422   4.594   6.527   3.771 -0.2341  1.3103 -0.2104
  181MOL0     H24423   4.824   6.513   3.737  3.6668  0.3094  1.6853
  181MOL0     H24424   4.786   6.345   3.683  2.4512 -3.5016  0.7936
  181MOL0     H24425   4.986   6.271   3.768  2.8412 -0.2206 -1.0293
  181MOL0     H24426   5.018   6.431   3.853  4.2222 -1.0647 -0.3078
  181MOL0     H24427   5.044   6.516   3.616 -1.7112 -0.4041 -1.4852
  181MOL0     H24428   5.009   6.351   3.556 -0.9978  1.8387 -0.4728
  181MOL0     H24429   5.269   6.435   3.707  2.5631 -1.0596 -0.4428
  181MOL0     H24430   5.214   6.268   3.686  1.0197  1.2376  2.0765
  181MOL0     H24431   5.369   6.395   3.309  3.3970 -2.2532  1.8909
  181MOL0     H24432   4.680   6.291   4.126 -1.3492 -1.3423  0.9797
  181MOL0     H24433   4.557   6.291   4.308 -0.6753  2.6188  0.5343
  181MOL0     H24434   4.398   6.364   4.313  1.3428 -0.6338  1.7429
  181MOL0     H24435   4.430   6.198   4.240 -0.4887 -0.7857  1.5329
  182MOL0     O24436   3.936  11.449   5.298 -0.6564 -0.7427 -0.0400
  182MOL0     C24437   3.979  11.334   5.279  0.0704 -0.5230  0.3316
  182MOL0     O24438   4.107  11.290   5.301  0.3413  0.1147  0.1587
  182MOL0     C24439   4.196  11.340   5.389 -0.6246  0.6359 -0.3989
  182MOL0     C24440   4.326  11.319   5.353  0.3215 -0.0771  0.1981
  182MOL0     C24441   4.428  11.365   5.430  0.4796  1.1159 -0.1318
  182MOL0     C24442   4.400  11.431   5.556 -0.0482  0.0912  0.5551
  182MOL0     O24443   4.490  11.479   5.643 -0.1356  0.8110  0.1967
  182MOL0     C24444   4.585  11.383   5.676  0.0286 -0.2226 -0.9486
  182MOL0     C24445   4.659  11.438   5.796  0.1162  0.3166 -0.3101
  182MOL0     C24446   4.784  11.521   5.740  0.7476 -0.2502 -0.2631
  182MOL0     C24447   4.894  11.526   5.841  0.0299  0.9559  0.7639
  182MOL0     C24448   5.020  11.582   5.772  0.0265  0.1821 -0.8472
  182MOL0     C24449   5.128  11.609   5.883  0.3323  0.4054  0.0560
  182MOL0     C24450   5.101  11.721   5.981 -1.7074 -0.3815  0.3718
  182MOL0     C24451   5.216  11.714   6.088  1.2504  0.6965 -0.2750
  182MOL0     N24452   5.193  11.613   6.194  0.4147  0.1656 -0.1489
  182MOL0     C24453   5.094  11.613   6.287 -0.5483  0.0879 -0.2100
  182MOL0     C24454   5.132  11.517   6.379  0.2730  0.5515  1.2093
  182MOL0     C24455   5.065  11.508   6.514 -0.0648  0.2685  0.6278
  182MOL0     C24456   5.088  11.367   6.586  0.2730  0.2975 -0.0531
  182MOL0     C24457   5.064  11.246   6.492  0.6601  0.0996  0.1602
  182MOL0     C24458   4.915  11.206   6.488  0.4354 -0.7111 -0.5343
  182MOL0     O24459   4.852  11.275   6.376 -0.4674  0.3856  0.0057
  182MOL0     C24460   4.724  11.330   6.412 -0.4516 -0.0608  0.5647
  182MOL0     C24461   4.689  11.406   6.525  0.5088  0.9150  0.3538
  182MOL0     C24462   4.558  11.449   6.550 -0.1994 -0.3018  0.2263
  182MOL0     C24463   4.453  11.434   6.453  0.0282  0.4653  0.6620
  182MOL0     C24464   4.322  11.489   6.476  1.1697 -0.1634  0.2679
  182MOL0     O24465   4.228  11.414   6.399 -0.4021 -0.7148  0.7578
  182MOL0     C24466   4.099  11.461   6.399 -1.0555  0.1081 -0.1578
  182MOL0     C24467   4.056  11.550   6.306 -0.3275 -0.7215 -0.0549
  182MOL0     C24468   3.926  11.587   6.298  0.5472  0.2983 -0.0514
  182MOL0     C24469   3.827  11.529   6.379  0.7701  0.5542 -1.2934
  182MOL0     O24470   3.693  11.548   6.371  0.9467  0.1376 -0.2923
  182MOL0     C24471   3.651  11.627   6.256 -0.1393 -0.2427 -1.0864
  182MOL0     C24472   3.504  11.591   6.225 -0.5303  0.3197  0.0997
  182MOL0     C24473   3.404  11.687   6.295 -0.7396 -0.2080  0.2552
  182MOL0     C24474   3.256  11.654   6.250 -0.0424  0.6515 -0.1594
  182MOL0     C24475   3.156  11.760   6.300  0.0266 -0.5123 -0.1973
  182MOL0     C24476   3.148  11.777   6.452 -0.7276  0.4045  0.1362
  182MOL0     C24477   3.012  11.834   6.498  0.2726  1.0419 -0.4434
  182MOL0     C24478   2.988  11.981   6.460 -1.7495  0.1495  0.7782
  182MOL0    Cl24479   2.921  12.013   6.294 -0.2293 -0.0291  0.1501
  182MOL0     C24480   3.872  11.444   6.489 -0.1978  0.8477  0.2945
  182MOL0     C24481   4.003  11.396   6.484 -0.2434 -0.8012 -0.1640
  182MOL0     O24482   4.304  11.591   6.542 -0.6897  0.0287  0.6492
  182MOL0     C24483   4.486  11.369   6.330 -0.8184  1.0193  0.8118
  182MOL0     C24484   4.619  11.312   6.311 -0.9012 -0.0099  0.0277
  182MOL0     N24485   5.252  11.462   6.331 -0.3381  0.2723 -0.6277
  182MOL0     N24486   5.282  11.511   6.223 -0.1629 -0.1823  0.0450
  182MOL0     C24487   4.268  11.453   5.594  0.6821  0.0649  0.4979
  182MOL0     C24488   4.162  11.407   5.508 -0.2888  0.1400 -0.8041
  182MOL0     C24489   3.881  11.226   5.263  0.2368  0.5171  0.1584
  182MOL0     C24490   3.760  11.221   5.340 -0.4349  0.2843  0.2404
  182MOL0     C24491   3.656  11.127   5.317  0.9009 -0.0491 -0.5758
  182MOL0     C24492   3.676  11.020   5.235 -0.8036  0.4063 -0.0127
  182MOL0     O24493   3.568  10.935   5.209 -0.3740 -0.0710  1.4953
  182MOL0     C24494   3.601  10.797   5.192 -0.5494 -0.4064  0.2105
  182MOL0     C24495   3.496  10.710   5.257  0.2886 -0.5483  0.2225
  182MOL0     C24496   3.454  10.735   5.406 -0.0216  0.2072  0.5815
  182MOL0     C24497   3.397  10.608   5.470  0.4462  0.4262 -0.0773
  182MOL0     C24498   3.264  10.572   5.416 -0.5185 -0.2874 -0.8880
  182MOL0     C24499   3.150  10.545   5.376  0.2607  0.1420 -0.5365
  182MOL0     C24500   3.800  11.018   5.169 -0.2604 -0.1973  0.5099
  182MOL0     C24501   3.901  11.116   5.180  0.0395  0.2029 -0.8382
  182MOL0     C24502   4.026  11.111   5.092  0.2214  0.5407  0.0313
  182MOL0     H24503   4.348  11.268   5.260  0.1255 -2.1128  1.2125
  182MOL0     H24504   4.526  11.338   5.392  0.4356  0.4222  0.2254
  182MOL0     H24505   4.521  11.301   5.710 -2.1430  2.1178  1.0920
  182MOL0     H24506   4.653  11.345   5.600 -0.5672 -0.9898 -1.1065
  182MOL0     H24507   4.696  11.355   5.856  1.4247  1.5492  0.6515
  182MOL0     H24508   4.596  11.501   5.859  0.9719 -1.2908  2.3162
  182MOL0     H24509   4.751  11.624   5.723 -1.5802 -0.3887  2.5095
  182MOL0     H24510   4.825  11.477   5.649  1.6070  0.9805 -0.4941
  182MOL0     H24511   4.865  11.587   5.927  1.3718 -0.3559  2.1945
  182MOL0     H24512   4.906  11.428   5.888  1.5483  3.4823  6.4578
  182MOL0     H24513   5.047  11.505   5.700  0.0787 -1.6691  1.0669
  182MOL0     H24514   4.996  11.681   5.732 -1.3042  0.5581  0.7620
  182MOL0     H24515   5.147  11.516   5.938 -4.1967 -0.3791  0.6346
  182MOL0     H24516   5.214  11.618   5.816 -0.2169  1.6420 -0.5173
  182MOL0     H24517   5.010  11.710   6.040 -1.2790 -1.6574  0.8356
  182MOL0     H24518   5.104  11.809   5.917 -1.0994 -2.6404 -2.9581
  182MOL0     H24519   5.312  11.694   6.039 -0.0724 -0.3836 -2.5421
  182MOL0     H24520   5.218  11.815   6.131 -0.1794  0.8743 -0.5755
  182MOL0     H24521   5.016  11.687   6.305 -0.1770  0.3683  0.2612
  182MOL0     H24522   5.109  11.586   6.576 -0.1102 -0.7176  1.9306
  182MOL0     H24523   4.959  11.525   6.498 -0.0148 -0.8702 -1.3765
  182MOL0     H24524   5.184  11.368   6.637 -0.1525  0.4434  0.7573
  182MOL0     H24525   5.025  11.361   6.675  1.4769 -0.6493  0.7475
  182MOL0     H24526   5.108  11.156   6.537  0.3231 -0.5529 -0.7838
  182MOL0     H24527   5.106  11.254   6.392 -0.1133 -2.2823 -0.4416
  182MOL0     H24528   4.861  11.223   6.581 -0.9005 -1.5636 -1.1107
  182MOL0     H24529   4.918  11.099   6.464  1.7654 -0.8563  0.1891
  182MOL0     H24530   4.766  11.429   6.598  0.4689 -0.9916  1.0431
  182MOL0     H24531   4.532  11.516   6.632 -0.1750  2.3955 -1.8290
  182MOL0     H24532   4.131  11.588   6.238  0.0610 -0.3357  0.5709
  182MOL0     H24533   3.898  11.664   6.226 -0.1794 -0.3769 -0.5055
  182MOL0     H24534   3.659  11.732   6.285  0.9052 -0.3232 -1.0499
  182MOL0     H24535   3.710  11.593   6.171  0.0691 -0.1243 -0.9903
  182MOL0     H24536   3.486  11.593   6.118  1.2059 -4.3165 -0.5346
  182MOL0     H24537   3.473  11.490   6.255  1.4892 -0.0553  1.1012
  182MOL0     H24538   3.412  11.683   6.404 -1.6003 -0.7793  0.3139
  182MOL0     H24539   3.435  11.787   6.266  0.2577 -1.0358 -1.7195
  182MOL0     H24540   3.226  11.555   6.287  0.4280  0.9897  1.2111
  182MOL0     H24541   3.262  11.650   6.141  0.7719  1.0085 -0.1300
  182MOL0     H24542   3.062  11.728   6.254  0.4974  0.1480 -1.6663
  182MOL0     H24543   3.174  11.861   6.264 -2.3422 -0.5633 -1.7063
  182MOL0     H24544   3.159  11.678   6.497 -2.2342  2.0997  4.7231
  182MOL0     H24545   3.233  11.831   6.493  0.4849 -1.9033  0.8678
  182MOL0     H24546   3.011  11.817   6.606 -2.7198 -1.4128 -0.7016
  182MOL0     H24547   2.926  11.771   6.473  0.3441 -0.7217  3.1299
  182MOL0     H24548   2.924  12.033   6.532 -3.8879  0.1998 -1.0507
  182MOL0     H24549   3.089  12.022   6.470 -0.6681 -2.4143  1.0684
  182MOL0     H24550   3.796  11.397   6.549 -0.8789  1.0159 -0.4211
  182MOL0     H24551   4.048  11.321   6.549  2.6217  1.1496  0.2660
  182MOL0     H24552   4.420  11.360   6.244 -3.4399  1.9426  2.5862
  182MOL0     H24553   4.641  11.242   6.231 -1.7905  1.7349 -1.8180
  182MOL0     H24554   4.237  11.509   5.681  0.7844 -2.0867  1.9764
  182MOL0     H24555   4.061  11.444   5.517  0.1799  0.8741  2.6232
  182MOL0     H24556   3.730  11.302   5.407 -2.5322 -0.3615  0.1700
  182MOL0     H24557   3.558  11.137   5.364  0.4546 -0.9773 -1.2627
  182MOL0     H24558   3.700  10.781   5.237 -0.0238  0.5100 -0.5871
  182MOL0     H24559   3.614  10.771   5.087 -1.3721 -0.2258  0.0590
  182MOL0     H24560   3.547  10.615   5.238 -2.2619 -1.7098 -1.3560
  182MOL0     H24561   3.403  10.689   5.203 -0.0956 -2.5340  1.5567
  182MOL0     H24562   3.373  10.806   5.390  3.2779  3.7727 -2.4242
  182MOL0     H24563   3.540  10.781   5.455 -0.4185 -0.1538  1.6341
  182MOL0     H24564   3.468  10.525   5.476  0.6486  0.5640 -0.5093
  182MOL0     H24565   3.364  10.629   5.572 -1.2998  1.8794 -0.9016
  182MOL0     H24566   3.068  10.493   5.331  1.9390 -1.4467 -1.8748
  182MOL0     H24567   3.809  10.926   5.112 -0.5646 -1.3159  2.1763
  182MOL0     H24568   4.113  11.098   5.158  0.7153  1.2720 -0.4639
  182MOL0     H24569   4.004  11.031   5.021  0.5697 -0.8252  1.3862
  182MOL0     H24570   4.048  11.196   5.028  1.1269 -1.6427 -2.7566
  183MOL0     O24571   8.347   3.624   1.098  0.3384  0.9639 -0.0600
  183MOL0     C24572   8.304   3.715   1.031  0.4101 -0.1454 -1.1816
  183MOL0     O24573   8.368   3.797   0.946  0.1121 -0.0729  0.3615
  183MOL0     C24574   8.497   3.792   0.922  0.9410 -0.7174  0.5393
  183MOL0     C24575   8.588   3.875   0.992 -0.1033  1.0834  0.5410
  183MOL0     C24576   8.727   3.866   0.956  0.7728 -0.8817 -0.1376
  183MOL0     C24577   8.771   3.759   0.879  0.6520  0.0095  0.7439
  183MOL0     O24578   8.907   3.750   0.867 -0.6737  0.0285 -0.1815
  183MOL0     C24579   8.962   3.615   0.878 -0.3370  0.1406 -0.4713
  183MOL0     C24580   9.112   3.613   0.912 -0.5651 -0.4388 -0.0152
  183MOL0     C24581   9.147   3.698   1.042  0.7560 -0.1026 -0.3947
  183MOL0     C24582   9.305   3.687   1.066  1.3987  0.0462  0.0427
  183MOL0     C24583   9.338   3.763   1.194 -0.8159  0.5439 -1.3601
  183MOL0     C24584   9.341   3.903   1.169  0.5838 -0.3140  0.8269
  183MOL0     C24585   9.380   3.988   1.285  0.5025 -0.3083  0.0763
  183MOL0     C24586   9.532   3.997   1.275  0.8113 -0.1897 -0.4455
  183MOL0     N24587   9.593   4.026   1.409 -0.5506 -0.3417 -0.6758
  183MOL0     C24588   9.681   3.951   1.481 -0.3719  0.6646 -0.7415
  183MOL0     C24589   9.697   4.031   1.596  0.0212  0.2153 -0.3873
  183MOL0     C24590   9.792   3.992   1.709  0.7361  0.3204 -0.2250
  183MOL0     C24591   9.833   4.103   1.798 -0.1138 -0.9388 -0.2734
  183MOL0     C24592   9.904   4.043   1.917  0.6403 -0.7874 -0.4967
  183MOL0     C24593   9.988   4.141   1.991 -0.7263  0.0386 -0.2461
  183MOL0     O24594   9.887   4.243   2.043 -0.0551  0.3242 -0.4310
  183MOL0     C24595   9.927   4.316   2.146 -0.3421 -0.1398 -0.9419
  183MOL0     C24596  10.059   4.340   2.169 -0.6488 -1.0084 -0.5649
  183MOL0     C24597  10.086   4.432   2.275  0.1013  0.1060 -0.0823
  183MOL0     C24598   9.990   4.495   2.350  0.2236 -0.6218 -1.3458
  183MOL0     C24599  10.029   4.590   2.457 -0.2569 -0.3079  0.3590
  183MOL0     O24600  10.161   4.613   2.481 -0.1651  0.2397 -0.9515
  183MOL0     C24601  10.189   4.680   2.599  0.0526  0.5558 -0.2653
  183MOL0     C24602  10.163   4.812   2.610 -0.2849  0.0902 -0.1974
  183MOL0     C24603  10.191   4.883   2.731  0.3910  0.5656  0.1349
  183MOL0     C24604  10.247   4.817   2.840  0.0212 -0.6611  0.2861
  183MOL0     O24605  10.275   4.885   2.954 -0.3265 -0.5389  0.0767
  183MOL0     C24606  10.328   4.811   3.066  0.1267 -0.2029 -0.3726
  183MOL0     C24607  10.339   4.898   3.196  0.1742  0.3177 -0.1375
  183MOL0     C24608  10.417   5.030   3.170  0.2310  0.3614  0.3001
  183MOL0     C24609  10.363   5.140   3.260 -1.0236  0.2154 -0.4078
  183MOL0     C24610  10.464   5.254   3.276  0.4668 -0.8178 -0.6698
  183MOL0     C24611  10.608   5.212   3.306  1.0597 -0.2366 -0.2229
  183MOL0     C24612  10.691   5.331   3.362 -0.2141 -0.6701 -0.2298
  183MOL0     C24613  10.816   5.282   3.435 -0.1964  1.3463  0.7523
  183MOL0    Cl24614  10.884   5.406   3.558  0.7621  0.3947 -0.0327
  183MOL0     C24615  10.265   4.678   2.824 -0.3049  0.1054 -0.0232
  183MOL0     C24616  10.247   4.608   2.708 -0.8849  0.6336  0.1059
  183MOL0     O24617   9.937   4.627   2.529 -0.3206  0.2327  0.2867
  183MOL0     C24618   9.851   4.462   2.316  0.1967 -0.6224  0.1977
  183MOL0     C24619   9.825   4.376   2.217 -0.0333 -0.9092  0.5295
  183MOL0     N24620   9.630   4.149   1.586 -0.0883 -0.2026 -0.1966
  183MOL0     N24621   9.560   4.143   1.475 -0.8473 -0.2759 -0.4254
  183MOL0     C24622   8.684   3.688   0.801  1.0093  0.2239 -0.1843
  183MOL0     C24623   8.547   3.703   0.825 -0.0119  0.2984 -0.9846
  183MOL0     C24624   8.164   3.773   1.061  0.2380 -0.0067 -0.0293
  183MOL0     C24625   8.141   3.909   1.031  0.0905  0.6245 -1.4388
  183MOL0     C24626   8.020   3.960   1.070 -0.1665 -0.6695 -0.1811
  183MOL0     C24627   7.919   3.885   1.128 -0.2798 -1.1518  0.4965
  183MOL0     O24628   7.795   3.935   1.157  0.7585 -0.2358  0.3221
  183MOL0     C24629   7.709   3.990   1.046 -0.9931  0.3423 -1.4310
  183MOL0     C24630   7.645   4.126   1.082 -0.1324  0.7993 -0.1150
  183MOL0     C24631   7.572   4.204   0.973 -0.5176  0.5041 -1.0987
  183MOL0     C24632   7.520   4.346   1.027 -0.2725  0.8063 -0.2988
  183MOL0     C24633   7.618   4.450   1.035 -1.5864  1.4415  0.1041
  183MOL0     C24634   7.679   4.552   1.046  0.5441 -0.8230  0.1860
  183MOL0     C24635   7.942   3.751   1.151 -0.6884 -0.0256  0.0763
  183MOL0     C24636   8.062   3.694   1.122  0.8868 -0.1930 -0.2248
  183MOL0     C24637   8.077   3.545   1.137  0.0912 -0.7189 -0.2144
  183MOL0     H24638   8.543   3.949   1.058 -0.3124  0.4777  1.0846
  183MOL0     H24639   8.808   3.927   0.994  1.8081 -3.1202  1.4991
  183MOL0     H24640   8.904   3.572   0.961 -1.0189 -0.1604 -1.0984
  183MOL0     H24641   8.940   3.549   0.793  0.3930 -2.6703  1.3688
  183MOL0     H24642   9.167   3.645   0.823  1.6723  0.6517  1.6392
  183MOL0     H24643   9.148   3.511   0.929 -0.9518 -0.6216 -0.2854
  183MOL0     H24644   9.087   3.662   1.126  2.6756 -2.1103  0.1931
  183MOL0     H24645   9.111   3.798   1.013 -0.3364 -0.2470  0.4083
  183MOL0     H24646   9.332   3.582   1.077  1.7793  0.4599  5.0337
  183MOL0     H24647   9.362   3.724   0.980 -0.3391 -3.0497 -2.6704
  183MOL0     H24648   9.262   3.739   1.270 -1.6568  1.4060 -1.9051
  183MOL0     H24649   9.435   3.732   1.233 -0.7999  1.5132 -0.6109
  183MOL0     H24650   9.396   3.923   1.076  0.3846  0.7696  0.9252
  183MOL0     H24651   9.238   3.931   1.143  0.8170 -0.8212 -0.7391
  183MOL0     H24652   9.371   3.941   1.383  1.3994  0.2542  0.4472
  183MOL0     H24653   9.327   4.084   1.285 -0.7429 -0.9302 -1.8030
  183MOL0     H24654   9.572   3.906   1.231  0.7021  0.2548 -1.5021
  183MOL0     H24655   9.571   4.065   1.198  6.0109 -0.6321  1.4594
  183MOL0     H24656   9.695   3.844   1.473 -1.3326  0.4241  0.4021
  183MOL0     H24657   9.737   3.920   1.769  0.0254 -1.9757 -3.3866
  183MOL0     H24658   9.880   3.947   1.661 -0.4425 -1.3163 -0.9382
  183MOL0     H24659   9.905   4.164   1.741 -0.8150  0.1370 -0.0473
  183MOL0     H24660   9.745   4.157   1.836 -2.2649 -4.7336  0.6203
  183MOL0     H24661   9.964   3.953   1.901  0.1143 -1.5935  1.7668
  183MOL0     H24662   9.833   4.009   1.993  0.0522 -2.2496 -1.6483
  183MOL0     H24663  10.063   4.184   1.925  1.0590 -1.2533  0.8485
  183MOL0     H24664  10.047   4.097   2.072  0.6999 -0.7089 -1.6322
  183MOL0     H24665  10.140   4.297   2.111  0.2970 -0.6368  0.4451
  183MOL0     H24666  10.188   4.448   2.309 -0.2515  3.4169 -0.2240
  183MOL0     H24667  10.132   4.865   2.521 -0.9173  1.4277  0.7888
  183MOL0     H24668  10.160   4.985   2.751 -4.1514 -0.9404  2.1499
  183MOL0     H24669  10.273   4.725   3.103  1.1388  0.2628  2.4497
  183MOL0     H24670  10.430   4.780   3.040  0.1636  0.9589 -1.7412
  183MOL0     H24671  10.240   4.935   3.226  0.8276  3.5526 -1.4887
  183MOL0     H24672  10.382   4.833   3.272 -1.5108 -0.1071  0.4980
  183MOL0     H24673  10.519   4.998   3.193  0.2676 -0.1668 -0.5626
  183MOL0     H24674  10.419   5.067   3.067  0.0976  1.2292  0.6072
  183MOL0     H24675  10.351   5.107   3.364 -1.6327  0.7271 -0.3068
  183MOL0     H24676  10.266   5.176   3.225 -0.8772  0.8824 -0.1393
  183MOL0     H24677  10.428   5.326   3.350 -0.8026 -2.1463  0.0556
  183MOL0     H24678  10.459   5.306   3.180  0.5165 -1.7538 -1.1977
  183MOL0     H24679  10.596   5.123   3.368  2.0450 -3.3567 -4.1239
  183MOL0     H24680  10.652   5.185   3.210 -0.9294 -0.8207 -1.0221
  183MOL0     H24681  10.637   5.394   3.433  0.2367 -2.2532  1.6096
  183MOL0     H24682  10.708   5.397   3.277 -0.5199 -1.1705 -0.6860
  183MOL0     H24683  10.778   5.209   3.507 -0.9433  1.1196  0.1432
  183MOL0     H24684  10.894   5.233   3.377  0.1079 -0.4834  2.5965
  183MOL0     H24685  10.291   4.617   2.910 -0.4350 -1.0145 -0.7642
  183MOL0     H24686  10.244   4.500   2.701 -4.0506  0.7348 -2.8980
  183MOL0     H24687   9.767   4.516   2.358  0.5286  0.3312 -0.3094
  183MOL0     H24688   9.721   4.353   2.200 -0.7510  0.1626  3.0165
  183MOL0     H24689   8.730   3.622   0.728 -1.6754 -1.1691 -0.7128
  183MOL0     H24690   8.471   3.639   0.782  0.1949 -0.6635  0.0444
  183MOL0     H24691   8.221   3.959   0.977  0.5719  1.1817 -0.2266
  183MOL0     H24692   7.988   4.061   1.048 -1.6947 -0.8433  1.0829
  183MOL0     H24693   7.628   3.923   1.014 -0.2189 -1.3755  0.0088
  183MOL0     H24694   7.779   4.019   0.967  0.7931  1.2282  0.3771
  183MOL0     H24695   7.730   4.180   1.125  0.4953  0.2170 -0.5842
  183MOL0     H24696   7.585   4.111   1.171  0.6024 -0.0691  0.2529
  183MOL0     H24697   7.486   4.145   0.939 -0.3065  0.2835 -1.2470
  183MOL0     H24698   7.635   4.228   0.887 -1.5205  0.8163 -1.7654
  183MOL0     H24699   7.443   4.385   0.961 -1.2103  0.5935  0.6380
  183MOL0     H24700   7.462   4.347   1.120  0.6343  2.4133  0.2987
  183MOL0     H24701   7.744   4.638   1.049  0.2365 -0.6034  2.6659
  183MOL0     H24702   7.858   3.699   1.197 -1.8365  1.5933 -0.0983
  183MOL0     H24703   8.110   3.503   1.042  1.3297  3.1720 -1.6860
  183MOL0     H24704   8.154   3.522   1.212  2.3424  1.8342 -1.5739
  183MOL0     H24705   7.982   3.509   1.177 -0.4249 -0.0933 -0.8579
  184MOL0     O24706   5.761   4.276   7.266 -0.3437 -0.0797  0.6198
  184MOL0     C24707   5.827   4.252   7.165  0.0243  0.1543 -0.0747
  184MOL0     O24708   5.877   4.353   7.078  0.0257 -0.7511 -0.3750
  184MOL0     C24709   5.857   4.493   7.095  0.6662  0.0872  0.8355
  184MOL0     C24710   5.810   4.567   6.991  0.0546 -0.3217 -0.4714
  184MOL0     C24711   5.774   4.703   7.011  0.0072  0.0740 -0.4919
  184MOL0     C24712   5.784   4.760   7.136  0.0255  0.3846 -0.5050
  184MOL0     O24713   5.754   4.888   7.176 -0.3284  0.4280 -0.7026
  184MOL0     C24714   5.731   4.981   7.065  0.0838  0.0302  0.7296
  184MOL0     C24715   5.869   5.011   7.003 -0.4874  0.0314  0.5083
  184MOL0     C24716   5.911   5.157   6.941  0.3509  0.0980 -0.6342
  184MOL0     C24717   5.815   5.263   6.999  0.2927  0.3156  0.3803
  184MOL0     C24718   5.832   5.395   6.926 -0.6066  0.0767 -0.3736
  184MOL0     C24719   5.969   5.461   6.968  0.5794  0.2974  0.7201
  184MOL0     C24720   5.964   5.616   6.952 -0.8002  0.5461 -0.3049
  184MOL0     C24721   5.931   5.667   6.817  0.1665 -0.5205 -0.6413
  184MOL0     N24722   5.923   5.815   6.823  0.2847 -0.1156  0.5592
  184MOL0     C24723   6.024   5.908   6.831  0.2581  0.3759 -0.1652
  184MOL0     C24724   5.958   6.028   6.827 -0.2664  0.2409 -0.0423
  184MOL0     C24725   6.020   6.161   6.810 -0.3777  0.2868  0.3266
  184MOL0     C24726   5.969   6.246   6.701  0.1538 -0.4016 -0.0688
  184MOL0     C24727   6.065   6.364   6.686 -0.1530  0.0821 -0.1962
  184MOL0     C24728   6.114   6.390   6.541  0.5184  0.1986 -0.0518
  184MOL0     O24729   6.209   6.284   6.492  0.4105 -0.6570  0.3300
  184MOL0     C24730   6.341   6.305   6.493 -0.8702  0.0219  1.4362
  184MOL0     C24731   6.417   6.226   6.410 -0.9449  0.6289 -0.2856
  184MOL0     C24732   6.558   6.246   6.389 -0.0363 -0.6695 -0.4090
  184MOL0     C24733   6.622   6.343   6.471  0.7866  0.5294 -0.2582
  184MOL0     C24734   6.764   6.365   6.450 -0.5569  0.3234  0.5961
  184MOL0     O24735   6.826   6.274   6.372  0.4747 -0.0804 -0.0248
  184MOL0     C24736   6.959   6.240   6.386  0.4858 -0.6393 -0.7881
  184MOL0     C24737   7.058   6.337   6.425  0.1027 -0.1496  0.3000
  184MOL0     C24738   7.188   6.297   6.450 -0.5233  0.5069 -0.1393
  184MOL0     C24739   7.218   6.158   6.447 -0.1218 -1.0719  0.0690
  184MOL0     O24740   7.330   6.105   6.504 -0.1955 -0.2821  0.7496
  184MOL0     C24741   7.444   6.199   6.513 -0.7866  0.0599 -0.0564
  184MOL0     C24742   7.566   6.115   6.503 -0.4498  0.0559 -0.0433
  184MOL0     C24743   7.589   6.043   6.364  0.3121 -0.2205 -0.0102
  184MOL0     C24744   7.722   6.075   6.292  0.8090  0.1910 -0.9658
  184MOL0     C24745   7.744   6.014   6.154 -0.6105  1.5130 -0.1372
  184MOL0     C24746   7.890   6.036   6.109 -0.1727 -0.8179 -0.3332
  184MOL0     C24747   7.930   6.186   6.073 -0.2449 -0.1795  1.2792
  184MOL0     C24748   7.988   6.249   6.197 -0.3719 -0.4294 -0.7303
  184MOL0    Cl24749   8.144   6.171   6.228 -0.0895 -0.3765  0.3267
  184MOL0     C24750   7.117   6.067   6.397 -0.0521 -1.3033 -0.2824
  184MOL0     C24751   6.987   6.106   6.367 -0.0038 -1.0001 -0.3436
  184MOL0     O24752   6.819   6.443   6.521 -1.3160  0.2442 -0.0886
  184MOL0     C24753   6.549   6.413   6.570  0.0532 -0.4966  0.2122
  184MOL0     C24754   6.411   6.391   6.576  0.5910  0.1347 -0.3294
  184MOL0     N24755   5.825   6.008   6.821  1.0236 -0.5899  0.3494
  184MOL0     N24756   5.804   5.878   6.809  0.1737 -1.1591 -0.1184
  184MOL0     C24757   5.841   4.684   7.230 -1.7620 -0.2375 -0.3517
  184MOL0     C24758   5.879   4.555   7.211 -0.5429 -0.2763  0.6159
  184MOL0     C24759   5.878   4.111   7.133 -0.0866 -0.5047 -0.4834
  184MOL0     C24760   5.925   4.091   7.002 -0.5784 -0.2142 -0.5214
  184MOL0     C24761   5.955   3.964   6.960  0.2272  0.0297 -0.5447
  184MOL0     C24762   5.941   3.859   7.041  0.0483 -0.7734 -0.2373
  184MOL0     O24763   5.956   3.727   7.003 -0.5328  0.1160 -0.2253
  184MOL0     C24764   6.031   3.699   6.878 -0.0656  0.0684 -0.3557
  184MOL0     C24765   5.963   3.705   6.742  0.3001 -0.4030 -0.4550
  184MOL0     C24766   5.817   3.654   6.744 -0.3378 -0.3213  1.0003
  184MOL0     C24767   5.797   3.514   6.803  0.2618 -0.1054  0.1329
  184MOL0     C24768   5.859   3.412   6.715 -0.2549  0.2324 -0.4378
  184MOL0     C24769   5.914   3.323   6.648  0.1646 -0.3399  0.0301
  184MOL0     C24770   5.907   3.883   7.168 -0.2301 -0.1693 -0.4104
  184MOL0     C24771   5.886   4.009   7.229 -0.9971  0.4054  0.3941
  184MOL0     C24772   5.855   4.040   7.378  0.0107  0.1570  0.0964
  184MOL0     H24773   5.815   4.547   6.884 -0.1175 -1.0998 -0.3358
  184MOL0     H24774   5.737   4.755   6.923 -3.3929 -0.4140  0.4821
  184MOL0     H24775   5.659   4.940   6.993  1.0621 -0.7394  0.1542
  184MOL0     H24776   5.685   5.072   7.104 -1.4710 -0.1913 -0.4877
  184MOL0     H24777   5.885   4.931   6.930 -1.5229 -0.7141  1.0631
  184MOL0     H24778   5.940   4.980   7.081 -1.3476 -2.0797  0.5421
  184MOL0     H24779   5.903   5.157   6.832 -1.8704  3.8955 -0.6562
  184MOL0     H24780   6.018   5.171   6.957  0.3600  0.2228 -0.7970
  184MOL0     H24781   5.714   5.228   6.976  1.2941 -3.2502  0.8323
  184MOL0     H24782   5.817   5.269   7.108 -0.0286 -0.3140  0.4241
  184MOL0     H24783   5.833   5.379   6.818 -0.2281 -2.8259 -0.0424
  184MOL0     H24784   5.746   5.452   6.961  0.9223  0.4565  3.2924
  184MOL0     H24785   5.988   5.437   7.073 -1.3363 -1.7707  0.6738
  184MOL0     H24786   6.054   5.420   6.913  0.1109  0.2610  0.0150
  184MOL0     H24787   6.069   5.641   6.966 -0.2058 -1.2422 -1.2855
  184MOL0     H24788   5.901   5.666   7.026 -1.3661  1.2081 -1.2167
  184MOL0     H24789   6.012   5.632   6.751  0.6366  1.5258 -1.2073
  184MOL0     H24790   5.835   5.618   6.798 -0.2000  0.5167 -1.5278
  184MOL0     H24791   6.126   5.871   6.834  0.3807  0.6001 -1.1249
  184MOL0     H24792   6.016   6.215   6.905  2.1773 -0.7812  1.1123
  184MOL0     H24793   6.127   6.144   6.793 -0.6351 -1.4391  0.2812
  184MOL0     H24794   5.978   6.194   6.605  2.8941  2.7272 -1.6995
  184MOL0     H24795   5.866   6.275   6.725  0.9899  0.8875  2.3427
  184MOL0     H24796   6.150   6.369   6.754  0.1057  0.2664 -0.5335
  184MOL0     H24797   6.007   6.454   6.707  0.3350  0.0319  1.4634
  184MOL0     H24798   6.168   6.485   6.549  0.6459  0.1146  0.0999
  184MOL0     H24799   6.027   6.393   6.475  1.1127  3.1366 -0.8359
  184MOL0     H24800   6.364   6.147   6.359  1.7851 -1.3208 -0.2540
  184MOL0     H24801   6.601   6.178   6.316  2.2990 -0.7504  0.9631
  184MOL0     H24802   7.034   6.443   6.428 -2.7201 -0.3800 -4.2146
  184MOL0     H24803   7.266   6.368   6.474 -2.2240  2.3346  0.2613
  184MOL0     H24804   7.452   6.261   6.424 -0.2321 -3.0222 -2.3009
  184MOL0     H24805   7.451   6.260   6.603  0.6166  4.5170 -2.8829
  184MOL0     H24806   7.657   6.175   6.511  1.8858 -3.0516 -1.0991
  184MOL0     H24807   7.574   6.036   6.579  1.2130  0.2346  0.0119
  184MOL0     H24808   7.577   5.935   6.377 -1.2167  0.0452  1.1071
  184MOL0     H24809   7.510   6.079   6.298  0.0960 -2.4288 -1.0547
  184MOL0     H24810   7.805   6.055   6.361  0.1361 -0.5046 -0.3434
  184MOL0     H24811   7.708   6.183   6.279 -2.6663 -0.0780 -0.2511
  184MOL0     H24812   7.669   6.061   6.090 -1.5053  1.4483  0.8431
  184MOL0     H24813   7.725   5.907   6.167 -3.3508  1.4935 -3.0017
  184MOL0     H24814   7.948   6.006   6.196 -1.1321 -1.9028 -0.0370
  184MOL0     H24815   7.910   5.977   6.019 -1.1540 -1.3905 -0.1933
  184MOL0     H24816   7.839   6.243   6.052  1.4413  2.2148  0.0415
  184MOL0     H24817   7.993   6.191   5.984 -0.1955 -0.0761  1.3209
  184MOL0     H24818   8.010   6.354   6.179  0.7366 -0.5837 -0.3558
  184MOL0     H24819   7.914   6.237   6.277 -2.4308 -1.7325 -2.7042
  184MOL0     H24820   7.133   5.960   6.403 -0.2548 -1.2575  3.8152
  184MOL0     H24821   6.902   6.043   6.344  0.6905 -3.3328  2.8419
  184MOL0     H24822   6.579   6.494   6.636  1.2602  0.2871 -1.2083
  184MOL0     H24823   6.354   6.453   6.645 -1.1530 -1.3994 -0.2971
  184MOL0     H24824   5.869   4.734   7.322  0.9901  1.1570 -1.8322
  184MOL0     H24825   5.926   4.492   7.286  0.1706 -0.6353 -0.1240
  184MOL0     H24826   5.921   4.180   6.940 -0.7235  2.0573  2.5153
  184MOL0     H24827   5.978   3.957   6.854  2.1506  2.5317 -0.4001
  184MOL0     H24828   6.076   3.600   6.894 -0.6539  0.1068  1.8945
  184MOL0     H24829   6.121   3.761   6.875 -0.1950  0.7176  3.8645
  184MOL0     H24830   6.026   3.640   6.682  0.2327  1.1897 -2.3705
  184MOL0     H24831   5.973   3.806   6.701  2.6326 -1.0143 -1.5169
  184MOL0     H24832   5.771   3.644   6.645 -0.9407  1.5537  1.0541
  184MOL0     H24833   5.753   3.728   6.792 -0.6911  1.0112 -1.3445
  184MOL0     H24834   5.836   3.499   6.904 -1.3276  1.8522  1.1112
  184MOL0     H24835   5.690   3.496   6.814 -0.4076  0.8569 -3.6085
  184MOL0     H24836   5.969   3.255   6.585 -0.9500 -0.8864 -0.3891
  184MOL0     H24837   5.901   3.790   7.223  0.0422 -0.1776 -0.3917
  184MOL0     H24838   5.753   4.070   7.403  0.8115  2.4197  0.9220
  184MOL0     H24839   5.873   3.948   7.435 -1.5036  0.2274  0.7472
  184MOL0     H24840   5.911   4.124   7.420 -1.1626  0.2637  1.5520
  185MOL0     O24841   3.739   8.384   0.270 -0.4516  0.5678  0.5856
  185MOL0     C24842   3.720   8.394   0.153 -0.1779 -0.6067  0.7530
  185MOL0     O24843   3.816   8.392   0.048  0.3356  0.0527  0.1138
  185MOL0     C24844   3.948   8.403   0.080 -0.1955 -0.1193  0.4105
  185MOL0     C24845   4.047   8.372  -0.009  0.2626 -0.2611  0.3300
  185MOL0     C24846   4.182   8.368   0.022  0.0277 -0.1411 -0.7778
  185MOL0     C24847   4.231   8.420   0.137  0.3210  0.5837  0.0006
  185MOL0     O24848   4.365   8.417   0.173 -0.1864 -0.2666 -0.1082
  185MOL0     C24849   4.437   8.292   0.173  0.5436  0.8693  1.1723
  185MOL0     C24850   4.594   8.301   0.213  0.5550 -0.1655 -0.6104
  185MOL0     C24851   4.665   8.408   0.122  0.3779 -0.6061  0.5554
  185MOL0     C24852   4.665   8.388  -0.032  0.1436  0.0711  0.0422
  185MOL0     C24853   4.773   8.281  -0.063  0.3896  0.1438  0.0583
  185MOL0     C24854   4.762   8.268  -0.216 -1.2593 -0.0153 -0.4616
  185MOL0     C24855   4.892   8.205  -0.269  1.4940  0.3551 -0.4611
  185MOL0     C24856   5.013   8.301  -0.274 -0.6190  0.5313  0.9608
  185MOL0     N24857   5.111   8.256  -0.374  0.0718  0.3096 -0.3971
  185MOL0     C24858   5.199   8.153  -0.367 -1.2188 -0.9120 -1.3564
  185MOL0     C24859   5.269   8.142  -0.487  0.3238  0.3598 -0.1170
  185MOL0     C24860   5.370   8.036  -0.528  0.9744  0.3162  0.7980
  185MOL0     C24861   5.475   8.069  -0.636  0.5361  0.7988  0.2060
  185MOL0     C24862   5.412   8.046  -0.766  0.0026  0.3551  0.0777
  185MOL0     C24863   5.520   8.088  -0.872  1.0184  0.0768 -0.3355
  185MOL0     O24864   5.482   8.041  -1.004 -0.3632  0.4481  0.2332
  185MOL0     C24865   5.494   7.908  -1.050  0.5149 -0.0398 -1.0219
  185MOL0     C24866   5.465   7.903  -1.187  0.8738 -0.0418  0.0271
  185MOL0     C24867   5.467   7.785  -1.258  1.4160 -0.5212 -0.3778
  185MOL0     C24868   5.479   7.660  -1.186  0.0983  0.3379 -0.0100
  185MOL0     C24869   5.472   7.532  -1.248  0.4125  0.4576 -0.2995
  185MOL0     O24870   5.439   7.517  -1.384 -0.1481  0.1584  0.9875
  185MOL0     C24871   5.453   7.393  -1.437 -0.0034  0.0104  0.5716
  185MOL0     C24872   5.375   7.279  -1.394 -0.1952 -0.7408 -0.7065
  185MOL0     C24873   5.375   7.154  -1.452 -0.0224  0.0237  1.5683
  185MOL0     C24874   5.457   7.137  -1.574  0.1930 -0.3947  0.9877
  185MOL0     O24875   5.482   7.027  -1.646 -0.2106  0.1341 -0.4828
  185MOL0     C24876   5.415   6.908  -1.606 -0.8798  0.3784 -0.7038
  185MOL0     C24877   5.384   6.812  -1.720  0.5088 -0.8912 -0.6076
  185MOL0     C24878   5.509   6.771  -1.805 -0.7166  0.4326 -0.1171
  185MOL0     C24879   5.505   6.626  -1.818 -0.0894  0.5224 -1.1950
  185MOL0     C24880   5.593   6.565  -1.920  0.2643 -0.2694 -0.6284
  185MOL0     C24881   5.566   6.623  -2.057 -1.2793 -0.6898  0.9730
  185MOL0     C24882   5.558   6.523  -2.174  0.0535 -0.7364  0.2757
  185MOL0     C24883   5.533   6.606  -2.296 -0.4479 -0.1110  0.7481
  185MOL0    Cl24884   5.587   6.516  -2.442  0.5575 -0.5833 -0.2731
  185MOL0     C24885   5.538   7.246  -1.606  1.2483  0.6724  0.1080
  185MOL0     C24886   5.535   7.369  -1.544 -0.2160 -0.0471  0.4475
  185MOL0     O24887   5.496   7.430  -1.181  0.6783  0.0342 -0.2362
  185MOL0     C24888   5.510   7.666  -1.056  0.6291  0.9107  0.3240
  185MOL0     C24889   5.505   7.783  -0.981 -0.2382 -0.3469 -0.3128
  185MOL0     N24890   5.208   8.235  -0.570 -0.1288  0.5199 -0.5113
  185MOL0     N24891   5.113   8.297  -0.506  0.1755  0.1580 -0.0975
  185MOL0     C24892   4.138   8.478   0.227 -0.2924  0.8577 -1.1827
  185MOL0     C24893   3.997   8.473   0.199  0.0111 -0.1714 -0.2193
  185MOL0     C24894   3.581   8.404   0.112 -0.2343 -0.0454 -0.1281
  185MOL0     C24895   3.539   8.501   0.023  0.4375 -0.0652  0.9914
  185MOL0     C24896   3.407   8.514  -0.022 -0.2603 -0.1416  0.6468
  185MOL0     C24897   3.310   8.432   0.035 -0.3431  0.2251 -0.9691
  185MOL0     O24898   3.177   8.445  -0.001 -0.5799 -0.0183 -0.4927
  185MOL0     C24899   3.086   8.430   0.101 -0.3519  0.4637 -0.1638
  185MOL0     C24900   2.988   8.330   0.045 -0.9881 -0.2199  0.5777
  185MOL0     C24901   2.865   8.301   0.132 -1.0503 -0.7085 -0.4917
  185MOL0     C24902   2.730   8.315   0.068 -0.2669  0.6611 -0.9208
  185MOL0     C24903   2.684   8.447   0.081 -0.1999 -0.2895  1.0260
  185MOL0     C24904   2.648   8.558   0.115  0.3046 -0.8552  0.0311
  185MOL0     C24905   3.353   8.327   0.115 -0.0808  0.4680  0.6043
  185MOL0     C24906   3.487   8.307   0.155  0.2823 -0.6719 -0.6690
  185MOL0     C24907   3.535   8.188   0.244  0.6646  0.0239 -0.3030
  185MOL0     H24908   4.029   8.342  -0.112  0.4760  2.4017 -0.5865
  185MOL0     H24909   4.242   8.325  -0.058  1.6014 -0.3002  0.4559
  185MOL0     H24910   4.396   8.218   0.242 -0.2010 -0.2624 -0.4156
  185MOL0     H24911   4.432   8.243   0.076  1.4337 -0.4312  1.7703
  185MOL0     H24912   4.643   8.204   0.203 -0.0224 -1.1401  3.7783
  185MOL0     H24913   4.614   8.319   0.319  0.8923 -1.9442 -0.3360
  185MOL0     H24914   4.771   8.427   0.142  0.1522  1.0976  0.2806
  185MOL0     H24915   4.610   8.501   0.140 -0.9986 -2.0357  5.5276
  185MOL0     H24916   4.570   8.347  -0.068  1.9922 -2.9063 -1.9072
  185MOL0     H24917   4.687   8.485  -0.078 -3.8004  1.3537  0.5339
  185MOL0     H24918   4.868   8.322  -0.027 -0.6719  0.1465  3.1492
  185MOL0     H24919   4.750   8.187  -0.013 -1.8121 -0.4773 -1.9571
  185MOL0     H24920   4.673   8.208  -0.240 -1.6219  0.7705 -1.1631
  185MOL0     H24921   4.744   8.366  -0.262 -1.2442 -0.2246 -0.9127
  185MOL0     H24922   4.868   8.168  -0.369 -0.9462 -1.9654  0.8519
  185MOL0     H24923   4.910   8.119  -0.205  3.0820  3.3979  3.5998
  185MOL0     H24924   4.995   8.407  -0.294  1.1894  0.4773 -1.4842
  185MOL0     H24925   5.061   8.294  -0.176  0.7133 -1.0880  0.2467
  185MOL0     H24926   5.212   8.083  -0.286  0.2255 -0.3499 -1.0728
  185MOL0     H24927   5.419   7.991  -0.441  0.0618  1.4192  1.9144
  185MOL0     H24928   5.308   7.963  -0.579  2.4027 -0.2404 -0.2237
  185MOL0     H24929   5.508   8.173  -0.620 -1.1777  1.0989  2.2103
  185MOL0     H24930   5.557   7.997  -0.629 -1.9829 -2.1007  2.5039
  185MOL0     H24931   5.320   8.102  -0.778  0.0210  1.3183  3.4082
  185MOL0     H24932   5.385   7.941  -0.779 -0.2234  0.5624 -1.2285
  185MOL0     H24933   5.621   8.051  -0.850  1.1398 -1.2330 -2.7163
  185MOL0     H24934   5.498   8.195  -0.868 -0.2151 -0.1577  4.0734
  185MOL0     H24935   5.445   7.996  -1.238 -3.4749 -0.9919 -0.4096
  185MOL0     H24936   5.448   7.781  -1.365  0.0998  0.7696 -0.2132
  185MOL0     H24937   5.302   7.289  -1.315  1.7491 -1.1927  1.2372
  185MOL0     H24938   5.311   7.077  -1.410 -2.7598 -0.3557 -2.6599
  185MOL0     H24939   5.484   6.851  -1.543 -1.2294 -0.7601 -1.3087
  185MOL0     H24940   5.326   6.932  -1.547 -1.7010  2.1700 -2.5546
  185MOL0     H24941   5.341   6.722  -1.676 -0.0916 -0.4166 -0.1971
  185MOL0     H24942   5.312   6.863  -1.785 -0.6386  2.0251  2.6123
  185MOL0     H24943   5.508   6.825  -1.900 -0.9112  1.3923  0.4210
  185MOL0     H24944   5.604   6.798  -1.759  1.1531 -2.1073 -2.1970
  185MOL0     H24945   5.401   6.603  -1.843 -0.3226  1.0644 -0.7409
  185MOL0     H24946   5.521   6.559  -1.733 -1.1430 -3.1149 -3.6131
  185MOL0     H24947   5.587   6.456  -1.920  0.6170 -0.2964 -2.0097
  185MOL0     H24948   5.696   6.584  -1.890  0.2106 -0.3585 -0.3836
  185MOL0     H24949   5.470   6.676  -2.062 -1.9017 -1.8961 -0.8810
  185MOL0     H24950   5.641   6.700  -2.074 -1.5611 -1.1365 -3.6662
  185MOL0     H24951   5.471   6.460  -2.155  0.0443 -0.8512 -0.1395
  185MOL0     H24952   5.644   6.456  -2.189 -0.8921 -1.5413 -1.9767
  185MOL0     H24953   5.425   6.629  -2.297 -0.5855 -0.6509  1.9035
  185MOL0     H24954   5.596   6.695  -2.298  0.7401 -0.9568 -0.2079
  185MOL0     H24955   5.594   7.252  -1.699 -1.0746 -1.3328 -1.5413
  185MOL0     H24956   5.591   7.447  -1.593  0.7786 -1.6208 -1.0687
  185MOL0     H24957   5.526   7.572  -1.005  2.0946  1.1273  0.3173
  185MOL0     H24958   5.523   7.777  -0.874 -1.8992 -2.6776 -0.0889
  185MOL0     H24959   4.156   8.528   0.321 -5.6301  4.2390 -1.5039
  185MOL0     H24960   3.929   8.541   0.251  1.3863 -0.5677  2.2547
  185MOL0     H24961   3.616   8.559  -0.026 -1.3380  2.1970  0.7079
  185MOL0     H24962   3.371   8.590  -0.091 -2.0615 -1.2269  0.3379
  185MOL0     H24963   3.040   8.528   0.122 -1.3429  0.2402 -1.1751
  185MOL0     H24964   3.133   8.384   0.188  1.5833 -2.5786 -2.6273
  185MOL0     H24965   3.053   8.246   0.020 -1.6082 -0.8200  0.9355
  185MOL0     H24966   2.958   8.355  -0.057  0.2353 -0.2234  0.2026
  185MOL0     H24967   2.870   8.352   0.229  1.7652 -1.9539  0.1148
  185MOL0     H24968   2.872   8.198   0.166  2.3251 -0.7133 -0.8489
  185MOL0     H24969   2.731   8.282  -0.036 -3.7593  0.9270 -1.1496
  185MOL0     H24970   2.658   8.251   0.120  0.4074  1.1361  0.6714
  185MOL0     H24971   2.614   8.651   0.157  0.7284 -0.4602 -0.4757
  185MOL0     H24972   3.278   8.258   0.152 -2.0525  2.0103 -0.3546
  185MOL0     H24973   3.539   8.228   0.345  1.7638  0.4554 -0.5075
  185MOL0     H24974   3.452   8.116   0.240 -0.9111  1.7238  0.2577
  185MOL0     H24975   3.620   8.124   0.219 -1.2687 -2.5711 -0.6737
  186MOL0     O24976   0.993   9.692   4.812 -0.2766 -0.3878  0.3862
  186MOL0     C24977   1.097   9.727   4.772  0.3481 -0.9259  0.3986
  186MOL0     O24978   1.208   9.656   4.747  1.0578  0.3170 -0.0435
  186MOL0     C24979   1.201   9.521   4.773  0.3492  0.6606 -0.2161
  186MOL0     C24980   1.252   9.422   4.684 -0.2927  1.1129 -0.7008
  186MOL0     C24981   1.254   9.288   4.719  0.6565  0.4574 -0.0156
  186MOL0     C24982   1.213   9.249   4.843  0.8283  1.1460 -0.2084
  186MOL0     O24983   1.220   9.117   4.858 -0.1653 -0.3145  0.0240
  186MOL0     C24984   1.308   9.076   4.975 -0.2559  0.3450 -0.4389
  186MOL0     C24985   1.333   8.921   4.970  0.7055 -0.3092  0.4785
  186MOL0     C24986   1.194   8.842   4.947 -0.0890  0.1289  0.2200
  186MOL0     C24987   1.146   8.792   5.080  0.1923  0.9608 -0.4920
  186MOL0     C24988   1.004   8.758   5.088  0.2762  0.7450  0.1158
  186MOL0     C24989   0.954   8.662   4.977 -0.7239 -0.3972 -1.3240
  186MOL0     C24990   0.806   8.645   5.008 -0.5945  0.3458  0.5674
  186MOL0     C24991   0.741   8.556   4.902 -0.4474 -0.6605  0.1361
  186MOL0     N24992   0.804   8.424   4.886  0.3404 -0.4330  0.2077
  186MOL0     C24993   0.770   8.327   4.968  0.4554  1.4229 -0.1946
  186MOL0     C24994   0.781   8.210   4.901  0.6648  0.3707  0.6766
  186MOL0     C24995   0.743   8.075   4.962  0.6261  0.2041  0.1324
  186MOL0     C24996   0.631   8.006   4.882 -0.3190 -0.9891 -0.4272
  186MOL0     C24997   0.596   7.870   4.910 -0.1617 -0.0201  0.7386
  186MOL0     C24998   0.489   7.822   4.806 -0.7540  0.4369  0.8948
  186MOL0     O24999   0.386   7.918   4.794  0.0441  0.3867 -0.4524
  186MOL0     C25000   0.322   7.956   4.680  0.1051 -0.7930 -0.6995
  186MOL0     C25001   0.384   7.951   4.554  0.6265  0.9373 -0.8052
  186MOL0     C25002   0.318   7.982   4.433 -0.1347  0.1415  0.6758
  186MOL0     C25003   0.178   8.018   4.440  1.0146 -0.1190  0.2137
  186MOL0     C25004   0.120   8.058   4.306 -0.5144  0.2089 -0.7205
  186MOL0     O25005  -0.009   8.093   4.307 -0.1658  0.5764  0.2302
  186MOL0     C25006  -0.076   8.118   4.191 -0.5150 -0.2872  0.6194
  186MOL0     C25007  -0.201   8.169   4.217 -0.4248  0.5589  0.9219
  186MOL0     C25008  -0.301   8.190   4.115 -0.6256  0.0249 -0.2369
  186MOL0     C25009  -0.265   8.165   3.978 -0.3570  0.1247 -0.2975
  186MOL0     O25010  -0.347   8.188   3.873  1.0103  0.4200  0.8213
  186MOL0     C25011  -0.408   8.317   3.890 -0.8464  0.1706 -0.6718
  186MOL0     C25012  -0.476   8.368   3.767  0.5460 -0.3031 -0.6087
  186MOL0     C25013  -0.396   8.369   3.638 -0.0474 -0.5373  0.9921
  186MOL0     C25014  -0.319   8.501   3.603  0.7791 -0.3860 -0.0500
  186MOL0     C25015  -0.189   8.502   3.668  0.2968 -0.3517 -0.4935
  186MOL0     C25016  -0.103   8.609   3.597  0.3126  0.4129 -0.1934
  186MOL0     C25017  -0.043   8.551   3.468 -0.6833 -0.5000 -0.0139
  186MOL0     C25018   0.081   8.634   3.428 -0.6783 -0.9009 -1.0295
  186MOL0    Cl25019   0.230   8.618   3.521 -0.5531 -0.2336  0.4751
  186MOL0     C25020  -0.137   8.100   3.951 -0.5616 -0.1191 -0.2097
  186MOL0     C25021  -0.050   8.084   4.056  0.1217  0.3391  0.2405
  186MOL0     O25022   0.196   8.077   4.210 -0.7776 -0.0590  0.3874
  186MOL0     C25023   0.120   8.036   4.575 -0.8025 -0.1086 -0.8928
  186MOL0     C25024   0.193   8.002   4.687  0.7133  0.2156 -1.0844
  186MOL0     N25025   0.828   8.243   4.779 -0.0215 -0.4425  0.6064
  186MOL0     N25026   0.829   8.370   4.765 -0.5522  1.0420  0.5627
  186MOL0     C25027   1.179   9.337   4.939 -0.8440 -0.4524 -0.6412
  186MOL0     C25028   1.164   9.474   4.907 -1.0115 -0.1674  0.5019
  186MOL0     C25029   1.129   9.867   4.737  0.3653 -0.8569 -0.0147
  186MOL0     C25030   1.120   9.966   4.836 -0.9427 -0.6697  0.0383
  186MOL0     C25031   1.160  10.102   4.802  0.2941  0.2699 -0.3373
  186MOL0     C25032   1.200  10.137   4.677  0.1662 -0.3379  0.3633
  186MOL0     O25033   1.217  10.269   4.664  0.3217  0.3351  1.0169
  186MOL0     C25034   1.093  10.356   4.661  0.1779  0.7571  0.0334
  186MOL0     C25035   1.054  10.405   4.525  0.1942  0.7949 -0.0546
  186MOL0     C25036   0.939  10.504   4.542 -0.0236 -0.0926  0.4153
  186MOL0     C25037   0.807  10.443   4.592  0.1811  0.4307  0.4108
  186MOL0     C25038   0.796  10.456   4.732  0.3052 -0.0514  0.2906
  186MOL0     C25039   0.813  10.475   4.850 -0.0162  0.2572  1.0805
  186MOL0     C25040   1.206  10.037   4.579 -0.2274 -0.4779  0.0721
  186MOL0     C25041   1.177   9.911   4.615  0.6541 -0.0029 -0.3938
  186MOL0     C25042   1.183   9.803   4.504  0.0137  0.0114  0.1424
  186MOL0     H25043   1.285   9.446   4.583 -2.4706 -1.3567 -2.1351
  186MOL0     H25044   1.276   9.211   4.646 -1.8776 -3.1062  2.6475
  186MOL0     H25045   1.408   9.121   4.974  0.2929 -0.5135  2.8616
  186MOL0     H25046   1.256   9.110   5.066 -1.7155  1.3786 -1.6102
  186MOL0     H25047   1.384   8.880   5.058 -0.0023 -0.4987  0.8065
  186MOL0     H25048   1.409   8.918   4.892 -0.8198  2.7664 -1.3114
  186MOL0     H25049   1.210   8.759   4.878 -1.5015 -0.2739  0.3304
  186MOL0     H25050   1.123   8.911   4.901  1.3070  1.0380 -0.6452
  186MOL0     H25051   1.201   8.702   5.111 -1.8197 -0.5659 -1.1521
  186MOL0     H25052   1.164   8.864   5.160  1.0086  0.0242  0.2086
  186MOL0     H25053   0.980   8.705   5.181  1.5853  1.1498  0.6974
  186MOL0     H25054   0.940   8.845   5.070 -0.2300  0.5028  0.6880
  186MOL0     H25055   0.975   8.685   4.872  1.5817 -0.4606 -0.9357
  186MOL0     H25056   1.020   8.577   4.998 -1.3036 -0.4782  0.2656
  186MOL0     H25057   0.748   8.736   5.022 -1.8104  0.6245 -4.4706
  186MOL0     H25058   0.805   8.595   5.105  0.9402 -1.1089 -0.1046
  186MOL0     H25059   0.636   8.535   4.927 -1.2972 -0.4341 -2.7904
  186MOL0     H25060   0.739   8.600   4.802  1.0101 -2.8094 -0.9071
  186MOL0     H25061   0.720   8.331   5.064 -1.5109  2.0132 -1.1849
  186MOL0     H25062   0.822   8.001   4.946 -0.0591  0.1747 -4.3839
  186MOL0     H25063   0.707   8.086   5.065 -0.4909  1.9942 -0.4096
  186MOL0     H25064   0.539   8.062   4.903  1.9975  2.1888  2.4000
  186MOL0     H25065   0.653   8.027   4.777  0.3811 -0.5331 -0.1936
  186MOL0     H25066   0.552   7.862   5.010  1.3375  3.4127  1.8375
  186MOL0     H25067   0.689   7.814   4.903  1.2697  2.4333 -1.5797
  186MOL0     H25068   0.436   7.729   4.830 -2.0397  0.6138 -1.0765
  186MOL0     H25069   0.533   7.810   4.707  1.3035  3.0402  1.3965
  186MOL0     H25070   0.484   7.911   4.544  1.5620  2.8610  0.2291
  186MOL0     H25071   0.366   7.990   4.336 -2.3345  2.3420 -0.3178
  186MOL0     H25072  -0.225   8.207   4.316 -0.3273  0.7533  0.8713
  186MOL0     H25073  -0.400   8.230   4.136 -0.7931 -0.5732  0.1266
  186MOL0     H25074  -0.488   8.301   3.963  1.2707  0.0332  1.7491
  186MOL0     H25075  -0.342   8.390   3.939  0.5856 -1.8794  0.5958
  186MOL0     H25076  -0.564   8.310   3.736  0.3395  1.3247 -3.4598
  186MOL0     H25077  -0.507   8.468   3.797 -2.4851 -1.5301  0.7986
  186MOL0     H25078  -0.320   8.291   3.633 -0.0962 -0.7933  3.4502
  186MOL0     H25079  -0.467   8.352   3.556 -0.1144 -4.1008  1.6392
  186MOL0     H25080  -0.377   8.591   3.626  1.2190  0.3713 -1.7800
  186MOL0     H25081  -0.300   8.501   3.495  2.4450 -2.9962  0.1411
  186MOL0     H25082  -0.138   8.405   3.660 -0.8534 -0.8177 -3.5793
  186MOL0     H25083  -0.205   8.545   3.768  2.3280  1.0258 -0.7029
  186MOL0     H25084  -0.158   8.702   3.577 -0.6538 -0.4532 -1.7485
  186MOL0     H25085  -0.019   8.639   3.661  0.2127  2.7564 -1.0673
  186MOL0     H25086  -0.120   8.548   3.390  0.0478 -1.4027 -0.7377
  186MOL0     H25087  -0.018   8.445   3.482 -1.7132 -0.9383 -1.2357
  186MOL0     H25088   0.111   8.608   3.326  0.1935 -3.1107 -0.2703
  186MOL0     H25089   0.053   8.740   3.431  3.1410  0.2243  0.0585
  186MOL0     H25090  -0.098   8.071   3.854  0.8387  1.2301 -0.0816
  186MOL0     H25091   0.041   8.031   4.029 -0.8692 -2.5624  2.1507
  186MOL0     H25092   0.019   8.073   4.586 -0.4122  0.3858  2.0236
  186MOL0     H25093   0.139   8.014   4.781  0.0881 -0.6751 -1.3177
  186MOL0     H25094   1.150   9.300   5.037  2.9832 -3.3174 -0.3136
  186MOL0     H25095   1.122   9.549   4.973  1.1182 -1.1624  3.1777
  186MOL0     H25096   1.079   9.935   4.932 -2.5963  0.0571 -0.3948
  186MOL0     H25097   1.157  10.174   4.883  0.5240 -0.8584  0.6994
  186MOL0     H25098   1.118  10.448   4.716  0.8323 -1.0140  2.8898
  186MOL0     H25099   1.006  10.306   4.704  0.0415  1.2921  0.4017
  186MOL0     H25100   1.017  10.320   4.468  2.4386  0.6576 -1.4484
  186MOL0     H25101   1.144  10.437   4.471  1.5845 -3.2232 -0.5256
  186MOL0     H25102   0.936  10.553   4.444 -0.7208 -0.8458  0.0387
  186MOL0     H25103   0.972  10.582   4.610 -0.3730 -1.0391  1.7066
  186MOL0     H25104   0.730  10.506   4.547 -0.4168  0.2213  1.1050
  186MOL0     H25105   0.808  10.338   4.559  0.9478  1.0835 -1.8064
  186MOL0     H25106   0.830  10.473   4.956  1.1952  1.3908  0.9449
  186MOL0     H25107   1.238  10.063   4.479  1.2216 -1.8265  0.1521
  186MOL0     H25108   1.196   9.844   4.404 -0.7204 -3.3434 -1.4787
  186MOL0     H25109   1.258   9.726   4.527 -0.0412  1.3097  6.5764
  186MOL0     H25110   1.087   9.750   4.503 -0.0759  0.1219 -2.0073
  187MOL0     O25111   4.350   0.197   8.480  0.4383 -0.1517  0.6462
  187MOL0     C25112   4.424   0.298   8.493  0.7552  0.8125 -0.7729
  187MOL0     O25113   4.401   0.413   8.427  0.1381 -0.3000  0.0688
  187MOL0     C25114   4.282   0.430   8.364  0.2677  0.5156  0.4676
  187MOL0     C25115   4.168   0.470   8.427 -0.1249  0.1815 -1.2114
  187MOL0     C25116   4.055   0.504   8.356  0.3308  0.4334 -0.5844
  187MOL0     C25117   4.046   0.484   8.216 -1.0126  0.7005  0.2116
  187MOL0     O25118   3.931   0.527   8.151  0.9568 -0.0448 -0.3777
  187MOL0     C25119   3.935   0.665   8.111  0.9150  0.2279  0.3975
  187MOL0     C25120   3.833   0.692   7.992  0.3358  0.0568 -0.1086
  187MOL0     C25121   3.686   0.650   7.992 -0.0587 -0.2585 -0.4832
  187MOL0     C25122   3.609   0.729   8.091 -0.1694 -0.2722 -0.5359
  187MOL0     C25123   3.472   0.669   8.115 -0.2422 -0.1205 -0.2350
  187MOL0     C25124   3.377   0.681   7.997 -0.0031  0.1374  0.4343
  187MOL0     C25125   3.238   0.637   8.042  1.7387 -0.3752  0.0712
  187MOL0     C25126   3.134   0.745   8.056 -0.5907  0.2979 -0.4892
  187MOL0     N25127   3.011   0.697   8.122 -1.0974  0.0942  0.8623
  187MOL0     C25128   2.960   0.730   8.247  0.4344  0.4028 -1.0331
  187MOL0     C25129   2.878   0.628   8.277  0.7446  0.3446 -0.0180
  187MOL0     C25130   2.781   0.635   8.396 -0.4590  0.6490  0.0918
  187MOL0     C25131   2.860   0.658   8.529  0.3983 -0.5213  0.2965
  187MOL0     C25132   2.771   0.645   8.647  0.7560 -0.8194  0.7292
  187MOL0     C25133   2.868   0.625   8.773  1.0962 -0.7682 -0.0358
  187MOL0     O25134   2.949   0.748   8.775  0.7729  0.2188 -0.1936
  187MOL0     C25135   3.045   0.742   8.869 -0.7177 -0.5167  0.4524
  187MOL0     C25136   3.170   0.701   8.830  0.0127 -0.0758 -0.3707
  187MOL0     C25137   3.287   0.700   8.909  0.2793  0.1163  1.2192
  187MOL0     C25138   3.270   0.755   9.038  0.1161 -0.2649  0.0588
  187MOL0     C25139   3.380   0.746   9.138  0.5316 -1.0097 -0.3632
  187MOL0     O25140   3.359   0.816   9.258 -0.1226  0.2767 -0.3639
  187MOL0     C25141   3.459   0.807   9.353 -0.0764  0.1966  0.6557
  187MOL0     C25142   3.588   0.865   9.327  0.3899 -0.5406 -0.5165
  187MOL0     C25143   3.682   0.873   9.440  0.7152 -0.7366  0.1225
  187MOL0     C25144   3.655   0.815   9.563  0.0563  0.2755 -0.6025
  187MOL0     O25145   3.744   0.825   9.673 -0.2621 -0.6045 -0.1307
  187MOL0     C25146   3.726   0.750   9.800  0.0115 -0.6081 -0.0887
  187MOL0     C25147   3.727   0.595   9.781 -0.3968  0.5368 -0.9754
  187MOL0     C25148   3.649   0.517   9.885 -0.2595  0.6316 -0.1226
  187MOL0     C25149   3.645   0.366   9.835  0.4671 -0.4357 -0.2135
  187MOL0     C25150   3.581   0.269   9.935  0.2780  0.2652  0.2238
  187MOL0     C25151   3.572   0.121   9.877 -0.4725 -0.5421 -1.0447
  187MOL0     C25152   3.712   0.055   9.886  0.0389 -1.4178 -1.2359
  187MOL0     C25153   3.705  -0.087   9.948 -0.5980 -0.7307 -0.7167
  187MOL0    Cl25154   3.863  -0.175   9.928 -0.3230 -0.0641 -0.4603
  187MOL0     C25155   3.531   0.765   9.579  1.0426  0.4140 -0.7684
  187MOL0     C25156   3.437   0.760   9.479  1.3288  0.8785  0.1228
  187MOL0     O25157   3.481   0.681   9.113  0.5002 -0.6085  0.2963
  187MOL0     C25158   3.138   0.808   9.072 -0.2851  0.4135  0.8696
  187MOL0     C25159   3.029   0.805   8.988  0.8310  1.0272 -0.3293
  187MOL0     N25160   2.862   0.538   8.176 -0.5997 -0.2278  0.3657
  187MOL0     N25161   2.941   0.587   8.078 -0.4239  0.9019 -0.5230
  187MOL0     C25162   4.158   0.437   8.156  0.3826 -0.0031  1.2354
  187MOL0     C25163   4.276   0.417   8.221 -0.8414  0.5463  0.1531
  187MOL0     C25164   4.514   0.314   8.611  0.4359 -0.1294 -0.1389
  187MOL0     C25165   4.535   0.441   8.658  0.5262 -0.6907 -0.5674
  187MOL0     C25166   4.621   0.473   8.758 -0.5891  0.4595 -0.7201
  187MOL0     C25167   4.693   0.380   8.820 -0.0255  0.0756 -0.1965
  187MOL0     O25168   4.794   0.421   8.903  0.4590  0.3350  0.0029
  187MOL0     C25169   4.904   0.326   8.920 -0.3949 -0.9545  0.1568
  187MOL0     C25170   5.000   0.321   8.805 -0.5250  0.3302 -0.1236
  187MOL0     C25171   5.070   0.449   8.790  0.0614  0.0179  0.5818
  187MOL0     C25172   5.202   0.428   8.706 -0.7400  0.6123 -0.3781
  187MOL0     C25173   5.167   0.362   8.579 -0.2542 -0.2142  0.9285
  187MOL0     C25174   5.150   0.297   8.476  0.2094 -0.3774 -0.4612
  187MOL0     C25175   4.658   0.246   8.793  0.3809  0.7069  0.8983
  187MOL0     C25176   4.574   0.209   8.677 -0.0428  0.1844 -0.2267
  187MOL0     C25177   4.567   0.063   8.645  0.6732 -1.0380 -0.2916
  187MOL0     H25178   4.173   0.474   8.536  3.2786  0.3474 -1.2467
  187MOL0     H25179   3.968   0.535   8.414 -1.2455 -1.9604 -1.5123
  187MOL0     H25180   3.905   0.721   8.200  1.0857  1.7603 -0.4717
  187MOL0     H25181   4.038   0.688   8.081  1.5847 -0.3074  2.1703
  187MOL0     H25182   3.873   0.651   7.899 -1.8555 -0.3034 -0.9497
  187MOL0     H25183   3.836   0.798   7.966 -0.6897  0.7648  2.3305
  187MOL0     H25184   3.680   0.544   8.021  1.0634  0.6631  3.9611
  187MOL0     H25185   3.641   0.662   7.893 -1.4074  0.6666  0.2104
  187MOL0     H25186   3.657   0.746   8.188 -0.4720  4.9121 -1.0173
  187MOL0     H25187   3.591   0.833   8.063  0.4216  0.9143  2.9925
  187MOL0     H25188   3.486   0.563   8.137  0.6630 -0.3434 -1.7084
  187MOL0     H25189   3.421   0.719   8.198 -0.2544  2.2285 -1.5562
  187MOL0     H25190   3.376   0.789   7.976 -0.8763  0.0151 -0.1707
  187MOL0     H25191   3.413   0.622   7.913 -0.1142  0.0601  0.4411
  187MOL0     H25192   3.242   0.588   8.140  1.9423 -2.3270 -0.8826
  187MOL0     H25193   3.205   0.575   7.958  0.1937 -0.4388  0.6831
  187MOL0     H25194   3.175   0.819   8.125 -1.9997  1.3843 -0.7578
  187MOL0     H25195   3.118   0.784   7.955  2.2234  2.5723 -0.1684
  187MOL0     H25196   2.968   0.820   8.307 -2.8453 -0.4579  0.9440
  187MOL0     H25197   2.710   0.717   8.381  0.3841  1.1617 -1.2828
  187MOL0     H25198   2.719   0.546   8.404  0.2025 -0.0476 -1.9810
  187MOL0     H25199   2.946   0.591   8.535  1.1575  0.4290  0.3427
  187MOL0     H25200   2.910   0.755   8.533  3.4456 -1.9877  0.5598
  187MOL0     H25201   2.703   0.560   8.648 -1.7567  1.0617  2.2649
  187MOL0     H25202   2.709   0.735   8.653  0.8816 -0.5866 -0.9733
  187MOL0     H25203   2.925   0.532   8.771  0.8587 -0.9154 -0.0628
  187MOL0     H25204   2.806   0.624   8.864 -0.2395  0.2195 -0.8854
  187MOL0     H25205   3.186   0.652   8.734 -0.1477  0.0470 -0.4596
  187MOL0     H25206   3.382   0.666   8.869  0.4281  2.1695 -0.3713
  187MOL0     H25207   3.616   0.913   9.233  3.4771  3.1309  1.9590
  187MOL0     H25208   3.778   0.922   9.427 -0.5863  1.9934 -0.0348
  187MOL0     H25209   3.808   0.783   9.866 -0.4247 -1.6934  1.0337
  187MOL0     H25210   3.636   0.780   9.854  0.8089 -0.6567  1.3104
  187MOL0     H25211   3.690   0.558   9.685  1.3986 -1.9477 -0.7959
  187MOL0     H25212   3.833   0.567   9.783 -0.5583 -0.0294  0.4028
  187MOL0     H25213   3.703   0.522   9.980  1.4913  3.1449 -1.1617
  187MOL0     H25214   3.547   0.554   9.894 -0.5142 -0.2271  0.8334
  187MOL0     H25215   3.746   0.326   9.823  0.4228 -1.2855  1.8508
  187MOL0     H25216   3.578   0.368   9.748 -2.3185 -4.9383  1.4641
  187MOL0     H25217   3.478   0.304   9.951  0.4747  0.3971  1.2852
  187MOL0     H25218   3.629   0.287  10.032  0.4304  3.5499 -0.3553
  187MOL0     H25219   3.503   0.057   9.933 -0.8587  0.2159 -0.6283
  187MOL0     H25220   3.539   0.134   9.774 -0.9027  1.0126 -0.7406
  187MOL0     H25221   3.789   0.113   9.937  1.5417 -2.2448 -2.4687
  187MOL0     H25222   3.742   0.060   9.781 -0.1812  3.6905 -1.3054
  187MOL0     H25223   3.699  -0.060  10.054  0.8602  2.5430 -1.3219
  187MOL0     H25224   3.615  -0.142   9.921  0.2018 -2.2157 -0.4502
  187MOL0     H25225   3.485   0.736   9.673  0.0107 -0.7345 -1.6112
  187MOL0     H25226   3.341   0.714   9.500  1.6077  1.2309  2.4889
  187MOL0     H25227   3.113   0.860   9.164 -3.4296  0.6133  0.0265
  187MOL0     H25228   2.927   0.836   9.012  0.3082 -1.0663  0.3929
  187MOL0     H25229   4.162   0.424   8.048 -0.9581  6.4857 -0.0533
  187MOL0     H25230   4.366   0.382   8.171  0.9524  4.4766  0.2753
  187MOL0     H25231   4.490   0.535   8.625  2.0561  0.3970  0.3147
  187MOL0     H25232   4.635   0.579   8.779  1.8220  0.2500 -0.9716
  187MOL0     H25233   4.873   0.221   8.919 -2.0897 -0.5024 -2.2257
  187MOL0     H25234   4.952   0.346   9.017 -2.6836 -2.8892  1.8136
  187MOL0     H25235   4.944   0.289   8.717  1.0318 -0.1387 -0.9680
  187MOL0     H25236   5.070   0.239   8.823 -3.2709 -2.0456  0.4659
  187MOL0     H25237   5.097   0.486   8.890  2.8530 -0.8791  0.2286
  187MOL0     H25238   5.001   0.518   8.741 -0.0411  1.1628  2.2377
  187MOL0     H25239   5.270   0.511   8.689  1.8575 -1.1628  0.6936
  187MOL0     H25240   5.268   0.366   8.768  1.8238  2.4297 -1.1431
  187MOL0     H25241   5.136   0.243   8.384  2.2683 -0.0219 -1.0375
  187MOL0     H25242   4.709   0.166   8.846  0.7769  1.8104  2.2267
  187MOL0     H25243   4.666   0.023   8.622  1.0031 -1.2540  1.4366
  187MOL0     H25244   4.531   0.013   8.735  0.6783 -2.1056 -0.8524
  187MOL0     H25245   4.510   0.022   8.560  1.0048 -2.6817  0.2388
  188MOL0     O25246   2.791   6.374   1.463 -0.3559  0.8351 -0.4150
  188MOL0     C25247   2.695   6.388   1.533  0.5944  0.6935  0.9037
  188MOL0     O25248   2.643   6.509   1.569  0.7773  0.2445 -0.5364
  188MOL0     C25249   2.713   6.618   1.533 -0.4305 -0.5814  0.1060
  188MOL0     C25250   2.659   6.705   1.438 -0.5725  0.3170  0.1236
  188MOL0     C25251   2.720   6.826   1.398  0.0587  0.6115 -1.1473
  188MOL0     C25252   2.842   6.860   1.455 -0.3225  0.0465  1.2024
  188MOL0     O25253   2.904   6.977   1.428 -0.3102  0.3092  0.3706
  188MOL0     C25254   2.854   7.078   1.343  0.1402  0.3606  0.6928
  188MOL0     C25255   2.942   7.197   1.344 -0.8120 -0.8620  0.4771
  188MOL0     C25256   2.887   7.328   1.294  0.7168  0.7127  0.9200
  188MOL0     C25257   2.910   7.339   1.144 -0.1277 -0.0156  0.2357
  188MOL0     C25258   2.848   7.476   1.093  0.1353 -0.2802 -0.0291
  188MOL0     C25259   2.846   7.474   0.934 -0.8001 -0.6517  0.0232
  188MOL0     C25260   2.793   7.617   0.881  0.4439  0.0928 -0.3973
  188MOL0     C25261   2.894   7.729   0.875 -0.3063 -0.3356  0.6064
  188MOL0     N25262   2.838   7.861   0.895 -0.5826  0.0650 -1.0205
  188MOL0     C25263   2.767   7.897   1.008  0.3104  0.7311 -0.1191
  188MOL0     C25264   2.716   8.013   0.990 -0.1115 -0.7965  0.7485
  188MOL0     C25265   2.619   8.073   1.087  0.5869  0.7637 -0.1613
  188MOL0     C25266   2.540   8.178   1.018 -1.2311 -0.0783  0.5516
  188MOL0     C25267   2.471   8.265   1.122  0.9200 -0.1169 -0.7828
  188MOL0     C25268   2.350   8.353   1.074  0.5565 -0.2051 -0.1396
  188MOL0     O25269   2.235   8.276   1.039 -0.0614  0.6682  1.0411
  188MOL0     C25270   2.110   8.334   1.006  0.7177 -0.7082  0.4341
  188MOL0     C25271   2.006   8.252   0.983  0.4057  0.1956  0.4041
  188MOL0     C25272   1.878   8.299   0.948 -0.3292  0.5051 -0.2925
  188MOL0     C25273   1.850   8.437   0.936  0.0112  1.0965  0.1787
  188MOL0     C25274   1.723   8.477   0.885  1.0887 -0.5493  0.0265
  188MOL0     O25275   1.715   8.602   0.832  0.7039 -0.4090 -0.5088
  188MOL0     C25276   1.597   8.666   0.810 -0.2538 -0.2853  0.4338
  188MOL0     C25277   1.584   8.712   0.679  1.8580  0.4009  0.2674
  188MOL0     C25278   1.455   8.761   0.640 -0.3807 -0.6152  0.9312
  188MOL0     C25279   1.350   8.776   0.736  0.4176 -0.5401 -0.7161
  188MOL0     O25280   1.237   8.845   0.682  0.4096 -0.0929 -0.2047
  188MOL0     C25281   1.136   8.881   0.774 -0.3669  0.5301  0.2556
  188MOL0     C25282   1.053   8.759   0.825 -0.2278  0.1292  0.7750
  188MOL0     C25283   0.939   8.721   0.739  0.6301  0.9971  0.3249
  188MOL0     C25284   0.871   8.599   0.802 -0.5175  0.3828  0.3984
  188MOL0     C25285   0.734   8.568   0.736  0.3620 -0.0072 -0.8046
  188MOL0     C25286   0.712   8.418   0.731  0.5278  0.2788  0.5633
  188MOL0     C25287   0.602   8.372   0.621  0.0967 -1.3027  0.0175
  188MOL0     C25288   0.559   8.224   0.625  0.4113  0.1763  0.3017
  188MOL0    Cl25289   0.444   8.187   0.494  0.1887  0.3045  0.2663
  188MOL0     C25290   1.370   8.728   0.864  0.1504 -0.2928  0.4803
  188MOL0     C25291   1.486   8.662   0.898  0.0833  0.4586 -0.5223
  188MOL0     O25292   1.630   8.397   0.885  1.0807  0.0324 -0.5389
  188MOL0     C25293   1.964   8.522   0.954  0.7717  0.3938  0.3782
  188MOL0     C25294   2.090   8.471   0.984 -0.6271 -0.8785 -1.1555
  188MOL0     N25295   2.764   8.057   0.863 -0.0362  0.1983 -0.1742
  188MOL0     N25296   2.836   7.966   0.804  0.1590 -0.0706  0.3796
  188MOL0     C25297   2.901   6.776   1.550 -0.0324 -0.1634  0.1836
  188MOL0     C25298   2.843   6.656   1.590 -0.1652 -0.3378  0.1593
  188MOL0     C25299   2.622   6.265   1.572  0.1214 -0.3137  0.1886
  188MOL0     C25300   2.482   6.260   1.555  0.5079  0.4361 -0.8693
  188MOL0     C25301   2.398   6.158   1.586  0.3698 -0.0489  0.0809
  188MOL0     C25302   2.463   6.039   1.638 -0.4408 -0.2597  1.0465
  188MOL0     O25303   2.403   5.923   1.675  0.8339  0.1376 -0.4958
  188MOL0     C25304   2.258   5.924   1.687 -0.5402  0.0465  0.4061
  188MOL0     C25305   2.231   5.852   1.817  1.3699 -0.1252 -0.0092
  188MOL0     C25306   2.298   5.900   1.948  0.2409 -0.1650  0.1399
  188MOL0     C25307   2.233   5.847   2.081 -0.0663  0.3683  0.1818
  188MOL0     C25308   2.161   5.720   2.075  0.2688 -0.1579  0.0811
  188MOL0     C25309   2.114   5.605   2.062  0.9284 -0.9782 -0.2584
  188MOL0     C25310   2.600   6.047   1.667 -0.1288 -0.4340  1.5523
  188MOL0     C25311   2.679   6.156   1.633 -0.4230  0.9276 -0.7974
  188MOL0     C25312   2.826   6.149   1.661 -0.2243 -0.2677 -0.4286
  188MOL0     H25313   2.563   6.681   1.393 -1.7287 -1.3682  3.2025
  188MOL0     H25314   2.664   6.881   1.324  0.6012 -1.0931 -2.9274
  188MOL0     H25315   2.839   7.037   1.243 -3.1510  0.3230  1.0834
  188MOL0     H25316   2.757   7.120   1.373 -0.2981  1.3419 -1.8578
  188MOL0     H25317   3.046   7.182   1.316 -0.3299  2.0459  0.4357
  188MOL0     H25318   2.947   7.217   1.452 -1.0434  0.6785  0.2245
  188MOL0     H25319   2.944   7.408   1.343  0.5028  0.7057  1.1864
  188MOL0     H25320   2.781   7.337   1.323 -0.8655 -2.6489 -2.9048
  188MOL0     H25321   3.015   7.337   1.115 -0.7864 -0.3060 -2.3883
  188MOL0     H25322   2.864   7.254   1.093 -4.2687  1.2870  1.3784
  188MOL0     H25323   2.742   7.486   1.118 -0.1725 -1.6193 -0.7635
  188MOL0     H25324   2.895   7.568   1.129 -0.3465 -0.9731  2.5770
  188MOL0     H25325   2.946   7.456   0.894 -2.0286 -1.3164 -2.9932
  188MOL0     H25326   2.776   7.393   0.910  0.7365 -2.3782  1.0642
  188MOL0     H25327   2.706   7.645   0.942  0.0342  2.1554 -1.8174
  188MOL0     H25328   2.753   7.615   0.779  1.0253  5.1773 -0.9859
  188MOL0     H25329   2.976   7.719   0.946 -1.9415 -0.2874  2.6118
  188MOL0     H25330   2.925   7.722   0.771 -1.7252  1.3805  0.0156
  188MOL0     H25331   2.744   7.831   1.091 -0.9336 -1.6713 -2.2104
  188MOL0     H25332   2.558   7.993   1.129 -0.0668  2.1665  1.6606
  188MOL0     H25333   2.674   8.119   1.170  0.5363  2.2382 -0.9215
  188MOL0     H25334   2.601   8.246   0.958 -1.9490 -1.8207 -2.3378
  188MOL0     H25335   2.464   8.128   0.957  0.5304 -0.9533 -1.0152
  188MOL0     H25336   2.559   8.318   1.159  1.1668 -0.6833 -0.5524
  188MOL0     H25337   2.425   8.202   1.198  2.2304  2.3400  2.2704
  188MOL0     H25338   2.388   8.405   0.986 -0.4666 -1.1401 -1.1802
  188MOL0     H25339   2.310   8.413   1.157  1.0386  0.0595 -0.1011
  188MOL0     H25340   2.034   8.149   0.999  0.7332 -0.0065 -1.2514
  188MOL0     H25341   1.794   8.231   0.934 -1.4102  1.0235  2.9043
  188MOL0     H25342   1.675   8.706   0.621  1.0680  0.5498 -1.0074
  188MOL0     H25343   1.430   8.778   0.536 -0.5103  2.1547  1.3455
  188MOL0     H25344   1.170   8.936   0.863 -2.1641  0.0528  1.3027
  188MOL0     H25345   1.067   8.956   0.736  0.3586  1.7599  1.2652
  188MOL0     H25346   1.111   8.667   0.817 -1.1779 -0.4802  0.8546
  188MOL0     H25347   1.025   8.788   0.927  0.0326  1.2981  0.5366
  188MOL0     H25348   0.859   8.793   0.720  0.2243  0.4784  0.0128
  188MOL0     H25349   0.976   8.684   0.643  0.1258 -2.6615  1.3587
  188MOL0     H25350   0.845   8.606   0.908  0.7966 -1.8967  0.9223
  188MOL0     H25351   0.937   8.512   0.797 -2.2525 -0.9263 -1.3553
  188MOL0     H25352   0.721   8.603   0.634 -2.1339  0.3908 -0.4059
  188MOL0     H25353   0.647   8.610   0.788 -2.4897 -4.3076 -1.6137
  188MOL0     H25354   0.813   8.380   0.710 -0.2853 -0.0072 -3.6643
  188MOL0     H25355   0.675   8.383   0.828  0.0909 -2.6306 -0.5584
  188MOL0     H25356   0.643   8.403   0.525  0.8896  3.8644  1.7343
  188MOL0     H25357   0.509   8.428   0.628  0.4487 -0.5620 -1.0467
  188MOL0     H25358   0.646   8.160   0.613  1.1293  1.3041 -0.7224
  188MOL0     H25359   0.525   8.205   0.728 -0.4614 -1.5528 -0.2700
  188MOL0     H25360   1.285   8.706   0.928  0.3760 -2.8283  0.0155
  188MOL0     H25361   1.498   8.615   0.995  0.3359 -1.1594 -1.2998
  188MOL0     H25362   1.955   8.630   0.941  2.1147  0.6081  1.1357
  188MOL0     H25363   2.174   8.538   0.993 -0.9729 -0.5741 -0.1572
  188MOL0     H25364   3.000   6.790   1.591  0.9652 -1.8056 -1.4860
  188MOL0     H25365   2.896   6.593   1.661 -0.4240 -3.8084 -2.4713
  188MOL0     H25366   2.441   6.357   1.531  0.0629  0.8051  1.1817
  188MOL0     H25367   2.290   6.163   1.590  0.4270  0.5634  1.5340
  188MOL0     H25368   2.211   5.883   1.597  1.1865  1.0862 -1.0476
  188MOL0     H25369   2.204   6.018   1.698 -0.3873  0.2184 -0.2227
  188MOL0     H25370   2.251   5.747   1.792 -0.8652 -0.5498 -0.2526
  188MOL0     H25371   2.123   5.855   1.833  1.5832  1.3730  1.4495
  188MOL0     H25372   2.283   6.009   1.941 -0.5337 -0.3667 -2.4428
  188MOL0     H25373   2.405   5.879   1.939  0.2448  0.0785 -0.4726
  188MOL0     H25374   2.322   5.829   2.142  1.8529 -2.0968 -2.9426
  188MOL0     H25375   2.162   5.922   2.114  0.9843  1.9579 -1.0003
  188MOL0     H25376   2.086   5.502   2.067  3.3763 -1.7305 -0.7687
  188MOL0     H25377   2.641   5.959   1.715  1.3159 -0.3007  0.6233
  188MOL0     H25378   2.856   6.251   1.688  1.1939 -0.7290 -0.2184
  188MOL0     H25379   2.853   6.083   1.744  2.5568  0.0578 -0.9747
  188MOL0     H25380   2.869   6.114   1.567  0.9616  0.7710 -0.2927
  189MOL0     O25381   4.937   9.608   0.614  0.2701  0.2853  0.3509
  189MOL0     C25382   4.929   9.515   0.533 -0.1676  0.1340  0.4251
  189MOL0     O25383   4.821   9.483   0.462  0.0352  0.2179 -0.4537
  189MOL0     C25384   4.713   9.560   0.482  0.2576 -0.1733 -0.0555
  189MOL0     C25385   4.654   9.563   0.612 -0.4962 -0.0730  0.6569
  189MOL0     C25386   4.562   9.662   0.640 -0.5152 -0.5087 -0.2110
  189MOL0     C25387   4.519   9.738   0.536  0.4488  1.2825 -0.3170
  189MOL0     O25388   4.435   9.837   0.575 -0.0111 -0.4751  0.0898
  189MOL0     C25389   4.454   9.968   0.525  0.1708 -0.3197  0.7575
  189MOL0     C25390   4.380  10.062   0.603  0.5879  0.2010  0.7283
  189MOL0     C25391   4.429  10.198   0.564  0.1274  0.2287 -0.0064
  189MOL0     C25392   4.352  10.305   0.637  0.5278 -0.3132 -0.5854
  189MOL0     C25393   4.308  10.411   0.538  0.3077 -0.1842 -0.5429
  189MOL0     C25394   4.204  10.505   0.612 -0.3527 -0.1133 -0.6804
  189MOL0     C25395   4.090  10.556   0.519  1.5038 -0.3979  0.6005
  189MOL0     C25396   4.037  10.690   0.577  0.8023  0.2485  0.3431
  189MOL0     N25397   3.983  10.774   0.463  1.0220 -0.4542 -1.1175
  189MOL0     C25398   4.064  10.844   0.376 -0.1359 -0.5364 -1.0043
  189MOL0     C25399   3.986  10.914   0.288  0.2862  0.0593 -0.2740
  189MOL0     C25400   4.022  11.012   0.178  0.4122 -0.0188  0.3807
  189MOL0     C25401   3.931  10.997   0.052 -0.2489 -0.0381  0.8673
  189MOL0     C25402   3.797  11.069   0.071 -0.2844  0.1672 -0.1233
  189MOL0     C25403   3.730  11.067  -0.064  0.1977 -0.2274  0.0864
  189MOL0     O25404   3.598  11.097  -0.033  0.2991  0.5045 -0.0201
  189MOL0     C25405   3.501  11.093  -0.134 -0.3395 -0.6370 -0.9675
  189MOL0     C25406   3.371  11.088  -0.095  0.3092 -0.0655 -0.8227
  189MOL0     C25407   3.264  11.107  -0.190  0.2253 -0.0709  0.2685
  189MOL0     C25408   3.293  11.143  -0.326 -0.4467  1.0295  0.9466
  189MOL0     C25409   3.178  11.162  -0.421  0.5345 -0.2164 -0.2814
  189MOL0     O25410   3.208  11.165  -0.552 -0.2501  0.2191 -0.3208
  189MOL0     C25411   3.104  11.174  -0.640 -0.3189  0.9230  0.1753
  189MOL0     C25412   3.014  11.275  -0.636  0.6784 -0.6017 -1.6416
  189MOL0     C25413   2.915  11.281  -0.737 -1.0292  0.1974 -0.7491
  189MOL0     C25414   2.913  11.181  -0.838 -0.4003 -0.7576 -0.2296
  189MOL0     O25415   2.806  11.185  -0.922 -0.8837 -0.2655 -0.2494
  189MOL0     C25416   2.702  11.090  -0.905  0.4504 -0.3786  0.8136
  189MOL0     C25417   2.594  11.131  -1.009  0.4215 -1.2294 -0.1848
  189MOL0     C25418   2.508  11.250  -0.967 -0.6533 -0.1644 -0.4373
  189MOL0     C25419   2.582  11.386  -0.971  0.4289  0.4817  0.4509
  189MOL0     C25420   2.494  11.512  -0.936 -0.3918 -0.6784  0.5957
  189MOL0     C25421   2.377  11.523  -1.042  0.6214  0.8116 -0.8642
  189MOL0     C25422   2.294  11.651  -1.022  0.4186 -0.1872  0.1408
  189MOL0     C25423   2.178  11.658  -1.125 -0.2895  0.4794  0.3052
  189MOL0    Cl25424   2.241  11.720  -1.273 -0.1948 -0.0634  0.5746
  189MOL0     C25425   3.009  11.080  -0.847  0.7622 -0.2973  0.2626
  189MOL0     C25426   3.101  11.075  -0.742  0.7253 -0.3576 -0.4325
  189MOL0     O25427   3.060  11.158  -0.377 -0.3030 -0.5817 -0.0753
  189MOL0     C25428   3.433  11.135  -0.365 -0.0337 -0.1404  1.0175
  189MOL0     C25429   3.539  11.121  -0.267 -0.7062  0.0446  0.0183
  189MOL0     N25430   3.857  10.874   0.325 -0.6432 -0.1611 -0.7255
  189MOL0     N25431   3.850  10.796   0.432 -0.4568 -0.3837  0.1677
  189MOL0     C25432   4.559   9.729   0.412 -0.0813  0.1606 -0.3636
  189MOL0     C25433   4.668   9.643   0.379 -0.5592  0.0403  0.0779
  189MOL0     C25434   5.055   9.431   0.517  0.8407  0.6222 -0.4375
  189MOL0     C25435   5.061   9.350   0.411  0.0676  0.8094 -0.3930
  189MOL0     C25436   5.164   9.251   0.390  0.4986  0.0500 -0.0537
  189MOL0     C25437   5.285   9.262   0.466 -0.1843  0.0966 -0.9212
  189MOL0     O25438   5.392   9.184   0.472  0.0051  0.3705 -0.2560
  189MOL0     C25439   5.397   9.073   0.380  0.4138  0.3843  0.7238
  189MOL0     C25440   5.417   9.115   0.233 -0.5030  0.5238  0.1956
  189MOL0     C25441   5.376   8.996   0.145  0.1278  0.4189  0.2085
  189MOL0     C25442   5.376   9.021  -0.004  0.2603 -0.1036  0.3365
  189MOL0     C25443   5.374   8.899  -0.090  0.0141  0.1020  1.0248
  189MOL0     C25444   5.378   8.794  -0.152 -0.3436  0.0289 -0.0024
  189MOL0     C25445   5.286   9.363   0.562 -0.3524 -0.0653  1.3079
  189MOL0     C25446   5.169   9.436   0.595 -0.5061 -1.0237 -0.2589
  189MOL0     C25447   5.175   9.500   0.728 -0.3386 -0.1743 -0.0492
  189MOL0     H25448   4.684   9.493   0.688 -1.1015 -0.7960  0.2512
  189MOL0     H25449   4.520   9.674   0.739 -0.7397 -0.5969 -0.2926
  189MOL0     H25450   4.561   9.993   0.531  0.9747 -2.8169 -1.1682
  189MOL0     H25451   4.420   9.979   0.422  0.6206  1.1936  0.7424
  189MOL0     H25452   4.395  10.039   0.709  3.8337  1.9072  0.7777
  189MOL0     H25453   4.272  10.050   0.587  0.5686  0.7215  0.4311
  189MOL0     H25454   4.430  10.209   0.455 -3.6619  0.4083 -0.1738
  189MOL0     H25455   4.534  10.203   0.593  0.1895  4.8214 -0.4421
  189MOL0     H25456   4.262  10.269   0.687  0.5814 -0.5442 -0.6540
  189MOL0     H25457   4.415  10.360   0.708 -0.7457  0.5271 -0.0788
  189MOL0     H25458   4.400  10.460   0.504  0.6474 -2.0010 -2.3841
  189MOL0     H25459   4.253  10.358   0.459 -2.4867  0.3804  0.8849
  189MOL0     H25460   4.172  10.445   0.698 -1.5779  0.0746 -0.9915
  189MOL0     H25461   4.255  10.586   0.665  1.4292 -1.6535  0.1065
  189MOL0     H25462   4.006  10.486   0.516 -1.7143  2.8584  4.1034
  189MOL0     H25463   4.127  10.571   0.417 -1.4075 -0.5891 -0.5745
  189MOL0     H25464   3.959  10.673   0.653  1.9724 -2.4105  1.0865
  189MOL0     H25465   4.123  10.750   0.606  1.1976  0.9275 -2.0433
  189MOL0     H25466   4.172  10.846   0.380 -0.1804 -0.4449  1.4254
  189MOL0     H25467   4.030  11.118   0.204  0.9360 -0.1362  0.7092
  189MOL0     H25468   4.123  10.979   0.150  0.2527  0.6739 -1.1335
  189MOL0     H25469   3.975  11.041  -0.037 -1.5308  2.0856  1.2169
  189MOL0     H25470   3.917  10.888   0.048  1.7593 -0.3321  0.2668
  189MOL0     H25471   3.816  11.175   0.092  1.3032 -0.0017 -0.5948
  189MOL0     H25472   3.745  11.022   0.155  1.8288 -1.0909  0.5468
  189MOL0     H25473   3.745  10.969  -0.111 -0.5699 -0.2367 -0.1603
  189MOL0     H25474   3.778  11.138  -0.132  0.3414 -0.9723 -0.6156
  189MOL0     H25475   3.343  11.083   0.010 -0.2288  5.1255 -0.4533
  189MOL0     H25476   3.160  11.113  -0.161  0.9529  2.2544  2.8040
  189MOL0     H25477   3.028  11.364  -0.576  0.9277 -0.5697 -1.7459
  189MOL0     H25478   2.842  11.361  -0.730 -0.0468  0.9847  1.3726
  189MOL0     H25479   2.726  10.988  -0.938 -0.6356 -0.6744  0.8849
  189MOL0     H25480   2.668  11.075  -0.802 -1.7735 -1.0399  0.0415
  189MOL0     H25481   2.629  11.160  -1.108 -3.8175  0.9529 -1.2582
  189MOL0     H25482   2.531  11.043  -1.021 -2.8754  0.8860  0.3798
  189MOL0     H25483   2.424  11.249  -1.038 -1.3854  1.0465  0.3710
  189MOL0     H25484   2.466  11.222  -0.870  1.2250 -0.2596  0.3691
  189MOL0     H25485   2.633  11.399  -1.067  1.7273 -0.7640  0.9470
  189MOL0     H25486   2.658  11.384  -0.893  0.5679 -2.9807  0.3653
  189MOL0     H25487   2.569  11.590  -0.956  0.3340 -1.1143  1.5219
  189MOL0     H25488   2.457  11.508  -0.834 -1.5822 -2.5734  0.1368
  189MOL0     H25489   2.421  11.529  -1.142  5.4011  1.5392  1.0175
  189MOL0     H25490   2.311  11.436  -1.037  1.2912  0.2349 -1.8285
  189MOL0     H25491   2.354  11.743  -1.025 -0.9668  0.7229 -2.1563
  189MOL0     H25492   2.259  11.653  -0.918 -1.6481 -0.0994 -0.5158
  189MOL0     H25493   2.135  11.559  -1.142 -0.2775 -0.0148  2.8069
  189MOL0     H25494   2.091  11.714  -1.089 -1.4190 -1.3108  0.4568
  189MOL0     H25495   2.998  11.003  -0.922 -3.5132 -0.6116  0.9886
  189MOL0     H25496   3.177  10.997  -0.738 -1.1537 -2.2113  2.8156
  189MOL0     H25497   3.467  11.159  -0.466 -1.6743 -0.0818  0.4496
  189MOL0     H25498   3.638  11.141  -0.305  1.2943 -3.9267  2.4980
  189MOL0     H25499   4.502   9.785   0.339 -1.5286 -1.5851 -0.6511
  189MOL0     H25500   4.722   9.650   0.285 -2.1089 -1.9737 -1.0335
  189MOL0     H25501   4.975   9.347   0.345  1.8034 -2.9631 -2.8326
  189MOL0     H25502   5.149   9.177   0.313 -0.2369 -2.5020  2.3835
  189MOL0     H25503   5.304   9.017   0.384  1.4923 -1.8974 -2.4601
  189MOL0     H25504   5.462   8.992   0.413 -2.3092 -1.4355  1.9776
  189MOL0     H25505   5.519   9.151   0.219 -0.7141  0.1072 -3.2456
  189MOL0     H25506   5.351   9.196   0.201  0.2296  1.0044 -0.1209
  189MOL0     H25507   5.280   8.960   0.184 -0.4857  0.5126 -1.1351
  189MOL0     H25508   5.448   8.915   0.157 -1.1205 -0.6764  0.4757
  189MOL0     H25509   5.292   9.086  -0.030 -0.9679 -1.7032  0.1599
  189MOL0     H25510   5.466   9.082  -0.017 -0.2485  1.2235  2.4083
  189MOL0     H25511   5.401   8.698  -0.194  3.7271 -0.0703  1.9418
  189MOL0     H25512   5.374   9.383   0.622  0.5567 -0.8288  0.2587
  189MOL0     H25513   5.267   9.474   0.781  0.7915  0.1660 -1.7488
  189MOL0     H25514   5.172   9.610   0.728  2.5977 -0.0194 -0.9282
  189MOL0     H25515   5.090   9.451   0.776  0.2795 -0.1806  1.0548
  190MOL0     O25516   4.388   7.512   5.175 -0.6388 -0.0259  0.1051
  190MOL0     C25517   4.470   7.435   5.218 -0.0157 -0.7230 -0.8034
  190MOL0     O25518   4.464   7.359   5.325 -0.3116 -0.4894 -0.1752
  190MOL0     C25519   4.381   7.400   5.422  0.7541 -0.7265  0.7050
  190MOL0     C25520   4.347   7.306   5.515  0.1378  0.8395 -0.9988
  190MOL0     C25521   4.262   7.336   5.618 -0.2125 -0.5842 -0.8397
  190MOL0     C25522   4.226   7.470   5.637  0.0780  0.3357  0.3039
  190MOL0     O25523   4.149   7.501   5.742  0.3116 -0.2756 -0.5018
  190MOL0     C25524   4.065   7.612   5.739 -0.0722  0.7580  0.0177
  190MOL0     C25525   3.956   7.592   5.837  0.2018  0.5714 -0.4814
  190MOL0     C25526   3.870   7.723   5.833 -0.2161  0.2770  0.3436
  190MOL0     C25527   3.747   7.720   5.916 -0.0325  0.9707  0.0975
  190MOL0     C25528   3.679   7.860   5.950  0.1459  0.6037 -1.4916
  190MOL0     C25529   3.561   7.849   6.047 -0.2057  0.7547  0.7792
  190MOL0     C25530   3.481   7.979   6.046  0.0576 -0.1848 -0.2907
  190MOL0     C25531   3.357   7.962   6.140 -0.5941  0.0881 -0.3066
  190MOL0     N25532   3.254   8.069   6.140 -0.6023  0.2391  0.2270
  190MOL0     C25533   3.209   8.142   6.037  0.8382  0.3809 -0.4116
  190MOL0     C25534   3.145   8.257   6.079 -0.1656  0.1887 -0.3157
  190MOL0     C25535   3.082   8.368   6.006  0.2162  0.4994 -0.3032
  190MOL0     C25536   2.926   8.384   6.019  0.0131 -0.2897  0.7499
  190MOL0     C25537   2.849   8.267   5.948  0.6390  0.4285  0.3760
  190MOL0     C25538   2.709   8.254   6.012 -0.1878  0.3651 -0.2043
  190MOL0     O25539   2.719   8.223   6.159  0.5167  0.1224  0.2832
  190MOL0     C25540   2.710   8.089   6.188 -0.4057 -0.2276  0.3200
  190MOL0     C25541   2.828   8.011   6.176  0.7354 -0.6737  0.1707
  190MOL0     C25542   2.823   7.874   6.207 -0.2102  0.5304 -0.3386
  190MOL0     C25543   2.706   7.812   6.251 -0.0286  0.6321  0.1020
  190MOL0     C25544   2.692   7.664   6.289 -0.9879  0.5899 -0.1108
  190MOL0     O25545   2.566   7.614   6.266 -0.7068 -0.2704  0.1181
  190MOL0     C25546   2.552   7.472   6.285 -0.7013 -0.3605  0.2772
  190MOL0     C25547   2.570   7.408   6.407 -0.0875  0.3745 -0.2501
  190MOL0     C25548   2.529   7.273   6.430 -0.6070 -0.0513 -0.0450
  190MOL0     C25549   2.491   7.198   6.317 -0.6398  0.8921 -0.2418
  190MOL0     O25550   2.501   7.066   6.348 -0.2701  0.1536  0.6000
  190MOL0     C25551   2.446   6.969   6.256  0.9037  0.8248  0.7040
  190MOL0     C25552   2.509   6.841   6.312  0.2064  0.5125 -0.4999
  190MOL0     C25553   2.477   6.715   6.235 -0.2747  0.0397 -0.2935
  190MOL0     C25554   2.582   6.600   6.253 -0.1423 -0.8658  0.0079
  190MOL0     C25555   2.543   6.465   6.194  0.3482  0.4550 -0.3836
  190MOL0     C25556   2.647   6.356   6.203 -0.0900 -1.3089 -0.3221
  190MOL0     C25557   2.591   6.237   6.127  0.1689 -0.3047 -1.3799
  190MOL0     C25558   2.693   6.120   6.129 -0.4588  0.8169 -0.8529
  190MOL0    Cl25559   2.610   5.980   6.064  0.2525 -0.2061  0.0315
  190MOL0     C25560   2.476   7.259   6.197 -0.3772  0.1696  0.5188
  190MOL0     C25561   2.499   7.395   6.182  0.0322  0.2023  0.0895
  190MOL0     O25562   2.791   7.601   6.309  0.2813  0.4661 -0.2314
  190MOL0     C25563   2.593   7.892   6.277 -0.2155  0.5704 -0.2182
  190MOL0     C25564   2.596   8.027   6.242  0.1561  0.3260  0.0634
  190MOL0     N25565   3.150   8.240   6.214  0.5563 -0.0539  0.4813
  190MOL0     N25566   3.214   8.131   6.251  0.5073 -0.2706 -0.5802
  190MOL0     C25567   4.259   7.564   5.546  0.0068 -0.2858  0.1766
  190MOL0     C25568   4.341   7.537   5.446  0.0784  0.4516 -0.0591
  190MOL0     C25569   4.598   7.444   5.149 -0.1135  0.3521  0.1849
  190MOL0     C25570   4.712   7.459   5.229 -0.0469 -0.1082 -0.7750
  190MOL0     C25571   4.834   7.472   5.173 -0.3951 -0.4162  0.2961
  190MOL0     C25572   4.845   7.483   5.033  0.5133  0.2310  0.1830
  190MOL0     O25573   4.961   7.481   4.962  0.2854 -0.0315  0.7901
  190MOL0     C25574   5.063   7.576   4.997 -0.7646  0.1739  0.0394
  190MOL0     C25575   5.188   7.514   5.043 -0.4051  0.8795 -0.1116
  190MOL0     C25576   5.259   7.443   4.935 -0.0524 -1.0293 -0.3742
  190MOL0     C25577   5.266   7.289   4.954 -0.5416 -0.3761  0.0547
  190MOL0     C25578   5.329   7.220   4.846  0.4513  0.2081  0.2608
  190MOL0     C25579   5.365   7.146   4.755 -0.0476  0.3241 -1.1799
  190MOL0     C25580   4.731   7.461   4.956  0.2309 -0.9400 -0.8009
  190MOL0     C25581   4.607   7.436   5.012 -0.1355  0.1321 -0.0591
  190MOL0     C25582   4.497   7.402   4.918 -0.1394 -0.5077  0.4604
  190MOL0     H25583   4.375   7.205   5.485 -0.0256  1.1517 -2.2531
  190MOL0     H25584   4.225   7.260   5.686 -1.2664  0.6687  0.0115
  190MOL0     H25585   4.132   7.697   5.753  2.8853 -1.0013 -2.2953
  190MOL0     H25586   4.023   7.627   5.639 -3.1853 -1.4098  0.8543
  190MOL0     H25587   3.987   7.582   5.942  1.9737 -0.7430 -1.0863
  190MOL0     H25588   3.893   7.508   5.806 -0.8879  1.2723 -0.2368
  190MOL0     H25589   3.855   7.746   5.727  1.3277  2.6772  0.5656
  190MOL0     H25590   3.929   7.811   5.861  0.5379  2.1248 -5.6485
  190MOL0     H25591   3.677   7.662   5.855  2.1392  0.5921 -2.1799
  190MOL0     H25592   3.762   7.653   6.001  0.8084 -2.7774 -2.7551
  190MOL0     H25593   3.759   7.929   5.981  0.0582  0.6023 -1.2593
  190MOL0     H25594   3.628   7.904   5.865  2.7345  2.4904 -2.2100
  190MOL0     H25595   3.507   7.755   6.035  1.3476 -0.0265 -0.5753
  190MOL0     H25596   3.610   7.833   6.144  1.8131 -2.0573 -0.5590
  190MOL0     H25597   3.447   7.996   5.943  1.9319 -1.3744 -1.1798
  190MOL0     H25598   3.544   8.060   6.082  4.0665 -2.2854 -1.8990
  190MOL0     H25599   3.309   7.869   6.110 -2.5304 -0.3695  3.5934
  190MOL0     H25600   3.398   7.938   6.239  0.1606 -4.1181 -1.4792
  190MOL0     H25601   3.243   8.123   5.936  7.2418  0.5109  1.2485
  190MOL0     H25602   3.109   8.461   6.058  2.0208 -0.6064  0.8301
  190MOL0     H25603   3.114   8.358   5.902 -0.7467 -3.5153 -0.3540
  190MOL0     H25604   2.901   8.385   6.126 -1.4470 -1.0697  0.4408
  190MOL0     H25605   2.885   8.472   5.970  0.4277 -0.1598  0.6308
  190MOL0     H25606   2.901   8.171   5.951  0.7039  0.4851  1.0780
  190MOL0     H25607   2.838   8.285   5.840 -0.4315  1.7690  0.6722
  190MOL0     H25608   2.651   8.177   5.959  2.7236 -0.4893 -2.4185
  190MOL0     H25609   2.652   8.345   5.996 -0.1809  0.7317  1.5917
  190MOL0     H25610   2.926   8.051   6.152 -0.1868  2.2383  0.8904
  190MOL0     H25611   2.912   7.815   6.186  0.0213 -0.4323  2.7841
  190MOL0     H25612   2.608   7.452   6.499  0.9060 -3.9414  1.6674
  190MOL0     H25613   2.550   7.228   6.526 -2.8944 -1.6733 -0.1987
  190MOL0     H25614   2.337   6.956   6.253  0.9017  0.2221  2.2151
  190MOL0     H25615   2.484   6.996   6.157 -1.6120  2.0548 -0.0328
  190MOL0     H25616   2.616   6.858   6.328 -0.3958  1.5321  3.8495
  190MOL0     H25617   2.468   6.826   6.412 -2.9974  1.5623 -1.5249
  190MOL0     H25618   2.376   6.682   6.259  0.2249  0.5029  2.8870
  190MOL0     H25619   2.474   6.744   6.130  4.0101  1.0302 -0.3146
  190MOL0     H25620   2.603   6.589   6.360 -1.6858  0.3910  0.4992
  190MOL0     H25621   2.678   6.628   6.209 -0.9993 -0.9387 -1.9942
  190MOL0     H25622   2.517   6.477   6.089 -2.0625  0.8323  0.2034
  190MOL0     H25623   2.455   6.436   6.253 -1.2910  4.2282 -0.6865
  190MOL0     H25624   2.735   6.398   6.154 -1.7921  1.7658 -1.0604
  190MOL0     H25625   2.675   6.313   6.299 -1.3467  1.1446  1.2737
  190MOL0     H25626   2.573   6.261   6.022  2.9041 -0.3043 -1.9253
  190MOL0     H25627   2.504   6.205   6.184  0.2349 -0.3510 -1.3050
  190MOL0     H25628   2.787   6.137   6.075 -0.2139 -2.3784 -1.6283
  190MOL0     H25629   2.707   6.089   6.233 -1.7707 -5.1445 -2.0821
  190MOL0     H25630   2.452   7.194   6.114  1.3406 -3.6590  2.7409
  190MOL0     H25631   2.472   7.425   6.081  0.2091  0.0556 -0.0020
  190MOL0     H25632   2.506   7.845   6.323 -2.5445  1.6244 -3.2427
  190MOL0     H25633   2.506   8.084   6.258  0.8891  1.4103  0.4618
  190MOL0     H25634   4.231   7.668   5.560 -4.3418 -1.3585  0.7760
  190MOL0     H25635   4.393   7.612   5.386 -0.5553 -1.3979 -3.1292
  190MOL0     H25636   4.685   7.456   5.334 -0.1490 -3.0081 -0.7880
  190MOL0     H25637   4.925   7.490   5.228  1.0171  3.1176 -2.7517
  190MOL0     H25638   5.030   7.650   5.070  2.1792  0.3444  1.3496
  190MOL0     H25639   5.082   7.644   4.914 -3.9777  0.2045 -0.8118
  190MOL0     H25640   5.186   7.444   5.127  3.7799  1.7465  0.9182
  190MOL0     H25641   5.252   7.599   5.069 -1.4801  1.5617  0.4100
  190MOL0     H25642   5.357   7.491   4.941 -1.6353  2.5050 -0.3771
  190MOL0     H25643   5.220   7.468   4.836 -1.1309 -2.9591 -0.4794
  190MOL0     H25644   5.329   7.271   5.041 -1.6835 -0.5920  0.8606
  190MOL0     H25645   5.166   7.253   4.982 -2.3232  2.5062 -2.0102
  190MOL0     H25646   5.388   7.085   4.670  0.5012  0.4931 -1.1569
  190MOL0     H25647   4.740   7.490   4.852  2.8780 -0.0370 -0.3940
  190MOL0     H25648   4.429   7.325   4.957  0.4434 -1.6351 -0.6627
  190MOL0     H25649   4.455   7.487   4.864  2.1779 -0.2529 -1.1051
  190MOL0     H25650   4.541   7.354   4.830 -2.0581  0.4524 -1.0804
  191MOL0     O25651  10.012   2.829   4.809 -0.2303  0.0106 -0.1198
  191MOL0     C25652  10.065   2.714   4.805  0.3025  0.2556  0.0534
  191MOL0     O25653  10.089   2.654   4.687 -0.7059  0.1422  0.0482
  191MOL0     C25654  10.065   2.714   4.571 -0.2880 -1.0347 -0.5283
  191MOL0     C25655  10.160   2.787   4.502 -0.3858 -0.6477 -0.8512
  191MOL0     C25656  10.139   2.835   4.373 -0.0092  0.0180  0.0254
  191MOL0     C25657  10.018   2.797   4.308  0.4634 -0.2832  0.1243
  191MOL0     O25658   9.984   2.825   4.175 -1.2940 -0.1990  0.0241
  191MOL0     C25659  10.101   2.832   4.074 -1.2750 -0.3251  0.1371
  191MOL0     C25660  10.056   2.843   3.928 -0.4709 -0.5666  0.2456
  191MOL0     C25661   9.972   2.974   3.912 -0.2072 -0.2201  0.8526
  191MOL0     C25662   9.979   3.028   3.770 -0.7190  0.3531  0.8637
  191MOL0     C25663   9.921   3.165   3.751 -0.6062 -0.3332  0.2210
  191MOL0     C25664   9.854   3.197   3.617  1.7753 -0.1426  1.3710
  191MOL0     C25665   9.815   3.346   3.627 -0.9726  0.2845 -0.4746
  191MOL0     C25666   9.748   3.398   3.495 -0.5637  0.1941 -1.0366
  191MOL0     N25667   9.699   3.534   3.517  0.0072  0.4793 -1.1939
  191MOL0     C25668   9.577   3.582   3.561 -0.5028  0.4816 -0.1904
  191MOL0     C25669   9.591   3.715   3.563 -0.0863  0.6291 -0.0614
  191MOL0     C25670   9.497   3.818   3.603  0.4544 -0.0200 -0.7383
  191MOL0     C25671   9.493   3.835   3.759  0.0957  0.4306 -0.6619
  191MOL0     C25672   9.373   3.926   3.799 -0.0600  0.2120 -0.2903
  191MOL0     C25673   9.348   3.943   3.945  0.6066 -0.1219 -0.1364
  191MOL0     O25674   9.316   3.813   3.998 -0.5207 -0.3621  0.1285
  191MOL0     C25675   9.204   3.737   3.969 -0.1354 -0.2769  1.0749
  191MOL0     C25676   9.191   3.616   4.036  0.1347 -0.6651 -0.0852
  191MOL0     C25677   9.072   3.538   4.033  0.0586 -0.7498 -0.0553
  191MOL0     C25678   8.960   3.572   3.947 -0.6297  0.4117 -0.8336
  191MOL0     C25679   8.856   3.472   3.927 -0.0770 -0.1693 -0.1698
  191MOL0     O25680   8.765   3.489   3.830  0.3553  0.0635  0.2764
  191MOL0     C25681   8.653   3.408   3.820  0.3703 -0.4269  0.6697
  191MOL0     C25682   8.558   3.380   3.924  0.1164 -0.4773  0.5371
  191MOL0     C25683   8.446   3.293   3.904 -0.7775  0.5205  0.2477
  191MOL0     C25684   8.435   3.230   3.777 -0.9967  0.1915 -0.2964
  191MOL0     O25685   8.342   3.136   3.747 -0.2236  0.2765 -0.2067
  191MOL0     C25686   8.306   3.039   3.862 -0.0210  0.3139 -0.5256
  191MOL0     C25687   8.273   2.905   3.797  0.5790  0.1131  1.0674
  191MOL0     C25688   8.145   2.892   3.723 -0.8959 -0.1499 -0.0042
  191MOL0     C25689   8.024   2.952   3.784  0.0357  0.9143  0.1085
  191MOL0     C25690   7.895   2.935   3.697 -0.6789  0.4771  0.0777
  191MOL0     C25691   7.794   3.018   3.769  0.7447 -0.3267 -0.3274
  191MOL0     C25692   7.766   2.974   3.922 -0.4628 -0.5627 -0.3834
  191MOL0     C25693   7.746   2.826   3.939 -0.3734 -1.0815  0.3922
  191MOL0    Cl25694   7.713   2.802   4.114 -0.1445  0.5849  0.0951
  191MOL0     C25695   8.515   3.286   3.675 -0.8953 -0.0814  0.1261
  191MOL0     C25696   8.621   3.371   3.691 -0.7670  0.0420 -0.6372
  191MOL0     O25697   8.850   3.389   4.014 -0.1056  0.1822  0.2793
  191MOL0     C25698   8.983   3.692   3.873 -0.5000 -0.3923 -0.8491
  191MOL0     C25699   9.095   3.775   3.885  0.2812  0.8730 -0.8007
  191MOL0     N25700   9.726   3.752   3.541 -0.4027  0.4435 -0.3666
  191MOL0     N25701   9.786   3.635   3.500 -0.8914  0.2361 -0.0648
  191MOL0     C25702   9.917   2.740   4.379  0.9120  0.5873  0.4262
  191MOL0     C25703   9.944   2.684   4.505  0.4279 -0.3535  0.2662
  191MOL0     C25704  10.110   2.657   4.938  0.3492  0.3166  0.9893
  191MOL0     C25705  10.103   2.734   5.066  0.4089 -0.7343  0.2075
  191MOL0     C25706  10.141   2.671   5.189 -0.5728 -0.0075 -0.3565
  191MOL0     C25707  10.157   2.532   5.184  0.0283  0.4761 -1.6665
  191MOL0     O25708  10.179   2.479   5.311 -0.2702 -0.2578  0.3514
  191MOL0     C25709  10.273   2.382   5.333  0.5566  0.5457  0.2700
  191MOL0     C25710  10.197   2.247   5.353 -0.7927  0.1872  0.1551
  191MOL0     C25711  10.107   2.222   5.471 -0.7876  0.3916 -0.1684
  191MOL0     C25712  10.026   2.090   5.461 -0.8508 -0.2678  0.2893
  191MOL0     C25713   9.928   2.100   5.353  0.6745 -0.5306  0.0051
  191MOL0     C25714   9.844   2.090   5.268 -0.5678 -0.3918 -0.2971
  191MOL0     C25715  10.154   2.458   5.070  0.3045  0.5486  0.5650
  191MOL0     C25716  10.142   2.517   4.945 -1.0676 -0.0837  0.4809
  191MOL0     C25717  10.160   2.423   4.825  0.1388  0.6913  0.0490
  191MOL0     H25718  10.258   2.805   4.545 -0.0115  1.2890 -2.3989
  191MOL0     H25719  10.214   2.898   4.328 -0.7481 -1.0506 -2.9312
  191MOL0     H25720  10.171   2.914   4.092 -1.7872 -0.1647  1.5668
  191MOL0     H25721  10.162   2.741   4.084  1.5717  1.3436 -0.7624
  191MOL0     H25722  10.001   2.751   3.906  1.2356 -1.1617 -1.9480
  191MOL0     H25723  10.144   2.848   3.863 -2.2579  0.2635 -2.2458
  191MOL0     H25724  10.018   3.046   3.980 -0.8579 -2.0962  3.4653
  191MOL0     H25725   9.867   2.956   3.939 -0.2125  1.4424  2.0921
  191MOL0     H25726  10.080   3.029   3.729 -1.6790  1.5438 -1.7417
  191MOL0     H25727   9.918   2.957   3.713  0.2276 -0.6543  1.0896
  191MOL0     H25728   9.845   3.177   3.828  2.6260 -0.0795  3.6473
  191MOL0     H25729   9.996   3.243   3.772 -2.0446  1.5890 -1.3714
  191MOL0     H25730   9.919   3.175   3.532  0.0384 -2.0835  0.4651
  191MOL0     H25731   9.763   3.141   3.593  1.0766  1.5013 -0.0273
  191MOL0     H25732   9.906   3.403   3.646 -0.5805 -0.3635 -0.3751
  191MOL0     H25733   9.746   3.371   3.708 -0.8762  0.1299 -0.3448
  191MOL0     H25734   9.822   3.405   3.415  2.3126 -2.8548  1.0736
  191MOL0     H25735   9.670   3.328   3.462 -1.9858 -0.8044  3.6677
  191MOL0     H25736   9.495   3.522   3.599 -2.7232  4.0997  1.3528
  191MOL0     H25737   9.514   3.909   3.544  1.7263 -1.0215 -1.9965
  191MOL0     H25738   9.404   3.771   3.571  0.4478 -0.1982 -0.4598
  191MOL0     H25739   9.492   3.742   3.818  0.9785 -1.2298 -3.1272
  191MOL0     H25740   9.580   3.896   3.785  1.5086 -2.1910  1.3286
  191MOL0     H25741   9.290   3.876   3.749 -0.8649 -2.1975  3.1474
  191MOL0     H25742   9.373   4.025   3.752 -2.7264  0.6255  0.4382
  191MOL0     H25743   9.266   4.015   3.948  0.0180 -0.7788 -0.1751
  191MOL0     H25744   9.431   3.991   3.998  1.3927 -3.3894  1.9128
  191MOL0     H25745   9.267   3.593   4.111 -1.9508 -0.6690  2.1460
  191MOL0     H25746   9.069   3.455   4.103  0.5555 -1.1292 -0.4804
  191MOL0     H25747   8.576   3.414   4.025  1.0885 -0.9561  0.5317
  191MOL0     H25748   8.379   3.269   3.985  1.9224 -0.5889  2.2942
  191MOL0     H25749   8.393   3.013   3.922 -1.1307 -0.1483  0.9407
  191MOL0     H25750   8.227   3.080   3.926 -0.1125  1.4586 -1.3388
  191MOL0     H25751   8.357   2.858   3.745 -0.3643 -0.9701  0.4786
  191MOL0     H25752   8.251   2.843   3.885 -0.3857  1.1168  1.5651
  191MOL0     H25753   8.156   2.923   3.618 -1.9341 -3.2750 -1.1671
  191MOL0     H25754   8.125   2.787   3.701 -1.3709 -0.3504  1.2889
  191MOL0     H25755   8.029   3.060   3.803 -1.7107  0.7502  1.6728
  191MOL0     H25756   8.016   2.906   3.883 -0.8383 -1.6912 -1.0799
  191MOL0     H25757   7.875   2.828   3.685 -0.1842  0.4698 -0.7687
  191MOL0     H25758   7.913   2.973   3.596  0.1105 -0.1760 -0.0387
  191MOL0     H25759   7.811   3.126   3.764  0.3765 -0.1520  1.5587
  191MOL0     H25760   7.707   3.004   3.704  0.3871  1.0796 -0.1960
  191MOL0     H25761   7.674   3.029   3.944  0.4499  2.5751 -3.4980
  191MOL0     H25762   7.839   3.012   3.994 -1.5180  0.0843  0.3651
  191MOL0     H25763   7.664   2.798   3.872 -1.5406  1.3779  0.6863
  191MOL0     H25764   7.835   2.773   3.902  3.6125  5.9000 -1.9354
  191MOL0     H25765   8.524   3.239   3.577 -0.0153  0.4017 -0.0373
  191MOL0     H25766   8.683   3.387   3.604 -1.3601 -2.5086 -1.6377
  191MOL0     H25767   8.913   3.729   3.799  0.8449  3.5586 -0.3656
  191MOL0     H25768   9.098   3.873   3.839 -1.3592  0.1041 -2.6810
  191MOL0     H25769   9.821   2.725   4.332 -0.8354  2.8269  2.9558
  191MOL0     H25770   9.869   2.621   4.551 -1.6168  1.8874  0.2255
  191MOL0     H25771  10.089   2.841   5.053  0.4156 -0.9539 -2.0147
  191MOL0     H25772  10.162   2.711   5.288  1.3266 -2.5751  0.3735
  191MOL0     H25773  10.316   2.410   5.430 -0.7000  0.9128  0.7369
  191MOL0     H25774  10.349   2.378   5.254 -1.7172 -0.3611 -2.0250
  191MOL0     H25775  10.276   2.177   5.383 -1.5669 -0.9916 -0.5075
  191MOL0     H25776  10.152   2.220   5.258 -2.8076 -0.2245  1.1736
  191MOL0     H25777  10.043   2.309   5.492 -2.2401 -0.4008 -1.1161
  191MOL0     H25778  10.168   2.216   5.561 -0.7598  0.3402 -0.1908
  191MOL0     H25779  10.096   2.007   5.445  4.6969  4.0163 -0.6029
  191MOL0     H25780   9.963   2.083   5.551 -2.4466 -1.6000 -0.8778
  191MOL0     H25781   9.765   2.105   5.197  0.9274  0.0894 -1.9378
  191MOL0     H25782  10.172   2.351   5.067  1.0839  0.6511  1.1577
  191MOL0     H25783  10.247   2.442   4.761  0.5736 -0.6062  0.2262
  191MOL0     H25784  10.185   2.320   4.853  1.7853  1.1263  0.2592
  191MOL0     H25785  10.065   2.416   4.770 -0.8808  1.5829  1.6446
  192MOL0     O25786   7.915   4.844   5.085 -0.9707 -0.2588 -0.6577
  192MOL0     C25787   7.906   4.812   4.968 -0.0803 -0.0481  0.4252
  192MOL0     O25788   7.872   4.683   4.921  0.4328  0.2403  0.2681
  192MOL0     C25789   7.769   4.625   4.990  0.3088  0.4895  1.4157
  192MOL0     C25790   7.767   4.483   4.964  0.0893  0.3127  1.1724
  192MOL0     C25791   7.668   4.411   5.014 -0.0369  0.6537  0.1569
  192MOL0     C25792   7.572   4.464   5.094  0.1725 -0.1880 -0.7768
  192MOL0     O25793   7.492   4.381   5.162 -0.0124 -0.1229  0.6000
  192MOL0     C25794   7.349   4.404   5.161 -0.9962  0.1745  0.1538
  192MOL0     C25795   7.307   4.455   5.304  0.2380  0.2520 -0.0063
  192MOL0     C25796   7.367   4.358   5.418  0.0121  0.0504  0.9596
  192MOL0     C25797   7.296   4.217   5.428 -0.0157 -0.4975 -0.2053
  192MOL0     C25798   7.358   4.121   5.524 -0.2728 -0.7554 -0.6102
  192MOL0     C25799   7.360   4.185   5.666 -0.0449 -0.9083  0.5750
  192MOL0     C25800   7.438   4.084   5.758 -0.5511 -0.5629 -0.3153
  192MOL0     C25801   7.456   4.123   5.904 -0.6649  0.3113  0.7582
  192MOL0     N25802   7.322   4.148   5.963 -0.5550  0.5180 -0.4750
  192MOL0     C25803   7.247   4.050   6.008  0.1853 -0.1637  0.1459
  192MOL0     C25804   7.137   4.117   6.055  0.1163  0.5798  0.0128
  192MOL0     C25805   7.005   4.061   6.094 -0.0638 -0.3589 -0.2554
  192MOL0     C25806   6.902   4.156   6.153  0.7875 -0.2924  0.7761
  192MOL0     C25807   6.772   4.178   6.068  0.0940 -0.5279  0.6294
  192MOL0     C25808   6.654   4.257   6.139 -0.2816 -0.2374  0.9497
  192MOL0     O25809   6.686   4.397   6.152  0.1831 -0.8237  0.2065
  192MOL0     C25810   6.772   4.438   6.251  0.5329 -0.1771 -0.3837
  192MOL0     C25811   6.836   4.558   6.229  0.4348 -0.3497  0.2137
  192MOL0     C25812   6.930   4.607   6.314 -0.3034  1.3492 -1.7859
  192MOL0     C25813   6.940   4.548   6.448  0.4657 -0.0319  1.2733
  192MOL0     C25814   7.034   4.587   6.552 -0.1453 -0.4025 -0.6178
  192MOL0     O25815   7.071   4.722   6.558 -0.8660  0.6889  0.0302
  192MOL0     C25816   7.112   4.765   6.683 -0.1283  0.5115 -1.1359
  192MOL0     C25817   7.034   4.747   6.796  1.4239  0.8520 -0.0949
  192MOL0     C25818   7.079   4.774   6.927  0.3043 -0.7499 -0.9302
  192MOL0     C25819   7.221   4.803   6.937 -0.3150 -0.5247 -0.3368
  192MOL0     O25820   7.258   4.807   7.072 -0.2192 -0.3592  0.6169
  192MOL0     C25821   7.360   4.907   7.107 -0.7350  0.4968  0.3649
  192MOL0     C25822   7.415   4.869   7.247 -0.5782  0.0795  0.8636
  192MOL0     C25823   7.314   4.891   7.359  0.4588  0.4903 -0.0419
  192MOL0     C25824   7.359   4.822   7.491 -0.8813 -1.0089 -1.1306
  192MOL0     C25825   7.277   4.844   7.620  0.0198 -0.5086  0.5486
  192MOL0     C25826   7.245   4.988   7.657  1.3087  0.0072  0.8133
  192MOL0     C25827   7.170   4.987   7.791 -0.1766  0.6406 -0.7796
  192MOL0     C25828   7.264   5.027   7.902  0.2555  1.0092 -0.6296
  192MOL0    Cl25829   7.199   5.020   8.076 -0.1599  0.2850  0.3887
  192MOL0     C25830   7.300   4.817   6.827  0.4037  0.4440 -0.1885
  192MOL0     C25831   7.241   4.804   6.700 -1.2236 -0.7772 -0.4843
  192MOL0     O25832   7.068   4.500   6.639 -0.2266 -1.0882  0.4824
  192MOL0     C25833   6.860   4.430   6.486  0.3155  0.1449  0.1503
  192MOL0     C25834   6.778   4.373   6.385 -0.6249 -0.6561 -0.7898
  192MOL0     N25835   7.156   4.253   6.034  0.4396  0.4384 -0.2051
  192MOL0     N25836   7.271   4.273   5.980  0.0964  0.4970 -0.8349
  192MOL0     C25837   7.565   4.604   5.121  0.0255  0.1475 -0.2219
  192MOL0     C25838   7.666   4.678   5.067  0.0039  0.1459  0.7328
  192MOL0     C25839   7.943   4.911   4.860 -0.4608  0.7239  0.0265
  192MOL0     C25840   7.915   4.879   4.725 -1.0443  0.6770 -0.5187
  192MOL0     C25841   7.953   4.962   4.616  0.3148 -0.1144 -1.1642
  192MOL0     C25842   8.027   5.077   4.635  0.2918  0.5613  0.1494
  192MOL0     O25843   8.062   5.145   4.519 -0.5973  0.0822 -0.1974
  192MOL0     C25844   8.174   5.242   4.533  0.6537  0.3153 -0.5136
  192MOL0     C25845   8.217   5.299   4.395  0.5150 -0.0918 -1.0805
  192MOL0     C25846   8.093   5.352   4.320  0.1037  0.1164 -0.4127
  192MOL0     C25847   8.113   5.429   4.192  0.3838  0.5507  0.4690
  192MOL0     C25848   7.985   5.462   4.135  1.2561 -0.5248 -0.2524
  192MOL0     C25849   7.873   5.497   4.098  0.5850 -0.4441  0.3447
  192MOL0     C25850   8.047   5.112   4.767  0.9703  0.0010 -0.3909
  192MOL0     C25851   8.010   5.034   4.883  0.3013 -0.6741  0.2985
  192MOL0     C25852   8.057   5.085   5.020  0.5120  0.0761 -0.0655
  192MOL0     H25853   7.837   4.449   4.888 -1.3051 -0.6452  0.2643
  192MOL0     H25854   7.663   4.306   4.986 -0.3355  1.0457 -1.3207
  192MOL0     H25855   7.326   4.480   5.085  2.3742 -1.3761 -2.7110
  192MOL0     H25856   7.300   4.308   5.146  3.2438 -3.5284  5.8782
  192MOL0     H25857   7.197   4.454   5.300  0.2608 -1.5622 -0.7922
  192MOL0     H25858   7.344   4.556   5.323 -2.6101  1.5369 -0.6546
  192MOL0     H25859   7.368   4.418   5.509 -1.4285  2.0887 -0.2662
  192MOL0     H25860   7.472   4.333   5.401 -0.3736 -1.4419  0.5859
  192MOL0     H25861   7.199   4.245   5.469 -0.6380  0.1247 -2.0037
  192MOL0     H25862   7.276   4.177   5.328 -2.2291  1.8539 -0.8057
  192MOL0     H25863   7.296   4.031   5.529 -1.1124 -0.3090 -2.1752
  192MOL0     H25864   7.458   4.088   5.494 -0.8283 -3.8399  0.5662
  192MOL0     H25865   7.401   4.285   5.675  1.7546 -1.7978  3.5952
  192MOL0     H25866   7.258   4.204   5.701  0.2595  1.3603  0.3247
  192MOL0     H25867   7.538   4.068   5.717 -1.4909 -0.9039 -2.5659
  192MOL0     H25868   7.390   3.986   5.757  0.7996 -1.3724 -4.4799
  192MOL0     H25869   7.509   4.046   5.960 -1.6684  0.3357  1.7901
  192MOL0     H25870   7.519   4.211   5.920  1.1712 -1.0539  1.3520
  192MOL0     H25871   7.244   3.941   6.009 -0.0203 -0.1699 -0.4403
  192MOL0     H25872   6.958   4.003   6.014 -1.8373  0.6914 -0.0398
  192MOL0     H25873   7.025   3.989   6.173 -1.8508 -0.0864  0.4870
  192MOL0     H25874   6.858   4.111   6.243 -2.5899  1.7224  0.3227
  192MOL0     H25875   6.949   4.251   6.182 -0.4953  0.3480  0.8279
  192MOL0     H25876   6.738   4.084   6.025 -2.7227  0.6453  0.0728
  192MOL0     H25877   6.794   4.234   5.977  0.1547 -2.2848 -0.4818
  192MOL0     H25878   6.640   4.220   6.242  1.0847 -0.0026  1.2382
  192MOL0     H25879   6.559   4.254   6.084  0.9607  1.6631 -1.4711
  192MOL0     H25880   6.825   4.621   6.141  0.7248 -1.5874 -0.7448
  192MOL0     H25881   6.992   4.696   6.304  1.9446  0.3628  1.6632
  192MOL0     H25882   6.934   4.709   6.781  0.7028  2.9184 -0.8234
  192MOL0     H25883   7.015   4.783   7.014  1.0268 -2.2431 -0.2234
  192MOL0     H25884   7.437   4.895   7.031 -0.1924 -0.4780  1.0380
  192MOL0     H25885   7.338   5.014   7.104  0.3547  0.7379  0.4876
  192MOL0     H25886   7.455   4.768   7.255 -0.1016  0.0897 -1.1097
  192MOL0     H25887   7.495   4.938   7.273  0.2045 -1.7296  3.7478
  192MOL0     H25888   7.324   4.996   7.388 -2.9588  0.2142  2.7662
  192MOL0     H25889   7.208   4.870   7.344  0.7759 -0.5127 -1.0003
  192MOL0     H25890   7.459   4.860   7.512 -2.0380  1.2203  0.8439
  192MOL0     H25891   7.363   4.714   7.479 -0.8548 -1.1118 -0.2690
  192MOL0     H25892   7.334   4.790   7.697 -0.2253 -2.4022 -0.5366
  192MOL0     H25893   7.185   4.789   7.599  0.7722 -0.6028 -3.1654
  192MOL0     H25894   7.331   5.055   7.666 -1.2755  3.8526 -0.7868
  192MOL0     H25895   7.185   5.040   7.583 -0.4075 -1.0807  1.3843
  192MOL0     H25896   7.130   4.889   7.820  0.6393  1.1167  2.3643
  192MOL0     H25897   7.080   5.049   7.792 -2.0362 -1.8863 -1.3120
  192MOL0     H25898   7.350   4.960   7.898 -1.8838 -1.8630 -2.0418
  192MOL0     H25899   7.312   5.123   7.884  0.9549  0.5629 -1.2009
  192MOL0     H25900   7.408   4.825   6.836  0.9490 -1.4905 -3.4072
  192MOL0     H25901   7.300   4.813   6.610  1.3163 -2.3274  0.9315
  192MOL0     H25902   6.856   4.388   6.586 -0.2946  1.0794  0.5387
  192MOL0     H25903   6.708   4.295   6.413 -1.8318  0.3271 -1.0093
  192MOL0     H25904   7.487   4.646   5.183 -0.8027 -0.0949 -1.0791
  192MOL0     H25905   7.671   4.787   5.076 -0.7784  0.2433  0.1088
  192MOL0     H25906   7.856   4.792   4.698 -0.0654 -2.1425  5.0816
  192MOL0     H25907   7.928   4.935   4.514 -4.0998  0.4086 -0.4141
  192MOL0     H25908   8.258   5.196   4.585 -0.3728 -1.8530 -0.6796
  192MOL0     H25909   8.138   5.329   4.589 -1.5651  1.3223 -3.2230
  192MOL0     H25910   8.277   5.226   4.339  2.3514 -0.9209  1.7317
  192MOL0     H25911   8.288   5.382   4.408 -0.2626  0.6783 -1.6161
  192MOL0     H25912   8.036   5.418   4.386 -0.7153 -0.7112 -0.2697
  192MOL0     H25913   8.029   5.267   4.295 -1.8125  1.4396 -0.2252
  192MOL0     H25914   8.165   5.523   4.209  2.5545 -0.8891  2.3849
  192MOL0     H25915   8.183   5.383   4.122  1.6790  0.2090  1.9373
  192MOL0     H25916   7.786   5.529   4.043 -0.2371 -2.0888  0.6105
  192MOL0     H25917   8.102   5.201   4.794 -0.8849  0.8140  0.9421
  192MOL0     H25918   7.974   5.061   5.088  0.9039 -1.4522 -0.0920
  192MOL0     H25919   8.147   5.035   5.058  0.4346  0.0655  0.1023
  192MOL0     H25920   8.070   5.193   5.022 -0.9388  0.2764  2.2965
  193MOL0     O25921   7.349   3.949   7.533  0.1303  0.3808 -0.2654
  193MOL0     C25922   7.452   3.982   7.578  1.0960 -1.5844 -0.8615
  193MOL0     O25923   7.471   4.097   7.652 -0.3404 -0.7081 -0.9419
  193MOL0     C25924   7.364   4.184   7.668  0.6637  0.3086 -1.4299
  193MOL0     C25925   7.323   4.267   7.564  0.0968  0.0889  0.6172
  193MOL0     C25926   7.211   4.350   7.582  0.0794  0.4493 -0.0120
  193MOL0     C25927   7.153   4.369   7.707 -1.3195 -0.4515  0.1615
  193MOL0     O25928   7.056   4.456   7.726  0.0262  0.3584  0.1548
  193MOL0     C25929   7.074   4.562   7.817  0.2759  0.3017 -0.5096
  193MOL0     C25930   6.995   4.528   7.948 -0.1647  0.0749  0.2216
  193MOL0     C25931   6.845   4.542   7.925  0.2773  0.3705 -0.5985
  193MOL0     C25932   6.763   4.501   8.053  0.5166 -0.5062 -0.0260
  193MOL0     C25933   6.724   4.633   8.114 -0.1228  1.0195  0.0420
  193MOL0     C25934   6.674   4.604   8.257  0.2582 -0.2719  0.1647
  193MOL0     C25935   6.643   4.727   8.343  0.1393 -0.4524  0.2426
  193MOL0     C25936   6.568   4.703   8.478  0.7420 -0.6236  0.3503
  193MOL0     N25937   6.657   4.654   8.573 -0.0510 -0.1768 -0.3932
  193MOL0     C25938   6.661   4.521   8.607 -0.1288  0.9512  0.9393
  193MOL0     C25939   6.754   4.504   8.709  0.2349  0.7023 -0.2673
  193MOL0     C25940   6.796   4.378   8.788  0.2716 -0.6783  0.9201
  193MOL0     C25941   6.675   4.279   8.798 -1.0520 -0.3627  0.1837
  193MOL0     C25942   6.593   4.317   8.922 -0.1798  0.0841  0.1064
  193MOL0     C25943   6.468   4.232   8.939  0.5436  1.0743  0.3447
  193MOL0     O25944   6.368   4.247   8.834  0.5586 -0.0033  0.7456
  193MOL0     C25945   6.298   4.143   8.778 -0.2131  0.5642  0.9736
  193MOL0     C25946   6.358   4.026   8.730 -0.6701  0.0315  1.1507
  193MOL0     C25947   6.289   3.925   8.661 -0.2068 -0.9144 -0.2206
  193MOL0     C25948   6.156   3.955   8.623  0.7539 -0.0778 -0.2611
  193MOL0     C25949   6.079   3.857   8.543 -0.5068 -1.1867 -0.0044
  193MOL0     O25950   6.102   3.725   8.570  0.2642  0.1665  0.5888
  193MOL0     C25951   6.068   3.627   8.481 -0.1231 -0.8161 -0.1566
  193MOL0     C25952   6.088   3.644   8.346 -0.3372  0.1328 -0.7672
  193MOL0     C25953   6.067   3.536   8.259 -0.4546 -1.1412  1.1645
  193MOL0     C25954   6.012   3.417   8.307  0.2774  0.8607 -0.4280
  193MOL0     O25955   5.997   3.297   8.247  0.5876  0.6286  0.1847
  193MOL0     C25956   5.986   3.307   8.105 -0.0904  0.6763 -1.1718
  193MOL0     C25957   5.928   3.168   8.061 -0.0602  0.9507  0.1763
  193MOL0     C25958   6.023   3.052   8.109  1.2714  0.4075 -0.3825
  193MOL0     C25959   6.170   3.030   8.065 -0.2245  0.2269 -0.4192
  193MOL0     C25960   6.226   2.902   8.136  0.9230  0.9578  0.2621
  193MOL0     C25961   6.325   2.924   8.248 -0.4562 -0.1663  0.2844
  193MOL0     C25962   6.280   3.000   8.372 -0.4003 -0.0001 -0.1381
  193MOL0     C25963   6.259   2.911   8.495  0.0358 -0.0424 -0.8735
  193MOL0    Cl25964   6.421   2.892   8.571 -0.2000  0.1398  0.2020
  193MOL0     C25965   5.990   3.398   8.444  0.2436 -0.5071  0.5206
  193MOL0     C25966   6.034   3.503   8.529 -0.2191  0.3067 -0.7599
  193MOL0     O25967   6.023   3.903   8.443 -0.1271  0.5230  0.3867
  193MOL0     C25968   6.092   4.075   8.675  0.1847 -0.4425  0.7375
  193MOL0     C25969   6.166   4.166   8.751 -0.6706  1.0361  1.0136
  193MOL0     N25970   6.791   4.638   8.738  0.8369 -0.0441 -1.0156
  193MOL0     N25971   6.724   4.723   8.668 -0.4106  0.3132 -0.4668
  193MOL0     C25972   7.196   4.292   7.810  1.2309 -0.0450  0.4988
  193MOL0     C25973   7.292   4.199   7.791 -0.0407  0.0525 -0.2525
  193MOL0     C25974   7.570   3.901   7.575 -0.0599  0.0107 -0.5387
  193MOL0     C25975   7.694   3.973   7.551 -0.1259  0.1802  0.0512
  193MOL0     C25976   7.803   3.903   7.505  0.6262 -0.8952 -0.6408
  193MOL0     C25977   7.800   3.760   7.492 -1.0994  0.7415 -0.7839
  193MOL0     O25978   7.922   3.704   7.461 -0.6080  0.1100  0.0302
  193MOL0     C25979   7.908   3.613   7.352 -0.1837 -0.3044 -0.2804
  193MOL0     C25980   8.047   3.592   7.289 -0.0692  0.6340 -0.0966
  193MOL0     C25981   8.120   3.719   7.261 -0.0160 -0.2978 -0.3354
  193MOL0     C25982   8.260   3.682   7.224 -0.7072 -0.3285  0.4253
  193MOL0     C25983   8.323   3.813   7.176  0.1841 -0.7791  0.7693
  193MOL0     C25984   8.358   3.914   7.108  0.1736  0.5211  0.1777
  193MOL0     C25985   7.691   3.693   7.534 -0.8583 -0.0383  0.0496
  193MOL0     C25986   7.570   3.762   7.576 -0.3242 -1.0548  0.4555
  193MOL0     C25987   7.466   3.668   7.607  0.0670 -0.5991  0.7091
  193MOL0     H25988   7.374   4.255   7.469  0.8916  1.1984  0.8820
  193MOL0     H25989   7.167   4.391   7.491  0.6665 -3.6122 -2.3542
  193MOL0     H25990   7.179   4.585   7.836 -0.6916  3.7157  1.5980
  193MOL0     H25991   7.041   4.660   7.781  0.4271  0.7865  0.6405
  193MOL0     H25992   7.019   4.607   8.019  3.6777  1.0183 -1.8176
  193MOL0     H25993   7.016   4.438   8.006 -3.9144 -0.5042  0.9162
  193MOL0     H25994   6.803   4.483   7.843  0.5716 -0.8557  0.1202
  193MOL0     H25995   6.833   4.649   7.906  0.0291  0.3129 -0.7772
  193MOL0     H25996   6.683   4.431   8.030 -1.2655  1.3710  0.1132
  193MOL0     H25997   6.827   4.460   8.131 -0.3393  0.2612  1.1086
  193MOL0     H25998   6.804   4.707   8.118 -1.4880  2.6762 -1.2748
  193MOL0     H25999   6.646   4.676   8.049  0.1254 -0.5037 -1.3264
  193MOL0     H26000   6.582   4.547   8.243 -0.1966  0.3658  0.5099
  193MOL0     H26001   6.750   4.540   8.302  0.6690 -0.9240 -1.3767
  193MOL0     H26002   6.584   4.795   8.280 -0.5080 -1.7480 -0.6049
  193MOL0     H26003   6.732   4.786   8.366 -0.6830  1.2724 -0.8243
  193MOL0     H26004   6.533   4.804   8.502  1.5003 -0.0538 -0.8046
  193MOL0     H26005   6.479   4.640   8.472  1.4181 -1.5435 -0.3490
  193MOL0     H26006   6.620   4.436   8.553  1.2933  0.3503  0.7492
  193MOL0     H26007   6.888   4.340   8.743  0.8176 -1.6557  2.7427
  193MOL0     H26008   6.813   4.421   8.888  3.1778  2.5847 -0.7174
  193MOL0     H26009   6.609   4.283   8.712  2.4764 -0.2224 -2.7765
  193MOL0     H26010   6.709   4.175   8.804 -1.3343 -0.4089  1.1261
  193MOL0     H26011   6.550   4.415   8.901 -4.5732 -1.4902  0.6646
  193MOL0     H26012   6.649   4.328   9.015 -2.6059  1.2876  1.5490
  193MOL0     H26013   6.419   4.262   9.032 -2.8017 -1.1703 -0.4965
  193MOL0     H26014   6.494   4.126   8.940  0.7663  1.1269  0.2627
  193MOL0     H26015   6.462   4.007   8.751 -0.3246 -1.1875 -1.2663
  193MOL0     H26016   6.342   3.838   8.624  0.8599 -0.4415  0.1358
  193MOL0     H26017   6.121   3.742   8.314 -1.1479  0.9528  0.7981
  193MOL0     H26018   6.083   3.557   8.154  0.9336 -2.6423  1.0334
  193MOL0     H26019   5.909   3.383   8.085 -2.7571 -1.4345  0.4299
  193MOL0     H26020   6.083   3.336   8.062  0.4010  1.2360  0.2750
  193MOL0     H26021   5.837   3.137   8.113  0.8118  1.2085  1.9185
  193MOL0     H26022   5.917   3.151   7.953  4.4931  1.1442 -0.5291
  193MOL0     H26023   6.035   3.070   8.216 -0.1140  2.1026 -0.4758
  193MOL0     H26024   5.961   2.965   8.082  2.5932  0.7467 -5.6467
  193MOL0     H26025   6.242   3.108   8.091 -0.5764  0.0575  1.2323
  193MOL0     H26026   6.171   3.009   7.958 -0.0415 -0.0552 -0.3659
  193MOL0     H26027   6.277   2.843   8.060  1.2666  1.7229 -0.1131
  193MOL0     H26028   6.143   2.844   8.176  0.5873  0.5144 -1.0446
  193MOL0     H26029   6.340   2.827   8.295  2.2747  1.2452  2.6684
  193MOL0     H26030   6.426   2.941   8.208 -0.3359 -4.4071 -1.8119
  193MOL0     H26031   6.181   3.045   8.355  0.1520  0.6132 -2.0314
  193MOL0     H26032   6.360   3.073   8.385 -2.1564  2.9755 -3.8791
  193MOL0     H26033   6.194   2.956   8.571  0.0974 -2.9380  1.0885
  193MOL0     H26034   6.220   2.812   8.468  2.6022 -0.7662 -2.2387
  193MOL0     H26035   5.974   3.299   8.485  1.1454 -1.2514 -0.8248
  193MOL0     H26036   6.043   3.480   8.635 -0.5518 -1.9581 -1.1815
  193MOL0     H26037   5.989   4.102   8.653  0.9241  1.0696 -1.1352
  193MOL0     H26038   6.113   4.259   8.767 -4.4899  0.2276 -4.1622
  193MOL0     H26039   7.136   4.291   7.901 -0.0755 -1.1440 -0.3426
  193MOL0     H26040   7.325   4.138   7.874  1.6674 -0.6795 -1.4075
  193MOL0     H26041   7.714   4.079   7.558 -0.5495  0.3316 -0.8687
  193MOL0     H26042   7.900   3.950   7.492  0.2556  0.8379  2.0688
  193MOL0     H26043   7.848   3.650   7.268 -0.7450  2.7296  1.2921
  193MOL0     H26044   7.868   3.517   7.386  0.7429  0.1940  2.4052
  193MOL0     H26045   8.042   3.528   7.200  0.8003 -3.3784  2.4987
  193MOL0     H26046   8.111   3.535   7.356  2.0631  2.9046 -0.0549
  193MOL0     H26047   8.110   3.783   7.349 -2.7394 -2.7259  1.3074
  193MOL0     H26048   8.076   3.766   7.172  2.0371  1.1087 -0.6838
  193MOL0     H26049   8.311   3.660   7.318 -0.9931 -2.5019  0.1084
  193MOL0     H26050   8.257   3.603   7.149  1.2412 -0.0010 -0.0467
  193MOL0     H26051   8.382   3.997   7.045 -0.8194 -0.1338 -1.1103
  193MOL0     H26052   7.686   3.585   7.523 -1.5543 -0.0628  0.5333
  193MOL0     H26053   7.399   3.710   7.683  3.1941  4.3226  1.2577
  193MOL0     H26054   7.399   3.636   7.527 -0.6751  1.7186  0.3276
  193MOL0     H26055   7.519   3.582   7.649  0.7601  0.4459  2.0544
  194MOL0     O26056   8.754   2.168  11.264  0.0034 -0.6950  0.2664
  194MOL0     C26057   8.716   2.072  11.330 -0.5856  0.6698 -0.2067
  194MOL0     O26058   8.688   1.940  11.273 -0.0665 -0.1440 -0.0604
  194MOL0     C26059   8.707   1.930  11.139  0.9858  0.5833 -0.0698
  194MOL0     C26060   8.812   1.854  11.093  0.8312  0.5346 -0.7282
  194MOL0     C26061   8.838   1.845  10.956 -0.3174 -0.2949  0.1308
  194MOL0     C26062   8.777   1.933  10.868 -0.8029  0.3136  1.0762
  194MOL0     O26063   8.822   1.979  10.747 -0.4979  0.1364 -0.4015
  194MOL0     C26064   8.840   1.869  10.655  1.0278 -0.1441 -0.5112
  194MOL0     C26065   8.973   1.893  10.597  0.4652 -0.7491 -0.2522
  194MOL0     C26066   9.024   1.785  10.502  0.0174  0.2996 -0.0952
  194MOL0     C26067   9.088   1.852  10.374  0.1343 -0.2050 -0.4395
  194MOL0     C26068   9.153   1.759  10.278 -0.3914 -0.2274 -0.3267
  194MOL0     C26069   9.199   1.834  10.142  0.4383  0.3137 -0.8012
  194MOL0     C26070   9.101   1.927  10.072  0.1399 -0.7934 -0.5576
  194MOL0     C26071   9.142   1.968   9.933  0.6654  0.4341  0.7413
  194MOL0     N26072   9.027   2.033   9.868  0.4580 -0.5785 -0.4977
  194MOL0     C26073   8.926   1.969   9.802  0.6383 -0.4781  0.0522
  194MOL0     C26074   8.845   2.078   9.767  0.0294  0.1857  0.6325
  194MOL0     C26075   8.706   2.047   9.709 -0.3223  0.4487  0.3480
  194MOL0     C26076   8.715   2.034   9.560  0.2462 -0.3935  0.3865
  194MOL0     C26077   8.576   1.974   9.511  0.1003  0.1342 -0.2329
  194MOL0     C26078   8.576   1.946   9.360 -0.1129 -0.0804  0.0573
  194MOL0     O26079   8.546   2.074   9.299 -0.0963 -0.8595  0.2964
  194MOL0     C26080   8.540   2.083   9.160 -0.3738  0.0220  0.7806
  194MOL0     C26081   8.500   2.210   9.111  0.4008 -0.6716 -0.0338
  194MOL0     C26082   8.497   2.236   8.973  0.0479 -0.2457 -1.0534
  194MOL0     C26083   8.532   2.137   8.878 -0.2750 -0.3351  0.9109
  194MOL0     C26084   8.521   2.151   8.740 -0.9862  0.7021  0.9064
  194MOL0     O26085   8.585   2.064   8.646 -0.3154 -0.8505 -0.5523
  194MOL0     C26086   8.578   2.086   8.512 -0.2525 -0.1736 -0.0608
  194MOL0     C26087   8.462   2.062   8.440  0.1893  0.9771 -0.5008
  194MOL0     C26088   8.461   2.107   8.306  0.2624 -0.5510  0.5195
  194MOL0     C26089   8.564   2.192   8.249 -0.1371  0.0049 -0.1454
  194MOL0     O26090   8.566   2.240   8.116  0.1205  0.5815 -0.4568
  194MOL0     C26091   8.501   2.160   8.022 -0.0931 -1.4709 -0.4042
  194MOL0     C26092   8.546   2.185   7.878 -0.9069  0.4399  0.5597
  194MOL0     C26093   8.697   2.149   7.839 -0.0180 -0.2994 -0.6691
  194MOL0     C26094   8.721   2.160   7.686  0.4168 -0.1281  0.3976
  194MOL0     C26095   8.861   2.119   7.644  0.2327 -0.2071  0.2464
  194MOL0     C26096   8.893   2.167   7.498 -0.2396  0.0470 -0.1244
  194MOL0     C26097   8.992   2.295   7.487 -0.1737  0.5105  0.1350
  194MOL0     C26098   9.071   2.286   7.359 -0.3540 -0.2683 -0.4318
  194MOL0    Cl26099   9.160   2.438   7.357 -0.2723  0.0258 -0.0185
  194MOL0     C26100   8.679   2.223   8.331  0.2239 -0.0869  0.3869
  194MOL0     C26101   8.690   2.162   8.455 -0.5940 -0.8642 -1.1770
  194MOL0     O26102   8.469   2.251   8.702  0.1316  0.3180 -0.7586
  194MOL0     C26103   8.567   2.015   8.922  0.1968  0.6378  0.0049
  194MOL0     C26104   8.572   1.985   9.063  0.5208  0.6038 -0.2763
  194MOL0     N26105   8.903   2.195   9.813  0.0087 -0.0245 -0.3303
  194MOL0     N26106   9.007   2.165   9.885  0.5925 -0.8335 -0.1710
  194MOL0     C26107   8.664   1.998  10.911  0.1771 -0.3227 -0.8002
  194MOL0     C26108   8.626   1.995  11.049 -0.4204 -0.0826  0.3980
  194MOL0     C26109   8.681   2.110  11.468  0.4055 -0.2895  0.1033
  194MOL0     C26110   8.598   2.021  11.527 -0.2862  0.5862  0.2982
  194MOL0     C26111   8.567   2.035  11.661 -0.2745 -1.0377  0.7203
  194MOL0     C26112   8.626   2.136  11.736 -0.3751 -0.4819  0.1702
  194MOL0     O26113   8.607   2.144  11.873 -0.3891 -0.0671  0.0977
  194MOL0     C26114   8.481   2.102  11.933 -0.8556  0.0649 -0.3043
  194MOL0     C26115   8.519   2.050  12.080 -0.0693  0.2981 -0.4064
  194MOL0     C26116   8.581   1.908  12.067  0.2814  0.7297  0.0217
  194MOL0     C26117   8.651   1.858  12.196  0.6731  0.6538 -0.4166
  194MOL0     C26118   8.553   1.815  12.296 -0.3805 -0.0076 -1.0610
  194MOL0     C26119   8.492   1.760  12.386 -0.4535 -0.0438  0.1345
  194MOL0     C26120   8.708   2.227  11.669 -0.0091 -0.2597  0.6806
  194MOL0     C26121   8.741   2.219  11.540  0.2327  0.4357  0.3672
  194MOL0     C26122   8.843   2.318  11.486 -0.1726 -0.2191 -0.4931
  194MOL0     H26123   8.875   1.792  11.156  0.8089 -4.0259 -4.5561
  194MOL0     H26124   8.910   1.783  10.903  1.2008  0.1507  1.5769
  194MOL0     H26125   8.838   1.771  10.705  0.1536 -0.0302 -0.3142
  194MOL0     H26126   8.762   1.868  10.578 -0.3294  2.2346  0.7413
  194MOL0     H26127   9.032   1.904  10.689 -0.9714  0.6869  0.5540
  194MOL0     H26128   8.970   1.984  10.538 -2.9978  1.4951  2.9268
  194MOL0     H26129   8.955   1.702  10.486  1.1949 -0.7395  0.0785
  194MOL0     H26130   9.110   1.739  10.551  1.9795  4.9150  1.2974
  194MOL0     H26131   9.004   1.904  10.328 -1.4955 -0.7843  1.7112
  194MOL0     H26132   9.154   1.936  10.397 -0.2986 -0.2005  0.9039
  194MOL0     H26133   9.228   1.691  10.319 -1.0949 -1.7907 -1.5453
  194MOL0     H26134   9.082   1.678  10.258 -0.3903 -0.5621  0.9443
  194MOL0     H26135   9.295   1.881  10.164  2.1554 -3.5233  0.7035
  194MOL0     H26136   9.238   1.758  10.073  1.1979  2.0511 -2.3817
  194MOL0     H26137   9.095   2.018  10.132  0.6217 -1.0502 -0.1071
  194MOL0     H26138   8.998   1.892  10.077 -2.2228  5.0901  0.2093
  194MOL0     H26139   9.234   2.026   9.943  0.5046  0.9254 -0.4973
  194MOL0     H26140   9.173   1.881   9.875  3.8123  0.2601  2.4463
  194MOL0     H26141   8.908   1.863   9.793 -4.0167  0.2258 -1.8634
  194MOL0     H26142   8.665   1.962   9.764  0.1658  0.4427  0.7034
  194MOL0     H26143   8.639   2.134   9.714 -0.4878  0.3092  0.5768
  194MOL0     H26144   8.734   2.131   9.513 -1.9369 -0.8771 -1.7005
  194MOL0     H26145   8.796   1.966   9.535  0.9739  0.5816  0.0201
  194MOL0     H26146   8.485   2.028   9.536  1.4469  1.6676  1.6625
  194MOL0     H26147   8.571   1.874   9.554  0.2073  0.4763  0.5805
  194MOL0     H26148   8.502   1.870   9.331  0.0640 -0.8823  1.6252
  194MOL0     H26149   8.671   1.897   9.332 -0.7025 -0.5833 -1.1569
  194MOL0     H26150   8.474   2.283   9.187  1.4069  1.5938 -1.7419
  194MOL0     H26151   8.465   2.333   8.937 -2.3674 -0.5349  0.1524
  194MOL0     H26152   8.382   2.009   8.490  3.4419 -1.7446  2.2454
  194MOL0     H26153   8.380   2.081   8.238  0.4481 -0.5819  0.3090
  194MOL0     H26154   8.520   2.055   8.048  0.5142 -1.3885 -0.5233
  194MOL0     H26155   8.392   2.176   8.025  0.0833  0.2508 -1.7580
  194MOL0     H26156   8.482   2.122   7.816  0.3545 -2.0271  1.6245
  194MOL0     H26157   8.527   2.289   7.847  0.8473  0.8704  0.8215
  194MOL0     H26158   8.758   2.222   7.892 -0.5724 -0.8085  0.7062
  194MOL0     H26159   8.716   2.044   7.865 -3.4916 -0.5114  1.4997
  194MOL0     H26160   8.691   2.258   7.650 -1.1071 -0.6638  0.1410
  194MOL0     H26161   8.650   2.101   7.628 -0.7971  2.3266 -0.7722
  194MOL0     H26162   8.875   2.011   7.656  0.8004 -0.0921  0.6361
  194MOL0     H26163   8.934   2.161   7.714  1.1209  0.4627 -1.0420
  194MOL0     H26164   8.934   2.087   7.436 -0.5115 -2.3680  2.5939
  194MOL0     H26165   8.799   2.183   7.445  0.0013  3.8669  0.3182
  194MOL0     H26166   9.063   2.308   7.569  0.7399  0.3431 -0.6064
  194MOL0     H26167   8.934   2.387   7.485  0.4315  1.0179  2.6708
  194MOL0     H26168   9.134   2.196   7.355 -0.5994 -0.5482  1.3000
  194MOL0     H26169   9.011   2.279   7.268  2.6225 -0.0034 -2.5758
  194MOL0     H26170   8.747   2.295   8.288  0.2098  1.0621  2.1796
  194MOL0     H26171   8.789   2.166   8.500 -2.0770 -3.9271  2.9326
  194MOL0     H26172   8.599   1.931   8.860  0.5990  1.9117 -1.5878
  194MOL0     H26173   8.597   1.886   9.101  2.0949 -0.1070 -2.8849
  194MOL0     H26174   8.607   2.060  10.842 -0.5579 -0.5973 -0.4457
  194MOL0     H26175   8.538   2.054  11.075 -0.6265 -0.0284 -0.3823
  194MOL0     H26176   8.544   1.945  11.471 -0.7002  1.5068 -0.5757
  194MOL0     H26177   8.492   1.965  11.696 -0.7301  0.4675  2.9826
  194MOL0     H26178   8.419   2.031  11.877 -1.7365  0.7389 -0.2030
  194MOL0     H26179   8.420   2.191  11.949  0.2876  0.7431  0.4375
  194MOL0     H26180   8.427   2.040  12.138 -0.1022 -0.4233 -0.5756
  194MOL0     H26181   8.598   2.101  12.137  0.5076 -2.6177  1.6021
  194MOL0     H26182   8.656   1.899  11.988  0.0965  1.1805 -0.2143
  194MOL0     H26183   8.496   1.843  12.044  0.8216 -0.1607  0.5228
  194MOL0     H26184   8.721   1.779  12.168 -1.0802 -0.8832 -0.5996
  194MOL0     H26185   8.711   1.938  12.241 -0.9585  1.9723 -0.4899
  194MOL0     H26186   8.440   1.715  12.468 -1.6617  0.2177 -0.4584
  194MOL0     H26187   8.749   2.298  11.741 -1.2727  2.4618 -1.1209
  194MOL0     H26188   8.925   2.268  11.434 -1.2862  1.0678 -3.6863
  194MOL0     H26189   8.800   2.387  11.414 -0.6254  0.8961  0.7953
  194MOL0     H26190   8.883   2.371  11.573 -1.3026 -5.7644  4.0707
  195MOL0     O26191   8.269  11.371   2.447 -0.2148 -0.3035  0.0255
  195MOL0     C26192   8.317  11.331   2.344  0.7253 -0.5631  0.0040
  195MOL0     O26193   8.297  11.384   2.224  0.4023  0.0848  0.0078
  195MOL0     C26194   8.239  11.509   2.219 -0.2627 -0.7015  0.3977
  195MOL0     C26195   8.318  11.624   2.244 -0.1023 -0.3574 -0.1765
  195MOL0     C26196   8.260  11.749   2.229 -0.0548  0.7323  0.6993
  195MOL0     C26197   8.122  11.765   2.217  1.1146  0.0057  0.2924
  195MOL0     O26198   8.062  11.894   2.207  0.5178  0.5584 -0.1527
  195MOL0     C26199   8.140  12.003   2.266  0.1067 -0.4364  0.0199
  195MOL0     C26200   8.036  12.123   2.293  1.2155  0.6830 -0.0043
  195MOL0     C26201   8.118  12.246   2.341 -0.0965  0.5827  0.0047
  195MOL0     C26202   8.044  12.361   2.407 -0.0923  1.1770  0.1248
  195MOL0     C26203   8.136  12.482   2.455  0.5027 -0.3586  1.0912
  195MOL0     C26204   8.257  12.453   2.552  0.5602 -0.1171  0.1927
  195MOL0     C26205   8.350  12.574   2.577  0.4698  0.0720  0.1714
  195MOL0     C26206   8.280  12.678   2.667 -0.5200  0.3695 -0.8178
  195MOL0     N26207   8.377  12.768   2.730 -0.2078  0.4312 -0.3246
  195MOL0     C26208   8.510  12.783   2.697 -0.3549  0.1019  0.1158
  195MOL0     C26209   8.567  12.846   2.800  0.2929  0.6096  0.0035
  195MOL0     C26210   8.710  12.880   2.816  0.0814  0.2299  0.3953
  195MOL0     C26211   8.751  12.943   2.945  0.6377 -0.5046 -0.5735
  195MOL0     C26212   8.893  12.980   2.958 -0.8191 -0.3551 -0.1349
  195MOL0     C26213   8.941  13.075   2.854 -0.0577 -0.6325  0.5156
  195MOL0     O26214   9.022  13.180   2.908 -0.4684 -0.5438 -1.1417
  195MOL0     C26215   9.138  13.148   2.965 -0.3892  0.2655  0.0133
  195MOL0     C26216   9.242  13.100   2.891  0.0692  0.5489 -0.4823
  195MOL0     C26217   9.363  13.073   2.967  0.4270  0.3818 -0.0051
  195MOL0     C26218   9.375  13.110   3.105  0.1691 -0.0514 -0.4732
  195MOL0     C26219   9.516  13.091   3.166 -0.2372  0.0877 -1.0453
  195MOL0     O26220   9.521  13.094   3.302 -0.8321  0.4090  0.0336
  195MOL0     C26221   9.650  13.087   3.361  0.6086  0.0741 -0.3329
  195MOL0     C26222   9.699  13.194   3.429  0.0761  0.6451  0.8315
  195MOL0     C26223   9.838  13.193   3.459  0.3214 -0.4636  0.5460
  195MOL0     C26224   9.923  13.087   3.432  0.1811 -0.0410 -0.8998
  195MOL0     O26225  10.054  13.099   3.474  0.4889  0.9743  0.2586
  195MOL0     C26226  10.129  12.985   3.438 -0.1283 -0.3410 -0.3668
  195MOL0     C26227  10.265  13.013   3.480 -0.5601  0.4068  0.3742
  195MOL0     C26228  10.291  12.983   3.627  0.0899  0.2512 -0.3223
  195MOL0     C26229  10.414  13.045   3.685 -0.9809  0.7596 -0.0953
  195MOL0     C26230  10.424  13.010   3.835  0.0066 -0.3423 -0.2553
  195MOL0     C26231  10.499  12.882   3.857 -0.6277  0.4097 -0.2741
  195MOL0     C26232  10.532  12.846   4.001 -0.4267 -0.4849 -0.2168
  195MOL0     C26233  10.411  12.802   4.084 -0.7557 -0.3795 -0.2947
  195MOL0    Cl26234  10.310  12.690   3.986 -0.3971  0.2635  0.2151
  195MOL0     C26235   9.860  12.969   3.375 -0.0352 -0.7825 -0.4617
  195MOL0     C26236   9.726  12.977   3.339  0.3373 -0.8876 -0.3248
  195MOL0     O26237   9.610  13.085   3.086 -0.3993 -0.1517 -0.2758
  195MOL0     C26238   9.266  13.167   3.170 -0.2292  0.3485  1.5688
  195MOL0     C26239   9.145  13.180   3.102  0.4467  0.2848  0.7737
  195MOL0     N26240   8.464  12.889   2.886  0.0918 -0.1594 -0.8173
  195MOL0     N26241   8.354  12.832   2.846 -1.1007  0.1939  0.1411
  195MOL0     C26242   8.036  11.649   2.202 -0.7182  0.6060 -0.1352
  195MOL0     C26243   8.103  11.521   2.207  0.3976 -0.2202 -0.4125
  195MOL0     C26244   8.407  11.208   2.360  0.1203  0.4178 -0.3384
  195MOL0     C26245   8.511  11.179   2.271  0.8699 -0.0212 -0.2421
  195MOL0     C26246   8.601  11.075   2.289  0.0222  1.0697 -0.3291
  195MOL0     C26247   8.576  10.981   2.391  0.0651 -0.0973 -0.5409
  195MOL0     O26248   8.659  10.873   2.390 -0.3435  0.1836  0.1404
  195MOL0     C26249   8.619  10.760   2.472  0.3329  0.1814 -0.6473
  195MOL0     C26250   8.710  10.638   2.451 -0.9792  0.2626 -0.9152
  195MOL0     C26251   8.718  10.593   2.306  0.3206  0.7203  0.8995
  195MOL0     C26252   8.782  10.449   2.292  0.4309  0.0076 -0.4849
  195MOL0     C26253   8.921  10.447   2.346  0.3560  0.4548  0.9910
  195MOL0     C26254   9.042  10.462   2.360 -0.3711  0.4529  0.3770
  195MOL0     C26255   8.463  10.999   2.478  0.2365  0.7938  0.2407
  195MOL0     C26256   8.380  11.108   2.461 -0.6847 -0.2272 -0.4572
  195MOL0     C26257   8.265  11.122   2.560 -0.4043  0.0161  0.5657
  195MOL0     H26258   8.423  11.601   2.256  0.0753  1.1407  1.6973
  195MOL0     H26259   8.314  11.843   2.230 -0.1885  0.8679 -1.2883
  195MOL0     H26260   8.178  11.970   2.363  1.3829 -1.0557 -0.6736
  195MOL0     H26261   8.222  12.023   2.197 -0.2610 -1.8695 -0.8799
  195MOL0     H26262   7.958  12.099   2.366 -0.9107  0.7661 -2.1084
  195MOL0     H26263   7.985  12.137   2.197  0.4981 -1.0164  0.1017
  195MOL0     H26264   8.177  12.284   2.257  2.0500 -0.4776  0.9581
  195MOL0     H26265   8.193  12.208   2.411 -0.9620  0.3784  0.8440
  195MOL0     H26266   7.983  12.402   2.326  0.6865 -0.9172 -1.6182
  195MOL0     H26267   7.975  12.337   2.490  0.6766  1.8274  0.9736
  195MOL0     H26268   8.179  12.534   2.368 -0.9196 -3.1199 -1.4256
  195MOL0     H26269   8.073  12.556   2.505  0.9378  0.7694  0.0468
  195MOL0     H26270   8.209  12.420   2.644 -1.6591 -2.9812 -1.7872
  195MOL0     H26271   8.327  12.379   2.512  0.0688 -1.1245  1.1583
  195MOL0     H26272   8.374  12.622   2.482  2.1799  0.0343  0.5599
  195MOL0     H26273   8.442  12.535   2.621  0.0059 -0.9994  0.2211
  195MOL0     H26274   8.196  12.734   2.624 -0.5721 -0.5997 -2.0456
  195MOL0     H26275   8.233  12.628   2.753 -0.3029  1.6291  0.0484
  195MOL0     H26276   8.571  12.735   2.621 -0.1756  1.4519 -0.6295
  195MOL0     H26277   8.749  12.780   2.835  2.8962  1.6657  2.9006
  195MOL0     H26278   8.746  12.926   2.724 -2.7036 -0.7937 -1.3436
  195MOL0     H26279   8.681  13.027   2.954 -0.1004 -1.1234 -0.4672
  195MOL0     H26280   8.721  12.885   3.032  1.2964  0.5536  0.3872
  195MOL0     H26281   8.959  12.892   2.952 -1.2043 -1.0599  3.4708
  195MOL0     H26282   8.907  13.022   3.058  0.7311 -1.5700  0.1995
  195MOL0     H26283   8.846  13.110   2.812  0.7917  0.8055 -0.3324
  195MOL0     H26284   9.000  13.022   2.779  0.1319  0.7959 -0.3944
  195MOL0     H26285   9.221  13.070   2.789  3.1894 -2.1007 -0.5448
  195MOL0     H26286   9.440  13.020   2.913 -1.3418 -0.9035 -1.3896
  195MOL0     H26287   9.641  13.284   3.445 -1.0347  0.5383 -1.9294
  195MOL0     H26288   9.880  13.288   3.489  0.4254  0.3085 -1.7964
  195MOL0     H26289  10.091  12.900   3.495 -1.1818  2.1574  2.9134
  195MOL0     H26290  10.134  12.968   3.330  0.9359  1.0960 -0.5716
  195MOL0     H26291  10.324  12.955   3.408 -3.7160 -0.6082 -1.6067
  195MOL0     H26292  10.293  13.117   3.462  3.3184 -0.5173  0.0978
  195MOL0     H26293  10.203  13.018   3.682 -0.2074 -1.5454  0.4287
  195MOL0     H26294  10.306  12.875   3.640 -0.4259  0.4189  2.2046
  195MOL0     H26295  10.402  13.154   3.675  0.5102  0.8645 -1.0007
  195MOL0     H26296  10.508  13.012   3.642 -2.6633 -1.9632 -1.9749
  195MOL0     H26297  10.323  13.022   3.875 -0.7886 -1.1864 -1.8795
  195MOL0     H26298  10.493  13.089   3.864 -1.3895  0.7283  0.2533
  195MOL0     H26299  10.457  12.803   3.793  1.9559  0.9029 -2.8345
  195MOL0     H26300  10.596  12.901   3.810  0.8469 -1.7839  1.6145
  195MOL0     H26301  10.569  12.938   4.047  1.6871 -1.4528  0.1603
  195MOL0     H26302  10.613  12.773   4.004 -0.2180 -0.2186  0.9446
  195MOL0     H26303  10.449  12.743   4.168  0.5694 -0.9855 -1.2870
  195MOL0     H26304  10.360  12.892   4.121  3.0293  0.7994  2.7570
  195MOL0     H26305   9.915  12.875   3.371  1.9343 -0.0743  3.9980
  195MOL0     H26306   9.685  12.889   3.289 -1.2543 -0.4568  0.1513
  195MOL0     H26307   9.270  13.193   3.276  1.7137  1.1506  1.3322
  195MOL0     H26308   9.058  13.229   3.146  0.0663  2.2157 -1.8556
  195MOL0     H26309   7.928  11.651   2.202 -0.7627  0.4965  1.9848
  195MOL0     H26310   8.038  11.434   2.204 -0.8794  0.6286  1.0081
  195MOL0     H26311   8.531  11.240   2.183  2.9116 -0.8143 -0.3737
  195MOL0     H26312   8.685  11.065   2.221 -0.1984  1.0794 -0.6007
  195MOL0     H26313   8.523  10.720   2.440 -0.8316 -0.9540  3.5653
  195MOL0     H26314   8.606  10.783   2.578  1.1567 -0.1923 -0.4523
  195MOL0     H26315   8.694  10.553   2.517 -1.5837 -0.4474 -1.9331
  195MOL0     H26316   8.805  10.674   2.489 -2.0127  0.9839  1.1138
  195MOL0     H26317   8.775  10.675   2.261 -0.1563 -0.0940 -1.3419
  195MOL0     H26318   8.618  10.592   2.261 -1.4671  0.0617  4.5358
  195MOL0     H26319   8.727  10.384   2.361  0.2697  1.4022  0.7762
  195MOL0     H26320   8.754  10.415   2.192 -0.4496 -0.2007 -0.1754
  195MOL0     H26321   9.146  10.478   2.341 -0.8431  0.0454 -3.3684
  195MOL0     H26322   8.434  10.917   2.543  0.9384 -0.8005 -1.3744
  195MOL0     H26323   8.300  11.189   2.639  3.8873 -0.8010 -0.3579
  195MOL0     H26324   8.180  11.155   2.500  0.4796 -3.8279 -3.2898
  195MOL0     H26325   8.251  11.026   2.611  0.3928  1.5521  3.9683
  196MOL0     O26326   9.545  11.067   8.967 -0.2629 -0.7931 -0.1921
  196MOL0     C26327   9.424  11.082   8.950  0.0216  0.3011  0.4359
  196MOL0     O26328   9.373  11.164   8.857  0.1654 -0.5294 -0.3023
  196MOL0     C26329   9.469  11.216   8.776  1.2371  0.3627  0.1178
  196MOL0     C26330   9.452  11.192   8.633  0.8916 -0.4601  1.2303
  196MOL0     C26331   9.558  11.231   8.547 -0.4326  0.0048  0.2968
  196MOL0     C26332   9.664  11.309   8.590 -0.8730 -1.1546  0.1942
  196MOL0     O26333   9.769  11.362   8.509  0.9117 -0.3833 -0.3114
  196MOL0     C26334   9.744  11.497   8.467 -0.3585 -0.2226  0.1140
  196MOL0     C26335   9.874  11.558   8.409  0.5849 -0.6814 -0.0486
  196MOL0     C26336  10.013  11.499   8.417 -0.3649  1.5054 -0.9362
  196MOL0     C26337  10.130  11.595   8.388 -0.1183 -0.5255  0.1319
  196MOL0     C26338  10.277  11.523   8.372  0.0704 -0.9873 -0.7137
  196MOL0     C26339  10.281  11.426   8.255  0.7553 -0.7684  0.4339
  196MOL0     C26340  10.424  11.377   8.239 -0.3010 -0.3187  0.7286
  196MOL0     C26341  10.437  11.338   8.096 -0.0640 -0.0068 -0.1588
  196MOL0     N26342  10.412  11.453   8.007 -0.6575 -0.1020 -0.8909
  196MOL0     C26343  10.511  11.528   7.957 -0.2843  0.1913 -1.0742
  196MOL0     C26344  10.469  11.577   7.842  0.1752 -0.3496 -0.7008
  196MOL0     C26345  10.568  11.660   7.762 -0.3696 -0.0529 -0.5249
  196MOL0     C26346  10.699  11.599   7.712 -0.5453  0.2964 -0.0259
  196MOL0     C26347  10.683  11.469   7.622 -0.2603 -0.6570  0.5087
  196MOL0     C26348  10.571  11.458   7.516 -0.1686  0.2640 -0.5489
  196MOL0     O26349  10.604  11.360   7.419  0.0318 -0.9245  0.5568
  196MOL0     C26350  10.558  11.231   7.418  0.1867 -0.0877 -0.3465
  196MOL0     C26351  10.557  11.152   7.310 -0.6225 -0.5520 -0.1964
  196MOL0     C26352  10.546  11.020   7.309 -0.2706  0.3448 -0.1045
  196MOL0     C26353  10.530  10.946   7.433 -0.6491 -0.4957 -0.5234
  196MOL0     C26354  10.512  10.801   7.432  0.2026  0.5754  0.0895
  196MOL0     O26355  10.458  10.744   7.317  0.6512  0.0221 -0.8170
  196MOL0     C26356  10.411  10.613   7.301  0.6441 -1.0737 -0.0073
  196MOL0     C26357  10.404  10.514   7.403  1.8092  1.0923  0.6643
  196MOL0     C26358  10.348  10.392   7.373 -0.6074 -0.0412 -0.7255
  196MOL0     C26359  10.289  10.368   7.251  0.0273 -0.6425 -0.3211
  196MOL0     O26360  10.219  10.254   7.243  0.0716  0.0525 -0.7472
  196MOL0     C26361  10.187  10.212   7.116 -0.2129 -0.7501  1.1024
  196MOL0     C26362  10.047  10.254   7.056 -0.7686  0.8957 -0.5278
  196MOL0     C26363  10.016  10.195   6.916 -0.9637  0.9234 -0.6301
  196MOL0     C26364   9.881  10.222   6.858  0.3003 -0.4100  0.1901
  196MOL0     C26365   9.850  10.369   6.821  1.0850 -0.0163 -0.2088
  196MOL0     C26366   9.706  10.373   6.765  0.5642 -0.0056 -0.3419
  196MOL0     C26367   9.647  10.508   6.803  0.8411 -0.4832 -0.1174
  196MOL0     C26368   9.597  10.592   6.687 -0.4183 -0.3335 -0.0612
  196MOL0    Cl26369   9.734  10.606   6.564 -0.2827 -0.0782  0.1273
  196MOL0     C26370  10.292  10.468   7.156 -0.3960  0.1978 -0.4294
  196MOL0     C26371  10.354  10.590   7.175  0.3184  0.0194 -0.1866
  196MOL0     O26372  10.536  10.743   7.535  0.2768  0.6036 -0.4078
  196MOL0     C26373  10.513  11.026   7.552 -0.4680  0.4639 -0.4511
  196MOL0     C26374  10.524  11.161   7.540  0.4782 -0.3191 -0.0568
  196MOL0     N26375  10.337  11.539   7.824  1.3798  0.3389  0.1305
  196MOL0     N26376  10.311  11.460   7.924  1.3869 -0.6019  0.9645
  196MOL0     C26377   9.681  11.340   8.723  0.0740  0.4073 -0.4257
  196MOL0     C26378   9.579  11.302   8.812 -0.6449  0.0618  0.3436
  196MOL0     C26379   9.327  10.998   9.018 -0.2559 -0.5720 -0.7244
  196MOL0     C26380   9.351  10.987   9.160 -0.2333  0.2516 -0.0474
  196MOL0     C26381   9.273  10.912   9.248  0.9004 -0.8145  0.3911
  196MOL0     C26382   9.161  10.846   9.195  0.8523  0.2784  0.9337
  196MOL0     O26383   9.078  10.777   9.272  0.3285 -1.2155  0.0140
  196MOL0     C26384   9.028  10.842   9.392 -0.7442 -0.5585 -0.4718
  196MOL0     C26385   8.911  10.762   9.453 -0.6231  0.6976  0.1071
  196MOL0     C26386   8.896  10.772   9.600  0.3161  0.5105 -0.9164
  196MOL0     C26387   8.919  10.907   9.675  0.4772  0.2815  0.3369
  196MOL0     C26388   9.057  10.901   9.711  0.0312  0.3917 -0.6118
  196MOL0     C26389   9.171  10.920   9.736  0.0692 -0.7926  0.6142
  196MOL0     C26390   9.138  10.849   9.054  0.2052  0.5897  0.7690
  196MOL0     C26391   9.217  10.930   8.969  0.3660 -0.2202  0.2780
  196MOL0     C26392   9.171  10.933   8.829 -0.4091  0.0298  0.4296
  196MOL0     H26393   9.361  11.144   8.598 -0.1626  2.5979 -0.6058
  196MOL0     H26394   9.541  11.219   8.441 -2.7905  2.6014  0.2764
  196MOL0     H26395   9.658  11.503   8.400 -1.9548 -1.4077  1.9516
  196MOL0     H26396   9.720  11.569   8.546  2.0301  1.8731 -0.9248
  196MOL0     H26397   9.877  11.661   8.447  2.4816 -0.9379  0.6202
  196MOL0     H26398   9.847  11.578   8.305 -3.3091 -0.0165  0.9277
  196MOL0     H26399  10.031  11.414   8.351 -0.4881  0.9036 -0.2092
  196MOL0     H26400  10.025  11.461   8.519  0.3965  2.3883 -0.6825
  196MOL0     H26401  10.091  11.642   8.296 -0.5098  1.5284  1.2828
  196MOL0     H26402  10.142  11.682   8.453 -0.6959 -0.1377 -0.2617
  196MOL0     H26403  10.352  11.602   8.360  1.0484 -1.6343  0.8941
  196MOL0     H26404  10.301  11.471   8.465 -1.4688  0.5247  0.6058
  196MOL0     H26405  10.222  11.335   8.271  0.0430 -0.2420  0.8432
  196MOL0     H26406  10.225  11.459   8.167  0.3545 -4.7360 -1.0334
  196MOL0     H26407  10.446  11.296   8.308  1.4365  0.0666  0.6886
  196MOL0     H26408  10.505  11.446   8.266  0.9915 -2.2695  2.0607
  196MOL0     H26409  10.537  11.311   8.062  2.3419  2.0724  4.4578
  196MOL0     H26410  10.372  11.252   8.075 -1.5441  0.1242  3.2054
  196MOL0     H26411  10.607  11.525   8.008 -0.7381 -2.0620 -0.2620
  196MOL0     H26412  10.518  11.683   7.667  0.2978 -0.8775 -1.0886
  196MOL0     H26413  10.588  11.750   7.820 -1.3054  0.3044 -0.7249
  196MOL0     H26414  10.762  11.673   7.662  1.9255 -0.0069  2.3879
  196MOL0     H26415  10.754  11.580   7.805 -1.1018  1.7119  0.6185
  196MOL0     H26416  10.689  11.381   7.687 -3.1792 -0.1773  1.5780
  196MOL0     H26417  10.773  11.460   7.560 -1.9561 -4.8572 -1.8086
  196MOL0     H26418  10.546  11.552   7.465  4.0966  0.0358 -3.5104
  196MOL0     H26419  10.482  11.421   7.568 -0.1437  0.9764  0.0240
  196MOL0     H26420  10.572  11.196   7.212 -2.5938  0.7918  0.0450
  196MOL0     H26421  10.543  10.967   7.215 -2.6481  1.8955 -1.0011
  196MOL0     H26422  10.448  10.525   7.502 -0.7099 -0.4610  2.0571
  196MOL0     H26423  10.359  10.316   7.450  1.3023 -0.8058 -1.6992
  196MOL0     H26424  10.268  10.214   7.043  0.6665 -0.9157  2.0483
  196MOL0     H26425  10.183  10.103   7.129  2.9846 -1.1378 -0.3248
  196MOL0     H26426   9.976  10.204   7.122 -2.6527  3.0397 -0.8068
  196MOL0     H26427  10.039  10.363   7.067 -1.9027  0.6604  1.3321
  196MOL0     H26428  10.099  10.227   6.853 -0.6368 -1.7227 -1.6644
  196MOL0     H26429  10.029  10.087   6.922 -0.4122  0.4910 -5.5241
  196MOL0     H26430   9.811  10.193   6.936 -1.3646  2.1454 -0.2184
  196MOL0     H26431   9.863  10.156   6.773  0.8444 -0.5915  0.2096
  196MOL0     H26432   9.920  10.410   6.748 -0.1437  3.0834  0.1842
  196MOL0     H26433   9.863  10.435   6.907  3.4134  0.7765 -1.0870
  196MOL0     H26434   9.710  10.367   6.656 -1.0110 -0.9290 -0.3817
  196MOL0     H26435   9.637  10.294   6.795 -2.5998  2.0813 -1.5587
  196MOL0     H26436   9.717  10.567   6.863 -0.0044  1.0687 -0.6005
  196MOL0     H26437   9.562  10.487   6.867  1.5869 -0.2543  0.9748
  196MOL0     H26438   9.500  10.559   6.648 -0.7233  1.0503 -0.5005
  196MOL0     H26439   9.574  10.690   6.728  3.3558 -0.6865  3.5021
  196MOL0     H26440  10.253  10.441   7.058  0.4876 -1.9536 -0.2515
  196MOL0     H26441  10.356  10.662   7.093 -2.0464  0.6592  0.2376
  196MOL0     H26442  10.475  10.977   7.641 -0.6364 -0.8546 -1.2248
  196MOL0     H26443  10.503  11.218   7.629 -5.2325 -0.8823 -0.6788
  196MOL0     H26444   9.769  11.389   8.764  0.9405 -1.6685  0.3104
  196MOL0     H26445   9.574  11.325   8.918 -1.9420 -0.3440  0.3906
  196MOL0     H26446   9.443  11.033   9.195 -0.5824  0.2077  0.9567
  196MOL0     H26447   9.282  10.922   9.356 -2.4156 -0.5695  0.7690
  196MOL0     H26448   8.999  10.946   9.371 -1.8851 -1.2157 -2.3777
  196MOL0     H26449   9.104  10.849   9.471 -2.2666  1.0247  0.9642
  196MOL0     H26450   8.915  10.659   9.417 -2.6616  0.8084 -0.5850
  196MOL0     H26451   8.813  10.790   9.413 -1.7355 -0.3813  1.8792
  196MOL0     H26452   8.958  10.692   9.642 -0.2195  0.6378  0.1785
  196MOL0     H26453   8.795  10.738   9.626 -0.1401  1.8670 -0.8271
  196MOL0     H26454   8.902  10.996   9.614  3.5701  1.3453  0.9045
  196MOL0     H26455   8.863  10.901   9.769  0.5348 -0.9618  0.3079
  196MOL0     H26456   9.274  10.942   9.753 -0.1965 -0.9486  2.7977
  196MOL0     H26457   9.061  10.788   9.010 -0.6152  2.9563 -1.3029
  196MOL0     H26458   9.061  10.934   8.835 -0.3274  1.0443  3.0061
  196MOL0     H26459   9.212  11.019   8.776  1.5411  0.6454  2.7578
  196MOL0     H26460   9.203  10.848   8.768 -3.0042 -0.7941  0.0505
  197MOL0     O26461   1.881  10.949   0.266 -0.5081  0.3389  0.0415
  197MOL0     C26462   1.937  10.853   0.312  0.1632  0.1942  0.3752
  197MOL0     O26463   2.042  10.861   0.402  0.0770 -0.4573 -0.5006
  197MOL0     C26464   2.103  10.981   0.436  0.1159 -0.6943  0.7866
  197MOL0     C26465   2.119  11.086   0.348  0.1933  0.6203 -0.0013
  197MOL0     C26466   2.160  11.207   0.391  0.4057  0.0016  0.0417
  197MOL0     C26467   2.206  11.224   0.519 -0.0404  0.5988 -0.3541
  197MOL0     O26468   2.253  11.345   0.577 -0.9264  0.3683 -0.2121
  197MOL0     C26469   2.224  11.467   0.504 -0.8210  0.2840  0.2316
  197MOL0     C26470   2.254  11.593   0.590 -0.4699  0.0090 -0.8253
  197MOL0     C26471   2.157  11.619   0.713  0.1478 -0.3910  0.0870
  197MOL0     C26472   2.228  11.700   0.819 -1.0664 -0.6041  0.6729
  197MOL0     C26473   2.143  11.766   0.926  0.0440 -0.1508  0.8207
  197MOL0     C26474   2.218  11.801   1.045 -0.4531  0.2397  0.3615
  197MOL0     C26475   2.277  11.942   1.026 -0.7148  1.4442 -0.0319
  197MOL0     C26476   2.356  12.002   1.142  0.0787 -1.2905 -0.0222
  197MOL0     N26477   2.274  12.030   1.263 -0.3799  0.0734 -1.4489
  197MOL0     C26478   2.262  11.934   1.364 -0.4780 -0.3060 -0.0011
  197MOL0     C26479   2.201  11.998   1.466 -0.1841 -0.2966 -0.2310
  197MOL0     C26480   2.151  11.927   1.600  0.5969 -0.3724  0.1037
  197MOL0     C26481   2.008  11.965   1.626  0.1945 -0.2377  0.5545
  197MOL0     C26482   1.928  11.863   1.709 -0.8624  0.0003 -0.0280
  197MOL0     C26483   1.984  11.841   1.851 -0.0727 -0.3710  0.8951
  197MOL0     O26484   1.987  11.965   1.918  0.1367 -0.6848  0.7502
  197MOL0     C26485   2.012  11.976   2.048 -0.4790  0.3299 -0.1783
  197MOL0     C26486   2.022  11.877   2.149 -0.0479  0.0866  0.0361
  197MOL0     C26487   2.043  11.910   2.289  0.1608  0.4709 -0.6633
  197MOL0     C26488   2.057  12.046   2.329  0.5805  0.6297  0.0404
  197MOL0     C26489   2.094  12.079   2.465 -1.0932  0.6036 -0.2280
  197MOL0     O26490   2.127  12.207   2.481  0.4100  0.4893 -0.1190
  197MOL0     C26491   2.157  12.239   2.612  0.0944  0.1645 -0.2155
  197MOL0     C26492   2.265  12.188   2.693  0.3189  0.8964 -0.1627
  197MOL0     C26493   2.277  12.230   2.824  0.5397  0.1160 -0.7592
  197MOL0     C26494   2.185  12.323   2.877 -0.4956 -0.3968 -0.6382
  197MOL0     O26495   2.179  12.366   3.012 -0.6049  1.1953  0.3721
  197MOL0     C26496   2.288  12.332   3.100  0.5253  0.3395 -0.1821
  197MOL0     C26497   2.243  12.319   3.239 -0.2059  0.1194 -0.0376
  197MOL0     C26498   2.197  12.451   3.300  0.1069  0.1617  0.0388
  197MOL0     C26499   2.140  12.431   3.438  0.3101  1.3304 -0.9663
  197MOL0     C26500   2.247  12.369   3.525 -0.3590 -0.7125 -1.1647
  197MOL0     C26501   2.216  12.365   3.676  0.1767  0.5449 -1.1204
  197MOL0     C26502   2.097  12.282   3.722  0.3858 -0.4180 -0.0918
  197MOL0     C26503   2.039  12.331   3.857 -0.6291 -0.3784  0.5009
  197MOL0    Cl26504   2.157  12.344   3.984 -0.2525  0.4001  0.4320
  197MOL0     C26505   2.084  12.370   2.803  0.3935 -0.7603 -0.3918
  197MOL0     C26506   2.069  12.332   2.667 -1.0022  0.2289 -0.2135
  197MOL0     O26507   2.075  12.005   2.556 -0.2332  0.3540 -0.2038
  197MOL0     C26508   2.027  12.138   2.233 -0.3695  0.0888 -0.4359
  197MOL0     C26509   2.008  12.096   2.097 -0.0517 -0.5079  0.5742
  197MOL0     N26510   2.174  12.128   1.438  0.1820 -0.1312 -0.1691
  197MOL0     N26511   2.219  12.148   1.312  0.5543  0.2053 -0.2774
  197MOL0     C26512   2.222  11.109   0.601 -0.8285 -0.0979  0.7510
  197MOL0     C26513   2.165  10.985   0.561 -0.5107  0.1122  0.1918
  197MOL0     C26514   1.899  10.721   0.264  1.0253 -0.9271 -1.2906
  197MOL0     C26515   1.886  10.696   0.124  0.6202  0.5860 -0.7867
  197MOL0     C26516   1.864  10.565   0.073 -0.6095 -0.4506  0.1345
  197MOL0     C26517   1.856  10.452   0.159  0.8120 -0.9989 -0.3135
  197MOL0     O26518   1.843  10.336   0.085 -0.6279  0.5369 -0.4825
  197MOL0     C26519   1.812  10.227   0.170 -0.3275  0.3060 -0.0280
  197MOL0     C26520   1.662  10.243   0.200 -0.5423  0.3648  0.1828
  197MOL0     C26521   1.587  10.110   0.248  0.0848 -0.1720  0.0899
  197MOL0     C26522   1.658  10.039   0.361  0.2127 -0.6369  0.4767
  197MOL0     C26523   1.686  10.126   0.485 -0.8209 -0.6567 -0.1307
  197MOL0     C26524   1.712  10.186   0.591  1.1597  0.1538 -0.0700
  197MOL0     C26525   1.864  10.480   0.301 -1.0185 -0.2716  0.4238
  197MOL0     C26526   1.887  10.614   0.347 -0.2482  0.5212  0.5453
  197MOL0     C26527   1.913  10.624   0.492  1.0380  0.7556 -0.4061
  197MOL0     H26528   2.096  11.080   0.242 -0.8421 -2.1660  0.2812
  197MOL0     H26529   2.157  11.286   0.316 -3.3374 -1.2948 -1.4292
  197MOL0     H26530   2.285  11.464   0.414 -0.0199 -0.7934  0.7841
  197MOL0     H26531   2.119  11.464   0.474 -1.4651 -2.7403  2.2485
  197MOL0     H26532   2.240  11.681   0.527 -0.8993  1.6418  1.4340
  197MOL0     H26533   2.352  11.583   0.637 -0.5113 -0.3992 -0.8251
  197MOL0     H26534   2.123  11.524   0.756  1.7314 -1.8683 -1.7418
  197MOL0     H26535   2.068  11.672   0.678  4.3148  5.1056 -4.0631
  197MOL0     H26536   2.307  11.630   0.847  0.8386  0.4981 -1.5666
  197MOL0     H26537   2.264  11.785   0.760  0.6488 -0.1603  2.2639
  197MOL0     H26538   2.093  11.855   0.887 -1.5060 -0.3556  2.2078
  197MOL0     H26539   2.063  11.695   0.951 -0.8856  0.2570 -0.8288
  197MOL0     H26540   2.156  11.806   1.135 -0.8429 -1.1136  0.1857
  197MOL0     H26541   2.309  11.741   1.055  0.7029  0.7890 -4.2168
  197MOL0     H26542   2.189  12.007   1.018 -0.8959  1.0734 -1.2131
  197MOL0     H26543   2.339  11.955   0.936  1.4681 -2.8676  0.5879
  197MOL0     H26544   2.443  11.940   1.167  2.6277  2.7197  1.9384
  197MOL0     H26545   2.400  12.098   1.115  0.2890 -1.2510  0.4559
  197MOL0     H26546   2.300  11.833   1.373 -3.7470 -1.4161  3.5874
  197MOL0     H26547   2.149  11.819   1.588 -2.4012 -0.3911 -0.0143
  197MOL0     H26548   2.221  11.955   1.680  0.0098  0.8893  0.2011
  197MOL0     H26549   2.010  12.059   1.682  2.1991  0.1217 -0.0134
  197MOL0     H26550   1.947  11.977   1.537 -3.5398  3.3313  3.2627
  197MOL0     H26551   1.926  11.764   1.662  0.8065  0.5266 -1.3179
  197MOL0     H26552   1.831  11.912   1.719  0.0423  3.1865 -4.2291
  197MOL0     H26553   2.086  11.803   1.851  1.4180  3.2387  0.0635
  197MOL0     H26554   1.914  11.771   1.898  1.1549 -1.0015  1.8284
  197MOL0     H26555   2.005  11.770   2.146 -3.3678  0.4367  1.9308
  197MOL0     H26556   2.057  11.829   2.360 -3.0233  1.3320  1.1521
  197MOL0     H26557   2.334  12.111   2.662 -2.3453 -1.7865  0.0423
  197MOL0     H26558   2.346  12.165   2.875 -3.6694 -3.8008  0.6077
  197MOL0     H26559   2.343  12.240   3.078 -0.4102 -0.3683  0.3612
  197MOL0     H26560   2.364  12.410   3.105 -1.1024  2.0030 -0.1517
  197MOL0     H26561   2.168  12.239   3.245 -2.1430  1.7266 -1.8233
  197MOL0     H26562   2.331  12.278   3.291 -0.1821 -3.1769 -2.3441
  197MOL0     H26563   2.286  12.515   3.313 -1.0518  2.1019 -1.0950
  197MOL0     H26564   2.118  12.511   3.255  0.6445  2.7772  2.2589
  197MOL0     H26565   2.054  12.364   3.447  1.1606  0.2531 -0.6984
  197MOL0     H26566   2.102  12.529   3.467 -1.3896  0.5496 -0.4006
  197MOL0     H26567   2.334  12.434   3.510 -1.8842  2.1052  1.1880
  197MOL0     H26568   2.265  12.265   3.497  0.9420 -1.1364  0.9834
  197MOL0     H26569   2.306  12.321   3.719 -0.0224  0.8265 -0.4061
  197MOL0     H26570   2.197  12.470   3.700 -2.3739 -0.4558  1.9497
  197MOL0     H26571   2.115  12.174   3.721 -1.8243 -0.8157 -0.3625
  197MOL0     H26572   2.010  12.290   3.657 -1.1345 -0.1005  1.8921
  197MOL0     H26573   2.009  12.436   3.844  0.3089 -0.1012  0.4368
  197MOL0     H26574   1.955  12.263   3.873 -0.3243 -0.0172  4.3656
  197MOL0     H26575   2.023  12.446   2.849  0.4708 -1.2719  0.5851
  197MOL0     H26576   1.990  12.366   2.602  0.2676 -0.3979 -2.1770
  197MOL0     H26577   2.009  12.243   2.253 -2.4847 -0.5811  1.4803
  197MOL0     H26578   1.983  12.177   2.029 -0.4151 -1.8522 -0.9564
  197MOL0     H26579   2.263  11.102   0.701  1.7290 -1.8237 -0.3257
  197MOL0     H26580   2.171  10.910   0.639 -1.9149 -0.5893 -0.3479
  197MOL0     H26581   1.899  10.779   0.055  0.2704  2.7247  1.5904
  197MOL0     H26582   1.861  10.569  -0.035 -2.0966  1.6755  0.1931
  197MOL0     H26583   1.873  10.222   0.261 -0.8489 -0.8004  0.2839
  197MOL0     H26584   1.816  10.132   0.116  1.1068  0.4665 -0.2307
  197MOL0     H26585   1.616  10.273   0.105 -0.4805 -0.0861  0.0077
  197MOL0     H26586   1.653  10.316   0.281 -0.2051  1.1473 -0.4672
  197MOL0     H26587   1.590  10.039   0.165 -0.5307  0.5279 -0.5486
  197MOL0     H26588   1.479  10.114   0.266  0.4163  1.8931  2.1195
  197MOL0     H26589   1.597   9.956   0.399 -0.3610  0.5666  2.3176
  197MOL0     H26590   1.752   9.995   0.326  0.0377 -2.4348  2.0919
  197MOL0     H26591   1.745  10.226   0.685  0.9853 -3.5641  1.7477
  197MOL0     H26592   1.854  10.400   0.375 -0.7562  0.8658  1.7248
  197MOL0     H26593   1.864  10.712   0.535 -1.5290 -0.7994  0.0932
  197MOL0     H26594   1.863  10.540   0.542 -2.1512  0.3576 -3.8316
  197MOL0     H26595   2.018  10.621   0.520  1.8315  0.2131 -3.1592
  198MOL0     O26596   4.282   5.666   1.194  0.0542  0.6522 -0.9338
  198MOL0     C26597   4.280   5.549   1.147  0.7009 -1.1564  0.7990
  198MOL0     O26598   4.196   5.505   1.049  0.9876  0.1049  0.0293
  198MOL0     C26599   4.111   5.592   0.996  0.4946 -0.0811  0.4107
  198MOL0     C26600   3.980   5.555   0.982  0.6046 -0.6284  0.0574
  198MOL0     C26601   3.885   5.635   0.918 -0.6268 -0.1796 -0.8212
  198MOL0     C26602   3.929   5.752   0.871 -0.6607 -0.7198 -0.0481
  198MOL0     O26603   3.832   5.837   0.823  0.0306  0.1724 -0.2169
  198MOL0     C26604   3.870   5.926   0.723 -0.5667 -0.0398  0.2498
  198MOL0     C26605   3.739   5.978   0.652  0.4651  1.2360 -0.6045
  198MOL0     C26606   3.771   6.063   0.531 -0.0705  0.3842  0.5812
  198MOL0     C26607   3.657   6.105   0.448  1.0180  0.7991  0.0169
  198MOL0     C26608   3.708   6.164   0.310  0.4039 -0.3297 -1.3297
  198MOL0     C26609   3.592   6.212   0.227  0.1823 -0.6112 -0.2811
  198MOL0     C26610   3.635   6.290   0.097 -0.8823 -0.3660  0.1917
  198MOL0     C26611   3.519   6.320  -0.002 -0.5606  0.6429  0.4690
  198MOL0     N26612   3.507   6.218  -0.115  0.4697 -0.1085  0.2326
  198MOL0     C26613   3.593   6.215  -0.214  0.3152  0.0124 -0.4541
  198MOL0     C26614   3.543   6.116  -0.293  0.1876 -0.2346  0.3561
  198MOL0     C26615   3.605   6.075  -0.419  0.3660 -0.3740  0.2795
  198MOL0     C26616   3.611   6.192  -0.521  0.6174  0.2475 -0.9765
  198MOL0     C26617   3.467   6.238  -0.559  0.2191 -0.1285 -0.3933
  198MOL0     C26618   3.394   6.133  -0.641  0.3323 -0.0282  0.5784
  198MOL0     O26619   3.265   6.180  -0.684  0.3036 -0.5578 -0.9435
  198MOL0     C26620   3.210   6.125  -0.794  0.2689 -0.3373  1.1335
  198MOL0     C26621   3.200   6.203  -0.911 -0.1879 -1.1789 -0.2816
  198MOL0     C26622   3.159   6.154  -1.036  0.1752 -0.3219  0.0107
  198MOL0     C26623   3.152   6.011  -1.054 -0.4368 -0.8250  0.0838
  198MOL0     C26624   3.125   5.949  -1.186 -0.5124 -0.2144 -1.1135
  198MOL0     O26625   3.103   6.047  -1.279 -0.0332 -0.0798  0.4556
  198MOL0     C26626   3.158   6.032  -1.403  0.3341  1.0349  1.5092
  198MOL0     C26627   3.294   6.050  -1.424  0.1239  1.1111 -0.1185
  198MOL0     C26628   3.360   5.999  -1.533  0.2654  0.0910 -0.0512
  198MOL0     C26629   3.289   5.954  -1.644 -0.4699  0.2164  0.2386
  198MOL0     O26630   3.354   5.922  -1.765 -0.4362 -0.0841  0.0566
  198MOL0     C26631   3.350   6.026  -1.866  0.1642 -0.1172  0.0587
  198MOL0     C26632   3.420   5.985  -1.988 -0.2322 -0.1655 -0.0403
  198MOL0     C26633   3.576   5.988  -1.959  1.0060 -0.4596  0.0515
  198MOL0     C26634   3.641   5.872  -1.881  0.3587  0.5362  0.4951
  198MOL0     C26635   3.798   5.875  -1.858  0.6444 -0.0654  0.0785
  198MOL0     C26636   3.831   5.768  -1.758 -0.7036 -0.0801  0.1726
  198MOL0     C26637   3.978   5.721  -1.760  0.6459  0.4697  0.4821
  198MOL0     C26638   4.010   5.648  -1.885  0.7296  0.1524  0.6799
  198MOL0    Cl26639   4.173   5.583  -1.859  0.2565  0.3878  0.5814
  198MOL0     C26640   3.157   5.936  -1.623 -0.8537 -0.1791  0.4873
  198MOL0     C26641   3.082   5.988  -1.513  0.1927 -0.3258 -0.2144
  198MOL0     O26642   3.142   5.828  -1.204  0.1250 -0.1848  0.1837
  198MOL0     C26643   3.167   5.935  -0.941 -0.4382  0.6404  0.1952
  198MOL0     C26644   3.197   5.981  -0.816  0.0653 -0.4404  0.1822
  198MOL0     N26645   3.434   6.061  -0.233 -0.4987 -0.6110 -0.1258
  198MOL0     N26646   3.402   6.124  -0.128  0.1510  0.4682 -0.1933
  198MOL0     C26647   4.060   5.802   0.900 -0.0747 -0.5202 -0.0647
  198MOL0     C26648   4.149   5.719   0.952  0.0274  0.4840 -0.0853
  198MOL0     C26649   4.376   5.445   1.173 -0.3290 -0.3704  0.2842
  198MOL0     C26650   4.422   5.356   1.068  0.1228  0.5788  0.6769
  198MOL0     C26651   4.516   5.257   1.089  0.0099  0.8659 -0.2777
  198MOL0     C26652   4.567   5.234   1.218 -1.1249 -0.6103  0.6130
  198MOL0     O26653   4.656   5.136   1.250 -0.1384  0.3194 -0.1745
  198MOL0     C26654   4.716   5.046   1.152  0.0203  0.4991  0.1423
  198MOL0     C26655   4.853   5.098   1.133 -0.4434  0.3158  0.5225
  198MOL0     C26656   4.911   5.040   1.013 -0.5090  1.2497 -0.7250
  198MOL0     C26657   4.906   4.879   1.009  0.1907 -0.7631  0.1060
  198MOL0     C26658   4.992   4.829   0.902 -0.4402 -0.1000 -0.4188
  198MOL0     C26659   5.041   4.787   0.798 -0.3394 -0.6460  0.0780
  198MOL0     C26660   4.537   5.325   1.316 -0.3954 -0.2623 -0.0954
  198MOL0     C26661   4.439   5.426   1.297  0.1623  0.1525  0.1822
  198MOL0     C26662   4.391   5.503   1.415  0.5455  1.2458 -0.5131
  198MOL0     H26663   3.939   5.470   1.037 -0.6588 -0.5957 -0.7914
  198MOL0     H26664   3.779   5.614   0.920 -1.3226  3.0023  0.4168
  198MOL0     H26665   3.931   6.009   0.758  0.4535  0.5937 -2.7609
  198MOL0     H26666   3.927   5.875   0.645 -0.6647  0.7701 -0.3566
  198MOL0     H26667   3.682   6.034   0.726  1.0613  2.1034 -0.7797
  198MOL0     H26668   3.677   5.889   0.634 -0.3302  1.9541 -1.5397
  198MOL0     H26669   3.841   6.006   0.470  2.5439  1.5161  2.3612
  198MOL0     H26670   3.817   6.158   0.560  0.5085  0.2026  0.2660
  198MOL0     H26671   3.602   6.011   0.432  2.3564  0.0603 -0.3674
  198MOL0     H26672   3.604   6.179   0.509  2.0682 -0.9043  3.2703
  198MOL0     H26673   3.764   6.255   0.334 -0.7180 -0.7023  3.8394
  198MOL0     H26674   3.785   6.099   0.270  0.7760 -1.6218  1.2622
  198MOL0     H26675   3.541   6.120   0.197 -1.4130  1.0106 -2.9433
  198MOL0     H26676   3.524   6.278   0.280  1.0108  0.8241 -0.9448
  198MOL0     H26677   3.722   6.243   0.051 -0.4874 -3.1158  3.3722
  198MOL0     H26678   3.669   6.386   0.138  0.4661  0.0345 -1.7553
  198MOL0     H26679   3.423   6.310   0.050  0.7308 -4.6280  2.5528
  198MOL0     H26680   3.533   6.420  -0.043 -0.3550  0.2848 -0.3506
  198MOL0     H26681   3.667   6.285  -0.252  0.0128  0.9846  0.6882
  198MOL0     H26682   3.703   6.027  -0.408  0.3180 -0.4263  0.4785
  198MOL0     H26683   3.554   5.992  -0.469 -0.2024  0.9519 -1.4335
  198MOL0     H26684   3.668   6.279  -0.487 -1.6821  2.1868 -1.7856
  198MOL0     H26685   3.671   6.153  -0.604  1.7308 -5.1049  1.8646
  198MOL0     H26686   3.479   6.326  -0.623 -1.3660  0.5055  0.1408
  198MOL0     H26687   3.415   6.260  -0.465  1.3996 -2.5146  0.9253
  198MOL0     H26688   3.374   6.044  -0.581 -0.5063  0.5975  1.2410
  198MOL0     H26689   3.455   6.116  -0.730 -3.3611 -1.8018 -1.8597
  198MOL0     H26690   3.215   6.311  -0.909  2.2344 -1.3629 -2.7950
  198MOL0     H26691   3.146   6.219  -1.121 -2.1173  1.0037  1.2922
  198MOL0     H26692   3.352   6.082  -1.338  0.8766 -1.6151  0.4731
  198MOL0     H26693   3.469   6.000  -1.536  0.2639  0.9775  0.0125
  198MOL0     H26694   3.245   6.052  -1.878  0.2566  1.8428  2.6213
  198MOL0     H26695   3.402   6.113  -1.825  1.5710 -1.3618  1.0328
  198MOL0     H26696   3.378   5.891  -2.025 -1.4552 -0.5800  2.2475
  198MOL0     H26697   3.402   6.062  -2.064  2.1515  0.7914  0.2559
  198MOL0     H26698   3.624   5.990  -2.057  3.2560  0.0417  1.0897
  198MOL0     H26699   3.615   6.083  -1.921 -1.3216  1.3386 -1.7750
  198MOL0     H26700   3.617   5.778  -1.932 -1.6025  0.8969  0.6848
  198MOL0     H26701   3.595   5.853  -1.784 -0.8442  2.1957  0.2932
  198MOL0     H26702   3.845   5.969  -1.830 -1.4472  0.9736  0.2770
  198MOL0     H26703   3.849   5.849  -1.951  0.2698 -0.5779  0.0098
  198MOL0     H26704   3.813   5.804  -1.656  3.1149  1.5651  0.4417
  198MOL0     H26705   3.765   5.682  -1.773  0.2345 -0.4402 -2.3437
  198MOL0     H26706   3.984   5.661  -1.669 -4.4091 -0.5571  0.4194
  198MOL0     H26707   4.049   5.804  -1.758 -0.8409  1.8784 -1.3579
  198MOL0     H26708   3.939   5.565  -1.898 -3.0007  3.1120  0.4189
  198MOL0     H26709   4.005   5.707  -1.977  2.5108  1.1871  1.2035
  198MOL0     H26710   3.098   5.890  -1.702  0.1542  3.0863 -2.4184
  198MOL0     H26711   2.974   5.979  -1.508  0.0889 -2.8187 -3.5828
  198MOL0     H26712   3.166   5.828  -0.957  1.6756  0.6713 -0.3050
  198MOL0     H26713   3.221   5.916  -0.733 -2.8216 -4.2183 -1.6867
  198MOL0     H26714   4.088   5.904   0.878 -1.6065  0.0697  0.5813
  198MOL0     H26715   4.251   5.747   0.975 -0.1423 -0.9388  2.9030
  198MOL0     H26716   4.394   5.353   0.963  1.6715 -1.3231  0.2551
  198MOL0     H26717   4.538   5.190   1.006 -1.0737  1.7373 -1.3055
  198MOL0     H26718   4.670   5.045   1.053  2.5903 -1.2671 -1.1380
  198MOL0     H26719   4.714   4.940   1.181  0.1195  0.6948  0.8776
  198MOL0     H26720   4.907   5.070   1.224  1.9111  0.2746 -0.8099
  198MOL0     H26721   4.855   5.208   1.133  2.2737  0.3441  0.1302
  198MOL0     H26722   5.015   5.071   1.000 -0.2738  0.8787  0.1852
  198MOL0     H26723   4.846   5.089   0.940 -1.7966  2.0985  0.8942
  198MOL0     H26724   4.944   4.837   1.103 -2.8628  0.5984  2.0896
  198MOL0     H26725   4.803   4.846   0.996 -0.8046  1.4003  1.7689
  198MOL0     H26726   5.079   4.768   0.700  1.5206 -0.5895  0.7594
  198MOL0     H26727   4.582   5.314   1.414 -0.3956  2.2657  0.2536
  198MOL0     H26728   4.285   5.499   1.440  0.4298  2.4129 -0.7721
  198MOL0     H26729   4.442   5.473   1.507 -1.1753  2.2727  0.8379
  198MOL0     H26730   4.413   5.609   1.397 -1.6611  1.6804 -0.8383
  199MOL0     O26731   0.704   3.702  10.199  0.0155  0.9373 -0.1807
  199MOL0     C26732   0.798   3.737  10.122  0.3851  1.1180 -0.2001
  199MOL0     O26733   0.790   3.847  10.043 -0.4822  0.5423 -0.1417
  199MOL0     C26734   0.686   3.934  10.057 -0.1735  0.9829 -0.1874
  199MOL0     C26735   0.559   3.904   9.991 -0.7479  0.0185  0.7495
  199MOL0     C26736   0.449   3.993  10.007 -0.1306 -0.0274 -0.2452
  199MOL0     C26737   0.479   4.118  10.055  0.0263 -0.3304  0.4265
  199MOL0     O26738   0.388   4.221  10.050 -0.1893 -0.3747 -0.0445
  199MOL0     C26739   0.246   4.211  10.075 -0.8994  0.0780  0.5489
  199MOL0     C26740   0.187   4.323  10.144  1.5494 -0.3859 -1.0896
  199MOL0     C26741   0.212   4.327  10.288 -0.7150 -0.4303 -0.6202
  199MOL0     C26742   0.335   4.412  10.335 -0.9367  0.3695  1.3916
  199MOL0     C26743   0.365   4.429  10.488 -0.3762  0.4745 -0.2846
  199MOL0     C26744   0.406   4.580  10.512  0.4314  0.5844 -0.4235
  199MOL0     C26745   0.458   4.614  10.655 -0.9514  0.3588  0.0068
  199MOL0     C26746   0.602   4.571  10.677  0.0127 -0.3541  0.5630
  199MOL0     N26747   0.694   4.656  10.595  0.6228  0.3983 -0.4588
  199MOL0     C26748   0.687   4.790  10.553 -0.5141  0.2048 -0.2992
  199MOL0     C26749   0.797   4.817  10.478 -0.4037 -0.9301 -0.5162
  199MOL0     C26750   0.844   4.945  10.413 -0.5739 -0.2845  0.3654
  199MOL0     C26751   0.908   4.922  10.267  0.1064  0.2274  0.0960
  199MOL0     C26752   0.912   5.054  10.173  1.2234  0.8464  0.0059
  199MOL0     C26753   1.025   5.151  10.209 -1.3508 -0.0684 -0.7759
  199MOL0     O26754   1.000   5.214  10.336  0.2062 -0.7427 -0.5038
  199MOL0     C26755   0.982   5.347  10.334  0.4561 -0.7996  0.9699
  199MOL0     C26756   0.853   5.394  10.353  0.0165 -0.7811  0.2720
  199MOL0     C26757   0.824   5.532  10.369  0.5150  0.5121 -0.4065
  199MOL0     C26758   0.923   5.624  10.340  0.1557 -0.3245  0.2586
  199MOL0     C26759   0.894   5.765  10.362 -0.3305 -0.3518  0.8888
  199MOL0     O26760   0.805   5.803  10.455 -0.1845  0.0219  0.3162
  199MOL0     C26761   0.760   5.931  10.453  0.2626 -0.4928  0.7111
  199MOL0     C26762   0.781   6.022  10.561 -1.0546  0.4018 -0.1158
  199MOL0     C26763   0.742   6.150  10.548  0.6603  0.2255 -0.9348
  199MOL0     C26764   0.661   6.185  10.442  0.9349 -0.7802  0.5843
  199MOL0     O26765   0.620   6.323  10.434 -0.7766  0.1790  0.9161
  199MOL0     C26766   0.626   6.390  10.303  0.0451 -0.2642 -0.3229
  199MOL0     C26767   0.638   6.541  10.317 -0.0215 -0.9574 -0.0222
  199MOL0     C26768   0.751   6.580  10.417 -0.2820 -1.0593  0.5605
  199MOL0     C26769   0.889   6.616  10.362  0.4476 -0.4311  0.2095
  199MOL0     C26770   0.975   6.494  10.376  0.3639 -0.3684  0.0497
  199MOL0     C26771   1.123   6.522  10.350 -0.3288  0.0671  0.2630
  199MOL0     C26772   1.145   6.557  10.204 -1.1125 -0.0106 -0.2579
  199MOL0     C26773   1.292   6.562  10.153 -0.4787  0.4392  0.4701
  199MOL0    Cl26774   1.291   6.595   9.990  0.3612  0.2273 -0.6112
  199MOL0     C26775   0.629   6.097  10.334 -0.5170 -0.5475  0.6484
  199MOL0     C26776   0.676   5.970  10.343 -0.1480 -0.4512 -0.3520
  199MOL0     O26777   0.945   5.840  10.287 -0.6650 -0.7294 -0.4635
  199MOL0     C26778   1.053   5.572  10.308 -0.3982  0.1170  0.1767
  199MOL0     C26779   1.083   5.440  10.306 -0.1547 -0.1479 -0.4015
  199MOL0     N26780   0.862   4.699  10.458  0.3344  0.5537  0.1140
  199MOL0     N26781   0.816   4.609  10.539 -0.1302  0.6147  0.2718
  199MOL0     C26782   0.598   4.151  10.098  1.0371 -0.7907 -0.3442
  199MOL0     C26783   0.704   4.066  10.092 -0.0132 -0.7158  0.3781
  199MOL0     C26784   0.936   3.676  10.141 -0.7505 -0.2887 -0.1057
  199MOL0     C26785   1.021   3.676  10.026  0.1222  0.4862  0.1571
  199MOL0     C26786   1.145   3.608  10.038 -0.2586  0.0871  0.8045
  199MOL0     C26787   1.188   3.549  10.156  0.0231  0.2813  0.3208
  199MOL0     O26788   1.313   3.485  10.183  0.1857  0.7878 -0.3716
  199MOL0     C26789   1.425   3.474  10.093  0.8271  0.5220  0.3534
  199MOL0     C26790   1.400   3.344  10.008  0.8966  1.1004  0.4078
  199MOL0     C26791   1.513   3.302   9.928  0.3198 -0.8769 -0.0434
  199MOL0     C26792   1.509   3.153   9.883 -0.5815 -0.3866  0.3035
  199MOL0     C26793   1.613   3.151   9.778  1.1204 -0.1997  1.1454
  199MOL0     C26794   1.704   3.142   9.696  0.0220  0.2463  0.8436
  199MOL0     C26795   1.107   3.539  10.259  0.4038  0.5676 -0.5361
  199MOL0     C26796   0.982   3.605  10.256  0.8004 -0.4702  0.2046
  199MOL0     C26797   0.894   3.595  10.380 -0.0615  0.0688  0.4359
  199MOL0     H26798   0.550   3.803   9.951  1.4958 -0.1757  0.6189
  199MOL0     H26799   0.348   3.964   9.984 -1.2791  1.7307  2.1409
  199MOL0     H26800   0.200   4.216   9.975 -0.0717  2.1232  0.2146
  199MOL0     H26801   0.218   4.114  10.118  0.3412 -0.5984 -0.1238
  199MOL0     H26802   0.079   4.306  10.139  1.0133  1.0074  2.5320
  199MOL0     H26803   0.216   4.421  10.105  1.8643  1.7918  3.9048
  199MOL0     H26804   0.207   4.227  10.332  2.8384  0.4055  2.0677
  199MOL0     H26805   0.133   4.393  10.325 -1.5697 -0.9802 -1.3895
  199MOL0     H26806   0.423   4.361  10.295 -2.0529 -1.3505  0.9803
  199MOL0     H26807   0.313   4.506  10.284  1.0247  0.5432  0.7723
  199MOL0     H26808   0.274   4.417  10.547  1.2015 -1.9483  1.8819
  199MOL0     H26809   0.433   4.358  10.536 -0.8412  1.9125  2.6997
  199MOL0     H26810   0.478   4.609  10.435  0.9995  3.1372  0.9620
  199MOL0     H26811   0.320   4.645  10.494  0.4877  0.7643 -0.0430
  199MOL0     H26812   0.398   4.577  10.738  0.8082  3.9645  3.1934
  199MOL0     H26813   0.437   4.721  10.665 -3.4815 -0.0479 -0.1922
  199MOL0     H26814   0.629   4.582  10.783 -1.8368  1.4374  0.9162
  199MOL0     H26815   0.621   4.469  10.644  0.4516  0.2153 -1.0504
  199MOL0     H26816   0.608   4.862  10.571  1.4402  2.4938 -0.2997
  199MOL0     H26817   0.765   5.019  10.398 -0.0158 -0.2171 -3.0540
  199MOL0     H26818   0.919   4.986  10.482 -0.8642  0.1454  0.4249
  199MOL0     H26819   1.009   4.880  10.271 -0.7594 -1.9717  0.1595
  199MOL0     H26820   0.848   4.837  10.233  0.5261 -0.9248  2.0513
  199MOL0     H26821   0.814   5.091  10.204  0.2152 -1.3729 -0.3243
  199MOL0     H26822   0.900   5.028  10.067 -3.9836  0.0150  0.5313
  199MOL0     H26823   1.044   5.218  10.125 -1.6599 -1.1173 -1.7164
  199MOL0     H26824   1.113   5.086  10.220 -1.7909 -0.5333  0.1033
  199MOL0     H26825   0.783   5.312  10.366  3.0787 -3.2067  3.5143
  199MOL0     H26826   0.727   5.572  10.396  0.7951  1.4222 -0.7223
  199MOL0     H26827   0.832   5.983  10.648 -1.0967 -0.8544 -0.6320
  199MOL0     H26828   0.774   6.229  10.615  3.3000 -1.2820 -0.2755
  199MOL0     H26829   0.696   6.351  10.228  1.2068  0.0326  0.5804
  199MOL0     H26830   0.528   6.386  10.254 -0.5001  2.2304  0.4511
  199MOL0     H26831   0.638   6.592  10.220 -4.7136  0.6146  0.5140
  199MOL0     H26832   0.541   6.569  10.359 -0.4391 -0.0685 -1.4700
  199MOL0     H26833   0.719   6.679  10.449 -1.1312 -1.5673  1.3442
  199MOL0     H26834   0.762   6.521  10.509 -2.4248 -0.3732  1.3089
  199MOL0     H26835   0.931   6.702  10.415 -2.3548  1.8206 -0.9669
  199MOL0     H26836   0.874   6.631  10.255 -1.1332  0.5458  0.5432
  199MOL0     H26837   0.940   6.415  10.310  0.3501  2.0356 -3.0683
  199MOL0     H26838   0.976   6.448  10.475  3.5201  1.8795  1.2387
  199MOL0     H26839   1.153   6.612  10.404 -1.2582  1.5599 -1.6156
  199MOL0     H26840   1.181   6.436  10.386  0.2790  0.3741  0.0225
  199MOL0     H26841   1.116   6.658  10.176  0.9910  0.4681 -0.8993
  199MOL0     H26842   1.085   6.488  10.144 -3.2717  0.4216  1.3018
  199MOL0     H26843   1.344   6.645  10.200 -1.9858  2.6660 -1.5872
  199MOL0     H26844   1.351   6.472  10.172  1.3471  0.7858 -2.8389
  199MOL0     H26845   0.571   6.133  10.250  0.0475  2.1260  1.3015
  199MOL0     H26846   0.654   5.893  10.270 -0.9821 -0.5451 -0.0039
  199MOL0     H26847   1.126   5.652  10.298 -0.7256  0.7553  2.2667
  199MOL0     H26848   1.179   5.392  10.290 -1.5924 -2.0894 -4.3636
  199MOL0     H26849   0.614   4.249  10.143 -2.7928 -0.1393 -0.0132
  199MOL0     H26850   0.805   4.086  10.126  0.1314 -3.3895  1.7960
  199MOL0     H26851   0.982   3.727   9.939 -2.3204 -0.2472  0.7509
  199MOL0     H26852   1.205   3.608   9.947 -2.4105  0.1890 -0.6775
  199MOL0     H26853   1.513   3.455  10.155  2.4922 -0.5908 -2.1738
  199MOL0     H26854   1.434   3.560  10.026 -0.4137 -0.8862 -1.7383
  199MOL0     H26855   1.307   3.355   9.951 -0.8615 -1.7968  2.4581
  199MOL0     H26856   1.379   3.260  10.075  0.7821  1.1334  0.4128
  199MOL0     H26857   1.605   3.327   9.981 -0.6133  0.5333  1.0122
  199MOL0     H26858   1.511   3.365   9.838 -1.7608 -2.3379 -1.0953
  199MOL0     H26859   1.544   3.087   9.963 -0.8958 -0.9496 -0.0167
  199MOL0     H26860   1.410   3.120   9.849 -0.5493 -0.4754  0.2967
  199MOL0     H26861   1.791   3.144   9.634 -0.4698  0.8102  0.1518
  199MOL0     H26862   1.144   3.489  10.348  1.2141  0.0773 -1.1345
  199MOL0     H26863   0.841   3.691  10.387  0.9506  0.8294 -1.3689
  199MOL0     H26864   0.819   3.518  10.360 -1.1144  1.5254 -1.6020
  199MOL0     H26865   0.960   3.561  10.460 -1.6133 -4.1837  0.1574
  200MOL0     O26866   2.384  11.042  10.244 -0.2088  0.4703  0.6550
  200MOL0     C26867   2.282  11.108  10.264 -0.6486 -0.1700 -0.3070
  200MOL0     O26868   2.206  11.099  10.383  0.7418 -0.4602  0.0659
  200MOL0     C26869   2.229  10.999  10.466  0.7841 -0.4870 -0.0307
  200MOL0     C26870   2.212  11.021  10.600  0.7778 -0.2232 -0.4629
  200MOL0     C26871   2.204  10.925  10.704  0.4172  0.2564 -0.0289
  200MOL0     C26872   2.211  10.787  10.676  0.8033 -0.4413 -0.5958
  200MOL0     O26873   2.193  10.689  10.770  1.3200  0.0044 -1.2659
  200MOL0     C26874   2.070  10.690  10.846  0.4266 -0.5206  0.0353
  200MOL0     C26875   1.951  10.608  10.797  0.2136 -0.3219 -0.4902
  200MOL0     C26876   2.008  10.470  10.766  0.4571  0.0396  0.6174
  200MOL0     C26877   2.078  10.397  10.882 -0.4584  0.4171 -0.1417
  200MOL0     C26878   1.981  10.365  10.993  0.5036 -0.2499 -0.4581
  200MOL0     C26879   2.041  10.267  11.092 -0.2816 -0.4604 -0.2344
  200MOL0     C26880   1.933  10.193  11.176 -0.0565  0.4895 -0.3506
  200MOL0     C26881   1.968  10.059  11.247 -0.7608  0.5956  0.6511
  200MOL0     N26882   1.848   9.976  11.280 -0.1424 -0.1930  0.3173
  200MOL0     C26883   1.815   9.855  11.232 -0.3146 -0.0180  0.4096
  200MOL0     C26884   1.703   9.827  11.301 -0.5769 -1.1804  0.9723
  200MOL0     C26885   1.615   9.707  11.297 -0.8799 -1.0627  0.3347
  200MOL0     C26886   1.540   9.705  11.163  1.7735  0.8550  1.0896
  200MOL0     C26887   1.408   9.635  11.187  0.0262 -0.0205  0.2146
  200MOL0     C26888   1.336   9.575  11.071  0.4340  0.3527  0.3701
  200MOL0     O26889   1.303   9.670  10.966 -0.1101 -0.6649 -0.8298
  200MOL0     C26890   1.238   9.642  10.852  0.2192  0.7198 -0.7519
  200MOL0     C26891   1.211   9.743  10.770 -0.7978 -0.1758  0.4965
  200MOL0     C26892   1.148   9.731  10.650 -0.1041 -0.4555 -0.6342
  200MOL0     C26893   1.111   9.601  10.608 -0.3179  0.4052  1.2691
  200MOL0     C26894   1.052   9.591  10.467  0.0614  0.2157 -0.3516
  200MOL0     O26895   1.082   9.683  10.364 -0.3508 -0.2955  0.5655
  200MOL0     C26896   1.033   9.680  10.232 -1.2051  0.0419  0.9227
  200MOL0     C26897   0.967   9.570  10.176  0.6921 -0.1015  0.1584
  200MOL0     C26898   0.944   9.564  10.033  0.4401  0.2104 -0.1698
  200MOL0     C26899   0.962   9.682   9.953 -0.4129  0.4122  0.6051
  200MOL0     O26900   0.932   9.671   9.815  0.2248 -0.0487  0.3370
  200MOL0     C26901   0.965   9.781   9.730 -0.0073  0.1603  0.6292
  200MOL0     C26902   0.888   9.769   9.595  0.1975 -0.8480 -0.1296
  200MOL0     C26903   0.944   9.656   9.503  0.4079  0.5053 -0.1399
  200MOL0     C26904   0.942   9.516   9.566 -0.5907 -0.5450 -0.3301
  200MOL0     C26905   1.085   9.473   9.602 -0.2192 -0.3920 -0.4164
  200MOL0     C26906   1.108   9.376   9.720  0.5638 -0.4927 -0.3907
  200MOL0     C26907   1.069   9.224   9.699  0.8977  0.2093  0.7736
  200MOL0     C26908   1.150   9.149   9.597  0.0005  0.6038 -0.2869
  200MOL0    Cl26909   1.147   8.972   9.631 -0.4180  0.1708 -0.5055
  200MOL0     C26910   1.019   9.796  10.010 -0.8523  0.3055  0.1796
  200MOL0     C26911   1.051   9.792  10.144 -0.1811 -0.5671 -0.7464
  200MOL0     O26912   0.980   9.493  10.449 -0.4466  0.5278 -0.5215
  200MOL0     C26913   1.139   9.493  10.687  0.7481 -0.5211  0.4059
  200MOL0     C26914   1.185   9.515  10.816  0.2751 -0.0035  0.0475
  200MOL0     N26915   1.675   9.929  11.389 -0.1431  0.0236 -1.4043
  200MOL0     N26916   1.767  10.018  11.380 -0.0527  0.4290  0.4150
  200MOL0     C26917   2.228  10.752  10.538  0.4636 -0.0577  0.3849
  200MOL0     C26918   2.234  10.857  10.436  0.3599  0.7456 -0.2054
  200MOL0     C26919   2.242  11.212  10.176  0.8977 -0.3287  0.0442
  200MOL0     C26920   2.340  11.309  10.152  0.4279 -0.2966 -1.1195
  200MOL0     C26921   2.307  11.425  10.081 -0.0320  0.7161  0.2420
  200MOL0     C26922   2.178  11.440  10.025 -0.5226 -0.0825 -0.3233
  200MOL0     O26923   2.133  11.545   9.941 -0.1006 -0.0511 -0.8701
  200MOL0     C26924   2.228  11.635   9.908  0.2838  0.0847  0.1643
  200MOL0     C26925   2.182  11.758   9.815  0.1280  0.1111  0.7130
  200MOL0     C26926   2.304  11.837   9.755  0.2801  0.8229 -0.3577
  200MOL0     C26927   2.272  11.944   9.658  0.0147  0.3789  0.0364
  200MOL0     C26928   2.400  11.965   9.584  0.4120  0.0815 -0.0932
  200MOL0     C26929   2.498  11.987   9.518 -0.0727 -0.6527  0.2320
  200MOL0     C26930   2.085  11.341  10.054  0.7797  0.1883  0.2412
  200MOL0     C26931   2.110  11.229  10.132  1.6000  0.6933 -0.2475
  200MOL0     C26932   2.008  11.117  10.146  0.6109  0.6750  0.7430
  200MOL0     H26933   2.204  11.126  10.626 -0.2097 -0.7891  1.8365
  200MOL0     H26934   2.185  10.969  10.801  0.9009  3.8156 -1.3798
  200MOL0     H26935   2.107  10.654  10.942 -0.3278 -2.8122 -0.4684
  200MOL0     H26936   2.035  10.793  10.842 -1.4895 -1.1758 -1.5459
  200MOL0     H26937   1.915  10.639  10.698  2.6122  2.2289 -0.6876
  200MOL0     H26938   1.882  10.623  10.880  0.5966  0.5532 -0.3158
  200MOL0     H26939   2.071  10.476  10.677 -1.3050 -1.7201 -0.8187
  200MOL0     H26940   1.921  10.408  10.742  0.8217 -0.0092 -0.6254
  200MOL0     H26941   2.116  10.300  10.852 -0.3798  0.8304 -1.4495
  200MOL0     H26942   2.164  10.459  10.910  0.6991 -1.1244 -0.1419
  200MOL0     H26943   1.969  10.461  11.044  1.6658  0.2944 -1.1727
  200MOL0     H26944   1.882  10.342  10.953  0.7522  2.1580 -2.7068
  200MOL0     H26945   2.105  10.195  11.040 -1.1722  0.0185 -2.0620
  200MOL0     H26946   2.109  10.313  11.165  0.7402  2.4256 -2.7920
  200MOL0     H26947   1.852  10.170  11.106 -1.8475 -1.9036  2.2856
  200MOL0     H26948   1.882  10.259  11.247 -3.5651 -1.3492 -0.9015
  200MOL0     H26949   2.023  10.001  11.173  0.3916  1.3302  0.9139
  200MOL0     H26950   2.027  10.071  11.338  1.6961 -0.1606 -0.7609
  200MOL0     H26951   1.856   9.786  11.158 -0.1638 -1.9087  2.1576
  200MOL0     H26952   1.678   9.619  11.314 -0.6297 -0.4071  3.3863
  200MOL0     H26953   1.546   9.710  11.382  0.6022 -2.1404  1.6216
  200MOL0     H26954   1.514   9.807  11.134 -0.1050  0.6117  1.7458
  200MOL0     H26955   1.593   9.657  11.080  0.8742 -0.3065  1.1611
  200MOL0     H26956   1.345   9.709  11.237  1.3484  1.3938 -0.1483
  200MOL0     H26957   1.438   9.566  11.266 -1.5435 -1.4113 -0.3355
  200MOL0     H26958   1.241   9.535  11.107  0.4019  0.0608 -0.0263
  200MOL0     H26959   1.385   9.484  11.036  0.3762 -0.0075  1.2139
  200MOL0     H26960   1.236   9.840  10.812 -2.6163  1.2926 -1.5906
  200MOL0     H26961   1.138   9.819  10.588 -2.5016 -1.8650 -2.4235
  200MOL0     H26962   0.942   9.478  10.228  2.2002  0.3089  1.7113
  200MOL0     H26963   0.902   9.472   9.993 -1.0929  1.3909 -1.3784
  200MOL0     H26964   0.938   9.878   9.771 -2.0952 -0.7093  1.4873
  200MOL0     H26965   1.072   9.780   9.711 -0.2955 -3.9068 -2.1185
  200MOL0     H26966   0.779   9.771   9.604  0.3983  0.8557  3.7990
  200MOL0     H26967   0.924   9.859   9.545 -2.3491  0.9052  0.9616
  200MOL0     H26968   0.880   9.658   9.415  0.9187  0.3511 -0.5232
  200MOL0     H26969   1.047   9.681   9.474 -0.3535  1.8983 -1.7688
  200MOL0     H26970   0.904   9.433   9.505  1.0947 -1.6814  0.1042
  200MOL0     H26971   0.883   9.515   9.658  0.0456  3.1856  0.2654
  200MOL0     H26972   1.138   9.563   9.633 -0.5746 -0.9436  2.0250
  200MOL0     H26973   1.128   9.431   9.510 -2.2231  0.1523 -1.6490
  200MOL0     H26974   1.214   9.384   9.746  0.4675 -0.6454  0.0590
  200MOL0     H26975   1.031   9.409   9.790 -0.3588 -1.5100 -0.9131
  200MOL0     H26976   0.965   9.204   9.672  0.8218  1.1667  0.3141
  200MOL0     H26977   1.070   9.170   9.794 -1.3778 -0.0425  0.7031
  200MOL0     H26978   1.107   9.173   9.499 -0.8246 -2.9566 -0.9420
  200MOL0     H26979   1.253   9.186   9.592  0.5932 -0.8861  0.4130
  200MOL0     H26980   1.049   9.875   9.942  0.1577 -1.8366 -2.0177
  200MOL0     H26981   1.081   9.886  10.189 -1.0903 -0.6382  0.0404
  200MOL0     H26982   1.098   9.395  10.667 -1.2345  0.1095  1.1358
  200MOL0     H26983   1.186   9.426  10.878 -0.5044 -1.1242 -1.4879
  200MOL0     H26984   2.239  10.649  10.508  2.7532  0.8744 -2.3090
  200MOL0     H26985   2.248  10.831  10.331 -1.3262  3.1621 -1.0972
  200MOL0     H26986   2.441  11.277  10.177 -0.1832 -1.2743  0.2892
  200MOL0     H26987   2.371  11.512  10.070 -1.6603  2.1914  1.6759
  200MOL0     H26988   2.324  11.598   9.870 -0.5108 -0.8458 -1.0009
  200MOL0     H26989   2.257  11.680  10.004 -4.1570 -1.1967  2.3825
  200MOL0     H26990   2.119  11.829   9.870  0.3339  2.0120 -1.3676
  200MOL0     H26991   2.117  11.732   9.731 -0.8871  0.8220  1.2568
  200MOL0     H26992   2.371  11.764   9.709  0.1995  0.1809  0.5275
  200MOL0     H26993   2.363  11.886   9.834 -0.1146  1.5671 -0.5151
  200MOL0     H26994   2.197  11.917   9.583  1.1487  0.7286 -1.2758
  200MOL0     H26995   2.248  12.043   9.698 -1.8357  0.3673 -0.9351
  200MOL0     H26996   2.585  12.024   9.468 -1.0595 -1.1674 -1.9643
  200MOL0     H26997   1.985  11.348  10.011 -0.7810 -1.0706  3.3115
  200MOL0     H26998   2.043  11.014  10.161  1.1426  0.7965  0.3424
  200MOL0     H26999   1.934  11.140  10.223 -0.3882  1.2612 -0.3577
  200MOL0     H27000   1.949  11.125  10.054 -3.7145  4.7012  3.4142
  201MOL0     O27001   8.605   1.009   1.605 -0.6200 -0.5786  0.4297
  201MOL0     C27002   8.698   0.979   1.676  1.0984 -0.1487  0.0393
  201MOL0     O27003   8.728   0.851   1.706  0.2549  0.0184 -0.1226
  201MOL0     C27004   8.683   0.754   1.620 -0.3323  0.3108  0.2497
  201MOL0     C27005   8.548   0.718   1.620 -1.0280 -0.8620 -0.5758
  201MOL0     C27006   8.504   0.617   1.545 -1.1229  0.7314 -0.7270
  201MOL0     C27007   8.592   0.542   1.472  0.7155  0.1927 -0.1084
  201MOL0     O27008   8.538   0.454   1.381  0.8323  0.6257  0.2514
  201MOL0     C27009   8.610   0.335   1.340 -0.7506 -0.2624  0.3447
  201MOL0     C27010   8.528   0.266   1.217  0.9956 -0.0916  0.3021
  201MOL0     C27011   8.386   0.204   1.256 -0.6899  0.2487  0.6420
  201MOL0     C27012   8.296   0.180   1.135  0.6504  0.2461 -0.8424
  201MOL0     C27013   8.361   0.115   1.010 -0.2183 -0.3087 -1.2502
  201MOL0     C27014   8.383  -0.033   1.033 -0.6608 -0.1826  0.1274
  201MOL0     C27015   8.429  -0.110   0.908 -0.4117 -0.1714  0.3821
  201MOL0     C27016   8.326  -0.111   0.794  0.4941 -0.0402  0.7717
  201MOL0     N27017   8.387  -0.176   0.681 -0.7794 -0.1842 -0.1265
  201MOL0     C27018   8.445  -0.304   0.677 -0.5277  0.8092  0.1497
  201MOL0     C27019   8.537  -0.294   0.580  0.9596 -0.4041  0.3682
  201MOL0     C27020   8.642  -0.393   0.559 -0.4329 -0.1153 -0.2613
  201MOL0     C27021   8.737  -0.400   0.674 -0.0773  1.0509 -0.1844
  201MOL0     C27022   8.877  -0.341   0.657 -0.3532 -0.6549  0.3276
  201MOL0     C27023   8.874  -0.188   0.678  0.1210  0.0520  0.5047
  201MOL0     O27024   8.833  -0.152   0.812  0.4808 -0.1355 -0.3871
  201MOL0     C27025   8.855  -0.023   0.862 -0.4902  0.7068  0.5350
  201MOL0     C27026   8.869  -0.011   1.001  0.3197  0.4939  0.2173
  201MOL0     C27027   8.873   0.112   1.064  0.0457 -0.2407  0.2223
  201MOL0     C27028   8.886   0.224   0.978  0.2746 -0.1562 -0.3394
  201MOL0     C27029   8.929   0.357   1.030  0.3503 -0.4511 -1.4668
  201MOL0     O27030   8.934   0.463   0.949 -0.3229 -0.0680  0.6040
  201MOL0     C27031   8.968   0.588   0.989  0.4451 -0.3720 -0.7294
  201MOL0     C27032   9.019   0.672   0.898  0.3988  0.5713 -0.0830
  201MOL0     C27033   9.050   0.802   0.936 -0.0458 -0.1724 -0.4748
  201MOL0     C27034   9.028   0.852   1.060 -0.8879  0.5870 -0.2549
  201MOL0     O27035   9.066   0.983   1.084 -1.0681 -0.1775 -0.9766
  201MOL0     C27036   9.074   1.016   1.228  0.1872  0.1446 -0.0853
  201MOL0     C27037   8.948   1.084   1.270 -0.3401 -0.4189  0.5126
  201MOL0     C27038   8.966   1.137   1.412  0.1038 -0.5041 -0.1606
  201MOL0     C27039   8.874   1.256   1.438 -0.1388  0.1395 -0.2104
  201MOL0     C27040   8.734   1.236   1.397 -0.2036  0.1585  0.4339
  201MOL0     C27041   8.653   1.362   1.421 -0.0114 -0.6752 -0.0846
  201MOL0     C27042   8.503   1.353   1.380  0.3569  0.3162  0.6792
  201MOL0     C27043   8.472   1.428   1.249 -0.7911 -0.1418  0.2008
  201MOL0    Cl27044   8.516   1.601   1.249 -0.0597 -0.1984  0.5021
  201MOL0     C27045   8.973   0.767   1.151  0.9757  0.3712  0.1376
  201MOL0     C27046   8.946   0.635   1.117  0.6047  0.1905  0.1601
  201MOL0     O27047   8.983   0.358   1.144 -0.6913  0.4654  0.2509
  201MOL0     C27048   8.875   0.215   0.838 -0.5129  0.4720 -0.2236
  201MOL0     C27049   8.856   0.091   0.783  0.8119  0.2216  0.1846
  201MOL0     N27050   8.520  -0.175   0.521  0.2402  0.4505 -0.0925
  201MOL0     N27051   8.422  -0.110   0.576  0.3037  0.2788  0.2163
  201MOL0     C27052   8.733   0.570   1.474  0.3760 -0.2360  0.2290
  201MOL0     C27053   8.777   0.681   1.553  1.2806 -0.5243 -0.0049
  201MOL0     C27054   8.771   1.095   1.745  0.3280 -0.9900  0.5113
  201MOL0     C27055   8.902   1.061   1.784 -0.3811 -0.5807 -0.2137
  201MOL0     C27056   8.992   1.165   1.824  0.1634  1.5029 -0.0952
  201MOL0     C27057   8.946   1.297   1.831 -0.8432 -0.1155 -1.1330
  201MOL0     O27058   9.046   1.376   1.873 -0.3428  0.1189  0.2074
  201MOL0     C27059   9.051   1.506   1.807  0.1237  0.6293 -0.2397
  201MOL0     C27060   9.069   1.507   1.648 -0.1511  0.1581 -0.6195
  201MOL0     C27061   9.206   1.445   1.614 -0.2783  0.5818  1.1895
  201MOL0     C27062   9.272   1.515   1.495  0.5738 -0.4781 -0.2673
  201MOL0     C27063   9.180   1.515   1.379  0.5732  0.8642 -0.0796
  201MOL0     C27064   9.128   1.545   1.276 -0.2791 -0.8289  0.3391
  201MOL0     C27065   8.812   1.325   1.805  0.2580  0.5398 -0.7791
  201MOL0     C27066   8.723   1.221   1.758 -0.7131 -0.3005 -0.6328
  201MOL0     C27067   8.582   1.263   1.744  0.2848 -0.1868  1.1693
  201MOL0     H27068   8.476   0.779   1.673  0.8033  1.5123 -0.6317
  201MOL0     H27069   8.401   0.581   1.540 -0.2276 -2.1423 -0.4703
  201MOL0     H27070   8.706   0.369   1.301 -1.4177 -1.0789 -2.1594
  201MOL0     H27071   8.631   0.266   1.422  1.8132  0.9495  0.7914
  201MOL0     H27072   8.591   0.187   1.176  0.3041 -0.1246 -0.7548
  201MOL0     H27073   8.525   0.336   1.133  0.0945 -0.4350  0.0297
  201MOL0     H27074   8.341   0.280   1.321 -1.2778  1.1659 -0.7887
  201MOL0     H27075   8.412   0.120   1.321  2.5097 -1.0248 -1.9778
  201MOL0     H27076   8.213   0.125   1.179  0.6928  0.3241 -0.6605
  201MOL0     H27077   8.254   0.276   1.103 -0.7934 -0.4950 -1.2414
  201MOL0     H27078   8.289   0.135   0.930 -1.4845 -3.5647 -1.0725
  201MOL0     H27079   8.459   0.161   0.997  0.5234 -0.0001  3.5403
  201MOL0     H27080   8.447  -0.042   1.122 -1.1706 -1.0901  0.4111
  201MOL0     H27081   8.292  -0.086   1.063 -2.1071  0.6520 -2.5041
  201MOL0     H27082   8.442  -0.214   0.939  2.3183 -1.2352 -3.5302
  201MOL0     H27083   8.529  -0.073   0.883 -0.0500  0.1156  2.1312
  201MOL0     H27084   8.237  -0.169   0.823 -0.8111  1.2298 -0.5038
  201MOL0     H27085   8.293  -0.010   0.769  1.9362  0.4881  0.9490
  201MOL0     H27086   8.427  -0.385   0.747 -1.6951  2.2664  1.6317
  201MOL0     H27087   8.596  -0.492   0.557  1.2517 -0.9521 -2.3005
  201MOL0     H27088   8.693  -0.371   0.464 -3.3759 -0.1768 -1.9642
  201MOL0     H27089   8.696  -0.354   0.764  4.0131 -0.3699  2.6766
  201MOL0     H27090   8.753  -0.506   0.696 -1.3672  0.7213 -0.7558
  201MOL0     H27091   8.916  -0.360   0.556  3.4185  1.4848  1.1941
  201MOL0     H27092   8.955  -0.387   0.719  0.4868 -2.9806 -2.2266
  201MOL0     H27093   8.794  -0.149   0.615 -2.3983 -1.2015  2.6984
  201MOL0     H27094   8.974  -0.156   0.647 -0.4612  0.2190 -1.2721
  201MOL0     H27095   8.869  -0.096   1.068  1.4967  1.4184  1.4736
  201MOL0     H27096   8.880   0.130   1.171  1.2982 -2.0515  0.4824
  201MOL0     H27097   9.024   0.635   0.796 -3.0976 -2.7505  0.7685
  201MOL0     H27098   9.093   0.875   0.868 -0.5501  1.9226  1.3278
  201MOL0     H27099   9.084   0.935   1.301  2.0318 -0.4429 -0.9363
  201MOL0     H27100   9.147   1.094   1.252 -0.8079  0.3852  2.5198
  201MOL0     H27101   8.925   1.167   1.203  1.6078  1.1130  1.6143
  201MOL0     H27102   8.859   1.022   1.257 -1.8964  1.5139  1.3888
  201MOL0     H27103   8.926   1.065   1.484 -3.0619  0.8317 -0.4056
  201MOL0     H27104   9.068   1.161   1.441 -0.4152  1.6064  0.0820
  201MOL0     H27105   8.936   1.336   1.399  1.1535 -0.6043  0.2664
  201MOL0     H27106   8.864   1.283   1.544 -2.8602  1.0151 -0.6090
  201MOL0     H27107   8.684   1.152   1.447 -0.2544 -0.7834 -1.1290
  201MOL0     H27108   8.735   1.212   1.290 -0.7407 -2.7762  1.0135
  201MOL0     H27109   8.667   1.403   1.521 -1.1812 -1.1712  0.2978
  201MOL0     H27110   8.691   1.445   1.361 -0.1437  0.1703  0.9690
  201MOL0     H27111   8.448   1.422   1.444  0.3229  1.2946 -0.3638
  201MOL0     H27112   8.473   1.248   1.385  0.3188  0.3816  4.1673
  201MOL0     H27113   8.538   1.380   1.176 -2.8714 -4.9722  1.1430
  201MOL0     H27114   8.367   1.410   1.225 -0.9677  0.3824  0.5442
  201MOL0     H27115   8.936   0.802   1.248 -2.1788  0.3591 -0.9438
  201MOL0     H27116   8.907   0.583   1.203 -0.1859 -1.6250 -1.2202
  201MOL0     H27117   8.903   0.306   0.785 -4.3873  1.3381 -1.1299
  201MOL0     H27118   8.855   0.084   0.675 -1.3351  4.1837 -0.2527
  201MOL0     H27119   8.806   0.520   1.411  0.7487  1.6385 -0.8973
  201MOL0     H27120   8.883   0.704   1.549  1.2061  0.0655  1.2528
  201MOL0     H27121   8.941   0.960   1.781  2.3030  0.3828 -0.5423
  201MOL0     H27122   9.096   1.136   1.836  0.1229  0.9232 -1.0457
  201MOL0     H27123   9.130   1.567   1.853  0.8746 -0.9856  0.7052
  201MOL0     H27124   8.957   1.555   1.833 -2.2148 -2.2902 -2.5268
  201MOL0     H27125   9.068   1.613   1.624 -0.0834  0.2313 -0.3059
  201MOL0     H27126   8.989   1.466   1.586  0.7378  0.3175 -1.9176
  201MOL0     H27127   9.195   1.336   1.612 -1.0922  0.6597  0.9480
  201MOL0     H27128   9.289   1.461   1.684  2.0920  6.5792 -2.2539
  201MOL0     H27129   9.299   1.617   1.526  4.5153 -1.8024  1.3113
  201MOL0     H27130   9.369   1.469   1.475  2.0550  1.4030  1.9683
  201MOL0     H27131   9.069   1.582   1.194  0.0960  0.1967  0.5226
  201MOL0     H27132   8.769   1.425   1.808  0.4152  0.5940  0.5687
  201MOL0     H27133   8.531   1.222   1.656 -1.6546  0.2287  2.0702
  201MOL0     H27134   8.524   1.247   1.834 -3.4065 -2.7302 -1.3911
  201MOL0     H27135   8.574   1.371   1.726 -2.6501 -0.7164 -1.6208
  202MOL0     O27136   5.634   9.597   6.245  0.4433 -0.3183  0.7693
  202MOL0     C27137   5.563   9.527   6.314  0.8538 -0.6513  0.6042
  202MOL0     O27138   5.604   9.448   6.417 -0.0659 -0.1269 -0.5343
  202MOL0     C27139   5.736   9.417   6.410 -0.5976  0.7052  0.1972
  202MOL0     C27140   5.829   9.487   6.492  0.1919 -0.1237  0.1618
  202MOL0     C27141   5.967   9.470   6.476  0.3455  0.1062  0.4686
  202MOL0     C27142   6.016   9.385   6.379 -0.0738  0.5310 -0.1131
  202MOL0     O27143   6.149   9.373   6.355 -0.3108  0.2330  1.2237
  202MOL0     C27144   6.235   9.484   6.382 -0.4294  0.0870  0.2079
  202MOL0     C27145   6.336   9.453   6.494 -0.4552 -0.0843 -0.6844
  202MOL0     C27146   6.308   9.512   6.641 -0.3853  0.6543  0.3307
  202MOL0     C27147   6.401   9.439   6.738  0.8219 -0.5740 -0.0587
  202MOL0     C27148   6.549   9.444   6.706 -0.0974 -0.0568 -0.0507
  202MOL0     C27149   6.617   9.367   6.816 -0.2556  1.0577 -0.3876
  202MOL0     C27150   6.766   9.397   6.817  0.2521  0.4374  0.3288
  202MOL0     C27151   6.847   9.369   6.939  0.1548 -0.4836  0.0761
  202MOL0     N27152   6.813   9.452   7.053  0.4021  0.5618  0.0398
  202MOL0     C27153   6.702   9.436   7.133  0.5755  0.4956  0.7227
  202MOL0     C27154   6.727   9.524   7.238  0.3337  0.1522  0.7447
  202MOL0     C27155   6.661   9.509   7.375  1.3161  0.3703 -0.5721
  202MOL0     C27156   6.506   9.538   7.374 -0.4097  0.1255  0.1916
  202MOL0     C27157   6.480   9.685   7.387  0.2438 -0.3150 -0.0908
  202MOL0     C27158   6.332   9.696   7.356  0.2152  0.1951  0.2393
  202MOL0     O27159   6.271   9.829   7.387 -0.0919 -0.0191  0.0235
  202MOL0     C27160   6.145   9.823   7.429  0.8359  0.4574 -0.0187
  202MOL0     C27161   6.048   9.754   7.364 -0.6166  0.1969 -0.1238
  202MOL0     C27162   5.922   9.738   7.422 -0.3326 -0.0427  0.6469
  202MOL0     C27163   5.885   9.816   7.535 -0.9759  1.6720  0.2528
  202MOL0     C27164   5.759   9.817   7.596  0.1157 -0.0051 -0.1083
  202MOL0     O27165   5.742   9.862   7.724 -0.0547  0.2232 -0.1680
  202MOL0     C27166   5.628   9.863   7.794 -0.2866  0.1764  0.0022
  202MOL0     C27167   5.512   9.927   7.744 -0.5859  0.7978  0.5094
  202MOL0     C27168   5.383   9.922   7.803 -0.3476  0.0712  0.9442
  202MOL0     C27169   5.360   9.828   7.907  0.4151  0.0887  0.5649
  202MOL0     O27170   5.234   9.795   7.954  0.0543  0.5175 -0.0885
  202MOL0     C27171   5.206   9.829   8.091  0.9113 -0.2029  0.1708
  202MOL0     C27172   5.100   9.731   8.151 -0.3493 -0.5167  0.4005
  202MOL0     C27173   5.083   9.770   8.293  0.0697 -0.0680 -0.3795
  202MOL0     C27174   5.030   9.661   8.378  1.4190  0.3744 -0.2633
  202MOL0     C27175   5.048   9.672   8.532 -0.2431  0.8566 -0.3392
  202MOL0     C27176   5.003   9.537   8.597  0.2361  0.1554 -0.9649
  202MOL0     C27177   5.006   9.556   8.748  0.2722 -0.3825  0.0796
  202MOL0     C27178   4.932   9.443   8.823 -0.2422 -0.2609 -0.5280
  202MOL0    Cl27179   4.893   9.511   8.983  0.0672 -0.2330  0.2029
  202MOL0     C27180   5.470   9.767   7.958  0.6343 -0.2485 -0.0027
  202MOL0     C27181   5.605   9.787   7.912  0.1984  1.0835 -0.4634
  202MOL0     O27182   5.664   9.759   7.540  0.6279  0.5611 -0.5337
  202MOL0     C27183   5.988   9.891   7.601 -0.0829 -0.4423  0.3474
  202MOL0     C27184   6.115   9.892   7.545  0.6829  0.0102 -0.8429
  202MOL0     N27185   6.843   9.586   7.216 -0.1705 -0.3567 -0.1414
  202MOL0     N27186   6.893   9.537   7.113 -0.3153  0.2206 -0.9372
  202MOL0     C27187   5.923   9.316   6.295 -0.1618 -0.0665  0.1365
  202MOL0     C27188   5.781   9.326   6.311 -0.1443  0.8094 -0.5782
  202MOL0     C27189   5.425   9.512   6.274  0.0283 -1.4518  0.9527
  202MOL0     C27190   5.323   9.576   6.344  0.0733 -0.4008  0.4550
  202MOL0     C27191   5.195   9.603   6.287 -0.2079  0.6090  1.5233
  202MOL0     C27192   5.182   9.556   6.152  0.7206 -0.9342  0.3904
  202MOL0     O27193   5.062   9.566   6.085 -0.3642 -0.1988 -0.1878
  202MOL0     C27194   4.942   9.601   6.160  0.0069  0.2865  0.3254
  202MOL0     C27195   4.823   9.536   6.091 -0.5317  0.2957 -0.4037
  202MOL0     C27196   4.699   9.538   6.185 -0.5373  0.1557 -0.1024
  202MOL0     C27197   4.616   9.663   6.157 -0.6911  0.5261 -0.2419
  202MOL0     C27198   4.497   9.648   6.236  0.2054 -0.1673  0.5433
  202MOL0     C27199   4.407   9.630   6.319 -0.1909  0.6712 -0.1567
  202MOL0     C27200   5.273   9.487   6.084 -0.1159 -0.5197 -0.8365
  202MOL0     C27201   5.401   9.468   6.140  0.2830 -0.0721  0.3655
  202MOL0     C27202   5.505   9.399   6.045 -0.2272  0.1126 -0.3825
  202MOL0     H27203   5.789   9.550   6.572  0.7124  3.2573 -2.0270
  202MOL0     H27204   6.035   9.530   6.535 -0.1075  2.1842 -0.9962
  202MOL0     H27205   6.297   9.499   6.294  0.1837  2.2153  0.9281
  202MOL0     H27206   6.189   9.581   6.400  2.6353  1.1306  3.8374
  202MOL0     H27207   6.433   9.483   6.454  0.2511 -2.6409 -1.0591
  202MOL0     H27208   6.330   9.345   6.509 -2.6036  0.2131  1.0467
  202MOL0     H27209   6.207   9.489   6.675  0.1999 -0.3359  1.4785
  202MOL0     H27210   6.333   9.619   6.639 -1.1064  0.8889 -3.5247
  202MOL0     H27211   6.387   9.479   6.839 -1.6696  0.9263 -0.9358
  202MOL0     H27212   6.372   9.333   6.741  0.7365 -0.5321  1.8579
  202MOL0     H27213   6.573   9.402   6.607 -2.1023  1.1146 -1.1170
  202MOL0     H27214   6.583   9.548   6.700 -1.2849  0.3858  0.6607
  202MOL0     H27215   6.568   9.387   6.912 -1.3884 -1.6708 -0.2969
  202MOL0     H27216   6.594   9.261   6.803  0.6067  0.8754 -0.4950
  202MOL0     H27217   6.780   9.504   6.800  1.5059  0.4415  1.2480
  202MOL0     H27218   6.811   9.349   6.730 -0.3042  0.1335  0.2032
  202MOL0     H27219   6.835   9.265   6.971  3.2178 -0.7743  0.5705
  202MOL0     H27220   6.951   9.386   6.910  0.6185 -1.8710  0.8243
  202MOL0     H27221   6.627   9.358   7.128  0.9535  0.0299  1.8458
  202MOL0     H27222   6.672   9.406   7.410 -2.1103  0.6487  1.7426
  202MOL0     H27223   6.709   9.584   7.440  0.5702 -1.4747  2.2718
  202MOL0     H27224   6.465   9.500   7.280  3.9116 -2.8105 -0.8127
  202MOL0     H27225   6.468   9.475   7.455 -0.5193 -3.2027 -2.2301
  202MOL0     H27226   6.542   9.741   7.316  0.8624 -2.2194 -1.1053
  202MOL0     H27227   6.487   9.729   7.487 -0.3510  1.0730 -0.6304
  202MOL0     H27228   6.278   9.618   7.410 -1.2112  1.1649  0.2392
  202MOL0     H27229   6.317   9.675   7.249 -2.4438  3.1004 -0.0673
  202MOL0     H27230   6.069   9.699   7.273  0.9507 -1.2378  1.0404
  202MOL0     H27231   5.849   9.671   7.377  0.0798  0.5902 -1.0249
  202MOL0     H27232   5.526   9.970   7.645  0.0137 -1.1300 -0.2878
  202MOL0     H27233   5.303   9.974   7.751  1.1803  1.2972 -0.3185
  202MOL0     H27234   5.290   9.820   8.160  1.7651  0.5733 -0.7221
  202MOL0     H27235   5.171   9.933   8.084 -1.2302 -0.9946 -2.2249
  202MOL0     H27236   5.012   9.752   8.091 -0.6807  1.9489  1.6227
  202MOL0     H27237   5.135   9.629   8.134  0.0132 -0.1283 -1.4190
  202MOL0     H27238   5.178   9.801   8.337  0.3835 -0.6971 -0.6002
  202MOL0     H27239   5.013   9.853   8.308  1.2286  0.5609  2.0724
  202MOL0     H27240   5.052   9.560   8.341  2.5204  0.9733 -1.2993
  202MOL0     H27241   4.922   9.661   8.360  1.5623 -3.5473 -2.3562
  202MOL0     H27242   4.997   9.757   8.577  3.2870  0.8555  4.5015
  202MOL0     H27243   5.155   9.682   8.553 -0.2857  2.5279 -0.8235
  202MOL0     H27244   4.901   9.508   8.571  0.1475  0.1481 -0.6155
  202MOL0     H27245   5.063   9.449   8.571  0.5147 -1.1008  3.2282
  202MOL0     H27246   4.958   9.653   8.762 -2.2404 -1.3733 -1.1411
  202MOL0     H27247   5.109   9.553   8.786  0.0815  0.1693  0.6482
  202MOL0     H27248   4.841   9.410   8.772 -0.3902 -3.2476  1.4201
  202MOL0     H27249   4.989   9.351   8.841 -2.0558 -1.7394 -2.0325
  202MOL0     H27250   5.462   9.692   8.035 -0.7253  1.0846  1.2256
  202MOL0     H27251   5.695   9.745   7.954 -1.5383 -3.1390 -0.5102
  202MOL0     H27252   5.963   9.938   7.695  0.6821 -1.5712  1.1327
  202MOL0     H27253   6.199   9.946   7.588  1.0920  0.8182 -2.5581
  202MOL0     H27254   5.969   9.261   6.213  0.0022  0.9294 -0.4636
  202MOL0     H27255   5.711   9.263   6.257 -1.5593 -0.1107  2.1097
  202MOL0     H27256   5.342   9.608   6.446  0.8257 -1.7330  0.7587
  202MOL0     H27257   5.114   9.649   6.343 -1.1646 -0.0977  0.7639
  202MOL0     H27258   4.932   9.710   6.160 -0.8037  0.2215 -0.2177
  202MOL0     H27259   4.959   9.562   6.260 -1.6483  2.4288  1.5138
  202MOL0     H27260   4.855   9.432   6.085 -0.8518 -0.0394  2.5524
  202MOL0     H27261   4.803   9.570   5.989 -3.7071 -2.5089 -0.8763
  202MOL0     H27262   4.728   9.531   6.290 -0.4402 -3.7312 -0.2378
  202MOL0     H27263   4.633   9.452   6.169 -2.6152  1.6837 -0.1786
  202MOL0     H27264   4.670   9.749   6.197  1.3319  0.1855 -2.0678
  202MOL0     H27265   4.590   9.668   6.051 -2.8819 -2.6279 -0.0192
  202MOL0     H27266   4.325   9.623   6.388 -0.0925 -0.5323 -0.1522
  202MOL0     H27267   5.257   9.455   5.982  1.9230 -0.8000 -1.1143
  202MOL0     H27268   5.590   9.467   6.057  0.8278 -1.5353  2.7706
  202MOL0     H27269   5.537   9.308   6.097  1.0412  0.6603 -0.1711
  202MOL0     H27270   5.471   9.390   5.941 -0.8620  0.8986 -0.2442
  203MOL0     O27271   6.594   9.547   8.028 -1.0434 -0.0665 -0.8112
  203MOL0     C27272   6.613   9.452   7.955 -0.5715 -0.6847 -0.1820
  203MOL0     O27273   6.707   9.447   7.858 -0.2548  0.4229  1.2667
  203MOL0     C27274   6.804   9.545   7.854 -0.7507  0.2270  0.0046
  203MOL0     C27275   6.810   9.621   7.747  0.3034 -1.0847 -0.0804
  203MOL0     C27276   6.921   9.702   7.724 -0.9859  0.1071  0.5794
  203MOL0     C27277   7.024   9.723   7.819  0.3375 -0.0212 -0.0051
  203MOL0     O27278   7.138   9.797   7.798  0.4245 -0.2284  0.3618
  203MOL0     C27279   7.143   9.894   7.685  0.4203  0.5357 -0.4027
  203MOL0     C27280   7.297   9.939   7.673  0.0001 -0.0473 -0.0557
  203MOL0     C27281   7.393   9.821   7.644 -0.6025  0.1371 -0.4525
  203MOL0     C27282   7.541   9.871   7.682 -0.2529  0.0678  1.1417
  203MOL0     C27283   7.634   9.757   7.665  0.0001 -0.6536 -0.0726
  203MOL0     C27284   7.775   9.796   7.722  0.2857  0.2680 -0.6493
  203MOL0     C27285   7.879   9.688   7.700  0.5251 -0.4479 -0.0041
  203MOL0     C27286   7.860   9.577   7.800 -0.7740  0.4352 -0.3296
  203MOL0     N27287   7.988   9.531   7.858  0.0584 -0.0977 -0.7162
  203MOL0     C27288   8.033   9.405   7.861 -0.5678  0.1086  0.4938
  203MOL0     C27289   8.149   9.408   7.935 -0.6954 -0.2920  0.4830
  203MOL0     C27290   8.239   9.295   7.984  0.5225 -0.6188  0.3800
  203MOL0     C27291   8.327   9.236   7.877 -0.7923 -0.6295  0.8054
  203MOL0     C27292   8.391   9.101   7.927 -0.3435  1.0164 -0.2035
  203MOL0     C27293   8.469   9.117   8.055 -0.0630 -1.0377  0.4635
  203MOL0     O27294   8.520   8.986   8.090 -0.2577 -0.0827 -0.0235
  203MOL0     C27295   8.532   8.952   8.222  0.6978  0.0824 -1.2116
  203MOL0     C27296   8.513   8.814   8.265 -0.1689  0.5096 -0.2938
  203MOL0     C27297   8.504   8.788   8.400 -0.4999 -0.0906 -0.0312
  203MOL0     C27298   8.530   8.893   8.504  0.2204  0.0009  0.2782
  203MOL0     C27299   8.529   8.860   8.651 -0.5430  0.6188 -0.4318
  203MOL0     O27300   8.577   8.958   8.740  0.8536  0.9709 -0.0035
  203MOL0     C27301   8.543   8.927   8.867 -0.0690  1.0279 -0.8255
  203MOL0     C27302   8.441   8.986   8.934  0.9030 -0.4677 -0.2358
  203MOL0     C27303   8.405   8.949   9.058  1.1741 -0.3331 -0.3433
  203MOL0     C27304   8.474   8.846   9.131  0.3230 -0.3793  0.7758
  203MOL0     O27305   8.435   8.813   9.254  0.4216  0.3556  0.1976
  203MOL0     C27306   8.534   8.849   9.351  0.1816 -0.6744 -0.1437
  203MOL0     C27307   8.506   8.992   9.403  0.0767 -0.3289  0.9135
  203MOL0     C27308   8.619   9.029   9.502 -0.4064  0.4587 -0.1694
  203MOL0     C27309   8.616   9.168   9.546  0.5704 -0.3969 -0.1969
  203MOL0     C27310   8.739   9.212   9.633  0.0396  0.3465  0.1128
  203MOL0     C27311   8.743   9.367   9.653 -0.5115  0.2212  0.0440
  203MOL0     C27312   8.892   9.413   9.692 -0.2375 -0.8146 -0.2230
  203MOL0     C27313   8.933   9.563   9.686 -0.0548 -0.0143  0.3369
  203MOL0    Cl27314   8.920   9.621   9.515 -0.1950 -0.0319  0.4956
  203MOL0     C27315   8.580   8.776   9.061 -0.3357 -0.7389 -0.2035
  203MOL0     C27316   8.618   8.821   8.932 -1.3756 -1.3296 -0.4691
  203MOL0     O27317   8.492   8.749   8.678 -0.8943  0.2593  0.1792
  203MOL0     C27318   8.558   9.023   8.461 -0.3064  0.3616 -0.9392
  203MOL0     C27319   8.558   9.049   8.326 -0.5181  0.0652 -0.7871
  203MOL0     N27320   8.173   9.537   7.972 -0.8755 -0.4825 -0.3157
  203MOL0     N27321   8.083   9.613   7.928  0.0921  0.4458 -0.4610
  203MOL0     C27322   7.015   9.648   7.934  0.6607 -0.1337 -0.5541
  203MOL0     C27323   6.905   9.552   7.950  0.0359  0.3896  0.4148
  203MOL0     C27324   6.512   9.348   7.966  0.3089  0.9469  0.6880
  203MOL0     C27325   6.454   9.323   8.090 -0.1035 -0.3398  0.1086
  203MOL0     C27326   6.363   9.218   8.104  1.0631 -0.1266  0.5471
  203MOL0     C27327   6.328   9.131   7.997  0.5601 -0.7021 -0.4735
  203MOL0     O27328   6.233   9.033   8.005  1.0230  0.2622  0.1332
  203MOL0     C27329   6.126   9.054   8.093 -0.5088  0.1502 -0.9892
  203MOL0     C27330   6.109   8.932   8.196  0.9495 -1.0917 -0.3547
  203MOL0     C27331   6.194   8.951   8.325  1.6098 -0.2314 -0.2886
  203MOL0     C27332   6.168   9.076   8.412 -0.1306  0.1335 -0.0589
  203MOL0     C27333   6.040   9.075   8.477  0.2545  0.0098  0.9137
  203MOL0     C27334   5.927   9.068   8.518  0.6045 -0.5059  0.5932
  203MOL0     C27335   6.381   9.160   7.871  0.1932 -0.6449  0.0457
  203MOL0     C27336   6.469   9.270   7.858  0.7082 -0.4201  0.7652
  203MOL0     C27337   6.506   9.317   7.717  1.3192 -0.4401  0.8187
  203MOL0     H27338   6.715   9.622   7.695 -2.3337  0.7605  4.2052
  203MOL0     H27339   6.903   9.755   7.630 -3.1524  0.4064  1.1061
  203MOL0     H27340   7.116   9.838   7.595  2.0287 -0.7100 -0.1425
  203MOL0     H27341   7.063   9.968   7.700 -1.9997 -2.0330  0.2883
  203MOL0     H27342   7.331   9.989   7.765  1.3002  0.4651 -0.7889
  203MOL0     H27343   7.317  10.015   7.597 -0.5401 -0.0532 -0.2023
  203MOL0     H27344   7.399   9.810   7.536  0.5557 -0.3331 -0.3582
  203MOL0     H27345   7.376   9.720   7.682  1.3953 -0.0035  0.2247
  203MOL0     H27346   7.575   9.964   7.637  0.2596  0.8202  2.9655
  203MOL0     H27347   7.540   9.897   7.789  0.5271 -1.4276  1.5328
  203MOL0     H27348   7.603   9.660   7.707  2.7045 -0.8235  1.8057
  203MOL0     H27349   7.657   9.746   7.559  0.0996  0.3028 -0.1504
  203MOL0     H27350   7.811   9.886   7.673 -1.4461 -0.9386 -4.5190
  203MOL0     H27351   7.764   9.823   7.828 -2.8150 -1.9318 -0.2898
  203MOL0     H27352   7.966   9.752   7.716 -1.3357  2.0564  0.7081
  203MOL0     H27353   7.863   9.665   7.594  0.9557  3.6069 -1.1393
  203MOL0     H27354   7.788   9.607   7.876 -1.3006  2.7141 -1.6309
  203MOL0     H27355   7.830   9.487   7.746 -0.8046 -0.6517  1.4171
  203MOL0     H27356   7.997   9.316   7.810 -1.0413 -0.1850  1.3158
  203MOL0     H27357   8.293   9.335   8.070 -4.4476  0.6710  3.3140
  203MOL0     H27358   8.176   9.214   8.022 -0.8859  0.5091  0.5165
  203MOL0     H27359   8.279   9.226   7.779  1.8149  2.6501 -1.0136
  203MOL0     H27360   8.407   9.307   7.855 -1.2547  0.1076  1.4227
  203MOL0     H27361   8.465   9.061   7.857  2.5126  1.7459  2.1754
  203MOL0     H27362   8.314   9.023   7.934 -1.2998  1.9787  0.4188
  203MOL0     H27363   8.410   9.161   8.137  0.4882  0.4624  0.0690
  203MOL0     H27364   8.545   9.193   8.038 -0.3159 -0.4273  1.8727
  203MOL0     H27365   8.504   8.731   8.195 -2.1521  1.5393 -1.3392
  203MOL0     H27366   8.496   8.686   8.437  1.4077 -0.0936  0.4537
  203MOL0     H27367   8.392   9.064   8.876  0.8268  1.0441  1.7583
  203MOL0     H27368   8.329   9.012   9.104  1.8362  1.3349 -1.4340
  203MOL0     H27369   8.516   8.779   9.433  0.1240 -3.4198 -2.3575
  203MOL0     H27370   8.636   8.829   9.318 -0.3879 -2.6724 -0.8450
  203MOL0     H27371   8.500   9.073   9.330  1.7412  0.3281  1.4620
  203MOL0     H27372   8.407   8.980   9.449 -0.3823 -0.6795 -0.1197
  203MOL0     H27373   8.609   8.960   9.587 -2.9052  2.7240  1.5477
  203MOL0     H27374   8.720   9.008   9.464  0.1357  1.2689  0.7500
  203MOL0     H27375   8.522   9.165   9.600 -0.0126 -2.4865 -1.2218
  203MOL0     H27376   8.594   9.240   9.466 -0.3216 -0.1518  0.2577
  203MOL0     H27377   8.825   9.167   9.583  0.0315 -3.6459  3.1568
  203MOL0     H27378   8.724   9.160   9.728 -2.4026  1.5727  0.4778
  203MOL0     H27379   8.717   9.419   9.560  0.1005 -2.0431 -1.4743
  203MOL0     H27380   8.673   9.402   9.729  1.5913  1.1503  1.6698
  203MOL0     H27381   8.954   9.355   9.623 -2.5012 -2.4878 -0.9704
  203MOL0     H27382   8.911   9.377   9.793 -4.7420  4.2781  2.9736
  203MOL0     H27383   8.866   9.625   9.747  1.5869  1.4813  0.6878
  203MOL0     H27384   9.035   9.580   9.722  0.2432 -1.9393  0.5109
  203MOL0     H27385   8.628   8.689   9.105  0.8346 -0.1317 -0.2323
  203MOL0     H27386   8.708   8.781   8.887 -0.4813 -0.4337  0.4571
  203MOL0     H27387   8.585   9.104   8.528 -0.7860 -1.7545  1.9857
  203MOL0     H27388   8.581   9.153   8.308  4.2604  0.3425  4.1605
  203MOL0     H27389   7.088   9.662   8.013 -0.7607  1.4764  0.5559
  203MOL0     H27390   6.905   9.503   8.046 -3.2755 -0.0141  0.3476
  203MOL0     H27391   6.478   9.379   8.179  2.2858 -2.3400  0.8143
  203MOL0     H27392   6.313   9.198   8.198 -2.2567  0.0402 -1.0388
  203MOL0     H27393   6.033   9.047   8.035 -1.2686  4.2047 -0.5569
  203MOL0     H27394   6.135   9.148   8.147 -2.8432 -1.0238  1.7522
  203MOL0     H27395   6.114   8.839   8.139 -3.6002 -0.4708 -2.1422
  203MOL0     H27396   6.006   8.950   8.228  1.0200 -2.6655  0.8769
  203MOL0     H27397   6.300   8.942   8.300  1.1650  0.7401 -2.8672
  203MOL0     H27398   6.175   8.858   8.378  2.5797 -0.4031 -0.2309
  203MOL0     H27399   6.256   9.090   8.475  0.6376 -2.3370 -0.4897
  203MOL0     H27400   6.155   9.160   8.343 -2.0900 -0.0395  0.0421
  203MOL0     H27401   5.825   9.051   8.546  0.2316  0.1877 -0.2810
  203MOL0     H27402   6.353   9.103   7.783  1.0368  1.0828 -1.4151
  203MOL0     H27403   6.495   9.425   7.703  0.9123 -0.4453  1.0823
  203MOL0     H27404   6.602   9.287   7.675 -0.0042 -0.9936 -2.0414
  203MOL0     H27405   6.433   9.267   7.653  1.3997 -0.8227  1.0247
  204MOL0     O27406   2.911   1.414   8.243 -0.0732  0.3094  0.0311
  204MOL0     C27407   2.911   1.535   8.271 -0.1068  0.8974  0.0671
  204MOL0     O27408   3.014   1.597   8.335  0.1210 -0.3245 -0.3105
  204MOL0     C27409   3.130   1.534   8.360 -0.8955  0.1331 -0.5675
  204MOL0     C27410   3.234   1.581   8.285  0.0295  0.3000  0.3414
  204MOL0     C27411   3.376   1.547   8.305  0.0257 -0.4268 -0.8138
  204MOL0     C27412   3.407   1.470   8.418 -0.4866  0.1279  0.0353
  204MOL0     O27413   3.536   1.429   8.455  0.9672  0.7677 -0.2922
  204MOL0     C27414   3.642   1.454   8.364  0.6098  0.4304 -0.3106
  204MOL0     C27415   3.765   1.377   8.412 -0.1369 -0.7424 -0.0181
  204MOL0     C27416   3.753   1.220   8.411 -0.1278  0.7450 -0.1352
  204MOL0     C27417   3.890   1.166   8.459  0.0636  0.2406 -0.0967
  204MOL0     C27418   3.888   1.033   8.536 -0.4684 -0.4825 -0.1041
  204MOL0     C27419   4.022   0.985   8.589  0.3144  0.2863 -0.5339
  204MOL0     C27420   4.019   0.846   8.656 -0.2146  0.9589  0.1366
  204MOL0     C27421   4.167   0.792   8.657 -0.3498  0.6235 -0.3330
  204MOL0     N27422   4.246   0.832   8.781 -0.5631 -0.5309 -0.2854
  204MOL0     C27423   4.234   0.957   8.838 -0.3863 -0.2459 -0.0070
  204MOL0     C27424   4.348   0.972   8.916 -0.5790  0.6577  0.0701
  204MOL0     C27425   4.393   1.098   8.996  1.0982 -0.1290 -0.0437
  204MOL0     C27426   4.348   1.088   9.139 -0.3542  0.7748  1.1368
  204MOL0     C27427   4.376   1.222   9.212 -0.4427  0.3635  0.6456
  204MOL0     C27428   4.267   1.336   9.228 -0.0391  0.6935 -0.3116
  204MOL0     O27429   4.233   1.382   9.095 -0.0798  0.7024  0.8494
  204MOL0     C27430   4.140   1.485   9.090  0.2939 -0.7359 -0.6313
  204MOL0     C27431   4.011   1.453   9.136  0.4384  0.2558 -0.0610
  204MOL0     C27432   3.902   1.549   9.166 -0.1818 -0.5658 -0.6612
  204MOL0     C27433   3.936   1.679   9.112  0.1288  0.8726 -0.0357
  204MOL0     C27434   3.835   1.792   9.105  0.1720 -1.0332 -1.0578
  204MOL0     O27435   3.718   1.742   9.155 -0.3363  0.2177  0.3798
  204MOL0     C27436   3.626   1.831   9.185 -0.4225  0.1553 -0.3662
  204MOL0     C27437   3.557   1.810   9.304  0.4610  0.8954  0.0676
  204MOL0     C27438   3.451   1.891   9.341 -0.0676  0.8587  0.5698
  204MOL0     C27439   3.418   2.007   9.258  0.3990  0.6013  0.5776
  204MOL0     O27440   3.331   2.099   9.309  1.0509 -0.1129 -0.0195
  204MOL0     C27441   3.301   2.218   9.239  0.0634  0.4112  0.6076
  204MOL0     C27442   3.249   2.329   9.330 -0.0895 -0.7453 -0.1905
  204MOL0     C27443   3.187   2.443   9.256  0.4245  0.4265 -0.0521
  204MOL0     C27444   3.097   2.520   9.349 -0.1199 -0.3231  0.2802
  204MOL0     C27445   3.038   2.648   9.262 -0.1678 -0.1042 -0.3678
  204MOL0     C27446   3.108   2.785   9.290  0.3753 -0.3984  0.4692
  204MOL0     C27447   3.261   2.792   9.260  0.5730 -0.1372 -0.7212
  204MOL0     C27448   3.308   2.941   9.219  0.3020  0.3343  0.8876
  204MOL0    Cl27449   3.202   2.984   9.071  0.2701  0.4421  0.6777
  204MOL0     C27450   3.482   2.022   9.130  0.0895 -0.2135  0.0835
  204MOL0     C27451   3.585   1.930   9.093 -0.4394 -0.1256  1.1552
  204MOL0     O27452   3.874   1.905   9.106  0.2307  0.4239  0.5570
  204MOL0     C27453   4.065   1.711   9.075 -0.2555  1.2249 -0.2307
  204MOL0     C27454   4.163   1.616   9.044  0.6290 -1.0006  0.6044
  204MOL0     N27455   4.429   0.861   8.898  0.6382 -1.1747 -0.8670
  204MOL0     N27456   4.371   0.793   8.807 -0.4553  0.3669 -0.2890
  204MOL0     C27457   3.309   1.414   8.489 -0.5469  0.0415  0.4649
  204MOL0     C27458   3.172   1.444   8.462  1.5205  0.4612  0.6217
  204MOL0     C27459   2.792   1.624   8.234  0.5290  0.7704 -0.1549
  204MOL0     C27460   2.800   1.769   8.237 -0.6493  0.5745  0.2526
  204MOL0     C27461   2.693   1.847   8.228  0.6468 -0.0559  0.3909
  204MOL0     C27462   2.567   1.805   8.211 -0.4690 -0.2028 -0.2288
  204MOL0     O27463   2.458   1.883   8.198  0.3926  0.8098 -0.8714
  204MOL0     C27464   2.433   1.982   8.296 -0.6293 -0.0474 -0.0181
  204MOL0     C27465   2.294   2.038   8.287 -0.5151  0.8289  0.0357
  204MOL0     C27466   2.249   2.064   8.132 -1.1447  0.0368  0.0700
  204MOL0     C27467   2.113   2.123   8.114  0.5132  0.3049  0.7938
  204MOL0     C27468   2.110   2.249   8.188  0.2495  0.2134 -0.7032
  204MOL0     C27469   2.114   2.355   8.251 -0.4944 -0.8011 -0.7054
  204MOL0     C27470   2.555   1.667   8.206 -0.3995  0.2052  0.4713
  204MOL0     C27471   2.655   1.574   8.217 -0.0691  0.3493 -0.4100
  204MOL0     C27472   2.623   1.426   8.215  0.4330 -0.5286 -0.6090
  204MOL0     H27473   3.205   1.656   8.213  0.1371  0.4302  0.4341
  204MOL0     H27474   3.460   1.593   8.253  0.8321  0.4231  1.1503
  204MOL0     H27475   3.639   1.423   8.259  3.0407  0.1574 -0.3403
  204MOL0     H27476   3.670   1.560   8.368  0.9053  0.4983 -2.6347
  204MOL0     H27477   3.791   1.423   8.508  1.9680 -0.2062 -0.7734
  204MOL0     H27478   3.854   1.394   8.350 -0.0980 -2.3820 -0.4485
  204MOL0     H27479   3.730   1.172   8.315  1.6065  3.2298 -1.9541
  204MOL0     H27480   3.678   1.200   8.488  1.8939  1.0727  2.0109
  204MOL0     H27481   3.958   1.161   8.373  0.9037  2.9055  0.3316
  204MOL0     H27482   3.930   1.240   8.528  1.9179 -2.7979  2.3623
  204MOL0     H27483   3.820   1.055   8.618 -0.0456  0.5285 -0.0118
  204MOL0     H27484   3.844   0.950   8.479 -0.3667 -2.9228  3.1035
  204MOL0     H27485   4.095   0.995   8.508 -0.7915  1.7645 -1.4108
  204MOL0     H27486   4.043   1.054   8.671 -0.5802 -2.7404  2.4491
  204MOL0     H27487   3.967   0.774   8.593 -0.9264  2.1684 -0.7061
  204MOL0     H27488   3.985   0.844   8.760  1.7101  3.7447  0.9592
  204MOL0     H27489   4.160   0.684   8.666  0.3302  0.6448  0.6185
  204MOL0     H27490   4.229   0.820   8.571  0.1869  2.5832  0.6109
  204MOL0     H27491   4.151   1.025   8.823 -1.2295 -0.6562  2.4436
  204MOL0     H27492   4.502   1.109   8.994  0.9524  1.5352 -1.5676
  204MOL0     H27493   4.343   1.183   8.949  0.7010 -1.0404 -1.3294
  204MOL0     H27494   4.240   1.068   9.133 -0.2110  0.4640 -2.1441
  204MOL0     H27495   4.405   1.006   9.184 -0.6717  0.6979  1.4023
  204MOL0     H27496   4.472   1.254   9.170 -0.2869 -1.1923 -0.2589
  204MOL0     H27497   4.395   1.191   9.315 -1.5844  1.3600  1.1924
  204MOL0     H27498   4.313   1.413   9.292 -1.6269 -1.8814  4.4637
  204MOL0     H27499   4.180   1.294   9.280 -1.3519  1.2349 -1.9809
  204MOL0     H27500   3.994   1.351   9.167  1.0840  0.4658  1.0221
  204MOL0     H27501   3.808   1.543   9.219 -1.5587  1.0585 -2.7491
  204MOL0     H27502   3.597   1.736   9.373 -0.1645  0.3593 -0.1358
  204MOL0     H27503   3.400   1.890   9.436  1.3696  1.3976  1.3662
  204MOL0     H27504   3.387   2.259   9.184 -0.2873  1.5799  0.8969
  204MOL0     H27505   3.219   2.196   9.170 -0.0070  1.7351  0.2423
  204MOL0     H27506   3.180   2.282   9.401  0.0284 -1.8990 -0.8251
  204MOL0     H27507   3.335   2.362   9.390  2.0799 -2.3639 -2.2232
  204MOL0     H27508   3.260   2.496   9.195  0.9631 -0.6904 -0.3921
  204MOL0     H27509   3.124   2.399   9.178  0.1112 -1.6963  1.3051
  204MOL0     H27510   3.167   2.555   9.424  1.7549 -0.4561 -1.3242
  204MOL0     H27511   3.021   2.448   9.381  0.1550 -1.4736 -1.5039
  204MOL0     H27512   2.931   2.665   9.276 -0.6927 -2.6836 -0.5853
  204MOL0     H27513   3.047   2.617   9.157 -1.1666 -0.6777 -0.2938
  204MOL0     H27514   3.050   2.854   9.228 -0.6080 -1.1462  0.5241
  204MOL0     H27515   3.089   2.825   9.390  0.1048  1.9468 -0.4403
  204MOL0     H27516   3.269   2.713   9.185 -2.7302 -1.5771  0.2911
  204MOL0     H27517   3.320   2.750   9.343 -0.5876 -3.0613 -1.2718
  204MOL0     H27518   3.291   3.008   9.304  0.6128  1.5729  0.0044
  204MOL0     H27519   3.414   2.946   9.195  0.0182  4.8833 -0.3791
  204MOL0     H27520   3.451   2.105   9.067 -1.4612 -0.3283  0.6625
  204MOL0     H27521   3.641   1.948   9.001 -1.6424 -0.1211  0.3909
  204MOL0     H27522   4.084   1.814   9.047  1.5385  0.6651 -1.2659
  204MOL0     H27523   4.266   1.646   9.026  0.8389  1.3083  4.4080
  204MOL0     H27524   3.338   1.344   8.568  0.0320 -0.5483 -0.2563
  204MOL0     H27525   3.089   1.400   8.516  1.3450 -0.2505 -0.2088
  204MOL0     H27526   2.891   1.820   8.268 -0.1960 -0.1113  0.0782
  204MOL0     H27527   2.707   1.955   8.235  0.5772 -0.1149  1.6265
  204MOL0     H27528   2.507   2.056   8.263 -1.1730 -0.2170 -1.6780
  204MOL0     H27529   2.461   1.954   8.398 -1.0694  0.6128  0.2957
  204MOL0     H27530   2.297   2.124   8.353  1.2607  0.8990 -0.0960
  204MOL0     H27531   2.220   1.969   8.329  0.5372  0.6446  1.6530
  204MOL0     H27532   2.249   1.967   8.080 -1.1466 -0.5753  1.1887
  204MOL0     H27533   2.327   2.133   8.101 -0.5930  0.0485  1.4388
  204MOL0     H27534   2.099   2.170   8.016  0.2171  2.8184  1.9687
  204MOL0     H27535   2.040   2.047   8.143 -0.0738  0.7622  0.5322
  204MOL0     H27536   2.125   2.440   8.316 -1.1256 -2.2057  1.3467
  204MOL0     H27537   2.464   1.614   8.182  1.0861 -2.8857  1.1889
  204MOL0     H27538   2.695   1.371   8.154 -0.2809 -1.7489 -0.3883
  204MOL0     H27539   2.624   1.383   8.316  4.3055  1.4342  0.3713
  204MOL0     H27540   2.529   1.403   8.163  0.9427 -1.6257 -1.0825
  205MOL0     O27541   5.267  10.227   2.891 -0.2279 -0.7218  0.3026
  205MOL0     C27542   5.331  10.129   2.848  0.2713  0.5185  0.3536
  205MOL0     O27543   5.318  10.002   2.894  0.1207  0.3925  1.1108
  205MOL0     C27544   5.235   9.966   3.004 -1.0247 -0.0522  0.7098
  205MOL0     C27545   5.144   9.861   2.988 -0.3279  1.2367 -0.5235
  205MOL0     C27546   5.062   9.825   3.093  1.2789 -1.0333 -0.5606
  205MOL0     C27547   5.052   9.896   3.205  0.4473 -1.3812 -0.2567
  205MOL0     O27548   4.977   9.835   3.301  0.1422  0.7023  0.2907
  205MOL0     C27549   4.980   9.889   3.429 -0.1719 -0.8685  0.5236
  205MOL0     C27550   4.871   9.834   3.509 -0.2905 -1.1577  0.0682
  205MOL0     C27551   4.854   9.914   3.634 -0.0958 -0.2776 -0.9241
  205MOL0     C27552   4.964   9.881   3.735  0.8348 -0.7815  1.2697
  205MOL0     C27553   4.971   9.956   3.871  0.1686 -0.6028 -0.5559
  205MOL0     C27554   4.844   9.965   3.955 -0.3752 -0.5121 -0.2441
  205MOL0     C27555   4.807   9.822   3.990  0.0304 -0.8026  1.1569
  205MOL0     C27556   4.816   9.819   4.143  0.1428  0.8345  0.1384
  205MOL0     N27557   4.795   9.680   4.174 -0.0360 -0.0491 -0.6785
  205MOL0     C27558   4.706   9.623   4.255  0.2226  0.2916 -0.0283
  205MOL0     C27559   4.731   9.488   4.269  0.0562  1.2397  0.8044
  205MOL0     C27560   4.665   9.378   4.350  0.4991  0.4711 -0.5101
  205MOL0     C27561   4.703   9.379   4.497 -0.8014 -0.2632  0.2182
  205MOL0     C27562   4.862   9.364   4.514  0.2788 -0.7390 -0.0147
  205MOL0     C27563   4.915   9.374   4.653  0.4575  0.1406 -1.4061
  205MOL0     O27564   4.891   9.258   4.728  0.8787  0.3377 -0.6316
  205MOL0     C27565   4.814   9.278   4.841 -0.4870 -0.0655 -0.4220
  205MOL0     C27566   4.825   9.384   4.927 -0.7614 -0.4854 -0.2014
  205MOL0     C27567   4.748   9.399   5.040 -0.1649  0.2333 -0.0255
  205MOL0     C27568   4.651   9.312   5.076 -0.5782  0.1280 -1.2691
  205MOL0     C27569   4.570   9.327   5.204  1.2081  0.0723 -0.2375
  205MOL0     O27570   4.501   9.223   5.259  0.8017  0.0823  0.8107
  205MOL0     C27571   4.401   9.224   5.354 -0.9720  1.3669  0.2875
  205MOL0     C27572   4.371   9.097   5.406  0.2653  0.3604 -0.0938
  205MOL0     C27573   4.279   9.069   5.499 -0.1396 -0.5895  0.3036
  205MOL0     C27574   4.198   9.177   5.542 -0.4439  0.6299 -1.1361
  205MOL0     O27575   4.107   9.155   5.638  0.1136  0.1279 -0.4639
  205MOL0     C27576   4.115   9.050   5.738  0.2502  0.0937  0.1007
  205MOL0     C27577   4.243   9.066   5.815 -0.4216 -0.5661 -0.2767
  205MOL0     C27578   4.236   8.997   5.955 -0.5420  0.3893  0.0333
  205MOL0     C27579   4.155   9.076   6.067 -0.2574  0.3762 -0.4446
  205MOL0     C27580   4.211   9.034   6.198  0.0660 -0.0031 -0.2385
  205MOL0     C27581   4.132   9.111   6.311 -0.2970 -0.8538  0.3976
  205MOL0     C27582   4.137   9.058   6.458  0.2201 -0.2765  0.9714
  205MOL0     C27583   4.079   9.156   6.558  0.4875  0.2009 -0.4129
  205MOL0    Cl27584   4.046   9.069   6.708  0.1802 -0.2868 -0.2287
  205MOL0     C27585   4.226   9.312   5.490 -0.5607  0.9861  0.4127
  205MOL0     C27586   4.318   9.331   5.389  0.4934 -0.3095  0.1538
  205MOL0     O27587   4.561   9.443   5.238  0.1297  0.2521 -0.1052
  205MOL0     C27588   4.630   9.200   4.987 -0.5935  0.0861 -0.2255
  205MOL0     C27589   4.715   9.184   4.873  0.3546 -0.7341 -0.1405
  205MOL0     N27590   4.843   9.469   4.187  0.1333 -0.3038  0.2793
  205MOL0     N27591   4.872   9.583   4.131  0.8838  0.1163  0.1289
  205MOL0     C27592   5.136  10.012   3.217  0.2561 -1.0353 -0.3441
  205MOL0     C27593   5.235  10.039   3.121 -0.3114 -0.9530 -0.0718
  205MOL0     C27594   5.448  10.148   2.754  0.5018  0.4645  0.1489
  205MOL0     C27595   5.486  10.047   2.666  0.5678 -0.1195  0.3659
  205MOL0     C27596   5.578  10.066   2.568 -0.9587 -0.0035 -0.9110
  205MOL0     C27597   5.649  10.191   2.559 -0.1018  0.3225  0.2344
  205MOL0     O27598   5.755  10.208   2.474 -0.6197 -0.0615  0.0523
  205MOL0     C27599   5.821  10.335   2.468 -0.5860 -1.1229 -0.3152
  205MOL0     C27600   5.943  10.320   2.375 -0.1179  0.0749  0.1798
  205MOL0     C27601   6.019  10.445   2.358 -0.5687 -0.0964 -0.6949
  205MOL0     C27602   6.167  10.427   2.304 -0.1505  0.6142 -0.8078
  205MOL0     C27603   6.251  10.344   2.398  0.5374 -0.1218 -0.1184
  205MOL0     C27604   6.326  10.288   2.477  0.4512 -0.6294  0.4674
  205MOL0     C27605   5.606  10.296   2.646 -0.0799 -0.1173  0.9018
  205MOL0     C27606   5.502  10.275   2.742  0.9354  0.2705  0.3064
  205MOL0     C27607   5.478  10.391   2.828 -0.3021 -0.0114  0.7906
  205MOL0     H27608   5.158   9.816   2.890  3.4408  0.5111  0.1769
  205MOL0     H27609   4.988   9.747   3.078 -2.0997  1.6365  0.8854
  205MOL0     H27610   5.078   9.875   3.476  0.9739  0.6465 -1.2509
  205MOL0     H27611   4.954   9.994   3.411 -1.4753 -1.6917 -3.3735
  205MOL0     H27612   4.905   9.732   3.528 -0.1905 -1.0269  0.5852
  205MOL0     H27613   4.784   9.841   3.442 -0.9392  0.7178  1.0288
  205MOL0     H27614   4.754   9.896   3.672  0.2071  2.9276  1.8630
  205MOL0     H27615   4.869  10.020   3.612  1.5928  0.3109  2.5164
  205MOL0     H27616   4.971   9.773   3.753 -0.3385 -1.6165 -2.4155
  205MOL0     H27617   5.055   9.904   3.678 -0.6284  0.6831 -0.6087
  205MOL0     H27618   5.057   9.939   3.936  0.6697  3.7175  0.1969
  205MOL0     H27619   4.992  10.058   3.838 -1.2235  0.0008  0.3256
  205MOL0     H27620   4.867  10.025   4.043 -0.6927  0.8641 -1.0659
  205MOL0     H27621   4.749   9.996   3.910 -1.1099  2.8500  3.0802
  205MOL0     H27622   4.876   9.750   3.946 -0.6994  0.1035 -1.6850
  205MOL0     H27623   4.709   9.800   3.945  0.6095 -3.2031  0.9323
  205MOL0     H27624   4.914   9.847   4.181  0.2417  1.5794 -0.6298
  205MOL0     H27625   4.744   9.881   4.197  1.9944  1.2607  2.2586
  205MOL0     H27626   4.618   9.663   4.306  1.0850 -1.1606  2.8524
  205MOL0     H27627   4.558   9.401   4.352  0.8854  2.4179 -0.0074
  205MOL0     H27628   4.692   9.283   4.302 -1.9712 -1.3803  1.5130
  205MOL0     H27629   4.653   9.456   4.558 -1.0983  2.4820 -3.1690
  205MOL0     H27630   4.659   9.290   4.542  1.6093 -1.6763 -0.0642
  205MOL0     H27631   4.914   9.442   4.457 -1.0498  2.2048  2.5114
  205MOL0     H27632   4.896   9.267   4.474  1.2993 -0.2919 -0.2736
  205MOL0     H27633   4.873   9.465   4.696  0.5121 -0.7009  0.5044
  205MOL0     H27634   5.024   9.384   4.647  0.4645  2.0211  0.8211
  205MOL0     H27635   4.914   9.443   4.911  0.3114 -1.9306  0.2609
  205MOL0     H27636   4.770   9.487   5.099  0.2012  1.3556 -1.7494
  205MOL0     H27637   4.432   9.015   5.368  0.9886  1.7655 -2.1462
  205MOL0     H27638   4.266   8.962   5.516 -2.2024 -0.7442 -1.7054
  205MOL0     H27639   4.035   9.080   5.805  1.6128  1.9987  0.9467
  205MOL0     H27640   4.093   8.951   5.695 -0.0491 -0.3213  1.1931
  205MOL0     H27641   4.321   9.020   5.752 -0.0692 -1.4387  0.7627
  205MOL0     H27642   4.273   9.166   5.845  2.3388 -1.1953 -0.6089
  205MOL0     H27643   4.191   8.897   5.952 -1.3453  0.4362  4.2506
  205MOL0     H27644   4.337   8.971   5.986 -1.3817 -4.0697 -0.2538
  205MOL0     H27645   4.047   9.058   6.068 -0.1566 -0.4154  1.3941
  205MOL0     H27646   4.174   9.182   6.052  1.1485  0.2037 -0.0787
  205MOL0     H27647   4.316   9.055   6.221 -0.2630 -1.0004  2.5845
  205MOL0     H27648   4.183   8.928   6.196  0.1247 -0.1289  2.4604
  205MOL0     H27649   4.155   9.218   6.314 -2.1002 -0.4745  2.1589
  205MOL0     H27650   4.027   9.104   6.282 -0.2811  0.4909 -0.0428
  205MOL0     H27651   4.241   9.033   6.480  0.3402 -1.0154 -0.3510
  205MOL0     H27652   4.084   8.962   6.466 -0.4330 -0.0284 -0.2452
  205MOL0     H27653   4.153   9.235   6.571 -0.1072  1.1887 -2.6200
  205MOL0     H27654   3.980   9.192   6.526 -1.2474 -2.4738  1.4353
  205MOL0     H27655   4.158   9.390   5.522  1.7459  1.8277  3.8545
  205MOL0     H27656   4.336   9.432   5.351 -1.0484 -0.1470 -0.1997
  205MOL0     H27657   4.555   9.124   5.007 -1.1002  0.7766  0.5633
  205MOL0     H27658   4.697   9.101   4.805 -1.5535 -0.8412  0.4456
  205MOL0     H27659   5.145  10.049   3.318 -0.4228 -4.1132  0.9465
  205MOL0     H27660   5.291  10.130   3.140  0.0025 -1.8631  4.3742
  205MOL0     H27661   5.437   9.950   2.678  2.5744 -1.1584  0.6039
  205MOL0     H27662   5.609   9.975   2.518  2.9560 -1.2435  3.1087
  205MOL0     H27663   5.858  10.367   2.566 -0.4708 -0.9151 -0.4252
  205MOL0     H27664   5.746  10.410   2.441 -0.1471 -0.4077  0.4134
  205MOL0     H27665   5.917  10.276   2.278  1.7994  0.5564 -0.5962
  205MOL0     H27666   6.012  10.259   2.435 -0.6986  3.7706  5.2346
  205MOL0     H27667   6.024  10.485   2.460 -2.1038  0.4117 -0.7891
  205MOL0     H27668   5.956  10.523   2.314 -3.4327 -3.1911 -2.5061
  205MOL0     H27669   6.163  10.371   2.210  1.8901 -0.9961 -0.0168
  205MOL0     H27670   6.216  10.524   2.291  0.3092  0.9984  2.6846
  205MOL0     H27671   6.397  10.237   2.539 -0.3506 -0.5935  1.4466
  205MOL0     H27672   5.637  10.400   2.643  0.0595 -0.1641  0.6724
  205MOL0     H27673   5.380  10.438   2.811  1.2507  3.8420  1.3855
  205MOL0     H27674   5.477  10.345   2.927 -0.4539  0.3137  0.9427
  205MOL0     H27675   5.559  10.464   2.823  0.2626 -0.6815 -2.9692
  206MOL0     O27676  10.800   9.903   5.049  0.4157 -0.2737 -0.4230
  206MOL0     C27677  10.817   9.805   5.119  0.9516  1.6091 -0.7277
  206MOL0     O27678  10.925   9.729   5.114  0.8042  0.5593  0.7839
  206MOL0     C27679  10.990   9.713   4.991  0.2156  0.9339 -0.2951
  206MOL0     C27680  10.929   9.702   4.872  0.7646  0.0230  0.2577
  206MOL0     C27681  11.000   9.674   4.756  0.0069 -0.4374 -0.1210
  206MOL0     C27682  11.133   9.640   4.759  1.0854 -0.2514  0.0097
  206MOL0     O27683  11.204   9.602   4.648 -0.6728  0.4492 -0.3238
  206MOL0     C27684  11.293   9.699   4.609 -0.1964  0.8276  0.0034
  206MOL0     C27685  11.372   9.624   4.495 -0.0595 -0.2501 -0.2280
  206MOL0     C27686  11.458   9.702   4.396  0.2920  0.0220  0.9742
  206MOL0     C27687  11.551   9.789   4.484 -0.1716  0.1091  0.1420
  206MOL0     C27688  11.675   9.839   4.405 -0.6925 -0.4596 -0.0768
  206MOL0     C27689  11.637   9.962   4.306  0.2055  0.1123  0.0537
  206MOL0     C27690  11.754  10.013   4.232 -0.2946  0.4222  0.0353
  206MOL0     C27691  11.868  10.068   4.319  0.6298 -0.0827  0.5239
  206MOL0     N27692  11.834  10.151   4.433  0.0082 -0.4583  0.5407
  206MOL0     C27693  11.764  10.272   4.417 -0.2008  0.1348  0.0501
  206MOL0     C27694  11.718  10.301   4.545 -0.6115  0.3415 -0.0068
  206MOL0     C27695  11.647  10.430   4.587  0.3683 -0.6074  0.4457
  206MOL0     C27696  11.492  10.414   4.597 -0.7428 -0.5419  0.8775
  206MOL0     C27697  11.430  10.344   4.468 -0.3079 -0.5835 -0.5355
  206MOL0     C27698  11.283  10.381   4.461 -0.5470  0.6785 -0.0325
  206MOL0     O27699  11.220  10.296   4.360 -0.4579 -0.2756  0.2751
  206MOL0     C27700  11.115  10.226   4.401  0.7035  0.7661 -0.6071
  206MOL0     C27701  11.000  10.230   4.315  0.8273 -0.0403 -0.6590
  206MOL0     C27702  10.882  10.154   4.353  0.1822  0.0352  0.7247
  206MOL0     C27703  10.890  10.060   4.461 -0.5461  0.1631  0.2214
  206MOL0     C27704  10.773   9.972   4.494  0.2485 -0.9174 -0.3833
  206MOL0     O27705  10.785   9.892   4.601 -0.0567  0.6412 -0.2039
  206MOL0     C27706  10.664   9.823   4.639 -0.5672 -0.3799 -0.2070
  206MOL0     C27707  10.651   9.684   4.639 -0.1338  0.1278  1.2844
  206MOL0     C27708  10.535   9.625   4.698  0.2054  0.1886 -0.5350
  206MOL0     C27709  10.435   9.709   4.747 -0.0090  0.0637 -0.2330
  206MOL0     O27710  10.326   9.645   4.806  0.3441  0.1208 -0.4716
  206MOL0     C27711  10.249   9.706   4.904 -0.2356  1.0658 -0.0950
  206MOL0     C27712  10.141   9.791   4.847  0.9098  0.8827 -0.2864
  206MOL0     C27713  10.021   9.706   4.802  0.5624  1.0942  0.6956
  206MOL0     C27714   9.898   9.790   4.767 -0.1117 -0.3460  0.1062
  206MOL0     C27715   9.780   9.714   4.702 -0.0350  0.5268  0.1917
  206MOL0     C27716   9.824   9.649   4.573  0.0751  0.0915  0.1076
  206MOL0     C27717   9.701   9.582   4.505  0.3419 -0.1678 -0.6216
  206MOL0     C27718   9.591   9.672   4.441 -0.2007  0.0249 -0.1932
  206MOL0    Cl27719   9.642   9.841   4.391  0.3031  0.6046 -0.4107
  206MOL0     C27720  10.450   9.846   4.744 -0.9061  0.2039 -0.5906
  206MOL0     C27721  10.563   9.899   4.675  0.2443  0.3207 -0.1146
  206MOL0     O27722  10.671   9.976   4.423 -0.7579  0.3996 -1.2712
  206MOL0     C27723  11.009  10.048   4.538  0.3087 -0.0692  0.3508
  206MOL0     C27724  11.119  10.139   4.513  0.8270  0.2761 -0.3317
  206MOL0     N27725  11.785  10.209   4.629 -2.4217  1.5145  0.6308
  206MOL0     N27726  11.859  10.114   4.565  0.7304  0.0484  1.0261
  206MOL0     C27727  11.198   9.646   4.884 -0.4765  0.8590 -0.3318
  206MOL0     C27728  11.118   9.677   4.998  0.1399  0.8333  0.0216
  206MOL0     C27729  10.725   9.785   5.239  0.2235 -1.1030 -0.3736
  206MOL0     C27730  10.777   9.717   5.343  0.5051 -0.3679 -0.8968
  206MOL0     C27731  10.697   9.686   5.461 -0.3305  0.1750  1.1128
  206MOL0     C27732  10.568   9.733   5.469 -0.6536 -0.2391  0.3082
  206MOL0     O27733  10.493   9.683   5.571 -0.3359 -0.1427 -0.1323
  206MOL0     C27734  10.360   9.719   5.604 -0.5769 -0.3138  0.0492
  206MOL0     C27735  10.307   9.620   5.710  0.1887  0.6129 -0.8135
  206MOL0     C27736  10.383   9.607   5.847  0.0875 -0.2734  0.3804
  206MOL0     C27737  10.395   9.741   5.929 -0.1138  0.3744  1.5131
  206MOL0     C27738  10.504   9.822   5.879  0.4773  0.8220  0.1008
  206MOL0     C27739  10.598   9.887   5.837 -0.5135  0.8478 -0.1482
  206MOL0     C27740  10.517   9.803   5.359 -0.0279  0.0769 -0.2843
  206MOL0     C27741  10.591   9.825   5.243 -0.1243  0.5314 -0.2859
  206MOL0     C27742  10.520   9.895   5.122  0.1015  0.7121 -0.5255
  206MOL0     H27743  10.826   9.734   4.860  2.1282  4.4331 -2.0748
  206MOL0     H27744  10.950   9.683   4.660 -1.0605  3.7686  0.6070
  206MOL0     H27745  11.238   9.781   4.561 -1.0288  0.8455  0.9533
  206MOL0     H27746  11.363   9.734   4.685 -1.8305  1.3622  1.3105
  206MOL0     H27747  11.301   9.572   4.429 -2.7271  1.1276  1.3991
  206MOL0     H27748  11.424   9.542   4.547 -2.4679 -1.1436  0.9398
  206MOL0     H27749  11.404   9.764   4.324  0.3690  0.0253  0.9194
  206MOL0     H27750  11.520   9.644   4.328 -2.0292  1.1935 -2.4221
  206MOL0     H27751  11.484   9.863   4.527 -0.2335  0.1281  0.0142
  206MOL0     H27752  11.599   9.728   4.562  0.8637 -0.5197 -0.9496
  206MOL0     H27753  11.753   9.873   4.474 -3.3377  1.2860  2.2283
  206MOL0     H27754  11.716   9.750   4.356 -1.8512 -0.2820 -1.4373
  206MOL0     H27755  11.566   9.940   4.226 -0.6284 -0.4147  0.9237
  206MOL0     H27756  11.583  10.043   4.356 -2.0619 -0.2130 -1.7330
  206MOL0     H27757  11.727  10.084   4.154 -1.0512  1.2343  1.0024
  206MOL0     H27758  11.807   9.935   4.177  1.3798  1.0710  0.6454
  206MOL0     H27759  11.930   9.983   4.349  1.0388  0.0057 -0.0479
  206MOL0     H27760  11.932  10.127   4.253  2.1472 -3.6362 -1.4678
  206MOL0     H27761  11.728  10.327   4.330 -1.2937  1.5598  1.3421
  206MOL0     H27762  11.682  10.458   4.686  0.1521  1.0075  0.0931
  206MOL0     H27763  11.674  10.494   4.502 -2.2463 -1.1460 -0.9051
  206MOL0     H27764  11.468  10.355   4.686 -0.5536  1.0109  1.9964
  206MOL0     H27765  11.450  10.513   4.619 -2.0574 -1.4780  2.9386
  206MOL0     H27766  11.456  10.242   4.497  1.1203 -0.7423 -2.2120
  206MOL0     H27767  11.476  10.370   4.372  1.2302  0.4893  0.4410
  206MOL0     H27768  11.271  10.487   4.439  3.6607  1.2572 -0.3328
  206MOL0     H27769  11.249  10.356   4.562  1.0878 -1.6124  0.0459
  206MOL0     H27770  10.999  10.281   4.219 -1.0278 -0.6064 -0.9844
  206MOL0     H27771  10.805  10.150   4.277  1.9741  1.3243 -1.2737
  206MOL0     H27772  10.728   9.616   4.604  0.1081  0.4652  1.1604
  206MOL0     H27773  10.513   9.519   4.698 -0.7638  0.3808  0.0803
  206MOL0     H27774  10.223   9.626   4.975  0.8213  1.4655  0.7733
  206MOL0     H27775  10.311   9.777   4.960  2.6978 -0.3411 -1.3311
  206MOL0     H27776  10.103   9.862   4.920  1.3225 -0.8804  1.7660
  206MOL0     H27777  10.179   9.852   4.765 -2.2519 -0.6275 -3.1237
  206MOL0     H27778  10.055   9.649   4.715  0.0111 -0.0182  1.1897
  206MOL0     H27779   9.988   9.636   4.879 -0.5022  2.1437  1.2141
  206MOL0     H27780   9.930   9.870   4.699  1.0696 -0.2938  0.6912
  206MOL0     H27781   9.865   9.843   4.857 -2.8988 -0.3281 -0.8381
  206MOL0     H27782   9.693   9.779   4.694 -0.0457  1.2933  4.4516
  206MOL0     H27783   9.751   9.634   4.770 -0.2572  0.7461  0.3553
  206MOL0     H27784   9.868   9.725   4.509 -1.5335  0.8827 -0.1030
  206MOL0     H27785   9.904   9.576   4.588 -1.6753 -2.3783 -1.6277
  206MOL0     H27786   9.657   9.517   4.582  3.5324  0.4141  1.9054
  206MOL0     H27787   9.744   9.519   4.426  2.7278 -1.6464  1.6647
  206MOL0     H27788   9.556   9.635   4.344 -0.0948  2.5246 -1.2575
  206MOL0     H27789   9.504   9.685   4.507 -0.5890  2.1955 -1.0484
  206MOL0     H27790  10.380   9.916   4.788 -0.7366  0.1169 -0.1719
  206MOL0     H27791  10.572  10.007   4.666 -1.7668  0.5162 -0.2262
  206MOL0     H27792  11.012   9.983   4.625  3.0001 -1.6028 -0.7582
  206MOL0     H27793  11.205  10.131   4.579  1.1345 -2.7379 -0.9537
  206MOL0     H27794  11.300   9.613   4.901 -1.3538 -4.1605 -3.0200
  206MOL0     H27795  11.160   9.678   5.098  0.2402 -0.9508  0.0445
  206MOL0     H27796  10.878   9.677   5.340  1.9161  2.2443  2.8164
  206MOL0     H27797  10.734   9.622   5.541  0.1188 -0.8084  0.1414
  206MOL0     H27798  10.297   9.706   5.516 -0.9646  0.5598  0.1923
  206MOL0     H27799  10.363   9.824   5.633  0.5974 -0.2708 -0.1638
  206MOL0     H27800  10.307   9.521   5.662  0.0775  1.1884 -2.0444
  206MOL0     H27801  10.206   9.638   5.748 -1.6443 -3.1709 -3.2233
  206MOL0     H27802  10.484   9.568   5.832 -0.3522 -2.2311  1.9839
  206MOL0     H27803  10.323   9.537   5.907  0.3803 -1.4902 -0.6808
  206MOL0     H27804  10.300   9.785   5.898 -2.4701 -2.8403  3.5248
  206MOL0     H27805  10.392   9.730   6.037  0.9096 -0.5390  1.4701
  206MOL0     H27806  10.685   9.944   5.815 -1.6700  2.3808 -0.9886
  206MOL0     H27807  10.411   9.819   5.345 -0.0409 -0.4524 -0.7992
  206MOL0     H27808  10.413   9.877   5.135  0.3145 -0.3775 -0.1659
  206MOL0     H27809  10.547  10.000   5.109  0.6507  1.1619  3.1191
  206MOL0     H27810  10.546   9.837   5.033 -1.2851 -0.7053 -0.0567
  207MOL0     O27811   3.076   2.872   4.050 -0.1825  0.4609 -0.2852
  207MOL0     C27812   3.155   2.828   4.134  0.6001  0.1049  0.2279
  207MOL0     O27813   3.211   2.898   4.238 -0.7690 -0.1091  0.4759
  207MOL0     C27814   3.181   3.027   4.259  0.6121  0.5938  0.3752
  207MOL0     C27815   3.101   3.065   4.369 -0.9879  0.6941  0.0486
  207MOL0     C27816   3.070   3.201   4.384  0.1646 -0.4889  0.0428
  207MOL0     C27817   3.106   3.299   4.287  0.1540  0.1197  0.3488
  207MOL0     O27818   3.067   3.426   4.301 -0.1021  0.6628  0.0757
  207MOL0     C27819   3.172   3.520   4.320  0.3049  0.4375 -0.4577
  207MOL0     C27820   3.188   3.567   4.468 -0.5502 -0.7355  0.6253
  207MOL0     C27821   3.070   3.640   4.530 -0.7469 -0.2244  0.0635
  207MOL0     C27822   2.944   3.557   4.565  0.0552 -0.5051 -0.1493
  207MOL0     C27823   2.837   3.641   4.646 -0.1568  0.0596 -0.5027
  207MOL0     C27824   2.714   3.560   4.663  0.4082 -0.3594 -1.2565
  207MOL0     C27825   2.599   3.656   4.709  0.1884 -0.8028  0.9808
  207MOL0     C27826   2.476   3.600   4.750  0.7253 -0.3119 -0.1665
  207MOL0     N27827   2.379   3.714   4.784 -0.4874 -0.3785  0.7263
  207MOL0     C27828   2.302   3.769   4.686  0.9940 -0.6308 -0.1484
  207MOL0     C27829   2.236   3.868   4.754  0.9096  0.4485  0.2646
  207MOL0     C27830   2.136   3.961   4.698 -0.4007 -0.7868  0.6810
  207MOL0     C27831   2.171   4.108   4.736  0.1884  0.0832  0.0586
  207MOL0     C27832   2.146   4.205   4.624  0.3970 -0.1266 -0.1778
  207MOL0     C27833   2.203   4.343   4.648  0.1614 -0.0030  1.0491
  207MOL0     O27834   2.166   4.414   4.768  0.4058  0.3198  0.2741
  207MOL0     C27835   2.204   4.541   4.791 -1.2730 -0.6156  0.8265
  207MOL0     C27836   2.155   4.608   4.904 -0.4666 -0.0845 -1.1682
  207MOL0     C27837   2.180   4.743   4.923 -0.0093 -0.6623  0.1723
  207MOL0     C27838   2.272   4.814   4.836 -0.0596 -0.7201  0.0825
  207MOL0     C27839   2.283   4.965   4.855  1.1596  1.5174 -0.2131
  207MOL0     O27840   2.244   5.019   4.972  0.2509 -0.2037  0.7124
  207MOL0     C27841   2.290   5.145   5.006 -0.1815  0.4660 -0.2343
  207MOL0     C27842   2.270   5.174   5.141  0.5324 -0.5048 -0.4074
  207MOL0     C27843   2.296   5.296   5.194  0.3514 -0.9651 -1.1299
  207MOL0     C27844   2.360   5.400   5.123 -0.1366 -0.8077 -0.1007
  207MOL0     O27845   2.373   5.518   5.197  1.0936 -0.0848  0.7339
  207MOL0     C27846   2.478   5.597   5.170 -0.5289 -0.1053 -0.3274
  207MOL0     C27847   2.431   5.730   5.097 -0.4310 -0.4156  0.6007
  207MOL0     C27848   2.339   5.831   5.174  0.5963  0.7907 -0.3933
  207MOL0     C27849   2.416   5.897   5.289  0.7627 -0.9253  0.0816
  207MOL0     C27850   2.330   6.008   5.363 -0.5271  0.2349  0.7562
  207MOL0     C27851   2.178   5.986   5.375 -0.5996 -0.8061 -0.7764
  207MOL0     C27852   2.078   6.015   5.256 -0.8453  1.5501  0.6404
  207MOL0     C27853   1.936   6.060   5.292 -0.4403  0.3907  0.0598
  207MOL0    Cl27854   1.917   6.210   5.374  0.5483 -0.0322 -0.0192
  207MOL0     C27855   2.397   5.375   4.994  0.9813  0.6388 -0.3012
  207MOL0     C27856   2.361   5.244   4.933  1.6560 -0.1880  0.6604
  207MOL0     O27857   2.350   5.013   4.763 -0.1108 -0.1297  0.4431
  207MOL0     C27858   2.330   4.739   4.724 -0.0861  0.7215 -0.2955
  207MOL0     C27859   2.292   4.610   4.706 -0.2938  0.6668  0.3693
  207MOL0     N27860   2.276   3.865   4.893  0.5184 -0.0444 -0.1381
  207MOL0     N27861   2.361   3.757   4.910  0.0106 -0.2068 -0.4899
  207MOL0     C27862   3.177   3.256   4.176 -1.3234  0.1757 -0.2015
  207MOL0     C27863   3.210   3.118   4.156  0.2994  0.6125 -0.0905
  207MOL0     C27864   3.168   2.681   4.157 -0.4916 -0.2769  0.0478
  207MOL0     C27865   3.060   2.591   4.125 -0.4467 -0.6157 -0.3481
  207MOL0     C27866   3.067   2.457   4.172 -0.7614  0.0331 -0.0118
  207MOL0     C27867   3.176   2.401   4.242  0.2952 -0.3470  0.5948
  207MOL0     O27868   3.168   2.278   4.296  0.3006  0.3927 -0.4711
  207MOL0     C27869   3.255   2.231   4.394  0.2602  0.4222 -0.8066
  207MOL0     C27870   3.174   2.187   4.516 -0.0741  0.1566  0.5072
  207MOL0     C27871   3.077   2.067   4.481 -0.4767 -0.4106 -0.8074
  207MOL0     C27872   3.072   1.986   4.612 -0.1428  0.2393  1.2143
  207MOL0     C27873   3.176   1.877   4.632 -0.0769 -0.4977 -0.1362
  207MOL0     C27874   3.245   1.776   4.649 -0.4962  0.7719 -0.0262
  207MOL0     C27875   3.294   2.482   4.241  0.1728 -0.2997 -0.2398
  207MOL0     C27876   3.286   2.616   4.211  0.1367 -0.4568 -0.1695
  207MOL0     C27877   3.418   2.687   4.227  0.9476 -0.5607  0.0241
  207MOL0     H27878   3.059   2.996   4.441 -0.0302 -1.0035 -0.9616
  207MOL0     H27879   3.012   3.235   4.469  1.3853  1.9236 -0.0115
  207MOL0     H27880   3.269   3.478   4.292 -0.2333 -0.0807 -1.6294
  207MOL0     H27881   3.151   3.603   4.251  1.1361  1.8853  0.9669
  207MOL0     H27882   3.276   3.632   4.461 -0.0888 -1.4705 -0.6868
  207MOL0     H27883   3.217   3.475   4.520  0.9806 -0.4681  0.2958
  207MOL0     H27884   3.046   3.718   4.457 -0.3860 -2.3665 -2.4613
  207MOL0     H27885   3.112   3.682   4.622  1.3625 -1.5940 -0.2061
  207MOL0     H27886   2.914   3.530   4.464  0.7045  1.0504 -0.7767
  207MOL0     H27887   2.971   3.465   4.619 -0.6384  0.4799  2.0244
  207MOL0     H27888   2.877   3.670   4.743 -0.9626 -0.2243 -0.0705
  207MOL0     H27889   2.812   3.734   4.596  0.2590  0.3214 -0.2276
  207MOL0     H27890   2.674   3.516   4.571  0.8459  1.9231 -2.6054
  207MOL0     H27891   2.724   3.480   4.737 -0.1503 -0.3526 -1.1697
  207MOL0     H27892   2.581   3.715   4.618  0.8756  0.3257  1.5582
  207MOL0     H27893   2.635   3.717   4.792 -1.3698  1.2685  0.2489
  207MOL0     H27894   2.437   3.530   4.676 -1.9484  0.7105  0.1363
  207MOL0     H27895   2.494   3.546   4.844 -3.2029 -0.3234  0.7466
  207MOL0     H27896   2.291   3.723   4.588  1.4577  0.3455 -0.6711
  207MOL0     H27897   2.130   3.950   4.590 -4.1928  0.7784  0.5927
  207MOL0     H27898   2.036   3.930   4.728 -1.6716  0.9962 -1.4457
  207MOL0     H27899   2.113   4.143   4.822 -1.4159 -1.8859 -0.1632
  207MOL0     H27900   2.278   4.113   4.760 -0.0709  0.4630  1.1717
  207MOL0     H27901   2.041   4.199   4.592  0.8933 -1.5113 -1.7079
  207MOL0     H27902   2.197   4.174   4.532  1.8977  4.1452 -1.0050
  207MOL0     H27903   2.166   4.410   4.570 -0.6265  3.8747  4.3871
  207MOL0     H27904   2.312   4.339   4.645  0.2431 -0.5559 -4.1348
  207MOL0     H27905   2.094   4.557   4.977 -1.6751  1.5572 -0.9825
  207MOL0     H27906   2.130   4.797   5.003  1.4366 -0.3001  0.8798
  207MOL0     H27907   2.213   5.109   5.206  0.3278 -0.3565 -0.4394
  207MOL0     H27908   2.279   5.320   5.298 -0.7315 -2.9595 -0.7862
  207MOL0     H27909   2.526   5.616   5.267 -2.7445 -1.6302  1.1956
  207MOL0     H27910   2.555   5.541   5.116  0.0057  0.4916 -0.1936
  207MOL0     H27911   2.514   5.792   5.061 -1.1449  1.5532  2.1060
  207MOL0     H27912   2.381   5.705   5.003 -1.1567 -0.3164  0.9541
  207MOL0     H27913   2.306   5.908   5.103  0.3765 -0.1846 -1.3772
  207MOL0     H27914   2.252   5.777   5.213 -0.8106  2.8411 -0.5266
  207MOL0     H27915   2.492   5.961   5.243 -1.0072 -0.7271 -2.8484
  207MOL0     H27916   2.460   5.825   5.359  0.6273 -0.3633  0.7456
  207MOL0     H27917   2.336   6.108   5.319 -0.7465 -1.0196 -2.3685
  207MOL0     H27918   2.379   6.014   5.460  2.7199  1.5033 -0.7973
  207MOL0     H27919   2.170   5.882   5.408  1.4303 -1.0859 -1.0003
  207MOL0     H27920   2.149   6.051   5.458  1.2433 -1.5768  0.5454
  207MOL0     H27921   2.059   5.919   5.207  3.3211 -0.3205  2.2255
  207MOL0     H27922   2.111   6.077   5.172 -3.3937 -2.5768 -3.8588
  207MOL0     H27923   1.883   6.067   5.197 -0.6459 -0.9850  0.0529
  207MOL0     H27924   1.888   5.983   5.354 -0.6443  0.9357  0.5886
  207MOL0     H27925   2.426   5.462   4.935 -0.6460  1.1853 -0.3240
  207MOL0     H27926   2.382   5.235   4.827 -0.7683  0.8356  0.0359
  207MOL0     H27927   2.402   4.784   4.656 -0.5384  1.5857 -0.2161
  207MOL0     H27928   2.311   4.556   4.614 -0.7314  1.2864 -0.0874
  207MOL0     H27929   3.191   3.331   4.099  0.4574  1.7880  1.5648
  207MOL0     H27930   3.239   3.064   4.067  1.2489 -1.1979  1.2542
  207MOL0     H27931   2.971   2.629   4.076 -1.5462  0.6270  2.3866
  207MOL0     H27932   2.983   2.388   4.160  1.5827 -2.8973 -0.9102
  207MOL0     H27933   3.338   2.301   4.409  1.9217 -0.7545 -3.7876
  207MOL0     H27934   3.294   2.139   4.349  1.3799  0.4583  0.0347
  207MOL0     H27935   3.122   2.273   4.559  0.3776 -0.8850  3.3930
  207MOL0     H27936   3.234   2.155   4.602 -0.0173  0.9277  0.7651
  207MOL0     H27937   3.118   2.004   4.401 -0.3961  1.4356 -2.3004
  207MOL0     H27938   2.976   2.103   4.457 -1.1354 -0.4988  1.5824
  207MOL0     H27939   3.067   2.038   4.709  2.5465 -4.4046  4.2335
  207MOL0     H27940   2.968   1.951   4.604 -0.9425  2.6309  0.3209
  207MOL0     H27941   3.291   1.679   4.651  3.8298  2.4431 -3.1485
  207MOL0     H27942   3.385   2.446   4.289  0.1691  1.2316  0.9760
  207MOL0     H27943   3.431   2.693   4.335  0.5926  0.3666  0.0254
  207MOL0     H27944   3.501   2.641   4.173  1.1465  2.1776 -2.3095
  207MOL0     H27945   3.418   2.789   4.187 -1.0073 -1.1654 -1.7039
  208MOL0     O27946  11.282   4.281   5.259 -0.8845  0.3713 -0.0735
  208MOL0     C27947  11.300   4.183   5.332 -0.7616  0.1362 -0.4090
  208MOL0     O27948  11.299   4.188   5.468 -0.0633  0.7277  0.0965
  208MOL0     C27949  11.269   4.309   5.525  0.3480 -0.3718  0.4215
  208MOL0     C27950  11.349   4.424   5.515 -0.9391  0.8560  0.5181
  208MOL0     C27951  11.311   4.549   5.564 -0.0639  0.6096  0.3048
  208MOL0     C27952  11.178   4.557   5.617 -0.5624  0.4601  0.1473
  208MOL0     O27953  11.131   4.677   5.664  0.2490  0.5253 -0.4007
  208MOL0     C27954  11.170   4.805   5.628 -0.6495 -0.0978 -0.1817
  208MOL0     C27955  11.088   4.913   5.714 -1.1204  0.3526  0.3851
  208MOL0     C27956  11.152   5.048   5.724 -0.6589 -0.3283  0.5825
  208MOL0     C27957  11.067   5.140   5.818 -0.5813  1.3293  0.4793
  208MOL0     C27958  11.125   5.283   5.821  0.1175 -0.2259 -0.4790
  208MOL0     C27959  11.056   5.376   5.922  0.0741  0.1410  0.0755
  208MOL0     C27960  10.904   5.404   5.906 -0.8603  0.3941 -0.2888
  208MOL0     C27961  10.860   5.506   6.003 -1.0151 -0.5217 -0.3678
  208MOL0     N27962  10.721   5.521   6.012  0.3499 -0.8040 -0.2668
  208MOL0     C27963  10.640   5.614   6.074 -0.2074 -1.3628  0.7961
  208MOL0     C27964  10.517   5.604   6.023 -0.3521 -0.0521 -0.1948
  208MOL0     C27965  10.403   5.683   6.057  0.5817  0.4827  0.0847
  208MOL0     C27966  10.301   5.614   6.147  0.1181 -0.2987 -0.6565
  208MOL0     C27967  10.206   5.728   6.206 -0.5170 -0.9380  0.1881
  208MOL0     C27968  10.121   5.772   6.087 -0.0480  0.6164 -0.4228
  208MOL0     O27969  10.054   5.893   6.127  1.0588 -0.7964  0.1118
  208MOL0     C27970   9.944   5.887   6.210 -0.1656  1.5468  0.2573
  208MOL0     C27971   9.888   5.775   6.272  0.6405 -0.7062  0.3328
  208MOL0     C27972   9.771   5.775   6.356 -0.4417 -0.4651  0.3278
  208MOL0     C27973   9.706   5.908   6.370 -0.3764  0.7663  0.3784
  208MOL0     C27974   9.584   5.920   6.457  0.0032 -0.7256  1.2359
  208MOL0     O27975   9.527   5.797   6.492  1.1793 -0.7653  0.6463
  208MOL0     C27976   9.407   5.796   6.569 -0.4213 -0.5315  0.2846
  208MOL0     C27977   9.362   5.889   6.663  0.0232  0.5309 -0.3777
  208MOL0     C27978   9.240   5.878   6.730  0.0732 -0.7225  0.1809
  208MOL0     C27979   9.166   5.759   6.735  0.2533 -0.7275  0.1011
  208MOL0     O27980   9.059   5.725   6.811 -0.5093  0.2292 -0.1080
  208MOL0     C27981   8.998   5.832   6.876  1.1020 -0.2875  0.9287
  208MOL0     C27982   8.865   5.774   6.917 -0.0408  0.0592 -0.7892
  208MOL0     C27983   8.760   5.808   6.817  0.4342 -0.0933 -0.1828
  208MOL0     C27984   8.725   5.677   6.740  0.5806  0.1216 -0.0114
  208MOL0     C27985   8.618   5.705   6.642 -0.3622  0.1218  0.6589
  208MOL0     C27986   8.596   5.588   6.546 -0.2774 -0.5271 -0.4045
  208MOL0     C27987   8.546   5.459   6.602 -0.7936 -0.6641  1.2552
  208MOL0     C27988   8.481   5.356   6.498 -0.5477  0.2526 -0.3338
  208MOL0    Cl27989   8.579   5.288   6.358 -0.5665 -0.1231  0.2158
  208MOL0     C27990   9.217   5.665   6.645 -0.9437  0.3200  0.2502
  208MOL0     C27991   9.330   5.686   6.558  0.0228 -1.0377  0.2374
  208MOL0     O27992   9.547   6.034   6.494 -0.0602 -0.1976 -0.2880
  208MOL0     C27993   9.763   6.016   6.300  0.3938 -0.8442 -0.1774
  208MOL0     C27994   9.883   6.003   6.235  0.6601 -0.3335 -0.0518
  208MOL0     N27995  10.518   5.501   5.932 -0.5444 -0.1529 -0.4379
  208MOL0     N27996  10.644   5.457   5.924 -1.3937  0.7140 -0.1078
  208MOL0     C27997  11.093   4.444   5.618 -0.2724 -0.2461  0.2865
  208MOL0     C27998  11.141   4.315   5.578  0.8163 -0.6040  0.2525
  208MOL0     C27999  11.334   4.062   5.265  0.5318  0.4195 -0.2277
  208MOL0     C28000  11.232   4.024   5.177 -0.3318  0.1878 -0.3584
  208MOL0     C28001  11.249   3.907   5.107  0.2046 -0.7213  0.9443
  208MOL0     C28002  11.364   3.832   5.110 -0.0298 -0.1668  0.5478
  208MOL0     O28003  11.380   3.706   5.061 -0.2946  0.4937  0.1910
  208MOL0     C28004  11.279   3.639   4.991 -0.0999  0.9687  0.0971
  208MOL0     C28005  11.260   3.677   4.841  0.0687  0.6084  0.1632
  208MOL0     C28006  11.393   3.663   4.759  1.4492 -0.3869 -0.4087
  208MOL0     C28007  11.385   3.728   4.627  0.2525 -0.5193  0.0945
  208MOL0     C28008  11.516   3.727   4.558 -0.1725  0.1400 -0.8381
  208MOL0     C28009  11.626   3.748   4.514 -0.6219 -0.1466  0.4785
  208MOL0     C28010  11.473   3.874   5.184 -0.6339  1.1042 -1.1814
  208MOL0     C28011  11.456   3.992   5.259 -0.3572 -0.1634 -0.1446
  208MOL0     C28012  11.582   4.025   5.336  0.8182 -0.0569 -0.5148
  208MOL0     H28013  11.449   4.408   5.475 -2.2010 -1.6204 -1.8880
  208MOL0     H28014  11.367   4.641   5.568 -1.1851  1.3033  0.2974
  208MOL0     H28015  11.277   4.816   5.648 -0.9236 -0.8828  2.0107
  208MOL0     H28016  11.167   4.826   5.521 -1.8030  0.3776 -0.0727
  208MOL0     H28017  11.064   4.878   5.815  2.7459  0.0822  1.3765
  208MOL0     H28018  10.987   4.921   5.672 -0.2632  3.3203 -1.3668
  208MOL0     H28019  11.185   5.093   5.629  0.7667  3.8634  2.8034
  208MOL0     H28020  11.247   5.037   5.777  1.9461  3.2953 -2.7231
  208MOL0     H28021  10.965   5.150   5.781 -0.8906  0.2703  1.0163
  208MOL0     H28022  11.061   5.099   5.919 -0.1326  2.0911  0.8222
  208MOL0     H28023  11.232   5.271   5.838 -0.3431 -2.8726  1.2053
  208MOL0     H28024  11.116   5.328   5.722 -0.5109 -0.6741 -0.6318
  208MOL0     H28025  11.086   5.322   6.012  4.4585  0.5916 -0.8906
  208MOL0     H28026  11.110   5.470   5.906  0.8397 -0.5937 -2.0938
  208MOL0     H28027  10.857   5.308   5.930  0.3419 -0.4327 -1.1119
  208MOL0     H28028  10.885   5.426   5.800 -0.7149 -0.9746 -0.6180
  208MOL0     H28029  10.910   5.484   6.097  1.6237  1.5315 -1.1663
  208MOL0     H28030  10.912   5.594   5.963  2.4798 -2.8656 -1.4908
  208MOL0     H28031  10.680   5.687   6.144  0.5180 -0.3388 -0.6298
  208MOL0     H28032  10.427   5.781   6.099  1.1527  0.1766  0.4897
  208MOL0     H28033  10.355   5.706   5.962  3.8278  1.3635 -1.4657
  208MOL0     H28034  10.249   5.532   6.097  1.8564  0.2664 -3.5988
  208MOL0     H28035  10.360   5.571   6.229 -0.3087  1.9102  0.9082
  208MOL0     H28036  10.252   5.821   6.238 -0.2972  0.1177 -2.8413
  208MOL0     H28037  10.149   5.695   6.293 -0.8602 -2.8983 -0.7038
  208MOL0     H28038  10.052   5.692   6.061  0.2264  0.2627 -0.0822
  208MOL0     H28039  10.177   5.805   5.999  1.7081  1.3831  0.9070
  208MOL0     H28040   9.923   5.677   6.242  1.4454 -0.3764  0.1517
  208MOL0     H28041   9.737   5.681   6.398  2.7874 -1.7820  0.2790
  208MOL0     H28042   9.418   5.982   6.666 -1.5689  1.5016  2.0048
  208MOL0     H28043   9.226   5.961   6.798  0.5500 -0.6190  0.1599
  208MOL0     H28044   9.056   5.851   6.967  1.0970  1.6642  0.5839
  208MOL0     H28045   9.008   5.921   6.813  0.3677 -2.7276 -2.9809
  208MOL0     H28046   8.883   5.668   6.935 -0.4576  0.1683  0.4029
  208MOL0     H28047   8.848   5.825   7.013  1.3845  2.3779 -1.6960
  208MOL0     H28048   8.680   5.849   6.880  0.7301 -0.6079  0.5543
  208MOL0     H28049   8.789   5.888   6.748 -1.1760 -0.9332 -1.9173
  208MOL0     H28050   8.686   5.608   6.816  1.1202 -0.2490 -0.0616
  208MOL0     H28051   8.807   5.622   6.692 -1.6700 -1.0428 -2.8201
  208MOL0     H28052   8.643   5.797   6.589  1.1454 -0.0973  0.9207
  208MOL0     H28053   8.524   5.720   6.695 -2.0398  0.4529 -2.2493
  208MOL0     H28054   8.518   5.626   6.479 -1.7634  0.7430  1.9092
  208MOL0     H28055   8.685   5.568   6.486  0.7135  0.9874  0.4933
  208MOL0     H28056   8.469   5.488   6.673 -0.4686 -1.8101  2.0905
  208MOL0     H28057   8.622   5.408   6.662  2.0877 -0.4827 -1.9092
  208MOL0     H28058   8.453   5.278   6.569 -2.3232  2.5754  1.7155
  208MOL0     H28059   8.388   5.391   6.451 -0.2996 -2.2670 -2.9431
  208MOL0     H28060   9.158   5.574   6.644 -2.7353  1.4329 -0.7529
  208MOL0     H28061   9.352   5.597   6.499 -3.6678 -1.5264 -0.6178
  208MOL0     H28062   9.733   6.120   6.308 -1.4771 -1.4161  0.7156
  208MOL0     H28063   9.929   6.092   6.193  0.8286  0.1866  1.1888
  208MOL0     H28064  10.991   4.446   5.653 -2.0282 -2.7355 -3.8740
  208MOL0     H28065  11.074   4.232   5.557 -3.0970  1.4707  3.3087
  208MOL0     H28066  11.147   4.082   5.141 -1.3511 -1.7526 -1.2268
  208MOL0     H28067  11.165   3.899   5.039 -2.9467 -0.3153  4.4484
  208MOL0     H28068  11.182   3.671   5.031 -0.8032  0.2711 -0.9761
  208MOL0     H28069  11.288   3.531   5.008 -4.0543  0.2252 -1.4303
  208MOL0     H28070  11.230   3.782   4.839 -1.2181  0.2518 -0.1613
  208MOL0     H28071  11.191   3.606   4.794  1.3247  0.5487 -1.7173
  208MOL0     H28072  11.423   3.558   4.760 -1.1426 -1.2025 -1.7813
  208MOL0     H28073  11.459   3.729   4.817  1.1691 -0.2965 -0.1942
  208MOL0     H28074  11.321   3.659   4.572 -0.6285 -1.8387  2.6064
  208MOL0     H28075  11.342   3.829   4.623  1.7795  0.3695 -7.0016
  208MOL0     H28076  11.721   3.779   4.477  0.9632 -0.9228  3.5589
  208MOL0     H28077  11.562   3.813   5.201 -0.8363  0.7987 -1.2210
  208MOL0     H28078  11.662   4.053   5.267  0.1874  1.8921 -0.4941
  208MOL0     H28079  11.572   4.111   5.403  0.1670  2.2359 -3.3577
  208MOL0     H28080  11.613   3.934   5.390  1.9821 -2.7288 -5.1030
  209MOL0     O28081   5.056   9.449   3.542  0.8569 -1.1723 -0.1794
  209MOL0     C28082   5.146   9.387   3.486  0.1990 -0.5806  0.4250
  209MOL0     O28083   5.271   9.347   3.540  0.0261  0.9545  0.5138
  209MOL0     C28084   5.296   9.359   3.681 -0.1769  0.2852  1.2048
  209MOL0     C28085   5.248   9.464   3.760  1.2859 -0.0844  0.3844
  209MOL0     C28086   5.262   9.463   3.901  0.9133 -0.0655  0.0112
  209MOL0     C28087   5.338   9.358   3.961 -0.1520 -0.6603 -0.2410
  209MOL0     O28088   5.361   9.354   4.102 -0.1775  0.0886  0.0003
  209MOL0     C28089   5.296   9.453   4.187  0.4346 -0.5980 -0.4827
  209MOL0     C28090   5.290   9.416   4.335  0.0858 -0.3238  0.6203
  209MOL0     C28091   5.211   9.285   4.357 -0.0542  0.1724 -0.2277
  209MOL0     C28092   5.258   9.224   4.487 -0.1008 -0.0606  0.7213
  209MOL0     C28093   5.171   9.100   4.515 -0.6321  0.0699 -0.9959
  209MOL0     C28094   5.230   9.022   4.639  0.8191 -0.9467  0.6330
  209MOL0     C28095   5.152   8.889   4.658  0.6899  0.1037 -0.6147
  209MOL0     C28096   5.018   8.927   4.718  0.9709  0.1094 -0.0558
  209MOL0     N28097   4.938   8.808   4.770  0.0743 -0.1951  0.8319
  209MOL0     C28098   4.865   8.816   4.890 -0.0009  0.9155  0.2736
  209MOL0     C28099   4.803   8.701   4.903  1.2079  0.3902  0.6651
  209MOL0     C28100   4.711   8.650   5.004  0.2142 -0.3422  0.3595
  209MOL0     C28101   4.622   8.758   5.071 -0.5909  0.3077  0.4790
  209MOL0     C28102   4.516   8.813   4.964 -0.1360  0.0524  0.0053
  209MOL0     C28103   4.394   8.877   5.036  0.2057 -0.7462  0.0796
  209MOL0     O28104   4.327   8.977   4.967 -0.0081  0.7208  0.6020
  209MOL0     C28105   4.244   9.055   5.039  0.3281  0.4744 -0.3963
  209MOL0     C28106   4.229   9.182   4.991  0.1272 -0.1405 -0.1575
  209MOL0     C28107   4.152   9.277   5.062 -0.0320  0.2053 -0.6099
  209MOL0     C28108   4.083   9.238   5.174 -0.2661  0.3419 -0.4878
  209MOL0     C28109   4.005   9.330   5.266  0.3323  0.4114  0.7996
  209MOL0     O28110   3.916   9.279   5.349  0.8860 -0.3930  0.0217
  209MOL0     C28111   3.838   9.357   5.438  0.1514 -0.0605  0.2841
  209MOL0     C28112   3.795   9.488   5.418 -0.2987  0.1989 -0.2263
  209MOL0     C28113   3.741   9.564   5.516 -0.4897  0.9713  0.6878
  209MOL0     C28114   3.705   9.495   5.631 -0.0080  0.3263 -0.0142
  209MOL0     O28115   3.655   9.573   5.733 -0.4997 -0.7815  0.7273
  209MOL0     C28116   3.625   9.524   5.864 -0.8961  0.2413  0.0292
  209MOL0     C28117   3.590   9.634   5.952 -0.0800 -0.8203 -0.4659
  209MOL0     C28118   3.702   9.732   5.982 -0.1372 -0.5435 -0.1042
  209MOL0     C28119   3.652   9.853   6.064 -0.3276  0.5925  0.0921
  209MOL0     C28120   3.777   9.946   6.101  0.1221 -0.7737 -0.6312
  209MOL0     C28121   3.737  10.072   6.169  0.3713  0.6483  0.8446
  209MOL0     C28122   3.825  10.192   6.137 -0.4230  0.3065  0.5289
  209MOL0     C28123   3.811  10.306   6.240 -0.8049 -0.6010  0.3273
  209MOL0    Cl28124   3.965  10.388   6.269 -0.0058  0.2364 -0.0849
  209MOL0     C28125   3.751   9.369   5.661  0.2212 -0.3849 -0.0142
  209MOL0     C28126   3.816   9.301   5.568  0.7693 -0.2118 -0.1907
  209MOL0     O28127   4.031   9.454   5.256 -0.0783  0.6307 -0.2389
  209MOL0     C28128   4.086   9.102   5.214  0.9726  0.7910 -0.4477
  209MOL0     C28129   4.171   9.010   5.149  0.6334 -0.4246 -0.4065
  209MOL0     N28130   4.826   8.624   4.789  0.3510  0.0759  1.0478
  209MOL0     N28131   4.908   8.686   4.706  0.4900 -0.4174 -0.2190
  209MOL0     C28132   5.393   9.261   3.881  0.0422 -0.1095 -0.4606
  209MOL0     C28133   5.365   9.255   3.742  0.6829 -0.6571 -0.3069
  209MOL0     C28134   5.126   9.359   3.342  0.1176  0.0450  0.0065
  209MOL0     C28135   5.216   9.273   3.273 -0.4865 -0.9808  0.3774
  209MOL0     C28136   5.195   9.223   3.147  1.0382 -0.3259  0.1383
  209MOL0     C28137   5.089   9.273   3.080  1.2904  0.5904 -0.6195
  209MOL0     O28138   5.080   9.225   2.954  0.0443 -0.6946  1.2566
  209MOL0     C28139   4.970   9.236   2.870  0.6591  0.0581 -0.0177
  209MOL0     C28140   5.008   9.262   2.725  0.0884  0.5926  0.2442
  209MOL0     C28141   5.156   9.269   2.699 -0.9061 -0.1780 -0.5931
  209MOL0     C28142   5.194   9.306   2.553  0.0149 -0.2391 -0.0312
  209MOL0     C28143   5.161   9.203   2.454 -0.4288 -0.0209  0.1397
  209MOL0     C28144   5.147   9.110   2.381  0.1764  0.1399 -0.2181
  209MOL0     C28145   4.993   9.364   3.138  1.2154  0.0990 -1.6937
  209MOL0     C28146   5.009   9.409   3.271 -0.4811  0.0281 -1.1993
  209MOL0     C28147   4.895   9.504   3.322  0.1147 -0.2103 -0.6860
  209MOL0     H28148   5.200   9.552   3.716  1.4131 -0.3470 -0.2984
  209MOL0     H28149   5.224   9.548   3.957  0.5364  0.8772 -1.5911
  209MOL0     H28150   5.342   9.551   4.171 -0.7762  0.2741  1.0570
  209MOL0     H28151   5.192   9.442   4.157  0.6977 -3.0976 -0.6563
  209MOL0     H28152   5.245   9.505   4.379  2.7259  0.7825  1.2615
  209MOL0     H28153   5.390   9.410   4.379  0.0379 -0.6148  0.6923
  209MOL0     H28154   5.239   9.214   4.278 -1.2259 -1.4418  0.7574
  209MOL0     H28155   5.105   9.308   4.366 -0.3462 -0.9181 -0.6581
  209MOL0     H28156   5.364   9.197   4.479  0.3107  0.5397  3.1522
  209MOL0     H28157   5.266   9.299   4.567 -3.4708  1.3884 -0.1348
  209MOL0     H28158   5.065   9.125   4.527 -0.0038  2.4185  0.4081
  209MOL0     H28159   5.175   9.044   4.422 -5.4576 -0.7027 -1.0131
  209MOL0     H28160   5.335   8.994   4.624  2.7636  3.3327  4.0405
  209MOL0     H28161   5.239   9.083   4.729 -0.3412  2.2976 -1.3169
  209MOL0     H28162   5.213   8.828   4.725  2.0183  2.8652  0.8618
  209MOL0     H28163   5.152   8.843   4.559 -0.3219  1.5558 -1.3305
  209MOL0     H28164   5.016   9.012   4.787 -0.1202  2.2060 -2.4968
  209MOL0     H28165   4.951   8.964   4.640  1.0902 -0.2975 -0.3548
  209MOL0     H28166   4.883   8.892   4.964  1.3517  0.9507 -0.0702
  209MOL0     H28167   4.666   8.563   4.956 -2.5567  2.1399 -1.8880
  209MOL0     H28168   4.780   8.613   5.081  2.3405  3.4464  0.4946
  209MOL0     H28169   4.563   8.726   5.156 -3.3268 -0.8449 -1.6955
  209MOL0     H28170   4.684   8.837   5.115  2.6404 -2.1396  0.7710
  209MOL0     H28171   4.472   8.719   4.930 -0.6836  1.1480 -2.5095
  209MOL0     H28172   4.554   8.876   4.884  1.0815  0.9149  1.2118
  209MOL0     H28173   4.427   8.909   5.135  0.4912  0.2101 -0.3179
  209MOL0     H28174   4.321   8.797   5.051 -0.2719 -0.4134 -0.4306
  209MOL0     H28175   4.292   9.219   4.910  1.8526 -1.7460  0.3827
  209MOL0     H28176   4.145   9.378   5.022  2.6040  0.2383 -1.2164
  209MOL0     H28177   3.802   9.521   5.315  2.0534  1.4639  0.2737
  209MOL0     H28178   3.707   9.666   5.504 -0.9385  0.8201  0.6702
  209MOL0     H28179   3.543   9.452   5.863 -3.0295  2.5273  0.7904
  209MOL0     H28180   3.715   9.486   5.913 -0.0539  2.0772 -0.0253
  209MOL0     H28181   3.514   9.693   5.900  0.1655  2.4715  2.5084
  209MOL0     H28182   3.558   9.586   6.045  1.4185  0.2854  0.6805
  209MOL0     H28183   3.797   9.689   6.016 -0.4539 -2.0139 -0.9860
  209MOL0     H28184   3.728   9.779   5.886 -0.1652  0.0286  0.1652
  209MOL0     H28185   3.616   9.827   6.164 -0.5346  1.8904  0.3698
  209MOL0     H28186   3.575   9.902   6.004 -0.2516 -0.4974 -0.9290
  209MOL0     H28187   3.830   9.958   6.006 -2.1428 -1.0960 -2.0074
  209MOL0     H28188   3.835   9.879   6.166 -1.5863 -1.1283  0.6067
  209MOL0     H28189   3.640  10.101   6.127  1.1253  0.5666 -1.0520
  209MOL0     H28190   3.715  10.062   6.275  1.4524  0.8300  1.0982
  209MOL0     H28191   3.809  10.243   6.042  0.0196  3.0124  1.8152
  209MOL0     H28192   3.927  10.151   6.137 -1.3869 -2.4429 -1.7333
  209MOL0     H28193   3.740  10.386   6.214 -4.2181 -2.0565  4.0882
  209MOL0     H28194   3.783  10.264   6.337 -1.8169 -1.8220 -0.4556
  209MOL0     H28195   3.751   9.324   5.760 -3.0844 -2.2462 -0.7336
  209MOL0     H28196   3.842   9.196   5.582  2.4321  0.3421  1.3400
  209MOL0     H28197   4.022   9.066   5.294 -1.2346  1.4218 -1.8106
  209MOL0     H28198   4.181   8.913   5.196 -0.8196 -0.2517  0.3229
  209MOL0     H28199   5.449   9.180   3.927  0.7298 -0.1559 -1.3367
  209MOL0     H28200   5.397   9.177   3.674  0.8647 -1.2012  0.3996
  209MOL0     H28201   5.297   9.234   3.334 -1.7880 -2.6013  1.1265
  209MOL0     H28202   5.260   9.158   3.089  0.2477  0.3312 -1.5773
  209MOL0     H28203   4.911   9.325   2.896 -1.4870 -0.4986 -2.5872
  209MOL0     H28204   4.916   9.142   2.884  3.4690 -1.7789 -0.8660
  209MOL0     H28205   4.969   9.359   2.694 -0.6144  0.9489  2.1159
  209MOL0     H28206   4.965   9.191   2.654  1.8090  1.5260 -1.8567
  209MOL0     H28207   5.207   9.181   2.737 -0.0543  0.8024  0.6285
  209MOL0     H28208   5.184   9.357   2.758 -0.1202  0.4991 -1.9307
  209MOL0     H28209   5.133   9.393   2.529 -0.4762 -0.4057  0.5768
  209MOL0     H28210   5.299   9.333   2.548 -0.6593  3.5878  2.4539
  209MOL0     H28211   5.143   9.028   2.312  2.1020  0.7733 -1.1474
  209MOL0     H28212   4.899   9.384   3.088  0.4212 -3.3138 -1.8528
  209MOL0     H28213   4.827   9.514   3.236  0.9150 -3.5534 -1.8428
  209MOL0     H28214   4.848   9.461   3.410  0.3476 -1.4721 -1.1630
  209MOL0     H28215   4.936   9.603   3.347 -1.5434  1.6188 -4.4268
  210MOL0     O28216   0.111  10.329   5.160  0.1236 -0.2387  0.0411
  210MOL0     C28217   0.208  10.259   5.160 -0.5234  0.0740  0.0974
  210MOL0     O28218   0.316  10.276   5.087  0.8548 -0.7512 -0.5984
  210MOL0     C28219   0.345  10.392   5.036  0.4638  0.1592  0.7169
  210MOL0     C28220   0.318  10.520   5.091 -0.1169 -0.5065  0.2144
  210MOL0     C28221   0.355  10.639   5.030 -0.0753  0.8688  0.0053
  210MOL0     C28222   0.417  10.637   4.907  0.6241 -0.7036 -0.1697
  210MOL0     O28223   0.447  10.739   4.819 -0.5637  0.0498 -1.0494
  210MOL0     C28224   0.329  10.792   4.769 -0.1525 -0.8469 -0.7842
  210MOL0     C28225   0.366  10.846   4.630 -0.0258  0.0400  0.7188
  210MOL0     C28226   0.259  10.913   4.540  0.5491 -0.6417 -0.8717
  210MOL0     C28227   0.181  10.808   4.462  0.9086 -0.3537 -0.0662
  210MOL0     C28228   0.042  10.861   4.428 -1.0424  0.4383  0.4980
  210MOL0     C28229  -0.044  10.764   4.335 -0.2445 -0.8401  0.2308
  210MOL0     C28230  -0.197  10.772   4.354 -0.0161 -0.8928  0.3109
  210MOL0     C28231  -0.251  10.710   4.224  0.2780 -0.5383  0.2223
  210MOL0     N28232  -0.398  10.728   4.214  0.0966  0.2724  0.8616
  210MOL0     C28233  -0.444  10.848   4.164 -0.2842  0.3838  0.4131
  210MOL0     C28234  -0.577  10.863   4.183  0.5238 -0.1974  0.1068
  210MOL0     C28235  -0.658  10.982   4.132  0.5156  0.2344  0.1071
  210MOL0     C28236  -0.635  11.102   4.228  0.2137 -0.4923 -0.7351
  210MOL0     C28237  -0.508  11.181   4.215 -0.7371 -0.9830 -0.3897
  210MOL0     C28238  -0.518  11.322   4.268 -0.1362 -0.6844 -1.0069
  210MOL0     O28239  -0.399  11.403   4.233  0.6124  0.0227 -0.4882
  210MOL0     C28240  -0.268  11.365   4.274  0.7064 -0.2655  0.7958
  210MOL0     C28241  -0.163  11.446   4.222  1.8006 -0.0105  0.2235
  210MOL0     C28242  -0.025  11.424   4.244  0.1075 -0.4071  0.1905
  210MOL0     C28243   0.007  11.322   4.338  0.8138  0.1061 -0.2289
  210MOL0     C28244   0.139  11.264   4.350  0.5554  0.4995 -0.0925
  210MOL0     O28245   0.229  11.284   4.251 -0.6908 -0.4238  0.4601
  210MOL0     C28246   0.345  11.214   4.259  0.0706 -0.1336 -0.7133
  210MOL0     C28247   0.338  11.076   4.249 -0.8430  0.4654 -0.6899
  210MOL0     C28248   0.453  10.996   4.258  0.3635  0.3794  0.9792
  210MOL0     C28249   0.574  11.057   4.290  0.3070  0.3237 -0.5003
  210MOL0     O28250   0.685  10.979   4.273 -0.1207 -0.7944 -0.4721
  210MOL0     C28251   0.751  10.945   4.391  0.3440  0.3609  1.2133
  210MOL0     C28252   0.884  10.889   4.356  0.2340  0.5555 -0.5779
  210MOL0     C28253   0.967  10.874   4.485 -0.3449 -0.0522  0.3494
  210MOL0     C28254   1.108  10.830   4.444 -0.7321 -0.2145 -0.3497
  210MOL0     C28255   1.206  10.831   4.569  0.1530 -0.5538  0.4839
  210MOL0     C28256   1.341  10.789   4.541  0.5890  0.6372  0.5344
  210MOL0     C28257   1.409  10.708   4.661 -0.1993 -0.1110 -0.1089
  210MOL0     C28258   1.559  10.705   4.668 -0.0023 -0.2464 -0.1779
  210MOL0    Cl28259   1.609  10.632   4.821  0.0711 -0.1763  0.2355
  210MOL0     C28260   0.575  11.197   4.307  0.0957  0.6022  0.9659
  210MOL0     C28261   0.465  11.275   4.275 -0.6595  0.9237 -0.2370
  210MOL0     O28262   0.155  11.196   4.449  0.3431  0.6721  0.4348
  210MOL0     C28263  -0.103  11.246   4.399 -0.1238  0.2914 -0.5261
  210MOL0     C28264  -0.229  11.266   4.362  0.3072  1.1074 -0.6658
  210MOL0     N28265  -0.606  10.757   4.267  0.0372  1.3970  0.8542
  210MOL0     N28266  -0.498  10.676   4.280 -0.1201 -0.6306  1.2406
  210MOL0     C28267   0.439  10.508   4.845 -0.3483 -0.0246  0.7105
  210MOL0     C28268   0.419  10.390   4.913 -0.8374  0.3197 -0.1642
  210MOL0     C28269   0.229  10.146   5.256  0.1013 -0.9165  0.0414
  210MOL0     C28270   0.357  10.093   5.267  1.0893  0.9150  0.2468
  210MOL0     C28271   0.379   9.987   5.354 -0.1253  0.7196  0.2711
  210MOL0     C28272   0.277   9.940   5.442  0.8480  0.5716  0.6421
  210MOL0     O28273   0.312   9.855   5.542  0.5258  0.0997  0.1391
  210MOL0     C28274   0.225   9.814   5.649 -0.2129  0.0622 -0.5682
  210MOL0     C28275   0.312   9.737   5.756  0.0131 -0.2747 -0.4542
  210MOL0     C28276   0.336   9.596   5.719 -0.1551 -0.0649 -0.4276
  210MOL0     C28277   0.405   9.526   5.835 -0.1511 -0.4005 -0.3539
  210MOL0     C28278   0.307   9.458   5.922 -0.2522  0.6637 -0.6542
  210MOL0     C28279   0.222   9.408   5.998  0.4548 -0.7888  0.2601
  210MOL0     C28280   0.150   9.989   5.422  0.3823  0.2397  0.8209
  210MOL0     C28281   0.126  10.087   5.331  0.3037 -0.1256 -0.5669
  210MOL0     C28282  -0.023  10.125   5.317 -0.1534  0.2182 -0.1680
  210MOL0     H28283   0.270  10.537   5.187 -1.6116 -0.8429 -0.4546
  210MOL0     H28284   0.343  10.718   5.103  1.6021  0.6223  0.5933
  210MOL0     H28285   0.245  10.722   4.768  0.7024 -1.8893 -1.2473
  210MOL0     H28286   0.306  10.882   4.827 -0.4863  0.2866 -2.5912
  210MOL0     H28287   0.409  10.765   4.570 -0.5389  1.2285 -1.3322
  210MOL0     H28288   0.457  10.901   4.654  0.3186 -1.4675  3.1469
  210MOL0     H28289   0.310  10.983   4.472  0.8342 -0.3976 -0.4136
  210MOL0     H28290   0.183  10.969   4.595  1.1629  0.0798 -0.7381
  210MOL0     H28291   0.237  10.800   4.368  1.5318  4.0967 -0.3099
  210MOL0     H28292   0.173  10.717   4.521 -2.3420 -0.2012 -0.0572
  210MOL0     H28293  -0.009  10.879   4.523 -0.1721  0.5613  0.9447
  210MOL0     H28294   0.057  10.960   4.383  1.5779  0.5926  1.5456
  210MOL0     H28295  -0.008  10.773   4.232  1.8190 -1.2361  0.8736
  210MOL0     H28296  -0.022  10.659   4.358 -3.0835 -1.4723  0.4309
  210MOL0     H28297  -0.216  10.878   4.369  1.6181 -0.5141 -0.1467
  210MOL0     H28298  -0.220  10.708   4.440  5.6272 -5.2479 -0.8014
  210MOL0     H28299  -0.197  10.745   4.136  1.2992 -0.1390  0.9928
  210MOL0     H28300  -0.219  10.605   4.231  1.8888 -0.0352  0.7550
  210MOL0     H28301  -0.387  10.906   4.092 -4.4996  1.1461 -2.6245
  210MOL0     H28302  -0.627  11.015   4.032  3.2799  1.7370  1.3281
  210MOL0     H28303  -0.764  10.960   4.143  0.3975  0.9001  0.3401
  210MOL0     H28304  -0.721  11.169   4.213 -0.1003  0.2140  3.2501
  210MOL0     H28305  -0.644  11.077   4.334  2.3375 -3.8459 -1.2089
  210MOL0     H28306  -0.487  11.194   4.109  1.2723 -1.0300 -0.0255
  210MOL0     H28307  -0.436  11.120   4.270  0.2961  0.7702  0.2893
  210MOL0     H28308  -0.540  11.321   4.375 -0.2566  0.1951 -1.0176
  210MOL0     H28309  -0.604  11.355   4.210 -1.0517 -0.5543  0.3869
  210MOL0     H28310  -0.191  11.533   4.162  1.1331  0.1915  0.8219
  210MOL0     H28311   0.065  11.469   4.203  0.4634 -2.1466 -1.0374
  210MOL0     H28312   0.251  11.012   4.240 -0.3335 -0.6002  1.3845
  210MOL0     H28313   0.446  10.893   4.224  1.5400  0.3464  0.7956
  210MOL0     H28314   0.755  11.037   4.449 -2.3801  1.2756  0.1167
  210MOL0     H28315   0.692  10.868   4.441 -0.6114 -0.9623 -1.6883
  210MOL0     H28316   0.870  10.792   4.307 -1.2919  1.4507 -2.0476
  210MOL0     H28317   0.921  10.957   4.279 -1.8494  0.7460 -1.4834
  210MOL0     H28318   0.981  10.973   4.530 -1.1839  0.9257 -1.4234
  210MOL0     H28319   0.928  10.800   4.555  2.4169 -0.5069  1.5585
  210MOL0     H28320   1.149  10.894   4.365  1.2824 -0.8267  0.1355
  210MOL0     H28321   1.100  10.729   4.401  1.7498 -0.7369  0.2813
  210MOL0     H28322   1.159  10.768   4.645 -1.1601 -0.7764 -0.4813
  210MOL0     H28323   1.205  10.935   4.601  3.2549  0.5980 -2.5328
  210MOL0     H28324   1.341  10.726   4.452 -0.5570  1.7303 -0.2719
  210MOL0     H28325   1.403  10.875   4.516  3.3073 -2.2496 -4.0678
  210MOL0     H28326   1.376  10.604   4.662  1.1725 -0.7381  4.5354
  210MOL0     H28327   1.379  10.749   4.758  1.7794 -0.1019  0.5392
  210MOL0     H28328   1.605  10.664   4.578 -1.6935  1.0240 -1.7031
  210MOL0     H28329   1.587  10.810   4.682  1.6408 -0.9178  2.4428
  210MOL0     H28330   0.663  11.259   4.322  0.8080  0.1407 -1.0475
  210MOL0     H28331   0.469  11.384   4.274  1.0512  0.8946 -0.1938
  210MOL0     H28332  -0.105  11.165   4.471  0.9601  1.9868  1.5213
  210MOL0     H28333  -0.297  11.207   4.422 -0.5154  1.9515 -0.7432
  210MOL0     H28334   0.489  10.522   4.749  0.1334  2.3779  1.2350
  210MOL0     H28335   0.430  10.298   4.857 -1.5000 -0.1909  0.5231
  210MOL0     H28336   0.447  10.118   5.211  1.6940 -1.8581 -0.1693
  210MOL0     H28337   0.475   9.939   5.366 -0.9156 -0.7319  1.1291
  210MOL0     H28338   0.144   9.748   5.618  0.1175  0.1030 -1.5550
  210MOL0     H28339   0.181   9.906   5.690  2.0407  0.9012  0.1273
  210MOL0     H28340   0.263   9.751   5.853 -1.2898  2.9798 -1.4421
  210MOL0     H28341   0.411   9.784   5.759  0.2910 -0.8763  0.0530
  210MOL0     H28342   0.403   9.587   5.633 -0.6031  2.1067 -1.0575
  210MOL0     H28343   0.244   9.547   5.684 -1.6640  0.7253  2.1802
  210MOL0     H28344   0.469   9.448   5.794 -1.3672  0.5449 -4.4856
  210MOL0     H28345   0.458   9.608   5.883 -2.5546  1.2402 -0.2935
  210MOL0     H28346   0.141   9.386   6.065 -0.7603 -0.2407 -0.9631
  210MOL0     H28347   0.073   9.941   5.481  1.3547 -1.0682  1.0941
  210MOL0     H28348  -0.101  10.049   5.328  0.0528 -0.3404 -2.1454
  210MOL0     H28349  -0.039  10.186   5.406 -1.1938  0.5323 -0.5485
  210MOL0     H28350  -0.056  10.183   5.230  2.6249 -0.2967 -1.6570
  211MOL0     O28351  11.369   8.903  10.921  0.1715 -0.0977 -0.4128
  211MOL0     C28352  11.300   8.812  10.963  1.2304 -1.0402  0.2970
  211MOL0     O28353  11.225   8.732  10.882  0.2791 -0.1918 -0.1902
  211MOL0     C28354  11.219   8.760  10.748  0.0401  1.4191  0.3438
  211MOL0     C28355  11.228   8.660  10.644 -0.6555  0.0583 -0.6702
  211MOL0     C28356  11.203   8.686  10.509 -0.3863 -0.0774 -0.5635
  211MOL0     C28357  11.203   8.821  10.469  0.1944  0.5926  0.0906
  211MOL0     O28358  11.190   8.855  10.335 -0.2546 -0.8813 -0.9498
  211MOL0     C28359  11.184   8.759  10.232  0.9185  0.5001 -0.0991
  211MOL0     C28360  11.150   8.849  10.102 -0.1691 -0.2428 -0.6263
  211MOL0     C28361  11.158   8.762   9.981  0.6887 -0.0189  0.7746
  211MOL0     C28362  11.073   8.626   9.991 -0.2552 -0.5986 -0.1615
  211MOL0     C28363  11.044   8.549   9.865 -0.9520  0.0392 -0.6860
  211MOL0     C28364  11.164   8.525   9.772  0.2234  0.7544 -0.3159
  211MOL0     C28365  11.130   8.433   9.656  0.3710  0.8778 -0.0983
  211MOL0     C28366  11.261   8.396   9.582  0.0913  0.5396 -0.1437
  211MOL0     N28367  11.233   8.311   9.464 -1.1194  0.1613  0.2790
  211MOL0     C28368  11.228   8.177   9.472  0.6431 -0.3318 -0.3537
  211MOL0     C28369  11.179   8.139   9.349 -0.5421 -0.9891  0.4718
  211MOL0     C28370  11.148   8.001   9.291 -0.5528 -0.3056 -0.2689
  211MOL0     C28371  11.002   7.957   9.323  0.0100  0.5520  0.1190
  211MOL0     C28372  10.982   7.823   9.254  0.1822  0.1096 -0.0677
  211MOL0     C28373  10.876   7.747   9.303 -0.3101 -0.1427  0.0773
  211MOL0     O28374  10.856   7.632   9.221  0.6322  0.2267 -0.6390
  211MOL0     C28375  10.775   7.536   9.280 -0.7903 -0.4186  0.2857
  211MOL0     C28376  10.677   7.557   9.376 -0.0970  0.1224  0.3161
  211MOL0     C28377  10.589   7.457   9.413 -0.0638  0.3388  0.1087
  211MOL0     C28378  10.606   7.320   9.378 -1.6824 -0.7387 -0.8576
  211MOL0     C28379  10.506   7.220   9.411  0.7148  0.0195 -0.9502
  211MOL0     O28380  10.398   7.265   9.493  0.4819 -0.7853 -0.5842
  211MOL0     C28381  10.294   7.181   9.531  0.1378  0.0348 -0.2107
  211MOL0     C28382  10.306   7.046   9.564 -0.2200 -0.3396 -0.7773
  211MOL0     C28383  10.189   6.962   9.582 -0.4130  0.4329  0.1373
  211MOL0     C28384  10.063   7.022   9.581  0.3504 -1.6032  0.6757
  211MOL0     O28385   9.965   6.932   9.606 -0.9119  0.2496 -1.4581
  211MOL0     C28386   9.833   6.971   9.571 -0.3339  0.7862  0.1213
  211MOL0     C28387   9.726   6.855   9.576 -0.0472  0.0368 -0.4960
  211MOL0     C28388   9.701   6.793   9.438 -0.8231 -0.7038 -0.3492
  211MOL0     C28389   9.600   6.685   9.452  1.0921  0.5160  0.1766
  211MOL0     C28390   9.556   6.616   9.321  0.3459  0.5161 -0.5409
  211MOL0     C28391   9.437   6.515   9.316 -0.9009 -0.5438 -1.7591
  211MOL0     C28392   9.460   6.403   9.425  0.6514  0.2755 -0.4103
  211MOL0     C28393   9.360   6.290   9.425  0.1411 -1.7084  0.1373
  211MOL0    Cl28394   9.406   6.158   9.533 -0.1120  0.7791 -0.1307
  211MOL0     C28395  10.050   7.164   9.548 -1.1466  0.6107 -0.0988
  211MOL0     C28396  10.164   7.244   9.520  0.0961  1.2859 -0.2611
  211MOL0     O28397  10.521   7.109   9.363 -0.5467  0.2153  1.2868
  211MOL0     C28398  10.712   7.305   9.287  0.4206  1.1554  0.7341
  211MOL0     C28399  10.789   7.401   9.235 -0.6197 -0.1948  0.1667
  211MOL0     N28400  11.166   8.246   9.267  0.7112 -0.5943  0.6973
  211MOL0     N28401  11.201   8.357   9.336 -0.4886 -0.0956  0.0355
  211MOL0     C28402  11.205   8.919  10.566 -0.4777  0.3821 -0.2343
  211MOL0     C28403  11.203   8.891  10.697  0.1955 -0.1969  0.0568
  211MOL0     C28404  11.309   8.782  11.107  0.1246 -0.3025 -0.0223
  211MOL0     C28405  11.389   8.855  11.197 -0.6943 -0.2547 -0.7801
  211MOL0     C28406  11.420   8.826  11.326  0.3017  0.3972 -0.3466
  211MOL0     C28407  11.336   8.739  11.385  0.3319  0.7961  0.4299
  211MOL0     O28408  11.369   8.710  11.513 -0.9990 -0.2270 -0.0076
  211MOL0     C28409  11.288   8.660  11.610 -0.1086 -0.1764 -0.4357
  211MOL0     C28410  11.185   8.767  11.630  0.8874  0.3062  0.8551
  211MOL0     C28411  11.132   8.757  11.769 -0.2606 -0.2356  0.5775
  211MOL0     C28412  11.072   8.887  11.819  0.7005 -0.3460  0.4988
  211MOL0     C28413  11.019   8.863  11.949  0.2425  0.5358 -0.6641
  211MOL0     C28414  10.965   8.845  12.060  1.0185 -0.0689  0.2469
  211MOL0     C28415  11.243   8.669  11.311 -0.0992  0.4486  0.5684
  211MOL0     C28416  11.229   8.682  11.168  0.4357 -0.6320 -0.2624
  211MOL0     C28417  11.129   8.583  11.109 -0.1434  0.0318  0.8969
  211MOL0     H28418  11.257   8.559  10.673  1.0415  1.0281  1.3400
  211MOL0     H28419  11.217   8.600  10.444  2.2269 -1.0596  1.1281
  211MOL0     H28420  11.277   8.704  10.217  1.5047  1.6803 -0.9738
  211MOL0     H28421  11.098   8.695  10.257  1.1568  1.4163  3.7931
  211MOL0     H28422  11.220   8.933  10.093 -2.7950  2.0033 -1.4441
  211MOL0     H28423  11.049   8.888  10.114 -1.7822 -3.3175 -2.8130
  211MOL0     H28424  11.264   8.738   9.964  0.2350 -1.7025  0.1379
  211MOL0     H28425  11.121   8.818   9.895 -1.9947  1.0315  2.4909
  211MOL0     H28426  11.132   8.555  10.048 -3.2525 -4.3202 -1.2439
  211MOL0     H28427  10.981   8.639  10.049  0.2722 -1.0266  0.7969
  211MOL0     H28428  11.004   8.454   9.900  2.7334 -0.8497  1.7284
  211MOL0     H28429  10.968   8.604   9.809  1.2447  3.0405 -0.9808
  211MOL0     H28430  11.193   8.622   9.730 -0.2458  1.2263  0.4213
  211MOL0     H28431  11.247   8.483   9.829 -0.2522  0.7547  0.3919
  211MOL0     H28432  11.054   8.475   9.589 -2.3241 -2.0101  0.9168
  211MOL0     H28433  11.079   8.344   9.694 -0.4846  1.4878  0.2197
  211MOL0     H28434  11.306   8.489   9.545 -1.0724  1.5000  0.7769
  211MOL0     H28435  11.329   8.346   9.652  0.8723  0.6111 -0.8344
  211MOL0     H28436  11.260   8.120   9.558  0.8198  0.5458  0.1717
  211MOL0     H28437  11.154   8.009   9.182 -2.2553  2.5132 -0.2716
  211MOL0     H28438  11.222   7.929   9.327 -1.1528 -0.1754  1.3374
  211MOL0     H28439  10.986   7.946   9.431 -4.6030  1.9725 -0.1900
  211MOL0     H28440  10.930   8.033   9.291  0.3168  0.6013 -0.4486
  211MOL0     H28441  11.062   7.751   9.274  0.8006 -0.1301 -2.9090
  211MOL0     H28442  10.981   7.835   9.145  0.6182 -0.0433 -0.0916
  211MOL0     H28443  10.790   7.812   9.286 -0.1039  0.2199  0.4220
  211MOL0     H28444  10.889   7.718   9.408  1.2859  0.0747 -0.0344
  211MOL0     H28445  10.663   7.659   9.410 -1.2447 -0.6098  2.2080
  211MOL0     H28446  10.513   7.489   9.483  0.3896 -2.5169  2.0627
  211MOL0     H28447  10.401   6.999   9.584  2.6515  5.0482  0.2132
  211MOL0     H28448  10.193   6.859   9.615 -1.4746 -0.8795 -3.3597
  211MOL0     H28449   9.797   7.052   9.636 -1.2987  0.7680 -0.3638
  211MOL0     H28450   9.831   7.016   9.471  0.0658 -2.2665 -1.3884
  211MOL0     H28451   9.747   6.784   9.656 -0.4621  0.0452 -0.3762
  211MOL0     H28452   9.638   6.912   9.607  2.1012  2.5020  1.6267
  211MOL0     H28453   9.669   6.878   9.378 -0.4213  0.1930  0.6912
  211MOL0     H28454   9.786   6.732   9.406 -0.5312 -2.3606  3.1220
  211MOL0     H28455   9.508   6.727   9.494  0.4269 -2.0368  1.4474
  211MOL0     H28456   9.633   6.618   9.531 -0.5928  0.5280  0.9338
  211MOL0     H28457   9.651   6.577   9.282 -0.3550 -0.1132 -1.6752
  211MOL0     H28458   9.532   6.700   9.255 -1.8624  1.7118  1.6363
  211MOL0     H28459   9.344   6.567   9.341  0.0183 -0.0945  1.1198
  211MOL0     H28460   9.432   6.468   9.218  1.9604 -2.6882 -1.0147
  211MOL0     H28461   9.458   6.451   9.524 -2.5032 -1.2968  0.4075
  211MOL0     H28462   9.561   6.363   9.411  0.1773 -1.2912  0.3825
  211MOL0     H28463   9.269   6.339   9.461  2.6354  4.6522 -0.7906
  211MOL0     H28464   9.353   6.252   9.323  1.6768 -1.0684 -0.2351
  211MOL0     H28465   9.960   7.225   9.556  0.2449  3.1560 -1.9191
  211MOL0     H28466  10.176   7.351   9.509  1.6627  0.9697 -2.2306
  211MOL0     H28467  10.730   7.207   9.244  3.4046  1.1239  1.8239
  211MOL0     H28468  10.864   7.383   9.158 -1.5994  1.1201 -1.1583
  211MOL0     H28469  11.205   9.026  10.545 -0.0644  0.0182 -2.3772
  211MOL0     H28470  11.207   8.969  10.772 -2.1990  0.8104 -0.7431
  211MOL0     H28471  11.443   8.942  11.161 -0.1266  0.1625  0.9710
  211MOL0     H28472  11.498   8.875  11.383  2.2868 -2.1234 -0.7222
  211MOL0     H28473  11.340   8.630  11.702  0.3499 -1.4288 -1.0773
  211MOL0     H28474  11.242   8.567  11.576 -1.9719  0.9595 -1.1788
  211MOL0     H28475  11.113   8.761  11.547  1.7067  1.5256  0.0286
  211MOL0     H28476  11.234   8.862  11.610 -0.7716  1.0755  0.2530
  211MOL0     H28477  11.211   8.733  11.841  0.4798  1.0295  0.2177
  211MOL0     H28478  11.054   8.681  11.764 -0.4503  0.0551 -1.3047
  211MOL0     H28479  11.142   8.970  11.831  2.2301 -1.7825  2.1403
  211MOL0     H28480  10.991   8.917  11.752  1.1005 -2.4083 -1.0189
  211MOL0     H28481  10.911   8.825  12.151  1.1589 -2.5176 -0.1153
  211MOL0     H28482  11.194   8.586  11.361  2.8727 -0.0912  2.9367
  211MOL0     H28483  11.055   8.641  11.052  1.4229  1.5394  0.2956
  211MOL0     H28484  11.179   8.517  11.037 -0.2948 -0.8925  1.6182
  211MOL0     H28485  11.073   8.520  11.179 -0.5144 -0.2973  0.3188
  212MOL0     O28486   5.863   5.929   0.245  0.1127 -0.5445  0.1201
  212MOL0     C28487   5.861   6.015   0.326 -0.7384 -0.5192 -0.3981
  212MOL0     O28488   5.949   6.035   0.421 -0.1176  0.7748 -0.4097
  212MOL0     C28489   6.063   5.958   0.416 -0.0861 -0.0444  0.0871
  212MOL0     C28490   6.066   5.833   0.475  0.6209 -0.3697 -0.5708
  212MOL0     C28491   6.174   5.751   0.465  0.6198 -0.2596 -0.0886
  212MOL0     C28492   6.290   5.791   0.397 -0.7187  0.3750 -0.0121
  212MOL0     O28493   6.406   5.708   0.385  0.1670 -0.5185  0.7496
  212MOL0     C28494   6.459   5.665   0.513  0.6773  0.3859  0.1361
  212MOL0     C28495   6.616   5.637   0.515  0.2748 -0.7324 -0.6604
  212MOL0     C28496   6.667   5.636   0.662  0.3747 -0.0481  0.7711
  212MOL0     C28497   6.600   5.546   0.758  0.2799 -0.1306  0.3854
  212MOL0     C28498   6.687   5.537   0.887  0.3480  0.0771 -0.0712
  212MOL0     C28499   6.804   5.436   0.868 -0.6051 -0.8638  0.5873
  212MOL0     C28500   6.852   5.377   0.993  0.6319  0.2965  0.0428
  212MOL0     C28501   6.915   5.472   1.084 -0.3150 -0.0630 -0.0146
  212MOL0     N28502   6.955   5.417   1.214  0.1221 -0.3924 -0.6014
  212MOL0     C28503   7.069   5.368   1.258 -0.2063  0.3292  0.7561
  212MOL0     C28504   7.062   5.375   1.394  0.2819  0.6979  0.5084
  212MOL0     C28505   7.169   5.309   1.474  0.4665  0.0399 -0.2983
  212MOL0     C28506   7.134   5.163   1.527 -0.1848 -0.3112  0.3051
  212MOL0     C28507   7.124   5.153   1.678 -0.1968  0.4523  0.2054
  212MOL0     C28508   7.251   5.197   1.764 -0.4650 -0.0586  0.5094
  212MOL0     O28509   7.322   5.074   1.796 -0.4202  0.4765  0.6839
  212MOL0     C28510   7.451   5.059   1.747 -0.7189  0.6104  0.3783
  212MOL0     C28511   7.545   4.983   1.830  0.0069  0.1989 -0.1281
  212MOL0     C28512   7.686   4.986   1.804  0.2281  0.2200  0.0932
  212MOL0     C28513   7.730   5.059   1.695  0.8745  1.5100  0.3234
  212MOL0     C28514   7.865   5.045   1.653 -0.5675 -0.0594 -0.2681
  212MOL0     O28515   7.951   4.983   1.748  0.5969 -1.0099  0.8345
  212MOL0     C28516   8.074   4.931   1.709  0.1006  0.4979 -0.2481
  212MOL0     C28517   8.188   4.949   1.786 -0.2148  0.8960  0.9757
  212MOL0     C28518   8.312   4.903   1.747  0.3341  0.5559  1.3588
  212MOL0     C28519   8.322   4.832   1.627 -0.0446  0.1857 -0.1703
  212MOL0     O28520   8.432   4.774   1.566  0.2320 -0.4290 -0.3292
  212MOL0     C28521   8.558   4.806   1.620 -0.2917  0.0657  0.6967
  212MOL0     C28522   8.664   4.728   1.539  0.2238 -0.4223 -0.2974
  212MOL0     C28523   8.799   4.756   1.595  0.8193 -1.1071  0.2449
  212MOL0     C28524   8.908   4.679   1.509 -0.2553 -0.7997 -0.2696
  212MOL0     C28525   9.058   4.690   1.536 -0.6973 -0.4582 -0.7753
  212MOL0     C28526   9.116   4.831   1.563 -0.0128 -0.6627  0.4053
  212MOL0     C28527   9.268   4.850   1.563  0.4474 -0.3137 -0.0487
  212MOL0     C28528   9.317   4.782   1.694 -0.1632  0.2092 -0.1700
  212MOL0    Cl28529   9.497   4.770   1.721 -0.7792 -0.2571  0.1628
  212MOL0     C28530   8.208   4.809   1.546  0.6021  0.8612 -1.0097
  212MOL0     C28531   8.082   4.849   1.586 -0.3737 -0.2247  0.3455
  212MOL0     O28532   7.900   5.092   1.546  0.4552  0.4129 -0.6955
  212MOL0     C28533   7.645   5.144   1.627 -0.7834  0.6776 -0.8108
  212MOL0     C28534   7.507   5.124   1.642  0.1117 -0.8148 -0.0491
  212MOL0     N28535   6.940   5.425   1.435 -0.3566 -0.0411  1.0163
  212MOL0     N28536   6.879   5.458   1.322  0.8079  0.7067 -0.8403
  212MOL0     C28537   6.287   5.917   0.337  0.3414 -0.9631 -0.0480
  212MOL0     C28538   6.171   6.002   0.351 -0.1466 -0.7904 -0.1572
  212MOL0     C28539   5.764   6.121   0.328 -0.7818 -0.3278 -0.6700
  212MOL0     C28540   5.649   6.068   0.381 -1.1731 -0.1921  1.0502
  212MOL0     C28541   5.549   6.159   0.405  0.1838 -0.1640  0.5739
  212MOL0     C28542   5.561   6.294   0.367 -0.1396 -0.7122  0.5684
  212MOL0     O28543   5.444   6.360   0.388  0.1094  0.7110  0.3163
  212MOL0     C28544   5.442   6.500   0.373 -0.4176 -0.0071 -1.2008
  212MOL0     C28545   5.489   6.578   0.506 -0.9705 -0.3113 -0.5501
  212MOL0     C28546   5.642   6.608   0.503  0.7526 -0.1019  0.5945
  212MOL0     C28547   5.672   6.720   0.603  0.0429 -0.7951  1.0546
  212MOL0     C28548   5.792   6.776   0.547  0.0491 -0.4356 -0.4217
  212MOL0     C28549   5.887   6.830   0.509  0.3128 -1.3508  0.3067
  212MOL0     C28550   5.678   6.339   0.306  0.6685  0.5498  0.9467
  212MOL0     C28551   5.789   6.252   0.293  1.0172  0.1490  0.2349
  212MOL0     C28552   5.918   6.296   0.241  0.5264  0.1972  0.0069
  212MOL0     H28553   5.974   5.800   0.522 -0.1145  1.7708 -0.4351
  212MOL0     H28554   6.175   5.655   0.516  0.4722 -0.5892 -0.6857
  212MOL0     H28555   6.434   5.739   0.590 -1.4584  3.8653 -3.5154
  212MOL0     H28556   6.405   5.573   0.535  0.6809  0.0910 -1.0055
  212MOL0     H28557   6.652   5.727   0.464 -2.1726  0.1519 -0.9693
  212MOL0     H28558   6.644   5.545   0.462 -0.1415 -1.0021 -0.4165
  212MOL0     H28559   6.651   5.739   0.695  3.9941  0.6977  0.6941
  212MOL0     H28560   6.777   5.636   0.656  0.3071 -1.4185 -1.6414
  212MOL0     H28561   6.499   5.574   0.787 -0.6049 -0.3387 -2.2198
  212MOL0     H28562   6.599   5.452   0.702 -1.0090  2.0571 -3.6590
  212MOL0     H28563   6.717   5.637   0.920 -0.9782  0.4976 -0.0473
  212MOL0     H28564   6.630   5.495   0.970  3.6291 -1.7913  1.4210
  212MOL0     H28565   6.764   5.353   0.809  1.2088 -2.6055  1.6853
  212MOL0     H28566   6.882   5.497   0.821 -1.0526  4.6910  5.7917
  212MOL0     H28567   6.925   5.299   0.972 -0.6374 -0.7468 -0.6495
  212MOL0     H28568   6.766   5.333   1.045 -0.7377  1.4206 -1.1763
  212MOL0     H28569   7.008   5.503   1.036 -0.2487 -2.7645 -1.8193
  212MOL0     H28570   6.849   5.559   1.091 -0.4003  0.0894 -2.0782
  212MOL0     H28571   7.154   5.349   1.194  0.0225  2.7692  0.2482
  212MOL0     H28572   7.263   5.305   1.416 -1.4757 -0.4198 -3.6955
  212MOL0     H28573   7.172   5.379   1.557 -0.2175  0.8366 -0.9318
  212MOL0     H28574   7.036   5.136   1.488 -0.0361  0.1162 -0.4021
  212MOL0     H28575   7.211   5.093   1.493 -1.6859 -1.2569 -1.3422
  212MOL0     H28576   7.084   5.057   1.713  2.5846 -0.4345  1.3060
  212MOL0     H28577   7.038   5.212   1.710 -3.2363 -2.3101 -2.1714
  212MOL0     H28578   7.214   5.237   1.859 -2.3459  0.5540 -0.4333
  212MOL0     H28579   7.315   5.274   1.719  0.8439 -0.9331  0.8266
  212MOL0     H28580   7.513   4.918   1.911 -0.1655  0.4601  0.0124
  212MOL0     H28581   7.745   4.912   1.857 -1.5914 -1.9154 -0.6847
  212MOL0     H28582   8.169   5.008   1.875 -1.8163  1.4897  0.2784
  212MOL0     H28583   8.400   4.915   1.810 -1.8219  1.6327  4.4325
  212MOL0     H28584   8.576   4.914   1.620  0.4276 -0.0437  1.6102
  212MOL0     H28585   8.565   4.759   1.718 -3.5008 -1.3156  0.3927
  212MOL0     H28586   8.646   4.620   1.540 -0.0056 -0.4385  2.5675
  212MOL0     H28587   8.663   4.757   1.434 -2.3770  0.2909 -0.1396
  212MOL0     H28588   8.810   4.865   1.601  0.4681 -1.1541  4.3788
  212MOL0     H28589   8.805   4.725   1.699  2.2356  1.6415  1.0953
  212MOL0     H28590   8.901   4.714   1.406 -1.6651 -1.2899 -0.3694
  212MOL0     H28591   8.896   4.570   1.509  1.8377 -1.0744 -0.4872
  212MOL0     H28592   9.104   4.632   1.456 -0.3492 -3.5306  1.4633
  212MOL0     H28593   9.068   4.639   1.632 -2.3536  0.3253 -0.1544
  212MOL0     H28594   9.065   4.896   1.491 -0.8875 -0.4949  1.1650
  212MOL0     H28595   9.084   4.862   1.662  0.9481 -4.7622  2.2317
  212MOL0     H28596   9.289   4.957   1.559 -1.8825  0.2502  0.8334
  212MOL0     H28597   9.305   4.802   1.472 -0.1046  0.1491 -0.5285
  212MOL0     H28598   9.274   4.820   1.787  0.2725 -0.2660  0.2320
  212MOL0     H28599   9.292   4.675   1.696  2.7159 -0.5381  0.1886
  212MOL0     H28600   8.213   4.731   1.470  4.5478  0.0446 -0.1074
  212MOL0     H28601   7.999   4.827   1.519 -0.1720  0.4414 -0.1453
  212MOL0     H28602   7.682   5.205   1.545  2.9107 -1.6212 -1.0888
  212MOL0     H28603   7.440   5.180   1.579 -0.8770 -1.8619  0.0372
  212MOL0     H28604   6.377   5.945   0.283 -0.0947 -3.8610 -2.5372
  212MOL0     H28605   6.177   6.103   0.310 -2.1216 -1.0990 -1.3206
  212MOL0     H28606   5.628   5.962   0.394  0.8459 -0.6504  0.9478
  212MOL0     H28607   5.458   6.115   0.443  0.2748 -0.7945  0.0884
  212MOL0     H28608   5.338   6.535   0.378 -0.4907 -0.4542  1.3848
  212MOL0     H28609   5.493   6.540   0.285  2.4102  0.6882  0.6223
  212MOL0     H28610   5.464   6.515   0.592 -1.6082  0.1803 -0.3662
  212MOL0     H28611   5.428   6.668   0.519 -2.0629 -1.1161  0.0756
  212MOL0     H28612   5.664   6.639   0.400 -1.8732  2.6823  0.7585
  212MOL0     H28613   5.715   6.527   0.517  1.4720  0.3266 -0.5160
  212MOL0     H28614   5.596   6.799   0.601 -0.7547 -1.5496  1.0389
  212MOL0     H28615   5.680   6.680   0.704 -2.7519  0.6779  1.9582
  212MOL0     H28616   5.964   6.890   0.466 -2.3489  0.4849 -2.3062
  212MOL0     H28617   5.684   6.437   0.258  3.8899 -0.1336 -0.3542
  212MOL0     H28618   5.982   6.326   0.325 -0.7141 -0.0498  1.0622
  212MOL0     H28619   5.974   6.222   0.183  2.3161  0.7623  0.9299
  212MOL0     H28620   5.901   6.390   0.188 -1.0584  1.0265  1.8532
  213MOL0     O28621   2.084   2.594   7.171 -0.1188  0.5056 -0.3716
  213MOL0     C28622   2.010   2.686   7.209  1.0569  0.3120 -0.0680
  213MOL0     O28623   1.881   2.669   7.266  0.0858 -0.1765 -0.1820
  213MOL0     C28624   1.822   2.543   7.295  0.8328 -0.4046 -0.4352
  213MOL0     C28625   1.722   2.556   7.395 -0.0548  0.0778 -0.3407
  213MOL0     C28626   1.640   2.439   7.422  0.5868 -0.4233 -0.5534
  213MOL0     C28627   1.659   2.322   7.353  0.1028 -0.0143  0.5113
  213MOL0     O28628   1.577   2.219   7.395 -0.2614  0.6918  0.1724
  213MOL0     C28629   1.587   2.090   7.321  1.0091  0.0045  0.9151
  213MOL0     C28630   1.494   1.989   7.389 -0.8107  0.8270 -0.3139
  213MOL0     C28631   1.349   1.998   7.353  0.3996  0.3609  0.5225
  213MOL0     C28632   1.296   1.992   7.211  0.3079  0.4364  0.6689
  213MOL0     C28633   1.148   1.953   7.209  0.1834 -0.2003 -0.7063
  213MOL0     C28634   1.093   1.933   7.071  0.2937 -0.3050  0.7052
  213MOL0     C28635   0.965   2.025   7.051 -0.2100 -0.2491 -0.0240
  213MOL0     C28636   0.849   1.974   7.134  0.3856 -0.1307 -0.1947
  213MOL0     N28637   0.729   2.023   7.063  0.1618  0.2648 -0.9830
  213MOL0     C28638   0.622   1.942   7.030  0.0430 -0.0949 -0.0550
  213MOL0     C28639   0.529   2.025   6.992 -0.5386  0.1582 -0.8320
  213MOL0     C28640   0.385   2.006   6.981 -0.1368  0.8635  0.2264
  213MOL0     C28641   0.332   1.867   7.002 -0.3237  0.4736 -0.7243
  213MOL0     C28642   0.178   1.867   6.972  0.2854  1.0011  0.2755
  213MOL0     C28643   0.085   1.914   7.085  0.0339 -0.1588  0.0461
  213MOL0     O28644   0.104   1.846   7.210  0.1102 -0.0626 -0.5896
  213MOL0     C28645   0.055   1.908   7.319 -0.3105  1.0899 -0.9424
  213MOL0     C28646   0.094   1.864   7.436 -0.4938 -0.1892 -0.3999
  213MOL0     C28647   0.056   1.904   7.560 -0.7237 -0.2497  0.0181
  213MOL0     C28648  -0.020   2.017   7.576  0.0117  0.5701  0.0353
  213MOL0     C28649  -0.044   2.076   7.706  0.0805  0.0743  0.1805
  213MOL0     O28650   0.040   2.031   7.812 -0.4052 -0.2896 -0.6645
  213MOL0     C28651   0.020   2.057   7.943  0.1330 -0.5813  0.0891
  213MOL0     C28652   0.023   1.958   8.032 -0.3920  0.1717  0.6351
  213MOL0     C28653   0.020   1.981   8.169  0.6570  0.3612  0.0561
  213MOL0     C28654  -0.008   2.117   8.210 -0.1458  0.3807  0.3995
  213MOL0     O28655  -0.031   2.140   8.347  0.1733  0.6310  0.0371
  213MOL0     C28656   0.075   2.114   8.437 -0.5241 -0.7000 -0.7066
  213MOL0     C28657   0.043   2.055   8.566  0.8558 -0.3375 -0.5653
  213MOL0     C28658  -0.065   2.142   8.654 -0.6138 -0.3657  0.4021
  213MOL0     C28659  -0.070   2.095   8.805 -0.0092  0.3671  0.5236
  213MOL0     C28660  -0.102   1.948   8.826 -0.5421  0.4252  0.5555
  213MOL0     C28661  -0.229   1.904   8.749 -0.0269  0.9862 -0.0474
  213MOL0     C28662  -0.269   1.756   8.775  0.3254 -0.0531  0.2138
  213MOL0     C28663  -0.382   1.714   8.690  0.4491  0.2363 -0.3204
  213MOL0    Cl28664  -0.537   1.785   8.758 -0.3629  0.1941  0.3860
  213MOL0     C28665  -0.008   2.221   8.117 -0.2888  0.3430 -0.3222
  213MOL0     C28666   0.022   2.188   7.984  0.2633 -0.2331 -0.0675
  213MOL0     O28667  -0.155   2.122   7.723  0.4295 -0.0341  0.8750
  213MOL0     C28668  -0.063   2.074   7.451  0.5307 -0.2114 -0.9855
  213MOL0     C28669  -0.045   2.010   7.330  0.0473  0.1321  0.2855
  213MOL0     N28670   0.583   2.155   6.991  0.2251  0.3438 -0.4453
  213MOL0     N28671   0.709   2.154   7.031  0.1845  0.0940 -0.2736
  213MOL0     C28672   1.753   2.314   7.247  0.1801 -0.3536 -0.2527
  213MOL0     C28673   1.836   2.427   7.221  0.5840 -0.7220 -0.0058
  213MOL0     C28674   2.063   2.813   7.163 -0.3652  0.8163 -0.2942
  213MOL0     C28675   2.195   2.829   7.138  0.8411  0.8487  0.2000
  213MOL0     C28676   2.257   2.952   7.098 -0.3042  0.4102  0.2559
  213MOL0     C28677   2.173   3.062   7.078 -0.1857 -0.0050  0.3560
  213MOL0     O28678   2.230   3.188   7.067  0.5429 -0.1456 -1.1303
  213MOL0     C28679   2.155   3.289   6.996 -0.1970  0.0233 -0.6877
  213MOL0     C28680   2.075   3.396   7.081  0.0039  0.4232 -0.0927
  213MOL0     C28681   2.168   3.467   7.189  0.3225 -0.5245 -0.4418
  213MOL0     C28682   2.178   3.619   7.179 -0.1707  0.8258  0.1398
  213MOL0     C28683   2.284   3.664   7.266 -0.7647 -1.1650 -0.1951
  213MOL0     C28684   2.388   3.694   7.329 -0.1710 -2.0667  0.9220
  213MOL0     C28685   2.038   3.048   7.086  0.5581 -0.9566 -1.2101
  213MOL0     C28686   1.979   2.927   7.123  0.1391  0.9120 -0.1336
  213MOL0     C28687   1.829   2.936   7.136  0.3143 -0.3237 -0.8778
  213MOL0     H28688   1.721   2.648   7.452 -0.5066 -1.3408  2.0684
  213MOL0     H28689   1.569   2.432   7.504  1.7635 -0.8224  0.4589
  213MOL0     H28690   1.564   2.104   7.215  1.1353 -0.3916  0.8321
  213MOL0     H28691   1.692   2.061   7.331  1.1368  0.3243  0.5349
  213MOL0     H28692   1.498   1.988   7.498 -0.7234 -1.5465 -0.2951
  213MOL0     H28693   1.537   1.896   7.351  1.4732  1.3916  0.7021
  213MOL0     H28694   1.303   2.084   7.403 -0.2918  1.4061 -1.8039
  213MOL0     H28695   1.302   1.910   7.397 -0.2179 -0.1190 -1.0445
  213MOL0     H28696   1.299   2.093   7.168  0.4535 -0.1477 -0.7430
  213MOL0     H28697   1.349   1.913   7.158  1.7408  1.2647  0.8107
  213MOL0     H28698   1.137   1.858   7.263  1.4587  0.5995  1.0255
  213MOL0     H28699   1.094   2.028   7.267 -0.7092 -1.9616  0.8649
  213MOL0     H28700   1.159   1.975   6.995 -2.1296  0.9896 -0.8293
  213MOL0     H28701   1.081   1.827   7.049  2.4131 -1.0599  2.7808
  213MOL0     H28702   0.937   2.018   6.946 -0.7101  1.9626 -0.0861
  213MOL0     H28703   0.987   2.132   7.060  1.2662 -0.4162 -1.2301
  213MOL0     H28704   0.859   1.866   7.143  2.5994  0.0013 -0.5563
  213MOL0     H28705   0.856   2.013   7.236  1.9739  0.4069 -0.4826
  213MOL0     H28706   0.611   1.836   7.049 -0.0756  0.0620  0.7856
  213MOL0     H28707   0.348   2.062   7.068  0.5432  2.6677 -0.5932
  213MOL0     H28708   0.354   2.054   6.888 -0.0285  1.8897  0.7048
  213MOL0     H28709   0.382   1.798   6.934 -1.8318  0.2873 -1.6821
  213MOL0     H28710   0.355   1.823   7.100 -3.2107 -2.8469 -1.3490
  213MOL0     H28711   0.157   1.761   6.955  2.7900 -0.1748  3.5482
  213MOL0     H28712   0.149   1.916   6.879 -0.6205  1.2683  0.6828
  213MOL0     H28713  -0.012   1.893   7.040  0.5095 -2.1904 -0.1457
  213MOL0     H28714   0.108   2.018   7.108  0.3349 -0.2393  0.1161
  213MOL0     H28715   0.168   1.784   7.444 -1.4243 -1.2440 -1.8485
  213MOL0     H28716   0.123   1.867   7.637 -0.6314  0.6986  0.4070
  213MOL0     H28717   0.015   1.864   7.978  2.9056  0.3687 -0.3770
  213MOL0     H28718   0.006   1.911   8.251 -0.9212 -0.0458 -0.5169
  213MOL0     H28719   0.143   2.052   8.377  1.5336  1.3166 -0.6051
  213MOL0     H28720   0.136   2.201   8.465 -0.5489 -0.8763 -0.0772
  213MOL0     H28721  -0.003   1.956   8.558 -0.1087 -0.6521  4.9831
  213MOL0     H28722   0.128   2.037   8.632  0.7313  4.0104  1.0964
  213MOL0     H28723  -0.041   2.249   8.654 -2.5018  0.1580 -2.1996
  213MOL0     H28724  -0.167   2.127   8.615 -0.5207 -1.0519  0.4109
  213MOL0     H28725  -0.131   2.158   8.870 -1.0810  2.6206 -2.4596
  213MOL0     H28726   0.032   2.100   8.845 -0.3704 -0.5036  1.5896
  213MOL0     H28727  -0.128   1.936   8.932 -2.2532  2.0600  0.3649
  213MOL0     H28728  -0.014   1.886   8.808 -2.0519 -1.5706 -0.3783
  213MOL0     H28729  -0.306   1.972   8.787 -1.8859  0.3374 -2.4894
  213MOL0     H28730  -0.213   1.917   8.642 -0.6352  0.0139 -0.2642
  213MOL0     H28731  -0.293   1.743   8.881  0.5560 -1.2300  0.1328
  213MOL0     H28732  -0.179   1.702   8.742 -0.9926 -1.7839 -0.7225
  213MOL0     H28733  -0.364   1.738   8.584 -2.0752 -0.9201 -1.0909
  213MOL0     H28734  -0.398   1.606   8.693  0.9880  0.1732  0.6263
  213MOL0     H28735  -0.053   2.315   8.148 -2.2020 -0.1618 -1.3646
  213MOL0     H28736   0.036   2.260   7.904 -2.3577 -0.2594 -0.6614
  213MOL0     H28737  -0.128   2.161   7.450  3.5406  2.4290  2.6677
  213MOL0     H28738  -0.089   2.054   7.241  0.6787 -0.0986 -0.1536
  213MOL0     H28739   1.779   2.224   7.193  1.9180  1.3609 -2.4462
  213MOL0     H28740   1.909   2.426   7.140  0.5492 -2.9390 -0.0903
  213MOL0     H28741   2.270   2.750   7.138  1.6985  1.6411  1.1868
  213MOL0     H28742   2.364   2.957   7.083 -0.1522 -1.4044  0.4715
  213MOL0     H28743   2.086   3.246   6.923  0.2542 -1.9766 -0.0154
  213MOL0     H28744   2.234   3.347   6.948 -0.5378 -0.0208 -1.2992
  213MOL0     H28745   1.985   3.351   7.125 -0.6180 -0.5650 -2.2311
  213MOL0     H28746   2.043   3.471   7.008 -1.3456 -0.1481 -0.1186
  213MOL0     H28747   2.262   3.410   7.191 -0.0161 -1.0772  0.7038
  213MOL0     H28748   2.116   3.452   7.284 -1.8569  0.9068 -1.3285
  213MOL0     H28749   2.214   3.645   7.080  4.3731 -0.8758  1.0734
  213MOL0     H28750   2.082   3.670   7.191 -0.5194  0.8831 -2.3873
  213MOL0     H28751   2.469   3.726   7.392 -0.8130  2.7537 -0.3323
  213MOL0     H28752   1.969   3.131   7.074  0.2213 -1.4416 -2.9212
  213MOL0     H28753   1.809   2.992   7.228  1.8772  2.5649 -2.1764
  213MOL0     H28754   1.784   2.989   7.051  0.8863 -1.9525 -2.2399
  213MOL0     H28755   1.776   2.840   7.136 -1.9671  0.8322  0.3625
  214MOL0     O28756   4.997  10.151  11.113  0.4266 -0.4823 -0.0603
  214MOL0     C28757   5.025  10.169  11.229 -0.0786  0.4828  0.3920
  214MOL0     O28758   5.119  10.102  11.297 -0.4346  0.1929 -0.5104
  214MOL0     C28759   5.180   9.999  11.234  0.4518 -0.4880  0.4653
  214MOL0     C28760   5.114   9.897  11.159 -0.2978 -0.1889  0.1482
  214MOL0     C28761   5.188   9.809  11.081  0.1924 -0.1094 -0.0666
  214MOL0     C28762   5.324   9.806  11.072 -1.1723 -0.7206 -0.3161
  214MOL0     O28763   5.408   9.731  10.990 -0.4243  1.0594  0.1546
  214MOL0     C28764   5.338   9.629  10.919  0.0499  0.0612  0.3456
  214MOL0     C28765   5.430   9.569  10.808 -0.1344 -0.1742 -0.2121
  214MOL0     C28766   5.530   9.462  10.850 -0.4584 -0.1793 -0.2391
  214MOL0     C28767   5.631   9.416  10.734  0.2388  0.3475 -0.3558
  214MOL0     C28768   5.546   9.365  10.611 -0.0862  0.1289 -0.0889
  214MOL0     C28769   5.632   9.288  10.518  0.2382  0.2273 -0.1922
  214MOL0     C28770   5.560   9.257  10.389 -0.8459 -0.5628 -0.1431
  214MOL0     C28771   5.590   9.353  10.275 -0.0757  0.5957 -0.5855
  214MOL0     N28772   5.731   9.331  10.222 -0.1123  0.2580 -0.0078
  214MOL0     C28773   5.837   9.423  10.232 -0.5581  0.3467  0.8467
  214MOL0     C28774   5.946   9.371  10.162 -0.1245  0.0671  0.7848
  214MOL0     C28775   6.087   9.429  10.156 -0.2554  0.3067  0.1385
  214MOL0     C28776   6.110   9.511  10.287 -0.2028  0.3922 -0.4790
  214MOL0     C28777   6.127   9.411  10.410  0.0855 -0.0301  0.8785
  214MOL0     C28778   6.067   9.477  10.537 -0.4070  0.2394  0.8440
  214MOL0     O28779   6.050   9.374  10.638  0.1008  0.1166 -0.6469
  214MOL0     C28780   6.001   9.424  10.756 -0.6269  0.1994  0.1177
  214MOL0     C28781   5.988   9.553  10.792  0.0315 -0.3358  0.6530
  214MOL0     C28782   5.933   9.600  10.912  0.4443  0.3871 -1.0832
  214MOL0     C28783   5.887   9.496  11.001  0.0429  0.1968 -1.1428
  214MOL0     C28784   5.801   9.535  11.118 -0.0551 -0.6667  1.0345
  214MOL0     O28785   5.761   9.434  11.199  0.4383  0.5185 -0.1509
  214MOL0     C28786   5.700   9.458  11.320 -0.4315  1.3309  0.4497
  214MOL0     C28787   5.743   9.388  11.435  1.0485  0.0123 -0.3673
  214MOL0     C28788   5.669   9.397  11.553  0.4103 -0.2986  0.1489
  214MOL0     C28789   5.550   9.476  11.560 -0.8931  0.7928 -0.4606
  214MOL0     O28790   5.486   9.495  11.678 -0.1683  0.2400  0.5400
  214MOL0     C28791   5.516   9.619  11.737  0.5521  0.2294 -0.2732
  214MOL0     C28792   5.453   9.632  11.883  0.1125  1.1633 -0.3344
  214MOL0     C28793   5.466   9.781  11.924 -0.5766  0.0201  0.4329
  214MOL0     C28794   5.424   9.794  12.076  0.2742  0.5366  0.9873
  214MOL0     C28795   5.529   9.759  12.174 -0.1183 -0.6148  0.1140
  214MOL0     C28796   5.467   9.745  12.320 -0.5360  0.9495  0.2752
  214MOL0     C28797   5.567   9.699  12.435  1.0114 -0.3926  0.3093
  214MOL0     C28798   5.654   9.814  12.446 -0.6917  0.1314  0.1109
  214MOL0    Cl28799   5.754   9.787  12.596 -0.0221  0.1533  0.7116
  214MOL0     C28800   5.518   9.560  11.447 -0.2209  1.1306  0.5229
  214MOL0     C28801   5.591   9.545  11.332 -0.4389 -0.4084  0.8358
  214MOL0     O28802   5.772   9.656  11.131 -0.2658  0.1933 -0.1515
  214MOL0     C28803   5.904   9.365  10.968  0.1669  0.3295 -1.1781
  214MOL0     C28804   5.964   9.329  10.848 -0.3518  0.7988  0.8683
  214MOL0     N28805   5.898   9.243  10.118 -0.6250 -0.4931  0.4172
  214MOL0     N28806   5.779   9.217  10.154  0.4575  0.5359 -0.2735
  214MOL0     C28807   5.391   9.910  11.141 -0.3846  0.4075 -0.0270
  214MOL0     C28808   5.321  10.011  11.221  0.0581 -0.0962 -0.4002
  214MOL0     C28809   4.964  10.282  11.313  0.8216  0.6785  0.7941
  214MOL0     C28810   5.056  10.366  11.384  0.0073 -0.0015  0.3862
  214MOL0     C28811   5.004  10.482  11.451 -0.1736  0.7219 -0.6895
  214MOL0     C28812   4.875  10.527  11.429 -0.3118 -0.6740 -0.7319
  214MOL0     O28813   4.821  10.642  11.481 -0.1060 -0.3409  0.1678
  214MOL0     C28814   4.905  10.724  11.563 -0.2642 -0.2447 -0.1702
  214MOL0     C28815   4.818  10.840  11.607 -0.4207 -0.0280  0.5977
  214MOL0     C28816   4.705  10.778  11.698 -0.0473  0.8708 -0.9317
  214MOL0     C28817   4.621  10.893  11.759  0.0719  0.2271  0.2266
  214MOL0     C28818   4.537  10.838  11.868 -1.0473 -0.5127 -0.6350
  214MOL0     C28819   4.462  10.788  11.953 -0.1236  0.3718  1.0666
  214MOL0     C28820   4.793  10.456  11.353  0.2200 -0.1003  0.9673
  214MOL0     C28821   4.826  10.322  11.303 -0.9348 -0.2873 -0.4307
  214MOL0     C28822   4.717  10.249  11.239 -0.8113 -1.3714  0.5061
  214MOL0     H28823   5.005   9.898  11.165 -0.2352  0.1010  1.4793
  214MOL0     H28824   5.137   9.745  11.009 -0.4815  2.5946 -2.1405
  214MOL0     H28825   5.324   9.542  10.985 -0.6645 -0.7355 -0.8240
  214MOL0     H28826   5.250   9.658  10.861  1.8510  0.6061 -2.2928
  214MOL0     H28827   5.479   9.654  10.762 -0.9260  2.3682  3.2230
  214MOL0     H28828   5.366   9.521  10.734 -0.3425  2.8080 -2.1180
  214MOL0     H28829   5.477   9.375  10.891  1.3704  0.2005  3.3202
  214MOL0     H28830   5.577   9.511  10.936 -0.0559 -1.1520  0.1112
  214MOL0     H28831   5.698   9.496  10.702 -0.3934  1.1561  0.3070
  214MOL0     H28832   5.693   9.338  10.780 -0.6982  0.1708  0.6580
  214MOL0     H28833   5.456   9.313  10.646 -0.4096  0.4376 -0.4562
  214MOL0     H28834   5.518   9.456  10.556 -0.6667  2.0713  3.1282
  214MOL0     H28835   5.722   9.347  10.500  0.1678  0.5970  0.6281
  214MOL0     H28836   5.654   9.193  10.569 -1.1689  0.2279  0.4670
  214MOL0     H28837   5.451   9.261  10.400 -0.7762  4.6317  1.2157
  214MOL0     H28838   5.584   9.153  10.368 -1.4596 -1.3098  2.4439
  214MOL0     H28839   5.515   9.342  10.196 -0.5675 -1.4572  0.1219
  214MOL0     H28840   5.573   9.456  10.308 -3.2171 -0.3306  1.0694
  214MOL0     H28841   5.829   9.519  10.282 -0.9403  0.0145  1.4361
  214MOL0     H28842   6.153   9.344  10.138  3.2511  2.9693 -0.5605
  214MOL0     H28843   6.107   9.498  10.074 -0.0075  0.1979  0.1051
  214MOL0     H28844   6.205   9.566  10.281  1.0996 -1.6791  0.1872
  214MOL0     H28845   6.031   9.586  10.297  0.4374  1.2327 -1.4726
  214MOL0     H28846   6.232   9.393  10.432  0.2206  0.7060  0.8753
  214MOL0     H28847   6.076   9.318  10.385  0.6709  0.3044 -1.8236
  214MOL0     H28848   5.986   9.538  10.499  1.2784  0.5400 -2.6321
  214MOL0     H28849   6.140   9.552  10.570 -2.2552  2.9563 -0.9055
  214MOL0     H28850   6.016   9.643  10.739 -4.0303  1.4189  1.0310
  214MOL0     H28851   5.919   9.705  10.934 -2.8629 -0.5928  2.8727
  214MOL0     H28852   5.818   9.310  11.425  1.6378  0.8343 -3.2679
  214MOL0     H28853   5.691   9.332  11.637 -1.6914  1.2483  2.0498
  214MOL0     H28854   5.624   9.626  11.750  0.8128  0.1283 -2.0790
  214MOL0     H28855   5.478   9.707  11.683 -1.6270  1.1519  2.5335
  214MOL0     H28856   5.350   9.602  11.860 -0.3228  3.7558 -2.1226
  214MOL0     H28857   5.499   9.561  11.953  1.3840  2.1954 -0.0846
  214MOL0     H28858   5.571   9.806  11.908 -0.4254 -1.7915 -1.9245
  214MOL0     H28859   5.405   9.843  11.859 -1.1511  2.6119  3.1892
  214MOL0     H28860   5.329   9.743  12.096 -0.2932  0.9210 -0.5918
  214MOL0     H28861   5.400   9.897  12.103  0.8387  1.0400 -0.3808
  214MOL0     H28862   5.618   9.824  12.167  0.4805 -1.5895 -2.1014
  214MOL0     H28863   5.571   9.663  12.145  0.0752 -0.6634  0.5496
  214MOL0     H28864   5.413   9.838  12.343 -2.8346 -0.1026 -0.5490
  214MOL0     H28865   5.383   9.675  12.311 -2.4337  3.1858 -0.7668
  214MOL0     H28866   5.629   9.613  12.409  1.7704 -0.1578  1.2866
  214MOL0     H28867   5.504   9.676  12.520  0.5155 -0.0764  0.0317
  214MOL0     H28868   5.728   9.826  12.366 -1.6141  3.3953 -0.4208
  214MOL0     H28869   5.592   9.904  12.446  0.7229  1.1479 -0.6310
  214MOL0     H28870   5.439   9.633  11.457 -0.6236  1.0486 -1.6440
  214MOL0     H28871   5.559   9.581  11.235  2.4644 -2.2091 -0.9530
  214MOL0     H28872   5.878   9.294  11.046 -0.6812  3.1364  1.2732
  214MOL0     H28873   5.984   9.224  10.833  1.9271  1.1377  1.1265
  214MOL0     H28874   5.499   9.923  11.141 -0.2617 -0.3517  1.5734
  214MOL0     H28875   5.380  10.088  11.270  4.5895 -3.7258  0.5666
  214MOL0     H28876   5.162  10.342  11.385  0.0717  0.2699  2.0788
  214MOL0     H28877   5.074  10.532  11.517 -2.4227  1.7031  1.1310
  214MOL0     H28878   4.985  10.766  11.502 -0.9370  1.9966  0.4272
  214MOL0     H28879   4.945  10.665  11.646 -0.3755 -1.1510 -0.7389
  214MOL0     H28880   4.763  10.887  11.525 -0.5864 -3.0119 -1.1578
  214MOL0     H28881   4.871  10.918  11.664  0.6325 -1.1008  1.1311
  214MOL0     H28882   4.743  10.700  11.764  0.9712  1.0607 -1.2680
  214MOL0     H28883   4.633  10.728  11.632 -0.8245 -0.6879  1.0147
  214MOL0     H28884   4.689  10.969  11.800  0.8295 -0.9067  1.1485
  214MOL0     H28885   4.546  10.933  11.691 -0.8321 -1.1986  0.3422
  214MOL0     H28886   4.392  10.741  12.018  0.6624 -2.1931  0.1726
  214MOL0     H28887   4.687  10.480  11.353  0.4186  0.8265  0.4440
  214MOL0     H28888   4.748  10.196  11.149 -1.1229 -0.1796 -0.3376
  214MOL0     H28889   4.675  10.173  11.305 -2.1783 -2.4992 -1.5700
  214MOL0     H28890   4.645  10.324  11.203  0.6136 -0.2804 -0.1633
  215MOL0     O28891   5.447  10.867   6.228  0.0013 -0.0311  0.1720
  215MOL0     C28892   5.537  10.897   6.148  0.8177  0.3350  1.4206
  215MOL0     O28893   5.550  10.847   6.018  0.8112  0.1885 -0.0776
  215MOL0     C28894   5.439  10.772   5.986  0.5948 -0.0641  0.6523
  215MOL0     C28895   5.427  10.638   5.997  0.4226 -0.6894 -0.4582
  215MOL0     C28896   5.312  10.567   5.961  0.5322 -0.2558  1.3067
  215MOL0     C28897   5.207  10.633   5.904 -0.1192 -0.2327 -0.0405
  215MOL0     O28898   5.088  10.574   5.883  0.5562  0.4361  0.1864
  215MOL0     C28899   5.027  10.487   5.986  0.3058 -0.3259 -1.4628
  215MOL0     C28900   4.876  10.526   5.992 -0.4556  0.2842  0.2579
  215MOL0     C28901   4.850  10.653   6.061 -0.0964 -0.5489 -0.6619
  215MOL0     C28902   4.936  10.686   6.190  0.3694 -0.6703  0.5602
  215MOL0     C28903   4.857  10.799   6.266 -0.3172  0.2920  0.7567
  215MOL0     C28904   4.840  10.940   6.201  0.2241  0.6290 -0.7940
  215MOL0     C28905   4.972  10.997   6.156 -0.5141 -0.3999 -0.0087
  215MOL0     C28906   4.941  11.108   6.044  0.7688 -0.4146 -0.0764
  215MOL0     N28907   5.060  11.152   5.963  0.6675 -0.8165 -0.6064
  215MOL0     C28908   5.160  11.241   6.001  1.1549  0.0699 -0.4329
  215MOL0     C28909   5.245  11.263   5.902 -0.1583 -0.3049  0.5470
  215MOL0     C28910   5.370  11.348   5.892  0.1551 -0.2082 -0.4917
  215MOL0     C28911   5.496  11.256   5.884 -0.4258  0.6990 -0.6956
  215MOL0     C28912   5.518  11.224   5.734  0.2168  0.6538  1.2268
  215MOL0     C28913   5.624  11.112   5.710 -0.0245 -0.0441 -0.0514
  215MOL0     O28914   5.569  10.985   5.725 -0.7500 -0.1348  0.0951
  215MOL0     C28915   5.654  10.874   5.704 -0.9104 -0.3679  0.5824
  215MOL0     C28916   5.593  10.765   5.646 -0.0675  1.3932 -0.7208
  215MOL0     C28917   5.665  10.652   5.599  0.3455  0.5710 -0.4469
  215MOL0     C28918   5.804  10.657   5.608  0.2713  0.9506 -0.5994
  215MOL0     C28919   5.884  10.546   5.556 -0.1124  0.6034 -0.0226
  215MOL0     O28920   6.014  10.566   5.541 -0.2884 -0.6759 -0.4072
  215MOL0     C28921   6.106  10.463   5.523 -0.1792 -0.0852 -0.6861
  215MOL0     C28922   6.227  10.476   5.591  0.6185  0.9081 -0.1426
  215MOL0     C28923   6.325  10.364   5.573 -0.0197  0.1393  0.4866
  215MOL0     C28924   6.291  10.255   5.491 -1.0140 -1.2326  0.6754
  215MOL0     O28925   6.356  10.140   5.489 -0.5018 -0.0874  0.0741
  215MOL0     C28926   6.505  10.153   5.501  0.8688  0.1875 -0.2321
  215MOL0     C28927   6.557  10.047   5.406  0.5302  0.3758 -0.1578
  215MOL0     C28928   6.519   9.906   5.467  0.0827 -0.1218  0.2480
  215MOL0     C28929   6.608   9.861   5.584  0.0642  0.0755  0.2452
  215MOL0     C28930   6.544   9.870   5.716  0.2990  0.1910  0.1275
  215MOL0     C28931   6.651   9.905   5.820 -0.2290 -0.2979 -0.3866
  215MOL0     C28932   6.756   9.793   5.861  0.7634  0.1497  0.4653
  215MOL0     C28933   6.832   9.852   5.980  0.8996  0.1800  1.0162
  215MOL0    Cl28934   6.984   9.756   6.013 -0.1688 -0.2596 -0.2239
  215MOL0     C28935   6.171  10.250   5.419 -0.0545 -0.7411 -0.4046
  215MOL0     C28936   6.079  10.352   5.436 -1.2426  0.6794 -0.7328
  215MOL0     O28937   5.824  10.438   5.534 -0.0280 -0.4065  0.4137
  215MOL0     C28938   5.868  10.769   5.664 -0.1204  0.6311  0.0528
  215MOL0     C28939   5.791  10.875   5.710 -0.3305 -1.0905 -0.9829
  215MOL0     N28940   5.196  11.177   5.802 -0.0715  0.4986 -0.0804
  215MOL0     N28941   5.081  11.121   5.838 -0.0206 -0.1678  0.0611
  215MOL0     C28942   5.222  10.773   5.881 -0.4391 -0.0645  0.4784
  215MOL0     C28943   5.344  10.839   5.915  0.3225 -0.9564  0.4600
  215MOL0     C28944   5.632  11.005   6.179 -0.6496  0.6814  0.4129
  215MOL0     C28945   5.744  11.039   6.089  0.1974  0.4305  0.7481
  215MOL0     C28946   5.847  11.127   6.136 -0.5428  0.6128  0.2530
  215MOL0     C28947   5.821  11.209   6.246  0.0697 -0.4068  0.5225
  215MOL0     O28948   5.922  11.294   6.280 -0.1257 -1.4804 -0.5369
  215MOL0     C28949   5.900  11.403   6.368 -0.6798 -0.6692 -0.6091
  215MOL0     C28950   6.004  11.506   6.318 -0.4465  0.1517  0.4735
  215MOL0     C28951   6.003  11.643   6.396 -0.7338  0.2017  0.3752
  215MOL0     C28952   6.096  11.758   6.336  0.3895  0.3326  0.4690
  215MOL0     C28953   6.041  11.800   6.206  0.0398  1.0648 -0.8265
  215MOL0     C28954   6.009  11.822   6.095 -0.0372  0.7337  0.1037
  215MOL0     C28955   5.708  11.190   6.323  0.3162 -0.0553 -0.0070
  215MOL0     C28956   5.611  11.095   6.291  0.2190 -0.0942  0.6720
  215MOL0     C28957   5.490  11.097   6.378 -0.5873  0.3796 -0.0172
  215MOL0     H28958   5.496  10.577   6.055 -0.4596  0.7464  2.2831
  215MOL0     H28959   5.298  10.461   5.981  2.9000 -1.0261 -0.5124
  215MOL0     H28960   5.035  10.384   5.950 -1.7877  0.0262 -3.1239
  215MOL0     H28961   5.071  10.494   6.085 -2.0724  3.7140 -0.4954
  215MOL0     H28962   4.822  10.458   6.059 -1.0701  0.6459  0.1261
  215MOL0     H28963   4.850  10.518   5.887  0.7710 -0.3323 -0.0258
  215MOL0     H28964   4.744  10.667   6.085  0.0148 -1.8255  0.7392
  215MOL0     H28965   4.893  10.725   5.991  2.6779  1.2398  2.5833
  215MOL0     H28966   4.935  10.600   6.257 -3.7357  0.4642  2.2817
  215MOL0     H28967   5.031  10.733   6.164  1.0067 -0.2739  3.2824
  215MOL0     H28968   4.755  10.772   6.296  0.1892  0.1022  2.3977
  215MOL0     H28969   4.902  10.809   6.365  0.3651  0.9672  0.3823
  215MOL0     H28970   4.775  10.929   6.114 -0.0366  0.1075 -0.5396
  215MOL0     H28971   4.799  10.998   6.284  0.6306  0.5240 -0.5193
  215MOL0     H28972   5.048  10.937   6.106 -0.2712  0.7131 -1.0164
  215MOL0     H28973   5.022  11.052   6.237 -0.1692 -0.9192  0.1377
  215MOL0     H28974   4.862  11.071   5.979  0.9998 -1.2666  0.1099
  215MOL0     H28975   4.914  11.200   6.095  0.7035  1.2730 -2.9570
  215MOL0     H28976   5.158  11.292   6.096  0.5059  0.3374 -0.5831
  215MOL0     H28977   5.365  11.423   5.813 -0.6184 -0.3520 -0.5846
  215MOL0     H28978   5.366  11.405   5.985 -0.9901 -0.5080 -0.3430
  215MOL0     H28979   5.588  11.297   5.927  2.5828 -0.6380 -5.1937
  215MOL0     H28980   5.478  11.163   5.939 -2.0530  1.3676 -0.0293
  215MOL0     H28981   5.548  11.313   5.678  0.0770 -1.0412 -1.7738
  215MOL0     H28982   5.428  11.194   5.681  0.0283  2.2392  0.6076
  215MOL0     H28983   5.712  11.130   5.773  1.3266  0.9563 -2.0937
  215MOL0     H28984   5.658  11.110   5.606 -0.5559 -2.9030 -0.2536
  215MOL0     H28985   5.486  10.778   5.645 -0.0314  1.7274 -1.7377
  215MOL0     H28986   5.625  10.559   5.560  1.4887 -0.1987  0.1857
  215MOL0     H28987   6.249  10.564   5.651  1.7362  1.3125 -1.0964
  215MOL0     H28988   6.421  10.365   5.623  0.1851  2.5596  0.1746
  215MOL0     H28989   6.547  10.244   5.456 -0.0684  1.6868  1.7771
  215MOL0     H28990   6.551  10.137   5.599 -1.8036 -1.9007  0.7980
  215MOL0     H28991   6.506  10.050   5.309  0.3406  1.7957 -0.0384
  215MOL0     H28992   6.665  10.056   5.395  0.8845 -0.2956  2.1645
  215MOL0     H28993   6.412   9.884   5.476 -0.2737  0.6945 -1.6214
  215MOL0     H28994   6.539   9.835   5.386 -1.3967  0.9495 -1.1117
  215MOL0     H28995   6.703   9.915   5.586  2.0177 -3.1157  1.9230
  215MOL0     H28996   6.642   9.757   5.583 -5.8240 -2.2741  1.6845
  215MOL0     H28997   6.490   9.777   5.739  0.7474 -0.2121 -0.4227
  215MOL0     H28998   6.479   9.958   5.721  1.5083  1.0549  1.4553
  215MOL0     H28999   6.694  10.003   5.796 -2.2439  1.7563  3.4629
  215MOL0     H29000   6.586   9.926   5.906  2.0408  0.2768  1.2994
  215MOL0     H29001   6.827   9.775   5.780 -0.7169 -0.3165 -0.7715
  215MOL0     H29002   6.708   9.698   5.887 -2.9608  1.0089 -2.3174
  215MOL0     H29003   6.854   9.956   5.954  2.4387 -0.0104  1.4665
  215MOL0     H29004   6.763   9.850   6.065 -0.3609  1.4115  0.0660
  215MOL0     H29005   6.147  10.173   5.346  1.8785 -0.1330 -1.7417
  215MOL0     H29006   5.985  10.338   5.384 -1.5423 -2.7174  0.4465
  215MOL0     H29007   5.976  10.778   5.663  0.0388 -1.0127  0.5705
  215MOL0     H29008   5.848  10.964   5.735  0.1883 -1.0476 -2.2484
  215MOL0     H29009   5.147  10.835   5.832 -1.0951 -1.6436 -0.6356
  215MOL0     H29010   5.351  10.945   5.893 -0.0009 -0.7923  1.1358
  215MOL0     H29011   5.762  10.982   5.998  0.4070  0.0551  1.0196
  215MOL0     H29012   5.942  11.129   6.083  0.5968 -0.9058  2.1100
  215MOL0     H29013   5.925  11.387   6.474 -3.2572 -1.7211 -0.0846
  215MOL0     H29014   5.799  11.446   6.361  0.2964  1.6134 -1.4167
  215MOL0     H29015   6.000  11.524   6.210 -0.0209 -1.1018  0.2289
  215MOL0     H29016   6.100  11.457   6.331  0.4639  2.5597  4.7066
  215MOL0     H29017   6.035  11.620   6.498  0.8759 -1.4635 -0.4568
  215MOL0     H29018   5.900  11.681   6.407 -1.5412 -2.1962  1.9588
  215MOL0     H29019   6.112  11.846   6.400  1.3840 -2.2792  4.1518
  215MOL0     H29020   6.201  11.728   6.339  0.7454  1.5572  1.9942
  215MOL0     H29021   6.004  11.839   5.989  2.9657 -1.0648 -0.4336
  215MOL0     H29022   5.694  11.256   6.407 -0.9645  0.1661 -0.3563
  215MOL0     H29023   5.480  11.200   6.415  0.1015 -0.5874  3.1736
  215MOL0     H29024   5.399  11.061   6.328 -0.1258  0.4024 -0.8821
  215MOL0     H29025   5.517  11.035   6.464 -0.4570  0.7466  0.2097
  216MOL0     O29026   7.973   0.544   5.512  0.1818 -0.0935 -0.1156
  216MOL0     C29027   7.875   0.591   5.453 -0.6691  0.5371 -0.5039
  216MOL0     O29028   7.745   0.591   5.500  0.8709  0.6867 -0.0079
  216MOL0     C29029   7.720   0.549   5.633  0.3497  0.4434  0.7682
  216MOL0     C29030   7.731   0.414   5.675  0.3885 -0.0577 -0.2808
  216MOL0     C29031   7.730   0.383   5.814  0.7491  0.5272  0.1388
  216MOL0     C29032   7.684   0.477   5.902 -0.2343  0.6185 -0.5269
  216MOL0     O29033   7.675   0.429   6.031  0.4004  0.1469 -0.2533
  216MOL0     C29034   7.623   0.521   6.127  0.2904  0.4985 -0.8393
  216MOL0     C29035   7.598   0.464   6.267 -0.2196  0.3897  0.2690
  216MOL0     C29036   7.702   0.370   6.319 -0.8577  0.2210 -0.2495
  216MOL0     C29037   7.651   0.310   6.452  0.1983 -0.7253 -0.7227
  216MOL0     C29038   7.751   0.232   6.532 -0.1292  0.7567 -1.2686
  216MOL0     C29039   7.840   0.320   6.630  0.7942  0.0902 -0.1007
  216MOL0     C29040   7.916   0.249   6.748  0.2134 -0.0184  0.1666
  216MOL0     C29041   7.824   0.187   6.860 -0.3022  0.4524  0.3238
  216MOL0     N29042   7.754   0.296   6.922  0.0295 -0.2371 -0.1677
  216MOL0     C29043   7.638   0.346   6.865  0.1732 -0.2538  0.3324
  216MOL0     C29044   7.593   0.432   6.956 -0.0453 -0.2437 -0.5321
  216MOL0     C29045   7.457   0.502   6.920 -0.1515  0.4122 -0.0510
  216MOL0     C29046   7.452   0.589   6.795  0.0923  0.3005  0.1597
  216MOL0     C29047   7.328   0.680   6.779 -0.3000 -0.2745 -0.0795
  216MOL0     C29048   7.343   0.783   6.660  0.8179 -0.1678 -0.0324
  216MOL0     O29049   7.320   0.702   6.536 -0.7066  0.1599 -0.8654
  216MOL0     C29050   7.210   0.730   6.456 -0.0821  0.9037  0.3586
  216MOL0     C29051   7.195   0.646   6.343 -0.1219  0.0958 -0.4997
  216MOL0     C29052   7.091   0.639   6.250 -0.9630  0.0811  0.2420
  216MOL0     C29053   6.995   0.741   6.269  0.2828 -0.3788  0.6441
  216MOL0     C29054   6.888   0.744   6.169 -0.2604  0.0647  0.6823
  216MOL0     O29055   6.867   0.623   6.101 -0.0286 -0.4291 -0.4210
  216MOL0     C29056   6.777   0.625   6.004  1.1092 -0.5129  1.0566
  216MOL0     C29057   6.819   0.541   5.897  0.2777 -0.1588 -0.0002
  216MOL0     C29058   6.751   0.538   5.779  0.5894 -0.1897  0.3653
  216MOL0     C29059   6.623   0.605   5.767 -0.5695  0.0386 -0.1000
  216MOL0     O29060   6.548   0.602   5.659 -0.6603  0.5839 -0.4636
  216MOL0     C29061   6.566   0.509   5.554  0.3397  0.2704  0.0923
  216MOL0     C29062   6.663   0.565   5.441 -0.0546  0.4456 -0.2244
  216MOL0     C29063   6.601   0.685   5.357  0.1814  0.2611 -0.7331
  216MOL0     C29064   6.689   0.700   5.237  0.4526 -0.5271 -0.4372
  216MOL0     C29065   6.721   0.846   5.203 -0.8521 -0.9018  0.8642
  216MOL0     C29066   6.759   0.872   5.054  0.4377 -0.3962 -1.1753
  216MOL0     C29067   6.893   0.803   5.017 -0.5324 -0.0524 -0.7403
  216MOL0     C29068   6.903   0.798   4.863  0.0033  0.0736  0.0597
  216MOL0    Cl29069   6.905   0.965   4.793  0.4660 -0.1728 -0.0804
  216MOL0     C29070   6.580   0.678   5.875 -0.3381 -0.3719 -0.9124
  216MOL0     C29071   6.656   0.691   5.994  0.3415 -0.4853 -0.6981
  216MOL0     O29072   6.844   0.856   6.135 -0.1796  0.0405 -0.8441
  216MOL0     C29073   7.014   0.844   6.359  0.4058 -1.1886 -0.1960
  216MOL0     C29074   7.109   0.829   6.465 -0.2452 -0.2033  0.4428
  216MOL0     N29075   7.668   0.420   7.069 -0.5656 -0.8360  0.0510
  216MOL0     N29076   7.763   0.343   7.047  0.1882  0.1093  0.1579
  216MOL0     C29077   7.659   0.610   5.865  0.4790  0.4174  0.1351
  216MOL0     C29078   7.691   0.644   5.730  0.5800 -0.0642  1.2767
  216MOL0     C29079   7.887   0.671   5.327 -0.6329  0.3030 -0.3593
  216MOL0     C29080   7.783   0.765   5.298 -1.0051  0.1020 -0.1458
  216MOL0     C29081   7.795   0.859   5.195 -1.7215  0.3522 -1.1630
  216MOL0     C29082   7.909   0.857   5.109  0.2567 -0.4521 -0.0304
  216MOL0     O29083   7.902   0.938   5.006 -0.4793  0.3003  0.3308
  216MOL0     C29084   8.024   0.972   4.934  0.4220 -0.6284 -0.6530
  216MOL0     C29085   7.992   1.071   4.829  0.0350 -0.1175 -0.0493
  216MOL0     C29086   7.896   1.037   4.724  0.6587  0.2344  0.0843
  216MOL0     C29087   7.920   0.895   4.660 -0.9467  0.2457 -0.8350
  216MOL0     C29088   8.052   0.884   4.602  0.0198  0.2888  0.6166
  216MOL0     C29089   8.148   0.901   4.535  0.3229  0.3985  1.1869
  216MOL0     C29090   8.002   0.762   5.138 -0.1084 -0.4567 -1.0645
  216MOL0     C29091   7.994   0.664   5.237  0.6872  0.7528  0.0522
  216MOL0     C29092   8.101   0.557   5.244  0.3294 -0.2747  0.4902
  216MOL0     H29093   7.742   0.332   5.604  0.4166  0.4914 -0.9194
  216MOL0     H29094   7.757   0.284   5.849  0.0208  0.3433  0.1922
  216MOL0     H29095   7.689   0.606   6.150  0.6928 -0.2045  0.7285
  216MOL0     H29096   7.533   0.571   6.090  0.6443  1.7823 -0.0623
  216MOL0     H29097   7.503   0.414   6.245 -0.5885  2.1203 -2.6712
  216MOL0     H29098   7.583   0.551   6.331 -1.3278 -0.7777  1.6583
  216MOL0     H29099   7.797   0.421   6.339 -0.0631 -1.6796  1.1783
  216MOL0     H29100   7.717   0.284   6.254  1.1807 -1.0249  1.7364
  216MOL0     H29101   7.632   0.386   6.528  2.9469  0.0012 -0.6346
  216MOL0     H29102   7.567   0.242   6.435  0.0719 -1.3713  2.0137
  216MOL0     H29103   7.683   0.169   6.591  1.3583 -0.1259 -0.4237
  216MOL0     H29104   7.808   0.175   6.458 -2.0653 -2.1909 -0.7009
  216MOL0     H29105   7.915   0.346   6.555  1.0359 -0.7292 -0.1548
  216MOL0     H29106   7.792   0.413   6.662  1.9202  0.3415  0.9334
  216MOL0     H29107   7.964   0.333   6.798  2.1161 -1.4325  0.8120
  216MOL0     H29108   7.985   0.171   6.713 -1.6073 -2.3133  1.4007
  216MOL0     H29109   7.757   0.109   6.825  0.6800  0.6875 -2.3234
  216MOL0     H29110   7.896   0.138   6.927 -0.9194 -0.4319  0.3566
  216MOL0     H29111   7.593   0.326   6.768  0.9129 -0.4134  0.0168
  216MOL0     H29112   7.369   0.437   6.916 -0.3524  0.7103 -2.4771
  216MOL0     H29113   7.435   0.568   7.004 -1.2850 -0.6625  0.5372
  216MOL0     H29114   7.544   0.647   6.796  0.0995  0.3161 -0.8498
  216MOL0     H29115   7.462   0.509   6.722  2.3051  0.0317  0.6868
  216MOL0     H29116   7.312   0.743   6.867 -2.2084  3.0536 -2.5595
  216MOL0     H29117   7.235   0.624   6.769 -0.0698 -1.2571  2.5171
  216MOL0     H29118   7.445   0.822   6.657 -0.2896  3.0617 -3.0200
  216MOL0     H29119   7.276   0.868   6.663  0.7792 -0.0766 -1.9620
  216MOL0     H29120   7.268   0.570   6.320  3.0633  2.9599 -0.6285
  216MOL0     H29121   7.084   0.562   6.173  0.2255 -0.0592  0.2620
  216MOL0     H29122   6.916   0.494   5.897  0.0710 -0.6463 -1.6860
  216MOL0     H29123   6.784   0.484   5.691 -2.7468  0.2647 -1.3368
  216MOL0     H29124   6.600   0.412   5.589 -1.3222 -0.6955 -0.8470
  216MOL0     H29125   6.478   0.496   5.490 -0.0764  2.2870  0.1866
  216MOL0     H29126   6.765   0.596   5.467 -0.2162  1.9432 -1.1913
  216MOL0     H29127   6.662   0.481   5.371  0.5388 -1.1510  1.6107
  216MOL0     H29128   6.500   0.653   5.331 -0.3183  1.9319 -0.9012
  216MOL0     H29129   6.604   0.772   5.423  1.7828 -0.5060  0.3071
  216MOL0     H29130   6.649   0.655   5.146  0.8910 -4.1008  0.9744
  216MOL0     H29131   6.785   0.649   5.251  0.2768 -0.8976 -0.5866
  216MOL0     H29132   6.794   0.883   5.275  0.5512 -0.9306 -0.4954
  216MOL0     H29133   6.635   0.915   5.206  0.5918  0.9784  1.0270
  216MOL0     H29134   6.675   0.845   4.989 -0.8052  1.1497 -0.2787
  216MOL0     H29135   6.772   0.978   5.030  1.4547  0.2612  1.8905
  216MOL0     H29136   6.879   0.702   5.056 -4.4869 -0.2373 -2.1843
  216MOL0     H29137   6.980   0.861   5.047  0.7677 -1.2835 -1.9839
  216MOL0     H29138   6.980   0.727   4.834 -1.2059 -1.2595  0.0245
  216MOL0     H29139   6.810   0.757   4.824 -0.7289  1.1646  0.5963
  216MOL0     H29140   6.488   0.736   5.865 -0.7923 -0.8559  0.2616
  216MOL0     H29141   6.622   0.744   6.082 -0.7655 -0.3184 -1.1988
  216MOL0     H29142   6.953   0.933   6.364  0.4696 -1.0380 -1.6847
  216MOL0     H29143   7.107   0.908   6.539 -5.1876  1.1874 -0.7927
  216MOL0     H29144   7.630   0.691   5.931  1.6455  1.5777 -0.7171
  216MOL0     H29145   7.679   0.747   5.699 -1.2481 -0.4395  0.5760
  216MOL0     H29146   7.704   0.791   5.368 -2.0045 -1.6099 -0.5776
  216MOL0     H29147   7.719   0.929   5.162 -1.0675  1.0751 -1.1689
  216MOL0     H29148   8.066   0.882   4.887  1.7036 -0.7470  0.6730
  216MOL0     H29149   8.090   1.000   5.016 -0.5887  0.9036 -0.3149
  216MOL0     H29150   8.083   1.091   4.771 -0.5714 -0.0630 -1.0079
  216MOL0     H29151   7.964   1.169   4.868 -0.2238 -0.9992  2.0693
  216MOL0     H29152   7.893   1.113   4.646  0.5183  0.2461  0.1004
  216MOL0     H29153   7.799   1.038   4.775  1.1091  0.3371  0.9557
  216MOL0     H29154   7.903   0.819   4.737 -1.2220  0.5274 -0.6157
  216MOL0     H29155   7.856   0.901   4.572  2.3701 -0.7542 -3.5219
  216MOL0     H29156   8.223   0.928   4.463 -0.1024 -0.2823  0.4769
  216MOL0     H29157   8.074   0.750   5.057 -1.1641 -1.3057 -1.9102
  216MOL0     H29158   8.150   0.555   5.146  0.7295  2.5615  0.5426
  216MOL0     H29159   8.177   0.589   5.317  2.8219  0.0542 -2.0865
  216MOL0     H29160   8.070   0.456   5.274  1.4424 -1.2745 -1.5171
  217MOL0     O29161   5.683   8.269   4.765  0.3035 -1.0200 -1.0058
  217MOL0     C29162   5.575   8.307   4.810  0.8646 -0.2667 -0.1719
  217MOL0     O29163   5.478   8.366   4.741  0.0258  0.3197 -0.8942
  217MOL0     C29164   5.496   8.359   4.607 -0.2571  0.0526 -0.3083
  217MOL0     C29165   5.511   8.471   4.532 -0.7154  0.1372 -0.1110
  217MOL0     C29166   5.516   8.477   4.389  1.3038  0.7939  0.0023
  217MOL0     C29167   5.536   8.359   4.323 -0.1145 -0.2635  0.5895
  217MOL0     O29168   5.544   8.353   4.179  0.1618 -0.1165 -0.5677
  217MOL0     C29169   5.662   8.426   4.131 -0.3355 -1.4124 -0.0964
  217MOL0     C29170   5.771   8.349   4.068  0.6458  0.2838  0.0129
  217MOL0     C29171   5.838   8.268   4.177  0.3945  0.7412  1.1170
  217MOL0     C29172   5.809   8.115   4.176  0.0301 -0.0998  0.0217
  217MOL0     C29173   5.889   8.034   4.284  0.2646  0.8795 -0.8226
  217MOL0     C29174   5.815   8.050   4.419  0.0135  0.1983  0.9733
  217MOL0     C29175   5.889   7.991   4.535 -0.3616 -0.2332 -0.5787
  217MOL0     C29176   6.026   8.051   4.554  0.1083 -0.4879  0.0926
  217MOL0     N29177   6.053   8.194   4.534 -0.4010  0.8073 -0.4965
  217MOL0     C29178   5.972   8.293   4.570  0.3436  0.1668  1.4964
  217MOL0     C29179   6.035   8.408   4.535  0.5904  0.2899 -0.1134
  217MOL0     C29180   5.981   8.545   4.576 -0.1691 -0.1242 -0.0382
  217MOL0     C29181   6.003   8.654   4.464 -0.5365 -0.7284 -0.5878
  217MOL0     C29182   5.911   8.669   4.350  0.1256  1.0227 -0.4769
  217MOL0     C29183   5.953   8.782   4.274  1.1490  0.4896  0.7365
  217MOL0     O29184   5.874   8.798   4.150  0.6483 -0.3995 -0.0024
  217MOL0     C29185   5.921   8.738   4.036  0.5414  0.7197 -0.2464
  217MOL0     C29186   5.846   8.760   3.925 -0.3420  0.6045  0.2228
  217MOL0     C29187   5.884   8.719   3.794  0.6547  1.0030 -1.3569
  217MOL0     C29188   5.993   8.637   3.780 -0.4212  0.8670  0.8310
  217MOL0     C29189   6.034   8.591   3.646  1.0318  0.8687  0.3931
  217MOL0     O29190   5.958   8.631   3.545  0.2631 -0.2692  0.5362
  217MOL0     C29191   5.970   8.582   3.413 -0.2252 -0.4023  0.1348
  217MOL0     C29192   5.856   8.523   3.369 -0.0337 -0.2581 -0.0508
  217MOL0     C29193   5.857   8.476   3.231  0.2742 -0.5595 -0.1527
  217MOL0     C29194   5.959   8.496   3.140 -0.2233 -0.5613  0.1865
  217MOL0     O29195   5.957   8.452   3.007  0.3603 -0.2016 -1.0619
  217MOL0     C29196   5.856   8.361   2.968 -0.0201  0.2067  0.7401
  217MOL0     C29197   5.872   8.334   2.815  0.2796 -0.2324 -0.4255
  217MOL0     C29198   5.743   8.313   2.726 -0.0537  0.2727  0.1038
  217MOL0     C29199   5.651   8.202   2.759  0.3650 -0.1646 -0.6228
  217MOL0     C29200   5.498   8.229   2.709 -0.7314 -0.9850  0.0445
  217MOL0     C29201   5.484   8.227   2.550  0.0499  0.4182  0.8414
  217MOL0     C29202   5.329   8.223   2.517  0.5317  0.4873 -0.2315
  217MOL0     C29203   5.289   8.282   2.383 -0.5425 -0.6154  0.2579
  217MOL0    Cl29204   5.383   8.191   2.252  0.0608  0.2096  0.3433
  217MOL0     C29205   6.073   8.563   3.197  0.8485  1.0432  0.6547
  217MOL0     C29206   6.081   8.585   3.332  0.0840  0.1745  0.5424
  217MOL0     O29207   6.103   8.491   3.648  0.8759 -0.0927  0.6975
  217MOL0     C29208   6.063   8.599   3.902 -0.1790 -1.1106  0.2548
  217MOL0     C29209   6.020   8.647   4.028  0.2737  0.6194  0.9865
  217MOL0     N29210   6.152   8.371   4.472  0.4759  0.1324  0.2786
  217MOL0     N29211   6.155   8.245   4.470  0.9044 -0.1974 -0.0329
  217MOL0     C29212   5.531   8.235   4.396 -0.2586 -0.0140  0.9509
  217MOL0     C29213   5.505   8.234   4.529  0.5321  1.4304  0.5467
  217MOL0     C29214   5.556   8.266   4.954 -0.8326 -0.7594  0.1135
  217MOL0     C29215   5.506   8.137   4.967  1.3433  1.0006 -0.4993
  217MOL0     C29216   5.476   8.091   5.098 -0.3650  1.0232  0.3068
  217MOL0     C29217   5.502   8.169   5.212 -0.2232  0.5281 -0.5042
  217MOL0     O29218   5.478   8.112   5.340 -0.6595 -0.2258  1.0994
  217MOL0     C29219   5.502   8.176   5.468  0.4902 -0.2424  0.0950
  217MOL0     C29220   5.657   8.185   5.499 -0.3205  0.5217 -1.3618
  217MOL0     C29221   5.728   8.048   5.474 -0.6615  0.3402 -0.1497
  217MOL0     C29222   5.862   8.043   5.539  0.2100 -0.0015  0.3649
  217MOL0     C29223   5.955   7.970   5.448 -0.0758 -0.0169 -1.5274
  217MOL0     C29224   6.019   7.907   5.367 -0.1503  0.1554 -0.5384
  217MOL0     C29225   5.569   8.294   5.197 -0.9423 -0.4418  0.0220
  217MOL0     C29226   5.600   8.344   5.063  0.5401 -0.7133 -0.0013
  217MOL0     C29227   5.660   8.479   5.039 -1.0671  0.6567  0.3370
  217MOL0     H29228   5.507   8.568   4.580  2.5177 -0.2975  1.3299
  217MOL0     H29229   5.504   8.567   4.329  1.5417 -1.0913 -3.0785
  217MOL0     H29230   5.621   8.484   4.048  1.3184 -0.4203 -0.2594
  217MOL0     H29231   5.708   8.486   4.210 -0.8536 -0.1980 -0.6908
  217MOL0     H29232   5.845   8.410   4.015 -0.0588  0.6170 -0.6052
  217MOL0     H29233   5.723   8.286   3.992 -1.2252  3.1295 -1.3391
  217MOL0     H29234   5.828   8.312   4.277 -2.7249  2.5555  0.1274
  217MOL0     H29235   5.945   8.280   4.158  0.4881  1.2379  1.8825
  217MOL0     H29236   5.701   8.106   4.194  0.1528  0.9008  1.4651
  217MOL0     H29237   5.843   8.073   4.081  2.4719  3.4934 -0.8802
  217MOL0     H29238   5.892   7.929   4.251  0.3877  1.0372 -1.3295
  217MOL0     H29239   5.990   8.074   4.288  1.2568 -1.5432  1.1016
  217MOL0     H29240   5.799   8.156   4.444  0.5088  0.4497  0.2500
  217MOL0     H29241   5.722   7.997   4.400  0.8188  0.0608 -3.9104
  217MOL0     H29242   5.903   7.884   4.517 -3.6253 -0.7158 -0.8440
  217MOL0     H29243   5.827   8.011   4.623  2.3762 -2.8154  2.1825
  217MOL0     H29244   6.053   8.027   4.657 -1.6804  0.0990  0.7361
  217MOL0     H29245   6.089   7.986   4.491 -0.7165 -1.5143  0.2976
  217MOL0     H29246   5.885   8.291   4.635 -1.3000  2.0476 -0.4623
  217MOL0     H29247   5.873   8.534   4.587 -0.4965  1.6449 -1.1526
  217MOL0     H29248   6.031   8.572   4.670 -0.6093  0.1909  0.1062
  217MOL0     H29249   5.988   8.749   4.516 -1.2194 -0.9992 -0.2733
  217MOL0     H29250   6.110   8.653   4.441  0.8134  1.5251  4.2536
  217MOL0     H29251   5.806   8.688   4.374 -0.2031  0.6009 -1.5182
  217MOL0     H29252   5.905   8.576   4.292 -0.1179  1.5183 -1.2613
  217MOL0     H29253   6.059   8.787   4.248  0.8388  0.7505 -0.5789
  217MOL0     H29254   5.915   8.866   4.333 -3.0211  0.8721 -2.0192
  217MOL0     H29255   5.765   8.832   3.932 -0.7370  0.2505 -0.6106
  217MOL0     H29256   5.819   8.754   3.714 -0.7598  0.3528 -0.5344
  217MOL0     H29257   5.766   8.518   3.431 -0.7808 -0.0244 -1.0906
  217MOL0     H29258   5.765   8.433   3.194  0.5664  0.7716 -2.6967
  217MOL0     H29259   5.840   8.270   3.028 -3.0873 -0.0364 -0.2820
  217MOL0     H29260   5.757   8.405   2.982 -0.1027  0.6900 -1.1891
  217MOL0     H29261   5.925   8.421   2.777  1.8008 -0.9989 -0.1175
  217MOL0     H29262   5.934   8.245   2.806  1.1940  0.6071 -3.3186
  217MOL0     H29263   5.687   8.404   2.748 -0.3408  0.2126 -0.3529
  217MOL0     H29264   5.766   8.309   2.619 -0.5000 -0.3496  0.0273
  217MOL0     H29265   5.649   8.192   2.868  1.1297  2.2543 -0.3364
  217MOL0     H29266   5.696   8.108   2.725  1.5266  0.2318 -0.2245
  217MOL0     H29267   5.453   8.316   2.758 -3.0886 -0.6035 -2.5728
  217MOL0     H29268   5.450   8.137   2.744  1.9149 -0.9530  4.5943
  217MOL0     H29269   5.516   8.320   2.501  1.3813 -1.0415 -1.2167
  217MOL0     H29270   5.546   8.155   2.495  1.4316  2.0959  0.1068
  217MOL0     H29271   5.286   8.291   2.590 -0.1961  0.0963 -0.2836
  217MOL0     H29272   5.281   8.126   2.533 -0.5403  0.4282 -3.1176
  217MOL0     H29273   5.185   8.267   2.353 -0.5019 -1.7148  0.5942
  217MOL0     H29274   5.310   8.389   2.378 -2.0780 -0.3069  0.0363
  217MOL0     H29275   6.163   8.586   3.141  0.8412 -2.2075 -0.9412
  217MOL0     H29276   6.174   8.617   3.377 -0.0644  3.2338 -1.0312
  217MOL0     H29277   6.131   8.515   3.910  0.3922 -0.7491 -0.7667
  217MOL0     H29278   6.069   8.631   4.124 -1.4679  1.1990  2.0207
  217MOL0     H29279   5.528   8.152   4.326  2.8625  1.3388 -1.0096
  217MOL0     H29280   5.519   8.139   4.580  1.3417  0.0193 -2.1293
  217MOL0     H29281   5.479   8.083   4.877 -0.8970  2.2729 -0.6600
  217MOL0     H29282   5.443   7.988   5.108 -1.4363  1.6064  4.9826
  217MOL0     H29283   5.454   8.114   5.545 -0.1838 -1.1288 -0.9993
  217MOL0     H29284   5.451   8.272   5.482  2.9337  0.7012  4.2319
  217MOL0     H29285   5.658   8.199   5.607  0.7359  1.7912 -1.5078
  217MOL0     H29286   5.703   8.267   5.443 -4.5088  1.8451 -3.3450
  217MOL0     H29287   5.737   8.038   5.366 -1.2498  1.3033 -0.3049
  217MOL0     H29288   5.669   7.967   5.519 -0.8573 -1.1849 -2.9808
  217MOL0     H29289   5.900   8.137   5.580  0.1236 -1.1415  3.3012
  217MOL0     H29290   5.862   7.976   5.625  1.3173 -0.0626  0.3274
  217MOL0     H29291   6.069   7.848   5.292 -0.3888 -0.7045 -0.0314
  217MOL0     H29292   5.594   8.348   5.288 -0.3950  0.5286 -0.6869
  217MOL0     H29293   5.765   8.488   5.071 -1.2942  2.2978  0.7043
  217MOL0     H29294   5.648   8.533   4.945  2.3600  0.1893 -0.5296
  217MOL0     H29295   5.604   8.536   5.113  0.4208 -0.0115  2.0517
  218MOL0     O29296   3.656   5.879   6.112 -0.3538 -0.0989 -0.2441
  218MOL0     C29297   3.741   5.918   6.188 -0.3035 -0.1498  0.4163
  218MOL0     O29298   3.815   5.832   6.264 -0.4504 -0.3741  0.2844
  218MOL0     C29299   3.837   5.697   6.228  0.7888  0.1834 -0.0907
  218MOL0     C29300   3.876   5.599   6.326 -0.4580  0.4067 -0.3135
  218MOL0     C29301   3.923   5.476   6.293 -0.0705  0.7462  0.0827
  218MOL0     C29302   3.923   5.429   6.167 -0.1745 -1.1630  0.5383
  218MOL0     O29303   3.972   5.305   6.133  0.0171 -0.0713 -0.6498
  218MOL0     C29304   3.881   5.202   6.175  0.1163  0.1915  0.0671
  218MOL0     C29305   3.968   5.079   6.185  0.2084 -0.1599 -0.2054
  218MOL0     C29306   4.072   5.082   6.300  0.6171 -0.3048 -0.7348
  218MOL0     C29307   4.146   4.945   6.297  0.4366  0.1862 -0.2422
  218MOL0     C29308   4.239   4.950   6.417  0.8842  0.8279 -0.5164
  218MOL0     C29309   4.282   4.814   6.454 -0.6801  0.2665 -0.5131
  218MOL0     C29310   4.419   4.821   6.537 -0.0821 -0.2540 -0.2487
  218MOL0     C29311   4.541   4.839   6.451 -0.3912  1.2548  0.9826
  218MOL0     N29312   4.568   4.718   6.375 -0.5433  0.0620  0.8491
  218MOL0     C29313   4.640   4.708   6.252 -0.3119  0.5493 -0.3983
  218MOL0     C29314   4.647   4.582   6.211  0.1679  0.4274  0.2140
  218MOL0     C29315   4.739   4.525   6.095  0.6273 -0.2314 -0.1269
  218MOL0     C29316   4.820   4.409   6.139  0.0962  0.0393 -0.0371
  218MOL0     C29317   4.801   4.273   6.070 -0.4715  0.1174  0.1399
  218MOL0     C29318   4.661   4.214   6.095  0.7686 -0.2432 -0.2268
  218MOL0     O29319   4.657   4.079   6.029  0.5197 -1.0160  0.2127
  218MOL0     C29320   4.544   4.039   5.962  0.7457 -0.0730  0.6453
  218MOL0     C29321   4.553   3.957   5.854  0.4375  0.9652  0.4572
  218MOL0     C29322   4.438   3.898   5.790 -0.3612  0.5533 -0.8321
  218MOL0     C29323   4.313   3.922   5.833 -0.3378  0.2765  0.7864
  218MOL0     C29324   4.198   3.865   5.767 -0.1845 -0.0223 -0.3923
  218MOL0     O29325   4.084   3.857   5.848 -0.3536  1.2835  0.1617
  218MOL0     C29326   3.968   3.803   5.792 -0.7389  0.8853 -0.6554
  218MOL0     C29327   3.858   3.885   5.806  0.0567  0.3098 -1.0590
  218MOL0     C29328   3.737   3.841   5.757  0.3017  0.4626  0.4201
  218MOL0     C29329   3.720   3.725   5.684 -0.1340 -0.9323  0.6232
  218MOL0     O29330   3.607   3.674   5.637 -0.5175 -0.3915  0.7254
  218MOL0     C29331   3.503   3.762   5.588 -0.8334  0.4138  0.6660
  218MOL0     C29332   3.389   3.671   5.540  0.0256  0.2397 -1.1459
  218MOL0     C29333   3.435   3.599   5.408  0.4025 -0.3069  0.1575
  218MOL0     C29334   3.565   3.622   5.327 -0.4179  0.1672 -0.8162
  218MOL0     C29335   3.594   3.501   5.230  0.9279 -0.1685 -0.2724
  218MOL0     C29336   3.736   3.511   5.169 -0.1353 -0.4934  0.2169
  218MOL0     C29337   3.750   3.422   5.040 -0.4744  0.3829 -1.6800
  218MOL0     C29338   3.753   3.273   5.062  0.3643  0.1595 -0.5486
  218MOL0    Cl29339   3.741   3.172   4.907  0.6343 -0.0118  0.2949
  218MOL0     C29340   3.834   3.643   5.655  0.1713  0.2174 -0.2546
  218MOL0     C29341   3.955   3.677   5.726 -0.0296 -0.1448 -0.1055
  218MOL0     O29342   4.205   3.836   5.651 -0.0110 -0.4131  0.5872
  218MOL0     C29343   4.301   4.013   5.940  0.7489  0.3058  0.5837
  218MOL0     C29344   4.407   4.067   6.004  0.1757  0.1669 -0.9215
  218MOL0     N29345   4.563   4.510   6.299 -0.4780  0.1399  0.1842
  218MOL0     N29346   4.514   4.589   6.384  0.6334 -0.0726  0.9090
  218MOL0     C29347   3.885   5.517   6.061  0.5560 -0.6836 -0.9734
  218MOL0     C29348   3.852   5.648   6.092 -0.1730  0.0363 -0.6693
  218MOL0     C29349   3.774   6.061   6.200  0.3781 -0.5305 -0.0210
  218MOL0     C29350   3.669   6.158   6.203 -0.0415  0.4950  0.0898
  218MOL0     C29351   3.701   6.293   6.214 -1.1008 -0.1677  0.1989
  218MOL0     C29352   3.838   6.331   6.213 -0.2463 -0.1198  0.7529
  218MOL0     O29353   3.890   6.460   6.208 -0.4501  0.2621  0.7538
  218MOL0     C29354   3.812   6.569   6.154 -0.9872 -0.8405  0.3667
  218MOL0     C29355   3.901   6.693   6.134  0.4722  0.5739 -0.5030
  218MOL0     C29356   3.975   6.745   6.266  0.3113  0.0883  0.1138
  218MOL0     C29357   4.131   6.711   6.276  0.6010 -0.0482  0.1773
  218MOL0     C29358   4.201   6.833   6.313  0.1013  0.1707  1.0805
  218MOL0     C29359   4.254   6.939   6.326  1.3157 -0.2767  0.6798
  218MOL0     C29360   3.936   6.235   6.205 -0.1023  0.1724 -0.3503
  218MOL0     C29361   3.910   6.104   6.204  0.5087  0.1541  0.3963
  218MOL0     C29362   4.029   6.014   6.193 -0.6148  0.3906 -0.3901
  218MOL0     H29363   3.877   5.632   6.429  1.0484 -1.3068  0.2714
  218MOL0     H29364   3.942   5.414   6.380 -0.1001  1.4909  0.6353
  218MOL0     H29365   3.836   5.219   6.274 -0.7065 -2.4059  0.2028
  218MOL0     H29366   3.802   5.186   6.101  0.4680 -1.0476 -0.0570
  218MOL0     H29367   4.027   5.071   6.093  3.4240 -0.1899  1.7228
  218MOL0     H29368   3.908   4.987   6.188  1.4996 -1.6750 -6.2264
  218MOL0     H29369   4.022   5.100   6.396 -0.3268 -1.4882 -0.9716
  218MOL0     H29370   4.151   5.155   6.281  0.7173  0.6283  2.6616
  218MOL0     H29371   4.077   4.859   6.301  0.9830 -0.3209 -1.2674
  218MOL0     H29372   4.202   4.955   6.204  0.4728  1.4234 -0.1062
  218MOL0     H29373   4.326   5.008   6.384  3.3881 -3.1950 -1.8567
  218MOL0     H29374   4.198   4.985   6.512  1.0668 -4.5269  1.8937
  218MOL0     H29375   4.203   4.781   6.521  0.3723 -0.1751  0.5447
  218MOL0     H29376   4.288   4.748   6.367  2.0101  0.0280 -0.2387
  218MOL0     H29377   4.424   4.737   6.607  0.3210 -0.6304 -0.7324
  218MOL0     H29378   4.413   4.911   6.599 -2.3684 -0.2487 -0.3900
  218MOL0     H29379   4.540   4.925   6.384  0.3527 -0.0721 -0.7912
  218MOL0     H29380   4.622   4.857   6.523  2.0923  2.4475 -1.8989
  218MOL0     H29381   4.690   4.793   6.208 -2.3265  3.8107  2.9697
  218MOL0     H29382   4.691   4.484   6.006  0.5002 -2.3647  0.8729
  218MOL0     H29383   4.809   4.606   6.069  2.3504 -0.9642  1.8719
  218MOL0     H29384   4.926   4.430   6.124  0.1694 -0.9604 -1.0418
  218MOL0     H29385   4.808   4.392   6.246 -1.7158 -1.5152 -0.4364
  218MOL0     H29386   4.865   4.195   6.113 -2.1496 -1.3489  0.0830
  218MOL0     H29387   4.823   4.279   5.963 -1.2196  2.8773  0.0772
  218MOL0     H29388   4.594   4.296   6.067  0.8748  0.5374  1.6534
  218MOL0     H29389   4.648   4.196   6.202 -1.1723 -1.4497 -0.6265
  218MOL0     H29390   4.653   3.926   5.823 -0.6892 -0.8261 -1.6959
  218MOL0     H29391   4.474   3.833   5.711  0.6299 -1.6174  1.2612
  218MOL0     H29392   3.858   3.976   5.865  0.6741  1.0215 -2.1290
  218MOL0     H29393   3.645   3.897   5.774 -0.5107 -1.1203  1.4347
  218MOL0     H29394   3.467   3.835   5.662 -2.0559 -0.4400  0.9396
  218MOL0     H29395   3.541   3.813   5.499 -1.4988 -1.6464 -0.8828
  218MOL0     H29396   3.371   3.600   5.621  3.7565  0.1087 -0.2729
  218MOL0     H29397   3.303   3.738   5.524 -0.9102 -0.5037  0.4807
  218MOL0     H29398   3.439   3.494   5.438  1.0385  0.2993  2.3500
  218MOL0     H29399   3.346   3.601   5.345  0.6119 -2.6021 -0.3077
  218MOL0     H29400   3.648   3.642   5.394 -1.7725  1.3279  0.5911
  218MOL0     H29401   3.540   3.711   5.268  0.2525  0.5092 -0.5902
  218MOL0     H29402   3.520   3.494   5.149  1.3372  0.4989 -0.7155
  218MOL0     H29403   3.580   3.403   5.277 -0.7473 -0.4203 -1.2274
  218MOL0     H29404   3.754   3.615   5.140 -1.1426 -0.0310  1.2064
  218MOL0     H29405   3.806   3.476   5.245 -1.7651  0.5536  2.2776
  218MOL0     H29406   3.843   3.454   4.993  1.4107  2.9788  3.1006
  218MOL0     H29407   3.670   3.437   4.967 -0.7567  3.2075 -0.9236
  218MOL0     H29408   3.851   3.248   5.105  1.1217 -0.2350 -2.4355
  218MOL0     H29409   3.673   3.249   5.133  1.5542 -2.9803 -0.1370
  218MOL0     H29410   3.823   3.547   5.605  0.6770 -1.2892  2.3745
  218MOL0     H29411   4.042   3.616   5.701 -0.8926 -1.5002  0.1210
  218MOL0     H29412   4.203   4.043   5.977  0.2013  0.5511 -0.9666
  218MOL0     H29413   4.387   4.137   6.084  1.4737  0.9367 -1.2402
  218MOL0     H29414   3.894   5.485   5.958 -5.1959 -2.6275 -1.2480
  218MOL0     H29415   3.835   5.715   6.009 -1.9019 -0.7627 -1.0208
  218MOL0     H29416   3.564   6.129   6.205 -0.4783  1.9916 -0.1178
  218MOL0     H29417   3.620   6.365   6.215  1.8030  3.5176 -2.5327
  218MOL0     H29418   3.738   6.606   6.226  1.1102  1.9048  1.3071
  218MOL0     H29419   3.752   6.549   6.065  0.1050 -1.6491 -0.2112
  218MOL0     H29420   3.842   6.775   6.091 -3.2798 -0.9882  1.1388
  218MOL0     H29421   3.978   6.663   6.063 -0.7654  0.8295 -2.0101
  218MOL0     H29422   3.930   6.691   6.350  3.7588 -0.1813  1.9854
  218MOL0     H29423   3.963   6.853   6.268  1.0361  0.1970 -0.8786
  218MOL0     H29424   4.131   6.622   6.339 -3.6926 -2.0875 -2.2320
  218MOL0     H29425   4.177   6.688   6.180 -0.6317  4.3218 -1.7135
  218MOL0     H29426   4.291   7.040   6.324 -3.3933  1.7139 -0.1744
  218MOL0     H29427   4.035   6.278   6.197  1.3445 -2.1622  2.8730
  218MOL0     H29428   4.065   5.975   6.289  3.8468  1.2145 -1.5235
  218MOL0     H29429   4.006   5.938   6.118  0.3261  1.4019 -1.7321
  218MOL0     H29430   4.114   6.074   6.162  0.2242  0.2148  1.4515
  219MOL0     O29431   0.956   7.850   7.715 -0.5245 -0.3403 -0.6844
  219MOL0     C29432   0.929   7.934   7.624  1.1961 -0.5774 -0.8624
  219MOL0     O29433   0.947   8.060   7.637 -0.2678 -0.2621  0.8040
  219MOL0     C29434   1.047   8.108   7.729 -0.0538  0.1100  0.1540
  219MOL0     C29435   1.012   8.149   7.861 -0.3426  0.7476  0.7677
  219MOL0     C29436   1.106   8.191   7.957 -0.2264 -0.5281 -0.1758
  219MOL0     C29437   1.238   8.198   7.918 -0.3924  0.0854 -0.0589
  219MOL0     O29438   1.327   8.257   8.011 -0.7016 -0.1431  0.0540
  219MOL0     C29439   1.347   8.176   8.122  0.3469  0.2467 -0.1040
  219MOL0     C29440   1.417   8.246   8.233 -0.1736 -0.7132 -0.1717
  219MOL0     C29441   1.424   8.142   8.354 -0.6312 -0.2538  0.0974
  219MOL0     C29442   1.418   8.217   8.492 -0.0300 -1.0899 -0.4122
  219MOL0     C29443   1.475   8.135   8.611 -0.4684  0.2297  0.0577
  219MOL0     C29444   1.388   8.017   8.670  1.5722 -0.3461  0.3396
  219MOL0     C29445   1.236   8.065   8.684 -0.5460  1.2808 -0.1095
  219MOL0     C29446   1.153   7.941   8.729 -0.7506 -0.1417  0.3791
  219MOL0     N29447   1.119   7.846   8.626 -1.2681 -0.4241  0.8201
  219MOL0     C29448   1.065   7.868   8.502 -0.0191 -0.2816  0.3744
  219MOL0     C29449   1.056   7.749   8.442 -1.0607  0.7463  1.6929
  219MOL0     C29450   0.980   7.717   8.318 -0.7690 -0.1657  0.3747
  219MOL0     C29451   1.046   7.790   8.193  0.0951  0.1689 -1.2632
  219MOL0     C29452   0.967   7.851   8.076  0.4438 -0.7394  0.6097
  219MOL0     C29453   0.903   7.739   7.990  0.7778  0.2060  0.0543
  219MOL0     O29454   0.821   7.657   8.072  0.4778 -0.3580  0.1342
  219MOL0     C29455   0.769   7.536   8.022 -0.7969 -1.4531 -0.8493
  219MOL0     C29456   0.716   7.449   8.124  0.9356 -0.7967 -0.2539
  219MOL0     C29457   0.649   7.326   8.106 -1.4865 -0.4912 -0.7747
  219MOL0     C29458   0.647   7.290   7.976 -0.2998  0.1803 -0.2490
  219MOL0     C29459   0.582   7.158   7.961  0.1524  0.5187 -0.1155
  219MOL0     O29460   0.489   7.116   8.058 -0.0155 -0.3317 -0.1133
  219MOL0     C29461   0.430   6.989   8.074  0.8465  0.7208  0.3275
  219MOL0     C29462   0.302   6.984   8.125  0.7644  0.6737  0.3828
  219MOL0     C29463   0.238   6.864   8.148  0.0112  0.7061 -0.5658
  219MOL0     C29464   0.287   6.738   8.110  0.1587 -0.8320 -0.2905
  219MOL0     O29465   0.205   6.621   8.114  0.2367  0.0835  0.4911
  219MOL0     C29466   0.067   6.632   8.099  0.2000 -0.3331 -0.0789
  219MOL0     C29467   0.004   6.486   8.086 -0.0421  0.1126 -0.4944
  219MOL0     C29468  -0.020   6.415   8.219 -0.7156 -0.2826  0.1564
  219MOL0     C29469   0.118   6.350   8.272 -0.5684  0.0939 -1.3066
  219MOL0     C29470   0.117   6.284   8.413  0.5507  0.1380  0.2631
  219MOL0     C29471  -0.006   6.194   8.421  0.3522 -0.3429 -0.0153
  219MOL0     C29472  -0.005   6.105   8.539 -0.1622  0.1157  0.6526
  219MOL0     C29473  -0.040   6.188   8.657 -0.2259 -0.4668 -0.2190
  219MOL0    Cl29474  -0.157   6.103   8.760 -0.3997  0.0905  0.4094
  219MOL0     C29475   0.415   6.742   8.051  0.9028  0.4395  0.7715
  219MOL0     C29476   0.484   6.863   8.031  0.3151 -0.3237 -0.3104
  219MOL0     O29477   0.620   7.089   7.863  0.6163 -0.3047 -0.3839
  219MOL0     C29478   0.702   7.363   7.874  1.4168 -0.2322  0.5441
  219MOL0     C29479   0.760   7.488   7.895 -0.2822  0.3873  0.2250
  219MOL0     N29480   1.126   7.660   8.521  0.3923 -0.2459 -0.2583
  219MOL0     N29481   1.162   7.719   8.629 -0.3286 -0.7036 -0.4487
  219MOL0     C29482   1.280   8.159   7.791  0.1930 -0.5044 -0.0299
  219MOL0     C29483   1.181   8.120   7.692 -0.2215 -0.5525 -0.1779
  219MOL0     C29484   0.866   7.870   7.508 -0.1880 -1.1925 -0.0025
  219MOL0     C29485   0.912   7.755   7.460  0.1497  0.0793  0.3358
  219MOL0     C29486   0.857   7.698   7.341  0.5466 -0.3744 -0.6134
  219MOL0     C29487   0.755   7.761   7.271 -0.2560  0.4293  1.1737
  219MOL0     O29488   0.725   7.707   7.146 -0.2383  0.3801 -0.5871
  219MOL0     C29489   0.769   7.790   7.037 -0.3150  0.0847 -0.0465
  219MOL0     C29490   0.654   7.818   6.934  0.6729 -0.2166  0.3014
  219MOL0     C29491   0.522   7.837   7.005  0.3582 -0.0464  0.1635
  219MOL0     C29492   0.409   7.869   6.906  0.2175  0.0466  0.2330
  219MOL0     C29493   0.345   7.752   6.856  0.0343 -1.0210 -0.6279
  219MOL0     C29494   0.310   7.654   6.799 -0.0751  0.2082  1.0209
  219MOL0     C29495   0.710   7.884   7.321  0.3900 -0.2085 -0.1905
  219MOL0     C29496   0.768   7.938   7.441 -0.0158  0.0909  0.2960
  219MOL0     C29497   0.699   8.059   7.479  0.2482 -0.2933  0.1892
  219MOL0     H29498   0.904   8.153   7.863 -0.5515  0.1876 -2.8261
  219MOL0     H29499   1.071   8.232   8.051 -0.6371  1.5307 -1.1624
  219MOL0     H29500   1.255   8.136   8.167  1.1500  0.7191  2.1290
  219MOL0     H29501   1.409   8.091   8.092  0.8027  0.4219  0.3336
  219MOL0     H29502   1.357   8.332   8.264  0.0268 -1.2077  1.6616
  219MOL0     H29503   1.517   8.283   8.206 -1.1177  0.9872 -1.5749
  219MOL0     H29504   1.516   8.085   8.338 -0.7746 -0.1576 -1.1198
  219MOL0     H29505   1.349   8.062   8.350 -0.5580 -0.2958 -0.6153
  219MOL0     H29506   1.482   8.306   8.495  0.6880 -1.5529 -1.5218
  219MOL0     H29507   1.313   8.241   8.513  0.4454  0.8883 -0.0259
  219MOL0     H29508   1.575   8.102   8.585  0.2246  0.0785  2.6485
  219MOL0     H29509   1.493   8.216   8.683  2.9101  1.0851 -1.5836
  219MOL0     H29510   1.399   7.923   8.614 -2.1341 -0.8627  0.2159
  219MOL0     H29511   1.423   8.010   8.774 -0.2516 -4.9671  0.8890
  219MOL0     H29512   1.200   8.094   8.585  4.6685 -1.7801 -3.3713
  219MOL0     H29513   1.232   8.137   8.767  0.6045 -1.3826  2.4035
  219MOL0     H29514   1.204   7.895   8.814 -2.1665 -2.7856 -0.0749
  219MOL0     H29515   1.057   7.965   8.774 -0.4871 -1.3269  1.6661
  219MOL0     H29516   1.016   7.956   8.459 -1.8332 -2.0003 -1.2709
  219MOL0     H29517   0.974   7.609   8.304 -2.7391  0.1799 -2.4117
  219MOL0     H29518   0.877   7.753   8.319 -1.5933 -2.3879  2.1908
  219MOL0     H29519   1.090   7.882   8.233 -1.0201 -0.4639  1.6711
  219MOL0     H29520   1.126   7.726   8.154 -1.4337 -2.0435 -0.9776
  219MOL0     H29521   1.040   7.902   8.013  0.8840 -1.4201  0.5570
  219MOL0     H29522   0.896   7.921   8.121  0.7745 -0.6548  1.0047
  219MOL0     H29523   0.988   7.684   7.948  1.6200  1.9016 -0.5993
  219MOL0     H29524   0.840   7.767   7.905  1.5878 -1.0731 -1.0110
  219MOL0     H29525   0.712   7.486   8.226 -0.2760  0.8715 -0.8683
  219MOL0     H29526   0.595   7.278   8.187 -1.3497 -0.0473 -0.4189
  219MOL0     H29527   0.254   7.078   8.151 -4.2816 -1.4671 -0.1881
  219MOL0     H29528   0.140   6.860   8.193 -0.2540 -1.3931 -1.2048
  219MOL0     H29529   0.026   6.689   8.183  1.5723  0.0166  0.3779
  219MOL0     H29530   0.045   6.685   8.006 -0.6362  0.3833  0.5181
  219MOL0     H29531  -0.097   6.506   8.049 -1.2697 -2.3146  1.2330
  219MOL0     H29532   0.061   6.430   8.011  0.7125 -0.3681  0.4226
  219MOL0     H29533  -0.064   6.484   8.292 -1.1751 -0.9817  0.5510
  219MOL0     H29534  -0.092   6.334   8.205 -0.8665 -0.2466  0.7017
  219MOL0     H29535   0.200   6.419   8.251 -0.6568  0.4782 -0.4526
  219MOL0     H29536   0.122   6.266   8.202  2.0155 -0.7273 -0.2991
  219MOL0     H29537   0.118   6.365   8.486  0.0977  0.8227 -0.4660
  219MOL0     H29538   0.202   6.216   8.423 -1.4164 -2.3293  1.4317
  219MOL0     H29539  -0.097   6.254   8.411  1.5215  1.4183 -0.4588
  219MOL0     H29540  -0.028   6.126   8.338  0.3901 -0.3093 -0.0532
  219MOL0     H29541   0.098   6.068   8.543 -0.2973 -0.2187  1.1277
  219MOL0     H29542  -0.083   6.030   8.522 -0.6032  0.3376  1.5966
  219MOL0     H29543   0.052   6.218   8.709 -0.6518 -0.1910  0.3908
  219MOL0     H29544  -0.090   6.274   8.612 -1.5054 -0.9529  0.2343
  219MOL0     H29545   0.445   6.645   8.013 -1.6433 -0.7468  1.5875
  219MOL0     H29546   0.580   6.864   7.981  0.3080 -0.1226 -0.3184
  219MOL0     H29547   0.697   7.327   7.772 -4.6132 -1.3574  0.8579
  219MOL0     H29548   0.809   7.539   7.812 -0.0376 -0.8222 -0.3962
  219MOL0     H29549   1.388   8.159   7.784  0.3536 -0.3607  1.8978
  219MOL0     H29550   1.213   8.093   7.592 -0.4306  1.6073 -0.8789
  219MOL0     H29551   0.997   7.704   7.506 -1.2199 -2.7720 -0.0409
  219MOL0     H29552   0.896   7.609   7.293 -1.9987 -2.2279  0.5011
  219MOL0     H29553   0.846   7.738   6.978 -2.7844 -0.6203 -2.8856
  219MOL0     H29554   0.824   7.878   7.072  3.3841 -0.7950 -2.9040
  219MOL0     H29555   0.643   7.738   6.860 -1.5663 -1.6627  2.0270
  219MOL0     H29556   0.683   7.909   6.882 -3.8290  1.7438  0.7363
  219MOL0     H29557   0.539   7.906   7.088  0.1462 -3.2977  3.1131
  219MOL0     H29558   0.494   7.746   7.058  3.8347 -0.5720  1.3135
  219MOL0     H29559   0.334   7.935   6.952  2.2579  2.3518  0.4920
  219MOL0     H29560   0.441   7.929   6.821 -1.0815 -1.1008 -1.1139
  219MOL0     H29561   0.262   7.563   6.769  2.6099 -0.5506 -1.4135
  219MOL0     H29562   0.639   7.946   7.267 -0.3001 -0.0927  0.8228
  219MOL0     H29563   0.757   8.146   7.444  1.1467 -0.1473  1.9425
  219MOL0     H29564   0.596   8.073   7.445  0.1643 -0.4925  0.3644
  219MOL0     H29565   0.702   8.064   7.588 -1.4622  1.2609  0.2126
  220MOL0     O29566   6.996  10.960   0.273 -0.1219  0.6426  0.9571
  220MOL0     C29567   6.944  10.935   0.380 -1.2245  1.3432 -0.2043
  220MOL0     O29568   6.966  11.000   0.499 -0.6979  0.1333 -0.6704
  220MOL0     C29569   7.034  11.123   0.510  0.1444  0.0116 -0.5223
  220MOL0     C29570   6.992  11.229   0.602  0.0625 -0.8459  0.4012
  220MOL0     C29571   7.058  11.357   0.614 -0.0749 -0.6253 -0.6775
  220MOL0     C29572   7.171  11.380   0.540  0.1225 -0.1613 -0.0514
  220MOL0     O29573   7.222  11.502   0.564 -0.0631 -0.4303  0.1784
  220MOL0     C29574   7.369  11.499   0.543  0.4879  0.9838 -0.2455
  220MOL0     C29575   7.432  11.617   0.622  0.3439  0.3070  0.4786
  220MOL0     C29576   7.582  11.633   0.588 -0.2854 -0.0526  0.6987
  220MOL0     C29577   7.635  11.751   0.682 -0.1595 -0.1358  0.2253
  220MOL0     C29578   7.776  11.798   0.641  1.1884 -0.2202  0.0578
  220MOL0     C29579   7.819  11.929   0.701 -0.1999  0.1056  0.0257
  220MOL0     C29580   7.966  11.953   0.659  0.2581 -0.4008 -0.4727
  220MOL0     C29581   8.026  12.081   0.723  0.1111  0.4592  0.3991
  220MOL0     N29582   8.172  12.080   0.699  0.2121  0.4476 -0.1172
  220MOL0     C29583   8.270  12.036   0.787 -1.2073 -0.4859  0.7774
  220MOL0     C29584   8.376  12.003   0.713  0.7347  0.4023 -0.2071
  220MOL0     C29585   8.509  11.936   0.760  0.1160 -0.1320 -0.2097
  220MOL0     C29586   8.636  11.951   0.667 -0.5317 -0.8151  0.3383
  220MOL0     C29587   8.725  12.081   0.709  0.0140 -0.2855  0.2895
  220MOL0     C29588   8.632  12.201   0.684  0.1373 -0.7331  0.4981
  220MOL0     O29589   8.702  12.332   0.706  0.0408  0.7928 -0.8894
  220MOL0     C29590   8.631  12.452   0.732 -0.4825  0.0974  0.3934
  220MOL0     C29591   8.701  12.556   0.795  0.0038 -0.6691  0.0571
  220MOL0     C29592   8.645  12.677   0.817  0.2608 -0.1901 -0.2131
  220MOL0     C29593   8.524  12.711   0.760 -0.5708 -0.5363 -0.1687
  220MOL0     C29594   8.486  12.851   0.784  0.0311 -1.4059 -0.2909
  220MOL0     O29595   8.348  12.862   0.759  0.1463  0.7885 -0.6811
  220MOL0     C29596   8.298  12.987   0.778 -0.1308 -0.0978  0.2346
  220MOL0     C29597   8.235  13.017   0.895 -0.2672 -0.7028 -0.6019
  220MOL0     C29598   8.165  13.141   0.898 -0.0468  0.0460  0.3736
  220MOL0     C29599   8.161  13.223   0.789  0.8997  0.1736 -0.8029
  220MOL0     O29600   8.093  13.339   0.779 -0.1821 -0.5090 -0.1736
  220MOL0     C29601   8.035  13.396   0.890 -0.5803 -0.0564  0.3925
  220MOL0     C29602   7.967  13.527   0.858 -0.0762 -0.1836  0.0528
  220MOL0     C29603   8.057  13.631   0.794  0.2350 -0.0741 -0.3753
  220MOL0     C29604   7.988  13.770   0.799 -0.7739 -1.3287  0.5867
  220MOL0     C29605   7.848  13.774   0.722 -0.5293  0.6948  0.2995
  220MOL0     C29606   7.785  13.911   0.757  0.3792 -0.1508  0.4168
  220MOL0     C29607   7.640  13.917   0.690 -0.1826  0.5150 -0.5209
  220MOL0     C29608   7.591  14.049   0.710  0.2988 -0.3968 -0.1752
  220MOL0    Cl29609   7.584  14.099   0.876 -0.8495  0.4981  0.0978
  220MOL0     C29610   8.223  13.191   0.676 -0.3296  0.6357 -0.5810
  220MOL0     C29611   8.279  13.066   0.658  0.1640  0.4802 -0.5164
  220MOL0     O29612   8.560  12.939   0.838 -0.9037 -0.0824 -0.0110
  220MOL0     C29613   8.447  12.613   0.702  1.1145 -0.0546  0.5215
  220MOL0     C29614   8.499  12.480   0.694 -0.0437  1.2723  0.9489
  220MOL0     N29615   8.332  12.020   0.581 -0.4387  0.3448 -0.1994
  220MOL0     N29616   8.214  12.074   0.573  0.4407 -0.5578  0.1671
  220MOL0     C29617   7.211  11.280   0.453 -1.2827  0.1625 -0.6277
  220MOL0     C29618   7.145  11.156   0.436 -0.3830 -0.5328 -0.7989
  220MOL0     C29619   6.854  10.834   0.401  0.0346  0.2574 -0.5650
  220MOL0     C29620   6.720  10.864   0.426  1.1308  0.4672 -0.5329
  220MOL0     C29621   6.626  10.757   0.439 -0.2177 -0.3092 -0.6975
  220MOL0     C29622   6.663  10.626   0.450 -0.3996 -0.4386 -0.7490
  220MOL0     O29623   6.556  10.546   0.482 -0.4165  0.4186  0.3336
  220MOL0     C29624   6.572  10.399   0.525 -0.5784 -1.1022 -0.0160
  220MOL0     C29625   6.596  10.298   0.411  0.7005  0.0926 -0.1128
  220MOL0     C29626   6.598  10.145   0.452  0.2810 -0.6078 -0.7777
  220MOL0     C29627   6.647  10.066   0.331  0.4461  0.1462 -0.9864
  220MOL0     C29628   6.611   9.925   0.361 -0.0365  1.1374  0.2993
  220MOL0     C29629   6.586   9.806   0.397 -0.4528  0.5657 -0.8465
  220MOL0     C29630   6.800  10.597   0.434  0.2798 -0.0197  0.0112
  220MOL0     C29631   6.891  10.698   0.402  0.0584 -0.0082  0.1041
  220MOL0     C29632   7.032  10.656   0.382 -0.7145  0.1642 -0.6491
  220MOL0     H29633   6.905  11.217   0.666  0.6050 -1.9138  0.9539
  220MOL0     H29634   7.027  11.438   0.678 -2.0395 -0.2109 -2.0480
  220MOL0     H29635   7.421  11.410   0.578 -0.2616  1.6963  2.9523
  220MOL0     H29636   7.400  11.514   0.439  3.1211 -2.8020 -0.1954
  220MOL0     H29637   7.414  11.615   0.729 -2.0124  1.6329  0.1743
  220MOL0     H29638   7.380  11.708   0.588 -1.6604 -1.9460 -3.1454
  220MOL0     H29639   7.597  11.652   0.482  0.9088  2.1427  1.2199
  220MOL0     H29640   7.629  11.537   0.612  0.9113  0.9248  2.4205
  220MOL0     H29641   7.568  11.837   0.694  1.0928  0.6710  1.7295
  220MOL0     H29642   7.654  11.708   0.780  0.2822  1.5237  0.9030
  220MOL0     H29643   7.851  11.720   0.655  0.0386 -1.3101  0.2952
  220MOL0     H29644   7.766  11.805   0.532 -4.2266 -3.2958 -0.0156
  220MOL0     H29645   7.751  11.997   0.648 -1.3188 -1.8997 -1.2158
  220MOL0     H29646   7.799  11.926   0.809 -0.7719 -0.9284 -0.0956
  220MOL0     H29647   7.977  11.966   0.550  1.5960  0.2406 -0.2923
  220MOL0     H29648   8.038  11.875   0.683 -2.0044 -1.9330  1.7268
  220MOL0     H29649   7.983  12.172   0.680  1.2236 -0.5490 -3.1500
  220MOL0     H29650   8.007  12.076   0.831 -0.1676  2.1171  0.4532
  220MOL0     H29651   8.258  12.024   0.894  1.8970 -0.7010  1.2014
  220MOL0     H29652   8.530  11.975   0.860  3.7939  1.1675 -1.3139
  220MOL0     H29653   8.495  11.828   0.767 -0.4283 -0.1992 -1.7863
  220MOL0     H29654   8.687  11.856   0.690 -0.5678 -0.7039  0.9072
  220MOL0     H29655   8.611  11.949   0.561  1.5683  1.0071 -0.2684
  220MOL0     H29656   8.821  12.092   0.658  1.7036 -1.4350  3.0341
  220MOL0     H29657   8.755  12.082   0.814  1.2748 -0.7319 -0.0435
  220MOL0     H29658   8.544  12.192   0.748 -0.3685  3.1987  0.5453
  220MOL0     H29659   8.593  12.209   0.582 -3.5984 -1.7986  1.6782
  220MOL0     H29660   8.804  12.540   0.827  0.5466  0.0171 -1.2751
  220MOL0     H29661   8.697  12.749   0.879 -0.4554  0.3080 -0.1857
  220MOL0     H29662   8.243  12.966   0.991  0.3829 -0.1318 -0.3401
  220MOL0     H29663   8.128  13.173   0.995 -0.3159  1.9280 -0.2870
  220MOL0     H29664   7.952  13.330   0.918 -1.6362  0.4940 -1.3293
  220MOL0     H29665   8.103  13.411   0.975  2.2360 -0.6656 -1.6364
  220MOL0     H29666   7.887  13.514   0.785  1.1113  4.9744 -2.6279
  220MOL0     H29667   7.919  13.571   0.946 -4.6113 -0.2077 -2.1181
  220MOL0     H29668   8.153  13.638   0.847  1.0056 -2.3404 -1.3550
  220MOL0     H29669   8.075  13.605   0.689 -0.8108  3.4023 -1.5518
  220MOL0     H29670   8.048  13.838   0.737 -1.3977  1.1978  2.5994
  220MOL0     H29671   7.978  13.807   0.901 -3.3508 -0.8534  0.2516
  220MOL0     H29672   7.786  13.694   0.764  1.0079 -0.7638 -0.0603
  220MOL0     H29673   7.858  13.763   0.614 -0.8578 -1.4931  0.4357
  220MOL0     H29674   7.777  13.923   0.866  1.8450  1.9293  0.3635
  220MOL0     H29675   7.857  13.984   0.719 -0.7613 -0.5701 -2.8732
  220MOL0     H29676   7.575  13.838   0.729  2.1735 -2.5060 -2.2746
  220MOL0     H29677   7.656  13.896   0.583 -2.8558  1.4121 -1.1854
  220MOL0     H29678   7.647  14.128   0.659  1.9666  0.3278  2.5547
  220MOL0     H29679   7.488  14.049   0.674  0.2364  0.0165 -0.0027
  220MOL0     H29680   8.220  13.251   0.585  4.8713  0.8811 -0.8824
  220MOL0     H29681   8.323  13.017   0.571 -2.0097 -2.3709 -0.1540
  220MOL0     H29682   8.349  12.617   0.656  2.5138 -0.8167 -2.8082
  220MOL0     H29683   8.448  12.402   0.639  0.2201  0.6016  1.6443
  220MOL0     H29684   7.296  11.291   0.386 -1.6745 -0.8788 -1.3223
  220MOL0     H29685   7.186  11.085   0.365  0.4968 -0.4779 -0.3662
  220MOL0     H29686   6.670  10.960   0.438 -0.7443 -0.5545  0.2432
  220MOL0     H29687   6.525  10.782   0.468 -0.1559  0.1488 -0.8669
  220MOL0     H29688   6.478  10.371   0.575 -0.0986  0.0634  1.6270
  220MOL0     H29689   6.648  10.396   0.604  1.1001  2.0818 -1.3426
  220MOL0     H29690   6.694  10.324   0.368  2.0984 -1.2659  2.0738
  220MOL0     H29691   6.525  10.307   0.328  1.6781 -2.6940 -1.3729
  220MOL0     H29692   6.496  10.120   0.483  1.8141 -2.2700  3.7404
  220MOL0     H29693   6.661  10.123   0.539 -1.1147 -1.1357  0.1303
  220MOL0     H29694   6.603  10.104   0.238  1.3979 -1.6414 -2.2376
  220MOL0     H29695   6.757  10.073   0.331  0.6011 -0.7764  2.1855
  220MOL0     H29696   6.568   9.708   0.436  2.9079  0.0568 -0.3085
  220MOL0     H29697   6.825  10.491   0.432 -1.2567 -0.4055 -1.9993
  220MOL0     H29698   7.065  10.568   0.439  2.0564  0.4157 -1.6766
  220MOL0     H29699   7.053  10.645   0.276 -0.0692 -2.2241 -0.3385
  220MOL0     H29700   7.101  10.738   0.407  1.7201 -1.5253 -1.3923
  221MOL0     O29701   2.302   6.991  10.270  0.2169  0.1803 -0.1229
  221MOL0     C29702   2.199   6.939  10.230 -0.6643 -0.5771 -0.0029
  221MOL0     O29703   2.109   6.880  10.314 -0.4259 -0.4717  0.6599
  221MOL0     C29704   2.106   6.883  10.448  0.1535 -0.1642 -0.4372
  221MOL0     C29705   2.149   6.995  10.527 -0.2472  0.3912 -0.6782
  221MOL0     C29706   2.160   6.978  10.664  0.5642  0.4828 -0.7778
  221MOL0     C29707   2.116   6.866  10.732  0.9099 -0.0264 -0.1202
  221MOL0     O29708   2.135   6.872  10.870 -0.8400  0.2664  0.5686
  221MOL0     C29709   2.149   6.751  10.950  0.2281 -1.0194 -0.0056
  221MOL0     C29710   2.167   6.788  11.099  0.4123 -0.2047  0.7915
  221MOL0     C29711   2.299   6.851  11.117 -0.8809 -0.1536  0.3695
  221MOL0     C29712   2.313   6.946  11.242  0.8823  0.8022 -0.1550
  221MOL0     C29713   2.470   6.962  11.263  1.1165 -0.2758  0.6262
  221MOL0     C29714   2.496   7.043  11.395  0.8308  0.5883 -0.1350
  221MOL0     C29715   2.430   6.993  11.526  0.2551 -0.0706  0.3859
  221MOL0     C29716   2.532   6.996  11.647  0.6036 -0.9053 -0.9081
  221MOL0     N29717   2.481   6.921  11.763  0.0478 -0.1631 -1.2416
  221MOL0     C29718   2.362   6.947  11.824 -0.2368 -0.3078 -0.0636
  221MOL0     C29719   2.345   6.867  11.931  0.5245  0.2879  0.0340
  221MOL0     C29720   2.234   6.867  12.038  0.9108  0.3791  0.0182
  221MOL0     C29721   2.222   6.994  12.131 -0.2904 -0.5544 -0.5620
  221MOL0     C29722   2.292   6.978  12.270  0.2704  0.7730 -0.7796
  221MOL0     C29723   2.224   7.047  12.386 -0.9037  0.1339  0.1312
  221MOL0     O29724   2.090   7.007  12.410 -0.7269  0.0504  0.3999
  221MOL0     C29725   2.018   7.056  12.517 -1.1402 -0.2343  0.6056
  221MOL0     C29726   1.878   7.030  12.522 -0.0665 -0.5031  0.6464
  221MOL0     C29727   1.800   7.067  12.637 -0.6434 -0.0614 -0.7204
  221MOL0     C29728   1.863   7.135  12.739 -0.7022 -0.1505 -0.0471
  221MOL0     C29729   1.782   7.185  12.863 -0.9346  0.1894 -0.4895
  221MOL0     O29730   1.677   7.108  12.912  0.8966 -0.2868  0.5056
  221MOL0     C29731   1.595   7.161  13.014 -0.6332  0.0263  0.6762
  221MOL0     C29732   1.567   7.300  13.042 -1.0760  0.3921 -0.1625
  221MOL0     C29733   1.478   7.346  13.136 -0.1143 -0.5001 -0.3667
  221MOL0     C29734   1.397   7.258  13.211  0.7072  0.3766  0.5757
  221MOL0     O29735   1.293   7.287  13.300 -0.4993 -0.2294  0.0238
  221MOL0     C29736   1.343   7.261  13.436  0.5269 -0.3808  0.4409
  221MOL0     C29737   1.220   7.305  13.533  0.5310 -0.3843 -0.3181
  221MOL0     C29738   1.209   7.227  13.662  0.3997  0.1116  0.0839
  221MOL0     C29739   1.114   7.274  13.775  0.1818  0.1117  0.2395
  221MOL0     C29740   1.089   7.168  13.884 -0.4661 -0.6746  0.1209
  221MOL0     C29741   1.224   7.125  13.945  0.9597 -0.2010 -0.2490
  221MOL0     C29742   1.264   7.234  14.052  0.3161 -0.0811 -0.2689
  221MOL0     C29743   1.331   7.176  14.172  0.9319  0.4571  0.1796
  221MOL0    Cl29744   1.472   7.078  14.130 -0.0836 -0.0439  0.0826
  221MOL0     C29745   1.413   7.128  13.175  0.2323 -1.0172  0.2343
  221MOL0     C29746   1.508   7.074  13.083 -0.6163 -0.2560  0.3453
  221MOL0     O29747   1.826   7.286  12.921 -0.4257  0.9160 -0.3134
  221MOL0     C29748   1.999   7.164  12.740  0.3426 -0.0111 -0.3458
  221MOL0     C29749   2.076   7.104  12.633 -0.2096  0.2051 -0.8260
  221MOL0     N29750   2.452   6.785  11.931 -0.3455 -0.1346 -0.0315
  221MOL0     N29751   2.527   6.805  11.823 -0.8461  0.4808 -1.0082
  221MOL0     C29752   2.059   6.763  10.657  0.6676  0.4889  0.4922
  221MOL0     C29753   2.063   6.768  10.521 -0.2974 -0.1503  0.1178
  221MOL0     C29754   2.185   6.921  10.079  0.3706 -0.0278  0.1450
  221MOL0     C29755   2.173   6.785  10.030 -0.1265 -0.8532 -1.0177
  221MOL0     C29756   2.170   6.757   9.895 -0.9017 -0.2144 -0.9473
  221MOL0     C29757   2.168   6.857   9.804 -0.0168 -0.8814 -0.8280
  221MOL0     O29758   2.175   6.837   9.668 -0.1112  0.0914  0.0397
  221MOL0     C29759   2.104   6.727   9.606 -0.1078  0.5319 -0.4611
  221MOL0     C29760   2.025   6.768   9.477  0.3494  0.0851  0.1145
  221MOL0     C29761   1.882   6.819   9.508 -0.7106  0.6655 -0.1642
  221MOL0     C29762   1.788   6.830   9.389 -0.2521 -0.4239 -0.0544
  221MOL0     C29763   1.659   6.840   9.449 -0.7003  0.2776 -0.0852
  221MOL0     C29764   1.546   6.857   9.479  0.3307 -0.3630  0.3325
  221MOL0     C29765   2.177   6.985   9.850  0.9303  0.3516  0.5753
  221MOL0     C29766   2.171   7.023   9.984  1.1504  0.3945  1.0465
  221MOL0     C29767   2.162   7.167  10.026 -0.1224  0.9073 -0.1364
  221MOL0     H29768   2.167   7.089  10.476 -3.8689  1.9444  0.5498
  221MOL0     H29769   2.189   7.062  10.727  1.1524  0.0362 -0.4405
  221MOL0     H29770   2.060   6.690  10.930 -0.4722  0.6812 -2.5182
  221MOL0     H29771   2.236   6.691  10.923  1.4307 -0.0297  1.5242
  221MOL0     H29772   2.149   6.716  11.180 -1.9321  0.6698  1.1183
  221MOL0     H29773   2.077   6.846  11.122 -0.8822 -0.9588 -1.9757
  221MOL0     H29774   2.316   6.905  11.024  0.4120  2.6859  2.0920
  221MOL0     H29775   2.377   6.775  11.124  0.1672  0.5768 -2.4082
  221MOL0     H29776   2.263   7.041  11.218 -1.3158 -0.1670  0.3634
  221MOL0     H29777   2.271   6.883  11.320 -0.7529 -0.5172 -1.9959
  221MOL0     H29778   2.520   6.866  11.274  2.3602  0.5937  3.5481
  221MOL0     H29779   2.496   7.016  11.171 -2.7469  0.1175 -0.3859
  221MOL0     H29780   2.604   7.060  11.397  0.9899 -0.1886  3.3368
  221MOL0     H29781   2.448   7.136  11.363 -0.7619 -0.4763 -0.9506
  221MOL0     H29782   2.385   6.894  11.509  0.8146 -0.2498 -0.0912
  221MOL0     H29783   2.351   7.062  11.556  1.9943  2.0322  0.3375
  221MOL0     H29784   2.625   6.949  11.615  1.1008  0.2109 -1.1548
  221MOL0     H29785   2.548   7.101  11.673  0.5161 -1.1677  0.2614
  221MOL0     H29786   2.295   7.029  11.800  1.2357  1.2101  0.7122
  221MOL0     H29787   2.140   6.858  11.983 -0.6907  1.7819  2.3304
  221MOL0     H29788   2.237   6.781  12.105  0.4467  0.6754  0.4282
  221MOL0     H29789   2.274   7.074  12.077  0.3144  0.9370  2.0195
  221MOL0     H29790   2.119   7.027  12.147 -0.0558  0.1685 -0.4857
  221MOL0     H29791   2.394   7.016  12.262  0.6697 -0.2660 -0.7157
  221MOL0     H29792   2.301   6.875  12.305 -1.1875  0.5613 -0.9588
  221MOL0     H29793   2.243   7.154  12.376  1.0102 -0.3212 -1.9643
  221MOL0     H29794   2.277   7.006  12.473 -1.7436  2.0712  1.6445
  221MOL0     H29795   1.839   6.971  12.439  3.1046  0.3475 -1.6530
  221MOL0     H29796   1.692   7.057  12.637 -0.7942  0.8373 -3.1459
  221MOL0     H29797   1.623   7.380  12.995  4.0708 -2.3735  0.5075
  221MOL0     H29798   1.463   7.451  13.160 -1.7340 -1.0904  1.4406
  221MOL0     H29799   1.353   7.152  13.443 -1.4408 -0.5297  1.7238
  221MOL0     H29800   1.436   7.312  13.463  0.8740  0.0891 -1.5054
  221MOL0     H29801   1.232   7.413  13.549 -4.0279 -0.1212  3.3674
  221MOL0     H29802   1.129   7.289  13.475  1.4561  0.0225 -1.9518
  221MOL0     H29803   1.182   7.128  13.623 -1.5282  1.5304 -2.5826
  221MOL0     H29804   1.311   7.215  13.699  0.6104 -3.6208 -1.2619
  221MOL0     H29805   1.014   7.295  13.735 -0.9891 -1.1441  2.3306
  221MOL0     H29806   1.151   7.371  13.810 -1.6941  0.2419  2.0018
  221MOL0     H29807   1.045   7.076  13.844 -3.6979  0.2995  1.1717
  221MOL0     H29808   1.019   7.200  13.961 -0.5495 -0.8693  0.1270
  221MOL0     H29809   1.203   7.031  13.997  0.0468  1.3444  2.3874
  221MOL0     H29810   1.302   7.098  13.874 -1.1534 -0.5017 -2.6353
  221MOL0     H29811   1.182   7.299  14.083  1.4840  1.3833 -0.1680
  221MOL0     H29812   1.336   7.300  14.004 -0.9027  3.0855  1.9090
  221MOL0     H29813   1.359   7.262  14.233 -0.5952  1.4474 -0.4605
  221MOL0     H29814   1.262   7.118  14.234 -1.2091  0.9526 -1.6069
  221MOL0     H29815   1.340   7.063  13.221 -0.3651  1.0184  2.3270
  221MOL0     H29816   1.523   6.969  13.061  1.4389  0.5337 -2.5383
  221MOL0     H29817   2.036   7.213  12.829 -2.2442  1.4791 -0.0083
  221MOL0     H29818   2.183   7.091  12.649 -0.7529 -2.4567  1.4501
  221MOL0     H29819   2.021   6.670  10.699 -1.1175  0.1731 -1.6020
  221MOL0     H29820   2.030   6.686  10.459  0.3617  1.2049 -2.1452
  221MOL0     H29821   2.188   6.703  10.100 -2.1117 -1.2703 -0.9992
  221MOL0     H29822   2.158   6.652   9.872 -1.1268 -1.0010  2.2826
  221MOL0     H29823   2.042   6.687   9.686 -0.6005  1.1844 -0.5098
  221MOL0     H29824   2.179   6.652   9.579 -0.1769  0.1056  0.5191
  221MOL0     H29825   2.014   6.682   9.411 -3.2169  1.5471 -1.4599
  221MOL0     H29826   2.087   6.847   9.433  1.0777 -1.5847 -1.9864
  221MOL0     H29827   1.885   6.917   9.557 -1.8772  1.2157 -1.1483
  221MOL0     H29828   1.851   6.741   9.578 -0.6734 -3.4335 -4.2209
  221MOL0     H29829   1.796   6.928   9.342  0.9848  1.0464  2.9955
  221MOL0     H29830   1.800   6.738   9.330  0.3431 -2.0064  2.4074
  221MOL0     H29831   1.441   6.874   9.493  0.6099  0.6639  1.4033
  221MOL0     H29832   2.164   7.055   9.769 -2.4554 -1.9919 -1.1433
  221MOL0     H29833   2.260   7.193  10.068  0.5417  0.5586 -1.4177
  221MOL0     H29834   2.132   7.232   9.943 -3.3682 -2.0992 -1.5437
  221MOL0     H29835   2.091   7.174  10.108  2.1446  2.5515  1.8552
  222MOL0     O29836   4.405   7.658   1.627  0.5625 -0.0706 -0.6781
  222MOL0     C29837   4.346   7.749   1.687 -0.7805 -0.3272 -0.4266
  222MOL0     O29838   4.342   7.880   1.647 -0.2840  0.6989 -0.0779
  222MOL0     C29839   4.368   7.908   1.518 -0.6357 -0.4978 -0.3312
  222MOL0     C29840   4.264   7.961   1.446 -0.3618  0.3097 -0.0696
  222MOL0     C29841   4.274   8.003   1.312  0.6581 -0.2670  0.5234
  222MOL0     C29842   4.396   7.973   1.241 -0.9555 -0.0625  0.7278
  222MOL0     O29843   4.409   8.018   1.119 -1.0335 -0.3294 -0.2141
  222MOL0     C29844   4.539   8.038   1.059 -0.8316 -0.8212  0.2983
  222MOL0     C29845   4.530   8.105   0.915  0.4104  0.0330 -0.1384
  222MOL0     C29846   4.414   8.211   0.896 -0.3850  1.0884  0.4847
  222MOL0     C29847   4.451   8.285   0.770  0.0914 -0.2528 -0.0222
  222MOL0     C29848   4.335   8.383   0.739  0.0009  0.3373 -0.0948
  222MOL0     C29849   4.215   8.322   0.664  0.7429 -0.1292  0.4627
  222MOL0     C29850   4.105   8.424   0.614 -0.0212  0.4506 -0.1239
  222MOL0     C29851   4.063   8.527   0.717 -0.0221  0.0766  0.5146
  222MOL0     N29852   3.953   8.612   0.662 -0.6210  0.2661 -0.1716
  222MOL0     C29853   3.855   8.658   0.743 -0.0884 -0.2540 -1.0969
  222MOL0     C29854   3.783   8.735   0.666  0.1468  0.0117 -0.0043
  222MOL0     C29855   3.655   8.809   0.707 -0.1043 -0.6375 -0.4235
  222MOL0     C29856   3.531   8.731   0.663 -0.4228  0.1045 -0.4853
  222MOL0     C29857   3.420   8.829   0.660 -0.2606 -0.2024  0.1436
  222MOL0     C29858   3.288   8.770   0.713 -0.3700  0.2688  0.2112
  222MOL0     O29859   3.214   8.868   0.780 -0.1170 -0.1945 -1.1823
  222MOL0     C29860   3.230   8.881   0.919  0.0609 -0.0342 -0.7660
  222MOL0     C29861   3.309   8.798   0.997  0.0374 -0.0960 -0.4221
  222MOL0     C29862   3.316   8.824   1.134 -0.8334 -1.3426 -0.2138
  222MOL0     C29863   3.232   8.919   1.199 -0.5322 -0.5397 -0.2185
  222MOL0     C29864   3.225   8.923   1.343 -1.1575  0.4547  0.5423
  222MOL0     O29865   3.150   9.023   1.397 -0.7823  0.1975  1.0637
  222MOL0     C29866   3.121   9.028   1.522 -0.0753 -0.7563 -0.5586
  222MOL0     C29867   3.095   8.917   1.604  0.3541  0.5105  0.2678
  222MOL0     C29868   3.067   8.938   1.743  1.2352 -0.5402 -0.0696
  222MOL0     C29869   3.051   9.067   1.795  0.5642 -0.0272 -0.7447
  222MOL0     O29870   3.019   9.073   1.933  0.0745  0.8873  0.4658
  222MOL0     C29871   2.959   9.198   1.985 -0.1922  0.0257 -1.3726
  222MOL0     C29872   2.940   9.172   2.134 -0.2020 -0.6472  0.3651
  222MOL0     C29873   2.873   9.294   2.203 -0.2897 -0.1088 -0.1991
  222MOL0     C29874   2.955   9.426   2.176 -0.8797 -0.4847  0.2516
  222MOL0     C29875   2.905   9.527   2.273 -0.3467 -0.2272  0.5535
  222MOL0     C29876   2.989   9.668   2.248  0.6184 -0.1906  0.5302
  222MOL0     C29877   3.133   9.670   2.319  0.0568 -0.0755  1.1628
  222MOL0     C29878   3.175   9.818   2.335 -0.3832 -0.2054  0.9851
  222MOL0    Cl29879   3.343   9.793   2.372  0.3664  0.1053  0.2021
  222MOL0     C29880   3.078   9.185   1.718 -0.5083  0.2652  0.0267
  222MOL0     C29881   3.110   9.166   1.580  0.2540  0.2115 -0.3352
  222MOL0     O29882   3.281   8.838   1.408 -0.8652  0.2827 -0.2342
  222MOL0     C29883   3.158   9.011   1.121 -0.1533 -1.2436  0.3308
  222MOL0     C29884   3.158   8.980   0.981  0.1339 -0.6360 -0.7343
  222MOL0     N29885   3.846   8.749   0.547 -0.2438  0.3833 -0.3316
  222MOL0     N29886   3.944   8.672   0.540 -0.5653  0.1575 -0.2710
  222MOL0     C29887   4.504   7.923   1.310 -0.9779 -0.4036  0.5764
  222MOL0     C29888   4.487   7.894   1.446 -0.1467 -0.0826 -0.8965
  222MOL0     C29889   4.270   7.713   1.813  0.8124  0.8898  0.1361
  222MOL0     C29890   4.161   7.799   1.849 -0.3866 -0.3583  0.3982
  222MOL0     C29891   4.055   7.765   1.947 -0.1041  0.1924 -0.0328
  222MOL0     C29892   4.072   7.644   2.017 -0.3523  0.1775  0.0492
  222MOL0     O29893   3.984   7.603   2.109 -0.7511 -0.3980  0.0474
  222MOL0     C29894   3.862   7.673   2.121 -0.5165 -0.1297 -0.4500
  222MOL0     C29895   3.783   7.603   2.223  0.5200  1.1872 -1.0190
  222MOL0     C29896   3.860   7.582   2.362 -0.3433  0.0578  0.4433
  222MOL0     C29897   3.905   7.713   2.430 -0.4037 -0.3231 -0.4341
  222MOL0     C29898   3.999   7.692   2.539  0.5019 -0.0173  0.9339
  222MOL0     C29899   4.092   7.669   2.614 -0.6776  0.3010  0.0790
  222MOL0     C29900   4.188   7.559   1.993  0.6684 -0.6563  0.1513
  222MOL0     C29901   4.281   7.598   1.895  0.4704  0.5199 -0.1777
  222MOL0     C29902   4.399   7.508   1.874  0.1863 -0.1243  0.6551
  222MOL0     H29903   4.173   7.981   1.501  0.4742  0.2147  1.4077
  222MOL0     H29904   4.194   8.048   1.254 -0.1908 -2.1104  0.1831
  222MOL0     H29905   4.597   8.102   1.127  2.3022 -3.5741  0.4972
  222MOL0     H29906   4.595   7.944   1.057 -1.5236 -1.2754  1.4096
  222MOL0     H29907   4.521   8.029   0.837  2.1532 -1.6674  1.2023
  222MOL0     H29908   4.633   8.139   0.899  0.2818 -0.6389 -2.8229
  222MOL0     H29909   4.425   8.284   0.976  2.5740 -1.8705  3.0690
  222MOL0     H29910   4.319   8.157   0.893  0.1990  0.0034 -2.4854
  222MOL0     H29911   4.547   8.336   0.776 -1.3934  2.7692  0.2458
  222MOL0     H29912   4.446   8.207   0.694 -2.5181 -0.6921  0.4825
  222MOL0     H29913   4.302   8.432   0.831 -3.7462 -0.6514 -0.7127
  222MOL0     H29914   4.367   8.473   0.686 -2.6146  2.1759  1.2076
  222MOL0     H29915   4.250   8.276   0.572  1.2720 -0.5948  0.8882
  222MOL0     H29916   4.167   8.249   0.730 -1.5363  2.2602  1.6322
  222MOL0     H29917   4.016   8.372   0.578 -0.7817  0.9078  1.0579
  222MOL0     H29918   4.155   8.486   0.539  3.3009 -0.0404  1.5072
  222MOL0     H29919   4.034   8.472   0.807  0.1669  1.3571  1.3806
  222MOL0     H29920   4.146   8.590   0.748  2.7690 -3.0031 -0.1379
  222MOL0     H29921   3.842   8.626   0.846 -0.4464 -1.8515 -1.6052
  222MOL0     H29922   3.649   8.819   0.816  0.5251  0.3517 -0.4699
  222MOL0     H29923   3.658   8.913   0.674  2.9993 -0.2869  0.6300
  222MOL0     H29924   3.549   8.693   0.562  0.5834 -0.7817  0.0071
  222MOL0     H29925   3.522   8.643   0.727  0.8005  1.6561  1.9944
  222MOL0     H29926   3.404   8.837   0.552  0.5705 -0.1039  0.0270
  222MOL0     H29927   3.439   8.927   0.706  2.1607 -0.6363  0.1745
  222MOL0     H29928   3.312   8.680   0.770 -0.0115  0.4405  0.3339
  222MOL0     H29929   3.226   8.735   0.629  0.6643  0.2883 -0.5819
  222MOL0     H29930   3.379   8.724   0.958 -2.4242 -2.6060 -0.4304
  222MOL0     H29931   3.382   8.754   1.184  1.0677  0.8853  0.6436
  222MOL0     H29932   3.109   8.818   1.560  0.4535 -0.8309  3.0813
  222MOL0     H29933   3.057   8.847   1.801  0.3781 -0.1948  0.3437
  222MOL0     H29934   3.019   9.287   1.964 -0.2873 -0.2292 -2.8247
  222MOL0     H29935   2.859   9.226   1.949 -0.5292  0.5882 -0.0358
  222MOL0     H29936   2.875   9.085   2.150 -2.1458  0.8508  0.9895
  222MOL0     H29937   3.038   9.162   2.182  1.3174 -0.5021 -2.5064
  222MOL0     H29938   2.770   9.296   2.166  0.1630  0.6847 -1.4809
  222MOL0     H29939   2.865   9.268   2.309  0.9405 -1.7753 -0.4667
  222MOL0     H29940   2.929   9.458   2.075  0.6074  1.9329  0.5587
  222MOL0     H29941   3.063   9.418   2.191 -1.0990  1.1459  3.5832
  222MOL0     H29942   2.924   9.489   2.374  0.9008 -0.5187  0.2255
  222MOL0     H29943   2.801   9.546   2.245  0.5273 -1.4467 -4.2429
  222MOL0     H29944   3.007   9.697   2.145 -0.1607 -0.8604  0.1907
  222MOL0     H29945   2.922   9.746   2.286  0.5482 -0.8933  1.9118
  222MOL0     H29946   3.209   9.612   2.266 -0.5403 -1.5871  1.9083
  222MOL0     H29947   3.134   9.610   2.411 -2.0000 -1.2366  0.4836
  222MOL0     H29948   3.164   9.870   2.239  0.4917  1.4827  1.7521
  222MOL0     H29949   3.117   9.875   2.407 -0.6392 -1.2823  1.6484
  222MOL0     H29950   3.076   9.284   1.763  0.4999 -0.1231  0.9711
  222MOL0     H29951   3.130   9.257   1.526 -1.3881 -0.3158 -1.9332
  222MOL0     H29952   3.101   9.094   1.161  1.8749 -0.2280  1.2940
  222MOL0     H29953   3.107   9.047   0.913 -1.3014 -1.7713 -0.8313
  222MOL0     H29954   4.605   7.912   1.274 -1.3075 -1.1823 -0.1537
  222MOL0     H29955   4.570   7.852   1.502 -0.3331  0.4286 -0.2241
  222MOL0     H29956   4.138   7.883   1.785 -3.3240 -2.0876 -1.0530
  222MOL0     H29957   3.976   7.838   1.959 -1.3792  0.0067 -5.1288
  222MOL0     H29958   3.795   7.659   2.036 -3.0055 -1.0029  1.4996
  222MOL0     H29959   3.874   7.780   2.139  1.3511 -0.6320  1.8378
  222MOL0     H29960   3.756   7.504   2.184 -1.1895  0.6434  1.2877
  222MOL0     H29961   3.681   7.641   2.235  0.4121  0.5044  0.4231
  222MOL0     H29962   3.949   7.521   2.345 -1.8112 -1.1696 -4.4559
  222MOL0     H29963   3.799   7.534   2.440  1.4402  0.9369  2.4892
  222MOL0     H29964   3.944   7.784   2.356  1.7036  1.3506  2.0874
  222MOL0     H29965   3.823   7.765   2.481 -0.5448 -0.0576 -0.9257
  222MOL0     H29966   4.169   7.636   2.681 -0.9009 -0.2060  0.0836
  222MOL0     H29967   4.193   7.471   2.056 -2.1437 -1.1710 -0.2078
  222MOL0     H29968   4.397   7.482   1.768 -0.5834 -0.8539  0.8343
  222MOL0     H29969   4.488   7.565   1.902  0.3464  0.6977 -1.3555
  222MOL0     H29970   4.401   7.413   1.929  2.3429  0.4790  1.7008
  223MOL0     O29971   1.974   2.830   2.773 -0.6698 -0.0305  0.1335
  223MOL0     C29972   2.039   2.734   2.740 -0.4698 -0.1975 -0.2263
  223MOL0     O29973   1.984   2.625   2.700  0.1291  0.5441  0.0646
  223MOL0     C29974   1.853   2.619   2.675 -1.3238  0.5272 -0.2732
  223MOL0     C29975   1.808   2.605   2.545  0.8122  0.1804 -0.1410
  223MOL0     C29976   1.674   2.591   2.520 -0.5419  0.3243  0.3888
  223MOL0     C29977   1.584   2.609   2.622  0.3620  0.3811 -0.3074
  223MOL0     O29978   1.442   2.624   2.610 -0.1728  0.1026  0.4952
  223MOL0     C29979   1.387   2.509   2.556 -0.2485  0.0638  0.1131
  223MOL0     C29980   1.249   2.535   2.516  0.5052  0.8552  1.6879
  223MOL0     C29981   1.174   2.417   2.450  0.0935  0.1281 -1.0178
  223MOL0     C29982   1.171   2.286   2.542 -0.4427 -0.5610  0.0545
  223MOL0     C29983   1.082   2.172   2.479  0.6754  0.1557 -0.1466
  223MOL0     C29984   1.102   2.039   2.530  0.1164  0.2250 -0.4377
  223MOL0     C29985   1.009   1.928   2.478 -0.6382  0.0279 -0.2698
  223MOL0     C29986   0.999   1.928   2.325 -0.2523 -0.2460 -1.3920
  223MOL0     N29987   1.124   1.882   2.267  0.2487  0.1427  0.1893
  223MOL0     C29988   1.213   1.963   2.213  0.1179  0.2425  0.3109
  223MOL0     C29989   1.302   1.884   2.148  0.6085 -0.6686 -0.4960
  223MOL0     C29990   1.420   1.945   2.073 -0.2913  0.3705 -0.4509
  223MOL0     C29991   1.512   1.838   2.008  0.2155 -0.6537 -0.6105
  223MOL0     C29992   1.436   1.774   1.887  0.2579  0.1230 -0.6395
  223MOL0     C29993   1.488   1.636   1.837 -0.4188 -0.4775 -0.7416
  223MOL0     O29994   1.441   1.573   1.717 -0.3445 -0.4983  0.0521
  223MOL0     C29995   1.509   1.607   1.594 -0.3808  0.8487 -0.7251
  223MOL0     C29996   1.597   1.706   1.584 -0.3312  0.4713  0.5305
  223MOL0     C29997   1.650   1.735   1.456 -0.1083  0.1436 -0.3354
  223MOL0     C29998   1.624   1.655   1.342  0.1991 -0.4596  0.0593
  223MOL0     C29999   1.698   1.685   1.211  0.0200 -0.9521  0.4454
  223MOL0     O30000   1.649   1.625   1.094  0.0388 -0.0852 -0.1621
  223MOL0     C30001   1.717   1.631   0.979  0.3292 -0.1542 -0.2591
  223MOL0     C30002   1.653   1.698   0.868  0.6326  0.3500 -0.6362
  223MOL0     C30003   1.723   1.710   0.751 -0.3019  0.3151 -0.6431
  223MOL0     C30004   1.852   1.645   0.733  0.5598 -0.7007  0.8599
  223MOL0     O30005   1.904   1.659   0.610  0.9371 -0.2288  0.2241
  223MOL0     C30006   2.045   1.682   0.598 -0.3855 -0.6963  0.2034
  223MOL0     C30007   2.097   1.780   0.493 -0.1533  1.0878  1.2339
  223MOL0     C30008   1.994   1.890   0.462 -0.3034  0.2585  0.3993
  223MOL0     C30009   2.061   1.980   0.358 -0.5419  0.2863 -0.3383
  223MOL0     C30010   1.948   2.070   0.302  0.0905  0.1956  0.0655
  223MOL0     C30011   1.992   2.167   0.195 -0.3509  0.6563  0.5508
  223MOL0     C30012   2.105   2.250   0.245  0.3297  0.0596  0.5668
  223MOL0     C30013   2.166   2.358   0.154  0.7475  0.0980 -0.7541
  223MOL0    Cl30014   2.298   2.430   0.240 -0.0776  0.0840  0.1939
  223MOL0     C30015   1.913   1.591   0.848  0.2402  0.7843  0.1304
  223MOL0     C30016   1.850   1.583   0.965  0.5495  0.5010  0.6299
  223MOL0     O30017   1.800   1.753   1.224 -0.5174  0.7016  0.4354
  223MOL0     C30018   1.528   1.557   1.359 -0.1323 -0.2020 -0.3629
  223MOL0     C30019   1.472   1.529   1.483 -0.1660 -1.0003  0.5482
  223MOL0     N30020   1.268   1.756   2.166 -0.3337 -0.2695  0.2776
  223MOL0     N30021   1.174   1.753   2.249 -0.2768 -0.5994 -1.3915
  223MOL0     C30022   1.628   2.617   2.756  0.9975 -0.5905 -0.5726
  223MOL0     C30023   1.768   2.598   2.784 -0.3156  0.1601  0.7548
  223MOL0     C30024   2.184   2.734   2.749  0.8968  0.1654 -0.1689
  223MOL0     C30025   2.247   2.608   2.787 -0.0776 -0.4829  0.5796
  223MOL0     C30026   2.384   2.607   2.812  0.0611  0.8686 -0.0505
  223MOL0     C30027   2.468   2.717   2.800  0.5969 -0.1659 -0.7089
  223MOL0     O30028   2.599   2.712   2.846  1.3812 -0.5912  0.4989
  223MOL0     C30029   2.621   2.683   2.980 -0.6107 -0.6024 -0.7497
  223MOL0     C30030   2.706   2.552   2.976  0.1065 -0.1435  0.0062
  223MOL0     C30031   2.836   2.566   2.902 -1.3466 -0.1149  0.8585
  223MOL0     C30032   2.918   2.431   2.879 -0.3396 -0.0604 -1.2326
  223MOL0     C30033   2.976   2.379   3.000  0.1412  0.8387  0.9680
  223MOL0     C30034   3.039   2.332   3.091  0.1542  0.4007  0.0911
  223MOL0     C30035   2.406   2.836   2.767 -0.0624 -0.9417 -0.0488
  223MOL0     C30036   2.271   2.853   2.737  0.1743  0.3119 -0.2518
  223MOL0     C30037   2.214   2.986   2.697  0.2100  0.0231  0.0833
  223MOL0     H30038   1.878   2.610   2.461 -1.4695  3.7158 -2.1041
  223MOL0     H30039   1.633   2.592   2.420  1.3013  1.9671 -0.4243
  223MOL0     H30040   1.433   2.498   2.457 -1.2841  1.0574 -0.5039
  223MOL0     H30041   1.404   2.419   2.615  1.0618 -1.9594 -3.0728
  223MOL0     H30042   1.247   2.623   2.452  3.6306  0.5584  1.0122
  223MOL0     H30043   1.183   2.555   2.601 -0.0065  2.3925  0.9613
  223MOL0     H30044   1.223   2.390   2.356 -0.1221 -0.6356 -0.9182
  223MOL0     H30045   1.072   2.452   2.434 -0.0759  0.8554  1.2805
  223MOL0     H30046   1.277   2.258   2.537 -0.6024 -1.1006 -0.4500
  223MOL0     H30047   1.142   2.305   2.646  1.4702  1.1749  0.3249
  223MOL0     H30048   0.976   2.198   2.487 -0.9616 -3.1059 -5.7900
  223MOL0     H30049   1.104   2.176   2.372 -0.8434  0.3073 -0.4832
  223MOL0     H30050   1.205   2.003   2.519 -0.3348 -2.0538  1.8326
  223MOL0     H30051   1.081   2.041   2.637 -0.9300  3.2979 -0.6047
  223MOL0     H30052   0.910   1.952   2.520 -0.8062 -2.9755  1.2809
  223MOL0     H30053   1.022   1.826   2.514  1.7176  0.9902  1.9359
  223MOL0     H30054   0.915   1.862   2.301 -1.5131  0.2306  1.2604
  223MOL0     H30055   0.980   2.025   2.279  1.4634  0.0702 -1.4863
  223MOL0     H30056   1.232   2.070   2.215 -2.1914  0.6941  0.3484
  223MOL0     H30057   1.388   2.014   1.995  2.5198  0.8554 -1.2982
  223MOL0     H30058   1.482   1.995   2.148 -1.1771 -1.3882  1.5699
  223MOL0     H30059   1.606   1.884   1.976  0.1069  0.8810  1.1093
  223MOL0     H30060   1.528   1.756   2.079 -3.4859 -2.0525 -1.1330
  223MOL0     H30061   1.439   1.851   1.809  0.1975  1.6151  0.7822
  223MOL0     H30062   1.335   1.743   1.915  0.5235 -0.7104 -0.5740
  223MOL0     H30063   1.460   1.574   1.922 -0.0805 -0.0296 -0.3013
  223MOL0     H30064   1.597   1.646   1.834 -0.2547 -1.0163  1.7407
  223MOL0     H30065   1.609   1.772   1.669 -3.0866  0.9193  0.6576
  223MOL0     H30066   1.722   1.816   1.456  1.9821 -1.6352 -0.2632
  223MOL0     H30067   1.559   1.751   0.880  0.2749 -0.5573  0.8192
  223MOL0     H30068   1.684   1.779   0.677  1.0715  2.3403  0.4488
  223MOL0     H30069   2.084   1.722   0.692  1.1314  3.1293 -1.8307
  223MOL0     H30070   2.087   1.582   0.601  1.7910 -0.1396 -3.9879
  223MOL0     H30071   2.186   1.830   0.533 -0.7402  1.3037  2.3086
  223MOL0     H30072   2.132   1.725   0.406  2.2369  3.9801  0.1795
  223MOL0     H30073   1.906   1.846   0.415 -0.1413 -2.6554  2.6033
  223MOL0     H30074   1.966   1.953   0.547 -4.8019  1.9680 -1.9879
  223MOL0     H30075   2.110   1.919   0.282  1.8147  1.0797  0.4583
  223MOL0     H30076   2.142   2.034   0.407 -0.9817 -0.1211  0.8691
  223MOL0     H30077   1.907   2.122   0.389  0.9846 -1.0227  1.2613
  223MOL0     H30078   1.863   2.012   0.268 -0.1917 -1.1739  2.8161
  223MOL0     H30079   2.024   2.122   0.100 -1.7292  2.1255 -0.6589
  223MOL0     H30080   1.911   2.234   0.167 -1.9121 -0.3712  2.3923
  223MOL0     H30081   2.184   2.177   0.266  3.3099  2.3953 -1.6586
  223MOL0     H30082   2.082   2.298   0.341  1.1568  1.4321  0.1089
  223MOL0     H30083   2.187   2.315   0.056 -1.0535 -0.5549 -0.8956
  223MOL0     H30084   2.090   2.435   0.137 -1.1005 -1.3877  0.3726
  223MOL0     H30085   2.018   1.571   0.829 -0.6052 -0.6128 -4.2178
  223MOL0     H30086   1.911   1.541   1.045  1.1877  3.6148  1.9195
  223MOL0     H30087   1.490   1.497   1.277 -0.8226  0.5033 -0.5623
  223MOL0     H30088   1.396   1.451   1.485  0.8817 -2.0574  0.4310
  223MOL0     H30089   1.561   2.626   2.841  3.2769  0.3413  1.2604
  223MOL0     H30090   1.817   2.591   2.880  0.7582  0.8249  0.2734
  223MOL0     H30091   2.181   2.524   2.806 -0.1486 -0.6404 -0.3636
  223MOL0     H30092   2.442   2.516   2.823  1.7821  1.9229  0.0688
  223MOL0     H30093   2.538   2.661   3.047 -1.1155 -3.5436 -2.2057
  223MOL0     H30094   2.665   2.772   3.026  1.3255 -2.4805  1.2591
  223MOL0     H30095   2.643   2.475   2.929  3.8684 -2.9225 -0.9285
  223MOL0     H30096   2.717   2.511   3.077 -0.5915  1.3261  0.7074
  223MOL0     H30097   2.900   2.642   2.949  0.5854 -0.4271 -1.1284
  223MOL0     H30098   2.814   2.602   2.802  0.7846 -4.1053 -1.2835
  223MOL0     H30099   2.845   2.357   2.843 -1.3603  0.2207  0.1895
  223MOL0     H30100   2.993   2.445   2.800  0.6493 -0.9118 -0.4738
  223MOL0     H30101   3.102   2.297   3.169  0.1256  0.4489  0.1359
  223MOL0     H30102   2.477   2.918   2.774  1.0069 -1.7888 -0.5851
  223MOL0     H30103   2.154   3.024   2.780  1.9946  1.3070  0.8424
  223MOL0     H30104   2.292   3.061   2.683  1.4953 -1.5946 -2.2140
  223MOL0     H30105   2.152   2.973   2.608  1.7153 -0.7225 -0.9046
  224MOL0     O30106   4.423  10.600  10.675 -0.4464 -0.1297  1.0987
  224MOL0     C30107   4.464  10.708  10.627  0.8150 -0.6743  0.4360
  224MOL0     O30108   4.393  10.814  10.619  0.1195  0.3641  1.0368
  224MOL0     C30109   4.262  10.799  10.652 -0.4298  0.8214  0.9875
  224MOL0     C30110   4.218  10.800  10.780  0.3180  0.5439  0.3801
  224MOL0     C30111   4.085  10.783  10.822  1.2470 -0.6942  0.3092
  224MOL0     C30112   3.990  10.742  10.724 -0.1997 -0.8502 -0.3741
  224MOL0     O30113   3.855  10.712  10.766 -1.1128  0.2850  0.7572
  224MOL0     C30114   3.775  10.632  10.675  1.1845 -0.7484 -0.1061
  224MOL0     C30115   3.674  10.571  10.761  0.4013 -0.5049 -0.7861
  224MOL0     C30116   3.580  10.479  10.671  0.3827 -0.1013 -0.1538
  224MOL0     C30117   3.489  10.382  10.751 -0.5831  0.7865  0.3041
  224MOL0     C30118   3.428  10.276  10.655 -0.0517 -0.1579  0.2627
  224MOL0     C30119   3.368  10.158  10.723  0.3133 -0.4094 -0.3379
  224MOL0     C30120   3.334  10.052  10.619 -0.4879 -0.3223  0.3023
  224MOL0     C30121   3.446   9.996  10.533 -0.4062  0.2796  0.3523
  224MOL0     N30122   3.396   9.890  10.432  0.4723  0.2877  0.0517
  224MOL0     C30123   3.314   9.917  10.330  0.4353 -0.2134  0.1431
  224MOL0     C30124   3.306   9.800  10.257  0.4866  0.8676 -0.6428
  224MOL0     C30125   3.211   9.767  10.142  0.9362 -0.3897  0.4250
  224MOL0     C30126   3.073   9.735  10.205 -0.5107 -0.3217  0.0469
  224MOL0     C30127   3.060   9.590  10.281 -1.1203 -0.7470  1.2562
  224MOL0     C30128   2.913   9.540  10.270 -1.6025  0.6547  0.1925
  224MOL0     O30129   2.899   9.397  10.309 -0.6451 -1.2323 -0.5992
  224MOL0     C30130   2.907   9.316  10.204  0.2907  0.7548  0.4833
  224MOL0     C30131   2.994   9.319  10.094 -0.1476 -0.3275 -0.0860
  224MOL0     C30132   2.980   9.232   9.992 -0.9040  0.6849 -0.6196
  224MOL0     C30133   2.887   9.125  10.001  0.2073  0.2624  0.1129
  224MOL0     C30134   2.862   9.018   9.896 -0.5468 -0.1640 -0.5623
  224MOL0     O30135   2.781   8.914   9.927 -0.4737 -0.8051 -0.1044
  224MOL0     C30136   2.749   8.818   9.828 -0.1350  0.1702 -0.0669
  224MOL0     C30137   2.705   8.860   9.709  0.3994  0.3015  0.6078
  224MOL0     C30138   2.688   8.769   9.609  0.5628 -0.8451  0.7507
  224MOL0     C30139   2.701   8.634   9.630 -0.2918 -0.4805 -0.1559
  224MOL0     O30140   2.671   8.545   9.537  0.1688  0.6888 -0.3319
  224MOL0     C30141   2.725   8.406   9.549  1.0404  0.6282 -1.0840
  224MOL0     C30142   2.669   8.329   9.434 -0.3220  0.1488  0.6323
  224MOL0     C30143   2.739   8.318   9.302 -0.1538  0.2007  1.0030
  224MOL0     C30144   2.698   8.205   9.207  0.5538  0.6720 -0.6217
  224MOL0     C30145   2.784   8.199   9.079 -0.1057  0.6557 -0.2651
  224MOL0     C30146   2.815   8.324   8.998  0.4664 -0.4554  0.2380
  224MOL0     C30147   2.860   8.292   8.856 -0.4099  0.0182  0.4046
  224MOL0     C30148   2.970   8.387   8.810  1.5751 -0.3150 -0.7886
  224MOL0    Cl30149   2.950   8.427   8.641 -0.1970 -0.1794  0.2024
  224MOL0     C30150   2.741   8.586   9.757 -0.6039 -1.5247 -0.1147
  224MOL0     C30151   2.774   8.685   9.852 -0.3836  0.6120  0.3679
  224MOL0     O30152   2.926   9.031   9.790  0.8693 -0.8554  0.4914
  224MOL0     C30153   2.807   9.107  10.114 -0.8211 -0.6970 -0.3367
  224MOL0     C30154   2.820   9.202  10.214 -0.0602  0.2188  0.1396
  224MOL0     N30155   3.386   9.704  10.317 -0.3479 -0.7598  0.3510
  224MOL0     N30156   3.439   9.760  10.424 -0.8985 -0.7956  0.4423
  224MOL0     C30157   4.031  10.762  10.591 -0.5296  0.9846  0.0402
  224MOL0     C30158   4.164  10.783  10.548 -0.4802 -0.5077  0.6554
  224MOL0     C30159   4.604  10.734  10.595 -0.7729  0.8069  0.2164
  224MOL0     C30160   4.650  10.865  10.560 -0.6901  0.1650  0.6849
  224MOL0     C30161   4.784  10.891  10.536 -0.0009  0.0452 -0.0258
  224MOL0     C30162   4.882  10.793  10.544  0.5328  0.1961 -0.3529
  224MOL0     O30163   5.014  10.826  10.539 -0.0494 -0.2525  0.3006
  224MOL0     C30164   5.112  10.734  10.588 -0.4414 -0.6160  0.5889
  224MOL0     C30165   5.133  10.744  10.742  0.6014  0.4548  0.2051
  224MOL0     C30166   5.259  10.677  10.785 -0.5083 -0.3405 -0.7460
  224MOL0     C30167   5.259  10.533  10.751  1.1952  0.4753  0.3206
  224MOL0     C30168   5.145  10.457  10.796  0.8854 -0.4125 -1.4458
  224MOL0     C30169   5.040  10.407  10.834  0.1595  0.6751 -0.1382
  224MOL0     C30170   4.837  10.664  10.576  0.0640 -0.4525  0.1988
  224MOL0     C30171   4.707  10.629  10.603  0.4026 -0.2850 -0.3433
  224MOL0     C30172   4.677  10.480  10.626  0.2879  0.0153 -0.5079
  224MOL0     H30173   4.293  10.822  10.856  0.3845 -0.0770  0.4996
  224MOL0     H30174   4.057  10.793  10.926  1.5213 -3.2849  0.6917
  224MOL0     H30175   3.712  10.701  10.619 -1.0691  1.5430  4.6733
  224MOL0     H30176   3.825  10.554  10.617  0.6946 -0.6471 -0.6689
  224MOL0     H30177   3.617  10.648  10.815  1.8715  0.1239 -0.0474
  224MOL0     H30178   3.720  10.524  10.849  0.7473 -0.3905 -0.9055
  224MOL0     H30179   3.651  10.429  10.605 -0.4552  0.0437 -1.1927
  224MOL0     H30180   3.519  10.540  10.603  0.4201 -1.2328 -1.2349
  224MOL0     H30181   3.555  10.334  10.824 -1.4825 -1.1831 -0.0988
  224MOL0     H30182   3.406  10.436  10.797 -0.2761 -0.1513  2.0522
  224MOL0     H30183   3.344  10.326  10.606 -1.2318 -1.8621  0.4783
  224MOL0     H30184   3.509  10.253  10.585 -1.0468  2.3018 -1.8709
  224MOL0     H30185   3.437  10.119  10.798 -0.2185 -0.2767  0.2360
  224MOL0     H30186   3.273  10.176  10.774  0.4275  0.6372 -0.4667
  224MOL0     H30187   3.251  10.095  10.563  1.4712  1.2699 -1.5561
  224MOL0     H30188   3.285   9.965  10.664 -3.2058  0.8183 -0.2922
  224MOL0     H30189   3.500  10.077  10.484  0.3064 -0.3178  0.1291
  224MOL0     H30190   3.520   9.952  10.600 -1.3801  0.7911  1.8132
  224MOL0     H30191   3.257  10.007  10.313  1.9164  1.1797  2.1672
  224MOL0     H30192   3.198   9.856  10.080  2.0370  0.3099  1.1661
  224MOL0     H30193   3.246   9.687  10.077 -0.1135 -0.7212  0.2506
  224MOL0     H30194   3.046   9.810  10.280 -0.8598  2.2279 -2.4641
  224MOL0     H30195   3.009   9.734  10.117 -2.5278 -1.3850  1.4552
  224MOL0     H30196   3.089   9.602  10.386  0.6920 -0.5357  0.7629
  224MOL0     H30197   3.128   9.520  10.232 -1.8433 -0.2340 -0.5984
  224MOL0     H30198   2.875   9.550  10.168 -0.3816 -1.8637 -0.5953
  224MOL0     H30199   2.856   9.610  10.332  2.1048  3.2339  1.0260
  224MOL0     H30200   3.087   9.375  10.102  0.9110 -2.1270  0.8461
  224MOL0     H30201   3.044   9.232   9.904  3.6719  1.3124  2.3653
  224MOL0     H30202   2.671   8.961   9.689 -1.0290 -0.5542 -1.7926
  224MOL0     H30203   2.655   8.806   9.512  1.3438  0.8492  1.0979
  224MOL0     H30204   2.834   8.410   9.550  1.2814 -2.2654 -2.3625
  224MOL0     H30205   2.683   8.355   9.636 -2.4905  3.0049 -1.1991
  224MOL0     H30206   2.657   8.224   9.462  2.4261 -1.0143 -1.9545
  224MOL0     H30207   2.566   8.364   9.435  0.1428  1.6621 -0.4448
  224MOL0     H30208   2.721   8.410   9.246  3.6369 -0.8939 -2.6272
  224MOL0     H30209   2.847   8.299   9.312  0.1572 -2.1841 -3.7480
  224MOL0     H30210   2.595   8.230   9.180  0.5858 -0.9185 -2.4350
  224MOL0     H30211   2.707   8.107   9.254  0.5023  1.6289  1.4797
  224MOL0     H30212   2.745   8.121   9.013  2.1530 -0.1890 -0.7065
  224MOL0     H30213   2.884   8.157   9.096 -0.6455 -1.1011 -1.2527
  224MOL0     H30214   2.740   8.402   8.989  2.8046  1.7654 -1.3543
  224MOL0     H30215   2.906   8.369   9.040  2.2104 -1.7665 -1.8876
  224MOL0     H30216   2.779   8.296   8.782 -1.0258 -1.9683  0.8999
  224MOL0     H30217   2.917   8.198   8.862  1.5502  1.1181 -0.3457
  224MOL0     H30218   2.981   8.476   8.874  1.8208 -0.9204  0.0238
  224MOL0     H30219   3.065   8.334   8.821  0.3015 -2.9369 -1.6507
  224MOL0     H30220   2.779   8.487   9.778  0.4764 -0.7650  1.7626
  224MOL0     H30221   2.821   8.647   9.942  2.7025  1.3330 -0.7871
  224MOL0     H30222   2.728   9.033  10.116 -0.5539 -1.1433 -3.0252
  224MOL0     H30223   2.767   9.190  10.307 -0.2332 -0.9071 -0.0868
  224MOL0     H30224   3.952  10.747  10.518 -1.4905  0.4304  1.1497
  224MOL0     H30225   4.193  10.787  10.444  1.0761 -1.7593  1.0027
  224MOL0     H30226   4.575  10.943  10.551 -1.0464 -0.1042  1.2388
  224MOL0     H30227   4.823  10.990  10.515  1.1846  0.0316  1.8453
  224MOL0     H30228   5.203  10.767  10.537  0.2080 -2.1254  0.7156
  224MOL0     H30229   5.093  10.632  10.554 -0.4959 -0.3295 -0.2648
  224MOL0     H30230   5.040  10.712  10.791  0.3760 -0.7853 -0.9751
  224MOL0     H30231   5.141  10.848  10.775  2.0652  0.2801  0.4883
  224MOL0     H30232   5.261  10.696  10.893 -0.0049 -0.3882 -0.7456
  224MOL0     H30233   5.343  10.734  10.746 -1.9703  2.0812 -0.5920
  224MOL0     H30234   5.257  10.520  10.643 -1.1787 -0.1655  0.3881
  224MOL0     H30235   5.353  10.482  10.776  0.6857 -2.2331 -2.7122
  224MOL0     H30236   4.947  10.364  10.863  0.3335  1.7482  2.2338
  224MOL0     H30237   4.909  10.586  10.596 -1.9660 -1.7888  2.9273
  224MOL0     H30238   4.655  10.458  10.731  0.2480 -0.5647 -0.6340
  224MOL0     H30239   4.600  10.438  10.560 -0.2411 -0.7866  0.5787
  224MOL0     H30240   4.771  10.427  10.611  2.3975  3.2512  0.3629
  225MOL0     O30241   1.654   7.099  10.270 -0.5718 -0.5173  0.4457
  225MOL0     C30242   1.738   7.162  10.204 -0.3755 -1.4511  0.0906
  225MOL0     O30243   1.804   7.124  10.085  0.0573  0.2732 -1.0313
  225MOL0     C30244   1.775   6.996  10.026 -0.4500 -0.3837  0.0999
  225MOL0     C30245   1.699   6.982   9.911  0.7016  0.7091  0.6615
  225MOL0     C30246   1.678   6.854   9.874 -0.0478  0.2590 -0.1950
  225MOL0     C30247   1.714   6.736   9.941 -0.3924 -0.0510  0.2171
  225MOL0     O30248   1.697   6.607   9.895  1.2147 -0.3756  0.1270
  225MOL0     C30249   1.607   6.596   9.781  0.9056 -0.4200  0.0049
  225MOL0     C30250   1.587   6.463   9.722  0.4588  0.3451 -0.3864
  225MOL0     C30251   1.710   6.396   9.653  0.3850  0.7137  0.9966
  225MOL0     C30252   1.849   6.407   9.722 -0.3292 -0.1071 -0.5754
  225MOL0     C30253   1.958   6.330   9.641  0.6002  0.4053  0.5030
  225MOL0     C30254   2.091   6.371   9.687  0.0894 -0.6796 -0.2852
  225MOL0     C30255   2.201   6.271   9.655 -0.3724 -0.7216  0.2863
  225MOL0     C30256   2.325   6.341   9.622 -0.9713  0.9987  0.1753
  225MOL0     N30257   2.409   6.346   9.747 -0.6068  0.5290  0.0016
  225MOL0     C30258   2.449   6.231   9.820 -1.2470 -0.7196  0.3921
  225MOL0     C30259   2.486   6.289   9.941 -0.0773  0.9824 -0.5452
  225MOL0     C30260   2.512   6.214  10.070 -0.3013  0.1234 -0.9940
  225MOL0     C30261   2.646   6.252  10.117 -0.4447 -0.8458  0.8703
  225MOL0     C30262   2.706   6.157  10.218  0.0663 -0.1168  0.6677
  225MOL0     C30263   2.834   6.196  10.268 -0.9898 -0.8257 -0.2511
  225MOL0     O30264   2.822   6.313  10.357  1.0090  0.4698 -0.4713
  225MOL0     C30265   2.840   6.304  10.495  0.7202 -0.2461 -0.3928
  225MOL0     C30266   2.876   6.421  10.567  0.2295  0.5776  0.0448
  225MOL0     C30267   2.899   6.407  10.704  0.3831 -0.1455  0.0153
  225MOL0     C30268   2.892   6.287  10.775  0.2205  0.2074  0.5699
  225MOL0     C30269   2.913   6.279  10.925 -0.2820 -0.5163  0.0992
  225MOL0     O30270   2.896   6.155  10.979 -0.5455 -0.3166  0.8987
  225MOL0     C30271   2.903   6.127  11.114  0.7571  0.6850  0.1185
  225MOL0     C30272   2.834   6.207  11.206  0.0678  0.6739 -0.5838
  225MOL0     C30273   2.852   6.182  11.343  0.1686  0.1824 -0.6822
  225MOL0     C30274   2.942   6.083  11.386 -0.2115 -0.5953 -1.0058
  225MOL0     O30275   2.970   6.065  11.523  0.0729 -0.3891 -0.0119
  225MOL0     C30276   3.093   6.087  11.589 -0.5615 -0.1513  0.5555
  225MOL0     C30277   3.101   5.983  11.690 -0.1055 -0.1955 -0.0630
  225MOL0     C30278   3.142   5.855  11.626 -0.0604 -0.4820 -0.2799
  225MOL0     C30279   3.135   5.729  11.714 -0.0537 -0.0923 -0.3102
  225MOL0     C30280   3.150   5.595  11.647 -0.1453 -0.3245 -1.4518
  225MOL0     C30281   3.240   5.498  11.719  0.6130  0.0039 -0.5673
  225MOL0     C30282   3.248   5.369  11.631 -0.1077  0.2979 -0.5769
  225MOL0     C30283   3.351   5.275  11.698  0.2816 -0.5177 -0.4761
  225MOL0    Cl30284   3.331   5.131  11.607  0.2089 -0.2914  0.3184
  225MOL0     C30285   3.006   6.004  11.292 -1.0379  0.9088  0.3447
  225MOL0     C30286   2.979   6.019  11.159 -0.0986 -0.0942 -0.3818
  225MOL0     O30287   2.926   6.384  10.974  0.6166  0.3213 -0.0104
  225MOL0     C30288   2.833   6.177  10.706 -0.4129  0.2865 -0.0872
  225MOL0     C30289   2.812   6.186  10.569  0.0628  0.2632 -0.0728
  225MOL0     N30290   2.477   6.421   9.943  0.1195 -0.9924 -0.4738
  225MOL0     N30291   2.424   6.446   9.829 -0.1429 -0.5826  0.0502
  225MOL0     C30292   1.782   6.751  10.064 -0.2430 -0.9620 -0.2313
  225MOL0     C30293   1.814   6.884  10.107  1.0012 -0.0917 -0.1151
  225MOL0     C30294   1.755   7.298  10.245 -0.0027 -0.3619  0.4117
  225MOL0     C30295   1.725   7.396  10.148  1.0329 -0.6401 -0.3169
  225MOL0     C30296   1.741   7.529  10.186 -0.1820 -0.5067  0.3603
  225MOL0     C30297   1.776   7.578  10.310 -0.4667  0.5042  0.5231
  225MOL0     O30298   1.793   7.707  10.353  0.5745  0.1267 -0.1710
  225MOL0     C30299   1.703   7.803  10.305 -0.9784 -1.0205  0.7360
  225MOL0     C30300   1.706   7.920  10.401 -0.4304 -0.5412 -0.2627
  225MOL0     C30301   1.559   7.949  10.453 -0.1223 -0.8565  0.3711
  225MOL0     C30302   1.553   8.086  10.523  1.0345 -0.0103 -0.4230
  225MOL0     C30303   1.560   8.185  10.420  0.1777 -0.0782 -1.4424
  225MOL0     C30304   1.543   8.268  10.338  0.8746 -1.4355  0.4475
  225MOL0     C30305   1.815   7.481  10.405  0.2698  0.8099 -0.3870
  225MOL0     C30306   1.801   7.339  10.369 -0.7566 -1.3444 -0.0372
  225MOL0     C30307   1.848   7.239  10.476  0.6410 -0.0604 -0.1056
  225MOL0     H30308   1.654   7.058   9.849  2.2584  0.0681 -1.3693
  225MOL0     H30309   1.624   6.838   9.781 -1.2232  3.0536 -0.0912
  225MOL0     H30310   1.511   6.642   9.807  1.8281  0.4610  2.0914
  225MOL0     H30311   1.653   6.653   9.700  2.2291 -1.9605 -0.3769
  225MOL0     H30312   1.513   6.465   9.642 -0.5873  1.3689  0.5571
  225MOL0     H30313   1.560   6.393   9.803  3.6553  2.2600  2.6134
  225MOL0     H30314   1.714   6.425   9.548 -3.0340 -1.8911 -0.0630
  225MOL0     H30315   1.677   6.293   9.637 -1.6338  1.2134  1.5381
  225MOL0     H30316   1.878   6.512   9.722  3.7714 -1.0518  0.6887
  225MOL0     H30317   1.834   6.373   9.825 -3.1359  0.6320 -0.6493
  225MOL0     H30318   1.941   6.223   9.657  0.8820  0.2180 -0.3610
  225MOL0     H30319   1.956   6.356   9.535 -5.0752 -1.5243 -0.2078
  225MOL0     H30320   2.112   6.462   9.630  2.0527 -0.1773  1.1329
  225MOL0     H30321   2.087   6.385   9.795 -2.1492 -3.0321  0.0386
  225MOL0     H30322   2.168   6.216   9.565 -3.0971  1.0853  0.0558
  225MOL0     H30323   2.206   6.189   9.727 -1.0287 -2.8253 -1.8908
  225MOL0     H30324   2.372   6.297   9.534 -1.4985  3.5324 -1.4785
  225MOL0     H30325   2.309   6.441   9.581 -0.4493  0.5987 -1.0506
  225MOL0     H30326   2.452   6.123   9.804 -0.2748 -0.4627 -1.4216
  225MOL0     H30327   2.427   6.239  10.133 -0.3298 -1.8543 -0.1980
  225MOL0     H30328   2.514   6.109  10.039  1.3212  0.4536 -2.1556
  225MOL0     H30329   2.712   6.245  10.030 -0.6862  0.6083  0.5424
  225MOL0     H30330   2.649   6.355  10.153 -1.8007 -1.1552  1.9394
  225MOL0     H30331   2.727   6.061  10.169 -0.2271 -0.1560  0.6230
  225MOL0     H30332   2.646   6.151  10.310 -2.6013  3.2262 -0.6634
  225MOL0     H30333   2.907   6.201  10.186  0.2166 -0.3615  0.8253
  225MOL0     H30334   2.867   6.106  10.319 -2.2567 -2.2290 -1.7915
  225MOL0     H30335   2.892   6.507  10.503 -0.7351  0.6321 -0.1333
  225MOL0     H30336   2.931   6.496  10.756 -2.0587 -0.3587  2.0868
  225MOL0     H30337   2.767   6.288  11.180  1.0858  2.5664  2.2135
  225MOL0     H30338   2.811   6.248  11.420 -0.2398 -0.1319 -0.6263
  225MOL0     H30339   3.180   6.084  11.523  0.4062 -0.2986  1.7983
  225MOL0     H30340   3.085   6.186  11.633  2.7354  0.4254  0.0861
  225MOL0     H30341   3.176   6.008  11.765 -0.5856  1.1088  0.0124
  225MOL0     H30342   3.006   5.962  11.740  1.2655 -1.9706  1.9254
  225MOL0     H30343   3.082   5.827  11.539  1.1880 -1.0037 -1.0109
  225MOL0     H30344   3.240   5.864  11.578 -1.1691  1.5578 -2.4124
  225MOL0     H30345   3.031   5.736  11.747 -1.3338 -2.6366 -3.3041
  225MOL0     H30346   3.201   5.742  11.800  0.0942  3.0462 -0.7694
  225MOL0     H30347   3.193   5.609  11.547 -1.2228 -0.5347 -1.9576
  225MOL0     H30348   3.056   5.539  11.640 -1.1521  0.9895  0.6430
  225MOL0     H30349   3.343   5.534  11.719  1.0423 -1.1234 -2.1094
  225MOL0     H30350   3.201   5.485  11.820 -1.4161  2.3794 -0.9362
  225MOL0     H30351   3.290   5.393  11.533  1.2346  2.3405  0.4395
  225MOL0     H30352   3.146   5.331  11.619  0.5765 -0.9410 -3.1357
  225MOL0     H30353   3.446   5.324  11.674 -0.5811 -0.8710 -5.5253
  225MOL0     H30354   3.327   5.263  11.804  1.9934 -0.2255 -0.0121
  225MOL0     H30355   3.083   5.931  11.314 -1.6463 -0.7023 -2.3633
  225MOL0     H30356   3.034   5.960  11.087 -0.4630 -1.0982  0.1516
  225MOL0     H30357   2.796   6.086  10.751  1.2653  0.9190  2.7822
  225MOL0     H30358   2.766   6.101  10.522 -0.1374  1.3266 -1.8729
  225MOL0     H30359   1.806   6.662  10.121 -0.1041  0.1028  1.4031
  225MOL0     H30360   1.866   6.900  10.200 -0.7897 -0.5658  1.0186
  225MOL0     H30361   1.690   7.357  10.052 -1.2477  1.6757 -0.5080
  225MOL0     H30362   1.712   7.605  10.115  0.4876  0.1136  0.7443
  225MOL0     H30363   1.609   7.749  10.288 -0.7323 -0.7345 -1.8117
  225MOL0     H30364   1.734   7.828  10.204 -3.2487 -1.9614 -0.2711
  225MOL0     H30365   1.769   8.001  10.362 -1.7541  0.6111 -0.0760
  225MOL0     H30366   1.757   7.879  10.489 -2.5054 -4.0063 -0.5039
  225MOL0     H30367   1.540   7.873  10.528  1.6310 -2.4703 -0.7331
  225MOL0     H30368   1.480   7.940  10.378 -0.2445 -1.7792  0.6067
  225MOL0     H30369   1.458   8.107  10.572  2.0660  0.1974  1.5938
  225MOL0     H30370   1.640   8.115  10.583 -0.8960  1.9044  1.6433
  225MOL0     H30371   1.521   8.346  10.267  0.6105 -2.6463 -0.8510
  225MOL0     H30372   1.863   7.510  10.498 -0.6224 -0.9211  0.6585
  225MOL0     H30373   1.909   7.285  10.554  3.2582 -2.1346 -0.7831
  225MOL0     H30374   1.763   7.190  10.524 -1.6734  1.2074 -2.5821
  225MOL0     H30375   1.906   7.157  10.432 -4.5420 -2.2101 -4.0975
  226MOL0     O30376   7.671   8.805   9.458  0.2186  0.2586 -0.2570
  226MOL0     C30377   7.691   8.923   9.439  0.5359 -0.0750  0.0564
  226MOL0     O30378   7.602   9.002   9.368  0.0859  0.5256 -0.1004
  226MOL0     C30379   7.478   8.959   9.351  1.6674  0.2605 -0.1041
  226MOL0     C30380   7.433   8.903   9.232  0.2226  0.7978  1.5159
  226MOL0     C30381   7.302   8.859   9.210  1.4759 -0.2771  1.1867
  226MOL0     C30382   7.213   8.863   9.316 -0.5499 -0.4586 -0.6755
  226MOL0     O30383   7.087   8.820   9.290 -0.5494 -0.3839  0.4788
  226MOL0     C30384   6.996   8.832   9.401 -0.1585  1.2966 -0.1668
  226MOL0     C30385   6.860   8.790   9.350 -0.5236 -0.3203  0.0898
  226MOL0     C30386   6.838   8.637   9.330 -2.0854  1.0369  0.1157
  226MOL0     C30387   6.703   8.593   9.289  1.2487 -0.3401 -0.6009
  226MOL0     C30388   6.702   8.440   9.274  0.2673 -0.6141 -0.0013
  226MOL0     C30389   6.561   8.381   9.245  0.8496 -0.4865 -0.1937
  226MOL0     C30390   6.506   8.367   9.102  0.1316 -0.7314  0.2188
  226MOL0     C30391   6.364   8.292   9.084  0.7674 -0.1752 -0.6229
  226MOL0     N30392   6.361   8.162   9.143 -0.0036  0.4175 -0.5607
  226MOL0     C30393   6.427   8.052   9.095 -0.8646 -0.8190 -0.1632
  226MOL0     C30394   6.369   7.948   9.139 -0.3230  0.7504 -0.1823
  226MOL0     C30395   6.415   7.808   9.115 -0.5182 -0.0060 -0.4597
  226MOL0     C30396   6.565   7.791   9.144 -1.4826  0.7868  0.0050
  226MOL0     C30397   6.593   7.638   9.106 -0.4700 -0.4376  0.0634
  226MOL0     C30398   6.627   7.625   8.955  0.5822  0.4572  0.7222
  226MOL0     O30399   6.691   7.497   8.928  0.8134  0.0782 -0.2146
  226MOL0     C30400   6.619   7.389   8.945  0.1775 -0.6961 -0.2213
  226MOL0     C30401   6.525   7.346   8.861 -0.9790 -0.0975  0.7359
  226MOL0     C30402   6.468   7.218   8.885 -0.3207  0.7045  0.3373
  226MOL0     C30403   6.516   7.130   8.981 -0.1022 -0.1873  0.1356
  226MOL0     C30404   6.464   6.993   8.996 -0.1009  0.4662 -0.2722
  226MOL0     O30405   6.520   6.907   9.087 -0.5677  0.7309 -0.1068
  226MOL0     C30406   6.471   6.782   9.092  0.2525  0.7580  0.8753
  226MOL0     C30407   6.350   6.750   9.159 -1.3232 -0.0030 -0.1739
  226MOL0     C30408   6.300   6.625   9.149  0.2415  0.9386  0.5737
  226MOL0     C30409   6.354   6.527   9.072 -0.1328 -1.0349  0.0309
  226MOL0     O30410   6.294   6.409   9.037  1.0894 -0.8024 -0.4565
  226MOL0     C30411   6.297   6.311   9.142  0.0437 -0.9999 -0.2337
  226MOL0     C30412   6.221   6.183   9.091 -0.4739  0.6346 -0.1180
  226MOL0     C30413   6.243   6.047   9.166 -0.7266  0.0624 -0.8629
  226MOL0     C30414   6.206   6.067   9.311  0.1379  0.1030 -0.1245
  226MOL0     C30415   6.059   6.076   9.325 -0.5037 -0.1490 -0.0576
  226MOL0     C30416   6.020   6.099   9.474 -0.0655 -0.1000  1.5376
  226MOL0     C30417   5.871   6.121   9.475  0.3723  0.3854 -0.1343
  226MOL0     C30418   5.813   6.199   9.595  0.2399 -1.0169  0.6749
  226MOL0    Cl30419   5.905   6.141   9.735  0.7664 -0.0966  0.2851
  226MOL0     C30420   6.470   6.555   9.002 -0.2738 -0.0877  0.0472
  226MOL0     C30421   6.523   6.686   9.015 -0.0999 -0.1512 -0.1339
  226MOL0     O30422   6.377   6.955   8.918 -0.4350 -0.7294  0.1293
  226MOL0     C30423   6.623   7.175   9.064 -0.5638  0.3957  0.4029
  226MOL0     C30424   6.671   7.307   9.041  0.8104  0.2904 -0.0741
  226MOL0     N30425   6.266   7.990   9.224  0.0756  0.4625  0.1605
  226MOL0     N30426   6.269   8.116   9.236  0.2552 -0.3394 -0.0233
  226MOL0     C30427   7.260   8.910   9.443 -0.6098 -0.3573  0.0821
  226MOL0     C30428   7.388   8.963   9.457  0.2515 -0.1713 -0.8556
  226MOL0     C30429   7.822   8.985   9.465  0.4046  0.2755 -0.6911
  226MOL0     C30430   7.840   9.121   9.428  0.1302  0.2484  0.0248
  226MOL0     C30431   7.965   9.182   9.453  0.9894 -0.3044 -0.0390
  226MOL0     C30432   8.073   9.118   9.518  0.4354  1.1813  0.2057
  226MOL0     O30433   8.191   9.173   9.555 -0.4364 -0.0435 -0.1137
  226MOL0     C30434   8.199   9.314   9.540 -0.4791  0.3881  0.1880
  226MOL0     C30435   8.142   9.398   9.651 -0.7408 -0.3869  0.0000
  226MOL0     C30436   8.225   9.510   9.694 -0.8279 -0.7016 -0.5316
  226MOL0     C30437   8.144   9.607   9.783 -0.2123 -0.0703 -0.0926
  226MOL0     C30438   8.242   9.683   9.873  0.5474 -0.5188 -0.0519
  226MOL0     C30439   8.320   9.730   9.952 -0.3239 -0.7464 -0.1405
  226MOL0     C30440   8.050   8.986   9.545 -0.2766 -0.1095  0.4121
  226MOL0     C30441   7.935   8.917   9.511 -0.9783  0.2282 -0.0080
  226MOL0     C30442   7.945   8.769   9.541 -0.6918 -0.0527  0.5076
  226MOL0     H30443   7.507   8.896   9.153  0.4206 -1.4256  1.8240
  226MOL0     H30444   7.266   8.826   9.113  0.2275  0.9229  1.2158
  226MOL0     H30445   7.026   8.776   9.490  0.8522  2.0461 -0.0200
  226MOL0     H30446   6.986   8.937   9.432 -1.3978  0.5555  2.2571
  226MOL0     H30447   6.843   8.848   9.259 -0.4717  2.1163  1.5534
  226MOL0     H30448   6.796   8.826   9.431 -1.2379  0.6940 -0.8969
  226MOL0     H30449   6.868   8.579   9.418  0.8259  0.2211 -1.3318
  226MOL0     H30450   6.897   8.622   9.240 -1.8120  4.8459 -0.5128
  226MOL0     H30451   6.635   8.610   9.373  0.4213 -0.7831 -1.1689
  226MOL0     H30452   6.678   8.636   9.192 -0.3687 -1.6471 -0.8029
  226MOL0     H30453   6.765   8.411   9.190  1.0878 -2.1511  1.0868
  226MOL0     H30454   6.720   8.391   9.370 -0.5069 -1.4617 -0.2743
  226MOL0     H30455   6.564   8.276   9.276  0.3898 -0.6890 -0.8309
  226MOL0     H30456   6.501   8.437   9.318  0.3819 -2.8504  1.3864
  226MOL0     H30457   6.573   8.304   9.043  0.5872 -0.1874  0.1465
  226MOL0     H30458   6.494   8.466   9.059  1.9626 -0.1831  0.8901
  226MOL0     H30459   6.277   8.350   9.115 -0.3805 -0.9858 -2.1897
  226MOL0     H30460   6.346   8.266   8.979 -0.6355 -2.4978  0.1239
  226MOL0     H30461   6.519   8.062   9.038 -1.1520  0.6586 -0.4167
  226MOL0     H30462   6.360   7.737   9.177  0.8923  0.2282  1.1292
  226MOL0     H30463   6.403   7.798   9.007 -2.2040 -0.4941 -0.2469
  226MOL0     H30464   6.630   7.848   9.078 -0.3135  1.2461  1.4905
  226MOL0     H30465   6.594   7.834   9.240 -1.9747  3.0271 -0.8018
  226MOL0     H30466   6.508   7.577   9.137 -0.2516  1.0097  4.1204
  226MOL0     H30467   6.679   7.593   9.156  0.9045  1.0278 -0.8587
  226MOL0     H30468   6.701   7.702   8.933 -1.3346  2.9261  2.3884
  226MOL0     H30469   6.534   7.634   8.898  2.4391 -0.6428 -2.7634
  226MOL0     H30470   6.489   7.415   8.784  0.4557  0.8783  0.9089
  226MOL0     H30471   6.393   7.179   8.817  0.5094  0.3202 -0.3637
  226MOL0     H30472   6.301   6.834   9.209 -0.3354  1.9561 -2.3471
  226MOL0     H30473   6.211   6.594   9.203  0.3411  0.7496  0.6282
  226MOL0     H30474   6.399   6.292   9.178  0.5656  0.8610 -0.6418
  226MOL0     H30475   6.239   6.349   9.226  1.2256  2.1908 -0.7444
  226MOL0     H30476   6.113   6.196   9.091 -0.6712 -0.2916  3.3580
  226MOL0     H30477   6.261   6.162   8.991 -0.2097 -0.1943  0.1512
  226MOL0     H30478   6.175   5.971   9.127 -0.8160 -1.1113  1.4448
  226MOL0     H30479   6.348   6.021   9.152 -0.9670 -0.7443 -1.2109
  226MOL0     H30480   6.257   6.154   9.353 -2.2543  1.0937  0.8564
  226MOL0     H30481   6.250   5.990   9.376 -1.5011 -1.7185 -1.0758
  226MOL0     H30482   6.019   5.982   9.285 -1.7351  0.1068  0.5465
  226MOL0     H30483   6.018   6.153   9.259  3.3634  0.8446 -1.5858
  226MOL0     H30484   6.048   6.005   9.521  0.7772  0.1935  1.6497
  226MOL0     H30485   6.073   6.182   9.523 -2.3288  0.9299  2.3740
  226MOL0     H30486   5.830   6.021   9.488  1.4181 -0.1522 -0.9111
  226MOL0     H30487   5.826   6.171   9.389  0.5688  0.6077 -0.1101
  226MOL0     H30488   5.831   6.303   9.567 -3.2753 -1.1100 -2.8894
  226MOL0     H30489   5.706   6.186   9.613 -0.6986 -1.2011 -3.7751
  226MOL0     H30490   6.511   6.491   8.925  2.6256  1.8095 -0.1221
  226MOL0     H30491   6.609   6.692   8.949 -0.0802 -1.3227 -0.2486
  226MOL0     H30492   6.669   7.113   9.140 -1.6990 -2.1741 -0.9100
  226MOL0     H30493   6.742   7.360   9.103 -0.1290  2.2847 -0.6136
  226MOL0     H30494   7.203   8.906   9.535  0.8064 -1.1048  0.9685
  226MOL0     H30495   7.434   9.003   9.547  1.8136  1.0408 -2.1507
  226MOL0     H30496   7.767   9.184   9.378  1.0594 -0.0669 -1.8279
  226MOL0     H30497   7.980   9.287   9.428 -0.6668 -0.0726 -0.1598
  226MOL0     H30498   8.157   9.347   9.445  0.6137 -0.3085 -0.5654
  226MOL0     H30499   8.308   9.325   9.541  0.0525 -3.4361  0.4300
  226MOL0     H30500   8.126   9.341   9.743  1.5400  2.2345  2.2414
  226MOL0     H30501   8.045   9.437   9.621 -1.4970 -0.8545  1.6906
  226MOL0     H30502   8.281   9.560   9.614  2.6198  1.7110  2.9745
  226MOL0     H30503   8.296   9.460   9.761 -1.5946  0.1160  0.9440
  226MOL0     H30504   8.094   9.688   9.730 -0.5827 -0.3911 -0.2405
  226MOL0     H30505   8.063   9.559   9.839  0.4479 -1.0159  0.0800
  226MOL0     H30506   8.406   9.761  10.008  0.7457 -2.0591 -0.9880
  226MOL0     H30507   8.139   8.934   9.578  2.3771  0.6841 -4.5243
  226MOL0     H30508   7.894   8.718   9.459  0.6394  1.5123 -1.3672
  226MOL0     H30509   8.050   8.738   9.536 -0.1956  1.7666 -1.7543
  226MOL0     H30510   7.901   8.758   9.641 -3.2073  1.4791 -0.3489
  227MOL0     O30511   5.405   0.367   7.654  0.2439  0.8204 -0.5738
  227MOL0     C30512   5.432   0.326   7.767  0.6613  0.6724 -0.0807
  227MOL0     O30513   5.540   0.259   7.796  0.0164 -0.5450 -0.6417
  227MOL0     C30514   5.661   0.256   7.722 -0.2456  0.9648 -0.4756
  227MOL0     C30515   5.766   0.165   7.769 -0.4046 -0.7577 -0.1557
  227MOL0     C30516   5.881   0.159   7.694 -0.1262  0.1825  0.3907
  227MOL0     C30517   5.903   0.240   7.586 -0.4465  0.1052 -0.2134
  227MOL0     O30518   6.031   0.222   7.528  0.2485  0.5211 -0.4459
  227MOL0     C30519   6.026   0.254   7.387 -0.3077  0.4077  0.8335
  227MOL0     C30520   6.151   0.193   7.310  0.3126  0.1992  0.4241
  227MOL0     C30521   6.283   0.264   7.341 -0.2852 -0.3291  0.5544
  227MOL0     C30522   6.301   0.416   7.300  0.1071  0.0440  0.0405
  227MOL0     C30523   6.294   0.446   7.152  0.3560  1.5855 -0.3493
  227MOL0     C30524   6.347   0.590   7.129 -0.0802 -0.1970  0.2611
  227MOL0     C30525   6.289   0.636   6.995  0.8521  0.6035  0.7064
  227MOL0     C30526   6.316   0.785   6.962 -0.8011 -0.0708  0.7724
  227MOL0     N30527   6.452   0.800   6.911 -0.1099 -0.4719  0.3789
  227MOL0     C30528   6.504   0.755   6.790  0.3936 -0.0634 -0.2963
  227MOL0     C30529   6.638   0.767   6.810 -0.2271 -0.0020 -0.0952
  227MOL0     C30530   6.729   0.731   6.703 -1.5030 -0.0531  0.2914
  227MOL0     C30531   6.728   0.578   6.668 -0.3323  0.7343  0.0653
  227MOL0     C30532   6.863   0.523   6.602  0.3140 -0.4511  0.6538
  227MOL0     C30533   6.985   0.549   6.686  0.1133  1.1091  0.1083
  227MOL0     O30534   7.001   0.457   6.798 -0.7307 -0.8657 -0.0605
  227MOL0     C30535   7.103   0.361   6.789  0.8926  0.0212 -0.0914
  227MOL0     C30536   7.149   0.310   6.912 -0.1888 -0.3464  1.2518
  227MOL0     C30537   7.255   0.212   6.914 -0.3739  0.3845 -0.0165
  227MOL0     C30538   7.295   0.152   6.786 -0.1469  0.0286  0.2116
  227MOL0     C30539   7.397   0.052   6.789  0.1438  0.3146  0.1645
  227MOL0     O30540   7.429   0.011   6.918  0.3112 -0.1673 -0.2125
  227MOL0     C30541   7.564  -0.033   6.936  0.6056 -0.4007  0.5803
  227MOL0     C30542   7.621  -0.132   6.849  0.2443 -0.8017 -0.1874
  227MOL0     C30543   7.748  -0.182   6.881 -0.9132 -0.2378  0.1131
  227MOL0     C30544   7.819  -0.142   6.995  0.0487 -0.0386 -0.1272
  227MOL0     O30545   7.945  -0.189   7.019 -0.3943  0.0706 -0.2967
  227MOL0     C30546   7.965  -0.278   7.128  0.5918 -0.9902 -1.0328
  227MOL0     C30547   7.937  -0.211   7.263  0.2861 -0.2101  0.9737
  227MOL0     C30548   8.007  -0.296   7.372 -0.0381  0.7258 -0.0388
  227MOL0     C30549   8.154  -0.267   7.377 -0.1965  0.5731 -0.7272
  227MOL0     C30550   8.233  -0.386   7.449  0.5953  0.8664  0.3485
  227MOL0     C30551   8.162  -0.438   7.575 -0.1532  0.7436 -0.2876
  227MOL0     C30552   8.153  -0.331   7.686 -0.0789  0.0106  0.5743
  227MOL0     C30553   8.175  -0.383   7.816  1.1849  0.3734 -0.5633
  227MOL0    Cl30554   8.178  -0.250   7.934 -0.5432 -0.1626 -0.4467
  227MOL0     C30555   7.763  -0.042   7.082  0.1037  0.0572  0.0753
  227MOL0     C30556   7.631   0.004   7.047  0.0587 -0.4992 -0.9379
  227MOL0     O30557   7.447   0.007   6.680  0.5879 -0.0970  0.8678
  227MOL0     C30558   7.239   0.195   6.666 -0.8715  0.1806  0.8131
  227MOL0     C30559   7.142   0.297   6.667  0.3870  0.5244  0.4503
  227MOL0     N30560   6.667   0.829   6.930 -0.4203 -0.6245  0.3346
  227MOL0     N30561   6.555   0.829   6.995  0.4343  0.3208  0.0504
  227MOL0     C30562   5.804   0.328   7.544 -0.4236  0.2567 -0.3069
  227MOL0     C30563   5.690   0.338   7.618  1.2754  0.6451  0.6058
  227MOL0     C30564   5.340   0.352   7.874 -0.5712 -0.3787  0.0417
  227MOL0     C30565   5.210   0.398   7.837  0.3809  0.4927  0.2627
  227MOL0     C30566   5.103   0.400   7.929  0.4303 -1.0027  0.9604
  227MOL0     C30567   5.122   0.361   8.060  0.0070 -0.1551  0.3380
  227MOL0     O30568   5.017   0.351   8.152 -0.2612  0.6141 -1.0361
  227MOL0     C30569   4.887   0.376   8.116 -0.2231 -0.2134 -0.2903
  227MOL0     C30570   4.831   0.248   8.058  0.8952 -0.0776  0.2834
  227MOL0     C30571   4.783   0.154   8.173 -0.1120 -0.1388  0.3269
  227MOL0     C30572   4.745   0.019   8.119  0.5089 -0.0103  0.3463
  227MOL0     C30573   4.673  -0.060   8.226 -0.4468 -0.0108 -0.4528
  227MOL0     C30574   4.614  -0.114   8.316  0.4149 -0.6997 -0.6651
  227MOL0     C30575   5.251   0.326   8.106 -0.6987 -0.8321  0.0895
  227MOL0     C30576   5.359   0.320   8.011 -0.1430  0.3360 -0.8876
  227MOL0     C30577   5.495   0.282   8.070  0.9345 -0.4626  0.0225
  227MOL0     H30578   5.741   0.092   7.845  0.3872 -0.3852  0.4727
  227MOL0     H30579   5.964   0.097   7.726  1.0234  1.8459  0.8008
  227MOL0     H30580   5.943   0.196   7.348 -1.3373  2.2121  0.2634
  227MOL0     H30581   6.002   0.356   7.358 -2.3484 -0.1907  0.2848
  227MOL0     H30582   6.150   0.205   7.201  3.1959  1.2492  0.4249
  227MOL0     H30583   6.153   0.086   7.335  3.6125 -0.0251 -0.3193
  227MOL0     H30584   6.357   0.196   7.298 -0.5757 -1.3522  1.6076
  227MOL0     H30585   6.289   0.258   7.450  1.7180  3.1610  0.7726
  227MOL0     H30586   6.228   0.476   7.354  1.9069  1.3882  1.0980
  227MOL0     H30587   6.397   0.450   7.341  1.2781 -1.5108 -1.2759
  227MOL0     H30588   6.344   0.366   7.097 -1.7503  0.0270 -0.1301
  227MOL0     H30589   6.189   0.437   7.121  0.2451  1.2347  0.1290
  227MOL0     H30590   6.342   0.666   7.207  1.4572  0.0620  0.1497
  227MOL0     H30591   6.456   0.577   7.135 -0.2605 -1.1980  1.8515
  227MOL0     H30592   6.181   0.617   6.994  0.5016  1.3730 -4.6194
  227MOL0     H30593   6.333   0.569   6.920  1.1071  0.3822  1.0498
  227MOL0     H30594   6.253   0.807   6.875  0.8467 -0.1074 -0.4671
  227MOL0     H30595   6.306   0.855   7.046 -1.7423 -0.5394  1.0683
  227MOL0     H30596   6.462   0.713   6.699  1.7390 -1.8016 -0.1736
  227MOL0     H30597   6.704   0.786   6.612  1.3917  0.6185 -0.2011
  227MOL0     H30598   6.826   0.762   6.743 -0.7345  0.4824 -1.8372
  227MOL0     H30599   6.711   0.521   6.759 -0.1798 -1.6986 -1.3606
  227MOL0     H30600   6.654   0.547   6.594 -0.8490  2.9570 -0.4505
  227MOL0     H30601   6.877   0.566   6.503 -1.0461  1.1003  1.0837
  227MOL0     H30602   6.846   0.415   6.594  0.4908 -0.5958  1.9296
  227MOL0     H30603   6.986   0.650   6.729 -1.0198 -0.1411  3.3944
  227MOL0     H30604   7.074   0.553   6.622  1.1041 -0.1252  1.3647
  227MOL0     H30605   7.097   0.348   7.000 -4.2569  0.8929 -1.3811
  227MOL0     H30606   7.297   0.177   7.007  1.9666 -3.7802 -2.3270
  227MOL0     H30607   7.553  -0.181   6.780 -4.0434  0.0367  3.0169
  227MOL0     H30608   7.780  -0.251   6.803 -0.6368 -0.1290  0.1299
  227MOL0     H30609   7.915  -0.375   7.113  0.0129 -1.1912  1.6778
  227MOL0     H30610   8.073  -0.289   7.119  0.6942 -0.2669 -0.7068
  227MOL0     H30611   7.971  -0.107   7.262  0.7176 -0.3447 -0.6798
  227MOL0     H30612   7.830  -0.203   7.286 -0.4400 -4.9572  0.2807
  227MOL0     H30613   7.959  -0.270   7.467 -1.4529 -2.4754  0.2693
  227MOL0     H30614   8.000  -0.399   7.337 -0.8426  0.6550  0.2886
  227MOL0     H30615   8.176  -0.171   7.425 -0.2166 -0.1244  0.7222
  227MOL0     H30616   8.203  -0.250   7.281 -3.7273 -1.9978 -3.2153
  227MOL0     H30617   8.331  -0.343   7.474  0.1822  0.8306  2.2414
  227MOL0     H30618   8.238  -0.467   7.375  0.8374  2.2376 -1.1717
  227MOL0     H30619   8.060  -0.468   7.550  1.2269 -2.7883 -2.5836
  227MOL0     H30620   8.213  -0.532   7.597 -1.7991 -0.4703 -1.4161
  227MOL0     H30621   8.054  -0.286   7.694  0.3987  1.7400 -1.8848
  227MOL0     H30622   8.230  -0.254   7.672  2.1408 -1.5280  3.3671
  227MOL0     H30623   8.092  -0.446   7.848  0.0274  2.4576  0.7267
  227MOL0     H30624   8.272  -0.435   7.815  3.5515  4.3157  0.3363
  227MOL0     H30625   7.813  -0.015   7.175  0.1130 -0.2051  0.1471
  227MOL0     H30626   7.575   0.058   7.123  1.8352 -1.2065  0.9705
  227MOL0     H30627   7.271   0.162   6.568  1.5107  1.7978  0.9596
  227MOL0     H30628   7.103   0.331   6.572  1.6312 -0.1180 -0.3269
  227MOL0     H30629   5.817   0.405   7.469 -1.7391 -0.1513 -0.9970
  227MOL0     H30630   5.619   0.415   7.591  0.6785 -0.3271 -0.6557
  227MOL0     H30631   5.191   0.435   7.737  0.2417 -0.2746 -0.0031
  227MOL0     H30632   5.002   0.413   7.893  1.2490 -1.9314 -1.9237
  227MOL0     H30633   4.869   0.457   8.045  2.7056 -1.5990 -2.8753
  227MOL0     H30634   4.826   0.410   8.200  0.0406  1.4075 -0.7248
  227MOL0     H30635   4.898   0.205   7.983 -0.7148 -0.1960 -1.1587
  227MOL0     H30636   4.740   0.280   8.006  0.4868 -1.6154  0.0172
  227MOL0     H30637   4.706   0.206   8.231 -0.7139  0.1444 -0.7048
  227MOL0     H30638   4.867   0.137   8.242  1.3934  0.5106 -1.2621
  227MOL0     H30639   4.683   0.049   8.034  0.4501 -0.9768  0.0386
  227MOL0     H30640   4.835  -0.028   8.077  1.3602  0.7582  1.2571
  227MOL0     H30641   4.560  -0.170   8.390 -0.8409  1.5904  0.2571
  227MOL0     H30642   5.273   0.294   8.207  0.5839 -1.3456 -0.3321
  227MOL0     H30643   5.522   0.179   8.046 -3.2807 -2.0345  1.0385
  227MOL0     H30644   5.568   0.351   8.027  2.1561 -0.2012  2.3502
  227MOL0     H30645   5.494   0.313   8.175 -0.0468 -0.5811  0.0623
  228MOL0     O30646   7.913   6.685   2.698  0.2989 -0.0065  0.7394
  228MOL0     C30647   8.032   6.673   2.710  0.0056  0.0830  0.1990
  228MOL0     O30648   8.104   6.599   2.626  0.7119  0.3242  0.0797
  228MOL0     C30649   8.051   6.571   2.504 -0.4449  0.1135  0.4297
  228MOL0     C30650   8.024   6.669   2.408  0.1102 -0.3710 -0.3030
  228MOL0     C30651   7.958   6.638   2.288 -0.1940 -1.0273 -0.5252
  228MOL0     C30652   7.906   6.515   2.266 -0.1043  0.6477  0.6876
  228MOL0     O30653   7.852   6.485   2.152  0.5892  0.2214 -0.3390
  228MOL0     C30654   7.720   6.416   2.162 -0.6291 -0.6444  0.5664
  228MOL0     C30655   7.638   6.451   2.040  0.3184 -0.0287  0.1238
  228MOL0     C30656   7.526   6.346   2.029 -0.5673 -0.1177 -0.3008
  228MOL0     C30657   7.403   6.381   1.950  0.7335  0.0940  0.2343
  228MOL0     C30658   7.320   6.258   1.936  0.1930  0.7446 -0.3073
  228MOL0     C30659   7.176   6.280   1.891 -0.1430  0.5762  0.5293
  228MOL0     C30660   7.106   6.148   1.844  0.6685 -0.6179 -0.2095
  228MOL0     C30661   7.094   6.151   1.694 -0.3338 -0.0130  0.1263
  228MOL0     N30662   7.052   6.029   1.621  0.4109  0.7593 -0.0544
  228MOL0     C30663   6.926   6.017   1.555 -0.0989  0.2260 -0.3823
  228MOL0     C30664   6.900   5.887   1.542 -0.1020  0.2069 -0.0515
  228MOL0     C30665   6.776   5.819   1.481 -0.3664 -0.4811 -0.8283
  228MOL0     C30666   6.659   5.812   1.582 -0.2643  0.5401 -0.6023
  228MOL0     C30667   6.529   5.784   1.502  0.1725 -0.6093 -0.2923
  228MOL0     C30668   6.410   5.736   1.591  0.0165  0.0623  0.5145
  228MOL0     O30669   6.374   5.596   1.618  0.3141 -0.2987  0.0482
  228MOL0     C30670   6.384   5.518   1.511 -0.7484 -0.5207 -0.0660
  228MOL0     C30671   6.503   5.463   1.469 -0.5536  0.5215  0.5230
  228MOL0     C30672   6.505   5.382   1.350 -0.4729 -0.0114 -0.3005
  228MOL0     C30673   6.391   5.362   1.275  0.2236 -0.1716 -0.0175
  228MOL0     C30674   6.387   5.278   1.148 -0.6769 -0.1225  0.5158
  228MOL0     O30675   6.262   5.270   1.089 -0.0916 -0.7483 -0.3269
  228MOL0     C30676   6.270   5.277   0.950  0.3796 -0.6035 -1.1491
  228MOL0     C30677   6.246   5.406   0.896  0.6832  1.0170  0.8766
  228MOL0     C30678   6.268   5.413   0.765  0.5128 -0.9417  1.4964
  228MOL0     C30679   6.292   5.314   0.675 -0.0401 -0.1776 -0.5654
  228MOL0     O30680   6.291   5.344   0.536 -0.2604  0.6241 -0.3183
  228MOL0     C30681   6.304   5.238   0.441  0.5460 -0.0519 -0.1375
  228MOL0     C30682   6.280   5.278   0.294  0.4700  0.2049 -0.1170
  228MOL0     C30683   6.386   5.380   0.239  0.6724  0.1662 -0.7742
  228MOL0     C30684   6.536   5.364   0.282 -0.1306  0.3683  0.1880
  228MOL0     C30685   6.644   5.443   0.201  0.0304  0.0178  0.3372
  228MOL0     C30686   6.673   5.387   0.061 -0.3585 -0.0258 -0.3863
  228MOL0     C30687   6.774   5.476  -0.007  0.1106  0.4373  0.9747
  228MOL0     C30688   6.804   5.417  -0.146  0.3557  1.4219  0.8327
  228MOL0    Cl30689   6.879   5.256  -0.131 -0.1956 -0.0537  0.2219
  228MOL0     C30690   6.321   5.190   0.734 -1.0351  0.6300  0.0572
  228MOL0     C30691   6.310   5.172   0.871 -0.0627  0.6155  0.9850
  228MOL0     O30692   6.494   5.229   1.096  0.2673  0.0012  0.0667
  228MOL0     C30693   6.275   5.422   1.321  0.1188 -0.0326  0.2434
  228MOL0     C30694   6.271   5.487   1.439 -0.4846 -0.7066 -0.3731
  228MOL0     N30695   7.016   5.822   1.590  0.2904 -0.1197  0.3256
  228MOL0     N30696   7.101   5.899   1.640  0.6832  0.4122  0.2218
  228MOL0     C30697   7.931   6.410   2.359  0.0045 -0.4015  0.3336
  228MOL0     C30698   8.001   6.440   2.475 -0.2497  0.0638  0.4454
  228MOL0     C30699   8.099   6.723   2.826  0.3920  0.6538 -1.1120
  228MOL0     C30700   8.029   6.805   2.910 -1.0459  0.0083 -0.2320
  228MOL0     C30701   8.085   6.872   3.022 -0.1916  0.0645  0.5734
  228MOL0     C30702   8.220   6.855   3.052  0.8301  1.2390 -0.6426
  228MOL0     O30703   8.260   6.923   3.164 -0.4172 -0.2088 -0.4781
  228MOL0     C30704   8.386   6.905   3.231  0.7867 -0.2893 -0.2538
  228MOL0     C30705   8.363   6.825   3.362 -0.5004 -0.1309  0.4529
  228MOL0     C30706   8.333   6.676   3.349 -0.5177  0.8405  0.2989
  228MOL0     C30707   8.304   6.629   3.495  0.1850  0.7079 -1.2537
  228MOL0     C30708   8.268   6.483   3.489 -0.7472 -0.2832 -0.5542
  228MOL0     C30709   8.256   6.364   3.498  0.6066 -0.2455 -0.3199
  228MOL0     C30710   8.291   6.779   2.963 -0.0989 -0.0769  0.5489
  228MOL0     C30711   8.240   6.708   2.859  0.0582 -0.4474  0.0751
  228MOL0     C30712   8.344   6.623   2.770 -0.4509  0.4971 -0.0211
  228MOL0     H30713   8.044   6.772   2.435 -1.2498 -0.0558 -0.4372
  228MOL0     H30714   7.946   6.715   2.212  3.0721 -0.5828 -0.7485
  228MOL0     H30715   7.735   6.307   2.163  2.5405 -0.2863  1.3018
  228MOL0     H30716   7.667   6.452   2.251 -1.9828 -2.6331  0.6524
  228MOL0     H30717   7.707   6.452   1.955 -0.0366  0.9822 -0.1607
  228MOL0     H30718   7.600   6.553   2.044 -0.9487 -0.4819  0.0796
  228MOL0     H30719   7.502   6.326   2.134  3.8701  1.0328  1.1579
  228MOL0     H30720   7.577   6.259   1.986 -1.5209 -0.6692 -0.3405
  228MOL0     H30721   7.343   6.461   1.996 -0.1676 -0.6643  0.4165
  228MOL0     H30722   7.433   6.410   1.849  0.6714 -2.3056 -0.5272
  228MOL0     H30723   7.364   6.198   1.856  0.6937 -0.3727  0.7709
  228MOL0     H30724   7.315   6.200   2.029 -0.0555  1.5494  0.1903
  228MOL0     H30725   7.138   6.331   1.980  1.9971 -0.0123  1.8578
  228MOL0     H30726   7.184   6.364   1.822 -1.0861  3.1118  3.2962
  228MOL0     H30727   7.005   6.146   1.886  0.0971 -0.2104 -1.5152
  228MOL0     H30728   7.154   6.054   1.873  0.9180 -0.7602 -1.0565
  228MOL0     H30729   7.012   6.218   1.665  0.6180  0.1063 -2.5177
  228MOL0     H30730   7.191   6.183   1.655 -0.5161  0.8829  0.3810
  228MOL0     H30731   6.855   6.096   1.532 -2.6185 -1.1140  2.0115
  228MOL0     H30732   6.752   5.886   1.398  2.6147 -1.0732 -2.2953
  228MOL0     H30733   6.794   5.720   1.438  2.0381  1.0699 -3.8004
  228MOL0     H30734   6.674   5.717   1.634  0.4101  0.5220 -0.8211
  228MOL0     H30735   6.641   5.898   1.647 -2.7816 -0.4607  0.1539
  228MOL0     H30736   6.545   5.718   1.416 -0.2872 -1.2931  0.1305
  228MOL0     H30737   6.489   5.879   1.465 -1.6917 -1.1025  0.3427
  228MOL0     H30738   6.324   5.771   1.534 -0.5977  1.3131  2.1130
  228MOL0     H30739   6.424   5.794   1.683 -2.2221 -0.1958  1.0767
  228MOL0     H30740   6.599   5.488   1.514 -0.2907 -1.9911  1.5315
  228MOL0     H30741   6.603   5.348   1.317  0.9196  1.9236  1.5120
  228MOL0     H30742   6.221   5.487   0.963 -1.0970  4.1703 -3.1554
  228MOL0     H30743   6.254   5.510   0.718  1.5245 -0.6521  1.7476
  228MOL0     H30744   6.400   5.184   0.444 -0.0021 -1.7036 -4.4836
  228MOL0     H30745   6.227   5.170   0.478  0.1955 -0.9220 -2.2937
  228MOL0     H30746   6.297   5.196   0.224 -0.3405 -1.3415  1.4245
  228MOL0     H30747   6.177   5.314   0.284  1.7558  3.7242 -2.7311
  228MOL0     H30748   6.392   5.369   0.130  1.1591  0.5129 -0.7883
  228MOL0     H30749   6.368   5.485   0.264  0.2434 -0.2785  0.8681
  228MOL0     H30750   6.556   5.257   0.267 -1.0110 -0.4266  3.7377
  228MOL0     H30751   6.561   5.374   0.388  1.4034 -0.3934 -0.0747
  228MOL0     H30752   6.742   5.439   0.250 -0.2634  2.9618  1.3722
  228MOL0     H30753   6.620   5.550   0.202  2.6314  0.6607  1.1818
  228MOL0     H30754   6.702   5.281   0.065  1.5277  0.4917  0.8956
  228MOL0     H30755   6.578   5.387   0.006 -0.6544 -0.7987  0.1007
  228MOL0     H30756   6.861   5.481   0.059  3.3977 -5.2632 -2.1387
  228MOL0     H30757   6.729   5.576  -0.001 -1.5862 -0.2778  0.7483
  228MOL0     H30758   6.725   5.404  -0.220  0.1686  0.7907  1.1327
  228MOL0     H30759   6.874   5.483  -0.198  0.6590  0.4499 -0.0377
  228MOL0     H30760   6.360   5.108   0.673 -2.5151 -0.1044  0.0642
  228MOL0     H30761   6.341   5.081   0.920 -0.7551  0.5367  1.2850
  228MOL0     H30762   6.183   5.417   1.263  0.0572  0.7343  0.2603
  228MOL0     H30763   6.182   5.536   1.478 -0.2806  0.8011 -1.6445
  228MOL0     H30764   7.906   6.308   2.333  0.9094  0.0534 -2.6427
  228MOL0     H30765   8.004   6.371   2.559 -1.2145 -2.7579 -1.6785
  228MOL0     H30766   7.924   6.819   2.885 -1.1151 -1.8932 -1.2524
  228MOL0     H30767   8.019   6.941   3.073  2.7058  0.8000  3.6117
  228MOL0     H30768   8.426   7.002   3.263  2.7700 -1.2594  0.4004
  228MOL0     H30769   8.462   6.850   3.173  1.7481 -1.5296  2.0279
  228MOL0     H30770   8.279   6.870   3.415 -0.3766  0.4173  0.1879
  228MOL0     H30771   8.458   6.842   3.413 -0.0341  0.0536 -0.4619
  228MOL0     H30772   8.425   6.617   3.338 -1.0112  0.1441 -0.1553
  228MOL0     H30773   8.259   6.653   3.271 -0.7989  3.1662 -0.1920
  228MOL0     H30774   8.389   6.653   3.560 -0.3727  1.1994 -0.6943
  228MOL0     H30775   8.223   6.698   3.520 -0.7016 -0.2294 -1.5069
  228MOL0     H30776   8.245   6.258   3.502 -0.5568 -0.1328  0.1139
  228MOL0     H30777   8.398   6.770   2.979  0.3858  0.9301 -1.7403
  228MOL0     H30778   8.339   6.649   2.664 -1.1757 -1.7777 -0.6123
  228MOL0     H30779   8.447   6.646   2.797  0.9226 -0.6092 -3.6856
  228MOL0     H30780   8.324   6.516   2.781 -3.6023  1.0339  0.4954
  229MOL0     O30781   7.320   1.418   3.302  0.0643 -0.4341 -0.1369
  229MOL0     C30782   7.410   1.360   3.362  0.3794 -0.9219  0.2370
  229MOL0     O30783   7.530   1.404   3.400 -1.0548  0.0207  0.9353
  229MOL0     C30784   7.566   1.532   3.391 -0.5315  0.0118 -0.7459
  229MOL0     C30785   7.483   1.644   3.396 -0.2353 -0.1096 -0.5573
  229MOL0     C30786   7.534   1.762   3.333 -0.2759  0.2700 -0.3366
  229MOL0     C30787   7.664   1.768   3.283  0.1410 -0.2143 -0.3554
  229MOL0     O30788   7.699   1.889   3.238  0.6016 -0.3401  0.0730
  229MOL0     C30789   7.799   1.895   3.133  0.6028  0.0784 -0.0770
  229MOL0     C30790   7.812   2.042   3.095 -0.7234  0.5826  0.0623
  229MOL0     C30791   7.864   2.142   3.197 -0.3020 -0.3267 -0.1916
  229MOL0     C30792   7.998   2.107   3.271  0.8685 -0.1155  0.3516
  229MOL0     C30793   8.058   2.228   3.344  0.0930  0.0602  0.0776
  229MOL0     C30794   8.159   2.188   3.454  0.3341  0.8170  0.4256
  229MOL0     C30795   8.289   2.110   3.407  0.2717 -0.2060  0.3733
  229MOL0     C30796   8.392   2.094   3.512 -0.4464 -0.1854 -1.0711
  229MOL0     N30797   8.509   2.025   3.467  0.6705  0.5938 -1.0871
  229MOL0     C30798   8.602   2.085   3.381 -0.0809 -0.5328  0.2470
  229MOL0     C30799   8.674   1.981   3.330  0.2408  0.2236  0.8120
  229MOL0     C30800   8.779   1.996   3.213 -0.3213  0.0723 -0.3035
  229MOL0     C30801   8.918   1.953   3.258  0.8097  0.5713 -0.3723
  229MOL0     C30802   8.967   2.031   3.383  0.5899  0.2399  0.2828
  229MOL0     C30803   9.116   2.005   3.418 -0.6370  1.0075  0.0511
  229MOL0     O30804   9.133   1.873   3.469 -0.2634 -0.4842  0.3165
  229MOL0     C30805   9.246   1.819   3.521  0.3213 -0.2556  0.5938
  229MOL0     C30806   9.233   1.690   3.561  0.0167 -0.0191 -0.2650
  229MOL0     C30807   9.341   1.632   3.629 -0.0065  0.8398  0.3851
  229MOL0     C30808   9.456   1.706   3.662  0.1030  0.2279 -0.0657
  229MOL0     C30809   9.552   1.640   3.753 -0.1824 -0.2353 -0.9614
  229MOL0     O30810   9.673   1.709   3.790 -0.0530 -0.7058 -0.4583
  229MOL0     C30811   9.745   1.635   3.877  0.7029 -0.6979  0.4873
  229MOL0     C30812   9.748   1.660   4.016 -1.2896 -0.3404  0.2352
  229MOL0     C30813   9.834   1.590   4.105  0.4149  0.2095 -0.0498
  229MOL0     C30814   9.914   1.493   4.054 -0.1510 -0.4752  0.7748
  229MOL0     O30815  10.009   1.431   4.131  0.4820  0.9820 -0.2915
  229MOL0     C30816   9.966   1.362   4.253  1.2768  0.4992  0.2604
  229MOL0     C30817   9.875   1.233   4.238 -0.1779 -0.1781 -0.4955
  229MOL0     C30818   9.874   1.177   4.378  0.3061  1.0325  0.3891
  229MOL0     C30819   9.796   1.052   4.394 -1.0571  0.2866  0.2764
  229MOL0     C30820   9.794   1.005   4.543 -0.1982  0.3757 -0.0306
  229MOL0     C30821   9.672   0.930   4.568  0.1114  0.9867 -0.2262
  229MOL0     C30822   9.677   0.866   4.711 -0.0974  0.2081 -0.1448
  229MOL0     C30823   9.552   0.772   4.725  0.4052  0.7357 -0.0381
  229MOL0    Cl30824   9.601   0.608   4.766 -0.6193 -0.0470 -0.4881
  229MOL0     C30825   9.910   1.460   3.915 -0.1307  0.6031  0.5214
  229MOL0     C30826   9.824   1.529   3.834 -1.1080 -0.2365  0.3465
  229MOL0     O30827   9.518   1.528   3.803 -0.3030 -0.4990 -0.1590
  229MOL0     C30828   9.467   1.836   3.616 -0.2512 -0.1181 -0.8212
  229MOL0     C30829   9.361   1.893   3.548 -0.4816  0.0285 -0.0228
  229MOL0     N30830   8.635   1.861   3.395 -0.4507  0.0994  0.7461
  229MOL0     N30831   8.543   1.895   3.477 -0.8139  0.3611 -0.8061
  229MOL0     C30832   7.745   1.659   3.292 -1.0095 -0.1758  0.4044
  229MOL0     C30833   7.695   1.539   3.345 -0.0743 -0.9607  0.0534
  229MOL0     C30834   7.402   1.213   3.386 -0.7250  0.1940  0.0604
  229MOL0     C30835   7.516   1.136   3.429 -0.0574 -0.1523 -0.0433
  229MOL0     C30836   7.519   0.996   3.445  0.2508  1.1057 -0.7017
  229MOL0     C30837   7.407   0.914   3.410  0.2505 -0.6244 -0.5219
  229MOL0     O30838   7.408   0.777   3.422 -0.1681  1.1702 -0.2321
  229MOL0     C30839   7.527   0.695   3.442  0.9836  0.6636 -1.1186
  229MOL0     C30840   7.486   0.552   3.453  0.3977 -0.2977  0.0660
  229MOL0     C30841   7.527   0.465   3.336  0.0005 -0.3208  0.3159
  229MOL0     C30842   7.461   0.491   3.205 -0.0616 -0.3384  0.4715
  229MOL0     C30843   7.569   0.492   3.102 -0.0401  0.0302  0.3892
  229MOL0     C30844   7.637   0.504   3.002  0.5887  1.4219  0.2612
  229MOL0     C30845   7.290   0.984   3.356  0.4352  0.0862 -0.6828
  229MOL0     C30846   7.288   1.126   3.349  1.0063 -0.2432 -0.1739
  229MOL0     C30847   7.152   1.173   3.295 -0.2713  0.1308  1.0557
  229MOL0     H30848   7.380   1.630   3.427 -0.3384  1.3203 -0.1762
  229MOL0     H30849   7.474   1.851   3.315  0.6089  0.5924 -1.8888
  229MOL0     H30850   7.893   1.858   3.174  0.0912 -0.5381  0.5645
  229MOL0     H30851   7.765   1.825   3.055 -1.7470  0.0922  0.8489
  229MOL0     H30852   7.708   2.068   3.070 -0.0365  3.1812 -0.4266
  229MOL0     H30853   7.867   2.050   3.001  1.1975 -2.6245  0.7972
  229MOL0     H30854   7.790   2.133   3.277 -0.4148  0.4124 -0.2129
  229MOL0     H30855   7.871   2.243   3.157  0.5568 -0.6505 -0.9053
  229MOL0     H30856   7.966   2.035   3.347 -3.1941 -2.6668 -3.3076
  229MOL0     H30857   8.071   2.058   3.207 -1.1696 -0.4827 -1.8201
  229MOL0     H30858   8.094   2.303   3.272 -1.7336 -0.5984 -1.6014
  229MOL0     H30859   7.975   2.274   3.398  0.0746 -1.5763  1.5299
  229MOL0     H30860   8.187   2.283   3.500  1.0145 -0.0942  1.9822
  229MOL0     H30861   8.108   2.125   3.527  0.5310 -0.2924 -0.3680
  229MOL0     H30862   8.335   2.169   3.327 -0.6799 -0.3194 -0.2790
  229MOL0     H30863   8.275   2.011   3.364  1.8772 -0.4403  0.3652
  229MOL0     H30864   8.408   2.195   3.552  2.9079 -0.4887 -1.3571
  229MOL0     H30865   8.341   2.037   3.590  0.7479  1.7750  1.3103
  229MOL0     H30866   8.615   2.188   3.348  3.3343 -1.1505 -0.8182
  229MOL0     H30867   8.746   1.921   3.141 -3.1940 -0.4016  1.3736
  229MOL0     H30868   8.784   2.096   3.168  0.6743  0.2263  0.1220
  229MOL0     H30869   8.899   1.849   3.287 -1.3399  0.7772 -0.8944
  229MOL0     H30870   8.992   1.967   3.179  3.0397  0.2206  1.5334
  229MOL0     H30871   8.902   1.998   3.465 -2.0977  2.1620 -0.9284
  229MOL0     H30872   8.951   2.135   3.354  1.3512 -0.4760 -3.0420
  229MOL0     H30873   9.144   2.072   3.500 -1.2222 -0.1261  1.2190
  229MOL0     H30874   9.164   2.017   3.321 -0.8405 -2.0859 -0.5348
  229MOL0     H30875   9.149   1.629   3.530  1.2796 -1.5429 -0.8324
  229MOL0     H30876   9.317   1.530   3.657 -0.4604  1.6028  3.0450
  229MOL0     H30877   9.686   1.746   4.041 -1.9760 -0.9439  0.6378
  229MOL0     H30878   9.813   1.620   4.207  0.3362  0.8995 -0.2649
  229MOL0     H30879  10.059   1.335   4.302  0.3266 -2.5337  0.6260
  229MOL0     H30880   9.918   1.437   4.316  3.5194  0.8718  1.6240
  229MOL0     H30881   9.771   1.250   4.208 -1.4355 -5.3391  0.0056
  229MOL0     H30882   9.920   1.171   4.160  3.1582  1.5644 -0.1235
  229MOL0     H30883   9.977   1.152   4.404 -0.3086  0.0088  2.0109
  229MOL0     H30884   9.844   1.252   4.452  0.5287 -0.1961  1.7580
  229MOL0     H30885   9.837   0.966   4.341 -1.1579  0.4421 -0.0606
  229MOL0     H30886   9.693   1.073   4.362 -0.3085  0.6443 -2.1602
  229MOL0     H30887   9.788   1.098   4.600  1.0468  0.7871 -0.5289
  229MOL0     H30888   9.892   0.959   4.561 -0.0290  1.6864  3.1731
  229MOL0     H30889   9.584   0.994   4.562 -0.6283  0.4966  3.2621
  229MOL0     H30890   9.681   0.852   4.491  0.4987 -0.3887  1.1566
  229MOL0     H30891   9.667   0.947   4.783  2.3604  0.6078 -0.1613
  229MOL0     H30892   9.775   0.816   4.714 -0.0921  0.2821  1.5198
  229MOL0     H30893   9.478   0.809   4.797 -0.9007 -1.4699 -0.1745
  229MOL0     H30894   9.502   0.759   4.628  2.0102 -1.9379 -0.5800
  229MOL0     H30895   9.973   1.375   3.890  2.4781  2.0005  1.8869
  229MOL0     H30896   9.812   1.509   3.728 -3.8237 -0.0727  0.5595
  229MOL0     H30897   9.561   1.884   3.641  1.0070 -2.6451 -0.4074
  229MOL0     H30898   9.355   1.992   3.503 -1.2562 -0.4613 -1.0172
  229MOL0     H30899   7.846   1.688   3.266 -1.6365  3.9228  1.7795
  229MOL0     H30900   7.768   1.459   3.352  2.0019  0.5160 -2.8336
  229MOL0     H30901   7.609   1.190   3.441  0.4235 -0.7078 -1.1691
  229MOL0     H30902   7.612   0.954   3.482 -0.3083  1.8519  1.7453
  229MOL0     H30903   7.571   0.740   3.532 -0.8512  0.1899  0.0908
  229MOL0     H30904   7.587   0.724   3.356  2.7216  0.1465 -0.1405
  229MOL0     H30905   7.377   0.554   3.460  0.0840 -3.0350 -2.1400
  229MOL0     H30906   7.532   0.522   3.548  0.4317  0.5597  0.3316
  229MOL0     H30907   7.509   0.359   3.353 -4.8195  0.0562 -1.0313
  229MOL0     H30908   7.635   0.473   3.319 -0.0675 -3.0641 -2.2341
  229MOL0     H30909   7.390   0.411   3.185  1.0395 -1.2645  0.1285
  229MOL0     H30910   7.413   0.589   3.203  1.1289  0.3003  1.6327
  229MOL0     H30911   7.697   0.487   2.915  1.1018 -1.3918  1.0601
  229MOL0     H30912   7.205   0.921   3.332 -1.2199  1.2232  1.7713
  229MOL0     H30913   7.073   1.098   3.296 -3.0848  2.8568 -0.2564
  229MOL0     H30914   7.117   1.260   3.350  0.0900  0.6943  0.4221
  229MOL0     H30915   7.174   1.208   3.193 -1.5577  1.8326  1.3134
  230MOL0     O30916   1.124   0.719   3.225  0.3531  0.7766 -0.3968
  230MOL0     C30917   1.057   0.619   3.194  0.0939 -0.4771  0.7567
  230MOL0     O30918   0.955   0.626   3.114  0.7622 -0.2993  0.3978
  230MOL0     C30919   0.932   0.728   3.034 -0.3391  0.6532  0.4131
  230MOL0     C30920   1.007   0.750   2.918  0.1063  0.4033  0.2544
  230MOL0     C30921   0.986   0.855   2.833 -0.1264  0.0743  0.3587
  230MOL0     C30922   0.892   0.951   2.874 -0.0824 -0.6595  0.3595
  230MOL0     O30923   0.863   1.055   2.784  0.4483 -0.6716 -0.1328
  230MOL0     C30924   0.786   1.172   2.834  0.0698 -0.3421 -0.0736
  230MOL0     C30925   0.796   1.278   2.718  0.3643  0.6896 -0.0033
  230MOL0     C30926   0.762   1.420   2.776  0.7148  0.4159 -1.2378
  230MOL0     C30927   0.876   1.527   2.781 -0.3273  0.6753 -0.3750
  230MOL0     C30928   0.807   1.651   2.802 -0.7292 -0.2277 -0.0474
  230MOL0     C30929   0.893   1.776   2.808 -0.3881  0.2960 -0.4073
  230MOL0     C30930   0.814   1.911   2.809 -0.5752  0.8502 -0.6036
  230MOL0     C30931   0.875   2.019   2.894  0.3231  0.0154  0.9775
  230MOL0     N30932   0.784   2.117   2.952  0.7727  0.5843 -0.5016
  230MOL0     C30933   0.667   2.178   2.894 -0.5454 -0.7582 -0.6011
  230MOL0     C30934   0.642   2.283   2.980  0.1021  0.9442 -0.4917
  230MOL0     C30935   0.516   2.368   2.986 -1.3599  0.9934 -0.6605
  230MOL0     C30936   0.385   2.287   3.021  0.5364  0.1499  0.6604
  230MOL0     C30937   0.273   2.381   3.065 -0.6593  0.2756 -0.4319
  230MOL0     C30938   0.272   2.418   3.208 -0.0101  0.6394 -0.1384
  230MOL0     O30939   0.182   2.530   3.227 -0.2079 -0.3925  0.5251
  230MOL0     C30940   0.207   2.606   3.335 -0.2331 -0.2239  0.5318
  230MOL0     C30941   0.182   2.748   3.319  0.0131  0.1776  0.1708
  230MOL0     C30942   0.212   2.830   3.422 -0.1633  0.8310 -0.3986
  230MOL0     C30943   0.268   2.782   3.544 -0.2572  0.1845 -0.6479
  230MOL0     C30944   0.316   2.874   3.651  0.3583 -0.3273  0.9382
  230MOL0     O30945   0.340   2.833   3.773  0.2282 -0.7044  0.6396
  230MOL0     C30946   0.375   2.922   3.867  0.0124  0.2313 -0.1955
  230MOL0     C30947   0.272   2.974   3.950 -0.4407 -0.3540  0.9675
  230MOL0     C30948   0.309   3.046   4.067  1.2056 -0.1323 -0.6153
  230MOL0     C30949   0.439   3.060   4.116 -0.5438  0.1464 -0.9034
  230MOL0     O30950   0.474   3.107   4.243  0.4021  0.6082 -0.1953
  230MOL0     C30951   0.380   3.097   4.361 -0.5060  0.6615  0.6907
  230MOL0     C30952   0.431   3.130   4.499  0.2972  0.6598 -0.4375
  230MOL0     C30953   0.566   3.070   4.545 -0.0299 -0.3861 -0.0038
  230MOL0     C30954   0.605   3.127   4.680  0.8658  0.0093 -0.3388
  230MOL0     C30955   0.765   3.125   4.706  1.1432 -0.2194 -0.1582
  230MOL0     C30956   0.802   2.976   4.719 -0.8632 -1.3289 -0.5169
  230MOL0     C30957   0.946   2.966   4.777  0.0374 -0.0360  0.6027
  230MOL0     C30958   1.002   2.824   4.792  0.1736 -0.2150  1.0595
  230MOL0    Cl30959   0.900   2.725   4.905  0.6003 -0.3586  0.3012
  230MOL0     C30960   0.542   3.020   4.029  0.5610  0.1364  0.5575
  230MOL0     C30961   0.504   2.952   3.905 -0.5306 -0.1641  0.2755
  230MOL0     O30962   0.315   2.991   3.621  0.2059 -0.2988  0.9088
  230MOL0     C30963   0.286   2.644   3.558  0.5552 -0.5802 -0.5137
  230MOL0     C30964   0.254   2.556   3.455 -0.5975  0.7469  0.0367
  230MOL0     N30965   0.740   2.292   3.066  0.5122 -0.0927 -0.5646
  230MOL0     N30966   0.822   2.195   3.054 -0.5612 -0.5492  0.3679
  230MOL0     C30967   0.831   0.936   2.998  0.0604  0.9214 -0.3961
  230MOL0     C30968   0.841   0.824   3.081  0.1471  0.3597  0.0634
  230MOL0     C30969   1.083   0.487   3.254 -0.3523  0.0660  0.9378
  230MOL0     C30970   0.995   0.379   3.204 -0.4589  0.8251 -0.6647
  230MOL0     C30971   1.019   0.253   3.250 -0.3831 -0.8089  0.9191
  230MOL0     C30972   1.119   0.221   3.340  0.9240 -0.8155 -0.0993
  230MOL0     O30973   1.146   0.089   3.354 -0.2164  0.1154  0.4262
  230MOL0     C30974   1.277   0.060   3.297  0.9835  0.3005  0.0469
  230MOL0     C30975   1.298  -0.080   3.346 -0.1409 -0.9492  0.3166
  230MOL0     C30976   1.327  -0.066   3.488  0.2778  0.2678  1.2473
  230MOL0     C30977   1.355  -0.202   3.555  0.4234  0.8574  0.4195
  230MOL0     C30978   1.331  -0.203   3.702 -0.1604  0.3462  0.4002
  230MOL0     C30979   1.319  -0.202   3.821  1.0280 -0.2503  0.0240
  230MOL0     C30980   1.205   0.329   3.384 -0.4195  0.6626 -0.7973
  230MOL0     C30981   1.188   0.461   3.347  0.2006 -0.1384  0.2649
  230MOL0     C30982   1.291   0.554   3.410  0.7729  0.8902  0.7321
  230MOL0     H30983   1.071   0.671   2.879 -1.3137 -1.3706  1.3231
  230MOL0     H30984   1.039   0.855   2.739 -0.2082 -0.0662  0.3132
  230MOL0     H30985   0.682   1.150   2.859  0.5898 -3.5119 -0.3262
  230MOL0     H30986   0.834   1.206   2.926 -2.3553 -1.9317  1.8961
  230MOL0     H30987   0.729   1.247   2.637 -1.2488 -1.1386  1.9283
  230MOL0     H30988   0.898   1.276   2.679  0.1943 -0.7924 -0.4454
  230MOL0     H30989   0.719   1.418   2.877  0.2716  2.3436 -1.3467
  230MOL0     H30990   0.681   1.456   2.712 -0.2553 -2.9738 -2.1160
  230MOL0     H30991   0.950   1.517   2.862 -0.2400  3.8761  0.0752
  230MOL0     H30992   0.928   1.534   2.685  2.3777  1.2923  1.0256
  230MOL0     H30993   0.731   1.654   2.723 -0.3985 -0.1236 -0.3625
  230MOL0     H30994   0.753   1.654   2.897  1.0641 -2.9530  1.1897
  230MOL0     H30995   0.966   1.765   2.889  1.6841  1.5648 -1.9958
  230MOL0     H30996   0.954   1.784   2.718  1.6525 -0.4344  0.8276
  230MOL0     H30997   0.719   1.889   2.858  0.9912 -2.5591  1.2927
  230MOL0     H30998   0.796   1.952   2.709 -1.1727 -0.1988 -0.9339
  230MOL0     H30999   0.930   1.968   2.973  0.1306  0.2481  1.2664
  230MOL0     H31000   0.949   2.071   2.832  0.4850 -2.0584 -0.6697
  230MOL0     H31001   0.599   2.142   2.818 -3.9742  0.3951  1.6705
  230MOL0     H31002   0.528   2.443   3.065 -2.5461  1.1143 -0.5751
  230MOL0     H31003   0.507   2.420   2.890  2.2312  2.2905 -0.4511
  230MOL0     H31004   0.365   2.235   2.927 -0.6939  1.0213  0.4088
  230MOL0     H31005   0.399   2.207   3.094 -2.0848 -1.2045 -0.1795
  230MOL0     H31006   0.182   2.322   3.053 -0.3789  0.1109 -2.0153
  230MOL0     H31007   0.271   2.474   3.007 -2.5666  0.8872  0.5265
  230MOL0     H31008   0.377   2.439   3.229  1.1217 -2.1782 -2.3611
  230MOL0     H31009   0.234   2.341   3.276 -2.3910  1.0927 -0.8690
  230MOL0     H31010   0.128   2.793   3.236 -0.8988 -0.4834  0.3765
  230MOL0     H31011   0.185   2.935   3.414 -2.1271  0.3823 -0.0874
  230MOL0     H31012   0.172   2.945   3.920 -0.1792 -2.7909  2.2074
  230MOL0     H31013   0.227   3.083   4.128  1.7218 -2.7233  1.8192
  230MOL0     H31014   0.291   3.156   4.338 -0.2169  0.6485 -0.5272
  230MOL0     H31015   0.341   2.995   4.361  2.5527 -0.6088 -0.7033
  230MOL0     H31016   0.446   3.238   4.511 -0.7036  0.5350  3.3945
  230MOL0     H31017   0.358   3.091   4.570 -1.0027  0.3828 -1.8844
  230MOL0     H31018   0.563   2.961   4.548 -0.3851 -0.4386 -1.4430
  230MOL0     H31019   0.634   3.104   4.466  0.2931 -0.2817  0.3147
  230MOL0     H31020   0.545   3.068   4.749 -2.0565  2.9399 -0.1337
  230MOL0     H31021   0.557   3.224   4.692 -3.3468 -2.0016  1.1768
  230MOL0     H31022   0.783   3.188   4.793 -3.3252  0.2533  0.6667
  230MOL0     H31023   0.817   3.181   4.628 -1.3293  1.2487 -0.8962
  230MOL0     H31024   0.731   2.934   4.792 -2.2567  0.5755 -0.7011
  230MOL0     H31025   0.790   2.915   4.629 -3.6469  0.1044 -1.2290
  230MOL0     H31026   0.947   3.021   4.871 -3.6119  3.1871 -0.9729
  230MOL0     H31027   0.998   3.028   4.704 -1.4509  1.2153  0.5468
  230MOL0     H31028   1.005   2.766   4.699 -0.1596  0.7498  0.4315
  230MOL0     H31029   1.104   2.838   4.828  0.4116 -0.5404  0.5255
  230MOL0     H31030   0.641   3.050   4.061  1.5251  0.2414 -2.2870
  230MOL0     H31031   0.580   2.926   3.833 -0.3311  0.1309  0.3764
  230MOL0     H31032   0.333   2.603   3.647 -1.0265 -2.5299 -0.4995
  230MOL0     H31033   0.273   2.451   3.475  3.3203  0.9861 -1.6492
  230MOL0     H31034   0.780   1.018   3.048  1.2658  1.5402 -0.1444
  230MOL0     H31035   0.806   0.823   3.184 -1.9443  0.9371 -0.5982
  230MOL0     H31036   0.911   0.389   3.137 -0.8094 -0.0358 -0.3643
  230MOL0     H31037   0.957   0.172   3.212  0.0718 -0.1127 -1.4442
  230MOL0     H31038   1.354   0.131   3.329  3.8181 -0.9118 -3.4636
  230MOL0     H31039   1.276   0.068   3.188  3.1200 -3.5229 -0.4375
  230MOL0     H31040   1.384  -0.125   3.297 -0.9019 -1.3148 -0.7135
  230MOL0     H31041   1.205  -0.132   3.323 -2.3354  2.3932  0.9328
  230MOL0     H31042   1.240  -0.030   3.544 -0.9085  0.5807 -0.6736
  230MOL0     H31043   1.408   0.006   3.499 -1.7900  2.8434  0.5437
  230MOL0     H31044   1.286  -0.268   3.501  1.4558  1.2785 -1.4861
  230MOL0     H31045   1.461  -0.226   3.546  0.1661 -0.0852 -0.2800
  230MOL0     H31046   1.312  -0.196   3.928  1.4578 -1.4828  0.1359
  230MOL0     H31047   1.285   0.307   3.454 -0.8219  1.9727  0.1127
  230MOL0     H31048   1.313   0.515   3.510  0.1508 -1.0076  0.1788
  230MOL0     H31049   1.388   0.555   3.360  0.1938  1.3045 -0.4217
  230MOL0     H31050   1.241   0.651   3.411 -1.8610 -0.3090  3.8038
  231MOL0     O31051   4.818   3.567   5.028 -0.0716 -0.0583  0.4960
  231MOL0     C31052   4.887   3.543   5.131  0.3348 -0.5248 -0.5767
  231MOL0     O31053   4.940   3.423   5.162  0.5311 -0.2620 -0.1003
  231MOL0     C31054   4.916   3.322   5.065  0.1770 -0.7459 -0.7976
  231MOL0     C31055   5.002   3.296   4.959  0.2282 -0.4782 -0.1625
  231MOL0     C31056   4.968   3.216   4.851 -0.3064 -0.0233  0.1059
  231MOL0     C31057   4.858   3.134   4.864 -0.4388  0.2835 -0.1794
  231MOL0     O31058   4.838   3.047   4.764 -0.0032  0.1835  0.5630
  231MOL0     C31059   4.787   2.922   4.804 -0.2191  0.9184 -0.1039
  231MOL0     C31060   4.821   2.806   4.709 -0.1104 -0.3547  0.3932
  231MOL0     C31061   4.744   2.806   4.577 -0.1126 -0.2274 -0.5076
  231MOL0     C31062   4.767   2.672   4.501 -0.8738 -1.0816 -0.5389
  231MOL0     C31063   4.915   2.641   4.471 -0.6967 -0.2840 -0.1373
  231MOL0     C31064   4.975   2.729   4.360  0.2857 -0.5978  1.2281
  231MOL0     C31065   5.090   2.665   4.294 -1.3407  0.1559  0.5836
  231MOL0     C31066   5.055   2.547   4.207  0.1920  0.4098 -0.5194
  231MOL0     N31067   5.180   2.496   4.137  0.0278  0.6307 -0.1395
  231MOL0     C31068   5.199   2.469   4.004 -0.7368  1.0668 -0.1468
  231MOL0     C31069   5.335   2.453   3.991 -0.0829  0.0840  0.0668
  231MOL0     C31070   5.409   2.411   3.865  0.7375 -0.0645  0.3597
  231MOL0     C31071   5.431   2.255   3.837  0.6978  0.1906  0.2080
  231MOL0     C31072   5.522   2.183   3.950  0.0337 -0.0411  0.2760
  231MOL0     C31073   5.646   2.268   3.992 -0.2089  0.7775  0.5644
  231MOL0     O31074   5.722   2.319   3.879  0.5837  1.2762 -0.9997
  231MOL0     C31075   5.783   2.223   3.815 -0.7896 -0.0222 -0.1021
  231MOL0     C31076   5.888   2.154   3.874  0.4815 -0.0127 -0.4889
  231MOL0     C31077   5.964   2.071   3.801 -0.4803 -0.0685  0.5144
  231MOL0     C31078   5.948   2.055   3.666 -0.5510  0.2571 -0.2098
  231MOL0     C31079   6.042   1.963   3.588  0.1824  0.8428 -0.3431
  231MOL0     O31080   6.037   1.950   3.458  0.6275 -0.7522  0.2810
  231MOL0     C31081   6.130   1.872   3.384 -0.3463  1.0236 -0.7938
  231MOL0     C31082   6.089   1.758   3.320  0.3397  0.0702  0.3758
  231MOL0     C31083   6.177   1.675   3.244 -0.4034 -0.4909  0.3677
  231MOL0     C31084   6.309   1.704   3.232  0.3453 -0.9022 -0.6802
  231MOL0     O31085   6.394   1.615   3.172 -0.8659  0.0530 -1.1457
  231MOL0     C31086   6.529   1.647   3.126  0.3508  0.2711  0.0013
  231MOL0     C31087   6.642   1.580   3.210  0.0843 -0.1834  0.3816
  231MOL0     C31088   6.775   1.558   3.133 -0.4422  0.0870 -0.4466
  231MOL0     C31089   6.877   1.489   3.224  0.0958  0.5371  0.1714
  231MOL0     C31090   6.929   1.569   3.347 -0.2827 -0.6205 -0.2427
  231MOL0     C31091   7.030   1.665   3.270 -0.3232  0.9521  0.3567
  231MOL0     C31092   7.096   1.764   3.353 -0.1104 -0.8473 -0.6135
  231MOL0     C31093   7.168   1.872   3.274  0.0284  1.4552 -0.8186
  231MOL0    Cl31094   7.203   1.989   3.405  0.1345  0.5211  0.1370
  231MOL0     C31095   6.358   1.822   3.292  0.1609  0.0244 -0.2037
  231MOL0     C31096   6.267   1.898   3.369 -0.1120 -0.2995 -0.0136
  231MOL0     O31097   6.117   1.904   3.663 -0.1732 -0.6713  0.7714
  231MOL0     C31098   5.851   2.130   3.603  0.5319 -0.1820 -0.5438
  231MOL0     C31099   5.767   2.219   3.674 -0.4513  0.9847  0.3106
  231MOL0     N31100   5.394   2.453   4.114  0.5036  0.3431 -0.5753
  231MOL0     N31101   5.296   2.478   4.200  0.8244  0.5919 -0.5993
  231MOL0     C31102   4.762   3.164   4.963  0.8515  0.6594 -0.8631
  231MOL0     C31103   4.788   3.259   5.060 -0.3198 -0.9211  0.7472
  231MOL0     C31104   4.922   3.650   5.229  0.4826 -0.4077 -0.0118
  231MOL0     C31105   4.966   3.608   5.358 -0.9864 -0.0174 -0.6660
  231MOL0     C31106   5.015   3.693   5.447 -0.6771  0.7533  0.4135
  231MOL0     C31107   5.004   3.828   5.414 -0.3719  0.0912  0.4052
  231MOL0     O31108   5.050   3.904   5.511 -0.3195  0.0541  0.0846
  231MOL0     C31109   4.954   3.951   5.605 -0.5512 -0.7717 -0.6072
  231MOL0     C31110   4.899   4.092   5.570  0.5545 -0.8842 -0.2625
  231MOL0     C31111   5.003   4.205   5.576 -0.0063 -0.3606  0.4423
  231MOL0     C31112   4.950   4.337   5.518 -0.8206 -0.6480  0.1802
  231MOL0     C31113   5.064   4.429   5.515  1.2513 -0.2304  1.0416
  231MOL0     C31114   5.174   4.490   5.516 -0.5801  0.9334 -1.2792
  231MOL0     C31115   4.945   3.874   5.299 -0.4362  0.8261 -0.8467
  231MOL0     C31116   4.914   3.785   5.199 -0.3627 -0.5920  0.6048
  231MOL0     C31117   4.850   3.842   5.074 -0.2055 -0.4105  0.2940
  231MOL0     H31118   5.090   3.359   4.957 -0.3701  0.3569 -1.3557
  231MOL0     H31119   5.016   3.218   4.753 -0.7970 -0.0651 -0.1369
  231MOL0     H31120   4.817   2.901   4.907  0.2502 -3.6247 -0.9345
  231MOL0     H31121   4.678   2.928   4.809 -0.3197 -1.0617  1.0842
  231MOL0     H31122   4.793   2.712   4.757  0.0345 -0.6121 -0.0249
  231MOL0     H31123   4.929   2.811   4.693  0.1007 -2.1238  1.0251
  231MOL0     H31124   4.782   2.884   4.509 -1.8745  1.8188  0.7107
  231MOL0     H31125   4.636   2.818   4.592  0.1980  0.9584  0.9942
  231MOL0     H31126   4.739   2.594   4.573 -1.6753 -1.1635 -0.9341
  231MOL0     H31127   4.694   2.654   4.422 -2.1531 -1.6715  0.7198
  231MOL0     H31128   4.977   2.651   4.560 -1.8688 -1.0282  0.7969
  231MOL0     H31129   4.909   2.537   4.435  0.1128 -0.1758 -0.6033
  231MOL0     H31130   4.904   2.760   4.283 -0.1824 -1.2739  1.3776
  231MOL0     H31131   4.995   2.825   4.410 -0.4340 -0.2082  0.7973
  231MOL0     H31132   5.164   2.644   4.372  0.5675  0.4787 -1.0467
  231MOL0     H31133   5.131   2.735   4.220 -2.3724 -1.0635 -1.2300
  231MOL0     H31134   5.020   2.465   4.270  3.6580 -0.6174  0.2301
  231MOL0     H31135   4.979   2.569   4.131 -0.5144 -0.5285 -0.1169
  231MOL0     H31136   5.131   2.478   3.920  1.5887 -1.9987 -2.6144
  231MOL0     H31137   5.348   2.443   3.780 -1.1140 -2.3255  0.7302
  231MOL0     H31138   5.499   2.473   3.867 -1.3659  3.3081 -0.4177
  231MOL0     H31139   5.333   2.207   3.827  1.3113 -0.9591 -0.4969
  231MOL0     H31140   5.480   2.248   3.739  0.0729 -1.5627 -0.0101
  231MOL0     H31141   5.548   2.079   3.926 -1.3042 -0.2825 -0.1890
  231MOL0     H31142   5.472   2.181   4.047  0.3217  1.5773  0.4916
  231MOL0     H31143   5.719   2.220   4.058  3.1407  1.9763 -1.9873
  231MOL0     H31144   5.602   2.354   4.045  0.0542  1.3628 -0.1477
  231MOL0     H31145   5.910   2.167   3.980  0.6880  0.5743 -0.6036
  231MOL0     H31146   6.033   2.024   3.870 -1.7534 -0.1215  1.8051
  231MOL0     H31147   5.991   1.713   3.336  0.0781  1.6763  4.5405
  231MOL0     H31148   6.152   1.581   3.195 -0.6961 -0.5170  0.5667
  231MOL0     H31149   6.531   1.611   3.023  0.5279 -1.1780  0.4800
  231MOL0     H31150   6.522   1.755   3.112 -0.5524  0.0771 -1.1346
  231MOL0     H31151   6.659   1.636   3.303  1.9259 -0.9435  0.5519
  231MOL0     H31152   6.616   1.481   3.249  1.2592 -1.7897 -2.5859
  231MOL0     H31153   6.746   1.490   3.052 -0.0218 -0.5116 -0.1080
  231MOL0     H31154   6.815   1.646   3.082 -0.4052 -0.5263 -1.5047
  231MOL0     H31155   6.951   1.455   3.151 -0.2123  2.4315 -1.1107
  231MOL0     H31156   6.831   1.404   3.275  2.8653  1.0734  4.0222
  231MOL0     H31157   6.972   1.501   3.421 -2.7271 -0.0062  1.8981
  231MOL0     H31158   6.843   1.622   3.390 -0.7170 -0.4589 -1.2788
  231MOL0     H31159   7.105   1.598   3.228 -0.3576 -0.0977  1.8593
  231MOL0     H31160   6.976   1.721   3.193 -3.1137  1.1910  2.3339
  231MOL0     H31161   7.159   1.716   3.428 -1.3331 -0.6063  0.5961
  231MOL0     H31162   7.021   1.826   3.403  1.0641  2.6544 -2.7679
  231MOL0     H31163   7.243   1.814   3.219 -0.8563 -2.0495  1.3304
  231MOL0     H31164   7.108   1.920   3.195 -3.8299 -0.1072  0.9139
  231MOL0     H31165   6.462   1.851   3.280 -0.4331  1.8714 -1.3458
  231MOL0     H31166   6.311   1.988   3.412 -0.9974 -0.3723  1.0837
  231MOL0     H31167   5.841   2.133   3.495 -1.3437  0.6322 -0.3963
  231MOL0     H31168   5.695   2.286   3.628 -2.5174  0.2744  2.3342
  231MOL0     H31169   4.667   3.110   4.965  2.0563 -1.5851  1.4687
  231MOL0     H31170   4.712   3.310   5.118 -1.2524 -0.0508 -1.1439
  231MOL0     H31171   4.983   3.505   5.388  1.5187  0.3953 -0.4291
  231MOL0     H31172   5.053   3.657   5.542  1.5790 -4.3804 -2.0515
  231MOL0     H31173   4.996   3.959   5.706 -2.5421 -1.9215  0.3654
  231MOL0     H31174   4.867   3.885   5.606 -0.0222 -1.5029 -1.3423
  231MOL0     H31175   4.819   4.120   5.639  0.0058  0.1253 -1.2758
  231MOL0     H31176   4.846   4.085   5.475 -1.0233 -3.2948  0.6844
  231MOL0     H31177   5.091   4.177   5.518  0.5194  1.3708  0.3474
  231MOL0     H31178   5.031   4.214   5.681  0.9828 -2.0808  0.3503
  231MOL0     H31179   4.918   4.339   5.413 -0.6197 -0.4247  0.1209
  231MOL0     H31180   4.856   4.357   5.569  0.1784 -1.5810  2.5054
  231MOL0     H31181   5.277   4.512   5.502  0.0615 -1.0852 -0.1720
  231MOL0     H31182   4.940   3.980   5.279  0.0875  1.5084  2.1997
  231MOL0     H31183   4.753   3.791   5.072  1.1464 -3.3436  2.2239
  231MOL0     H31184   4.833   3.950   5.082 -0.1770 -0.1877 -2.0123
  231MOL0     H31185   4.911   3.809   4.990 -0.2955  1.1949 -0.4362
  232MOL0     O31186   9.264   2.861   1.053 -0.0395 -0.0896 -0.1385
  232MOL0     C31187   9.265   2.741   1.037 -0.2459 -0.0590  0.7961
  232MOL0     O31188   9.356   2.668   0.955 -0.2778 -0.2240  0.0127
  232MOL0     C31189   9.418   2.723   0.848  0.0899 -0.7455 -0.4801
  232MOL0     C31190   9.344   2.803   0.762  0.0863  0.9612 -0.4206
  232MOL0     C31191   9.398   2.856   0.656 -0.8147 -0.0757 -0.1117
  232MOL0     C31192   9.538   2.826   0.635 -0.2277 -0.0799  0.7020
  232MOL0     O31193   9.618   2.854   0.527 -0.0828  0.4144  0.2711
  232MOL0     C31194   9.542   2.897   0.402 -0.5996  0.2871  0.2154
  232MOL0     C31195   9.615   2.849   0.284  0.1610 -0.1413  0.6670
  232MOL0     C31196   9.741   2.922   0.251  0.3623  0.4648 -0.6838
  232MOL0     C31197   9.790   2.864   0.126 -0.2808 -0.5992  0.6044
  232MOL0     C31198   9.938   2.907   0.105  0.7414 -0.2433  0.1230
  232MOL0     C31199   9.981   2.894  -0.048  0.1210 -0.0160 -0.7493
  232MOL0     C31200  10.097   2.973  -0.091 -0.0566  0.5717  0.5178
  232MOL0     C31201  10.111   2.955  -0.246 -0.6988  0.0396  0.0647
  232MOL0     N31202  10.209   3.047  -0.293 -1.1054 -0.2925  0.3320
  232MOL0     C31203  10.343   3.044  -0.257  0.3898  0.0387 -1.3018
  232MOL0     C31204  10.378   3.175  -0.288  0.7329  0.4421 -0.5434
  232MOL0     C31205  10.513   3.218  -0.244  0.1371  0.1269  0.5869
  232MOL0     C31206  10.510   3.269  -0.097  0.7048  0.8829  0.5406
  232MOL0     C31207  10.475   3.416  -0.088  0.5747  0.0815  0.2708
  232MOL0     C31208  10.518   3.478   0.044  0.1529 -0.2616  0.7826
  232MOL0     O31209  10.531   3.627   0.039 -0.3177  0.4908  0.9682
  232MOL0     C31210  10.414   3.700   0.022  0.8367 -0.2308 -0.3674
  232MOL0     C31211  10.427   3.829  -0.018 -0.2376 -0.1753 -0.2161
  232MOL0     C31212  10.320   3.912  -0.043 -0.6663  0.0703  0.6278
  232MOL0     C31213  10.189   3.870  -0.012 -1.2003 -0.5296 -1.0647
  232MOL0     C31214  10.067   3.966  -0.011  0.1026 -0.0022 -0.0995
  232MOL0     O31215  10.091   4.097  -0.044 -0.2423  0.8413  0.8157
  232MOL0     C31216   9.986   4.184  -0.014 -0.4227  0.6196 -0.6910
  232MOL0     C31217   9.914   4.244  -0.113 -0.3983 -0.0959  0.5127
  232MOL0     C31218   9.800   4.325  -0.081 -0.7510 -0.0756 -1.4789
  232MOL0     C31219   9.758   4.328   0.054 -0.5389 -1.4054  0.4536
  232MOL0     O31220   9.643   4.404   0.079  0.2005 -0.6025  0.3345
  232MOL0     C31221   9.589   4.424   0.214  0.6005 -0.5077  0.2771
  232MOL0     C31222   9.470   4.522   0.196  0.4457 -0.3128  0.2163
  232MOL0     C31223   9.430   4.563   0.341  0.7515  0.3405 -0.1909
  232MOL0     C31224   9.305   4.655   0.346  0.4429  0.0121 -0.5832
  232MOL0     C31225   9.273   4.689   0.496 -0.8787  0.0240  0.3092
  232MOL0     C31226   9.239   4.572   0.594  1.0005 -0.2712  0.3516
  232MOL0     C31227   9.201   4.647   0.729 -0.0067  0.2812 -0.2299
  232MOL0     C31228   9.291   4.760   0.779  0.3594 -0.1128  0.4171
  232MOL0    Cl31229   9.449   4.695   0.831  0.3246 -0.1724 -0.2447
  232MOL0     C31230   9.826   4.257   0.152  0.6814 -0.4342 -0.5587
  232MOL0     C31231   9.939   4.184   0.124 -0.1633  0.2594  0.5089
  232MOL0     O31232   9.959   3.910  -0.014  0.4930  0.0695  0.0775
  232MOL0     C31233  10.175   3.739   0.031 -0.1638  0.0807 -0.5101
  232MOL0     C31234  10.285   3.655   0.057  0.0233  0.3715  0.9457
  232MOL0     N31235  10.288   3.226  -0.370 -0.4110 -0.2403 -0.5175
  232MOL0     N31236  10.179   3.157  -0.368  0.3966 -0.4668  0.6014
  232MOL0     C31237   9.609   2.744   0.716  0.7484  0.0714  0.5325
  232MOL0     C31238   9.553   2.690   0.829  0.4239 -0.3977  0.4135
  232MOL0     C31239   9.142   2.662   1.078  0.2484 -0.7399  0.0497
  232MOL0     C31240   9.105   2.547   1.009 -0.1632  0.2784 -0.2744
  232MOL0     C31241   8.989   2.475   1.033 -0.0288  0.2902 -0.3100
  232MOL0     C31242   8.900   2.517   1.131  0.1689  0.7930  0.3330
  232MOL0     O31243   8.775   2.456   1.150  0.0167  0.8986 -0.0135
  232MOL0     C31244   8.783   2.341   1.241  0.3488 -1.0188  0.2623
  232MOL0     C31245   8.819   2.211   1.173  1.3343 -0.5630  0.6960
  232MOL0     C31246   8.819   2.106   1.280 -0.2321  1.0984  0.4661
  232MOL0     C31247   8.834   1.956   1.222 -0.1212 -0.7749 -0.6617
  232MOL0     C31248   8.815   1.859   1.325  0.1861 -0.2022 -0.0397
  232MOL0     C31249   8.815   1.793   1.428  0.5346  0.6016  0.6529
  232MOL0     C31250   8.932   2.624   1.206  0.5275  0.9768 -0.3154
  232MOL0     C31251   9.051   2.703   1.182 -0.5474 -0.4237 -0.6258
  232MOL0     C31252   9.070   2.819   1.282  0.0602  0.1055 -0.5921
  232MOL0     H31253   9.236   2.808   0.761  0.0258 -0.0847 -1.2444
  232MOL0     H31254   9.344   2.919   0.586  2.3111  2.3063 -0.6128
  232MOL0     H31255   9.442   2.854   0.394 -0.5199 -0.3409  2.1852
  232MOL0     H31256   9.526   3.005   0.405  2.6241  0.8761  0.3494
  232MOL0     H31257   9.551   2.860   0.196  3.1766  1.1442 -1.5761
  232MOL0     H31258   9.626   2.741   0.287 -1.9405 -0.4986 -1.4898
  232MOL0     H31259   9.806   2.905   0.337 -1.7822 -0.3447  0.8654
  232MOL0     H31260   9.719   3.029   0.239 -2.3953  0.0334 -0.2175
  232MOL0     H31261   9.784   2.755   0.123  0.7620 -0.6625  0.2798
  232MOL0     H31262   9.727   2.907   0.048  1.1151  1.8024  0.6937
  232MOL0     H31263   9.941   3.014   0.130  2.5896 -0.3584  0.5185
  232MOL0     H31264  10.003   2.864   0.181 -0.2411  0.8096  1.6283
  232MOL0     H31265   9.990   2.789  -0.075  0.6746  0.2295 -1.5369
  232MOL0     H31266   9.895   2.940  -0.098 -2.7706 -2.7534  1.2844
  232MOL0     H31267  10.192   2.953  -0.040  0.8647 -0.5861 -1.5384
  232MOL0     H31268  10.065   3.073  -0.061 -0.6886  0.0094  1.7849
  232MOL0     H31269  10.128   2.849  -0.266 -2.7768 -0.6718  1.6389
  232MOL0     H31270  10.016   2.975  -0.295 -0.2095 -0.7989 -1.2696
  232MOL0     H31271  10.395   2.965  -0.204  0.8192  0.9944 -0.2522
  232MOL0     H31272  10.577   3.131  -0.258 -1.0198 -0.7910  0.8259
  232MOL0     H31273  10.544   3.292  -0.318 -0.7726  0.6575  0.7176
  232MOL0     H31274  10.450   3.207  -0.029  0.2497 -1.3648 -1.7722
  232MOL0     H31275  10.611   3.267  -0.054  1.5395  1.1149 -1.3377
  232MOL0     H31276  10.366   3.424  -0.092  0.4154 -0.7439  2.0682
  232MOL0     H31277  10.518   3.476  -0.169  0.3211  0.9917  0.7948
  232MOL0     H31278  10.612   3.437   0.082  2.1578  0.7893 -2.5883
  232MOL0     H31279  10.445   3.454   0.122  1.8948 -1.5364  2.1284
  232MOL0     H31280  10.524   3.875  -0.036 -1.2078  1.2508 -2.0899
  232MOL0     H31281  10.331   4.014  -0.079 -2.5326 -0.1687 -0.7718
  232MOL0     H31282   9.945   4.228  -0.216  1.1055 -1.4336  1.1230
  232MOL0     H31283   9.737   4.367  -0.159 -0.2267  1.3952 -1.1461
  232MOL0     H31284   9.547   4.333   0.258  0.5335 -0.9481 -0.6764
  232MOL0     H31285   9.672   4.468   0.270  1.5829  0.5428 -1.9078
  232MOL0     H31286   9.504   4.609   0.139 -0.6846  0.7491  1.1208
  232MOL0     H31287   9.381   4.497   0.138 -0.5820  0.2375  1.4976
  232MOL0     H31288   9.393   4.482   0.405  2.5898  2.1960  3.5272
  232MOL0     H31289   9.517   4.607   0.390  0.5590  2.5212 -1.6576
  232MOL0     H31290   9.220   4.609   0.296  0.4589  0.9067 -1.4711
  232MOL0     H31291   9.341   4.735   0.280  2.6562 -2.0516 -2.0439
  232MOL0     H31292   9.191   4.759   0.479  1.1191  1.9691 -2.3030
  232MOL0     H31293   9.360   4.750   0.523  0.3976 -1.5663 -0.0705
  232MOL0     H31294   9.153   4.519   0.552 -1.9067  2.9778  1.7306
  232MOL0     H31295   9.323   4.505   0.617 -0.1441 -1.2470  1.9306
  232MOL0     H31296   9.197   4.574   0.811  0.2586 -2.0240 -2.1364
  232MOL0     H31297   9.103   4.692   0.709  0.5162  1.3540 -0.4106
  232MOL0     H31298   9.306   4.832   0.699  0.1087 -0.0681  0.4089
  232MOL0     H31299   9.234   4.809   0.858  0.8724  2.3395 -0.6590
  232MOL0     H31300   9.791   4.242   0.254  0.9638 -0.9854 -0.5375
  232MOL0     H31301  10.001   4.127   0.192  0.3590  2.1130  1.6716
  232MOL0     H31302  10.071   3.719   0.055  0.3059 -1.0526  0.7499
  232MOL0     H31303  10.264   3.557   0.100  3.3718 -1.3466 -0.8461
  232MOL0     H31304   9.712   2.721   0.690  0.8162 -1.0239  1.6681
  232MOL0     H31305   9.615   2.625   0.891 -0.0382 -0.9364  0.3158
  232MOL0     H31306   9.166   2.523   0.923  0.3620  1.2534 -0.1977
  232MOL0     H31307   8.970   2.385   0.975 -1.4545  2.1197 -2.9010
  232MOL0     H31308   8.685   2.323   1.286  0.6536 -4.4341 -0.1391
  232MOL0     H31309   8.853   2.366   1.321  0.8134 -1.5520  0.0308
  232MOL0     H31310   8.912   2.229   1.118 -0.6064 -0.2192 -2.8123
  232MOL0     H31311   8.749   2.192   1.091  1.4115  0.0472  0.4859
  232MOL0     H31312   8.724   2.112   1.333 -0.6708 -0.8450 -0.0127
  232MOL0     H31313   8.891   2.117   1.362  0.0267 -1.9093  0.7523
  232MOL0     H31314   8.763   1.950   1.139 -1.9392 -2.9265  0.9406
  232MOL0     H31315   8.935   1.941   1.183 -0.3148 -0.1647 -1.4305
  232MOL0     H31316   8.813   1.728   1.514 -0.9614  1.0605  0.9923
  232MOL0     H31317   8.848   2.673   1.255 -1.4950 -0.7791 -1.8529
  232MOL0     H31318   8.997   2.802   1.362 -0.2418 -1.4713 -1.1770
  232MOL0     H31319   9.172   2.813   1.319 -0.1640 -1.6345 -0.1910
  232MOL0     H31320   9.058   2.915   1.231 -1.7483 -0.0881 -0.6180
  233MOL0     O31321  10.685   1.350   0.200 -0.0051 -0.0762 -0.3647
  233MOL0     C31322  10.695   1.244   0.138 -0.0039  0.2700 -0.2651
  233MOL0     O31323  10.594   1.154   0.108 -0.2411 -0.2090  0.1056
  233MOL0     C31324  10.469   1.181   0.157 -0.3419 -1.4084  0.3828
  233MOL0     C31325  10.379   1.220   0.061 -0.2192 -0.2654  0.4989
  233MOL0     C31326  10.249   1.254   0.099  0.1082 -0.7781  1.5220
  233MOL0     C31327  10.205   1.238   0.229  0.1607 -0.1659 -0.1203
  233MOL0     O31328  10.070   1.262   0.264  0.1601  0.2075  0.6779
  233MOL0     C31329  10.004   1.161   0.339 -0.6417  0.1651  0.3348
  233MOL0     C31330   9.859   1.184   0.318  0.8867  0.6242  1.0460
  233MOL0     C31331   9.804   1.313   0.373 -0.3050 -0.0526 -0.1487
  233MOL0     C31332   9.754   1.286   0.513 -0.7425 -0.9303  0.5469
  233MOL0     C31333   9.848   1.358   0.616  0.5616  0.5240  0.4430
  233MOL0     C31334   9.811   1.343   0.762 -0.0356  0.0931 -0.1483
  233MOL0     C31335   9.924   1.405   0.856  0.2333  1.1144 -0.1415
  233MOL0     C31336   9.894   1.544   0.908  0.0057  0.5984  0.6277
  233MOL0     N31337  10.018   1.604   0.944  0.0929  0.7431 -0.4413
  233MOL0     C31338  10.103   1.556   1.044 -0.2499  0.2501 -0.7496
  233MOL0     C31339  10.210   1.633   1.035 -0.2976 -0.4214 -0.6268
  233MOL0     C31340  10.319   1.619   1.142 -0.9281  0.1560 -0.7092
  233MOL0     C31341  10.433   1.536   1.076  0.1469 -0.1509 -0.8371
  233MOL0     C31342  10.544   1.498   1.175 -0.5549  0.5094  0.6033
  233MOL0     C31343  10.507   1.388   1.274 -0.4813 -0.6776 -0.5284
  233MOL0     O31344  10.619   1.364   1.360 -0.6641  0.2038  0.0332
  233MOL0     C31345  10.734   1.296   1.319  0.5151  0.0469 -0.5778
  233MOL0     C31346  10.849   1.302   1.401 -0.6103  0.7764 -0.2685
  233MOL0     C31347  10.970   1.243   1.364  0.0467  0.0342  1.2352
  233MOL0     C31348  10.982   1.188   1.228 -0.3584  0.2091 -0.1228
  233MOL0     C31349  11.102   1.135   1.186 -0.2998  1.4614 -0.3976
  233MOL0     O31350  11.131   1.138   1.060  0.6384  0.0494  0.0796
  233MOL0     C31351  11.242   1.083   1.004  0.1687  0.0113  0.4694
  233MOL0     C31352  11.224   1.027   0.879 -0.9224  1.2497  0.2965
  233MOL0     C31353  11.328   0.952   0.810  0.3912  0.6438  0.2488
  233MOL0     C31354  11.452   0.951   0.873 -0.9150  0.3945  0.1199
  233MOL0     O31355  11.551   0.885   0.797  1.1524  0.1539  0.0703
  233MOL0     C31356  11.675   0.844   0.861 -0.1917  0.2319  0.1395
  233MOL0     C31357  11.736   0.741   0.766  0.2997  0.3157 -0.2083
  233MOL0     C31358  11.767   0.796   0.626 -0.3309  0.2183  0.3413
  233MOL0     C31359  11.909   0.854   0.610  0.7394  0.7590 -0.1474
  233MOL0     C31360  11.915   0.987   0.530  0.6447  0.0705 -0.5218
  233MOL0     C31361  12.015   1.083   0.571 -0.3540  0.9552  0.6393
  233MOL0     C31362  11.978   1.159   0.694  0.2291 -0.0553  0.2231
  233MOL0     C31363  12.075   1.272   0.747 -0.3615  0.0096 -1.2550
  233MOL0    Cl31364  12.049   1.425   0.652 -0.5111  0.1645 -0.1276
  233MOL0     C31365  11.475   1.012   0.997 -0.2275  0.7501  0.1031
  233MOL0     C31366  11.367   1.075   1.058 -0.3555  0.1589 -0.5537
  233MOL0     O31367  11.177   1.085   1.270  0.6175  0.0652  0.0992
  233MOL0     C31368  10.865   1.175   1.152 -0.3566 -0.3006  0.4370
  233MOL0     C31369  10.740   1.225   1.194  0.1268  0.1277 -0.3423
  233MOL0     N31370  10.192   1.732   0.938  0.3855  0.0577  0.3300
  233MOL0     N31371  10.078   1.711   0.883 -0.2924 -0.7770 -0.1793
  233MOL0     C31372  10.300   1.208   0.333  0.3796 -0.6336  0.8202
  233MOL0     C31373  10.432   1.188   0.296 -0.3254  0.0850  0.0259
  233MOL0     C31374  10.831   1.206   0.080 -1.0532 -0.6237  0.3018
  233MOL0     C31375  10.853   1.072   0.051  0.9045  0.6688  0.3073
  233MOL0     C31376  10.976   1.028  -0.012  1.0368 -0.3262 -0.9557
  233MOL0     C31377  11.078   1.121  -0.030  0.2159 -0.1552  0.2970
  233MOL0     O31378  11.197   1.102  -0.094 -0.1217 -0.3949  0.1426
  233MOL0     C31379  11.224   0.977  -0.162  0.0476  0.0605 -0.4790
  233MOL0     C31380  11.367   0.980  -0.223 -0.4921 -0.2342 -0.4452
  233MOL0     C31381  11.380   1.059  -0.354 -0.6862  0.9689  0.2013
  233MOL0     C31382  11.338   1.209  -0.357 -0.7923  0.0323  0.0475
  233MOL0     C31383  11.376   1.275  -0.481  0.0527  0.4611 -0.2927
  233MOL0     C31384  11.418   1.332  -0.577  0.6131  0.2126 -0.8388
  233MOL0     C31385  11.059   1.251   0.006  0.7439  0.0115  0.5923
  233MOL0     C31386  10.939   1.295   0.069 -0.1095  0.4468  0.6301
  233MOL0     C31387  10.950   1.431   0.126  0.4234  0.3440  0.1486
  233MOL0     H31388  10.416   1.257  -0.034  3.4344 -1.5257  1.2807
  233MOL0     H31389  10.177   1.299   0.031  2.7531  0.0612 -0.9045
  233MOL0     H31390  10.031   1.062   0.299  2.7870 -0.8366  4.4392
  233MOL0     H31391  10.035   1.161   0.444  0.1203  0.3925  0.1154
  233MOL0     H31392   9.807   1.092   0.345 -0.2350  0.7914 -0.3761
  233MOL0     H31393   9.849   1.178   0.209 -0.8570  4.2479  0.8359
  233MOL0     H31394   9.721   1.350   0.313 -0.2779 -3.0459 -2.2519
  233MOL0     H31395   9.887   1.384   0.372 -0.1656 -0.1520  1.3459
  233MOL0     H31396   9.652   1.325   0.520 -1.0510 -1.2764 -1.4785
  233MOL0     H31397   9.749   1.179   0.535 -0.8568 -0.4864  2.9011
  233MOL0     H31398   9.953   1.330   0.605  0.3967 -1.1747  2.5641
  233MOL0     H31399   9.833   1.465   0.598 -1.4468  0.6782  2.5956
  233MOL0     H31400   9.710   1.378   0.786 -1.1922 -2.6231 -0.7636
  233MOL0     H31401   9.804   1.235   0.775 -1.0789 -0.1392 -2.2063
  233MOL0     H31402  10.024   1.398   0.812 -0.4196  0.1022 -1.5665
  233MOL0     H31403   9.915   1.345   0.947 -2.3103 -0.4295 -1.3147
  233MOL0     H31404   9.855   1.602   0.824  0.8422  2.8330  1.6996
  233MOL0     H31405   9.833   1.531   0.998  3.6464 -3.0770  2.9623
  233MOL0     H31406  10.080   1.479   1.116 -0.7821 -1.4686 -2.6564
  233MOL0     H31407  10.353   1.713   1.185 -2.8491  0.5938 -0.0634
  233MOL0     H31408  10.291   1.560   1.230 -0.5213 -0.3070 -0.8819
  233MOL0     H31409  10.385   1.449   1.029 -0.7611 -0.0176 -0.1930
  233MOL0     H31410  10.483   1.600   1.003 -0.2666  0.6372 -0.4448
  233MOL0     H31411  10.577   1.584   1.233  1.7166  1.6945 -2.2026
  233MOL0     H31412  10.637   1.463   1.129 -0.9245 -1.3344  1.1750
  233MOL0     H31413  10.487   1.297   1.217  3.0942 -0.3123 -2.6469
  233MOL0     H31414  10.418   1.416   1.332  0.6484 -0.8187  1.3737
  233MOL0     H31415  10.863   1.349   1.498  0.7000  2.2528 -1.1285
  233MOL0     H31416  11.048   1.239   1.439  0.2807  0.3105  1.0095
  233MOL0     H31417  11.121   1.026   0.846 -1.0348  1.3416  0.6416
  233MOL0     H31418  11.286   0.912   0.718  0.6457 -0.4558  0.5970
  233MOL0     H31419  11.746   0.926   0.875  0.6188 -0.5530  0.7288
  233MOL0     H31420  11.650   0.820   0.965 -1.2054 -0.4235 -0.2357
  233MOL0     H31421  11.829   0.696   0.804 -0.5616 -1.0549  0.3237
  233MOL0     H31422  11.662   0.661   0.763  3.3677 -2.8977  1.7537
  233MOL0     H31423  11.759   0.717   0.550 -0.8511 -1.2362  1.8315
  233MOL0     H31424  11.701   0.875   0.590  0.8613  0.3793 -1.6520
  233MOL0     H31425  11.987   0.787   0.572  1.2197  0.4086  1.3960
  233MOL0     H31426  11.941   0.880   0.711 -0.9888  0.2320  0.5665
  233MOL0     H31427  11.818   1.037   0.525  0.3449 -0.3154  0.9673
  233MOL0     H31428  11.943   0.958   0.428  0.8386  1.9395 -1.0356
  233MOL0     H31429  12.098   1.016   0.595 -0.6828 -0.6979 -2.3798
  233MOL0     H31430  12.045   1.144   0.484  1.6697 -2.9720 -1.6780
  233MOL0     H31431  11.976   1.086   0.775  3.5463 -2.4609 -1.5976
  233MOL0     H31432  11.871   1.184   0.695 -0.6755 -3.3339 -0.7076
  233MOL0     H31433  12.062   1.296   0.853  0.4338 -3.9366 -0.0929
  233MOL0     H31434  12.179   1.245   0.724  0.1376  3.2590 -3.5285
  233MOL0     H31435  11.570   1.018   1.048 -0.4067 -2.4755  1.0215
  233MOL0     H31436  11.371   1.140   1.145 -1.8519 -0.7220  0.2123
  233MOL0     H31437  10.876   1.121   1.059  2.9344 -0.5977  0.8889
  233MOL0     H31438  10.657   1.219   1.124  0.6328  3.7755 -1.4564
  233MOL0     H31439  10.269   1.224   0.436  1.1050  1.5884  0.7533
  233MOL0     H31440  10.501   1.193   0.380 -1.0226  2.9999  0.5240
  233MOL0     H31441  10.783   0.996   0.083  0.7811  1.4321  1.9357
  233MOL0     H31442  10.993   0.926  -0.044 -1.0727 -0.7262 -0.9917
  233MOL0     H31443  11.159   0.967  -0.250  1.2804 -0.3400 -1.3686
  233MOL0     H31444  11.208   0.897  -0.089 -0.7459  2.6190  2.3155
  233MOL0     H31445  11.397   0.878  -0.249  0.0318 -0.7842  2.0577
  233MOL0     H31446  11.432   1.036  -0.154 -1.2858  1.6151 -1.1266
  233MOL0     H31447  11.308   1.009  -0.420 -2.3289 -0.4509  2.9289
  233MOL0     H31448  11.488   1.055  -0.373 -0.1274  0.2548  3.1045
  233MOL0     H31449  11.229   1.201  -0.359 -0.7524 -0.3995 -1.5611
  233MOL0     H31450  11.371   1.253  -0.262 -0.7427  0.4751 -0.1744
  233MOL0     H31451  11.461   1.390  -0.656  1.8163  2.1129  1.1050
  233MOL0     H31452  11.142   1.313  -0.026  0.2214 -0.0277 -0.8778
  233MOL0     H31453  11.044   1.475   0.092 -0.9270  2.5869 -0.9234
  233MOL0     H31454  10.875   1.494   0.078  1.1127  1.7462  0.8656
  233MOL0     H31455  10.945   1.426   0.235  1.6815 -1.4138  0.1697
  234MOL0     O31456   1.449   4.659   8.343  0.5993 -0.5047  0.1073
  234MOL0     C31457   1.479   4.555   8.401 -0.1921  0.4331 -0.6083
  234MOL0     O31458   1.611   4.521   8.434  0.3903 -0.8128  0.0550
  234MOL0     C31459   1.711   4.616   8.404 -0.3569  0.1102 -1.0142
  234MOL0     C31460   1.803   4.580   8.301  0.2385 -0.4250  0.0817
  234MOL0     C31461   1.895   4.675   8.255  0.5048 -1.5214 -0.4259
  234MOL0     C31462   1.907   4.801   8.305  0.7987 -0.3239  0.1309
  234MOL0     O31463   2.004   4.887   8.254  0.2920  0.0172 -0.2913
  234MOL0     C31464   2.032   5.019   8.321  0.2262  0.4934 -0.1414
  234MOL0     C31465   2.143   4.987   8.421  0.2618 -0.2299  0.6357
  234MOL0     C31466   2.214   5.113   8.465  0.9053  0.3267 -1.1804
  234MOL0     C31467   2.126   5.192   8.558  0.4555 -0.6519 -0.0058
  234MOL0     C31468   2.223   5.278   8.650  0.1798  0.7532 -0.0801
  234MOL0     C31469   2.147   5.387   8.725  0.6709  0.3224 -0.5164
  234MOL0     C31470   2.253   5.487   8.788 -0.5610  0.3454 -0.0533
  234MOL0     C31471   2.179   5.600   8.868 -0.6980  0.1692  0.2161
  234MOL0     N31472   2.177   5.740   8.803  0.1749  0.8540 -0.0253
  234MOL0     C31473   2.230   5.849   8.868  0.0791  1.1772 -0.9879
  234MOL0     C31474   2.209   5.956   8.788  0.2108  0.0462  0.3572
  234MOL0     C31475   2.294   6.080   8.813  0.4516  0.5447 -0.2005
  234MOL0     C31476   2.418   6.081   8.732  0.6536  0.4282  0.9549
  234MOL0     C31477   2.473   6.227   8.751 -0.5143  0.2903  0.4359
  234MOL0     C31478   2.582   6.265   8.644  0.2055  0.4675 -0.4629
  234MOL0     O31479   2.686   6.348   8.703 -0.5797  0.0971  0.5356
  234MOL0     C31480   2.778   6.399   8.619 -0.6974  0.8817  0.3005
  234MOL0     C31481   2.766   6.402   8.485 -1.0180  0.3291  0.8180
  234MOL0     C31482   2.860   6.471   8.404  0.0971  0.1519 -0.6355
  234MOL0     C31483   2.952   6.564   8.475 -0.3462  0.9132 -0.2681
  234MOL0     C31484   3.049   6.640   8.397 -0.5956  0.5089 -0.5758
  234MOL0     O31485   3.030   6.639   8.259  0.2931 -1.0068 -0.6122
  234MOL0     C31486   3.132   6.712   8.200  0.6803 -0.6979  0.0114
  234MOL0     C31487   3.259   6.666   8.180 -0.2914  0.1162  0.1369
  234MOL0     C31488   3.360   6.751   8.130 -0.3786 -0.7788  0.7335
  234MOL0     C31489   3.333   6.881   8.093 -0.7796 -0.5569  0.6629
  234MOL0     O31490   3.421   6.959   8.028 -0.4116 -1.2986 -1.0138
  234MOL0     C31491   3.563   6.932   8.020  0.6758 -0.3027 -0.1234
  234MOL0     C31492   3.658   7.059   8.000  0.6692 -1.1007  0.2106
  234MOL0     C31493   3.635   7.109   7.854 -0.2027  0.4028  0.3127
  234MOL0     C31494   3.555   7.235   7.865 -0.2075  0.2419 -0.8034
  234MOL0     C31495   3.551   7.323   7.738  1.2522  0.6647 -0.9662
  234MOL0     C31496   3.521   7.476   7.764 -0.1137  0.7563 -0.1916
  234MOL0     C31497   3.487   7.546   7.633 -0.1218 -0.3916  0.1343
  234MOL0     C31498   3.547   7.687   7.632 -0.3411 -0.3857  0.0357
  234MOL0    Cl31499   3.556   7.749   7.467  0.2378  0.1230  0.2183
  234MOL0     C31500   3.206   6.927   8.105 -0.0557 -0.5910 -0.0000
  234MOL0     C31501   3.105   6.840   8.151  0.3286 -0.2161 -0.0859
  234MOL0     O31502   3.128   6.716   8.459 -0.0065 -0.0105  0.3832
  234MOL0     C31503   2.967   6.555   8.614 -0.2547 -0.1276  0.3331
  234MOL0     C31504   2.883   6.469   8.680  0.4508 -0.4482 -0.7861
  234MOL0     N31505   2.148   5.900   8.669 -0.5086 -1.0119  0.9567
  234MOL0     N31506   2.124   5.776   8.679  0.1910  0.0048  0.8101
  234MOL0     C31507   1.839   4.818   8.422  0.0812  0.6263  0.2998
  234MOL0     C31508   1.734   4.731   8.473 -0.2789 -0.3187  0.3213
  234MOL0     C31509   1.374   4.452   8.427  0.2777  0.2921 -0.5132
  234MOL0     C31510   1.414   4.315   8.409  0.0850 -0.1770  0.5494
  234MOL0     C31511   1.319   4.212   8.433 -0.4676 -0.5246  0.3887
  234MOL0     C31512   1.193   4.243   8.486 -0.8160  0.0634  0.1540
  234MOL0     O31513   1.100   4.160   8.542  0.4534 -0.1339  0.3483
  234MOL0     C31514   1.150   4.038   8.609  1.1215  0.0409 -0.1762
  234MOL0     C31515   1.058   3.974   8.718  0.1110 -0.5172 -0.8285
  234MOL0     C31516   0.913   4.008   8.691 -0.5796 -0.4900  0.0852
  234MOL0     C31517   0.822   3.959   8.797 -0.3167 -1.0285 -0.5643
  234MOL0     C31518   0.684   4.012   8.774  0.7909  0.1325  0.1572
  234MOL0     C31519   0.574   4.063   8.786  0.7484  0.3165 -0.0472
  234MOL0     C31520   1.162   4.373   8.502 -0.1945  0.9332  0.6118
  234MOL0     C31521   1.242   4.481   8.464  0.6579  0.8362  0.3807
  234MOL0     C31522   1.182   4.611   8.492  0.0320 -0.6165 -0.2483
  234MOL0     H31523   1.794   4.479   8.263  2.4086 -1.8893  3.0520
  234MOL0     H31524   1.965   4.638   8.180  1.4415 -1.2142  0.2781
  234MOL0     H31525   2.073   5.089   8.248  1.7841  0.0738  0.3038
  234MOL0     H31526   1.943   5.066   8.364 -0.5379 -0.7230 -0.3282
  234MOL0     H31527   2.212   4.930   8.359 -2.5539 -0.5995 -2.4026
  234MOL0     H31528   2.104   4.923   8.500  1.6937 -0.4293  1.2115
  234MOL0     H31529   2.253   5.168   8.379  0.6764 -0.0063 -1.5016
  234MOL0     H31530   2.301   5.084   8.525  4.1012  2.2258 -4.5207
  234MOL0     H31531   2.055   5.243   8.492  1.4743 -2.6864 -2.8682
  234MOL0     H31532   2.070   5.124   8.624  1.0964  0.1791  1.4517
  234MOL0     H31533   2.277   5.210   8.718 -0.4973 -1.8959 -2.0284
  234MOL0     H31534   2.289   5.332   8.582 -0.3765  1.2687 -0.2150
  234MOL0     H31535   2.076   5.445   8.665 -1.3044 -1.8079 -0.3712
  234MOL0     H31536   2.083   5.347   8.804  2.5176 -1.4268  0.1936
  234MOL0     H31537   2.319   5.533   8.715 -1.5943  1.2875 -0.4241
  234MOL0     H31538   2.323   5.435   8.854  1.8044 -1.5671 -3.7628
  234MOL0     H31539   2.074   5.573   8.886 -0.7199 -2.3707 -2.9111
  234MOL0     H31540   2.227   5.606   8.966  3.0185 -0.2849 -1.3974
  234MOL0     H31541   2.285   5.859   8.961  0.0696 -0.3395 -0.8014
  234MOL0     H31542   2.236   6.171   8.793 -0.8367  0.1723  1.6398
  234MOL0     H31543   2.316   6.078   8.920 -4.9213  2.0953  1.2464
  234MOL0     H31544   2.500   6.020   8.772  0.7967 -0.3010 -0.4102
  234MOL0     H31545   2.394   6.055   8.629  1.3775  1.2983  0.5511
  234MOL0     H31546   2.522   6.249   8.846  0.5869  2.7407 -0.6246
  234MOL0     H31547   2.390   6.297   8.738 -2.4780 -1.9917  0.0294
  234MOL0     H31548   2.540   6.296   8.548  0.5532 -0.9139 -1.0767
  234MOL0     H31549   2.629   6.170   8.618 -2.5766 -1.1244 -0.0586
  234MOL0     H31550   2.698   6.331   8.438  0.4522  0.1850 -1.2051
  234MOL0     H31551   2.852   6.463   8.296  3.2434 -0.6801 -0.9236
  234MOL0     H31552   3.280   6.562   8.206  2.3614  0.1337 -1.6414
  234MOL0     H31553   3.459   6.712   8.108 -0.2218  0.5938 -1.3662
  234MOL0     H31554   3.591   6.882   8.113  0.6827  0.1642  0.1284
  234MOL0     H31555   3.591   6.864   7.939 -3.3019 -0.6302 -1.4767
  234MOL0     H31556   3.630   7.133   8.076 -3.4431  1.6814 -3.4895
  234MOL0     H31557   3.760   7.023   8.018 -0.6850 -3.7647  3.8958
  234MOL0     H31558   3.730   7.138   7.808 -0.8328  2.8588  0.4195
  234MOL0     H31559   3.589   7.033   7.791  2.5851  0.1862 -1.6123
  234MOL0     H31560   3.601   7.301   7.939  1.3564 -2.6601  0.9955
  234MOL0     H31561   3.454   7.201   7.887  0.3941 -1.7835 -1.0137
  234MOL0     H31562   3.476   7.281   7.671  0.0444 -1.4446  1.5514
  234MOL0     H31563   3.646   7.323   7.683  0.5212 -0.3092 -2.2848
  234MOL0     H31564   3.436   7.492   7.831 -0.7842 -0.2910 -0.7670
  234MOL0     H31565   3.611   7.515   7.812 -1.0538  0.7505  1.6713
  234MOL0     H31566   3.381   7.568   7.620  0.0019 -0.5108 -1.2055
  234MOL0     H31567   3.520   7.495   7.541 -0.1678  1.1619 -0.7757
  234MOL0     H31568   3.490   7.751   7.699 -0.9441  0.2935 -1.0941
  234MOL0     H31569   3.653   7.678   7.660 -0.3299 -2.0192 -0.3944
  234MOL0     H31570   3.190   7.029   8.072  0.1874 -0.4602  0.2788
  234MOL0     H31571   3.001   6.871   8.158  0.8090  1.0794  2.5780
  234MOL0     H31572   3.050   6.608   8.659 -2.1700  1.5799  2.0461
  234MOL0     H31573   2.878   6.467   8.788 -2.1441 -0.0376 -0.8303
  234MOL0     H31574   1.869   4.897   8.490 -1.1585 -0.5248  2.2897
  234MOL0     H31575   1.674   4.745   8.562 -1.5835 -1.6338 -0.3221
  234MOL0     H31576   1.513   4.286   8.376 -0.4172 -0.9250 -0.3162
  234MOL0     H31577   1.346   4.107   8.432  1.1932 -0.1349 -1.0824
  234MOL0     H31578   1.249   4.049   8.654  2.4087 -1.8901 -2.3171
  234MOL0     H31579   1.172   3.965   8.530  0.2569  3.1060 -3.5005
  234MOL0     H31580   1.072   4.038   8.805  0.3852 -2.1562  0.3772
  234MOL0     H31581   1.085   3.870   8.738 -0.9996 -0.5244  0.8035
  234MOL0     H31582   0.884   3.963   8.596 -2.5765  1.4400 -0.3053
  234MOL0     H31583   0.893   4.116   8.684 -1.2319 -0.6275 -0.2665
  234MOL0     H31584   0.812   3.850   8.807  0.4714 -0.9328  1.8575
  234MOL0     H31585   0.873   3.992   8.888 -0.0584  0.6896 -1.2897
  234MOL0     H31586   0.479   4.113   8.795  0.2481 -0.0187 -2.6654
  234MOL0     H31587   1.060   4.389   8.535 -0.6326  0.6666 -0.5707
  234MOL0     H31588   1.214   4.626   8.595  0.6160 -2.7105 -0.0765
  234MOL0     H31589   1.212   4.697   8.431 -3.1281  3.3804  3.2641
  234MOL0     H31590   1.074   4.606   8.479  0.0959 -1.5802 -0.4449
  235MOL0     O31591  10.445  10.718  10.885 -0.0542  0.7300  0.6493
  235MOL0     C31592  10.462  10.591  10.899  0.1747 -0.4325  0.0885
  235MOL0     O31593  10.568  10.529  10.963 -0.8889 -0.3785 -0.8919
  235MOL0     C31594  10.666  10.617  11.020 -0.8793  0.4983  0.4826
  235MOL0     C31595  10.673  10.646  11.159 -0.8642 -0.0177  0.2031
  235MOL0     C31596  10.783  10.705  11.218 -0.2841  0.4874  0.2067
  235MOL0     C31597  10.875  10.769  11.140 -0.2113  0.0455  0.4377
  235MOL0     O31598  10.979  10.836  11.196  0.4951 -0.5181  0.5513
  235MOL0     C31599  11.101  10.854  11.130 -0.4364  0.3762 -0.0195
  235MOL0     C31600  11.214  10.870  11.235 -0.2192 -0.4351 -0.3534
  235MOL0     C31601  11.347  10.813  11.187  0.1010  0.9640 -0.4579
  235MOL0     C31602  11.443  10.910  11.117  0.3550 -0.6085  0.9073
  235MOL0     C31603  11.572  10.842  11.063 -0.3251 -0.6178  0.1509
  235MOL0     C31604  11.652  10.923  10.959 -0.1699 -0.2552 -0.1158
  235MOL0     C31605  11.590  10.947  10.822 -0.3038 -0.5238  0.2421
  235MOL0     C31606  11.681  11.025  10.721  0.0386  1.0754  0.1562
  235MOL0     N31607  11.708  11.169  10.752 -1.1598  0.0118 -0.2670
  235MOL0     C31608  11.635  11.267  10.681 -0.0054  1.6926 -0.8540
  235MOL0     C31609  11.687  11.391  10.712 -0.4451 -0.6063 -0.4656
  235MOL0     C31610  11.653  11.520  10.640  0.0953 -0.5909  0.1772
  235MOL0     C31611  11.649  11.510  10.488  0.6073  0.7487 -0.3041
  235MOL0     C31612  11.789  11.458  10.445 -0.3264 -0.8002 -0.5736
  235MOL0     C31613  11.809  11.454  10.297 -0.9566  0.1059 -0.0254
  235MOL0     O31614  11.718  11.373  10.210  0.7167 -0.5712 -0.1877
  235MOL0     C31615  11.688  11.248  10.245 -0.4248  0.1402  0.1433
  235MOL0     C31616  11.799  11.161  10.273 -0.1478  0.0782 -0.7286
  235MOL0     C31617  11.777  11.031  10.315  0.0511  0.7276 -0.1096
  235MOL0     C31618  11.647  10.980  10.336 -1.0185 -0.3938 -0.8486
  235MOL0     C31619  11.629  10.849  10.400  0.9126  0.5828 -0.9698
  235MOL0     O31620  11.503  10.787  10.400  0.0888 -0.4890  0.2821
  235MOL0     C31621  11.492  10.654  10.454  1.0831  0.6961  0.5959
  235MOL0     C31622  11.370  10.612  10.501 -0.4350  0.1202  0.0948
  235MOL0     C31623  11.347  10.487  10.549  0.1537 -0.0249  0.4081
  235MOL0     C31624  11.446  10.383  10.532 -0.2023  0.4018  0.1370
  235MOL0     O31625  11.418  10.258  10.587 -0.2208  0.5534 -0.4953
  235MOL0     C31626  11.490  10.138  10.547 -0.3983 -0.4695 -0.4038
  235MOL0     C31627  11.441  10.088  10.412  0.2786 -1.1090 -0.5178
  235MOL0     C31628  11.306  10.001  10.419  1.0159  0.9693  0.1103
  235MOL0     C31629  11.331   9.851  10.391 -1.5149 -0.4724 -0.1513
  235MOL0     C31630  11.216   9.764  10.375 -0.2234  0.8450  0.5738
  235MOL0     C31631  11.133   9.791  10.248 -0.1766 -0.2373 -0.0922
  235MOL0     C31632  10.992   9.713  10.241  0.2352 -0.3656  0.4587
  235MOL0     C31633  10.913   9.737  10.110 -0.7981 -0.0723 -0.3946
  235MOL0    Cl31634  10.735   9.673  10.089 -0.5439  0.2299 -0.0032
  235MOL0     C31635  11.572  10.413  10.477  0.2671 -1.2508  0.2319
  235MOL0     C31636  11.591  10.543  10.436 -0.1351  0.2024  0.0731
  235MOL0     O31637  11.730  10.804  10.447 -0.8003  0.1111 -0.3978
  235MOL0     C31638  11.535  11.061  10.295 -0.0621 -0.1289  0.0376
  235MOL0     C31639  11.556  11.198  10.259 -0.9840 -1.1656 -0.2826
  235MOL0     N31640  11.776  11.369  10.816 -0.0528 -0.4470  0.5749
  235MOL0     N31641  11.806  11.243  10.824 -0.0892 -0.0841  0.7783
  235MOL0     C31642  10.867  10.759  10.998 -1.0697 -0.0552 -0.8434
  235MOL0     C31643  10.766  10.674  10.944 -0.7208 -0.4355  0.0293
  235MOL0     C31644  10.346  10.505  10.854  0.2058 -1.1444 -0.6470
  235MOL0     C31645  10.375  10.371  10.839 -1.3781  0.0365  0.0792
  235MOL0     C31646  10.289  10.277  10.767 -0.4415  0.0911  1.1115
  235MOL0     C31647  10.169  10.336  10.710  0.6645 -0.0525  0.8784
  235MOL0     O31648  10.095  10.247  10.633  0.6880 -0.1975 -1.0029
  235MOL0     C31649   9.957  10.241  10.669  0.2351 -0.6207  0.5002
  235MOL0     C31650   9.887  10.129  10.603 -0.0768  0.2319  0.4757
  235MOL0     C31651   9.735  10.118  10.637  0.6620 -0.3619  0.8791
  235MOL0     C31652   9.669  10.026  10.543  0.3420 -0.5986 -0.0420
  235MOL0     C31653   9.714   9.886  10.571  0.3688 -0.1608  0.4294
  235MOL0     C31654   9.752   9.773  10.572  0.0519  0.6723 -0.7461
  235MOL0     C31655  10.133  10.467  10.738 -0.6292 -0.0512  0.5114
  235MOL0     C31656  10.214  10.558  10.810  0.1544 -0.2461 -0.4982
  235MOL0     C31657  10.167  10.703  10.842  0.5436 -1.9976  0.2763
  235MOL0     H31658  10.583  10.619  11.213 -1.3637  2.0676  0.4941
  235MOL0     H31659  10.800  10.708  11.326  0.8888  1.6118  0.0176
  235MOL0     H31660  11.122  10.776  11.056  0.4559  1.2488 -0.7196
  235MOL0     H31661  11.091  10.941  11.064  0.2203 -0.9436 -1.9526
  235MOL0     H31662  11.195  10.812  11.326  1.0138 -0.7634 -0.2744
  235MOL0     H31663  11.222  10.974  11.266 -0.6567 -0.6935  0.6661
  235MOL0     H31664  11.344  10.710  11.150  3.5651  0.0868  1.2428
  235MOL0     H31665  11.392  10.798  11.286 -0.0806  0.5544 -0.4349
  235MOL0     H31666  11.391  10.963  11.036  1.7668 -1.3161 -0.5283
  235MOL0     H31667  11.465  10.988  11.190  1.8295  0.2489 -0.3896
  235MOL0     H31668  11.634  10.819  11.150  0.0255  2.4493  0.8028
  235MOL0     H31669  11.527  10.754  11.015 -1.1813  0.5161 -1.2187
  235MOL0     H31670  11.646  11.025  10.997  0.3578 -1.0688  2.3452
  235MOL0     H31671  11.758  10.895  10.964  0.2425  0.7627 -2.1664
  235MOL0     H31672  11.502  11.009  10.839 -1.1115 -1.7171  0.5181
  235MOL0     H31673  11.567  10.846  10.788  1.4102 -0.7269 -0.4427
  235MOL0     H31674  11.780  10.981  10.708  1.1623  3.6036 -0.4724
  235MOL0     H31675  11.632  11.005  10.625  2.1891  0.4092 -0.8888
  235MOL0     H31676  11.558  11.240  10.609  1.0435 -1.4459 -0.9840
  235MOL0     H31677  11.554  11.553  10.674 -0.3475 -0.3315 -1.3119
  235MOL0     H31678  11.732  11.588  10.676  0.1486 -1.3420  1.5698
  235MOL0     H31679  11.572  11.438  10.460  2.3451 -1.3564  0.1090
  235MOL0     H31680  11.627  11.603  10.435  0.7290  0.9654  0.0216
  235MOL0     H31681  11.817  11.358  10.479 -2.8876 -1.1815  0.7022
  235MOL0     H31682  11.861  11.530  10.485  0.8966 -1.0321 -2.2777
  235MOL0     H31683  11.906  11.405  10.286 -1.1702  0.0745 -2.1146
  235MOL0     H31684  11.816  11.556  10.258 -1.0808  0.7826  1.6314
  235MOL0     H31685  11.901  11.200  10.274  0.8568 -2.0879 -3.8880
  235MOL0     H31686  11.869  10.977  10.333  0.5540  2.1190  1.6221
  235MOL0     H31687  11.284  10.678  10.504 -0.4703  0.1047 -0.4967
  235MOL0     H31688  11.251  10.446  10.580  1.4472 -1.5798  2.7133
  235MOL0     H31689  11.598  10.148  10.552 -0.2804 -0.8575 -1.8491
  235MOL0     H31690  11.475  10.059  10.622 -1.2246  1.3176  1.4268
  235MOL0     H31691  11.430  10.178  10.351 -2.0836 -1.0238 -0.0533
  235MOL0     H31692  11.525  10.029  10.372 -0.2823 -1.2962 -1.4469
  235MOL0     H31693  11.235  10.021  10.500 -2.9223  2.2751 -3.2858
  235MOL0     H31694  11.252  10.038  10.332  1.7783  1.8336 -0.0187
  235MOL0     H31695  11.402   9.813  10.465  0.7879  1.8980 -0.9647
  235MOL0     H31696  11.390   9.857  10.299 -2.0081 -0.4213 -0.4669
  235MOL0     H31697  11.159   9.763  10.468 -0.6057 -4.3675  0.5445
  235MOL0     H31698  11.245   9.659  10.367  0.9438  1.1931 -0.1492
  235MOL0     H31699  11.110   9.896  10.228  2.6240  0.2391 -1.1882
  235MOL0     H31700  11.181   9.751  10.159  0.5084 -0.4160  0.3509
  235MOL0     H31701  10.928   9.752  10.320  1.6359 -0.6769  1.7865
  235MOL0     H31702  11.009   9.605  10.238 -1.7949 -0.7149  0.2090
  235MOL0     H31703  10.909   9.846  10.101 -2.2508 -0.1739 -1.3881
  235MOL0     H31704  10.964   9.698  10.021  0.8100  0.9985  0.0296
  235MOL0     H31705  11.660  10.350  10.483  0.6977 -0.5334  2.0566
  235MOL0     H31706  11.689  10.565  10.396 -0.3831 -3.5141 -3.1908
  235MOL0     H31707  11.441  11.007  10.287  2.3496 -5.2198  1.5309
  235MOL0     H31708  11.475  11.263  10.228 -0.9721 -0.7553  0.4987
  235MOL0     H31709  10.938  10.795  10.924 -0.5058 -3.4679 -2.1620
  235MOL0     H31710  10.763  10.655  10.838 -1.6665  1.4896 -0.3267
  235MOL0     H31711  10.469  10.331  10.876 -1.5323  0.1726  0.6342
  235MOL0     H31712  10.308  10.171  10.754 -0.4660  0.3342 -1.4353
  235MOL0     H31713   9.913  10.336  10.636 -1.2934 -0.3701  2.9997
  235MOL0     H31714   9.945  10.238  10.777  2.2235 -3.2683  0.7369
  235MOL0     H31715   9.938  10.038  10.637  0.4546  0.8467  1.3761
  235MOL0     H31716   9.905  10.133  10.495 -0.4766 -0.5771  0.3778
  235MOL0     H31717   9.687  10.216  10.641  0.5830 -0.3949  4.3275
  235MOL0     H31718   9.731  10.083  10.741  0.5158 -2.0929  0.3303
  235MOL0     H31719   9.560  10.030  10.550  0.4305  1.0092  1.0360
  235MOL0     H31720   9.695  10.055  10.441 -1.3998 -0.4150 -0.4642
  235MOL0     H31721   9.773   9.668  10.574  1.3500  0.9151  1.6434
  235MOL0     H31722  10.039  10.507  10.702 -0.3358  2.3201  2.1468
  235MOL0     H31723  10.060  10.684  10.835  0.3132 -1.7818  2.6373
  235MOL0     H31724  10.183  10.753  10.937 -1.5583  0.2446 -0.4402
  235MOL0     H31725  10.194  10.776  10.764 -0.7271 -0.3406  1.3222
  236MOL0     O31726   4.336   9.666   6.692  0.5424  0.5097 -0.9004
  236MOL0     C31727   4.451   9.626   6.669  0.5900 -0.7222 -0.2529
  236MOL0     O31728   4.559   9.699   6.630  0.0663 -0.4135  0.0739
  236MOL0     C31729   4.562   9.828   6.593 -0.0778  0.6464 -0.7920
  236MOL0     C31730   4.698   9.867   6.569  0.2773  0.9223  0.6254
  236MOL0     C31731   4.729   9.998   6.564 -0.8507 -1.6801 -0.7439
  236MOL0     C31732   4.633  10.095   6.540 -0.5150  0.3879  0.1327
  236MOL0     O31733   4.659  10.232   6.530 -0.7349  0.0915 -0.9886
  236MOL0     C31734   4.598  10.308   6.428 -0.6695 -0.4834  0.2111
  236MOL0     C31735   4.673  10.326   6.305 -0.7747 -0.1105  0.8855
  236MOL0     C31736   4.574  10.358   6.190  0.1539 -0.2074 -0.1374
  236MOL0     C31737   4.494  10.480   6.219 -0.1446  0.0089 -0.2185
  236MOL0     C31738   4.383  10.505   6.113  0.0103 -0.7428 -1.5301
  236MOL0     C31739   4.426  10.539   5.967 -0.7638 -1.0916  0.4088
  236MOL0     C31740   4.323  10.523   5.867  0.9662 -0.2860  0.2196
  236MOL0     C31741   4.364  10.557   5.718 -0.5428 -0.9733 -0.0819
  236MOL0     N31742   4.459  10.457   5.667 -0.2151  0.5776 -0.5379
  236MOL0     C31743   4.488  10.443   5.532 -0.2832 -0.0307 -1.6662
  236MOL0     C31744   4.611  10.387   5.518  0.2551  0.2563 -0.0337
  236MOL0     C31745   4.668  10.371   5.379 -0.0088 -0.0160  0.0939
  236MOL0     C31746   4.812  10.316   5.379  0.2342  0.0704  0.3311
  236MOL0     C31747   4.794  10.164   5.414  0.7016  0.1943  0.3155
  236MOL0     C31748   4.916  10.078   5.386 -0.3300 -0.8237  0.1083
  236MOL0     O31749   4.949  10.094   5.246 -0.4133 -0.2400 -0.2288
  236MOL0     C31750   5.071  10.037   5.213  0.2759 -0.2595 -0.6754
  236MOL0     C31751   5.132  10.077   5.098 -0.2021  0.6783  0.2503
  236MOL0     C31752   5.253  10.025   5.057  0.5417 -0.3558  0.4726
  236MOL0     C31753   5.328   9.935   5.138  0.4072  0.1289  0.0501
  236MOL0     C31754   5.461   9.897   5.099 -0.3472  0.3994  0.7990
  236MOL0     O31755   5.528   9.808   5.174  0.0958 -0.7808  0.5434
  236MOL0     C31756   5.649   9.769   5.134  0.6529 -0.3011  0.3742
  236MOL0     C31757   5.759   9.853   5.143  0.5907 -0.5757 -0.5497
  236MOL0     C31758   5.884   9.812   5.111  0.5997 -0.7336 -0.3377
  236MOL0     C31759   5.904   9.680   5.069 -0.0130 -0.0471  0.0538
  236MOL0     O31760   6.029   9.644   5.024 -0.2510  0.3754 -0.5016
  236MOL0     C31761   6.138   9.672   5.115  0.2651 -0.6616 -0.4368
  236MOL0     C31762   6.272   9.636   5.057  0.6878  0.7420  0.5700
  236MOL0     C31763   6.386   9.709   5.131 -0.2898 -0.5121  0.0796
  236MOL0     C31764   6.498   9.610   5.160 -0.2861  1.0179  0.5803
  236MOL0     C31765   6.641   9.679   5.176  1.0991 -0.4701 -1.3399
  236MOL0     C31766   6.734   9.622   5.070  0.2186  1.1666  0.1642
  236MOL0     C31767   6.871   9.673   5.091 -0.0230 -0.9057 -0.2409
  236MOL0     C31768   6.973   9.561   5.109 -0.6378 -0.5974 -0.0242
  236MOL0    Cl31769   6.966   9.502   5.273  0.0119  0.0624  0.0855
  236MOL0     C31770   5.797   9.585   5.061 -0.2600 -0.1182  0.2904
  236MOL0     C31771   5.667   9.637   5.090 -0.4526 -0.9206  0.5713
  236MOL0     O31772   5.506   9.954   4.996 -0.5637 -0.3404  0.5024
  236MOL0     C31773   5.267   9.898   5.259  0.6753 -0.1661  0.6681
  236MOL0     C31774   5.147   9.954   5.297  0.1682  0.6332 -0.5432
  236MOL0     N31775   4.658  10.355   5.644  0.2229  0.0132  0.1272
  236MOL0     N31776   4.575  10.412   5.731  0.0501  0.4611 -0.4682
  236MOL0     C31777   4.498  10.056   6.545 -0.4132 -0.2192  0.0812
  236MOL0     C31778   4.466   9.924   6.570 -0.0034  0.3356 -0.9954
  236MOL0     C31779   4.485   9.483   6.690 -0.5253 -0.5042 -0.0745
  236MOL0     C31780   4.625   9.447   6.662  0.2377  0.2825 -0.3204
  236MOL0     C31781   4.666   9.323   6.691  0.2184 -0.4648  0.6230
  236MOL0     C31782   4.574   9.232   6.730  0.4812 -0.3900 -0.4868
  236MOL0     O31783   4.613   9.103   6.740  0.1436 -1.0295  0.0101
  236MOL0     C31784   4.640   9.054   6.869 -1.0571 -0.9020  0.5139
  236MOL0     C31785   4.599   8.910   6.859 -0.4491  0.9476  0.1426
  236MOL0     C31786   4.668   8.826   6.739 -0.1945 -0.5578  0.1202
  236MOL0     C31787   4.583   8.850   6.620  0.3308  0.7608 -0.1771
  236MOL0     C31788   4.602   8.753   6.513  0.2595  0.9534 -0.6586
  236MOL0     C31789   4.617   8.681   6.412  0.9101  0.3430  0.8533
  236MOL0     C31790   4.441   9.260   6.767 -0.1849  0.2576 -0.3671
  236MOL0     C31791   4.397   9.389   6.749 -1.3601  0.3903 -0.4892
  236MOL0     C31792   4.250   9.413   6.780 -0.1196  0.5828 -0.1369
  236MOL0     H31793   4.783   9.800   6.580  3.4362  4.5286  0.1920
  236MOL0     H31794   4.831  10.034   6.555 -0.4377 -2.5529  0.2462
  236MOL0     H31795   4.505  10.257   6.402  1.0109 -3.3691 -0.5944
  236MOL0     H31796   4.580  10.411   6.461  1.0842  0.3850 -1.2844
  236MOL0     H31797   4.725  10.230   6.295 -1.1784 -0.7967  4.2909
  236MOL0     H31798   4.750  10.399   6.329  1.3503 -1.4109 -1.5411
  236MOL0     H31799   4.512  10.270   6.174  2.5276 -2.2853  1.3674
  236MOL0     H31800   4.636  10.367   6.100  1.3948 -0.8227  0.6357
  236MOL0     H31801   4.442  10.481   6.314 -0.2131  1.5549 -0.2542
  236MOL0     H31802   4.556  10.569   6.228 -1.3948  0.6439  4.7089
  236MOL0     H31803   4.320  10.415   6.111  0.1876 -0.9581  0.3033
  236MOL0     H31804   4.319  10.576   6.165 -1.1040 -2.7958  0.0479
  236MOL0     H31805   4.452  10.645   5.979 -4.6243 -0.1255  1.9137
  236MOL0     H31806   4.514  10.477   5.950  0.7105  0.9219  0.2954
  236MOL0     H31807   4.248  10.595   5.901  1.4273 -0.3448  1.4232
  236MOL0     H31808   4.286  10.421   5.875  0.4126 -0.3140 -2.0582
  236MOL0     H31809   4.280  10.557   5.647  0.5801 -0.5963 -1.4507
  236MOL0     H31810   4.416  10.653   5.710  1.0124 -1.3216  3.9679
  236MOL0     H31811   4.425  10.475   5.450 -1.9040 -2.2383 -1.3782
  236MOL0     H31812   4.606  10.306   5.318  0.3844 -1.6546  1.3821
  236MOL0     H31813   4.666  10.467   5.326 -0.1855 -1.3282 -2.4190
  236MOL0     H31814   4.855  10.334   5.280 -0.9239 -2.1998 -0.6564
  236MOL0     H31815   4.879  10.358   5.455  0.0775 -0.5900  0.8493
  236MOL0     H31816   4.712  10.124   5.354  0.2693  1.4743  0.0224
  236MOL0     H31817   4.761  10.157   5.518  1.1720  1.8227  0.6200
  236MOL0     H31818   4.899   9.975   5.416  0.3581 -0.5484  1.5389
  236MOL0     H31819   5.000  10.120   5.442 -1.2256  0.6184  0.4218
  236MOL0     H31820   5.059  10.134   5.042 -0.7516  1.7130  1.9806
  236MOL0     H31821   5.294  10.063   4.964  2.7551  2.4018  2.3807
  236MOL0     H31822   5.741   9.954   5.177 -0.3252  0.3585 -3.5575
  236MOL0     H31823   5.966   9.883   5.109  0.2489 -0.2660  1.0144
  236MOL0     H31824   6.137   9.780   5.136  1.6389 -0.5222 -1.0270
  236MOL0     H31825   6.126   9.624   5.213  2.2884 -2.3271 -0.9315
  236MOL0     H31826   6.289   9.529   5.062  1.7249  0.9400  1.9862
  236MOL0     H31827   6.285   9.669   4.954 -0.4087 -2.0041 -0.5168
  236MOL0     H31828   6.422   9.786   5.062  1.7650 -0.3689  1.2150
  236MOL0     H31829   6.348   9.755   5.223 -3.9898 -0.5426 -1.2791
  236MOL0     H31830   6.515   9.533   5.085  0.7363 -0.9301  2.6872
  236MOL0     H31831   6.457   9.557   5.247  0.2095 -2.1913 -1.0173
  236MOL0     H31832   6.686   9.658   5.274 -1.1690  1.3204  0.1818
  236MOL0     H31833   6.641   9.788   5.177  2.9504 -0.3673  1.5667
  236MOL0     H31834   6.735   9.513   5.078  0.1929  1.2089  0.8883
  236MOL0     H31835   6.706   9.629   4.965  0.5407 -2.9044 -0.3745
  236MOL0     H31836   6.870   9.733   5.183  1.6579  3.7870 -2.9354
  236MOL0     H31837   6.891   9.744   5.011 -1.1576 -1.3007 -0.8919
  236MOL0     H31838   6.948   9.500   5.021  1.1279  1.2966 -1.9654
  236MOL0     H31839   7.072   9.603   5.089 -0.0971 -2.0605 -0.6024
  236MOL0     H31840   5.817   9.487   5.019  1.4953 -0.0889  0.9791
  236MOL0     H31841   5.580   9.574   5.072 -1.4914  0.6826 -0.1779
  236MOL0     H31842   5.314   9.828   5.327  2.3657 -0.9424 -1.2200
  236MOL0     H31843   5.096   9.904   5.379  0.8285  0.9847  0.0899
  236MOL0     H31844   4.424  10.133   6.528 -0.9686 -1.1295 -2.0109
  236MOL0     H31845   4.364   9.889   6.580  1.2478 -3.6412 -0.0255
  236MOL0     H31846   4.703   9.514   6.628 -0.7321  1.7308  0.1880
  236MOL0     H31847   4.773   9.305   6.688  0.8234  2.6910 -0.5440
  236MOL0     H31848   4.582   9.106   6.946 -1.1466  1.1260 -0.8468
  236MOL0     H31849   4.749   9.064   6.875 -1.2525  2.0197  0.9044
  236MOL0     H31850   4.492   8.886   6.867  0.1221 -2.0535 -0.0559
  236MOL0     H31851   4.645   8.877   6.953 -1.5419 -0.9301  0.0739
  236MOL0     H31852   4.675   8.724   6.778 -0.6183 -1.6852 -2.5633
  236MOL0     H31853   4.772   8.854   6.718  1.2635 -3.7984  2.2630
  236MOL0     H31854   4.477   8.835   6.645  0.3858  0.7673  0.0575
  236MOL0     H31855   4.605   8.947   6.575  0.0902 -0.2861 -2.7577
  236MOL0     H31856   4.618   8.649   6.310  0.4072  4.5565 -0.6642
  236MOL0     H31857   4.373   9.181   6.799  0.2473  0.4774  1.1779
  236MOL0     H31858   4.245   9.483   6.864  2.8873 -0.2005  0.8164
  236MOL0     H31859   4.196   9.439   6.689 -1.0668 -1.6404 -0.2895
  236MOL0     H31860   4.207   9.318   6.814 -2.0240  2.0029  1.6808
  237MOL0     O31861   3.289   1.413   7.184  0.5106 -0.7365  0.2692
  237MOL0     C31862   3.383   1.403   7.104  0.2457  0.1179 -0.5547
  237MOL0     O31863   3.365   1.389   6.973  0.0177 -0.2180  0.0130
  237MOL0     C31864   3.239   1.395   6.921 -0.4834 -0.2230 -0.2260
  237MOL0     C31865   3.166   1.505   6.936 -0.4590  0.0664  0.4462
  237MOL0     C31866   3.046   1.529   6.881 -0.4943 -0.2358  0.2177
  237MOL0     C31867   2.990   1.417   6.809  1.3090 -0.0718 -0.6023
  237MOL0     O31868   2.864   1.415   6.753  0.3285 -0.1382  0.5467
  237MOL0     C31869   2.764   1.356   6.832 -0.1205  0.3473 -0.0886
  237MOL0     C31870   2.639   1.345   6.742 -0.6360  0.0118  0.5644
  237MOL0     C31871   2.655   1.258   6.618  0.3320  0.8201  0.6586
  237MOL0     C31872   2.549   1.290   6.513 -0.9501  0.1654 -0.4625
  237MOL0     C31873   2.418   1.249   6.571 -0.7469  0.2914  1.0051
  237MOL0     C31874   2.339   1.220   6.457 -0.6965 -1.0404  0.3656
  237MOL0     C31875   2.187   1.233   6.485 -0.3572  0.2394  0.1835
  237MOL0     C31876   2.129   1.378   6.479 -0.2142 -0.3281 -0.3350
  237MOL0     N31877   2.168   1.449   6.360 -0.5832  0.7521  0.4639
  237MOL0     C31878   2.267   1.544   6.340  0.0734  0.9664 -0.6636
  237MOL0     C31879   2.262   1.569   6.202 -0.0472 -0.3851  0.7917
  237MOL0     C31880   2.345   1.677   6.136  0.1866 -0.4222  0.7800
  237MOL0     C31881   2.319   1.822   6.192  0.2428  0.0736 -0.4322
  237MOL0     C31882   2.278   1.925   6.077  0.0288 -1.0386  0.3786
  237MOL0     C31883   2.242   2.070   6.108  0.5347 -1.3841 -0.4842
  237MOL0     O31884   2.118   2.057   6.167  0.4128 -0.4398  0.2013
  237MOL0     C31885   2.049   2.176   6.197  0.3468 -0.1273 -0.6453
  237MOL0     C31886   1.922   2.160   6.269 -0.5354 -0.0167  0.4238
  237MOL0     C31887   1.842   2.269   6.311 -0.4844  0.1549  0.3956
  237MOL0     C31888   1.870   2.399   6.273 -0.4074 -0.3060 -0.6625
  237MOL0     C31889   1.769   2.510   6.268  0.0422  0.1780 -0.4124
  237MOL0     O31890   1.823   2.635   6.250 -0.0078  0.6938 -0.4203
  237MOL0     C31891   1.752   2.752   6.243  0.0475  0.2526 -0.8589
  237MOL0     C31892   1.657   2.775   6.147 -0.4967  0.1832 -0.2244
  237MOL0     C31893   1.608   2.903   6.128  1.1705 -0.4285 -1.2819
  237MOL0     C31894   1.650   3.012   6.212  0.1373 -0.3282  0.8304
  237MOL0     O31895   1.614   3.147   6.197  0.8051  0.3056 -0.2851
  237MOL0     C31896   1.577   3.190   6.061  0.0700 -1.0655  0.2722
  237MOL0     C31897   1.560   3.343   6.054  0.2590 -0.4100  0.4255
  237MOL0     C31898   1.417   3.395   6.077  0.0886 -0.0715  0.2542
  237MOL0     C31899   1.407   3.540   6.063 -0.2543 -0.5693  0.3131
  237MOL0     C31900   1.262   3.581   6.032  0.5464 -0.2417 -0.8666
  237MOL0     C31901   1.240   3.729   6.034  0.2286 -0.1461  0.0292
  237MOL0     C31902   1.235   3.786   6.181 -0.8298  1.2823  0.9813
  237MOL0     C31903   1.182   3.936   6.198  0.3587  0.0079  0.5516
  237MOL0    Cl31904   1.002   3.956   6.174  0.0691  0.2039 -0.1416
  237MOL0     C31905   1.746   2.986   6.311 -0.7712  0.8793  0.1158
  237MOL0     C31906   1.785   2.855   6.335  0.5671 -1.0977  0.4071
  237MOL0     O31907   1.651   2.488   6.308  0.0209 -0.8089 -0.6922
  237MOL0     C31908   2.000   2.419   6.213 -0.1950 -0.2972  0.0169
  237MOL0     C31909   2.087   2.309   6.165  1.0004  0.1549 -0.2217
  237MOL0     N31910   2.162   1.494   6.146 -0.6035  0.9400 -0.9072
  237MOL0     N31911   2.100   1.424   6.238 -0.3850 -0.0120 -0.2882
  237MOL0     C31912   3.059   1.293   6.794 -0.0447  0.8732  0.2780
  237MOL0     C31913   3.183   1.292   6.855  0.0061  0.0680 -1.0483
  237MOL0     C31914   3.512   1.366   7.179 -0.1149 -0.0434 -0.5930
  237MOL0     C31915   3.613   1.314   7.103 -0.6366 -0.8369  0.3450
  237MOL0     C31916   3.752   1.312   7.146  0.1376  0.9206  0.1293
  237MOL0     C31917   3.776   1.334   7.281  0.3400  0.1753  0.0704
  237MOL0     O31918   3.912   1.325   7.312 -0.0789  0.7430  0.0012
  237MOL0     C31919   3.952   1.332   7.449 -0.3041  0.1536  0.1591
  237MOL0     C31920   4.060   1.231   7.468 -0.0989  0.3295  0.4802
  237MOL0     C31921   4.176   1.239   7.364 -1.7466 -0.2702 -0.6373
  237MOL0     C31922   4.324   1.240   7.424 -0.5597 -0.1057 -0.4557
  237MOL0     C31923   4.412   1.229   7.304 -0.3370  1.2553  0.6793
  237MOL0     C31924   4.483   1.243   7.205 -0.4794  0.9304 -0.3950
  237MOL0     C31925   3.665   1.373   7.363 -0.4575  0.6847 -0.2702
  237MOL0     C31926   3.534   1.383   7.317  0.0796 -0.3500  0.0174
  237MOL0     C31927   3.431   1.429   7.424 -0.0167 -0.2035  0.0250
  237MOL0     H31928   3.211   1.583   6.996  2.3141  0.7110 -2.2121
  237MOL0     H31929   2.984   1.616   6.897 -5.1333 -2.6614 -2.3104
  237MOL0     H31930   2.791   1.258   6.872 -3.0332  0.4713  2.6759
  237MOL0     H31931   2.748   1.414   6.924  1.8969  0.3732  0.2860
  237MOL0     H31932   2.617   1.448   6.712 -0.1292 -0.2891 -0.9100
  237MOL0     H31933   2.561   1.304   6.807 -1.4601 -2.2158 -1.6630
  237MOL0     H31934   2.662   1.150   6.632  1.6982  1.0003  1.5917
  237MOL0     H31935   2.750   1.271   6.566  0.9968 -3.3595  0.4590
  237MOL0     H31936   2.557   1.399   6.499  0.7299 -0.1219 -2.1444
  237MOL0     H31937   2.590   1.249   6.420  0.1497  2.8464 -1.2605
  237MOL0     H31938   2.409   1.160   6.634 -1.0705  1.8654  3.3073
  237MOL0     H31939   2.385   1.337   6.626 -2.4775 -0.2741  0.9251
  237MOL0     H31940   2.360   1.286   6.373 -0.2819 -1.0417  0.4681
  237MOL0     H31941   2.366   1.124   6.413 -0.5608 -0.3286 -1.1440
  237MOL0     H31942   2.168   1.197   6.586 -0.2053  2.4490  1.0538
  237MOL0     H31943   2.125   1.179   6.413 -1.9519  0.0668  1.6208
  237MOL0     H31944   2.019   1.381   6.487 -0.2488  1.7518 -0.9646
  237MOL0     H31945   2.167   1.435   6.564 -3.0052  1.6527 -0.2486
  237MOL0     H31946   2.335   1.588   6.413  0.2338  1.8680 -1.3342
  237MOL0     H31947   2.448   1.642   6.138  1.1777  1.5456 -3.8443
  237MOL0     H31948   2.311   1.679   6.032 -0.5611  0.8112  1.0293
  237MOL0     H31949   2.247   1.830   6.273  0.0042  0.0636 -0.6422
  237MOL0     H31950   2.412   1.849   6.244  0.3470 -1.8876  0.4961
  237MOL0     H31951   2.198   1.887   6.013  0.8025 -0.4036 -0.9990
  237MOL0     H31952   2.369   1.917   6.019  0.3997 -2.6527  1.1380
  237MOL0     H31953   2.231   2.134   6.020 -0.2692 -1.5054 -0.4775
  237MOL0     H31954   2.308   2.116   6.182  0.0260  3.1086 -2.4818
  237MOL0     H31955   1.903   2.055   6.285  0.6267 -0.0990  1.3672
  237MOL0     H31956   1.770   2.250   6.389 -0.2937  2.6358  1.2749
  237MOL0     H31957   1.612   2.696   6.089 -1.5819  0.5384  0.1163
  237MOL0     H31958   1.540   2.935   6.049 -0.2536  0.7004  0.3271
  237MOL0     H31959   1.650   3.153   5.988  2.6394 -0.0634  2.2001
  237MOL0     H31960   1.479   3.143   6.049 -0.0919 -1.8508  3.7638
  237MOL0     H31961   1.620   3.386   6.135 -2.1263 -0.7841  2.5499
  237MOL0     H31962   1.586   3.391   5.960  0.6052  1.5645  1.4685
  237MOL0     H31963   1.354   3.350   6.000  0.5815  0.3410 -0.4059
  237MOL0     H31964   1.374   3.364   6.172  2.0674 -1.1889  0.8372
  237MOL0     H31965   1.467   3.578   5.980  2.5701 -3.0926  1.0258
  237MOL0     H31966   1.433   3.590   6.157 -1.5868  2.0407 -0.6077
  237MOL0     H31967   1.193   3.544   6.108  0.0440  3.6593  0.8246
  237MOL0     H31968   1.234   3.553   5.930 -0.8636  0.2434 -0.6448
  237MOL0     H31969   1.322   3.790   5.994  1.1303 -1.6653 -0.5024
  237MOL0     H31970   1.142   3.749   5.990  0.0631  3.7341  1.7486
  237MOL0     H31971   1.336   3.781   6.223  0.5232 -0.8044 -2.1602
  237MOL0     H31972   1.156   3.730   6.232  0.8615 -1.5523  0.6983
  237MOL0     H31973   1.205   3.971   6.299  3.0303 -2.8869  1.1193
  237MOL0     H31974   1.227   4.007   6.127 -2.7324 -0.2810 -1.9038
  237MOL0     H31975   1.780   3.070   6.371 -0.0332 -0.1141  1.1301
  237MOL0     H31976   1.865   2.835   6.405  0.0606 -1.6122  0.8380
  237MOL0     H31977   2.034   2.510   6.164 -0.1487 -0.4740 -0.2869
  237MOL0     H31978   2.170   2.330   6.098 -0.5004 -0.0227 -2.2528
  237MOL0     H31979   3.024   1.208   6.737 -1.1717  0.9721  0.8147
  237MOL0     H31980   3.232   1.197   6.840 -0.1105  0.1967 -2.2917
  237MOL0     H31981   3.588   1.277   7.004 -0.6819 -0.1021  0.0720
  237MOL0     H31982   3.834   1.273   7.087 -0.7673 -2.0208  0.6193
  237MOL0     H31983   3.869   1.293   7.511 -0.2136 -1.0282 -0.4326
  237MOL0     H31984   3.980   1.435   7.473 -0.6251 -0.4575  3.7422
  237MOL0     H31985   4.018   1.131   7.453  0.2081 -0.5963  4.5328
  237MOL0     H31986   4.098   1.245   7.570  0.6106  3.4632 -0.1160
  237MOL0     H31987   4.169   1.336   7.313  2.6757  2.7029  3.4531
  237MOL0     H31988   4.172   1.149   7.303  0.9052  0.3781 -1.9136
  237MOL0     H31989   4.326   1.344   7.458 -0.3620 -0.5887  1.0659
  237MOL0     H31990   4.331   1.159   7.496 -1.1519  2.7416  3.0797
  237MOL0     H31991   4.552   1.253   7.124  2.0010 -1.7920  1.1954
  237MOL0     H31992   3.683   1.387   7.469 -0.2512 -0.1813 -0.1815
  237MOL0     H31993   3.412   1.537   7.427  0.0413 -0.2015  0.4596
  237MOL0     H31994   3.344   1.364   7.409  1.1437 -2.1450  1.2617
  237MOL0     H31995   3.457   1.401   7.527 -2.5937  3.3799  1.8562
  238MOL0     O31996   3.861   7.205   2.830  0.7606  0.2352  0.7546
  238MOL0     C31997   3.940   7.296   2.835  0.9258 -0.0479 -0.9860
  238MOL0     O31998   4.031   7.329   2.739  0.5665  0.4646  0.0271
  238MOL0     C31999   4.049   7.240   2.636  0.0523  0.8317 -0.6502
  238MOL0     C32000   4.147   7.141   2.643  0.1326 -0.6868  0.8111
  238MOL0     C32001   4.193   7.072   2.529 -0.1098  0.5051 -0.1549
  238MOL0     C32002   4.128   7.098   2.405  0.5067  1.1044 -0.4042
  238MOL0     O32003   4.169   7.026   2.298  0.3143  0.1000 -0.4710
  238MOL0     C32004   4.162   7.078   2.164  0.4673 -1.1025 -0.0279
  238MOL0     C32005   4.240   7.005   2.060 -0.0786 -0.0729  1.1969
  238MOL0     C32006   4.234   7.062   1.912  0.6579 -0.2139  0.2048
  238MOL0     C32007   4.333   6.993   1.820  0.4796 -0.8894  1.1389
  238MOL0     C32008   4.338   7.082   1.695 -0.4179 -0.6722  0.8951
  238MOL0     C32009   4.459   7.041   1.610 -0.7117  0.8968  0.3506
  238MOL0     C32010   4.596   7.084   1.649  0.2718  0.1234  0.1515
  238MOL0     C32011   4.608   7.236   1.621 -0.4610  0.2837 -0.0824
  238MOL0     N32012   4.700   7.297   1.713 -0.6616  0.2094 -0.3049
  238MOL0     C32013   4.835   7.279   1.705 -0.8148  0.4450  0.4332
  238MOL0     C32014   4.896   7.387   1.770  0.0839 -0.0910  0.0270
  238MOL0     C32015   5.038   7.436   1.751 -0.6510  0.2994  0.3571
  238MOL0     C32016   5.132   7.320   1.788 -0.0640 -1.3043 -0.2637
  238MOL0     C32017   5.276   7.339   1.713  0.5171 -0.6606 -0.7676
  238MOL0     C32018   5.383   7.234   1.744  0.7271  0.1089 -0.7242
  238MOL0     O32019   5.376   7.184   1.874  0.5238  0.0764 -0.9375
  238MOL0     C32020   5.396   7.263   1.986 -0.2463 -0.7426  0.5421
  238MOL0     C32021   5.334   7.212   2.091 -0.4042 -0.7682  0.0452
  238MOL0     C32022   5.351   7.263   2.226 -0.3759  0.0671 -0.6146
  238MOL0     C32023   5.440   7.377   2.242  0.2971 -0.2966 -0.5172
  238MOL0     C32024   5.474   7.438   2.374 -0.4515  0.9922 -0.7232
  238MOL0     O32025   5.476   7.571   2.379 -0.7230 -0.2225  0.3330
  238MOL0     C32026   5.502   7.634   2.491 -0.9155 -0.4180 -0.1898
  238MOL0     C32027   5.609   7.603   2.574  0.0424  0.4374  0.0644
  238MOL0     C32028   5.638   7.674   2.684  0.4325  0.7496 -0.3789
  238MOL0     C32029   5.548   7.781   2.719 -0.1191 -0.2091  0.2412
  238MOL0     O32030   5.570   7.845   2.843  0.3781  0.0608 -0.0951
  238MOL0     C32031   5.509   7.792   2.966  0.0651 -0.2610  0.1117
  238MOL0     C32032   5.575   7.839   3.103  0.9107 -0.7256  0.8208
  238MOL0     C32033   5.530   7.981   3.140 -0.1726  0.7647  0.2515
  238MOL0     C32034   5.645   8.060   3.196 -0.4587  0.2349  0.2058
  238MOL0     C32035   5.592   8.188   3.272  0.2991  0.5908  0.4066
  238MOL0     C32036   5.520   8.292   3.190  0.9813 -0.5312  0.6241
  238MOL0     C32037   5.466   8.407   3.278  0.0511  0.1077  0.5108
  238MOL0     C32038   5.411   8.518   3.183  0.4880 -0.4208 -0.6749
  238MOL0    Cl32039   5.327   8.461   3.028  0.2700 -0.0538  0.3276
  238MOL0     C32040   5.454   7.820   2.630  0.5715  0.3404 -0.7052
  238MOL0     C32041   5.422   7.748   2.516  0.7869 -0.3029 -0.1117
  238MOL0     O32042   5.478   7.359   2.469 -0.1255 -0.9848  0.2970
  238MOL0     C32043   5.505   7.428   2.129 -0.7157  0.2200  0.2008
  238MOL0     C32044   5.485   7.375   2.001  0.9717  0.7930 -0.1030
  238MOL0     N32045   4.796   7.449   1.829  0.3236  0.0183 -1.1227
  238MOL0     N32046   4.676   7.404   1.781  0.5873  0.2371  0.0604
  238MOL0     C32047   4.025   7.195   2.404 -0.0067  0.0371 -0.3518
  238MOL0     C32048   3.982   7.264   2.513 -0.1274  1.3241 -0.5363
  238MOL0     C32049   3.957   7.375   2.956 -0.1795  0.5481  0.3261
  238MOL0     C32050   4.045   7.479   2.958 -0.7778 -0.2195  0.4568
  238MOL0     C32051   4.061   7.556   3.073  0.0293  0.8536  0.2629
  238MOL0     C32052   4.002   7.514   3.193 -0.2102 -0.1111  0.8217
  238MOL0     O32053   4.038   7.564   3.316 -0.0657 -0.5970  0.0926
  238MOL0     C32054   4.157   7.655   3.326  0.4696  0.8297 -0.9027
  238MOL0     C32055   4.286   7.566   3.322 -0.1276  0.1996 -0.6188
  238MOL0     C32056   4.271   7.445   3.416  0.2861 -0.1489 -0.7375
  238MOL0     C32057   4.243   7.483   3.567  0.1970 -0.8598  0.5458
  238MOL0     C32058   4.235   7.355   3.645  0.1811  0.4282  1.2391
  238MOL0     C32059   4.234   7.251   3.711  0.2107  0.1106  0.0876
  238MOL0     C32060   3.922   7.401   3.191  0.6600 -0.7353 -0.8918
  238MOL0     C32061   3.890   7.331   3.077  0.4049  0.1613 -0.2739
  238MOL0     C32062   3.795   7.209   3.093 -0.5985 -0.4923 -1.1668
  238MOL0     H32063   4.190   7.124   2.741 -2.7610  0.2699  2.3902
  238MOL0     H32064   4.273   6.999   2.530  0.2011  0.8469  0.1748
  238MOL0     H32065   4.059   7.086   2.128 -0.1013 -0.8621  1.5910
  238MOL0     H32066   4.197   7.181   2.165  1.9293 -1.5645 -0.8028
  238MOL0     H32067   4.224   6.897   2.063  0.5736 -0.2182 -0.0491
  238MOL0     H32068   4.348   7.005   2.081  0.0308  0.6039  0.6693
  238MOL0     H32069   4.257   7.168   1.914  1.0709 -0.3079  1.5985
  238MOL0     H32070   4.137   7.047   1.864  0.5390 -0.7738  0.6095
  238MOL0     H32071   4.434   6.998   1.860  1.2896 -2.5665 -0.5258
  238MOL0     H32072   4.324   6.885   1.803 -1.3427 -0.6821  0.5710
  238MOL0     H32073   4.250   7.066   1.632 -0.6675 -0.6660  1.2355
  238MOL0     H32074   4.353   7.185   1.726 -2.9777 -0.2223  0.8744
  238MOL0     H32075   4.462   6.931   1.601  0.5468  0.7361  2.2203
  238MOL0     H32076   4.432   7.082   1.512 -0.2308 -0.0106 -0.1890
  238MOL0     H32077   4.672   7.026   1.596 -0.6222 -2.7750  1.7908
  238MOL0     H32078   4.623   7.062   1.753  1.7240  0.4546 -0.1318
  238MOL0     H32079   4.655   7.261   1.525  0.2838 -0.5132  0.0667
  238MOL0     H32080   4.511   7.284   1.612 -1.0591 -1.0943 -1.5594
  238MOL0     H32081   4.873   7.204   1.636 -2.6467  0.9400 -1.2160
  238MOL0     H32082   5.043   7.444   1.642  1.3347  1.6509  0.5049
  238MOL0     H32083   5.076   7.518   1.813  0.8204 -0.5592  0.6207
  238MOL0     H32084   5.139   7.317   1.897  2.2292 -0.1072 -0.3225
  238MOL0     H32085   5.083   7.231   1.747 -3.2952 -0.3871  1.2214
  238MOL0     H32086   5.309   7.438   1.744 -4.7835  0.1196  4.0730
  238MOL0     H32087   5.258   7.346   1.606 -0.4697  2.0097 -0.4878
  238MOL0     H32088   5.486   7.266   1.724 -0.1433  1.8205 -2.6905
  238MOL0     H32089   5.381   7.150   1.674  0.3111  0.6776 -1.4008
  238MOL0     H32090   5.286   7.118   2.067 -0.1623 -0.4196 -2.0322
  238MOL0     H32091   5.294   7.212   2.302 -1.4023 -0.2851 -1.5883
  238MOL0     H32092   5.676   7.524   2.541  1.0255  0.1715  2.4801
  238MOL0     H32093   5.718   7.652   2.754  0.3472  3.7129  0.7974
  238MOL0     H32094   5.405   7.824   2.960  1.6200  6.0362 -0.7598
  238MOL0     H32095   5.532   7.685   2.961  2.7132  0.2698 -0.8190
  238MOL0     H32096   5.534   7.773   3.181  1.1952 -2.2891 -0.3134
  238MOL0     H32097   5.683   7.826   3.091  1.3391  2.3959  0.5440
  238MOL0     H32098   5.499   8.033   3.049 -2.8952  1.5568  1.5375
  238MOL0     H32099   5.440   7.978   3.203  0.8945 -0.1981  1.8064
  238MOL0     H32100   5.715   8.090   3.118  1.7211  0.7084  2.2205
  238MOL0     H32101   5.698   7.991   3.262 -1.1722  2.0390  2.8201
  238MOL0     H32102   5.677   8.234   3.324  0.1966  0.0004  1.1179
  238MOL0     H32103   5.533   8.151   3.356  0.0251 -0.5322 -0.2644
  238MOL0     H32104   5.578   8.350   3.116 -1.6690  2.6759  0.8256
  238MOL0     H32105   5.432   8.243   3.146  1.2279 -0.6143  0.2132
  238MOL0     H32106   5.549   8.441   3.341  1.6668 -1.5933 -0.5951
  238MOL0     H32107   5.395   8.370   3.352  0.2289  0.8076  1.0462
  238MOL0     H32108   5.338   8.586   3.228 -0.8052 -1.6105 -0.9201
  238MOL0     H32109   5.495   8.585   3.160 -0.2708 -0.0955 -2.7019
  238MOL0     H32110   5.411   7.918   2.651 -1.6932 -0.8237  0.5331
  238MOL0     H32111   5.347   7.778   2.444 -0.3005  3.9552  2.4451
  238MOL0     H32112   5.570   7.514   2.128 -1.1266  0.5595 -2.0085
  238MOL0     H32113   5.534   7.414   1.912 -0.1459 -0.0506 -1.1274
  238MOL0     H32114   3.984   7.209   2.304  0.5078 -0.8543 -0.6954
  238MOL0     H32115   3.905   7.340   2.506 -1.1620  0.4797  1.2862
  238MOL0     H32116   4.112   7.490   2.874  1.5313 -0.5409  2.1766
  238MOL0     H32117   4.128   7.640   3.059 -0.2562  0.7147 -2.6029
  238MOL0     H32118   4.156   7.699   3.427  4.1438  1.0824 -0.8597
  238MOL0     H32119   4.154   7.734   3.251 -1.7241  1.0451 -0.6536
  238MOL0     H32120   4.375   7.626   3.345 -1.9525  2.2211  1.5360
  238MOL0     H32121   4.294   7.520   3.223 -2.6500 -4.0984  0.9038
  238MOL0     H32122   4.352   7.374   3.397  0.2556 -0.2291 -0.5758
  238MOL0     H32123   4.181   7.392   3.385 -0.6298 -0.3899  2.0149
  238MOL0     H32124   4.327   7.540   3.608  2.3309 -1.4760 -2.5498
  238MOL0     H32125   4.156   7.547   3.577  1.0890  1.0705 -2.5706
  238MOL0     H32126   4.242   7.153   3.753  1.7451  1.7815  4.1536
  238MOL0     H32127   3.863   7.379   3.279 -1.8726  1.3910 -1.8970
  238MOL0     H32128   3.853   7.117   3.087 -0.3035 -0.4189  0.2937
  238MOL0     H32129   3.747   7.204   3.191  2.4746 -1.1769  0.4166
  238MOL0     H32130   3.719   7.206   3.014 -1.8866  0.3125 -0.0206
  239MOL0     O32131   5.885   0.254   0.277 -0.4038  0.5285 -0.0002
  239MOL0     C32132   5.917   0.347   0.201 -0.0069  0.4311  0.3717
  239MOL0     O32133   6.004   0.441   0.222 -0.3081 -0.3383  0.6385
  239MOL0     C32134   6.111   0.410   0.305  0.2012 -0.0452 -0.8327
  239MOL0     C32135   6.240   0.439   0.259 -0.4139 -0.0347 -0.4828
  239MOL0     C32136   6.355   0.417   0.335 -0.8692  0.2886 -0.1480
  239MOL0     C32137   6.338   0.366   0.458  0.6766  0.6042 -0.1719
  239MOL0     O32138   6.437   0.348   0.549  0.0470  0.0357  0.1394
  239MOL0     C32139   6.514   0.228   0.527  0.4721  0.2584 -0.2079
  239MOL0     C32140   6.584   0.177   0.653  0.1516  0.3853  0.1422
  239MOL0     C32141   6.705   0.270   0.686  0.2150  0.0135  0.1606
  239MOL0     C32142   6.798   0.206   0.789  0.4437 -0.6248  0.5076
  239MOL0     C32143   6.945   0.224   0.753 -0.6381  0.2412 -0.2468
  239MOL0     C32144   6.990   0.357   0.815  0.2609  0.5483  0.0794
  239MOL0     C32145   7.128   0.407   0.750 -0.3413 -0.8628  0.0024
  239MOL0     C32146   7.174   0.540   0.825  1.8469  1.2382 -0.7469
  239MOL0     N32147   7.080   0.653   0.795  0.4004  0.1826 -0.0475
  239MOL0     C32148   7.033   0.752   0.874  0.9265  0.2877 -0.3375
  239MOL0     C32149   6.960   0.830   0.796 -0.1799 -0.4695 -1.0226
  239MOL0     C32150   6.900   0.958   0.851  0.5136 -0.5541  0.4345
  239MOL0     C32151   6.762   0.987   0.774  0.6731  0.9506  0.1228
  239MOL0     C32152   6.689   1.115   0.819  0.8891  0.3327  0.1797
  239MOL0     C32153   6.562   1.146   0.730 -0.9521 -0.2343  0.6791
  239MOL0     O32154   6.607   1.164   0.591 -0.5136 -0.3177 -0.6435
  239MOL0     C32155   6.520   1.148   0.493  0.6480 -0.0715  1.0980
  239MOL0     C32156   6.382   1.154   0.501  0.2696 -0.2305 -0.2620
  239MOL0     C32157   6.303   1.122   0.387 -0.4555 -0.2312  0.9656
  239MOL0     C32158   6.366   1.081   0.268  0.8518 -0.2724  0.4733
  239MOL0     C32159   6.281   1.033   0.158 -0.2352 -1.5167  0.6973
  239MOL0     O32160   6.148   1.058   0.159  0.4845 -0.1064  0.1362
  239MOL0     C32161   6.065   0.994   0.069 -0.7125 -0.2323 -1.0995
  239MOL0     C32162   5.947   1.065   0.046 -1.1428  0.8566  0.0548
  239MOL0     C32163   5.869   1.013  -0.057 -0.1726 -0.6488 -0.5912
  239MOL0     C32164   5.887   0.898  -0.126 -0.0321  0.2042  0.4891
  239MOL0     O32165   5.808   0.846  -0.232 -0.0359 -0.2460 -0.5111
  239MOL0     C32166   5.689   0.912  -0.277 -1.6293 -0.0081  0.3362
  239MOL0     C32167   5.600   0.826  -0.368 -0.6883  0.4134 -0.0636
  239MOL0     C32168   5.505   0.920  -0.439 -0.0711  0.2596 -0.8695
  239MOL0     C32169   5.406   0.831  -0.513  0.7420  0.4571  0.6293
  239MOL0     C32170   5.312   0.936  -0.580 -0.8302 -1.0832 -0.6582
  239MOL0     C32171   5.213   0.863  -0.659 -0.4448  0.2987  0.7318
  239MOL0     C32172   5.116   0.954  -0.734  0.4765  0.4392  0.1587
  239MOL0     C32173   4.996   0.886  -0.807  0.7655 -0.0702  0.3969
  239MOL0    Cl32174   5.023   0.800  -0.966 -0.4948  0.0949  0.5161
  239MOL0     C32175   5.994   0.820  -0.093 -0.6179  0.1523  0.2420
  239MOL0     C32176   6.078   0.866   0.004 -0.9188 -0.0799 -0.4629
  239MOL0     O32177   6.336   0.986   0.064  0.2120  0.9771  0.8435
  239MOL0     C32178   6.502   1.086   0.257 -0.4167 -0.2734 -0.4487
  239MOL0     C32179   6.580   1.124   0.365  0.1173  0.9952 -0.2041
  239MOL0     N32180   6.970   0.779   0.668  0.1133  0.8804 -0.5924
  239MOL0     N32181   7.039   0.668   0.665  0.2665  0.4381 -0.7062
  239MOL0     C32182   6.211   0.358   0.518  0.7206 -0.2792 -0.2775
  239MOL0     C32183   6.097   0.379   0.444 -0.7418 -0.7498 -0.3790
  239MOL0     C32184   5.828   0.367   0.079 -0.5538  0.0516 -1.4886
  239MOL0     C32185   5.773   0.489   0.059 -0.4010 -0.6179  1.2657
  239MOL0     C32186   5.718   0.530  -0.064 -0.1831  0.1463  0.1619
  239MOL0     C32187   5.686   0.431  -0.162 -0.3072 -0.8712  0.9342
  239MOL0     O32188   5.629   0.465  -0.285  0.4650  0.0162  0.2865
  239MOL0     C32189   5.606   0.358  -0.384  0.0921 -0.6469 -0.4740
  239MOL0     C32190   5.537   0.420  -0.508  0.2571  0.7386 -0.4912
  239MOL0     C32191   5.577   0.348  -0.635  0.1746 -0.2340 -0.0349
  239MOL0     C32192   5.560   0.438  -0.760 -0.5998 -0.5244 -0.1935
  239MOL0     C32193   5.423   0.443  -0.798 -0.0661  0.7166 -0.3306
  239MOL0     C32194   5.308   0.465  -0.842 -0.4644  0.7105  0.0109
  239MOL0     C32195   5.725   0.304  -0.136 -1.1279  0.6238  0.2489
  239MOL0     C32196   5.788   0.269  -0.016  0.0265 -0.0044  0.8036
  239MOL0     C32197   5.826   0.125   0.003  0.2123  0.2482 -0.9096
  239MOL0     H32198   6.244   0.473   0.156 -0.4728 -2.0075 -1.1680
  239MOL0     H32199   6.451   0.432   0.287 -2.1062  1.1495 -2.5243
  239MOL0     H32200   6.452   0.147   0.488  2.2010 -1.8234  1.0817
  239MOL0     H32201   6.585   0.253   0.448  1.8121 -1.3225  0.4220
  239MOL0     H32202   6.621   0.075   0.635 -0.5614  0.1692 -0.1417
  239MOL0     H32203   6.520   0.181   0.741  3.1330  0.0146  2.5004
  239MOL0     H32204   6.672   0.367   0.725 -4.2783 -0.0640 -2.7501
  239MOL0     H32205   6.758   0.291   0.593  0.5840 -2.8087 -0.3505
  239MOL0     H32206   6.776   0.239   0.891 -0.6311  2.7345 -0.6621
  239MOL0     H32207   6.780   0.098   0.781  1.6511 -0.8899  1.1758
  239MOL0     H32208   6.998   0.151   0.814 -1.7363  1.0301  1.7380
  239MOL0     H32209   6.975   0.210   0.649  1.8913 -1.2140  0.5939
  239MOL0     H32210   6.909   0.425   0.786 -1.1033 -1.4787 -1.1260
  239MOL0     H32211   7.008   0.355   0.923 -2.8322  1.4189  0.7170
  239MOL0     H32212   7.125   0.425   0.642  2.3134  0.9959  0.1211
  239MOL0     H32213   7.202   0.327   0.758 -2.1160 -2.5723 -0.0111
  239MOL0     H32214   7.189   0.525   0.932  0.7094 -1.7713 -0.9095
  239MOL0     H32215   7.270   0.563   0.777  2.0561 -0.2033 -1.0761
  239MOL0     H32216   7.053   0.760   0.981 -2.4215 -2.0059  0.6419
  239MOL0     H32217   6.885   0.943   0.958 -0.3915 -1.4002  0.1990
  239MOL0     H32218   6.971   1.041   0.839 -3.0315  2.9181  1.2852
  239MOL0     H32219   6.781   0.989   0.667 -1.0198  0.1451 -0.2207
  239MOL0     H32220   6.697   0.900   0.783 -1.4730  2.4911  0.3100
  239MOL0     H32221   6.756   1.200   0.802 -0.2358  0.7520 -2.6132
  239MOL0     H32222   6.665   1.117   0.926 -0.5699  2.2796 -0.1214
  239MOL0     H32223   6.507   1.233   0.766 -1.4341 -0.3928  0.3447
  239MOL0     H32224   6.496   1.059   0.724 -0.7012 -0.5955  2.5336
  239MOL0     H32225   6.325   1.176   0.591  1.0754 -0.1073  0.2265
  239MOL0     H32226   6.197   1.142   0.393  0.0888  2.9237  2.6875
  239MOL0     H32227   5.927   1.155   0.103  2.2276  0.7516  1.6959
  239MOL0     H32228   5.782   1.072  -0.084  1.1032  1.5780 -0.1411
  239MOL0     H32229   5.630   0.960  -0.199 -0.1465  1.5955  0.5357
  239MOL0     H32230   5.729   0.991  -0.341 -0.0460  0.3734  1.7168
  239MOL0     H32231   5.659   0.774  -0.445  0.4595  2.5138 -0.6598
  239MOL0     H32232   5.548   0.750  -0.308  1.6748  1.1344  3.1860
  239MOL0     H32233   5.453   0.981  -0.365 -2.2807 -2.6220  0.1397
  239MOL0     H32234   5.552   0.980  -0.517  3.0318 -1.9849 -0.9084
  239MOL0     H32235   5.347   0.766  -0.447  1.7768 -0.6205  0.5205
  239MOL0     H32236   5.463   0.768  -0.582  1.6400  3.0251 -1.1131
  239MOL0     H32237   5.363   0.998  -0.654  0.6772 -0.3949  0.8944
  239MOL0     H32238   5.274   1.002  -0.502  3.3317  0.0794  0.6574
  239MOL0     H32239   5.258   0.805  -0.740  1.5979 -0.8820  2.6059
  239MOL0     H32240   5.164   0.792  -0.591 -1.3185 -1.4023 -1.5418
  239MOL0     H32241   5.178   1.009  -0.805  2.5508  0.8787  2.1955
  239MOL0     H32242   5.085   1.036  -0.668  2.3529  1.7163 -0.4699
  239MOL0     H32243   4.964   0.809  -0.735  2.3907 -0.8508  0.3392
  239MOL0     H32244   4.922   0.966  -0.812  0.0271 -0.7772 -0.0730
  239MOL0     H32245   5.997   0.722  -0.140 -1.1803  0.1811  0.1321
  239MOL0     H32246   6.165   0.804   0.021 -0.2914  0.7507 -0.6344
  239MOL0     H32247   6.544   1.052   0.163 -2.3962 -1.7720 -0.8677
  239MOL0     H32248   6.688   1.132   0.361  0.0783  2.0322  0.5252
  239MOL0     H32249   6.210   0.339   0.625 -1.7716  0.9797 -0.0052
  239MOL0     H32250   6.000   0.367   0.490 -1.1031 -4.4785 -1.7755
  239MOL0     H32251   5.782   0.568   0.134 -4.4120 -1.3345  2.7666
  239MOL0     H32252   5.689   0.635  -0.066  1.5981  0.6660 -0.3356
  239MOL0     H32253   5.533   0.283  -0.352 -0.8145 -0.4135 -1.8944
  239MOL0     H32254   5.705   0.315  -0.405  0.8814  0.2004  1.3714
  239MOL0     H32255   5.578   0.521  -0.512 -0.8572  1.2055 -0.5174
  239MOL0     H32256   5.430   0.421  -0.487  0.4165  0.9266  0.3404
  239MOL0     H32257   5.524   0.253  -0.645  0.0522 -0.0632 -1.2717
  239MOL0     H32258   5.685   0.336  -0.623  0.1592 -0.3404 -0.0043
  239MOL0     H32259   5.606   0.537  -0.753  1.4731 -1.2825 -1.9076
  239MOL0     H32260   5.612   0.394  -0.846  2.5762 -0.8012  1.7211
  239MOL0     H32261   5.205   0.470  -0.870 -0.8896 -2.3512  0.6777
  239MOL0     H32262   5.718   0.225  -0.211  0.3373  0.8586 -0.1650
  239MOL0     H32263   5.935   0.114   0.013  0.2382 -0.1897 -1.6343
  239MOL0     H32264   5.763   0.091   0.086  0.6182 -1.1786 -1.1428
  239MOL0     H32265   5.803   0.060  -0.081  1.8266  0.4273 -1.5258
  240MOL0     O32266  10.948   1.994   4.909  0.6779  0.3283  0.5856
  240MOL0     C32267  10.827   2.016   4.914  0.0412 -0.4325  0.7281
  240MOL0     O32268  10.740   1.933   4.971  0.8801 -0.3203  0.4962
  240MOL0     C32269  10.791   1.827   5.043 -0.0521 -0.6923 -0.1332
  240MOL0     C32270  10.809   1.829   5.184 -0.5867 -0.4157  0.3657
  240MOL0     C32271  10.867   1.719   5.241  0.6505 -0.2816 -0.5190
  240MOL0     C32272  10.876   1.595   5.162  0.2043  0.2276 -0.2013
  240MOL0     O32273  10.926   1.495   5.237 -0.4486  0.5486  0.3558
  240MOL0     C32274  10.952   1.372   5.171 -0.5473  0.0955  0.1353
  240MOL0     C32275  11.023   1.283   5.273  0.2012  0.6526 -0.0822
  240MOL0     C32276  11.093   1.162   5.200 -1.2515  0.7787 -0.2559
  240MOL0     C32277  11.013   1.091   5.098  0.2739 -0.1070  0.5345
  240MOL0     C32278  11.095   1.004   4.999 -0.9526 -0.2157  0.4158
  240MOL0     C32279  11.148   0.877   5.066  0.2456  0.3747  0.8794
  240MOL0     C32280  11.215   0.793   4.954 -0.4499 -0.2650  0.6282
  240MOL0     C32281  11.288   0.682   5.030 -0.4289  0.3421 -0.2737
  240MOL0     N32282  11.196   0.588   5.082  0.3536 -0.2917  1.2852
  240MOL0     C32283  11.150   0.478   5.016  0.5356 -0.5274 -0.4156
  240MOL0     C32284  11.063   0.417   5.097  0.3530  0.4786 -0.4338
  240MOL0     C32285  10.958   0.302   5.059  0.9184  0.3335  1.0536
  240MOL0     C32286  10.928   0.213   5.180 -0.1214 -0.1565 -0.4647
  240MOL0     C32287  10.848   0.098   5.129 -0.7677  0.0226 -0.6670
  240MOL0     C32288  10.768   0.032   5.244  0.3630  0.1069  1.2328
  240MOL0     O32289  10.859  -0.043   5.322 -0.1164 -0.0032 -0.7592
  240MOL0     C32290  10.809  -0.126   5.414  0.3566 -0.8653 -0.2824
  240MOL0     C32291  10.677  -0.122   5.463 -0.2186  0.3815 -0.4870
  240MOL0     C32292  10.634  -0.227   5.550 -0.1000  0.4245  0.0273
  240MOL0     C32293  10.716  -0.333   5.587  0.4627 -0.1425  0.1226
  240MOL0     C32294  10.668  -0.444   5.680  0.2602 -0.2484 -0.3609
  240MOL0     O32295  10.548  -0.426   5.731 -0.5391 -1.0548 -0.2954
  240MOL0     C32296  10.498  -0.530   5.808  0.8312 -0.3921 -0.4847
  240MOL0     C32297  10.372  -0.582   5.779 -1.1236 -0.0545  0.2889
  240MOL0     C32298  10.314  -0.678   5.862  0.7633 -0.4181  0.4690
  240MOL0     C32299  10.380  -0.724   5.974  0.7138 -0.3419 -0.4972
  240MOL0     O32300  10.325  -0.804   6.069  0.0893  0.2191  0.2337
  240MOL0     C32301  10.237  -0.912   6.030  0.7408  0.1495 -0.1049
  240MOL0     C32302  10.291  -1.053   6.062 -0.2802 -1.6076  0.1392
  240MOL0     C32303  10.309  -1.125   5.927 -0.3830 -0.5934 -0.4758
  240MOL0     C32304  10.178  -1.207   5.896 -0.3830 -0.9587 -0.4701
  240MOL0     C32305  10.157  -1.306   6.004 -0.5202 -0.1628 -0.5407
  240MOL0     C32306  10.057  -1.415   5.966 -0.4102 -0.4489  0.0956
  240MOL0     C32307  10.057  -1.538   6.056  0.4111 -0.1194 -1.2972
  240MOL0     C32308   9.934  -1.632   6.038  0.4916  0.0907 -0.7972
  240MOL0    Cl32309   9.777  -1.549   6.095 -0.1846 -0.1077 -0.3775
  240MOL0     C32310  10.500  -0.674   6.006  0.1052 -1.0034 -0.4168
  240MOL0     C32311  10.561  -0.573   5.928  0.1588  0.3283 -0.3373
  240MOL0     O32312  10.763  -0.521   5.710 -0.3872  0.2110  0.4661
  240MOL0     C32313  10.843  -0.338   5.535 -0.9051 -0.4561  0.9778
  240MOL0     C32314  10.895  -0.231   5.458 -0.4965  0.9914  0.2304
  240MOL0     N32315  11.071   0.481   5.221 -0.0585 -0.0346 -0.2507
  240MOL0     N32316  11.151   0.581   5.206 -0.7866 -0.2259 -0.9201
  240MOL0     C32317  10.837   1.593   5.029 -0.0723 -0.1293 -0.3931
  240MOL0     C32318  10.809   1.711   4.970  0.5661  0.2114  0.2552
  240MOL0     C32319  10.774   2.148   4.883 -0.0966 -0.4603 -0.5732
  240MOL0     C32320  10.655   2.188   4.961  0.3787  0.4217  0.0870
  240MOL0     C32321  10.600   2.317   4.945  0.0456  0.1252  0.1437
  240MOL0     C32322  10.659   2.411   4.853  0.4107  1.0038 -0.2525
  240MOL0     O32323  10.610   2.534   4.825  0.4460 -0.2329 -0.4219
  240MOL0     C32324  10.604   2.626   4.936 -0.0156 -0.0771 -0.2774
  240MOL0     C32325  10.540   2.754   4.877 -0.3594  0.4418 -0.3067
  240MOL0     C32326  10.504   2.846   4.998 -0.5524 -0.1595  0.4148
  240MOL0     C32327  10.429   2.977   4.948 -0.1044 -0.3209  0.3819
  240MOL0     C32328  10.362   3.043   5.063  0.4481 -0.1004 -0.9676
  240MOL0     C32329  10.305   3.074   5.164  0.5747  0.6750  0.4898
  240MOL0     C32330  10.761   2.368   4.770  0.2106  0.3457  0.4891
  240MOL0     C32331  10.827   2.243   4.791  0.0459 -0.0530 -1.0250
  240MOL0     C32332  10.939   2.206   4.693 -0.3103 -0.3337  0.0592
  240MOL0     H32333  10.784   1.921   5.237 -0.2883 -1.3522  2.2168
  240MOL0     H32334  10.900   1.718   5.344 -1.6305  2.1785  0.3669
  240MOL0     H32335  10.866   1.312   5.138 -1.0615  1.0748 -0.3396
  240MOL0     H32336  11.028   1.398   5.097  1.0721 -2.2041  0.8909
  240MOL0     H32337  10.950   1.254   5.350  0.3455 -0.9155 -0.5077
  240MOL0     H32338  11.112   1.332   5.316  1.1329 -1.4366  0.4815
  240MOL0     H32339  11.135   1.092   5.272  2.3204  1.0183 -1.9321
  240MOL0     H32340  11.183   1.196   5.149 -0.5394 -3.1590 -1.9798
  240MOL0     H32341  10.944   1.023   5.148  0.5881 -0.6174  0.2884
  240MOL0     H32342  10.972   1.167   5.031  3.0299  0.8324 -0.2106
  240MOL0     H32343  11.029   0.966   4.921 -2.4378 -0.7498  1.8718
  240MOL0     H32344  11.180   1.062   4.962 -1.0684  1.0348  1.9794
  240MOL0     H32345  11.221   0.901   5.144  0.4161  1.0912  0.5037
  240MOL0     H32346  11.057   0.823   5.096 -1.0794 -1.0824 -4.6451
  240MOL0     H32347  11.275   0.859   4.891 -0.9090 -0.2901  0.1591
  240MOL0     H32348  11.142   0.751   4.885  0.6655  1.9089 -2.0715
  240MOL0     H32349  11.373   0.637   4.978  3.3140  5.6338  0.5317
  240MOL0     H32350  11.344   0.723   5.114  1.1214  0.5054 -1.3504
  240MOL0     H32351  11.166   0.456   4.911  1.9473  1.1124 -0.5923
  240MOL0     H32352  10.871   0.360   5.027  0.8505 -0.9487 -1.2300
  240MOL0     H32353  10.997   0.235   4.982  0.8651  1.9824 -0.4731
  240MOL0     H32354  11.026   0.193   5.225 -0.9229 -2.3995  0.3983
  240MOL0     H32355  10.875   0.264   5.260  2.5084  0.4396  1.0267
  240MOL0     H32356  10.925   0.033   5.087  0.1291  1.8656 -1.9826
  240MOL0     H32357  10.792   0.117   5.037  1.5060 -0.4625 -2.2220
  240MOL0     H32358  10.697  -0.038   5.199  2.4839 -2.8211  2.1679
  240MOL0     H32359  10.712   0.113   5.291 -0.9953 -0.1282  0.1017
  240MOL0     H32360  10.604  -0.046   5.438  0.1812  1.7735  2.1971
  240MOL0     H32361  10.539  -0.224   5.603  0.0181 -0.8267  0.3360
  240MOL0     H32362  10.321  -0.541   5.692 -1.9406  0.7884  1.1411
  240MOL0     H32363  10.212  -0.711   5.847 -0.0617  1.5939  1.3882
  240MOL0     H32364  10.138  -0.894   6.073 -0.9823 -1.3851 -3.1061
  240MOL0     H32365  10.214  -0.892   5.925  2.6159  0.0119 -0.5772
  240MOL0     H32366  10.394  -1.034   6.095 -0.7147 -0.0922  0.6818
  240MOL0     H32367  10.239  -1.105   6.142 -0.9393  0.8784  1.4307
  240MOL0     H32368  10.343  -1.060   5.846 -0.6356 -0.1333 -0.2162
  240MOL0     H32369  10.397  -1.189   5.938 -0.9303 -1.6888 -2.0851
  240MOL0     H32370  10.186  -1.258   5.800  1.8956 -1.4711 -0.0580
  240MOL0     H32371  10.089  -1.145   5.879  0.0171 -0.5915 -1.2942
  240MOL0     H32372  10.122  -1.272   6.102  0.5034 -1.4468  0.2960
  240MOL0     H32373  10.254  -1.349   6.029 -0.8054  0.3114  1.6383
  240MOL0     H32374   9.962  -1.361   5.962  0.7838  2.0135  2.2505
  240MOL0     H32375  10.088  -1.454   5.869  0.6947 -1.6719  0.8952
  240MOL0     H32376  10.069  -1.512   6.161 -2.8724 -1.1906 -0.5120
  240MOL0     H32377  10.146  -1.597   6.029  1.4965 -0.0790  1.8227
  240MOL0     H32378   9.917  -1.660   5.934 -5.2813 -1.1422  0.1267
  240MOL0     H32379   9.955  -1.723   6.094 -0.5882  0.3000 -0.0025
  240MOL0     H32380  10.550  -0.698   6.100 -1.1111  0.7252  0.7116
  240MOL0     H32381  10.660  -0.532   5.946 -1.4981  3.0400  4.1210
  240MOL0     H32382  10.908  -0.419   5.566  1.6078  1.1593  0.2603
  240MOL0     H32383  10.994  -0.243   5.415 -0.2208  1.1128  0.8182
  240MOL0     H32384  10.853   1.503   4.970 -2.0310 -0.4207 -0.5436
  240MOL0     H32385  10.787   1.729   4.865  0.1213 -0.8171  0.1579
  240MOL0     H32386  10.614   2.124   5.038  1.3244  1.9114  1.9010
  240MOL0     H32387  10.518   2.353   5.006  0.2528 -1.2780  1.3125
  240MOL0     H32388  10.707   2.646   4.968 -0.0353 -1.2042  0.5608
  240MOL0     H32389  10.545   2.585   5.019  1.4135 -2.0920 -0.1760
  240MOL0     H32390  10.449   2.736   4.819  1.4859  0.3917 -3.3962
  240MOL0     H32391  10.617   2.798   4.814  0.6675  0.0941  0.6739
  240MOL0     H32392  10.598   2.867   5.050  2.3530 -4.2078 -2.5642
  240MOL0     H32393  10.434   2.793   5.063  0.1396 -1.4539  0.1387
  240MOL0     H32394  10.507   3.046   4.912  0.4503 -0.8440  0.5655
  240MOL0     H32395  10.352   2.958   4.873 -1.0027 -3.5534  1.9597
  240MOL0     H32396  10.263   3.103   5.258 -0.3021  0.0233  0.3141
  240MOL0     H32397  10.802   2.441   4.701  0.7794  0.9930  1.4837
  240MOL0     H32398  10.927   2.101   4.664  0.4452 -0.6554  0.8776
  240MOL0     H32399  10.935   2.275   4.608 -0.3829  1.1850  1.2449
  240MOL0     H32400  11.035   2.206   4.745 -0.9267 -4.2091  1.5313
  241MOL0     O32401   0.763   2.812   4.046 -0.4415  0.5750 -1.2965
  241MOL0     C32402   0.821   2.707   4.030  0.5408  0.3525  0.2035
  241MOL0     O32403   0.834   2.635   3.912  0.2885 -0.3657 -0.1599
  241MOL0     C32404   0.794   2.711   3.799 -0.8447 -0.3276  0.1026
  241MOL0     C32405   0.890   2.792   3.752  0.7742 -0.2079  0.2780
  241MOL0     C32406   0.878   2.859   3.628  0.3842  0.0536  0.4835
  241MOL0     C32407   0.756   2.858   3.555  0.0763 -0.1718  0.7112
  241MOL0     O32408   0.741   2.952   3.460  0.0919  0.5930 -0.5940
  241MOL0     C32409   0.616   2.982   3.406  0.7322 -0.0345 -0.5027
  241MOL0     C32410   0.621   3.131   3.345  0.6382  0.4066 -0.3573
  241MOL0     C32411   0.533   3.157   3.218  0.2885 -1.0591  0.7487
  241MOL0     C32412   0.391   3.198   3.260  0.1816 -0.1153  0.1302
  241MOL0     C32413   0.289   3.209   3.135 -0.1853 -0.1827 -0.1323
  241MOL0     C32414   0.215   3.083   3.081  0.2459 -0.3132 -0.3043
  241MOL0     C32415   0.082   3.112   3.024  0.8762  0.1075  0.5735
  241MOL0     C32416   0.087   3.186   2.895  0.2962 -0.5932 -0.2062
  241MOL0     N32417  -0.031   3.178   2.810 -0.4994 -0.0320 -0.0217
  241MOL0     C32418  -0.160   3.164   2.861 -0.4357  0.2519  0.2081
  241MOL0     C32419  -0.241   3.169   2.755 -0.5061  0.2713  0.0305
  241MOL0     C32420  -0.380   3.117   2.762  0.1588  0.3610  0.5772
  241MOL0     C32421  -0.389   2.960   2.776 -0.0106 -0.2962  0.4930
  241MOL0     C32422  -0.525   2.917   2.828 -0.4258 -0.6760  0.4410
  241MOL0     C32423  -0.513   2.767   2.836  0.3345  0.1804 -0.2002
  241MOL0     O32424  -0.635   2.720   2.904  0.3383 -0.6964  0.5085
  241MOL0     C32425  -0.741   2.677   2.821 -0.5228 -0.0530 -0.6871
  241MOL0     C32426  -0.852   2.616   2.887  0.1788 -0.5328 -0.4106
  241MOL0     C32427  -0.954   2.555   2.819 -0.0983 -0.6154 -0.2941
  241MOL0     C32428  -0.960   2.570   2.681  0.1942  0.1046  0.6737
  241MOL0     C32429  -1.070   2.514   2.606 -0.0942  0.8276  0.0631
  241MOL0     O32430  -1.083   2.565   2.480  0.1518 -0.4474 -0.2257
  241MOL0     C32431  -1.172   2.520   2.393 -0.3551  1.5368  0.3072
  241MOL0     C32432  -1.307   2.503   2.427 -0.6557 -0.0725 -0.1690
  241MOL0     C32433  -1.402   2.465   2.332 -0.4919  0.3341 -0.2090
  241MOL0     C32434  -1.377   2.424   2.198 -0.2541  1.0742 -1.5623
  241MOL0     O32435  -1.472   2.380   2.105 -0.1935 -0.5893  0.1451
  241MOL0     C32436  -1.609   2.361   2.145  0.2255  0.6502  0.7046
  241MOL0     C32437  -1.696   2.487   2.107 -1.0682  0.5404 -0.0305
  241MOL0     C32438  -1.735   2.484   1.961 -0.2741  0.3084 -0.3300
  241MOL0     C32439  -1.770   2.621   1.908 -0.6079  0.0040 -0.7003
  241MOL0     C32440  -1.808   2.619   1.760  0.7895 -0.1956  0.6486
  241MOL0     C32441  -1.694   2.586   1.669 -0.1414  0.2418 -0.2365
  241MOL0     C32442  -1.728   2.577   1.510  0.4557 -0.7179  0.0388
  241MOL0     C32443  -1.784   2.432   1.462 -0.2126 -1.2219 -0.2632
  241MOL0    Cl32444  -1.630   2.334   1.448 -0.2477  0.4929  0.5050
  241MOL0     C32445  -1.229   2.436   2.165  0.8873 -0.3839 -0.6565
  241MOL0     C32446  -1.134   2.475   2.265 -0.8915 -1.1805  0.0916
  241MOL0     O32447  -1.144   2.427   2.656  0.4772 -0.9039  0.4040
  241MOL0     C32448  -0.850   2.627   2.611 -0.5482  0.5441 -0.4577
  241MOL0     C32449  -0.746   2.675   2.683  0.7393  0.0786  0.8703
  241MOL0     N32450  -0.167   3.193   2.635  0.4938 -0.4919 -0.1424
  241MOL0     N32451  -0.038   3.196   2.670  0.7347 -0.7638  0.3922
  241MOL0     C32452   0.655   2.771   3.594 -1.2883 -0.4472 -0.6715
  241MOL0     C32453   0.680   2.695   3.714  0.1723 -0.5086 -1.1689
  241MOL0     C32454   0.881   2.656   4.158 -1.0218  0.5517 -0.1023
  241MOL0     C32455   0.862   2.727   4.273 -0.0254  0.0394  0.0516
  241MOL0     C32456   0.944   2.698   4.389 -1.0638 -0.1692 -0.1184
  241MOL0     C32457   1.045   2.594   4.389 -0.4397 -0.1690 -0.3272
  241MOL0     O32458   1.112   2.575   4.504 -0.6954 -0.2334  0.0442
  241MOL0     C32459   1.256   2.570   4.492  0.9034 -0.6316  0.0474
  241MOL0     C32460   1.286   2.449   4.572  0.2474  0.6728 -0.3341
  241MOL0     C32461   1.234   2.452   4.723 -0.0146  0.6609 -0.1439
  241MOL0     C32462   1.281   2.572   4.805 -0.3088 -0.1770 -0.1584
  241MOL0     C32463   1.425   2.560   4.840  0.9189  0.2787  0.3604
  241MOL0     C32464   1.543   2.553   4.878  0.1988  0.7620  1.1925
  241MOL0     C32465   1.064   2.518   4.277  1.7111  0.7934  0.2151
  241MOL0     C32466   0.973   2.542   4.170  0.1521  0.5812  0.5750
  241MOL0     C32467   0.969   2.443   4.056 -0.2892  1.1172 -1.0310
  241MOL0     H32468   0.979   2.800   3.814  1.0893 -1.8190  0.0838
  241MOL0     H32469   0.952   2.921   3.579  0.1713  0.5631  0.7993
  241MOL0     H32470   0.586   2.900   3.340 -3.0607 -2.0221  3.2062
  241MOL0     H32471   0.551   2.982   3.494  1.7227 -2.0069  0.2796
  241MOL0     H32472   0.722   3.149   3.307 -0.2253  2.5821 -1.8075
  241MOL0     H32473   0.584   3.195   3.426 -2.0021  0.4578 -1.5125
  241MOL0     H32474   0.538   3.064   3.160  3.4112 -0.4795 -0.0813
  241MOL0     H32475   0.580   3.234   3.156  1.5780 -1.6318  0.9843
  241MOL0     H32476   0.356   3.145   3.349  1.2002 -0.3769  0.3848
  241MOL0     H32477   0.408   3.299   3.299 -0.8275  0.4026 -0.7055
  241MOL0     H32478   0.211   3.270   3.182  1.8403  0.0530  3.2656
  241MOL0     H32479   0.323   3.274   3.053 -1.2335 -0.6022 -0.9296
  241MOL0     H32480   0.283   3.030   3.014 -0.9600 -3.2544  0.5931
  241MOL0     H32481   0.208   3.012   3.164  0.4890  0.0198  0.0060
  241MOL0     H32482   0.018   3.166   3.095  0.4078 -0.2832  0.4510
  241MOL0     H32483   0.046   3.010   3.009  0.2034  0.1733  1.6100
  241MOL0     H32484   0.078   3.289   2.930 -2.6456 -0.1528 -1.9522
  241MOL0     H32485   0.182   3.181   2.840  0.5859 -1.7950  0.3689
  241MOL0     H32486  -0.181   3.156   2.967 -2.3579  0.0119 -0.1576
  241MOL0     H32487  -0.424   3.149   2.857 -2.5988 -1.4433 -0.0042
  241MOL0     H32488  -0.437   3.160   2.679  1.0651 -1.8983 -1.3126
  241MOL0     H32489  -0.371   2.909   2.681 -3.3124  0.7381 -0.8329
  241MOL0     H32490  -0.318   2.920   2.849 -1.2974 -0.2097  1.8423
  241MOL0     H32491  -0.595   2.931   2.745  0.8352  1.6518 -0.3367
  241MOL0     H32492  -0.559   2.945   2.927 -4.5024 -1.8341 -0.4645
  241MOL0     H32493  -0.428   2.747   2.902  1.5459 -1.5489 -2.1653
  241MOL0     H32494  -0.497   2.714   2.742 -2.9940  2.0568 -2.0393
  241MOL0     H32495  -0.855   2.616   2.995 -0.1055 -1.2852 -0.4108
  241MOL0     H32496  -1.047   2.526   2.867 -1.9193  2.8399 -1.3608
  241MOL0     H32497  -1.332   2.531   2.529 -0.4135  1.5864 -0.5405
  241MOL0     H32498  -1.505   2.476   2.364 -0.7502  2.4033 -1.5499
  241MOL0     H32499  -1.645   2.267   2.102  0.1455  0.3447  1.4166
  241MOL0     H32500  -1.610   2.342   2.253  3.3190  1.1654  0.9194
  241MOL0     H32501  -1.786   2.481   2.168  0.3249 -1.9412  1.9920
  241MOL0     H32502  -1.647   2.578   2.142  0.8660 -1.3876  2.7255
  241MOL0     H32503  -1.647   2.442   1.911 -0.6254 -2.3353  1.0583
  241MOL0     H32504  -1.818   2.415   1.942  3.4823 -4.4789 -1.4618
  241MOL0     H32505  -1.683   2.687   1.912 -0.3994 -0.2348 -1.2185
  241MOL0     H32506  -1.847   2.665   1.971  0.8557  2.7834 -0.6942
  241MOL0     H32507  -1.847   2.716   1.727 -1.1455 -0.8022  1.0045
  241MOL0     H32508  -1.894   2.555   1.738 -1.2391  2.2508  0.9355
  241MOL0     H32509  -1.618   2.662   1.691  0.3070 -0.9069  2.6695
  241MOL0     H32510  -1.665   2.484   1.695  0.0010 -0.0266 -1.4052
  241MOL0     H32511  -1.641   2.592   1.445 -0.4300 -1.7506 -1.4378
  241MOL0     H32512  -1.807   2.652   1.501  0.3677 -0.7780  0.3101
  241MOL0     H32513  -1.848   2.387   1.538  1.7081 -0.4671  1.9285
  241MOL0     H32514  -1.841   2.449   1.371 -1.6557 -0.2363  0.7849
  241MOL0     H32515  -1.193   2.426   2.064 -1.3709  1.4467 -1.7474
  241MOL0     H32516  -1.030   2.492   2.240 -1.3101  2.8633  0.3714
  241MOL0     H32517  -0.859   2.638   2.504 -1.3177  0.9790 -0.3577
  241MOL0     H32518  -0.663   2.711   2.622  1.1495  1.1509  2.0240
  241MOL0     H32519   0.563   2.761   3.538 -1.9329  0.8675  0.1156
  241MOL0     H32520   0.604   2.625   3.748  1.2545 -1.8354 -1.3916
  241MOL0     H32521   0.801   2.817   4.272 -2.5450 -1.5493 -1.3895
  241MOL0     H32522   0.929   2.755   4.480  3.1398  0.1380  0.5655
  241MOL0     H32523   1.304   2.663   4.526 -1.0687  0.5321 -0.1605
  241MOL0     H32524   1.290   2.540   4.393 -2.2302 -2.3453 -0.6200
  241MOL0     H32525   1.395   2.434   4.575  0.1901 -0.5204 -2.1457
  241MOL0     H32526   1.236   2.365   4.522  0.0102  0.2120  0.6499
  241MOL0     H32527   1.255   2.357   4.773 -3.1072 -0.8645 -1.4279
  241MOL0     H32528   1.126   2.465   4.720 -0.4035 -1.1402  2.5815
  241MOL0     H32529   1.285   2.662   4.744  1.5824  0.6788  1.1343
  241MOL0     H32530   1.226   2.583   4.899 -0.7710 -0.3823 -0.4026
  241MOL0     H32531   1.647   2.559   4.899  0.1454  3.0265  1.0794
  241MOL0     H32532   1.129   2.434   4.259  1.7271  0.6361  0.9979
  241MOL0     H32533   0.863   2.417   4.040 -0.3169  0.3699  0.1779
  241MOL0     H32534   1.022   2.470   3.965 -1.0847  0.5468 -1.6897
  241MOL0     H32535   1.032   2.359   4.087  0.9738  1.8996 -1.4069
  242MOL0     O32536   6.149   0.015   8.392  0.7508 -0.4336  0.6376
  242MOL0     C32537   6.104   0.048   8.504  0.5659 -0.1689  0.0585
  242MOL0     O32538   5.993   0.127   8.526 -0.6149 -0.2559  0.3402
  242MOL0     C32539   5.942   0.199   8.418 -0.2315 -0.9183 -0.1010
  242MOL0     C32540   5.838   0.148   8.337 -0.0651  0.0420 -0.2849
  242MOL0     C32541   5.798   0.216   8.219 -0.4227 -0.1413  0.2441
  242MOL0     C32542   5.851   0.329   8.183 -0.3300 -0.5487 -0.2099
  242MOL0     O32543   5.821   0.377   8.056 -0.2215  0.5004 -0.5898
  242MOL0     C32544   5.822   0.519   8.033  0.3024 -1.1762 -0.5768
  242MOL0     C32545   5.710   0.591   8.118 -0.3793 -0.0528  0.2619
  242MOL0     C32546   5.686   0.739   8.081 -0.0072 -0.2277 -0.2081
  242MOL0     C32547   5.646   0.769   7.936  1.3809 -0.2432 -0.3756
  242MOL0     C32548   5.494   0.745   7.889 -0.5943 -0.0144 -0.7971
  242MOL0     C32549   5.394   0.824   7.973 -0.2125  0.6723 -0.1887
  242MOL0     C32550   5.257   0.785   7.932 -0.6788 -0.9959  0.2614
  242MOL0     C32551   5.146   0.854   8.004  0.5337 -0.3990  0.2645
  242MOL0     N32552   5.148   0.812   8.140 -0.0122  1.3468 -0.3673
  242MOL0     C32553   5.075   0.702   8.184 -0.4136 -0.1808  0.0078
  242MOL0     C32554   5.093   0.711   8.316 -0.4596  0.4294  0.2492
  242MOL0     C32555   5.052   0.602   8.408 -0.5212  1.1552 -1.5217
  242MOL0     C32556   4.901   0.619   8.444  0.3248 -0.3295 -0.1510
  242MOL0     C32557   4.886   0.743   8.524 -0.2090 -0.1659 -0.3391
  242MOL0     C32558   4.776   0.836   8.446 -0.0507  0.2204  0.5943
  242MOL0     O32559   4.655   0.768   8.480  0.9022  0.1995  0.5717
  242MOL0     C32560   4.553   0.855   8.500  0.5865 -0.1121  0.3074
  242MOL0     C32561   4.461   0.882   8.398  0.3103 -0.4006  0.4182
  242MOL0     C32562   4.400   1.000   8.394 -0.2153 -0.5901  0.4761
  242MOL0     C32563   4.398   1.082   8.507 -0.8010  1.2460 -0.3832
  242MOL0     C32564   4.305   1.194   8.515 -0.0192 -0.0694 -1.5556
  242MOL0     O32565   4.314   1.278   8.622 -1.0495  0.1542  0.3339
  242MOL0     C32566   4.211   1.358   8.636  0.5412  0.1251 -0.6217
  242MOL0     C32567   4.128   1.338   8.744 -0.9873 -0.8036 -0.0534
  242MOL0     C32568   4.016   1.423   8.756  0.7399 -0.1801  0.0548
  242MOL0     C32569   3.991   1.531   8.673 -1.0470  0.0120 -0.2980
  242MOL0     O32570   3.901   1.633   8.694 -0.4926 -0.2448 -0.0189
  242MOL0     C32571   3.781   1.591   8.758 -0.6372 -0.9521  0.3623
  242MOL0     C32572   3.686   1.710   8.753 -0.6595  0.9200 -1.3976
  242MOL0     C32573   3.634   1.742   8.615  0.1423 -0.4901 -0.8219
  242MOL0     C32574   3.479   1.779   8.623 -0.1776  0.3193 -0.3787
  242MOL0     C32575   3.445   1.855   8.492 -0.2248 -0.0982 -0.4056
  242MOL0     C32576   3.312   1.933   8.506 -0.5310 -0.0159  0.7725
  242MOL0     C32577   3.276   2.032   8.395  0.1496 -0.3523 -0.2846
  242MOL0     C32578   3.254   1.977   8.256  0.0904  0.7537  0.3863
  242MOL0    Cl32579   3.215   2.099   8.139 -0.2342 -0.2336 -0.2873
  242MOL0     C32580   4.087   1.551   8.567  0.7060 -0.2882 -1.2522
  242MOL0     C32581   4.200   1.462   8.546  0.4358 -0.4917 -0.4701
  242MOL0     O32582   4.214   1.194   8.428  0.4952  0.4336  0.3966
  242MOL0     C32583   4.477   1.046   8.619 -0.2232 -0.4224  0.8567
  242MOL0     C32584   4.557   0.931   8.610 -0.3196 -0.4267 -0.9148
  242MOL0     N32585   5.158   0.830   8.349 -0.4287 -0.5848 -0.1619
  242MOL0     N32586   5.191   0.883   8.243  0.3032 -0.0430  0.0738
  242MOL0     C32587   5.957   0.378   8.261  0.4564 -0.1298  0.1436
  242MOL0     C32588   5.993   0.319   8.376  0.1829  0.2803  0.0559
  242MOL0     C32589   6.151  -0.018   8.623 -0.4739 -0.0829 -0.6825
  242MOL0     C32590   6.158   0.057   8.736  0.2189  0.8676 -1.0385
  242MOL0     C32591   6.201   0.003   8.860 -0.5192 -0.2788 -0.2767
  242MOL0     C32592   6.242  -0.120   8.864  1.0586  0.8452  0.7051
  242MOL0     O32593   6.299  -0.175   8.972 -0.4299  0.3924 -0.3316
  242MOL0     C32594   6.438  -0.140   8.986  0.9942 -0.3113 -0.0956
  242MOL0     C32595   6.472  -0.116   9.134 -0.6103 -0.3353 -0.3102
  242MOL0     C32596   6.419   0.003   9.198  0.3295 -0.9410 -0.0433
  242MOL0     C32597   6.463   0.131   9.128  0.5709 -0.7096  0.9269
  242MOL0     C32598   6.428   0.237   9.215 -0.5133  0.1533  0.2363
  242MOL0     C32599   6.417   0.325   9.296 -0.0624 -0.6152  0.0894
  242MOL0     C32600   6.242  -0.199   8.751  0.0936  0.1932  0.1087
  242MOL0     C32601   6.203  -0.151   8.621  0.2050  0.6572  0.8077
  242MOL0     C32602   6.200  -0.249   8.499  0.1320 -0.2629 -0.1515
  242MOL0     H32603   5.814   0.043   8.347  4.3436 -1.1082  0.2755
  242MOL0     H32604   5.729   0.173   8.148  2.2018 -0.0733 -2.5864
  242MOL0     H32605   5.919   0.557   8.068 -0.0181 -0.6011 -0.2959
  242MOL0     H32606   5.814   0.533   7.925  0.9047  1.6806 -0.3269
  242MOL0     H32607   5.752   0.572   8.217 -1.8132 -2.6076  0.4724
  242MOL0     H32608   5.617   0.541   8.090 -0.9825  2.0394 -1.8296
  242MOL0     H32609   5.771   0.806   8.095 -0.9887  1.1849 -0.7074
  242MOL0     H32610   5.608   0.787   8.142  1.2749  0.2849  1.0787
  242MOL0     H32611   5.668   0.871   7.904  0.4016  0.0184 -0.2672
  242MOL0     H32612   5.707   0.705   7.873 -2.2826 -1.8619 -2.5866
  242MOL0     H32613   5.495   0.759   7.780  4.3797 -1.7866 -1.2476
  242MOL0     H32614   5.476   0.637   7.890 -0.2976 -0.0700  0.4470
  242MOL0     H32615   5.406   0.796   8.078 -0.2967  1.5654  0.0733
  242MOL0     H32616   5.404   0.931   7.951 -0.4322  0.6354 -0.4729
  242MOL0     H32617   5.246   0.677   7.947 -1.4018 -0.7886  1.4023
  242MOL0     H32618   5.243   0.803   7.825 -0.1149 -2.2951 -0.0508
  242MOL0     H32619   5.155   0.962   7.990  2.0769 -0.4073  0.9774
  242MOL0     H32620   5.048   0.829   7.962  0.5448  1.5149 -1.0421
  242MOL0     H32621   5.042   0.623   8.117  1.5552 -0.2834 -0.9037
  242MOL0     H32622   5.072   0.507   8.358  1.3837  1.0039 -0.5699
  242MOL0     H32623   5.113   0.608   8.499 -1.8352 -1.3210 -0.3715
  242MOL0     H32624   4.838   0.619   8.354 -2.0169 -1.9850  1.3837
  242MOL0     H32625   4.875   0.531   8.504 -1.0049 -1.0278 -1.6673
  242MOL0     H32626   4.979   0.800   8.533  2.0530 -3.7591  1.6961
  242MOL0     H32627   4.867   0.723   8.630 -1.4582 -1.2282 -0.7344
  242MOL0     H32628   4.792   0.848   8.338 -0.9133  1.9638  0.6198
  242MOL0     H32629   4.787   0.936   8.489  1.7823  0.3798 -0.1595
  242MOL0     H32630   4.448   0.813   8.315  2.3820 -2.1661  1.4508
  242MOL0     H32631   4.317   1.021   8.328  0.7755  1.8530 -0.0812
  242MOL0     H32632   4.151   1.266   8.822 -0.4287 -1.2161 -0.5909
  242MOL0     H32633   3.954   1.403   8.842 -1.1436 -0.6587 -1.3556
  242MOL0     H32634   3.730   1.501   8.722  0.9513 -1.4708 -0.6907
  242MOL0     H32635   3.801   1.561   8.861 -0.6072  0.3084  0.7420
  242MOL0     H32636   3.603   1.660   8.803 -0.0733  0.3724 -0.9649
  242MOL0     H32637   3.720   1.791   8.817 -4.5961 -0.1367  2.4988
  242MOL0     H32638   3.684   1.831   8.577 -0.0056 -0.7317 -1.6061
  242MOL0     H32639   3.651   1.651   8.556  2.7365  0.5604 -1.8527
  242MOL0     H32640   3.460   1.848   8.706 -1.0825 -0.0511 -0.2693
  242MOL0     H32641   3.418   1.691   8.642 -1.0462  1.2919  1.5916
  242MOL0     H32642   3.438   1.790   8.404 -1.1991  0.8705 -1.0688
  242MOL0     H32643   3.517   1.931   8.461 -0.9919  0.1837 -1.5721
  242MOL0     H32644   3.224   1.868   8.507 -0.5848  0.0571  0.7884
  242MOL0     H32645   3.307   1.987   8.601 -1.3176 -2.0986  1.9833
  242MOL0     H32646   3.357   2.103   8.375  1.4213 -2.3432 -2.8148
  242MOL0     H32647   3.187   2.089   8.425  1.9530  2.9957 -0.8737
  242MOL0     H32648   3.341   1.924   8.217 -1.5884 -3.4013  1.7461
  242MOL0     H32649   3.170   1.908   8.267  0.5001 -0.2340 -1.9196
  242MOL0     H32650   4.078   1.647   8.518 -0.6160  1.3941  1.9908
  242MOL0     H32651   4.279   1.469   8.472  1.1795 -0.1764  0.3379
  242MOL0     H32652   4.469   1.112   8.705  3.5821 -1.3189  2.0938
  242MOL0     H32653   4.617   0.892   8.691 -0.6855 -0.1181 -0.4903
  242MOL0     H32654   6.021   0.461   8.232  2.5995 -2.2548 -1.6182
  242MOL0     H32655   6.066   0.379   8.430 -1.8599  2.2496  0.8019
  242MOL0     H32656   6.133   0.162   8.742 -0.5825  0.6092  0.6245
  242MOL0     H32657   6.202   0.051   8.957 -1.7616 -0.0864 -0.3401
  242MOL0     H32658   6.460  -0.056   8.920 -0.8934 -0.9049 -1.5801
  242MOL0     H32659   6.508  -0.219   8.955  2.6827  1.0605  0.0548
  242MOL0     H32660   6.581  -0.111   9.131 -0.5607 -1.5479 -2.2360
  242MOL0     H32661   6.452  -0.192   9.211 -1.1050  2.3314  2.4085
  242MOL0     H32662   6.458   0.014   9.300 -0.1080  1.7905 -0.1018
  242MOL0     H32663   6.310   0.003   9.190  0.4199  0.8184 -4.5402
  242MOL0     H32664   6.571   0.137   9.117  0.4906 -0.2278  0.3237
  242MOL0     H32665   6.420   0.142   9.028 -1.2606 -0.8247  1.6603
  242MOL0     H32666   6.392   0.394   9.373  0.5018 -1.2182  0.8308
  242MOL0     H32667   6.280  -0.301   8.757  1.5113  0.7704  4.3806
  242MOL0     H32668   6.290  -0.241   8.437 -1.1277  2.9652 -1.8288
  242MOL0     H32669   6.172  -0.346   8.542  0.6182 -0.5575 -0.4981
  242MOL0     H32670   6.123  -0.227   8.425 -0.7950 -0.2295  0.7889
  243MOL0     O32671   3.765   5.264  10.461  0.0707 -0.2531 -0.7406
  243MOL0     C32672   3.835   5.179  10.520  0.4501  0.2719  0.9394
  243MOL0     O32673   3.875   5.059  10.463 -0.2559  0.8206  1.0342
  243MOL0     C32674   3.876   5.032  10.335  0.1415  1.2618  0.9365
  243MOL0     C32675   3.823   5.107  10.226 -0.5316 -0.0378 -0.8959
  243MOL0     C32676   3.812   5.058  10.089  0.0043  0.0862 -0.6365
  243MOL0     C32677   3.849   4.928  10.061 -0.3524 -0.1343  0.5593
  243MOL0     O32678   3.829   4.882   9.935  0.4290 -0.9039 -0.0857
  243MOL0     C32679   3.864   4.961   9.816 -0.5599 -0.4117 -0.3321
  243MOL0     C32680   3.983   4.898   9.736 -0.2360  0.0434  0.4303
  243MOL0     C32681   3.945   4.782   9.637 -0.3722  0.3545  0.0440
  243MOL0     C32682   4.073   4.732   9.552 -0.7515 -1.0179  0.5874
  243MOL0     C32683   4.175   4.673   9.656  0.2504  0.1443  0.4461
  243MOL0     C32684   4.279   4.582   9.606 -0.7409 -0.0065  0.1064
  243MOL0     C32685   4.377   4.556   9.717 -0.4345 -0.4467  0.3912
  243MOL0     C32686   4.490   4.450   9.695  1.7329  0.4729  0.9430
  243MOL0     N32687   4.580   4.450   9.807 -0.8318  0.5315  0.4284
  243MOL0     C32688   4.711   4.506   9.790  0.1603 -1.0035 -0.6207
  243MOL0     C32689   4.759   4.513   9.913 -0.7831 -0.5559  0.9218
  243MOL0     C32690   4.879   4.599   9.946 -0.3881 -0.0424  1.0654
  243MOL0     C32691   4.915   4.616  10.093  0.2046 -0.4190  0.1626
  243MOL0     C32692   4.974   4.494  10.149 -0.1521 -0.2915 -0.4155
  243MOL0     C32693   5.032   4.516  10.291 -0.3683 -0.5225 -0.5315
  243MOL0     O32694   5.131   4.615  10.313  0.2478  0.4148 -0.3940
  243MOL0     C32695   5.266   4.587  10.285 -0.5486  0.5348 -0.0057
  243MOL0     C32696   5.360   4.687  10.316  0.5538  0.1030  0.0665
  243MOL0     C32697   5.497   4.679  10.272  0.3855  0.6033 -0.0594
  243MOL0     C32698   5.540   4.556  10.199 -0.3383  0.3272  0.0421
  243MOL0     C32699   5.679   4.538  10.147  0.0694  1.3862  1.3781
  243MOL0     O32700   5.709   4.425  10.085  0.5329  0.5618  0.0457
  243MOL0     C32701   5.837   4.385  10.059  0.3324 -0.1127 -0.7028
  243MOL0     C32702   5.925   4.415   9.958 -0.0344 -0.2876 -0.6988
  243MOL0     C32703   6.053   4.351   9.947 -0.0463 -1.7038 -0.2717
  243MOL0     C32704   6.092   4.246  10.040  0.2849  0.2098  0.0301
  243MOL0     O32705   6.220   4.175  10.034  0.8526  0.0480 -0.3173
  243MOL0     C32706   6.312   4.203   9.921  1.0147 -0.8015 -0.1949
  243MOL0     C32707   6.451   4.160   9.935 -0.1665 -0.1859 -0.3145
  243MOL0     C32708   6.490   4.012   9.963  0.4042 -0.4921 -0.1405
  243MOL0     C32709   6.636   3.979   9.961 -0.5483 -0.1300  0.6265
  243MOL0     C32710   6.693   3.972   9.823 -0.4240 -0.3631 -0.3902
  243MOL0     C32711   6.833   3.909   9.831  0.9654 -0.2891  0.1771
  243MOL0     C32712   6.886   3.870   9.692  0.2881  0.0858  0.1809
  243MOL0     C32713   6.824   3.733   9.639  0.1452 -0.9158 -0.6109
  243MOL0    Cl32714   6.960   3.636   9.572  0.3786 -0.0119  0.2045
  243MOL0     C32715   6.004   4.225  10.146 -0.1503 -0.0385  0.0633
  243MOL0     C32716   5.889   4.299  10.161  0.3247 -0.4858 -0.8495
  243MOL0     O32717   5.758   4.631  10.145  0.1589 -0.6322  0.7507
  243MOL0     C32718   5.440   4.463  10.179  0.4435 -0.0177  0.0140
  243MOL0     C32719   5.310   4.469  10.219 -0.6642 -0.1050  0.1023
  243MOL0     N32720   4.665   4.460  10.004 -1.0558 -0.3482  0.2843
  243MOL0     N32721   4.565   4.408   9.931  0.4966 -0.8378  0.3087
  243MOL0     C32722   3.877   4.850  10.174 -0.1880 -0.4487 -0.6485
  243MOL0     C32723   3.893   4.893  10.305  0.1064  1.2565 -0.4702
  243MOL0     C32724   3.877   5.197  10.668  0.8977  0.3781  1.1894
  243MOL0     C32725   3.992   5.133  10.716  0.8697 -0.3555  0.2304
  243MOL0     C32726   4.043   5.156  10.837  0.2669 -0.5241  0.0595
  243MOL0     C32727   3.972   5.233  10.930 -0.3396 -0.2880  0.0658
  243MOL0     O32728   4.031   5.237  11.058 -0.0731  0.2430 -0.0800
  243MOL0     C32729   3.980   5.333  11.154 -0.2618  0.6684 -0.6534
  243MOL0     C32730   4.030   5.469  11.125  0.6860  0.1489 -0.0776
  243MOL0     C32731   4.009   5.575  11.233 -1.2157  0.7532  0.7499
  243MOL0     C32732   4.142   5.591  11.320  0.1156  0.1610 -0.2289
  243MOL0     C32733   4.158   5.492  11.430 -0.6792  0.7024  0.4890
  243MOL0     C32734   4.154   5.397  11.499  0.7020  0.0205  0.2929
  243MOL0     C32735   3.852   5.287  10.888 -0.2325 -0.7746 -0.3003
  243MOL0     C32736   3.798   5.268  10.763 -0.2629  1.4098  1.4054
  243MOL0     C32737   3.664   5.326  10.735 -0.0055 -0.1380  1.1580
  243MOL0     H32738   3.774   5.204  10.229 -1.2520 -0.3301 -2.1825
  243MOL0     H32739   3.772   5.125  10.014 -2.0086 -0.8799 -0.4856
  243MOL0     H32740   3.773   4.977   9.758 -1.6634  1.4549  1.7814
  243MOL0     H32741   3.911   5.053   9.853 -0.3358 -0.6882  0.0859
  243MOL0     H32742   4.054   4.866   9.812  0.3271 -0.0234 -0.1119
  243MOL0     H32743   4.023   4.982   9.678 -1.9521  1.7982  1.6700
  243MOL0     H32744   3.867   4.815   9.568  0.0466  0.5353 -0.3463
  243MOL0     H32745   3.900   4.698   9.692  0.6606  0.3462  0.9182
  243MOL0     H32746   4.033   4.653   9.488  0.2118  0.2191 -1.6846
  243MOL0     H32747   4.131   4.799   9.488  0.9580 -2.2191  0.8121
  243MOL0     H32748   4.224   4.748   9.719 -1.7383 -0.3951  2.7875
  243MOL0     H32749   4.117   4.602   9.716 -1.4299 -3.7520 -5.0242
  243MOL0     H32750   4.224   4.490   9.584 -1.5560 -0.2014  2.6151
  243MOL0     H32751   4.318   4.612   9.508  0.9649 -1.2714  0.3696
  243MOL0     H32752   4.321   4.526   9.807  0.2940 -4.7911 -0.3621
  243MOL0     H32753   4.434   4.646   9.739  1.4387 -0.9766 -1.8983
  243MOL0     H32754   4.434   4.357   9.679 -0.9594  2.2641 -0.9680
  243MOL0     H32755   4.541   4.468   9.600 -0.4145  1.7204 -0.0354
  243MOL0     H32756   4.746   4.567   9.707 -1.6422  1.6291  0.4337
  243MOL0     H32757   4.964   4.556   9.893 -1.3416 -0.2462 -0.3503
  243MOL0     H32758   4.867   4.698   9.901 -3.3178 -1.2057 -1.0489
  243MOL0     H32759   4.983   4.698  10.116 -0.0255  0.8142 -2.9616
  243MOL0     H32760   4.825   4.645  10.148  0.0257 -1.8462  0.6623
  243MOL0     H32761   5.061   4.476  10.085  1.3262 -1.7121  1.8429
  243MOL0     H32762   4.900   4.414  10.140  0.0702 -0.5656  0.1756
  243MOL0     H32763   5.064   4.414  10.314 -1.5795 -1.3919 -2.4412
  243MOL0     H32764   4.952   4.543  10.360  1.3382 -0.2978  1.4566
  243MOL0     H32765   5.321   4.776  10.364 -0.4701 -0.4174  0.2086
  243MOL0     H32766   5.570   4.757  10.290 -0.1227  0.6399  2.1586
  243MOL0     H32767   5.878   4.493   9.900 -0.3826  1.2954  1.5578
  243MOL0     H32768   6.114   4.391   9.866 -1.3915  1.6521  0.2255
  243MOL0     H32769   6.265   4.149   9.838  2.6286  1.6884 -2.9479
  243MOL0     H32770   6.303   4.310   9.896  2.0369 -0.5776  0.3428
  243MOL0     H32771   6.502   4.190   9.843 -2.6148 -2.6875 -2.6971
  243MOL0     H32772   6.484   4.218  10.022 -0.6371 -2.0137  1.1334
  243MOL0     H32773   6.457   3.970  10.059  0.9174 -0.2198  0.1570
  243MOL0     H32774   6.440   3.951   9.887 -3.0050  2.2655 -0.3688
  243MOL0     H32775   6.652   3.877   9.996  0.5087 -1.6112 -3.5852
  243MOL0     H32776   6.694   4.059  10.008  0.4373  1.1649 -2.5324
  243MOL0     H32777   6.704   4.072   9.781  1.0310  0.2176  1.2285
  243MOL0     H32778   6.628   3.915   9.755 -1.2708  0.0620  0.0375
  243MOL0     H32779   6.891   3.987   9.882  0.2483  0.5058 -0.2068
  243MOL0     H32780   6.831   3.819   9.893  0.8763 -0.1091  0.4431
  243MOL0     H32781   6.992   3.856   9.714  0.3008 -1.6652 -0.7554
  243MOL0     H32782   6.856   3.945   9.619  1.1275  1.8135  1.5625
  243MOL0     H32783   6.756   3.682   9.707 -1.2041 -2.0356 -2.6839
  243MOL0     H32784   6.763   3.754   9.551 -1.7985 -0.5594  0.7607
  243MOL0     H32785   6.032   4.151  10.220 -0.8963 -0.4619 -0.0666
  243MOL0     H32786   5.834   4.287  10.253 -0.1745  4.1571 -0.2627
  243MOL0     H32787   5.460   4.373  10.122 -1.3199 -1.6900  1.8629
  243MOL0     H32788   5.244   4.390  10.184  0.3238 -1.0201  0.2741
  243MOL0     H32789   3.892   4.743  10.164  0.3865 -0.4254 -0.0907
  243MOL0     H32790   3.903   4.827  10.391  0.6546  1.2029 -0.5727
  243MOL0     H32791   4.043   5.065  10.648  2.2316  0.1353  0.7319
  243MOL0     H32792   4.139   5.110  10.861  0.3111 -2.1888 -2.8705
  243MOL0     H32793   4.004   5.296  11.254 -1.8992  2.6474  0.5349
  243MOL0     H32794   3.871   5.329  11.156 -0.2508  0.6722  0.2757
  243MOL0     H32795   3.959   5.499  11.047  0.0643  1.1001  0.8339
  243MOL0     H32796   4.130   5.472  11.082 -0.3504  0.6263 -2.6560
  243MOL0     H32797   3.925   5.541  11.295 -2.7485  2.4342 -0.3251
  243MOL0     H32798   3.981   5.674  11.197 -0.4340  1.5785  2.2823
  243MOL0     H32799   4.233   5.576  11.259  1.5011 -3.0552  2.3088
  243MOL0     H32800   4.146   5.697  11.343 -2.5183  0.0315  1.1390
  243MOL0     H32801   4.123   5.303  11.541 -0.9757 -0.6803 -2.2934
  243MOL0     H32802   3.806   5.349  10.964  0.7418 -1.2280  0.6728
  243MOL0     H32803   3.625   5.371  10.828 -1.1440  2.0038 -0.2651
  243MOL0     H32804   3.669   5.413  10.670 -0.8788  0.5002  1.9120
  243MOL0     H32805   3.593   5.248  10.707 -0.2675 -0.3800  2.4191
  244MOL0     O32806  10.604   0.473   9.841  0.8607  0.2008  0.0748
  244MOL0     C32807  10.675   0.373   9.857  0.6963  0.0310  0.7610
  244MOL0     O32808  10.673   0.282   9.951  0.6582  0.7773 -0.5650
  244MOL0     C32809  10.590   0.288  10.058  0.4534  0.2625  0.2325
  244MOL0     C32810  10.614   0.340  10.187  1.2511  0.5057 -0.1471
  244MOL0     C32811  10.512   0.355  10.285 -1.3460  0.1262  0.2201
  244MOL0     C32812  10.388   0.297  10.257 -1.0578  0.0722 -0.7202
  244MOL0     O32813  10.274   0.294  10.334  0.1643  1.1467  0.1663
  244MOL0     C32814  10.267   0.319  10.471 -0.3091  1.2075  0.4811
  244MOL0     C32815  10.140   0.264  10.523 -0.6721  0.3723  0.8681
  244MOL0     C32816  10.123   0.279  10.668 -0.5128  0.5301 -0.0438
  244MOL0     C32817  10.111   0.432  10.711 -0.5311  1.4206  0.0719
  244MOL0     C32818  10.045   0.436  10.848  0.1147 -0.6174 -0.4164
  244MOL0     C32819  10.019   0.585  10.895  0.0983  0.2818 -0.7561
  244MOL0     C32820   9.899   0.594  10.975 -0.1356 -0.8461  0.6724
  244MOL0     C32821   9.846   0.732  11.016 -0.0631  0.6314  0.2876
  244MOL0     N32822   9.933   0.799  11.120 -0.5290 -0.4348 -0.9216
  244MOL0     C32823   9.962   0.766  11.254 -0.5472  0.4243 -0.4702
  244MOL0     C32824  10.031   0.874  11.304  0.1384  1.5086  0.1519
  244MOL0     C32825  10.092   0.910  11.433  0.4401  0.3978 -0.3564
  244MOL0     C32826  10.238   0.949  11.414 -0.2606  0.4939 -0.1459
  244MOL0     C32827  10.311   0.920  11.543 -0.5464  0.8679 -0.1948
  244MOL0     C32828  10.369   0.783  11.556  0.9816  0.0096 -0.2390
  244MOL0     O32829  10.484   0.770  11.467  0.2663  0.3078  0.5053
  244MOL0     C32830  10.468   0.688  11.359  0.0857 -0.9613 -0.1928
  244MOL0     C32831  10.588   0.657  11.300 -1.0509  0.6661 -0.5824
  244MOL0     C32832  10.588   0.573  11.188 -0.5410 -0.8538  0.4757
  244MOL0     C32833  10.473   0.522  11.137  0.1031  0.6187  0.0450
  244MOL0     C32834  10.492   0.441  11.009  0.2420  0.2800 -0.8004
  244MOL0     O32835  10.618   0.435  10.961  0.0017 -0.2810 -0.1141
  244MOL0     C32836  10.641   0.351  10.863  0.1791  0.4013 -0.9669
  244MOL0     C32837  10.738   0.249  10.895 -0.3251 -0.1606  0.8722
  244MOL0     C32838  10.767   0.155  10.795  0.2843  0.7357  0.1103
  244MOL0     C32839  10.710   0.153  10.670  0.6563 -0.4225  0.2921
  244MOL0     O32840  10.739   0.068  10.562  0.5469  0.6138 -0.5789
  244MOL0     C32841  10.821   0.120  10.451  0.3079  0.2372  0.3667
  244MOL0     C32842  10.960   0.169  10.504  0.1213  0.6843 -0.1329
  244MOL0     C32843  11.059   0.200  10.394  0.3322 -0.1450  0.2888
  244MOL0     C32844  11.043   0.344  10.334  0.8094  0.0230 -0.0773
  244MOL0     C32845  11.140   0.372  10.218 -0.0964 -0.5561 -0.3510
  244MOL0     C32846  11.079   0.313  10.088 -0.9742 -0.2480 -0.0414
  244MOL0     C32847  11.160   0.353   9.967 -0.0721 -0.0613 -0.0105
  244MOL0     C32848  11.118   0.494   9.904 -0.3032  0.0826  0.6190
  244MOL0    Cl32849  11.199   0.517   9.754 -0.0168 -0.3583 -0.2246
  244MOL0     C32850  10.630   0.270  10.643 -0.1638  1.0347 -0.2498
  244MOL0     C32851  10.588   0.361  10.738 -0.5323  0.0705 -0.1890
  244MOL0     O32852  10.397   0.377  10.968  0.2718  0.5117  0.0873
  244MOL0     C32853  10.344   0.550  11.197 -0.4534  0.1406  0.9842
  244MOL0     C32854  10.341   0.638  11.307  0.1547 -0.0192  0.1926
  244MOL0     N32855  10.049   0.965  11.199 -0.3362  0.4197 -0.0198
  244MOL0     N32856   9.988   0.917  11.091 -0.2711 -1.4926 -0.0793
  244MOL0     C32857  10.372   0.217  10.145 -0.7928  0.9318 -0.1740
  244MOL0     C32858  10.470   0.212  10.047 -1.0162 -0.0475 -0.8043
  244MOL0     C32859  10.781   0.346   9.764  0.5448 -0.6730 -0.1040
  244MOL0     C32860  10.865   0.230   9.787  0.5494  0.7597  0.6476
  244MOL0     C32861  10.965   0.191   9.701 -1.0203 -0.1646  1.0844
  244MOL0     C32862  10.989   0.272   9.584 -0.0330  1.0221 -1.1631
  244MOL0     O32863  11.098   0.256   9.500 -0.5134  0.0987 -0.4252
  244MOL0     C32864  11.212   0.170   9.515 -0.0765 -0.7335  0.3969
  244MOL0     C32865  11.277   0.136   9.382 -0.1520  0.2345  0.7145
  244MOL0     C32866  11.178   0.071   9.275  0.1769 -0.1091  0.5617
  244MOL0     C32867  11.116   0.170   9.169 -0.1462 -1.0022 -0.3631
  244MOL0     C32868  11.060   0.093   9.060 -0.1629 -0.2106  0.3193
  244MOL0     C32869  11.023   0.025   8.973  0.9187  0.2739 -0.3522
  244MOL0     C32870  10.912   0.388   9.569  0.0856 -1.0132 -0.2494
  244MOL0     C32871  10.807   0.428   9.655  0.4069 -1.0971  0.5199
  244MOL0     C32872  10.745   0.563   9.619  0.0967  0.4172 -0.2572
  244MOL0     H32873  10.716   0.379  10.190  0.7000  1.9907  0.0228
  244MOL0     H32874  10.540   0.420  10.367 -1.1234  2.7412 -1.7957
  244MOL0     H32875  10.356   0.273  10.515 -1.3920 -2.8879 -1.2021
  244MOL0     H32876  10.276   0.426  10.494 -0.1493  0.8046  2.4921
  244MOL0     H32877  10.139   0.158  10.495 -2.9051  0.4121  0.6053
  244MOL0     H32878  10.058   0.318  10.474  1.1208  2.5455  0.1109
  244MOL0     H32879  10.215   0.241  10.712  1.5831  1.4835 -3.2614
  244MOL0     H32880  10.032   0.230  10.703 -0.2780 -0.1987 -0.4273
  244MOL0     H32881  10.215   0.461  10.723  1.0045 -2.6450 -1.6736
  244MOL0     H32882  10.051   0.488  10.639  0.5392  1.8354 -0.5170
  244MOL0     H32883   9.948   0.386  10.841  0.0434 -0.2777 -2.3543
  244MOL0     H32884  10.102   0.376  10.920 -2.4811 -1.2427  1.2513
  244MOL0     H32885  10.104   0.629  10.949 -1.0636 -2.1681  3.5515
  244MOL0     H32886  10.018   0.649  10.807 -0.3136  2.5867  0.8354
  244MOL0     H32887   9.901   0.536  11.067 -1.4175 -2.6465 -0.3609
  244MOL0     H32888   9.823   0.546  10.912 -2.6183  3.5085 -0.0575
  244MOL0     H32889   9.846   0.799  10.930  2.0084 -0.3335 -0.5405
  244MOL0     H32890   9.744   0.715  11.052  0.4448 -0.6255  1.2126
  244MOL0     H32891   9.953   0.671  11.305  3.6949  0.5581  0.8910
  244MOL0     H32892  10.035   0.986  11.486 -1.8541  0.5049 -2.7747
  244MOL0     H32893  10.093   0.818  11.493  0.2553  0.8892  0.4061
  244MOL0     H32894  10.283   0.893  11.332 -0.9082 -0.2293 -0.0210
  244MOL0     H32895  10.249   1.057  11.403 -1.6079  0.9410  2.1614
  244MOL0     H32896  10.246   0.951  11.625 -2.6658 -1.8853 -0.6661
  244MOL0     H32897  10.404   0.976  11.535 -0.1870  0.5071  1.2038
  244MOL0     H32898  10.285   0.713  11.548  0.1192  0.7541  1.7109
  244MOL0     H32899  10.406   0.778  11.658 -0.7391 -2.8287  0.3482
  244MOL0     H32900  10.680   0.705  11.333  0.0158 -1.2728 -0.5629
  244MOL0     H32901  10.678   0.566  11.127 -0.9071 -1.3108 -0.0262
  244MOL0     H32902  10.783   0.247  10.994 -1.4056  2.4805  1.4787
  244MOL0     H32903  10.839   0.077  10.817  1.1035  0.9392 -1.7259
  244MOL0     H32904  10.849   0.043  10.380  0.1341  1.2124 -0.7915
  244MOL0     H32905  10.775   0.200  10.392 -0.6371 -0.9622 -0.5517
  244MOL0     H32906  10.931   0.261  10.555  0.9721  1.4417 -0.9756
  244MOL0     H32907  11.001   0.094  10.573  0.1863  1.2304  0.4270
  244MOL0     H32908  11.154   0.203  10.448 -0.1849 -0.4498  1.2334
  244MOL0     H32909  11.063   0.124  10.316  0.2074 -0.9669  1.0723
  244MOL0     H32910  11.073   0.409  10.416  0.4898  0.5236 -0.3535
  244MOL0     H32911  10.941   0.364  10.300  1.5791 -0.3919 -2.8659
  244MOL0     H32912  11.239   0.340  10.252 -0.1926 -0.4193  0.0675
  244MOL0     H32913  11.152   0.480  10.204 -2.0083 -0.4092 -1.2111
  244MOL0     H32914  11.084   0.205  10.108  0.4720 -0.2926 -0.5186
  244MOL0     H32915  10.975   0.346  10.080 -0.9301 -0.3834 -1.4131
  244MOL0     H32916  11.151   0.276   9.890 -0.5107  0.6005 -0.6338
  244MOL0     H32917  11.260   0.348  10.011 -1.0959 -0.6110  2.4093
  244MOL0     H32918  11.012   0.511   9.889  0.0513  2.6066  0.5834
  244MOL0     H32919  11.144   0.577   9.970 -0.9143 -0.7543  1.9448
  244MOL0     H32920  10.593   0.276  10.541 -1.9058 -1.5039  0.1586
  244MOL0     H32921  10.530   0.442  10.695 -1.3355 -1.0834 -1.3355
  244MOL0     H32922  10.263   0.493  11.153  0.3671 -1.7875  1.8530
  244MOL0     H32923  10.247   0.663  11.354 -1.9740 -1.1451 -3.0888
  244MOL0     H32924  10.276   0.167  10.130 -0.3264 -0.5736  1.5527
  244MOL0     H32925  10.456   0.147   9.962 -0.3102  0.3207 -1.2095
  244MOL0     H32926  10.864   0.175   9.881  0.8866  1.1582  0.8907
  244MOL0     H32927  11.028   0.103   9.712  0.7485  1.2828  3.6843
  244MOL0     H32928  11.192   0.080   9.574 -1.4535  0.9264  2.6320
  244MOL0     H32929  11.291   0.222   9.570  1.7179 -2.0638 -0.8101
  244MOL0     H32930  11.356   0.061   9.388  2.9927  2.9702 -2.0884
  244MOL0     H32931  11.327   0.223   9.339  0.4186 -0.3312  0.2041
  244MOL0     H32932  11.103   0.021   9.336 -0.4888 -0.6177 -0.6343
  244MOL0     H32933  11.231  -0.014   9.230 -1.4406 -1.4269  1.0471
  244MOL0     H32934  11.034   0.229   9.213 -1.9279 -1.3115 -3.0465
  244MOL0     H32935  11.200   0.232   9.136 -0.8133  1.5389  2.2726
  244MOL0     H32936  10.967  -0.047   8.916 -1.3964  2.3443 -0.8719
  244MOL0     H32937  10.940   0.446   9.482 -2.4651  1.9842  0.7564
  244MOL0     H32938  10.732   0.621   9.711 -3.9032 -0.3252 -0.1974
  244MOL0     H32939  10.811   0.630   9.563  0.1515  2.0259  1.6340
  244MOL0     H32940  10.652   0.542   9.564  0.3771 -3.2585  0.4576
  245MOL0     O32941   4.266  10.768   5.478 -0.0250  0.8112  0.2678
  245MOL0     C32942   4.288  10.886   5.482 -0.3143  0.6220 -0.2541
  245MOL0     O32943   4.412  10.936   5.440  0.1497 -0.3299  0.0940
  245MOL0     C32944   4.503  10.865   5.355  1.0954  0.1536  0.2195
  245MOL0     C32945   4.638  10.882   5.357 -0.4560 -0.8063  0.4464
  245MOL0     C32946   4.724  10.806   5.266  0.7328 -0.3101 -0.9649
  245MOL0     C32947   4.664  10.722   5.165  0.8257 -0.2254 -0.5555
  245MOL0     O32948   4.747  10.661   5.074  0.0290  0.0912 -0.5671
  245MOL0     C32949   4.681  10.552   5.003 -0.3948 -0.0028  0.1284
  245MOL0     C32950   4.797  10.487   4.923 -0.7271 -0.5002  0.0225
  245MOL0     C32951   4.762  10.364   4.850 -0.1778  0.4160  0.3920
  245MOL0     C32952   4.739  10.244   4.936  0.2872  0.3264  0.6966
  245MOL0     C32953   4.716  10.123   4.836  0.0602 -0.0426  0.5719
  245MOL0     C32954   4.676   9.986   4.898  0.2715  0.2431 -0.1875
  245MOL0     C32955   4.760   9.980   5.033  0.8554 -0.0839  0.7164
  245MOL0     C32956   4.731   9.842   5.086  0.3300  0.9428 -0.8238
  245MOL0     N32957   4.841   9.760   5.062 -0.3373  0.2091  0.3193
  245MOL0     C32958   4.894   9.721   4.943 -0.6508  0.2908 -0.3201
  245MOL0     C32959   5.015   9.658   4.967  0.0536 -0.5872 -0.0724
  245MOL0     C32960   5.115   9.611   4.865 -0.3254  0.9872 -0.4741
  245MOL0     C32961   5.195   9.720   4.803  0.2250 -0.0164 -0.4710
  245MOL0     C32962   5.337   9.669   4.770  0.7196  0.2674  0.2572
  245MOL0     C32963   5.405   9.762   4.669 -0.2347  0.6707 -0.1093
  245MOL0     O32964   5.346   9.721   4.551  1.0342 -0.4565 -0.1580
  245MOL0     C32965   5.387   9.776   4.429  1.4652 -0.0449  0.6689
  245MOL0     C32966   5.519   9.786   4.384  0.2339  1.1553 -0.8925
  245MOL0     C32967   5.540   9.826   4.252  0.1533 -0.4226  0.3887
  245MOL0     C32968   5.438   9.839   4.154 -0.7642  0.2654 -0.1246
  245MOL0     C32969   5.467   9.864   4.004 -0.2791 -0.2881  0.1200
  245MOL0     O32970   5.353   9.865   3.915 -0.7419 -0.1863  0.4546
  245MOL0     C32971   5.376   9.929   3.796 -0.0356 -0.7879 -0.3730
  245MOL0     C32972   5.387   9.860   3.672  0.5753 -0.3767 -0.1751
  245MOL0     C32973   5.441   9.927   3.563  0.4247 -0.7064 -0.3378
  245MOL0     C32974   5.481  10.069   3.585  0.5382  1.3548  0.6882
  245MOL0     O32975   5.544  10.138   3.481  0.1692 -0.4716 -0.1591
  245MOL0     C32976   5.538  10.077   3.346 -0.7063  0.0241  0.2144
  245MOL0     C32977   5.567  10.187   3.236  0.1738 -0.2438 -0.4312
  245MOL0     C32978   5.719  10.241   3.233  0.6905 -0.5751  0.2838
  245MOL0     C32979   5.825  10.139   3.184 -0.3341  0.1469  0.1777
  245MOL0     C32980   5.968  10.194   3.192 -0.2403  0.3546 -0.5416
  245MOL0     C32981   6.059  10.085   3.131 -0.7654  0.0837 -0.2079
  245MOL0     C32982   6.208  10.104   3.177 -0.9182  0.0319 -0.4674
  245MOL0     C32983   6.296   9.982   3.172 -0.1025 -0.1653  0.0561
  245MOL0    Cl32984   6.221   9.851   3.272  0.5484  0.1558 -0.0912
  245MOL0     C32985   5.471  10.136   3.698 -0.6988 -0.9786 -0.4983
  245MOL0     C32986   5.430  10.061   3.812 -1.0289 -1.0469 -0.0849
  245MOL0     O32987   5.587   9.877   3.964 -0.1736  0.6431 -1.1114
  245MOL0     C32988   5.309   9.823   4.203  0.0331  0.5870  0.0710
  245MOL0     C32989   5.284   9.805   4.341 -0.5262 -1.0189  0.6847
  245MOL0     N32990   5.033   9.651   5.107  0.6019  0.0665  0.1535
  245MOL0     N32991   4.932   9.716   5.158 -0.1434 -0.0578  0.5374
  245MOL0     C32992   4.524  10.732   5.151 -0.3983 -0.0663  0.4294
  245MOL0     C32993   4.450  10.804   5.241  0.9693 -0.2518 -0.4820
  245MOL0     C32994   4.207  10.980   5.567 -0.1886 -0.5070  0.3756
  245MOL0     C32995   4.276  11.075   5.647  0.2545  0.3114 -0.1726
  245MOL0     C32996   4.211  11.170   5.727 -0.9602 -0.1638  0.2140
  245MOL0     C32997   4.071  11.176   5.737  0.6240  0.5271  0.5818
  245MOL0     O32998   4.003  11.265   5.818  0.3647 -0.1155  0.0599
  245MOL0     C32999   3.954  11.208   5.937 -1.0897  0.1025 -0.6555
  245MOL0     C33000   3.893  11.306   6.035  0.1098  0.4362 -0.4463
  245MOL0     C33001   3.866  11.239   6.172 -0.2319 -0.2667  0.7625
  245MOL0     C33002   3.789  11.110   6.168 -0.9611  0.4261 -0.5364
  245MOL0     C33003   3.863  10.981   6.140  0.1850  0.2189 -0.6246
  245MOL0     C33004   3.921  10.878   6.097  0.7747 -0.8934  0.2721
  245MOL0     C33005   4.005  11.075   5.660  0.8145  0.2459  0.0169
  245MOL0     C33006   4.069  10.989   5.575  0.5622  0.1283  0.2256
  245MOL0     C33007   3.986  10.897   5.482 -1.6389 -0.2543 -0.0626
  245MOL0     H33008   4.693  10.941   5.430  2.5409 -3.2402  0.3472
  245MOL0     H33009   4.831  10.810   5.281  0.6105 -2.9674  1.5329
  245MOL0     H33010   4.626  10.481   5.065  0.7961 -1.6477 -0.6222
  245MOL0     H33011   4.613  10.600   4.932 -0.2413  0.2642  0.1576
  245MOL0     H33012   4.882  10.464   4.988 -0.1673 -0.1422 -0.5699
  245MOL0     H33013   4.827  10.569   4.857 -0.2583  0.3076  1.1943
  245MOL0     H33014   4.839  10.325   4.784 -2.2492  0.0766 -1.9746
  245MOL0     H33015   4.675  10.386   4.788 -0.1482  2.9278  1.0989
  245MOL0     H33016   4.837  10.232   4.984  1.5118  1.8723 -1.2434
  245MOL0     H33017   4.661  10.264   5.010  0.2727  0.5057  0.6332
  245MOL0     H33018   4.640  10.146   4.761 -0.7495  2.2543  2.0161
  245MOL0     H33019   4.812  10.103   4.787  1.1885 -0.7567  2.9290
  245MOL0     H33020   4.569   9.978   4.917  0.5781 -1.5258  1.0551
  245MOL0     H33021   4.699   9.906   4.827  2.6431 -0.4824  1.2690
  245MOL0     H33022   4.729  10.056   5.105  0.5855  0.9541 -0.4592
  245MOL0     H33023   4.866   9.991   5.008  0.4980 -2.1173 -2.2485
  245MOL0     H33024   4.722   9.842   5.195 -0.4541 -0.1015 -0.8678
  245MOL0     H33025   4.639   9.795   5.049 -0.5311 -0.2572  2.4692
  245MOL0     H33026   4.843   9.734   4.848 -2.2726  0.0512  0.4725
  245MOL0     H33027   5.176   9.539   4.920 -3.3266 -0.6206  0.9592
  245MOL0     H33028   5.063   9.540   4.800 -0.2809 -0.2828  0.8379
  245MOL0     H33029   5.150   9.755   4.710  0.1798  0.9089 -0.1205
  245MOL0     H33030   5.204   9.809   4.867 -0.7180  1.2852 -2.0666
  245MOL0     H33031   5.319   9.571   4.726  0.4218  1.1611 -1.6896
  245MOL0     H33032   5.393   9.658   4.863 -0.9879  2.4986  1.6491
  245MOL0     H33033   5.514   9.757   4.672 -0.2775 -0.4850  0.0967
  245MOL0     H33034   5.362   9.861   4.688 -3.9912 -0.8309  0.1194
  245MOL0     H33035   5.605   9.779   4.450 -0.6859  1.2848  0.3296
  245MOL0     H33036   5.642   9.838   4.219  0.1145  0.4425  0.5552
  245MOL0     H33037   5.362   9.754   3.661 -0.3343 -0.1355 -0.5289
  245MOL0     H33038   5.469   9.882   3.468  2.7220  0.3364 -0.2259
  245MOL0     H33039   5.614   9.999   3.334  1.1802  2.1587 -3.3776
  245MOL0     H33040   5.439  10.032   3.334 -0.3840 -0.7301  0.3294
  245MOL0     H33041   5.542  10.136   3.142 -2.7876  0.1224  0.0599
  245MOL0     H33042   5.500  10.272   3.254 -1.3765 -1.7134  1.0886
  245MOL0     H33043   5.721  10.321   3.159  1.3730 -1.6384 -0.8937
  245MOL0     H33044   5.755  10.285   3.326 -1.0086  0.3218  0.5615
  245MOL0     H33045   5.803  10.095   3.086  1.0306 -0.9241  0.3134
  245MOL0     H33046   5.805  10.058   3.256 -4.4020  1.3160  0.6224
  245MOL0     H33047   6.005  10.216   3.293  0.9428  3.9520 -1.6141
  245MOL0     H33048   5.980  10.286   3.134  0.1093  2.3241  2.4228
  245MOL0     H33049   6.024   9.987   3.167  1.0530 -0.0240  1.4478
  245MOL0     H33050   6.057  10.089   3.021  1.1842  1.0301 -0.2553
  245MOL0     H33051   6.220  10.143   3.278 -1.8848 -0.3245 -0.1956
  245MOL0     H33052   6.250  10.188   3.121  3.1859  0.7344  3.2090
  245MOL0     H33053   6.323   9.940   3.074 -1.0776 -1.4322  0.3197
  245MOL0     H33054   6.390  10.018   3.216 -1.0557  1.0195  1.1727
  245MOL0     H33055   5.519  10.234   3.698  0.8896 -1.7150  0.2189
  245MOL0     H33056   5.446  10.100   3.912  3.6456  1.1495 -1.4209
  245MOL0     H33057   5.223   9.822   4.136  0.4265 -0.7070 -0.4538
  245MOL0     H33058   5.183   9.802   4.380 -0.4969 -0.2736  0.8226
  245MOL0     H33059   4.471  10.690   5.066 -2.0210  1.3335  0.6801
  245MOL0     H33060   4.343  10.815   5.227  0.6350  0.9934  2.3577
  245MOL0     H33061   4.384  11.072   5.630  0.0528  0.6457 -1.6340
  245MOL0     H33062   4.259  11.245   5.789 -5.5598  3.9113 -0.5792
  245MOL0     H33063   4.035  11.154   5.986 -3.1486 -0.2374  2.7278
  245MOL0     H33064   3.880  11.135   5.901  1.0860 -0.9078 -3.4085
  245MOL0     H33065   3.804  11.348   5.989  0.6565  3.3270  0.9214
  245MOL0     H33066   3.954  11.395   6.048  0.3654  0.0578  1.2647
  245MOL0     H33067   3.796  11.306   6.222  0.0052 -1.0548  2.2031
  245MOL0     H33068   3.960  11.247   6.227  0.1250 -1.4919  0.3653
  245MOL0     H33069   3.729  11.096   6.257 -0.4614 -2.1539 -0.5112
  245MOL0     H33070   3.708  11.126   6.097 -2.0366 -0.6196  0.4097
  245MOL0     H33071   3.963  10.781   6.079 -2.6683 -2.3672 -0.6418
  245MOL0     H33072   3.897  11.078   5.672  0.4588 -2.1419 -1.8264
  245MOL0     H33073   3.884  10.933   5.464 -0.5317  2.2747 -1.9944
  245MOL0     H33074   4.037  10.905   5.385 -0.6639  2.2738  0.5798
  245MOL0     H33075   3.985  10.793   5.516  1.8911 -0.1512  0.7654
  246MOL0     O33076  10.519   8.739   6.659  0.4721  0.6921  0.5160
  246MOL0     C33077  10.547   8.833   6.733 -0.0530  0.4287  0.4378
  246MOL0     O33078  10.562   8.958   6.693 -0.2651  0.0246  0.0403
  246MOL0     C33079  10.532   8.988   6.565 -0.1984  0.8174  0.3579
  246MOL0     C33080  10.630   9.038   6.477 -0.2583  0.0765 -1.1437
  246MOL0     C33081  10.595   9.072   6.352  0.0869  0.5667 -0.2040
  246MOL0     C33082  10.463   9.065   6.306 -0.7492 -0.2830  0.0589
  246MOL0     O33083  10.423   9.112   6.173 -0.4527  1.0960 -0.5404
  246MOL0     C33084  10.524   9.174   6.102 -1.6220 -0.3389 -0.0522
  246MOL0     C33085  10.465   9.259   5.990 -0.6396  0.0652 -0.2262
  246MOL0     C33086  10.563   9.242   5.867 -0.4333  0.3878 -0.9291
  246MOL0     C33087  10.680   9.341   5.877  0.8552  0.3287 -0.1548
  246MOL0     C33088  10.730   9.386   5.739 -1.2080  0.0222 -1.5162
  246MOL0     C33089  10.883   9.430   5.755  0.6646 -0.1126  0.6604
  246MOL0     C33090  10.978   9.326   5.812 -0.3455 -0.0614  0.0181
  246MOL0     C33091  11.129   9.353   5.759 -0.0960 -0.4109  0.1665
  246MOL0     N33092  11.220   9.278   5.851  0.1621 -0.1466 -0.6857
  246MOL0     C33093  11.222   9.275   5.991 -0.1834  0.6596  0.5132
  246MOL0     C33094  11.349   9.222   6.014 -0.6090  0.7418 -0.5716
  246MOL0     C33095  11.389   9.190   6.164 -0.3107  0.1907  0.3837
  246MOL0     C33096  11.334   9.048   6.202 -0.1785 -0.2150  0.3006
  246MOL0     C33097  11.378   9.017   6.348  0.7076  0.0772 -0.6854
  246MOL0     C33098  11.307   8.897   6.388 -0.1741 -0.1968 -0.1255
  246MOL0     O33099  11.386   8.793   6.340  0.2344 -0.0678  0.0754
  246MOL0     C33100  11.344   8.672   6.304  0.5469  0.9179 -0.7575
  246MOL0     C33101  11.213   8.624   6.334 -0.4022  0.0071 -0.7177
  246MOL0     C33102  11.186   8.486   6.299  0.3523  0.1018  0.1229
  246MOL0     C33103  11.265   8.404   6.222  0.1546 -0.2825  0.1643
  246MOL0     C33104  11.220   8.268   6.181 -0.3856 -0.2450  0.5336
  246MOL0     O33105  11.318   8.190   6.120 -0.0657  0.2765 -0.9329
  246MOL0     C33106  11.284   8.054   6.107  0.7594 -0.1130  0.0884
  246MOL0     C33107  11.268   8.009   5.973  0.5585  0.5619 -0.2556
  246MOL0     C33108  11.218   7.881   5.950 -1.1479  0.1121 -0.6305
  246MOL0     C33109  11.200   7.791   6.053  0.5303  0.3424  0.2740
  246MOL0     O33110  11.175   7.665   6.011  0.1572 -0.0217 -0.4092
  246MOL0     C33111  11.099   7.583   6.100  0.0875  0.4082  0.5101
  246MOL0     C33112  11.072   7.449   6.029 -0.7202  0.7710  0.3403
  246MOL0     C33113  11.194   7.356   6.058  0.3357 -0.4646  0.3687
  246MOL0     C33114  11.319   7.396   5.971  0.2870  0.3857 -0.9827
  246MOL0     C33115  11.404   7.266   5.936 -0.6501 -0.2259 -0.2219
  246MOL0     C33116  11.549   7.306   5.916 -0.7248  0.6613 -0.5384
  246MOL0     C33117  11.605   7.243   5.787  0.3356 -0.6709 -0.1564
  246MOL0     C33118  11.752   7.283   5.784 -0.6923  0.4061  0.5233
  246MOL0    Cl33119  11.830   7.228   5.632  0.1958 -0.3206 -0.5881
  246MOL0     C33120  11.220   7.831   6.185  0.3425  0.8654  0.5143
  246MOL0     C33121  11.263   7.958   6.214  0.9611 -0.8029  1.1545
  246MOL0     O33122  11.106   8.233   6.218  0.2176 -0.1304  0.4547
  246MOL0     C33123  11.391   8.456   6.188 -0.0381 -0.6995  0.6513
  246MOL0     C33124  11.432   8.589   6.229 -0.5319  1.1451  0.0730
  246MOL0     N33125  11.407   9.184   5.892  0.0804 -0.3637  0.7872
  246MOL0     N33126  11.329   9.228   5.802 -0.6384 -0.3784 -0.2926
  246MOL0     C33127  10.367   9.025   6.394  0.5086 -0.4652 -0.6817
  246MOL0     C33128  10.399   8.979   6.522  0.0972 -0.3054 -0.8776
  246MOL0     C33129  10.602   8.797   6.869 -0.2907  1.1470 -0.0506
  246MOL0     C33130  10.702   8.878   6.920  0.0267  0.0725  1.1207
  246MOL0     C33131  10.755   8.848   7.049  0.4335 -1.1405  0.0724
  246MOL0     C33132  10.714   8.744   7.136 -0.1793 -0.0524 -0.2406
  246MOL0     O33133  10.780   8.724   7.260  1.1140  0.1497  0.0760
  246MOL0     C33134  10.709   8.675   7.380  0.0768 -0.0700  0.5316
  246MOL0     C33135  10.612   8.765   7.455 -0.2592  0.8293 -0.2192
  246MOL0     C33136  10.560   8.696   7.587  0.4527 -0.1049 -0.1233
  246MOL0     C33137  10.455   8.782   7.651 -0.0542  0.3815 -0.3852
  246MOL0     C33138  10.402   8.723   7.773 -0.2348 -0.8150 -1.2716
  246MOL0     C33139  10.375   8.694   7.887 -0.1955  0.2752  0.5618
  246MOL0     C33140  10.612   8.660   7.075 -0.8445  0.0459 -0.8402
  246MOL0     C33141  10.562   8.684   6.941  0.3045  0.5998 -0.4293
  246MOL0     C33142  10.464   8.584   6.897  0.3911 -0.7382  0.4613
  246MOL0     H33143  10.731   9.043   6.517 -0.5325  1.1128 -0.5565
  246MOL0     H33144  10.684   9.090   6.292 -0.0136 -0.9953 -0.8865
  246MOL0     H33145  10.596   9.229   6.163 -0.4202 -3.3288  1.4001
  246MOL0     H33146  10.587   9.097   6.057 -0.8542  0.5305 -0.4980
  246MOL0     H33147  10.439   9.359   6.024  0.3704 -0.6274  2.9142
  246MOL0     H33148  10.369   9.222   5.954 -0.9633 -0.5543  1.2093
  246MOL0     H33149  10.494   9.249   5.783 -6.3703 -2.0381  3.0524
  246MOL0     H33150  10.612   9.145   5.858  0.4374  0.9534 -2.8611
  246MOL0     H33151  10.642   9.427   5.933 -0.3607  0.5994 -1.3346
  246MOL0     H33152  10.758   9.301   5.943 -0.9877 -0.4400  1.6680
  246MOL0     H33153  10.721   9.305   5.666 -1.7354  1.3414 -2.9757
  246MOL0     H33154  10.670   9.471   5.705 -0.9195  0.0608 -1.9390
  246MOL0     H33155  10.906   9.460   5.652 -0.5584 -0.7341  0.1850
  246MOL0     H33156  10.878   9.524   5.810 -0.8638  0.1230  0.1654
  246MOL0     H33157  10.961   9.220   5.792  0.6198 -0.1331 -0.4735
  246MOL0     H33158  10.970   9.331   5.921 -1.3374 -1.6761  0.0587
  246MOL0     H33159  11.138   9.309   5.659  0.6374 -3.2101  1.3649
  246MOL0     H33160  11.147   9.460   5.754 -0.8453 -0.2911 -0.1539
  246MOL0     H33161  11.143   9.311   6.055 -2.4769 -0.1891 -1.6561
  246MOL0     H33162  11.498   9.188   6.177 -0.0642  0.6533 -1.3504
  246MOL0     H33163  11.363   9.267   6.237  0.4977 -0.4517  1.3718
  246MOL0     H33164  11.226   9.035   6.200  0.0693 -2.5773 -0.2599
  246MOL0     H33165  11.367   8.969   6.133 -0.0360 -0.2650  0.4254
  246MOL0     H33166  11.348   9.101   6.412 -2.0967 -0.5620 -1.0079
  246MOL0     H33167  11.487   9.006   6.344  0.8337  0.0795  1.5019
  246MOL0     H33168  11.205   8.894   6.349 -0.6725  1.1589  0.9979
  246MOL0     H33169  11.291   8.897   6.496  0.1983 -0.4813 -0.0704
  246MOL0     H33170  11.142   8.676   6.397  0.0406  0.6197 -0.7181
  246MOL0     H33171  11.088   8.454   6.333 -0.4010  1.6358 -0.5562
  246MOL0     H33172  11.284   8.082   5.894 -0.4195  1.2845  0.2003
  246MOL0     H33173  11.200   7.844   5.850 -0.4243 -2.4709  0.1269
  246MOL0     H33174  11.164   7.560   6.184 -1.1089 -0.4197  1.2458
  246MOL0     H33175  11.014   7.634   6.145  1.1049  0.7566  2.0784
  246MOL0     H33176  10.991   7.401   6.085  2.2930 -5.4199  0.2162
  246MOL0     H33177  11.033   7.452   5.926  1.0646  2.6073 -0.3393
  246MOL0     H33178  11.230   7.349   6.161 -2.9597 -3.6251  1.4993
  246MOL0     H33179  11.162   7.252   6.049  1.2897 -0.6543 -1.2901
  246MOL0     H33180  11.378   7.467   6.030  0.2075 -0.3356 -0.0246
  246MOL0     H33181  11.285   7.454   5.884 -0.8853  0.8330 -0.2438
  246MOL0     H33182  11.365   7.212   5.849  1.1307 -2.0030  0.0212
  246MOL0     H33183  11.406   7.208   6.029  4.3092  0.0982  0.0965
  246MOL0     H33184  11.585   7.409   5.925 -0.1392  0.3383  1.3353
  246MOL0     H33185  11.593   7.257   6.004 -4.7361 -1.9387  0.2466
  246MOL0     H33186  11.544   7.293   5.711 -3.4829 -0.2152  2.8511
  246MOL0     H33187  11.594   7.135   5.793 -2.0993 -0.4595  0.1375
  246MOL0     H33188  11.756   7.392   5.778 -1.2087  0.3500 -2.8244
  246MOL0     H33189  11.796   7.240   5.874 -2.9443 -1.2456  0.9469
  246MOL0     H33190  11.215   7.766   6.271  0.9991  3.0712  2.3259
  246MOL0     H33191  11.265   7.992   6.317 -3.5664  0.8436  0.9010
  246MOL0     H33192  11.460   8.392   6.133  0.6209 -1.5894  2.4579
  246MOL0     H33193  11.535   8.607   6.199 -0.7506  0.8292 -0.8915
  246MOL0     H33194  10.262   9.023   6.368  0.4419 -0.0901 -0.4408
  246MOL0     H33195  10.326   8.965   6.601  2.6422  1.8196  2.1076
  246MOL0     H33196  10.735   8.962   6.860  3.1608 -1.6281  0.2410
  246MOL0     H33197  10.829   8.917   7.086 -2.1536  0.5526  2.4562
  246MOL0     H33198  10.785   8.645   7.452 -0.4022 -5.2201 -0.7300
  246MOL0     H33199  10.648   8.588   7.354  1.7638 -0.2929 -3.3897
  246MOL0     H33200  10.535   8.797   7.385 -1.5816  0.4798  1.0241
  246MOL0     H33201  10.664   8.858   7.478  0.5544  0.3655 -0.1374
  246MOL0     H33202  10.641   8.687   7.659  2.0642  2.2960 -1.4755
  246MOL0     H33203  10.500   8.606   7.568  1.8162 -0.9188 -0.7169
  246MOL0     H33204  10.497   8.879   7.675  1.4159 -0.7351  1.8413
  246MOL0     H33205  10.368   8.795   7.585  0.4236  2.3984 -0.6768
  246MOL0     H33206  10.355   8.664   7.988 -1.1481  0.8377  0.5510
  246MOL0     H33207  10.573   8.576   7.130 -0.0895 -0.4232 -1.0057
  246MOL0     H33208  10.412   8.539   6.983  0.2701 -1.1796  0.1621
  246MOL0     H33209  10.391   8.637   6.837  1.0806 -0.5281 -0.1980
  246MOL0     H33210  10.506   8.505   6.834  2.2746 -0.3033  1.0976
  247MOL0     O33211   2.218   9.565   5.378 -0.1538 -0.7434 -0.5079
  247MOL0     C33212   2.125   9.583   5.301 -0.0905 -0.7109 -0.2376
  247MOL0     O33213   2.067   9.495   5.215 -0.0127  0.8312  0.3361
  247MOL0     C33214   2.087   9.364   5.244 -0.3220  0.3615 -0.9074
  247MOL0     C33215   2.025   9.285   5.139  0.1946  0.8653 -0.1276
  247MOL0     C33216   2.042   9.148   5.129  1.0306 -0.2872  0.1961
  247MOL0     C33217   2.124   9.090   5.229 -0.5773  0.1542  0.2107
  247MOL0     O33218   2.144   8.953   5.224 -0.6060  0.2108 -0.0636
  247MOL0     C33219   2.252   8.913   5.125  0.3510  0.4381  0.4443
  247MOL0     C33220   2.250   8.761   5.105 -0.3702  0.5288  0.7670
  247MOL0     C33221   2.375   8.708   5.028 -0.4223 -0.5011  0.2936
  247MOL0     C33222   2.373   8.562   4.975  0.1185 -0.1054 -0.0418
  247MOL0     C33223   2.491   8.557   4.872 -0.1413  0.6623 -0.0130
  247MOL0     C33224   2.498   8.418   4.814 -0.4404  0.2629 -0.7662
  247MOL0     C33225   2.553   8.417   4.672  0.4852 -0.6189  0.1020
  247MOL0     C33226   2.702   8.397   4.661 -0.4010 -0.4479 -0.0702
  247MOL0     N33227   2.745   8.407   4.522  0.2483  0.0493  0.0087
  247MOL0     C33228   2.740   8.306   4.429 -0.2104  0.3713  0.3666
  247MOL0     C33229   2.771   8.364   4.308  0.2968 -0.3549  0.8287
  247MOL0     C33230   2.787   8.299   4.171  0.3395 -0.3071  0.0239
  247MOL0     C33231   2.681   8.342   4.065 -0.1034  0.3535 -0.7949
  247MOL0     C33232   2.714   8.282   3.926  0.0712 -0.3370 -0.6323
  247MOL0     C33233   2.599   8.322   3.841 -0.2422  0.3826  0.3054
  247MOL0     O33234   2.599   8.462   3.829  0.4965 -0.7479 -0.0725
  247MOL0     C33235   2.486   8.534   3.791  0.0621  0.2740  1.1415
  247MOL0     C33236   2.397   8.480   3.687 -0.4485  0.3437 -0.4954
  247MOL0     C33237   2.279   8.553   3.649 -0.4155  0.5482 -0.5739
  247MOL0     C33238   2.263   8.685   3.706  0.4469  0.4015  0.2190
  247MOL0     C33239   2.151   8.767   3.661  0.1081 -0.3712  0.1403
  247MOL0     O33240   2.067   8.711   3.580 -0.0514  0.0724  0.1575
  247MOL0     C33241   1.950   8.769   3.544  0.6855  0.2405  0.1101
  247MOL0     C33242   1.837   8.706   3.576 -0.0825 -0.1611  0.0078
  247MOL0     C33243   1.708   8.762   3.535 -1.2498  0.6987  0.6798
  247MOL0     C33244   1.699   8.881   3.468  0.3130  0.2477 -0.3145
  247MOL0     O33245   1.566   8.922   3.438  0.8228 -0.1395 -0.3092
  247MOL0     C33246   1.556   9.057   3.380  0.1856 -0.5118  0.0475
  247MOL0     C33247   1.409   9.092   3.369  0.1040 -0.0097  0.3049
  247MOL0     C33248   1.353   9.147   3.502  0.5793 -0.7928 -1.1176
  247MOL0     C33249   1.212   9.208   3.480 -0.4181 -0.2145 -0.0884
  247MOL0     C33250   1.144   9.255   3.614  0.2734 -0.6917 -0.0121
  247MOL0     C33251   1.061   9.149   3.698  0.0956  0.5990  0.3766
  247MOL0     C33252   0.951   9.215   3.783  0.2051  0.3890 -0.8029
  247MOL0     C33253   0.881   9.105   3.863  1.1327  0.0415  0.0255
  247MOL0    Cl33254   0.724   9.164   3.946  0.2476 -0.5595  0.0205
  247MOL0     C33255   1.821   8.949   3.442 -0.5984  0.3774 -0.2088
  247MOL0     C33256   1.943   8.894   3.478  0.0258  0.4325 -0.4154
  247MOL0     O33257   2.153   8.881   3.692 -0.4172  0.4076 -0.6812
  247MOL0     C33258   2.360   8.732   3.797  1.3302  0.1776  0.1727
  247MOL0     C33259   2.462   8.658   3.841  0.3460  0.1437 -1.2393
  247MOL0     N33260   2.792   8.501   4.330 -0.2443  0.2533  0.0537
  247MOL0     N33261   2.775   8.529   4.452 -0.8641 -1.0956 -0.3803
  247MOL0     C33262   2.168   9.162   5.340  0.7152  0.5037  0.0588
  247MOL0     C33263   2.147   9.296   5.358  0.1984 -0.0196 -0.2020
  247MOL0     C33264   2.067   9.722   5.302  0.1667 -0.0833 -0.1228
  247MOL0     C33265   1.946   9.752   5.233 -0.0930  0.2891  0.1451
  247MOL0     C33266   1.879   9.877   5.221  0.9305  0.5436  0.4324
  247MOL0     C33267   1.931   9.984   5.288 -0.2715  0.5629  1.1252
  247MOL0     O33268   1.866  10.103   5.278 -0.2278 -0.2031  0.0982
  247MOL0     C33269   1.891  10.199   5.384 -0.3965 -0.4695  0.9240
  247MOL0     C33270   1.821  10.336   5.326 -1.1937  0.9296  0.5629
  247MOL0     C33271   1.670  10.336   5.369  0.0530 -0.0932 -1.1687
  247MOL0     C33272   1.598  10.474   5.354 -0.3000 -0.1146  0.0738
  247MOL0     C33273   1.551  10.508   5.219 -0.2728 -0.4517  1.3944
  247MOL0     C33274   1.478  10.539   5.129 -0.2311  0.9643  1.3790
  247MOL0     C33275   2.044   9.961   5.370  0.0252  0.2746  0.2170
  247MOL0     C33276   2.103   9.830   5.384  0.0021 -0.5984  0.5878
  247MOL0     C33277   2.216   9.833   5.476 -0.1765 -0.0427 -0.0360
  247MOL0     H33278   1.974   9.335   5.057  0.3710 -0.2698 -0.9629
  247MOL0     H33279   2.002   9.091   5.046 -0.6039  1.8595 -0.5928
  247MOL0     H33280   2.235   8.963   5.030  1.5475  1.0360  0.5256
  247MOL0     H33281   2.346   8.949   5.169  1.1189  0.5973 -1.2589
  247MOL0     H33282   2.163   8.720   5.052 -0.1588  0.9482  0.0823
  247MOL0     H33283   2.259   8.723   5.207  0.4073  3.2521  1.8114
  247MOL0     H33284   2.469   8.727   5.080  0.8793 -1.2446 -1.6582
  247MOL0     H33285   2.407   8.764   4.940  1.7365 -2.1041 -0.0320
  247MOL0     H33286   2.390   8.486   5.052  0.0966 -1.3019 -1.1962
  247MOL0     H33287   2.275   8.531   4.938  0.1473 -0.8566  0.4877
  247MOL0     H33288   2.464   8.628   4.794  1.2225  1.6158  0.3377
  247MOL0     H33289   2.583   8.583   4.925 -0.4059  0.4410  0.5694
  247MOL0     H33290   2.562   8.352   4.873 -3.4924 -3.0662 -0.8463
  247MOL0     H33291   2.397   8.377   4.817 -0.1803 -0.4650 -1.5096
  247MOL0     H33292   2.536   8.516   4.627 -0.8989  0.6107  3.0255
  247MOL0     H33293   2.491   8.349   4.613 -1.0454  1.2069 -0.5175
  247MOL0     H33294   2.756   8.454   4.737 -3.6054  1.6214  0.8739
  247MOL0     H33295   2.734   8.299   4.699 -1.3156 -1.4882 -1.8381
  247MOL0     H33296   2.725   8.203   4.459  0.6391  0.5176  1.3224
  247MOL0     H33297   2.881   8.342   4.134  0.8383  0.5541  2.1482
  247MOL0     H33298   2.796   8.190   4.174  1.1628 -0.2294  1.5806
  247MOL0     H33299   2.587   8.297   4.098  0.7655 -0.7213  0.3255
  247MOL0     H33300   2.685   8.451   4.070 -1.2269  0.4336 -1.4404
  247MOL0     H33301   2.737   8.175   3.933  0.2656 -0.2046  1.2022
  247MOL0     H33302   2.808   8.328   3.893  0.5561  0.1409  1.2690
  247MOL0     H33303   2.508   8.285   3.890  0.0485  1.1650  1.4684
  247MOL0     H33304   2.606   8.257   3.753  3.5404  1.7898 -0.6274
  247MOL0     H33305   2.416   8.382   3.643 -3.5250 -0.8265  0.4702
  247MOL0     H33306   2.222   8.509   3.569  1.4323 -1.1269 -1.0512
  247MOL0     H33307   1.842   8.607   3.621  0.3018 -0.9591 -1.6992
  247MOL0     H33308   1.615   8.714   3.564 -2.0809  1.0307 -1.3036
  247MOL0     H33309   1.602   9.133   3.445  1.0407 -0.1109 -0.9872
  247MOL0     H33310   1.600   9.074   3.282 -1.3959  1.5274 -0.3916
  247MOL0     H33311   1.378   9.167   3.296 -0.5166  0.5560  1.1329
  247MOL0     H33312   1.346   9.008   3.337 -0.8460  0.8679 -0.1766
  247MOL0     H33313   1.340   9.073   3.581 -1.9378 -0.3175 -1.0034
  247MOL0     H33314   1.425   9.224   3.531 -1.0479  0.6019 -0.6157
  247MOL0     H33315   1.143   9.133   3.438 -1.3836  1.7309 -2.2211
  247MOL0     H33316   1.229   9.289   3.408  0.2873 -0.5518 -0.3154
  247MOL0     H33317   1.078   9.340   3.599 -0.5550 -1.2560  0.3762
  247MOL0     H33318   1.225   9.303   3.670 -0.1705  3.2224 -2.3769
  247MOL0     H33319   1.022   9.071   3.631 -1.8217  1.3845  0.5190
  247MOL0     H33320   1.126   9.099   3.770 -0.9866 -3.5573 -1.1905
  247MOL0     H33321   0.878   9.272   3.724 -0.2622  0.8419  0.1843
  247MOL0     H33322   0.995   9.287   3.853 -0.5984  0.3038 -0.1984
  247MOL0     H33323   0.848   9.022   3.800  2.2858  2.2706 -3.8845
  247MOL0     H33324   0.944   9.064   3.942  1.2840  1.3780  0.6242
  247MOL0     H33325   1.813   9.039   3.383  0.6691  1.3430  1.0168
  247MOL0     H33326   2.041   8.930   3.450  0.4219 -2.5468 -3.6427
  247MOL0     H33327   2.359   8.831   3.841 -2.8495 -0.8670  3.1219
  247MOL0     H33328   2.523   8.708   3.916  1.4249 -0.5566 -1.6419
  247MOL0     H33329   2.219   9.112   5.422 -0.5050 -0.1655  0.4325
  247MOL0     H33330   2.179   9.331   5.455 -2.6690  1.6727  0.2638
  247MOL0     H33331   1.895   9.667   5.188 -0.4382  1.6452 -2.1369
  247MOL0     H33332   1.782   9.883   5.172  1.6944 -1.1733 -1.4743
  247MOL0     H33333   1.998  10.213   5.400 -0.1311 -0.4965 -0.6625
  247MOL0     H33334   1.861  10.158   5.481  0.3471  2.2287  2.4076
  247MOL0     H33335   1.827  10.345   5.217  4.9119  2.1928  0.6030
  247MOL0     H33336   1.877  10.421   5.367 -0.5393 -0.5353  2.8645
  247MOL0     H33337   1.670  10.306   5.475  4.0258 -3.3029 -1.8185
  247MOL0     H33338   1.620  10.256   5.315  0.7359 -0.0604 -1.8651
  247MOL0     H33339   1.506  10.469   5.414 -0.3303  0.0148  0.0372
  247MOL0     H33340   1.666  10.553   5.386 -2.5302  2.8383 -1.9539
  247MOL0     H33341   1.415  10.565   5.046  0.9951  1.1752  0.4775
  247MOL0     H33342   2.085  10.046   5.423 -2.5503  3.6267 -2.6750
  247MOL0     H33343   2.234   9.736   5.525 -1.7286  0.6789  2.1038
  247MOL0     H33344   2.298   9.860   5.410 -2.6207 -2.3767 -4.5412
  247MOL0     H33345   2.193   9.890   5.567  3.7455 -1.0886  1.8226
  248MOL0     O33346   4.911   7.198   3.447 -0.0211  0.7481 -0.4406
  248MOL0     C33347   4.818   7.276   3.446  0.3638 -0.0925  0.4277
  248MOL0     O33348   4.733   7.317   3.552 -0.5172 -0.4154 -0.3975
  248MOL0     C33349   4.765   7.285   3.683  0.4883 -0.2152 -0.2203
  248MOL0     C33350   4.887   7.313   3.741  0.6101  0.5771 -0.0935
  248MOL0     C33351   4.903   7.315   3.880  0.2349 -0.4310 -0.4446
  248MOL0     C33352   4.800   7.287   3.973  0.0627  0.3361  0.1743
  248MOL0     O33353   4.827   7.301   4.105 -0.8730 -0.1555  0.0703
  248MOL0     C33354   4.756   7.220   4.198 -1.1313 -0.6587  0.8289
  248MOL0     C33355   4.864   7.137   4.268  0.4606 -0.5783 -0.2424
  248MOL0     C33356   4.900   7.009   4.197 -0.0409 -0.1674  0.6826
  248MOL0     C33357   4.999   7.042   4.080  0.4677 -0.3335 -0.2488
  248MOL0     C33358   5.109   6.934   4.064 -0.2769  0.0193 -0.1212
  248MOL0     C33359   5.209   6.968   3.948  0.1905 -0.3954 -0.8107
  248MOL0     C33360   5.313   6.855   3.928 -0.3787  0.8498 -0.0280
  248MOL0     C33361   5.360   6.858   3.785  0.3686  1.1529  0.3245
  248MOL0     N33362   5.463   6.954   3.756 -0.4911  0.1753  0.9739
  248MOL0     C33363   5.434   7.093   3.757  0.3198  0.5570  0.2140
  248MOL0     C33364   5.534   7.150   3.683 -0.5723 -0.1319 -0.5585
  248MOL0     C33365   5.566   7.308   3.665  0.7885 -0.5932 -0.5823
  248MOL0     C33366   5.458   7.373   3.574 -0.5686 -0.4643 -0.2021
  248MOL0     C33367   5.321   7.407   3.650  0.8863  1.3561  0.2730
  248MOL0     C33368   5.239   7.485   3.554  0.3207 -0.5894  0.0895
  248MOL0     O33369   5.122   7.518   3.623 -0.8952  0.6526  0.7728
  248MOL0     C33370   5.028   7.599   3.570 -0.2133 -0.5967 -0.0249
  248MOL0     C33371   4.917   7.628   3.650 -1.1885  1.1999 -0.2607
  248MOL0     C33372   4.802   7.694   3.604  0.2760  0.3130  0.9155
  248MOL0     C33373   4.794   7.730   3.466  0.7790  0.0974 -0.0662
  248MOL0     C33374   4.665   7.794   3.416 -0.6223 -0.1496 -0.9499
  248MOL0     O33375   4.572   7.832   3.509 -0.3488 -0.4760 -0.3864
  248MOL0     C33376   4.447   7.877   3.462 -0.3938  0.2862  0.7577
  248MOL0     C33377   4.353   7.890   3.565  0.2370 -1.1444 -0.7471
  248MOL0     C33378   4.232   7.950   3.542 -0.0213 -1.1557 -0.0012
  248MOL0     C33379   4.204   8.010   3.423  1.6585  0.3939 -0.0561
  248MOL0     O33380   4.085   8.052   3.378  0.3112 -0.0643 -0.7546
  248MOL0     C33381   3.973   8.055   3.467  0.5567  0.3859 -0.3775
  248MOL0     C33382   3.918   7.912   3.458  0.0310  0.6388  0.2031
  248MOL0     C33383   3.765   7.914   3.495  0.5842  0.3476 -0.0941
  248MOL0     C33384   3.714   7.775   3.506  0.5522  0.7137 -0.1560
  248MOL0     C33385   3.568   7.762   3.552 -0.0263 -0.1951  0.1898
  248MOL0     C33386   3.467   7.865   3.480 -0.6387 -0.4791  0.0903
  248MOL0     C33387   3.319   7.822   3.514 -0.5596  0.6003  1.0104
  248MOL0     C33388   3.260   7.708   3.430 -0.0655  0.5254  0.4255
  248MOL0    Cl33389   3.087   7.673   3.486 -0.1313 -0.2894  0.5204
  248MOL0     C33390   4.292   7.997   3.312  0.0801  0.0653 -0.5331
  248MOL0     C33391   4.412   7.929   3.335  0.0390 -0.0872 -0.9713
  248MOL0     O33392   4.645   7.782   3.298  0.2628 -0.2122  0.5473
  248MOL0     C33393   4.908   7.695   3.384  0.4323 -0.4817 -0.3502
  248MOL0     C33394   5.022   7.637   3.434  1.1873 -0.2863  0.5556
  248MOL0     N33395   5.612   7.048   3.638  0.1696  0.9755  0.4111
  248MOL0     N33396   5.580   6.935   3.688  0.1106  0.7551  0.2025
  248MOL0     C33397   4.674   7.277   3.914 -0.1014  0.5128 -0.5963
  248MOL0     C33398   4.658   7.281   3.778 -0.0153  0.7443  0.0864
  248MOL0     C33399   4.792   7.342   3.320 -0.0730 -0.1489  0.0968
  248MOL0     C33400   4.666   7.399   3.297  0.2189  0.5495 -0.0938
  248MOL0     C33401   4.639   7.460   3.176 -0.0355  0.7184  0.4848
  248MOL0     C33402   4.730   7.477   3.079 -0.0711 -0.5894  0.3065
  248MOL0     O33403   4.700   7.542   2.956  0.8642  0.7755  0.3764
  248MOL0     C33404   4.579   7.626   2.955 -0.3365  0.5159  0.9800
  248MOL0     C33405   4.547   7.727   2.839 -0.9630  1.5275 -0.2572
  248MOL0     C33406   4.570   7.667   2.699  0.9042  0.6782 -0.5715
  248MOL0     C33407   4.498   7.539   2.655 -1.4781 -0.2972 -0.1077
  248MOL0     C33408   4.505   7.515   2.508 -0.8013  0.4411 -0.5515
  248MOL0     C33409   4.514   7.497   2.389  0.3076 -1.1801 -0.7340
  248MOL0     C33410   4.864   7.435   3.103  0.2811 -0.0577  0.4367
  248MOL0     C33411   4.893   7.358   3.221 -0.6508 -0.5248  0.2845
  248MOL0     C33412   5.029   7.306   3.218 -0.7963  0.2856 -0.6238
  248MOL0     H33413   4.961   7.359   3.677  0.1790  0.8091 -0.4336
  248MOL0     H33414   4.996   7.344   3.928 -0.4800  2.5929 -0.7095
  248MOL0     H33415   4.709   7.281   4.276  1.4941  0.4927  1.6362
  248MOL0     H33416   4.680   7.149   4.165 -0.8622 -0.7402  0.3855
  248MOL0     H33417   4.822   7.118   4.367 -3.4845  1.0330 -1.4310
  248MOL0     H33418   4.953   7.198   4.285 -1.6522  2.3521  1.2146
  248MOL0     H33419   4.814   6.948   4.167  0.5133 -1.7312  2.1669
  248MOL0     H33420   4.953   6.946   4.268  1.2301  0.6098  0.4581
  248MOL0     H33421   4.953   7.063   3.983  2.2331 -2.8381 -1.7797
  248MOL0     H33422   5.043   7.139   4.105  0.3915  0.0784 -1.6219
  248MOL0     H33423   5.170   6.925   4.154  0.2582  2.3440 -0.1935
  248MOL0     H33424   5.054   6.841   4.050  0.9170 -0.7795  0.3211
  248MOL0     H33425   5.147   6.974   3.858 -0.3201  1.0445 -0.4038
  248MOL0     H33426   5.254   7.068   3.953 -1.7235  0.4880  0.1242
  248MOL0     H33427   5.272   6.756   3.952  1.7384  0.2690  1.5653
  248MOL0     H33428   5.387   6.856   4.009 -2.0007 -2.1202  1.6612
  248MOL0     H33429   5.387   6.753   3.767  1.5729  1.5988 -0.6097
  248MOL0     H33430   5.276   6.867   3.716 -0.3227 -2.7282  0.4589
  248MOL0     H33431   5.356   7.157   3.797 -1.1670  0.5373 -2.4383
  248MOL0     H33432   5.571   7.355   3.763 -4.2425 -1.9552  0.6438
  248MOL0     H33433   5.666   7.310   3.622  1.6931 -3.3215  1.1214
  248MOL0     H33434   5.509   7.459   3.529 -0.8410 -1.1970 -1.9713
  248MOL0     H33435   5.434   7.304   3.493 -1.3974 -2.1504  1.4060
  248MOL0     H33436   5.356   7.465   3.736 -0.8057  1.2022  1.0915
  248MOL0     H33437   5.256   7.323   3.674 -1.0627  2.0066 -2.2399
  248MOL0     H33438   5.210   7.429   3.465 -1.7329  1.0783 -0.3774
  248MOL0     H33439   5.287   7.581   3.530 -0.5314  0.5501  2.5804
  248MOL0     H33440   4.896   7.585   3.747  1.1380 -0.3517 -0.3721
  248MOL0     H33441   4.718   7.713   3.671 -1.3962 -1.0048 -0.7045
  248MOL0     H33442   4.371   7.842   3.660  1.3139  1.2865  0.3414
  248MOL0     H33443   4.166   7.969   3.626  1.6093  1.5887  0.7869
  248MOL0     H33444   3.993   8.081   3.572  5.5721 -2.6735 -0.2194
  248MOL0     H33445   3.897   8.123   3.428  1.2863  1.6453  0.3032
  248MOL0     H33446   3.938   7.866   3.361  0.9875  2.9564 -0.7786
  248MOL0     H33447   3.967   7.852   3.535  0.0941  0.4710  0.0341
  248MOL0     H33448   3.767   7.959   3.594 -1.3104  1.3046 -0.4482
  248MOL0     H33449   3.707   7.982   3.431 -0.8215  1.1196  1.9195
  248MOL0     H33450   3.775   7.717   3.575 -0.3934  0.6169  0.6276
  248MOL0     H33451   3.725   7.730   3.407  3.7979 -0.7650  0.7640
  248MOL0     H33452   3.562   7.769   3.661 -0.3163 -0.5354  0.1959
  248MOL0     H33453   3.522   7.665   3.530 -4.3750  1.6145  0.3113
  248MOL0     H33454   3.486   7.965   3.521 -0.7973 -0.5182  0.2618
  248MOL0     H33455   3.478   7.882   3.373  0.7534  0.2527  0.3256
  248MOL0     H33456   3.254   7.910   3.503 -1.9893 -0.7531 -3.5401
  248MOL0     H33457   3.313   7.777   3.614 -0.5963 -1.4771  0.1155
  248MOL0     H33458   3.251   7.727   3.322  1.5384  0.9351  0.3398
  248MOL0     H33459   3.335   7.628   3.437 -2.8982 -2.4016 -0.2908
  248MOL0     H33460   4.270   8.030   3.212  1.6267  0.5566 -0.7353
  248MOL0     H33461   4.475   7.929   3.246  0.6263 -1.1202 -0.5833
  248MOL0     H33462   4.896   7.714   3.278  1.4183 -1.0746 -0.5765
  248MOL0     H33463   5.104   7.620   3.366  0.4186  1.7634 -0.9656
  248MOL0     H33464   4.587   7.260   3.976 -1.6229 -0.3389 -2.8330
  248MOL0     H33465   4.565   7.273   3.722  1.2669  0.6879 -2.1707
  248MOL0     H33466   4.597   7.386   3.380  0.9910 -0.8799  0.3680
  248MOL0     H33467   4.538   7.498   3.164 -1.3673 -2.6455 -0.2562
  248MOL0     H33468   4.579   7.689   3.044 -0.8337  2.8381 -0.5746
  248MOL0     H33469   4.499   7.554   2.933  1.5204 -1.5338  0.6007
  248MOL0     H33470   4.605   7.819   2.842  1.0568  0.3213 -0.3770
  248MOL0     H33471   4.442   7.755   2.847 -1.7636 -1.5412  1.7217
  248MOL0     H33472   4.677   7.670   2.679  0.5933  0.9177 -2.4696
  248MOL0     H33473   4.535   7.739   2.624 -1.3742  1.9482  1.5621
  248MOL0     H33474   4.546   7.453   2.703 -1.4385 -0.7268 -0.8882
  248MOL0     H33475   4.398   7.539   2.697 -0.4891 -0.0594  2.3805
  248MOL0     H33476   4.515   7.486   2.282  1.0776 -0.5025 -0.8111
  248MOL0     H33477   4.934   7.457   3.023 -2.9726 -0.2068 -2.7087
  248MOL0     H33478   5.092   7.347   3.139  0.1594  0.2619  0.1024
  248MOL0     H33479   5.073   7.338   3.313 -0.2940 -1.7621 -0.1040
  248MOL0     H33480   5.017   7.197   3.209  2.5223 -0.3287  1.0261
  249MOL0     O33481   8.843   7.455   0.536 -0.4229  0.3798 -0.0418
  249MOL0     C33482   8.828   7.539   0.625  0.2286  0.9219 -0.3058
  249MOL0     O33483   8.706   7.585   0.672 -0.1772 -0.6948  0.4161
  249MOL0     C33484   8.592   7.504   0.669 -0.2195  0.3080 -0.5019
  249MOL0     C33485   8.546   7.445   0.784 -0.1439 -0.7150 -0.3577
  249MOL0     C33486   8.426   7.374   0.791 -0.3062 -0.3900 -0.6015
  249MOL0     C33487   8.357   7.342   0.676  0.2004 -0.4128  0.7575
  249MOL0     O33488   8.245   7.271   0.696 -0.0130 -0.3711 -0.1748
  249MOL0     C33489   8.121   7.324   0.641  0.4585  0.2793 -0.1627
  249MOL0     C33490   8.016   7.309   0.747  0.2013  0.5392  0.7915
  249MOL0     C33491   7.883   7.389   0.723 -0.3310  0.3665 -0.2336
  249MOL0     C33492   7.915   7.550   0.729  0.1096 -0.5074 -0.0446
  249MOL0     C33493   7.781   7.634   0.732 -1.4592 -0.3109 -0.1010
  249MOL0     C33494   7.685   7.599   0.620  0.1663  0.3641 -1.1336
  249MOL0     C33495   7.568   7.687   0.616  0.5848 -0.0809 -0.1712
  249MOL0     C33496   7.467   7.632   0.518  0.2473 -0.0265  0.2506
  249MOL0     N33497   7.369   7.744   0.484  0.3888  0.6864 -0.3131
  249MOL0     C33498   7.391   7.835   0.388  0.0145  0.2997 -0.0483
  249MOL0     C33499   7.268   7.874   0.338  0.3305  1.1166  0.1895
  249MOL0     C33500   7.245   7.978   0.234 -1.3251 -0.6622 -0.0069
  249MOL0     C33501   7.271   7.942   0.087 -0.6615  0.8131  0.0176
  249MOL0     C33502   7.416   7.881   0.056  0.2482  1.2424  0.0777
  249MOL0     C33503   7.414   7.849  -0.101 -0.1259  0.5713  0.5473
  249MOL0     O33504   7.352   7.720  -0.134  0.2675  0.9988  0.3122
  249MOL0     C33505   7.277   7.685  -0.245 -0.1326  0.4085 -0.2068
  249MOL0     C33506   7.237   7.772  -0.348  0.0894 -0.4452 -0.7123
  249MOL0     C33507   7.160   7.722  -0.450 -1.1811  0.7093  0.6999
  249MOL0     C33508   7.121   7.590  -0.471 -0.6401  0.4372 -0.0498
  249MOL0     C33509   7.033   7.539  -0.576 -0.1758 -0.6312 -0.5343
  249MOL0     O33510   7.016   7.597  -0.692  0.3050 -0.2079  0.7012
  249MOL0     C33511   6.922   7.556  -0.780  0.4463 -0.2374  1.4057
  249MOL0     C33512   6.914   7.427  -0.828 -0.7382  0.0236 -1.3407
  249MOL0     C33513   6.842   7.400  -0.941  0.6548  0.1802 -0.6178
  249MOL0     C33514   6.772   7.495  -1.012  0.9696  0.0409 -0.6134
  249MOL0     O33515   6.706   7.449  -1.124 -0.3228  0.0106  0.9577
  249MOL0     C33516   6.593   7.517  -1.171 -0.6183  0.0242  0.4151
  249MOL0     C33517   6.503   7.449  -1.282 -0.5080  0.4647 -1.2180
  249MOL0     C33518   6.400   7.540  -1.338  0.5664 -0.9811  0.4922
  249MOL0     C33519   6.453   7.653  -1.434  0.5729  0.3788  0.2894
  249MOL0     C33520   6.335   7.716  -1.525 -0.6110 -0.1949 -0.3096
  249MOL0     C33521   6.221   7.781  -1.442 -0.1221  0.3537  0.1098
  249MOL0     C33522   6.118   7.829  -1.539  0.2505 -0.1670 -0.4210
  249MOL0     C33523   6.031   7.928  -1.471 -0.3029  0.2028  0.6080
  249MOL0    Cl33524   5.946   7.857  -1.324 -0.2853  0.0150  0.0002
  249MOL0     C33525   6.763   7.621  -0.957  0.1393 -0.2318 -0.5385
  249MOL0     C33526   6.844   7.656  -0.841  0.8045  0.5539 -0.5032
  249MOL0     O33527   6.988   7.426  -0.548  0.5282  0.1166 -0.5081
  249MOL0     C33528   7.160   7.504  -0.361  0.4378 -1.3411 -0.6145
  249MOL0     C33529   7.226   7.556  -0.251  0.4544 -0.1673 -1.1333
  249MOL0     N33530   7.172   7.823   0.419 -0.2046  0.2955 -0.5806
  249MOL0     N33531   7.230   7.744   0.504 -0.1371  0.4848 -0.1422
  249MOL0     C33532   8.416   7.389   0.552 -0.0715 -0.0171  0.6106
  249MOL0     C33533   8.524   7.473   0.546 -0.3008  0.4628 -0.8375
  249MOL0     C33534   8.953   7.614   0.666  0.1638  0.3022 -0.2416
  249MOL0     C33535   9.073   7.579   0.611 -0.6349 -0.5147  0.0453
  249MOL0     C33536   9.203   7.635   0.638  2.2120  0.4306  0.0844
  249MOL0     C33537   9.200   7.751   0.715  0.0669 -0.2105 -0.2179
  249MOL0     O33538   9.314   7.820   0.736  0.1735  0.7108 -0.4114
  249MOL0     C33539   9.437   7.780   0.657  0.2186  0.1686 -0.0287
  249MOL0     C33540   9.507   7.656   0.730 -0.0009 -0.0141  0.8077
  249MOL0     C33541   9.617   7.690   0.826  0.2314 -0.2552 -0.5494
  249MOL0     C33542   9.680   7.565   0.895 -0.3726 -0.2201 -1.5735
  249MOL0     C33543   9.590   7.516   1.005  0.4577 -0.8333  0.8703
  249MOL0     C33544   9.514   7.481   1.091 -0.3287 -0.5505 -0.1778
  249MOL0     C33545   9.084   7.790   0.776 -0.2382 -0.0014 -0.4065
  249MOL0     C33546   8.958   7.723   0.762 -0.6013 -0.2400  0.1001
  249MOL0     C33547   8.853   7.793   0.841  0.1364 -1.0913 -0.6117
  249MOL0     H33548   8.594   7.467   0.878 -0.7756 -3.2595  0.6481
  249MOL0     H33549   8.406   7.348   0.895  3.6298  1.1729  0.7470
  249MOL0     H33550   8.119   7.426   0.600 -1.9658  0.9335  1.3859
  249MOL0     H33551   8.112   7.261   0.552 -1.9931 -0.4477  0.5150
  249MOL0     H33552   8.061   7.336   0.843  2.5937 -2.4313  0.6837
  249MOL0     H33553   7.999   7.201   0.748 -0.3095  0.5447 -1.8987
  249MOL0     H33554   7.801   7.363   0.791  0.9574  0.8065  1.5656
  249MOL0     H33555   7.853   7.376   0.619  1.8640 -2.6358 -0.6127
  249MOL0     H33556   7.983   7.585   0.807 -0.4827  2.3265 -0.6939
  249MOL0     H33557   7.958   7.581   0.634 -1.7120 -0.8040 -1.0077
  249MOL0     H33558   7.724   7.630   0.825 -2.2323 -0.8895 -0.5850
  249MOL0     H33559   7.807   7.740   0.730 -2.8648  0.1380  2.0090
  249MOL0     H33560   7.727   7.604   0.519 -0.7331  3.7687 -1.4614
  249MOL0     H33561   7.659   7.495   0.637  2.0544  0.0722  0.2416
  249MOL0     H33562   7.610   7.782   0.582 -1.3689  1.7706  2.1749
  249MOL0     H33563   7.516   7.701   0.711  0.0667 -0.6937 -0.3588
  249MOL0     H33564   7.493   7.599   0.417 -1.4679 -1.2902  0.1828
  249MOL0     H33565   7.429   7.537   0.556  3.7182 -1.6357  0.0392
  249MOL0     H33566   7.488   7.871   0.357  1.0280 -1.4577  0.9218
  249MOL0     H33567   7.144   8.018   0.242 -0.9909  0.5461 -1.5046
  249MOL0     H33568   7.320   8.053   0.262 -1.2226 -1.5588  2.4152
  249MOL0     H33569   7.193   7.870   0.062 -2.1708  1.9477  1.3092
  249MOL0     H33570   7.260   8.032   0.027  0.1660  0.4714 -0.6692
  249MOL0     H33571   7.428   7.783   0.102 -3.2912 -0.1782 -1.6442
  249MOL0     H33572   7.500   7.946   0.084  1.5666  0.2871 -1.5228
  249MOL0     H33573   7.521   7.844  -0.123 -0.0338 -0.1737  1.1245
  249MOL0     H33574   7.363   7.931  -0.152  3.6213  1.9512 -1.3662
  249MOL0     H33575   7.266   7.876  -0.351  3.4188 -1.2734 -1.8016
  249MOL0     H33576   7.118   7.797  -0.517 -2.8938  3.2869  4.2994
  249MOL0     H33577   6.982   7.356  -0.782 -0.9179  0.8788  0.3269
  249MOL0     H33578   6.840   7.299  -0.980  1.1336  0.5572 -1.6437
  249MOL0     H33579   6.533   7.545  -1.084 -1.3160  1.3467 -0.4620
  249MOL0     H33580   6.634   7.602  -1.226 -0.1733  0.0353  0.7576
  249MOL0     H33581   6.568   7.409  -1.361  2.9782 -0.7563  1.9576
  249MOL0     H33582   6.457   7.362  -1.235  0.3414  1.0787  0.8808
  249MOL0     H33583   6.326   7.478  -1.390  1.2449 -0.6181 -0.9787
  249MOL0     H33584   6.342   7.589  -1.260  0.6330 -0.9380  0.5149
  249MOL0     H33585   6.529   7.616  -1.504 -1.6260 -0.8604 -1.5928
  249MOL0     H33586   6.498   7.732  -1.372  0.0666  0.8900  0.0134
  249MOL0     H33587   6.289   7.655  -1.603 -1.4491 -0.7481  0.5986
  249MOL0     H33588   6.384   7.794  -1.584  1.1474  1.1362  2.7026
  249MOL0     H33589   6.183   7.708  -1.370  1.5217 -0.4124  0.2379
  249MOL0     H33590   6.267   7.863  -1.384 -0.1893 -0.3188  1.1411
  249MOL0     H33591   6.047   7.753  -1.572 -0.5169  1.0343 -1.6695
  249MOL0     H33592   6.151   7.890  -1.624  1.7735  1.9962  1.5815
  249MOL0     H33593   6.092   8.014  -1.441 -0.3123 -0.0560  1.3778
  249MOL0     H33594   5.949   7.962  -1.534 -0.9129  0.4680  1.5246
  249MOL0     H33595   6.717   7.701  -1.014 -0.6542  1.0328  1.7593
  249MOL0     H33596   6.861   7.762  -0.825 -3.1336  1.5759 -1.8836
  249MOL0     H33597   7.116   7.407  -0.344 -0.7273 -1.1439 -2.2390
  249MOL0     H33598   7.230   7.492  -0.163 -0.3494 -3.2218 -3.1402
  249MOL0     H33599   8.381   7.363   0.452  0.2403 -0.3986  0.5968
  249MOL0     H33600   8.556   7.514   0.451  1.3671  1.6846  0.2118
  249MOL0     H33601   9.069   7.507   0.530  0.8747 -1.2798  0.6140
  249MOL0     H33602   9.275   7.594   0.567 -3.8687 -4.6195 -4.2840
  249MOL0     H33603   9.511   7.860   0.657  1.3441 -0.7932 -2.0342
  249MOL0     H33604   9.416   7.751   0.554  4.7180 -0.4768 -0.9911
  249MOL0     H33605   9.561   7.607   0.649  0.1823  0.1883  0.8071
  249MOL0     H33606   9.435   7.587   0.776 -4.7435  2.3292 -2.2334
  249MOL0     H33607   9.583   7.763   0.900  1.9030  0.1179 -0.1207
  249MOL0     H33608   9.693   7.732   0.759  1.2157 -1.0692  0.0315
  249MOL0     H33609   9.707   7.484   0.826 -1.3027 -2.3340  0.4386
  249MOL0     H33610   9.774   7.584   0.948 -1.1555  0.0067 -0.2177
  249MOL0     H33611   9.450   7.464   1.175 -1.4211 -0.3599 -0.9398
  249MOL0     H33612   9.101   7.874   0.843  0.9817 -1.5458  1.3291
  249MOL0     H33613   8.879   7.896   0.869  2.1148 -0.3825 -4.3950
  249MOL0     H33614   8.763   7.808   0.781 -0.4603  1.4881  0.7934
  249MOL0     H33615   8.823   7.742   0.933  1.5904  0.2321  0.6517
  250MOL0     O33616  10.847  10.747   3.360  0.1708 -0.1528  0.0464
  250MOL0     C33617  10.864  10.799   3.473 -0.9862 -0.7175 -0.2624
  250MOL0     O33618  10.768  10.842   3.550 -0.1800 -0.8477 -0.3336
  250MOL0     C33619  10.643  10.781   3.569  0.2813  0.0887  0.5330
  250MOL0     C33620  10.542  10.859   3.623  0.0289  0.6806 -0.3292
  250MOL0     C33621  10.420  10.797   3.662 -0.3255  0.2889 -0.8374
  250MOL0     C33622  10.401  10.659   3.644 -0.0369 -0.8779  0.3318
  250MOL0     O33623  10.293  10.589   3.686 -0.4908 -0.2670  0.1981
  250MOL0     C33624  10.277  10.571   3.830  0.4630  0.3761 -0.1701
  250MOL0     C33625  10.368  10.457   3.888 -0.1403  0.4726  0.2473
  250MOL0     C33626  10.353  10.429   4.028 -0.1112  0.1814 -0.7216
  250MOL0     C33627  10.463  10.331   4.077  0.4325  0.3207  0.0766
  250MOL0     C33628  10.466  10.325   4.233  0.1594  0.2649  0.5459
  250MOL0     C33629  10.374  10.221   4.292 -0.0224  0.1633  0.2035
  250MOL0     C33630  10.385  10.227   4.448  0.5107 -0.0556 -0.4879
  250MOL0     C33631  10.338  10.097   4.520 -0.4776  0.4316  0.0389
  250MOL0     N33632  10.194  10.072   4.506 -0.5028  0.4643 -0.5213
  250MOL0     C33633  10.095  10.161   4.502  0.9350  0.3082 -0.8348
  250MOL0     C33634   9.983  10.102   4.471  0.6919  1.1798 -0.3654
  250MOL0     C33635   9.845  10.163   4.451  0.2815 -0.5322  0.3173
  250MOL0     C33636   9.834  10.233   4.320  0.1040  0.3546 -0.0135
  250MOL0     C33637   9.923  10.344   4.279  0.1252 -0.2864 -0.2191
  250MOL0     C33638   9.877  10.432   4.162  0.1712  0.2649 -0.1015
  250MOL0     O33639   9.811  10.349   4.065  0.6573 -0.2025 -0.0044
  250MOL0     C33640   9.868  10.366   3.946 -1.5965  0.0743  0.1818
  250MOL0     C33641   9.814  10.467   3.870 -1.1785  0.1986 -0.2806
  250MOL0     C33642   9.862  10.496   3.743 -0.8666 -0.1941  0.8904
  250MOL0     C33643   9.967  10.422   3.679  0.4943 -0.9057 -0.3577
  250MOL0     C33644  10.008  10.445   3.538 -0.2638 -0.3265  0.3624
  250MOL0     O33645  10.082  10.341   3.486  0.8827  0.0332  0.3016
  250MOL0     C33646  10.111  10.329   3.351 -0.3074  0.3936  1.0053
  250MOL0     C33647  10.094  10.205   3.285  0.4721 -0.9350 -0.2161
  250MOL0     C33648  10.144  10.183   3.152 -0.0132  0.2974 -0.4945
  250MOL0     C33649  10.194  10.298   3.079 -0.4101 -0.0491 -0.4909
  250MOL0     O33650  10.231  10.285   2.946  0.1479 -0.2803 -0.4010
  250MOL0     C33651  10.173  10.183   2.861 -0.1215  0.3344  1.1212
  250MOL0     C33652  10.015  10.182   2.874 -0.6358 -0.4577  0.3412
  250MOL0     C33653   9.943  10.085   2.775 -0.0824 -0.1020  0.3766
  250MOL0     C33654   9.937   9.950   2.836  0.4542 -0.0541  0.2124
  250MOL0     C33655   9.900   9.848   2.734 -0.0196 -0.3554 -0.3769
  250MOL0     C33656   9.857   9.711   2.795  0.2288 -0.0139  0.6701
  250MOL0     C33657   9.749   9.726   2.893  0.3635  0.8166 -0.7767
  250MOL0     C33658   9.702   9.586   2.933  0.3284 -0.9565 -0.7997
  250MOL0    Cl33659   9.592   9.600   3.088 -0.3734  0.0197 -0.1246
  250MOL0     C33660  10.192  10.426   3.143 -0.6593 -0.1184 -0.1102
  250MOL0     C33661  10.154  10.433   3.276 -0.8276  0.6402  0.5169
  250MOL0     O33662   9.950  10.529   3.468  0.0850  0.1942  0.6454
  250MOL0     C33663  10.021  10.315   3.756  0.5304 -0.7661  0.2099
  250MOL0     C33664   9.970  10.291   3.889 -1.0650 -0.1267  0.4210
  250MOL0     N33665  10.005   9.966   4.459  0.4606  0.2225  0.4826
  250MOL0     N33666  10.138   9.949   4.477  0.2851 -0.0689 -0.0499
  250MOL0     C33667  10.495  10.585   3.576  0.2832 -0.1365 -0.7655
  250MOL0     C33668  10.619  10.640   3.549 -0.5984  0.3544 -0.0378
  250MOL0     C33669  11.005  10.842   3.497 -0.6919 -0.0023  1.6063
  250MOL0     C33670  11.096  10.848   3.382  0.0345  0.8091  0.5336
  250MOL0     C33671  11.229  10.895   3.395  0.7340  0.7311 -0.3384
  250MOL0     C33672  11.278  10.933   3.521 -0.9415  0.1795  0.7337
  250MOL0     O33673  11.407  10.975   3.553 -0.2244  0.2798  0.4016
  250MOL0     C33674  11.468  11.063   3.458  0.8676  1.0877 -0.0264
  250MOL0     C33675  11.432  11.209   3.499  0.4127  0.7284  0.6572
  250MOL0     C33676  11.468  11.264   3.634  0.4651 -0.0335 -0.5098
  250MOL0     C33677  11.423  11.408   3.656  0.0255 -0.2048  0.1005
  250MOL0     C33678  11.535  11.495   3.608 -0.0393 -0.2733  0.4505
  250MOL0     C33679  11.603  11.579   3.558  0.8459  0.6828 -0.0868
  250MOL0     C33680  11.187  10.927   3.631  0.5491 -0.7698 -0.3476
  250MOL0     C33681  11.053  10.878   3.628  0.5969 -0.0625  0.2890
  250MOL0     C33682  10.969  10.871   3.750 -1.0872 -0.5491 -0.4922
  250MOL0     H33683  10.567  10.960   3.654  1.2520  0.1231  0.5603
  250MOL0     H33684  10.343  10.854   3.712 -2.9620 -2.4304 -1.5133
  250MOL0     H33685  10.297  10.660   3.890  2.3868 -0.0590 -0.1022
  250MOL0     H33686  10.176  10.533   3.843  1.0231 -1.0815  0.1893
  250MOL0     H33687  10.467  10.496   3.867 -0.0325 -0.8681 -2.0982
  250MOL0     H33688  10.358  10.368   3.825  3.9327  0.5869 -0.8489
  250MOL0     H33689  10.254  10.387   4.049  0.1438 -1.5122 -2.6492
  250MOL0     H33690  10.376  10.513   4.094  2.2502 -1.0476  0.1634
  250MOL0     H33691  10.449  10.230   4.039 -0.1725  0.7393 -0.8301
  250MOL0     H33692  10.562  10.366   4.046  0.8837  0.0072  1.1184
  250MOL0     H33693  10.568  10.295   4.261  0.8878  1.9019 -0.2251
  250MOL0     H33694  10.449  10.418   4.286 -0.7794 -0.8743  2.3252
  250MOL0     H33695  10.270  10.247   4.272 -0.0193 -0.5480 -0.8379
  250MOL0     H33696  10.391  10.129   4.235 -0.7346  1.5578 -2.4319
  250MOL0     H33697  10.337  10.314   4.493 -2.5060 -2.0565  0.5210
  250MOL0     H33698  10.489  10.229   4.482  0.5244 -0.7028 -0.4749
  250MOL0     H33699  10.396  10.018   4.470  1.4454  1.3282  0.7744
  250MOL0     H33700  10.369  10.098   4.624  0.9426  2.6813 -0.3345
  250MOL0     H33701  10.102  10.269   4.511 -2.7453  0.7595 -1.8525
  250MOL0     H33702   9.759  10.096   4.460  1.6045 -2.7033 -1.8900
  250MOL0     H33703   9.830  10.244   4.523 -0.8552  0.1949 -0.7095
  250MOL0     H33704   9.843  10.152   4.247  0.0363 -1.3253  1.7537
  250MOL0     H33705   9.732  10.270   4.307  0.6005  1.2284 -1.6696
  250MOL0     H33706  10.024  10.310   4.256 -0.6772 -3.0362 -0.0170
  250MOL0     H33707   9.930  10.413   4.364  0.5362 -0.3281 -0.2156
  250MOL0     H33708   9.964  10.486   4.123 -0.5462  0.0297 -2.1234
  250MOL0     H33709   9.816  10.518   4.192  2.7835  1.3968  2.4898
  250MOL0     H33710   9.727  10.520   3.909 -1.7098 -1.4609  0.9451
  250MOL0     H33711   9.821  10.578   3.685 -0.1164  0.2251  0.9402
  250MOL0     H33712  10.051  10.119   3.336  1.5259 -0.6252  1.2366
  250MOL0     H33713  10.136  10.081   3.116 -0.8744  0.1491  0.0838
  250MOL0     H33714  10.215  10.215   2.765  2.1097  1.9849  2.5660
  250MOL0     H33715  10.207  10.084   2.891 -0.7030  0.0419  0.8311
  250MOL0     H33716   9.980  10.166   2.976  0.0156 -1.6143  0.4049
  250MOL0     H33717   9.983  10.285   2.855 -3.0210 -0.9586  1.2339
  250MOL0     H33718   9.847  10.122   2.740  0.8696  0.6739 -1.5538
  250MOL0     H33719  10.009  10.085   2.688  0.6903 -0.0370  0.9440
  250MOL0     H33720   9.865   9.961   2.918 -0.8917  2.1938 -1.1769
  250MOL0     H33721  10.034   9.915   2.874  2.4895  3.3594 -1.3034
  250MOL0     H33722   9.993   9.832   2.677 -0.3869 -5.7350 -0.0245
  250MOL0     H33723   9.830   9.889   2.662  1.3075 -0.0155 -1.5275
  250MOL0     H33724   9.832   9.646   2.710 -1.2102  3.2390 -1.6344
  250MOL0     H33725   9.940   9.667   2.851 -2.0134 -2.8968  1.9736
  250MOL0     H33726   9.681   9.791   2.838  1.7207  1.5974 -1.5876
  250MOL0     H33727   9.776   9.782   2.983  1.6046  0.0157 -0.6186
  250MOL0     H33728   9.642   9.529   2.861  0.8592 -1.2909 -0.9804
  250MOL0     H33729   9.788   9.522   2.956 -0.5409 -1.3371  1.7688
  250MOL0     H33730  10.223  10.507   3.078 -0.5587 -0.5512 -0.6102
  250MOL0     H33731  10.158  10.537   3.306  1.6814  1.8419 -3.2445
  250MOL0     H33732  10.097  10.254   3.708  1.7170  0.8937 -0.1270
  250MOL0     H33733  10.028  10.224   3.951 -0.9568  1.5891  2.2931
  250MOL0     H33734  10.456  10.488   3.546 -1.2446 -0.1621  1.0797
  250MOL0     H33735  10.696  10.585   3.495  1.6693  1.7011  1.6539
  250MOL0     H33736  11.072  10.816   3.281  1.4020 -1.4175  0.8444
  250MOL0     H33737  11.284  10.903   3.302  0.3725  2.6806 -0.4280
  250MOL0     H33738  11.433  11.042   3.356  1.2672  1.8546 -0.3324
  250MOL0     H33739  11.576  11.048   3.456  0.5025 -2.2097 -0.2286
  250MOL0     H33740  11.325  11.230   3.491  0.0757 -1.3512 -1.1571
  250MOL0     H33741  11.479  11.258   3.414 -1.2786 -2.0260 -2.0517
  250MOL0     H33742  11.576  11.260   3.644  0.5692  1.3143 -0.8189
  250MOL0     H33743  11.439  11.204   3.721  4.0042  0.8957  1.4975
  250MOL0     H33744  11.333  11.442   3.604 -1.0766 -3.8453 -0.7226
  250MOL0     H33745  11.404  11.412   3.763  0.6136 -2.8452  0.3793
  250MOL0     H33746  11.668  11.647   3.506  1.9648 -1.5075 -1.7325
  250MOL0     H33747  11.215  10.976   3.724 -3.2187  2.2723 -0.5764
  250MOL0     H33748  10.946  10.765   3.759 -0.9017 -0.3934  3.3953
  250MOL0     H33749  11.026  10.904   3.837  1.4164 -2.9655 -1.0831
  250MOL0     H33750  10.881  10.936   3.746 -3.3312 -3.2529  1.1329
  251MOL0     O33751   3.790   7.223   6.522  0.4884 -0.5693  0.6830
  251MOL0     C33752   3.753   7.112   6.490 -0.4524  0.0285 -0.0187
  251MOL0     O33753   3.843   7.017   6.460 -0.3382  0.9215  0.4644
  251MOL0     C33754   3.965   7.025   6.522  0.6135  0.7361 -0.2833
  251MOL0     C33755   4.054   7.126   6.495  0.3218  0.0125 -0.1869
  251MOL0     C33756   4.170   7.143   6.570  0.0374 -0.7120  0.1007
  251MOL0     C33757   4.212   7.050   6.660  0.4897  0.4105  0.1582
  251MOL0     O33758   4.321   7.056   6.737 -0.7677 -0.2510 -0.1694
  251MOL0     C33759   4.307   7.132   6.857  0.4028 -0.1809 -0.4387
  251MOL0     C33760   4.441   7.181   6.915  0.2161 -0.5175 -0.2913
  251MOL0     C33761   4.496   7.315   6.852 -0.2492 -0.2597  0.4376
  251MOL0     C33762   4.579   7.329   6.726 -0.9424 -0.0474  0.0701
  251MOL0     C33763   4.610   7.473   6.684 -0.7129 -0.3117 -0.3205
  251MOL0     C33764   4.483   7.523   6.606  0.9896 -0.4732 -0.2467
  251MOL0     C33765   4.473   7.667   6.555 -1.7855  0.2194  0.1962
  251MOL0     C33766   4.345   7.702   6.485  0.8117  0.5852  0.2630
  251MOL0     N33767   4.236   7.746   6.574  0.4341  0.1955 -0.2359
  251MOL0     C33768   4.191   7.874   6.590 -0.2922  0.4663 -0.3279
  251MOL0     C33769   4.084   7.862   6.665 -0.5237 -0.0380 -0.0153
  251MOL0     C33770   3.984   7.962   6.713 -0.1858  0.6893  0.1431
  251MOL0     C33771   4.024   8.035   6.842 -0.0405 -0.5274 -0.2228
  251MOL0     C33772   4.051   7.930   6.953  0.4092  0.1758  0.0390
  251MOL0     C33773   4.084   7.972   7.098 -0.3456 -0.2370 -0.2823
  251MOL0     O33774   3.973   8.042   7.155 -0.0642 -0.0087  0.5269
  251MOL0     C33775   3.949   8.034   7.291  0.3738 -0.3779  0.5011
  251MOL0     C33776   4.045   7.999   7.383  0.3136  0.3864 -0.4182
  251MOL0     C33777   3.998   7.977   7.516  0.2657 -0.0578  0.2092
  251MOL0     C33778   3.861   7.997   7.563 -0.1201 -0.3609  0.4734
  251MOL0     C33779   3.819   7.986   7.707  0.0876  0.6283  0.4646
  251MOL0     O33780   3.917   7.950   7.790 -0.4017  0.5049  0.6733
  251MOL0     C33781   3.880   7.910   7.916  0.2044 -0.0134  0.4687
  251MOL0     C33782   3.839   7.767   7.940  0.5335 -0.7503  0.2516
  251MOL0     C33783   3.796   7.743   8.066  0.0864 -0.0052  0.1040
  251MOL0     C33784   3.801   7.839   8.172 -0.2107 -0.2217  0.6158
  251MOL0     O33785   3.774   7.795   8.305 -0.4862 -0.7089  0.1169
  251MOL0     C33786   3.766   7.884   8.410 -0.4964  0.0471  0.3087
  251MOL0     C33787   3.638   7.973   8.405  0.5622 -0.2947  0.4600
  251MOL0     C33788   3.514   7.893   8.403  0.0763  0.2422  0.6845
  251MOL0     C33789   3.389   7.962   8.458  0.5424  0.4540 -0.2981
  251MOL0     C33790   3.260   7.881   8.444 -1.1179 -0.1021  0.1045
  251MOL0     C33791   3.148   7.983   8.494  0.7775 -0.0101 -0.6251
  251MOL0     C33792   3.110   7.944   8.639  0.1533  0.1592  0.2069
  251MOL0     C33793   2.971   7.987   8.689 -0.4463 -0.0909  0.6487
  251MOL0    Cl33794   2.842   7.886   8.612 -0.3351  0.0660 -0.0424
  251MOL0     C33795   3.857   7.964   8.149  0.5907 -0.0545 -0.2519
  251MOL0     C33796   3.895   8.009   8.021  0.2902  0.2349  0.9780
  251MOL0     O33797   3.701   7.993   7.735  0.2530  0.4805 -0.5345
  251MOL0     C33798   3.771   8.037   7.466  0.5448  0.1574  0.8575
  251MOL0     C33799   3.816   8.060   7.330  0.0564  0.2715  0.2372
  251MOL0     N33800   4.064   7.731   6.698 -0.2892  0.1037  0.8753
  251MOL0     N33801   4.156   7.655   6.643 -0.3950 -1.3815  0.3444
  251MOL0     C33802   4.128   6.937   6.684 -0.1944  0.2383 -0.5579
  251MOL0     C33803   4.006   6.929   6.619  0.3996  0.2470 -0.1463
  251MOL0     C33804   3.606   7.075   6.469 -0.9864  0.0355 -0.6177
  251MOL0     C33805   3.567   6.953   6.408 -0.5480  0.2631  0.2397
  251MOL0     C33806   3.429   6.921   6.391 -0.8094  0.3492 -0.1967
  251MOL0     C33807   3.330   7.009   6.432  0.0891  0.1255  0.4365
  251MOL0     O33808   3.196   6.999   6.412  0.1988  0.6887 -0.2975
  251MOL0     C33809   3.156   6.894   6.313 -0.1838 -0.4918 -0.5765
  251MOL0     C33810   3.012   6.922   6.295 -0.6727 -1.4365 -0.5429
  251MOL0     C33811   3.001   7.070   6.245 -0.0390  0.2083 -0.2088
  251MOL0     C33812   2.868   7.090   6.157 -0.2279  0.1410 -0.4789
  251MOL0     C33813   2.860   7.229   6.103 -0.0465 -0.0039  0.1049
  251MOL0     C33814   2.881   7.351   6.083 -1.2866  0.0038 -0.3548
  251MOL0     C33815   3.366   7.121   6.502 -0.4648  0.5788  0.9224
  251MOL0     C33816   3.494   7.164   6.517 -0.6925  0.2615  0.0785
  251MOL0     C33817   3.519   7.297   6.590  0.2209  0.0247  0.3899
  251MOL0     H33818   4.024   7.192   6.415 -1.7152  1.2681  1.5013
  251MOL0     H33819   4.237   7.225   6.547 -0.2916 -0.4733 -0.0232
  251MOL0     H33820   4.234   7.212   6.842 -1.3855 -1.8013 -0.7327
  251MOL0     H33821   4.261   7.064   6.929  1.3459 -1.2930 -0.8517
  251MOL0     H33822   4.522   7.108   6.910  1.3296  0.7719 -2.4941
  251MOL0     H33823   4.411   7.195   7.019 -1.6813 -1.4364 -0.6749
  251MOL0     H33824   4.549   7.373   6.928 -0.6222  2.0571 -0.9935
  251MOL0     H33825   4.399   7.364   6.847 -0.2570 -0.1052  1.8026
  251MOL0     H33826   4.679   7.288   6.744 -0.8727  1.1128  2.8011
  251MOL0     H33827   4.526   7.282   6.643  2.1011 -0.0564 -2.0609
  251MOL0     H33828   4.627   7.541   6.768 -0.8512 -1.5229  0.7079
  251MOL0     H33829   4.700   7.486   6.623  1.1972  3.0142  2.7923
  251MOL0     H33830   4.465   7.442   6.534 -0.5566 -2.5201  2.2105
  251MOL0     H33831   4.395   7.509   6.671  1.5619  3.6971  1.7167
  251MOL0     H33832   4.555   7.684   6.485 -1.5874 -1.0672  0.0916
  251MOL0     H33833   4.502   7.734   6.637 -3.0322  2.0236 -0.7794
  251MOL0     H33834   4.379   7.782   6.418  3.1600 -1.3813 -1.0579
  251MOL0     H33835   4.317   7.623   6.414  2.4757 -0.4201  0.6812
  251MOL0     H33836   4.221   7.973   6.557 -0.8099  0.7398  0.0130
  251MOL0     H33837   3.964   8.040   6.639 -3.7165 -0.1376  0.0347
  251MOL0     H33838   3.890   7.907   6.725  0.5223 -0.3815  0.9887
  251MOL0     H33839   4.114   8.095   6.829 -1.7206  2.2305 -0.0448
  251MOL0     H33840   3.934   8.082   6.884  0.2788  0.4923 -0.6593
  251MOL0     H33841   4.139   7.879   6.912 -0.5547 -0.4425 -1.3083
  251MOL0     H33842   3.968   7.860   6.959 -1.9116  2.7687  0.0090
  251MOL0     H33843   4.166   8.044   7.090  0.1158  0.2072  4.9483
  251MOL0     H33844   4.103   7.876   7.149  0.8832 -0.4300 -1.0544
  251MOL0     H33845   4.146   7.975   7.352 -0.3358 -1.3918 -1.2867
  251MOL0     H33846   4.077   7.951   7.586  1.3497  2.4415  0.0192
  251MOL0     H33847   3.833   7.700   7.854  1.8826 -0.6808  0.0742
  251MOL0     H33848   3.761   7.642   8.083  2.4091 -0.5749  2.0829
  251MOL0     H33849   3.759   7.824   8.501  0.0483  1.2216  1.1490
  251MOL0     H33850   3.864   7.931   8.419 -1.7286  3.1081 -0.9417
  251MOL0     H33851   3.640   8.050   8.484  1.0383  1.3223 -1.0520
  251MOL0     H33852   3.630   8.030   8.312 -0.8351  0.6827  1.1397
  251MOL0     H33853   3.500   7.854   8.302  3.4932 -1.1940  0.6500
  251MOL0     H33854   3.519   7.798   8.456 -2.6126 -1.5273 -1.8981
  251MOL0     H33855   3.373   8.051   8.397 -1.5768 -1.7568 -3.2495
  251MOL0     H33856   3.396   7.998   8.561 -2.0584 -3.0792  1.3328
  251MOL0     H33857   3.268   7.779   8.483  0.3871  0.5322  1.6095
  251MOL0     H33858   3.238   7.863   8.339 -0.2009  0.1035 -0.1332
  251MOL0     H33859   3.170   8.089   8.482 -0.6877  0.2530 -1.2089
  251MOL0     H33860   3.056   7.959   8.441  0.4823 -1.4221  0.4756
  251MOL0     H33861   3.177   7.989   8.713  0.0134 -0.2482  0.5904
  251MOL0     H33862   3.114   7.835   8.644 -0.5398  0.1570  0.8332
  251MOL0     H33863   2.985   7.967   8.795  0.4214 -1.1302  0.3642
  251MOL0     H33864   2.964   8.093   8.663 -0.5665  0.8657  4.1426
  251MOL0     H33865   3.867   8.044   8.221  3.3684  1.0590 -1.7002
  251MOL0     H33866   3.938   8.104   7.994 -0.7314  1.2961  2.8719
  251MOL0     H33867   3.667   8.064   7.483  0.7864  5.0464 -3.0188
  251MOL0     H33868   3.753   8.087   7.246  3.7092 -0.2577 -2.9743
  251MOL0     H33869   4.146   6.875   6.771  1.6022 -2.4023 -2.6604
  251MOL0     H33870   3.937   6.846   6.628  0.2117  0.4875  0.7476
  251MOL0     H33871   3.646   6.883   6.383 -2.4730 -1.9686  0.0197
  251MOL0     H33872   3.418   6.822   6.349 -0.9135  0.4402 -0.3831
  251MOL0     H33873   3.166   6.790   6.348 -1.7684  0.1699  2.1434
  251MOL0     H33874   3.219   6.913   6.226  0.7059  2.6516  0.6208
  251MOL0     H33875   2.954   6.905   6.386  1.7723 -0.3140  1.3386
  251MOL0     H33876   2.970   6.865   6.212 -0.0869 -0.3761 -1.5915
  251MOL0     H33877   3.086   7.098   6.182  0.3906  0.4080  0.4551
  251MOL0     H33878   2.992   7.136   6.331 -5.7224  1.9915 -1.7148
  251MOL0     H33879   2.875   7.025   6.069  2.6515  1.0485 -1.0187
  251MOL0     H33880   2.782   7.070   6.222 -0.1297 -0.2203 -0.4557
  251MOL0     H33881   2.898   7.454   6.062  0.1832 -0.5455 -2.0720
  251MOL0     H33882   3.282   7.182   6.533  0.0066  0.6210  2.1537
  251MOL0     H33883   3.591   7.362   6.541  0.3721  0.8768  1.6727
  251MOL0     H33884   3.421   7.345   6.601  0.5576  0.7301  0.3741
  251MOL0     H33885   3.544   7.288   6.696 -4.6213  0.2703  1.8150
  252MOL0     O33886   8.400   6.273   7.180 -0.1049 -0.0852  0.1841
  252MOL0     C33887   8.511   6.316   7.179 -0.5720  0.5231 -0.6382
  252MOL0     O33888   8.593   6.335   7.063  0.5940  0.0261 -0.5643
  252MOL0     C33889   8.533   6.321   6.940 -0.6640  1.3329 -0.3477
  252MOL0     C33890   8.478   6.428   6.876  0.8415  0.6083  0.1716
  252MOL0     C33891   8.420   6.412   6.746 -0.0982 -0.0153 -0.0401
  252MOL0     C33892   8.428   6.287   6.682 -0.6552  0.6680  0.0636
  252MOL0     O33893   8.383   6.270   6.556 -0.4043  0.0726 -0.4455
  252MOL0     C33894   8.426   6.355   6.447  0.8736 -0.7121  0.0126
  252MOL0     C33895   8.560   6.297   6.401 -0.1824 -0.0303 -0.7007
  252MOL0     C33896   8.555   6.164   6.323 -0.1748 -0.0787  0.1930
  252MOL0     C33897   8.690   6.099   6.316 -0.0205 -0.0224 -1.3085
  252MOL0     C33898   8.697   5.949   6.287  0.7956  0.2383 -0.1679
  252MOL0     C33899   8.845   5.893   6.261 -0.4254 -0.4531  0.9330
  252MOL0     C33900   8.915   5.861   6.386  0.3167 -0.5004  0.4404
  252MOL0     C33901   9.040   5.781   6.364  0.0673  0.3020 -0.4454
  252MOL0     N33902   9.019   5.641   6.327 -0.1546 -0.2597 -0.1720
  252MOL0     C33903   9.005   5.540   6.415 -0.4031 -0.5106  0.0380
  252MOL0     C33904   9.040   5.434   6.346 -0.3456 -0.7282 -0.2469
  252MOL0     C33905   9.051   5.294   6.379  0.0424  0.0981  0.1640
  252MOL0     C33906   8.937   5.246   6.471 -0.2829 -0.2413  0.5536
  252MOL0     C33907   8.976   5.100   6.525 -0.6183  1.1749 -0.1325
  252MOL0     C33908   8.864   5.047   6.611  0.2552 -0.7718  0.7342
  252MOL0     O33909   8.759   5.024   6.525 -0.2246  0.2940  0.2643
  252MOL0     C33910   8.736   4.906   6.457 -0.5335 -0.4429  0.9735
  252MOL0     C33911   8.829   4.802   6.456  0.6703  0.6603 -0.7875
  252MOL0     C33912   8.801   4.678   6.400  0.7713  0.2427 -0.3790
  252MOL0     C33913   8.683   4.649   6.326  0.0807  0.4996 -0.1771
  252MOL0     C33914   8.640   4.526   6.257 -0.8433  0.0630  0.4968
  252MOL0     O33915   8.523   4.521   6.192 -0.0247 -0.2883  0.4393
  252MOL0     C33916   8.477   4.406   6.135 -0.5415 -0.4505  0.1058
  252MOL0     C33917   8.546   4.340   6.035  0.0564 -0.0776 -0.4728
  252MOL0     C33918   8.493   4.220   5.986  0.4575 -0.3072  0.1158
  252MOL0     C33919   8.353   4.179   6.011 -0.2242  0.6343  0.6491
  252MOL0     O33920   8.291   4.066   5.965  0.2629 -0.9380  0.0432
  252MOL0     C33921   8.375   3.988   5.869  0.4084 -0.1189  0.4092
  252MOL0     C33922   8.313   3.857   5.816 -0.2797 -1.2831  0.1076
  252MOL0     C33923   8.301   3.747   5.920 -0.1817 -0.8771  0.4814
  252MOL0     C33924   8.237   3.624   5.863 -0.4254  0.4020  0.0494
  252MOL0     C33925   8.175   3.531   5.971 -0.1442  0.2638  0.5617
  252MOL0     C33926   8.032   3.561   6.008  0.4671  0.7224  0.1093
  252MOL0     C33927   7.933   3.481   5.932 -0.2922  0.2491  0.5111
  252MOL0     C33928   7.896   3.357   6.007  0.2070  0.0700  1.0941
  252MOL0    Cl33929   7.791   3.243   5.906 -0.2975 -0.4042  0.2608
  252MOL0     C33930   8.284   4.268   6.089  0.2944  0.3401 -0.0301
  252MOL0     C33931   8.345   4.368   6.159 -0.4864  0.3380  0.3364
  252MOL0     O33932   8.721   4.438   6.250  0.1663  0.0615 -0.5530
  252MOL0     C33933   8.592   4.760   6.327  0.3449  0.0937  1.0104
  252MOL0     C33934   8.614   4.883   6.394  0.8926  0.5128 -0.1462
  252MOL0     N33935   9.063   5.466   6.217 -0.0508  0.1460 -1.2725
  252MOL0     N33936   9.057   5.596   6.203  0.4982 -0.7231  0.9473
  252MOL0     C33937   8.488   6.175   6.749  0.4305 -0.7487  1.2607
  252MOL0     C33938   8.537   6.192   6.879  0.3152 -0.2039  1.4852
  252MOL0     C33939   8.571   6.337   7.315 -0.6770 -0.3581  0.5816
  252MOL0     C33940   8.706   6.365   7.311  0.1185 -0.0457 -0.1719
  252MOL0     C33941   8.773   6.393   7.428  0.1788 -0.1815  0.1336
  252MOL0     C33942   8.713   6.391   7.554  0.4784 -0.1835  0.1940
  252MOL0     O33943   8.802   6.391   7.653 -0.0126 -0.5401 -0.9155
  252MOL0     C33944   8.749   6.429   7.783  0.4066 -0.8530 -0.0685
  252MOL0     C33945   8.875   6.431   7.869  0.0568  0.1844  0.5377
  252MOL0     C33946   8.844   6.512   7.998  0.0672 -0.0331 -0.0344
  252MOL0     C33947   8.954   6.509   8.101  1.4162  0.9372 -0.3075
  252MOL0     C33948   8.914   6.587   8.218  1.5493 -0.3591 -0.7029
  252MOL0     C33949   8.893   6.661   8.316  0.4223 -0.4978  0.4122
  252MOL0     C33950   8.575   6.359   7.556  0.9616 -0.1998 -0.1627
  252MOL0     C33951   8.503   6.349   7.436 -0.6871  0.2395 -0.6276
  252MOL0     C33952   8.348   6.343   7.443  0.3891  0.4138 -0.0700
  252MOL0     H33953   8.483   6.529   6.913  1.6259  0.3604  0.7685
  252MOL0     H33954   8.360   6.490   6.700  0.8632  1.4098  1.0636
  252MOL0     H33955   8.358   6.351   6.361 -1.0386 -1.1055  1.4793
  252MOL0     H33956   8.429   6.456   6.487  0.0619 -2.3398  4.7960
  252MOL0     H33957   8.628   6.297   6.487 -4.3730  0.0733  2.9757
  252MOL0     H33958   8.593   6.368   6.324 -6.0107  1.5516 -2.2759
  252MOL0     H33959   8.516   6.180   6.222  0.7590 -2.8311 -0.7199
  252MOL0     H33960   8.495   6.089   6.375 -1.4570  0.5457 -0.3528
  252MOL0     H33961   8.749   6.151   6.240 -1.3659  0.6265 -1.9347
  252MOL0     H33962   8.741   6.110   6.412  0.3759  1.5880 -1.6670
  252MOL0     H33963   8.652   5.886   6.364 -0.5084 -0.4286 -1.4256
  252MOL0     H33964   8.644   5.924   6.195  0.6445  2.3656 -0.6971
  252MOL0     H33965   8.849   5.795   6.213  1.5142  1.5579 -3.6246
  252MOL0     H33966   8.895   5.954   6.185 -0.8352  0.8868  1.7098
  252MOL0     H33967   8.851   5.806   6.455  0.6663 -1.7267 -0.1725
  252MOL0     H33968   8.943   5.959   6.426 -1.4170  1.1087 -1.9699
  252MOL0     H33969   9.106   5.824   6.289  3.7430 -1.3006  1.6097
  252MOL0     H33970   9.096   5.781   6.458  1.1515 -0.9119 -1.0498
  252MOL0     H33971   8.961   5.530   6.514 -1.5642 -1.6259 -0.5575
  252MOL0     H33972   9.050   5.233   6.288  0.3665  0.0811  0.1707
  252MOL0     H33973   9.152   5.275   6.415  0.7049 -1.5955 -2.3476
  252MOL0     H33974   8.936   5.318   6.552 -0.0547  0.3309  0.0565
  252MOL0     H33975   8.851   5.262   6.406 -0.1701  2.7650  1.0318
  252MOL0     H33976   9.069   5.087   6.581  0.4530 -0.4361 -2.1401
  252MOL0     H33977   8.989   5.031   6.441 -0.3030 -0.1515  0.9682
  252MOL0     H33978   8.822   5.124   6.676  1.1864  1.9207 -1.6706
  252MOL0     H33979   8.889   4.951   6.658  3.2844 -0.1153  0.6721
  252MOL0     H33980   8.926   4.819   6.502 -0.3988 -1.2509  2.5790
  252MOL0     H33981   8.874   4.598   6.410  1.4387  1.0793  2.1710
  252MOL0     H33982   8.642   4.369   5.993  0.3371 -2.0591 -1.2647
  252MOL0     H33983   8.558   4.178   5.910  0.9087  2.3239 -1.0693
  252MOL0     H33984   8.386   4.053   5.782 -1.8155 -1.1481 -0.7227
  252MOL0     H33985   8.466   3.965   5.926  0.8038 -0.2876 -0.2831
  252MOL0     H33986   8.223   3.885   5.760 -0.4389  0.2632  1.0719
  252MOL0     H33987   8.392   3.830   5.745  0.1870 -3.6365  1.4282
  252MOL0     H33988   8.399   3.737   5.967  1.1843 -0.6000 -2.1251
  252MOL0     H33989   8.226   3.793   5.985 -1.4738 -1.2460 -0.7060
  252MOL0     H33990   8.302   3.566   5.797 -0.9696 -1.0555  0.7374
  252MOL0     H33991   8.158   3.651   5.793  0.2747  2.5562  0.0114
  252MOL0     H33992   8.225   3.533   6.068 -0.9184 -0.9751  1.0183
  252MOL0     H33993   8.197   3.430   5.935 -2.3956  0.1065 -0.5571
  252MOL0     H33994   8.014   3.525   6.111  0.0250 -0.9421 -0.5114
  252MOL0     H33995   8.027   3.669   5.996  1.4686  0.6775 -0.8246
  252MOL0     H33996   7.975   3.460   5.834 -0.8549 -2.6673  0.8253
  252MOL0     H33997   7.846   3.547   5.919 -0.1189  0.3424 -0.2008
  252MOL0     H33998   7.990   3.310   6.039  0.1017  0.2245  1.6409
  252MOL0     H33999   7.842   3.380   6.100 -1.4397  6.5930 -0.9533
  252MOL0     H34000   8.175   4.264   6.089  0.1998 -0.2737  3.3676
  252MOL0     H34001   8.290   4.434   6.225 -0.1702 -0.1916  1.1525
  252MOL0     H34002   8.491   4.747   6.289 -0.6706 -0.1762  3.5560
  252MOL0     H34003   8.538   4.960   6.399 -0.1107 -0.4370 -0.4328
  252MOL0     H34004   8.496   6.082   6.693 -0.1550  0.2022 -0.4981
  252MOL0     H34005   8.581   6.111   6.936 -2.0977 -1.7129  1.3323
  252MOL0     H34006   8.764   6.376   7.220  1.1657  0.2362  0.5104
  252MOL0     H34007   8.881   6.404   7.425  0.1448  1.1680  2.0545
  252MOL0     H34008   8.675   6.355   7.814 -1.7989  1.2884  0.1088
  252MOL0     H34009   8.709   6.531   7.771 -2.8552 -2.3075 -3.7111
  252MOL0     H34010   8.961   6.484   7.827 -0.1340 -1.8721 -2.8200
  252MOL0     H34011   8.903   6.326   7.883 -2.3973 -0.6320 -0.2397
  252MOL0     H34012   8.762   6.449   8.032 -0.0157 -0.6440 -1.2960
  252MOL0     H34013   8.806   6.613   7.976  0.6847  0.3786  0.7151
  252MOL0     H34014   8.968   6.403   8.127 -0.4450  0.5383 -0.8267
  252MOL0     H34015   9.046   6.534   8.047  0.8546 -2.1625 -3.0158
  252MOL0     H34016   8.858   6.732   8.388 -2.7863 -1.4212 -0.0714
  252MOL0     H34017   8.536   6.362   7.657  3.1069  2.7836  0.7267
  252MOL0     H34018   8.314   6.239   7.444  2.7658 -0.4303 -0.6530
  252MOL0     H34019   8.312   6.377   7.540  1.9807 -3.7560  2.2447
  252MOL0     H34020   8.292   6.387   7.360 -0.3522 -0.1433  0.1196
  253MOL0     O34021   5.071   6.916   2.920 -0.7145  0.0892  0.4093
  253MOL0     C34022   5.181   6.862   2.909 -0.2280 -0.3294 -0.0170
  253MOL0     O34023   5.255   6.808   3.013  0.5200 -0.0015  1.0768
  253MOL0     C34024   5.204   6.799   3.138 -0.7217 -0.1373 -0.3075
  253MOL0     C34025   5.161   6.679   3.188  1.0490  0.2977 -0.9492
  253MOL0     C34026   5.114   6.667   3.322  0.8893  1.2147  0.1587
  253MOL0     C34027   5.116   6.788   3.397  0.3310 -0.8361 -0.1326
  253MOL0     O34028   5.056   6.780   3.523  0.0299  0.3815  0.6668
  253MOL0     C34029   4.984   6.888   3.576  0.2388 -0.6013  0.0733
  253MOL0     C34030   4.897   6.811   3.677  0.5874 -0.7235 -0.4237
  253MOL0     C34031   4.796   6.898   3.761 -0.1634 -0.4457  0.7287
  253MOL0     C34032   4.733   6.811   3.868  0.1036 -0.3589 -0.5514
  253MOL0     C34033   4.605   6.872   3.926 -0.1060  0.3190 -0.4419
  253MOL0     C34034   4.477   6.816   3.861 -0.0203 -0.0658  0.0204
  253MOL0     C34035   4.345   6.885   3.919  0.2064  0.8151  0.3732
  253MOL0     C34036   4.215   6.849   3.845  0.7169  0.0702  0.6838
  253MOL0     N34037   4.098   6.891   3.927 -0.1607  0.0632 -0.8015
  253MOL0     C34038   4.041   7.016   3.924 -0.2066  0.4544  0.2546
  253MOL0     C34039   3.955   7.017   4.024  0.3721  1.0735 -0.0058
  253MOL0     C34040   3.851   7.126   4.051  0.3628  0.0110 -0.8928
  253MOL0     C34041   3.917   7.242   4.118 -0.5010 -0.5797  0.3868
  253MOL0     C34042   3.823   7.361   4.127  0.7103  0.0383  0.0631
  253MOL0     C34043   3.891   7.474   4.208  0.3938  0.2617  0.3385
  253MOL0     O34044   3.820   7.603   4.200 -0.1101 -0.5593 -0.3403
  253MOL0     C34045   3.819   7.695   4.304  0.5526 -0.5933 -0.9985
  253MOL0     C34046   3.879   7.675   4.431  0.1497  0.4145 -0.2982
  253MOL0     C34047   3.860   7.777   4.528 -0.1373 -0.0363 -0.2789
  253MOL0     C34048   3.781   7.892   4.500  0.1426 -1.2069  0.0525
  253MOL0     C34049   3.756   7.999   4.604  0.2605  0.0489  0.1875
  253MOL0     O34050   3.669   8.095   4.570  0.2039 -0.4171 -0.3182
  253MOL0     C34051   3.647   8.197   4.661  0.2176 -0.2772  0.0265
  253MOL0     C34052   3.518   8.252   4.654  0.6731 -0.2753 -0.7302
  253MOL0     C34053   3.469   8.349   4.740 -0.1155  0.2215 -0.6179
  253MOL0     C34054   3.553   8.404   4.836 -1.1545  1.5514  0.3798
  253MOL0     O34055   3.518   8.490   4.934  0.2517  0.4835 -0.6809
  253MOL0     C34056   3.389   8.549   4.929  0.0677  0.5648  0.3552
  253MOL0     C34057   3.361   8.600   5.071 -0.4393  1.1654 -0.7517
  253MOL0     C34058   3.212   8.621   5.110 -0.1176 -0.3796  0.5769
  253MOL0     C34059   3.176   8.715   5.224 -0.7238 -0.4021  0.8156
  253MOL0     C34060   3.219   8.870   5.203  0.0646  0.3136  0.1944
  253MOL0     C34061   3.148   8.973   5.287 -0.3704  0.1998 -1.2387
  253MOL0     C34062   3.153   8.954   5.437  0.4571  0.4895 -1.1380
  253MOL0     C34063   3.143   9.091   5.502 -0.0184  0.6685  1.0618
  253MOL0    Cl34064   2.974   9.143   5.527  0.6553  0.1833  0.1875
  253MOL0     C34065   3.686   8.364   4.840 -0.3658  0.4194  0.2939
  253MOL0     C34066   3.736   8.267   4.740 -0.1032 -0.6468 -0.4146
  253MOL0     O34067   3.831   7.995   4.702 -0.1367 -0.1128 -0.9225
  253MOL0     C34068   3.722   7.906   4.375  0.5906 -0.6921  0.1605
  253MOL0     C34069   3.755   7.811   4.278  0.9215 -0.3714  0.1104
  253MOL0     N34070   3.943   6.896   4.077 -0.3014 -0.2688 -1.0545
  253MOL0     N34071   4.041   6.831   4.033  0.0807  0.2543  0.4052
  253MOL0     C34072   5.164   6.913   3.349  0.8869  0.4878 -0.1716
  253MOL0     C34073   5.204   6.916   3.213  0.7155  0.3545  0.4086
  253MOL0     C34074   5.257   6.863   2.780  0.1055 -0.0117 -0.7937
  253MOL0     C34075   5.357   6.764   2.767 -0.8779 -0.1929  0.6391
  253MOL0     C34076   5.439   6.762   2.651  0.6694  0.7311 -0.4689
  253MOL0     C34077   5.395   6.844   2.548 -0.5752 -0.5243  0.3664
  253MOL0     O34078   5.450   6.856   2.428  0.8279  0.3808  0.8952
  253MOL0     C34079   5.565   6.774   2.391 -0.0627  0.2800 -0.1285
  253MOL0     C34080   5.597   6.763   2.245  0.6850  0.5170 -0.4612
  253MOL0     C34081   5.593   6.895   2.159 -0.3598  0.1844  0.5976
  253MOL0     C34082   5.695   7.003   2.190  0.8271  0.8344  0.2902
  253MOL0     C34083   5.823   6.944   2.164  0.2886 -0.9140  0.2318
  253MOL0     C34084   5.937   6.913   2.136 -0.0921 -1.0223  0.8303
  253MOL0     C34085   5.291   6.939   2.549 -0.1073 -0.7245 -0.3815
  253MOL0     C34086   5.220   6.950   2.669  0.4238  1.0199 -0.5504
  253MOL0     C34087   5.116   7.061   2.667 -0.3148 -0.5249 -0.4615
  253MOL0     H34088   5.163   6.584   3.135 -2.0463 -1.6235  1.9912
  253MOL0     H34089   5.076   6.570   3.354  1.0841  1.6762  1.8990
  253MOL0     H34090   5.041   6.954   3.643  1.4658 -1.0545 -0.5034
  253MOL0     H34091   4.917   6.937   3.504  0.6401  0.7064  0.5591
  253MOL0     H34092   4.961   6.749   3.740  3.7055  0.3807 -2.2799
  253MOL0     H34093   4.842   6.734   3.621 -0.7729 -0.5408  0.5926
  253MOL0     H34094   4.716   6.932   3.694  1.7722  0.3108 -1.3202
  253MOL0     H34095   4.846   6.983   3.808  2.4845 -2.3362  1.5549
  253MOL0     H34096   4.715   6.707   3.839 -3.3585  0.8751 -3.5645
  253MOL0     H34097   4.804   6.815   3.952  0.6672  1.6060 -1.0671
  253MOL0     H34098   4.611   6.854   4.033  0.0368 -0.7281 -0.6221
  253MOL0     H34099   4.617   6.981   3.919  0.3905  0.1836 -2.7104
  253MOL0     H34100   4.491   6.812   3.753 -0.2736 -5.0852 -0.0307
  253MOL0     H34101   4.467   6.710   3.887 -1.9630 -1.1852 -4.4073
  253MOL0     H34102   4.351   6.994   3.910  0.5234  0.6643 -1.7552
  253MOL0     H34103   4.337   6.872   4.027  3.1432  1.7897  0.7924
  253MOL0     H34104   4.214   6.885   3.742  3.3994 -1.0252  0.1947
  253MOL0     H34105   4.215   6.741   3.828 -2.9597 -0.3188  2.2050
  253MOL0     H34106   4.059   7.083   3.840 -2.3893  0.3235 -0.3771
  253MOL0     H34107   3.798   7.172   3.967 -0.6796  0.6373  0.0749
  253MOL0     H34108   3.770   7.087   4.114  0.0484  0.1965 -1.1785
  253MOL0     H34109   3.957   7.211   4.215  1.4105  3.3928  1.0685
  253MOL0     H34110   4.002   7.281   4.061  1.3719  2.9518  4.9652
  253MOL0     H34111   3.729   7.332   4.175  1.2574 -4.3974 -1.1006
  253MOL0     H34112   3.801   7.387   4.023  1.0317 -0.9856 -0.2703
  253MOL0     H34113   3.985   7.491   4.155 -0.2710 -1.3665 -1.5077
  253MOL0     H34114   3.894   7.444   4.313 -0.7208 -0.3677  0.2095
  253MOL0     H34115   3.947   7.594   4.456 -2.0674 -1.6832 -0.7355
  253MOL0     H34116   3.906   7.762   4.625 -2.1518 -2.6932  0.3524
  253MOL0     H34117   3.442   8.217   4.585 -2.0501 -0.1140  1.9898
  253MOL0     H34118   3.363   8.371   4.734  0.2391  2.6490  0.6413
  253MOL0     H34119   3.390   8.636   4.863  3.0325 -0.6618 -1.4351
  253MOL0     H34120   3.308   8.478   4.912 -0.2002  0.8119  0.5887
  253MOL0     H34121   3.399   8.522   5.139  0.8240  0.3646 -2.2896
  253MOL0     H34122   3.420   8.689   5.095 -0.1366  0.8170 -0.1854
  253MOL0     H34123   3.163   8.664   5.022  0.8790 -0.4364 -0.0251
  253MOL0     H34124   3.167   8.524   5.132  1.8891 -1.8309 -1.1914
  253MOL0     H34125   3.225   8.677   5.314  1.2394 -1.9655 -0.7991
  253MOL0     H34126   3.068   8.729   5.225 -0.5726  2.4602 -2.5083
  253MOL0     H34127   3.216   8.888   5.096 -3.3914 -1.0910 -0.0808
  253MOL0     H34128   3.323   8.862   5.238 -0.6331 -2.9865  1.9742
  253MOL0     H34129   3.200   9.066   5.261 -1.7478  1.3228 -0.1529
  253MOL0     H34130   3.043   8.985   5.262 -0.7715 -1.4564 -0.4921
  253MOL0     H34131   3.241   8.901   5.473  1.8210  1.2936 -3.0827
  253MOL0     H34132   3.068   8.889   5.456  0.8629 -0.9437 -3.7021
  253MOL0     H34133   3.199   9.076   5.595 -0.9469 -2.3844  1.2309
  253MOL0     H34134   3.192   9.165   5.438  0.3626 -0.9341 -0.5597
  253MOL0     H34135   3.746   8.406   4.920 -1.3044 -1.0135  1.8265
  253MOL0     H34136   3.839   8.232   4.746  0.5921  1.4094  0.3531
  253MOL0     H34137   3.668   7.992   4.337  2.3858  0.7111  0.6185
  253MOL0     H34138   3.718   7.829   4.178  2.1652  0.7417 -0.1806
  253MOL0     H34139   5.167   6.995   3.420 -0.9016 -1.5263  2.4271
  253MOL0     H34140   5.239   7.012   3.177  1.1552 -0.5542 -1.7509
  253MOL0     H34141   5.380   6.697   2.849  1.7725 -1.4854 -1.0029
  253MOL0     H34142   5.519   6.689   2.644  2.1217  2.3717 -1.9538
  253MOL0     H34143   5.531   6.675   2.422 -3.7509  0.8019 -1.9001
  253MOL0     H34144   5.654   6.812   2.441 -0.7297 -0.9837  2.1445
  253MOL0     H34145   5.514   6.706   2.201 -0.3822  1.3363  0.4460
  253MOL0     H34146   5.682   6.699   2.220 -0.2771 -1.4540  0.9925
  253MOL0     H34147   5.492   6.938   2.163 -1.2255 -0.8694 -4.1296
  253MOL0     H34148   5.610   6.857   2.058  0.6906 -1.6786  1.4132
  253MOL0     H34149   5.676   7.095   2.134 -1.6534 -1.0101 -2.1901
  253MOL0     H34150   5.671   7.015   2.296  1.0301  3.1591  0.1229
  253MOL0     H34151   6.042   6.904   2.120  0.0482  1.1464  0.2300
  253MOL0     H34152   5.265   6.991   2.457 -3.4705 -2.2663 -0.4304
  253MOL0     H34153   5.129   7.123   2.578 -0.2977 -0.1514 -0.2033
  253MOL0     H34154   5.014   7.022   2.660 -0.7152  0.2628  0.7072
  253MOL0     H34155   5.123   7.135   2.748  0.3616  1.9488 -2.6377
  254MOL0     O34156   1.002   3.551   8.659 -0.3028 -0.2024  0.3102
  254MOL0     C34157   1.059   3.451   8.612  0.6319  0.2315 -1.0642
  254MOL0     O34158   1.193   3.436   8.625 -0.5992  0.0095  0.4185
  254MOL0     C34159   1.261   3.542   8.673 -0.1589  0.2770 -0.7116
  254MOL0     C34160   1.321   3.553   8.804 -0.1035 -0.0761 -0.2185
  254MOL0     C34161   1.373   3.671   8.855 -0.0594  0.4824  0.0204
  254MOL0     C34162   1.384   3.783   8.768 -0.5157  0.2080 -0.3180
  254MOL0     O34163   1.458   3.899   8.784  0.2466  0.6257 -0.1442
  254MOL0     C34164   1.493   3.925   8.927 -0.2436  0.3083  1.0274
  254MOL0     C34165   1.511   4.060   8.953 -0.1107  0.4070 -1.1415
  254MOL0     C34166   1.383   4.139   8.959 -0.9801  0.4038  0.5839
  254MOL0     C34167   1.405   4.276   9.021 -0.8858 -0.3054 -0.0212
  254MOL0     C34168   1.305   4.369   8.977  0.9070  0.7058 -0.2493
  254MOL0     C34169   1.311   4.499   9.047 -0.6849  0.8691 -0.2744
  254MOL0     C34170   1.198   4.586   8.996 -0.7098 -0.1588  0.3097
  254MOL0     C34171   1.229   4.729   9.072 -0.0673 -0.0283  0.6701
  254MOL0     N34172   1.166   4.826   8.992 -0.2743 -0.6564  0.3346
  254MOL0     C34173   1.032   4.836   8.975 -0.6648  0.7641 -0.3873
  254MOL0     C34174   1.024   4.939   8.890  0.6751  0.4025  0.4782
  254MOL0     C34175   0.890   4.983   8.842 -0.0113 -0.1974  0.6184
  254MOL0     C34176   0.807   5.053   8.949  0.7585 -0.1209  0.1066
  254MOL0     C34177   0.676   5.100   8.890 -0.1289 -0.5349  0.1700
  254MOL0     C34178   0.595   5.181   8.994  0.3889 -0.1574  0.2858
  254MOL0     O34179   0.464   5.225   8.937  0.7539 -0.1632 -0.7183
  254MOL0     C34180   0.469   5.347   8.873 -0.1351 -0.0307  0.2429
  254MOL0     C34181   0.449   5.351   8.734  0.0791 -0.0675  0.4070
  254MOL0     C34182   0.470   5.472   8.664 -0.0106  0.1599 -0.9056
  254MOL0     C34183   0.508   5.590   8.736 -0.5110 -0.2193  0.7384
  254MOL0     C34184   0.531   5.712   8.661 -0.6293 -0.1181  0.0357
  254MOL0     O34185   0.568   5.821   8.733  0.1297 -0.0533  0.2062
  254MOL0     C34186   0.576   5.941   8.658  0.3598  0.9732  0.1115
  254MOL0     C34187   0.475   6.029   8.669 -0.3164  0.7232 -0.2808
  254MOL0     C34188   0.464   6.144   8.593 -0.7379  0.7553  0.3600
  254MOL0     C34189   0.560   6.173   8.495  0.5661  0.1350 -0.2177
  254MOL0     O34190   0.546   6.278   8.410 -0.0376  0.3180  0.5146
  254MOL0     C34191   0.659   6.369   8.376  0.1550 -0.1889 -0.6567
  254MOL0     C34192   0.709   6.457   8.505 -0.0966  0.1641  0.3099
  254MOL0     C34193   0.615   6.561   8.543  0.6343 -0.0931 -0.4889
  254MOL0     C34194   0.656   6.633   8.674  0.3794 -0.3600 -0.5063
  254MOL0     C34195   0.559   6.753   8.679  0.3196  0.5925 -0.8007
  254MOL0     C34196   0.569   6.828   8.804 -0.4025 -0.5790  0.5450
  254MOL0     C34197   0.490   6.960   8.814 -0.6471  0.3033 -0.2861
  254MOL0     C34198   0.489   7.006   8.962 -0.3665 -0.4841 -0.4485
  254MOL0    Cl34199   0.634   7.089   9.016  0.2125  0.3272 -0.3892
  254MOL0     C34200   0.661   6.080   8.480 -1.2211  0.7687  0.7266
  254MOL0     C34201   0.675   5.965   8.556 -0.1033  0.1544 -0.5864
  254MOL0     O34202   0.490   5.714   8.541  0.5213  0.1927  0.3321
  254MOL0     C34203   0.529   5.583   8.873 -0.4342 -0.1925  0.6896
  254MOL0     C34204   0.519   5.457   8.942  0.5757 -0.0324  0.7481
  254MOL0     N34205   1.157   4.987   8.845  0.8953 -0.6407 -1.0599
  254MOL0     N34206   1.237   4.915   8.921  0.2887  0.0358 -0.9872
  254MOL0     C34207   1.338   3.767   8.641 -0.7116 -1.1777  0.2345
  254MOL0     C34208   1.283   3.648   8.591 -0.2510 -0.4048  0.6810
  254MOL0     C34209   0.979   3.346   8.552 -0.0246  0.1978  0.0285
  254MOL0     C34210   0.857   3.314   8.611  0.3855  0.5253  0.6354
  254MOL0     C34211   0.783   3.214   8.548  0.6243  0.1792 -0.6810
  254MOL0     C34212   0.831   3.138   8.445  0.3157  0.6683 -0.1392
  254MOL0     O34213   0.744   3.038   8.400 -0.6388 -1.2013 -0.0088
  254MOL0     C34214   0.790   2.922   8.336 -0.7361 -0.0826  0.3083
  254MOL0     C34215   0.668   2.835   8.303 -0.2412 -0.1949  0.0145
  254MOL0     C34216   0.697   2.699   8.229 -0.0643 -0.2825  0.4687
  254MOL0     C34217   0.755   2.691   8.086  0.4385  1.3068  0.2266
  254MOL0     C34218   0.879   2.766   8.067 -0.3133 -0.0704  0.3402
  254MOL0     C34219   0.980   2.828   8.037  0.2180 -1.2912  0.1323
  254MOL0     C34220   0.949   3.172   8.387 -0.3770  0.9238 -0.2006
  254MOL0     C34221   1.029   3.271   8.446  0.2034  0.0782  0.0026
  254MOL0     C34222   1.170   3.289   8.390  0.1416 -0.4004 -0.1680
  254MOL0     H34223   1.315   3.467   8.871 -3.2495  0.9816  1.0005
  254MOL0     H34224   1.417   3.670   8.955  0.4148  0.6135 -0.1837
  254MOL0     H34225   1.415   3.883   8.991  1.1444 -1.5450  1.5706
  254MOL0     H34226   1.586   3.872   8.949  0.9754  2.4643  1.3130
  254MOL0     H34227   1.583   4.101   8.882 -0.9015  1.5040 -1.3292
  254MOL0     H34228   1.558   4.057   9.052  2.4622  0.3530 -2.3006
  254MOL0     H34229   1.300   4.085   9.006 -0.0468 -0.7603  0.9212
  254MOL0     H34230   1.359   4.137   8.852  1.5405 -0.8777 -0.0194
  254MOL0     H34231   1.402   4.264   9.130 -3.2532 -4.0838 -0.3385
  254MOL0     H34232   1.501   4.310   8.980 -1.1510  0.4177 -0.0601
  254MOL0     H34233   1.300   4.373   8.867  1.1386 -1.7594 -0.4105
  254MOL0     H34234   1.208   4.325   9.003  1.9221 -2.7228 -1.6287
  254MOL0     H34235   1.307   4.485   9.155  0.7042  1.4423 -0.1247
  254MOL0     H34236   1.409   4.546   9.028  2.0351 -3.8368  0.5709
  254MOL0     H34237   1.096   4.552   9.013 -1.2365  1.3653  0.3360
  254MOL0     H34238   1.221   4.601   8.890 -1.2526 -2.6879 -0.2117
  254MOL0     H34239   1.188   4.734   9.173  1.3969 -0.1556  1.2887
  254MOL0     H34240   1.334   4.757   9.075  0.7848 -2.8768  0.4225
  254MOL0     H34241   0.956   4.764   9.002 -1.2802  0.2602 -3.1181
  254MOL0     H34242   0.906   5.042   8.751  0.5863 -2.7189 -1.0294
  254MOL0     H34243   0.844   4.887   8.816  0.7880 -0.7970  1.3731
  254MOL0     H34244   0.801   5.003   9.046 -1.7628  2.8330  1.6481
  254MOL0     H34245   0.854   5.148   8.977  1.6451 -0.6223  0.3613
  254MOL0     H34246   0.623   5.015   8.847  0.9922 -0.4433 -1.4502
  254MOL0     H34247   0.691   5.164   8.802 -2.2032  0.5324  0.5229
  254MOL0     H34248   0.648   5.264   9.041 -0.3280 -1.8368  4.5983
  254MOL0     H34249   0.562   5.120   9.079 -2.4018 -0.3597 -0.8172
  254MOL0     H34250   0.401   5.263   8.693  0.8270 -1.3509  2.1639
  254MOL0     H34251   0.448   5.474   8.558  0.5165  1.4788 -1.0182
  254MOL0     H34252   0.413   6.001   8.753  1.4960 -5.2857 -0.5476
  254MOL0     H34253   0.385   6.214   8.617 -0.5400  1.1905 -0.2270
  254MOL0     H34254   0.741   6.303   8.349 -0.8618 -0.4851 -3.4138
  254MOL0     H34255   0.645   6.439   8.293 -0.7591  1.7118  0.9957
  254MOL0     H34256   0.738   6.394   8.590  0.0097  3.9765  3.4003
  254MOL0     H34257   0.797   6.517   8.479 -1.0791  1.7136  0.4121
  254MOL0     H34258   0.602   6.645   8.474 -0.8781  1.4338  1.4956
  254MOL0     H34259   0.517   6.518   8.565  0.4616 -0.6835 -2.2657
  254MOL0     H34260   0.760   6.668   8.673  0.9629 -1.8417  1.6038
  254MOL0     H34261   0.660   6.570   8.764  2.5797 -1.0213 -1.0109
  254MOL0     H34262   0.456   6.717   8.675  0.8330 -1.0240 -0.3922
  254MOL0     H34263   0.584   6.817   8.593 -0.1501  0.0560 -1.3502
  254MOL0     H34264   0.542   6.771   8.894 -0.0955 -0.5838  0.6348
  254MOL0     H34265   0.675   6.854   8.811  0.5264 -3.3693 -1.3903
  254MOL0     H34266   0.387   6.934   8.786  0.2221 -2.3552 -1.3141
  254MOL0     H34267   0.534   7.040   8.755  0.1573 -0.5266 -0.8445
  254MOL0     H34268   0.406   7.076   8.976  0.8840  0.6101  2.1369
  254MOL0     H34269   0.473   6.920   9.028  0.3707 -0.6289 -0.4510
  254MOL0     H34270   0.740   6.095   8.407  0.0111  0.3306  1.9111
  254MOL0     H34271   0.752   5.890   8.539 -0.9725 -0.7533 -0.6144
  254MOL0     H34272   0.561   5.671   8.928  1.5623 -0.5402  0.1719
  254MOL0     H34273   0.544   5.470   9.047 -0.0744  0.4008  0.8594
  254MOL0     H34274   1.356   3.845   8.567  2.2311  1.6991  3.5663
  254MOL0     H34275   1.246   3.644   8.489  0.7150 -0.4179  0.3187
  254MOL0     H34276   0.822   3.368   8.699 -1.9813 -1.4233  0.9771
  254MOL0     H34277   0.683   3.194   8.585  1.2020 -3.3826 -0.7181
  254MOL0     H34278   0.875   2.872   8.383  0.7116 -0.4317 -2.5148
  254MOL0     H34279   0.835   2.957   8.243  0.3288  4.2479  2.1962
  254MOL0     H34280   0.586   2.887   8.252  0.9007  0.3062 -1.3912
  254MOL0     H34281   0.632   2.815   8.404 -2.4502  0.6714 -0.5447
  254MOL0     H34282   0.604   2.642   8.220 -0.3870  0.2042  0.6803
  254MOL0     H34283   0.761   2.649   8.302  3.4829  4.5870  1.1143
  254MOL0     H34284   0.776   2.586   8.065  0.3721  0.7225  2.7931
  254MOL0     H34285   0.690   2.736   8.011  0.8947  1.7987  0.1202
  254MOL0     H34286   1.069   2.887   8.021 -1.5696  2.2444  2.1452
  254MOL0     H34287   0.990   3.112   8.308  0.1391 -1.0383  1.4720
  254MOL0     H34288   1.237   3.266   8.473 -1.9948 -3.5661  0.8213
  254MOL0     H34289   1.180   3.224   8.303 -0.6734  1.6522 -1.8987
  254MOL0     H34290   1.167   3.393   8.355 -0.2120  0.1819  1.4919
  255MOL0     O34291   5.539   3.249   1.257 -0.6043 -1.3459  0.0492
  255MOL0     C34292   5.580   3.152   1.318 -0.2012  0.0541 -0.0614
  255MOL0     O34293   5.708   3.138   1.364 -0.3879 -0.8969 -0.3718
  255MOL0     C34294   5.804   3.215   1.297 -0.1904 -0.6608 -0.5198
  255MOL0     C34295   5.924   3.150   1.255  0.8726  0.5660  0.3569
  255MOL0     C34296   6.034   3.231   1.217 -0.1239 -0.0832 -1.5752
  255MOL0     C34297   6.033   3.371   1.207  0.0081 -0.2543 -0.8566
  255MOL0     O34298   6.144   3.455   1.183 -0.2726 -0.0072  0.4516
  255MOL0     C34299   6.275   3.402   1.228 -0.8537 -0.4161  0.6291
  255MOL0     C34300   6.340   3.509   1.309  0.5798  0.0128 -0.1250
  255MOL0     C34301   6.262   3.536   1.435 -0.1324 -0.1718  0.6444
  255MOL0     C34302   6.346   3.615   1.533 -0.0542 -0.2180  0.3692
  255MOL0     C34303   6.272   3.593   1.670 -0.3500 -0.1544  0.2024
  255MOL0     C34304   6.356   3.653   1.780 -0.4785 -0.0640 -0.9316
  255MOL0     C34305   6.295   3.658   1.916  0.6982 -0.2629 -0.0011
  255MOL0     C34306   6.363   3.750   2.006  0.5708  0.0864 -0.5978
  255MOL0     N34307   6.293   3.753   2.136 -0.5120  0.2277 -0.5471
  255MOL0     C34308   6.360   3.780   2.259 -0.4280  0.0076  0.0755
  255MOL0     C34309   6.258   3.795   2.346 -1.2047 -0.0870  0.0239
  255MOL0     C34310   6.264   3.842   2.491  0.3759  0.7150  0.0473
  255MOL0     C34311   6.203   3.982   2.512 -0.3125 -0.4102 -1.1106
  255MOL0     C34312   6.317   4.086   2.500 -0.2549  0.0366 -0.2948
  255MOL0     C34313   6.245   4.226   2.498 -0.6073  0.3563 -0.4089
  255MOL0     O34314   6.170   4.240   2.375  0.6197  0.0926 -0.2400
  255MOL0     C34315   6.044   4.294   2.384 -1.3574 -0.0682 -0.5555
  255MOL0     C34316   5.954   4.218   2.455 -0.6944 -0.7333  0.0993
  255MOL0     C34317   5.821   4.268   2.480  0.0667 -0.1653  0.7853
  255MOL0     C34318   5.784   4.393   2.413 -0.0811  0.5960  0.7684
  255MOL0     C34319   5.653   4.441   2.433  1.0255 -0.6194 -0.4127
  255MOL0     O34320   5.571   4.394   2.530 -0.5164 -0.8068  0.7729
  255MOL0     C34321   5.438   4.413   2.505 -0.0331  0.2885  0.4676
  255MOL0     C34322   5.347   4.325   2.438 -0.4028 -0.1796  0.5553
  255MOL0     C34323   5.213   4.363   2.420 -0.0801  0.6978  0.3994
  255MOL0     C34324   5.177   4.487   2.457 -0.0629  1.1550 -0.0660
  255MOL0     O34325   5.052   4.537   2.435 -0.4867 -0.5991 -0.4743
  255MOL0     C34326   4.950   4.441   2.407 -0.1909 -0.3910 -1.0463
  255MOL0     C34327   4.802   4.489   2.397 -0.5223 -0.7022 -0.2215
  255MOL0     C34328   4.754   4.539   2.526  0.3650 -0.5168 -0.6811
  255MOL0     C34329   4.622   4.617   2.508 -0.0501  0.3853  0.3834
  255MOL0     C34330   4.537   4.624   2.638  0.6632 -0.7678  1.0216
  255MOL0     C34331   4.454   4.489   2.650 -0.4168 -1.4460 -0.6778
  255MOL0     C34332   4.355   4.486   2.774 -0.1914 -0.7916 -0.3041
  255MOL0     C34333   4.295   4.619   2.813  0.7067 -0.2704 -0.5725
  255MOL0    Cl34334   4.221   4.713   2.678 -0.4071  0.2875 -0.2219
  255MOL0     C34335   5.261   4.583   2.519 -0.1118 -0.0072  0.1225
  255MOL0     C34336   5.393   4.538   2.546 -0.2107  0.1405 -0.1635
  255MOL0     O34337   5.628   4.543   2.362  0.2719  0.2434  0.5628
  255MOL0     C34338   5.880   4.461   2.335 -0.5044  0.2504 -0.2768
  255MOL0     C34339   6.011   4.414   2.329  0.0193 -0.5784  1.0992
  255MOL0     N34340   6.137   3.792   2.284 -0.2152 -0.6663 -0.6786
  255MOL0     N34341   6.161   3.760   2.156 -0.6663  0.0647 -0.5212
  255MOL0     C34342   5.906   3.426   1.242 -0.3786  0.3288  0.6157
  255MOL0     C34343   5.800   3.353   1.275  0.2268 -0.4255  0.4203
  255MOL0     C34344   5.474   3.051   1.360  0.4370 -0.7300  0.2286
  255MOL0     C34345   5.349   3.106   1.389 -0.8654 -0.1589 -0.3782
  255MOL0     C34346   5.246   3.022   1.432  0.8992  0.6347  0.1161
  255MOL0     C34347   5.263   2.886   1.454 -0.0538  0.5269  0.1431
  255MOL0     O34348   5.166   2.807   1.499  1.0264  0.9428 -0.0406
  255MOL0     C34349   5.187   2.676   1.557 -0.6245  0.4762 -0.0392
  255MOL0     C34350   5.214   2.685   1.708 -0.9375 -0.1360 -0.7017
  255MOL0     C34351   5.089   2.713   1.798 -0.5104 -0.2659 -0.3962
  255MOL0     C34352   5.119   2.781   1.933 -0.5923 -1.5563 -0.0292
  255MOL0     C34353   5.223   2.719   2.018  0.5852  0.4421  0.3132
  255MOL0     C34354   5.306   2.672   2.095  1.1936  0.6512  0.1591
  255MOL0     C34355   5.385   2.835   1.416  0.6416  0.4504 -0.4534
  255MOL0     C34356   5.495   2.914   1.370  0.3778  0.2374  0.1951
  255MOL0     C34357   5.625   2.841   1.370  0.0361  0.4810 -0.4273
  255MOL0     H34358   5.928   3.042   1.249  0.0821  0.5598 -0.2236
  255MOL0     H34359   6.123   3.173   1.195 -1.5398 -2.3602 -1.6623
  255MOL0     H34360   6.273   3.308   1.284 -4.2803 -1.8033 -1.4768
  255MOL0     H34361   6.324   3.383   1.132 -2.2085 -0.9714  0.0137
  255MOL0     H34362   6.354   3.608   1.263  0.1662  0.9057  1.5845
  255MOL0     H34363   6.444   3.485   1.332  0.8295  1.7614  0.7901
  255MOL0     H34364   6.238   3.439   1.481  1.4310  0.1761  2.2750
  255MOL0     H34365   6.165   3.586   1.423 -1.2241 -2.3777 -0.3726
  255MOL0     H34366   6.445   3.569   1.527  0.0962  0.2273 -0.9213
  255MOL0     H34367   6.358   3.720   1.505  0.9563 -0.7862 -1.5411
  255MOL0     H34368   6.174   3.641   1.676 -1.4775 -2.4753  2.8443
  255MOL0     H34369   6.261   3.485   1.683 -2.7012 -0.4230 -2.9051
  255MOL0     H34370   6.446   3.591   1.787  0.6976  0.8339 -5.3100
  255MOL0     H34371   6.384   3.755   1.752 -1.1144  0.4937  0.3683
  255MOL0     H34372   6.273   3.566   1.971 -1.6699  0.3662  0.2171
  255MOL0     H34373   6.196   3.704   1.903  1.1312  0.1959 -2.0591
  255MOL0     H34374   6.467   3.722   2.025 -0.5184 -3.4474  0.8968
  255MOL0     H34375   6.371   3.849   1.959  0.4464 -0.6499 -2.2249
  255MOL0     H34376   6.464   3.777   2.290 -0.4162  2.2884  0.4067
  255MOL0     H34377   6.207   3.768   2.547  2.3609  0.4904  1.9155
  255MOL0     H34378   6.362   3.833   2.539  0.6519  0.9705 -0.4583
  255MOL0     H34379   6.131   3.993   2.430 -1.8221  0.0485  0.2326
  255MOL0     H34380   6.167   3.985   2.615  0.7515  0.9603 -0.7512
  255MOL0     H34381   6.359   4.063   2.402 -1.1352  0.8627 -0.8831
  255MOL0     H34382   6.389   4.083   2.582 -1.1293 -0.0892  0.4896
  255MOL0     H34383   6.324   4.300   2.513  1.1665 -0.8520 -2.9528
  255MOL0     H34384   6.190   4.243   2.590 -1.2131  4.8510 -1.3906
  255MOL0     H34385   5.975   4.121   2.499 -0.7898 -1.1787 -0.8063
  255MOL0     H34386   5.744   4.212   2.532 -2.4400  2.1138 -0.2563
  255MOL0     H34387   5.384   4.233   2.394 -1.7071 -0.5024  0.0789
  255MOL0     H34388   5.149   4.290   2.371 -0.7867  1.5733 -0.0165
  255MOL0     H34389   4.966   4.400   2.306 -0.1334 -3.6055  0.1649
  255MOL0     H34390   4.953   4.350   2.467 -0.4463 -2.2369 -3.6352
  255MOL0     H34391   4.800   4.577   2.332 -1.7351 -1.2850 -0.9978
  255MOL0     H34392   4.742   4.406   2.360 -1.4393 -0.3012  0.3396
  255MOL0     H34393   4.735   4.453   2.591 -3.1689  0.5957  0.0318
  255MOL0     H34394   4.828   4.609   2.564  1.6884  0.3522 -4.4447
  255MOL0     H34395   4.567   4.573   2.424 -2.1645  1.4321  1.1518
  255MOL0     H34396   4.642   4.721   2.480  0.2395  0.4503  0.8274
  255MOL0     H34397   4.467   4.709   2.643  1.5699  0.1602 -0.8431
  255MOL0     H34398   4.607   4.649   2.718 -0.5409  1.5829  1.4465
  255MOL0     H34399   4.385   4.478   2.566 -2.5030  5.3132 -0.3902
  255MOL0     H34400   4.514   4.397   2.652 -0.2124 -1.3273 -1.0811
  255MOL0     H34401   4.416   4.439   2.851  2.1861  1.6261 -0.5722
  255MOL0     H34402   4.272   4.423   2.741 -0.4417  0.9128 -3.4048
  255MOL0     H34403   4.219   4.601   2.891  2.6952  0.4896  1.6510
  255MOL0     H34404   4.372   4.680   2.861 -0.6425 -0.0790  1.4981
  255MOL0     H34405   5.220   4.679   2.547  0.2452  0.1205  0.2138
  255MOL0     H34406   5.461   4.611   2.590 -0.4511  0.9636 -1.1241
  255MOL0     H34407   5.863   4.563   2.303  0.8625  2.0099  3.8885
  255MOL0     H34408   6.078   4.468   2.262  2.2940 -3.4215  0.8330
  255MOL0     H34409   5.894   3.533   1.227 -1.6098  0.1723  0.4006
  255MOL0     H34410   5.718   3.409   1.320 -1.1000 -2.4855  0.7111
  255MOL0     H34411   5.331   3.212   1.372  0.6462 -0.0654 -1.4912
  255MOL0     H34412   5.149   3.065   1.454 -0.0471  1.1843 -4.2154
  255MOL0     H34413   5.270   2.623   1.511 -1.4744  1.6290 -3.0975
  255MOL0     H34414   5.093   2.620   1.549 -0.4937  0.4154 -1.2660
  255MOL0     H34415   5.286   2.761   1.742 -1.5509  1.2359 -2.2923
  255MOL0     H34416   5.266   2.594   1.737 -2.1835 -0.6541 -0.0309
  255MOL0     H34417   5.051   2.613   1.820 -2.1367 -0.2771 -2.8553
  255MOL0     H34418   5.006   2.752   1.738 -1.0389 -0.0053  0.4726
  255MOL0     H34419   5.166   2.875   1.904 -2.0394 -0.8281 -0.1023
  255MOL0     H34420   5.025   2.800   1.986 -0.8951 -1.1664 -0.7026
  255MOL0     H34421   5.384   2.630   2.156 -0.4637 -2.8430  0.1224
  255MOL0     H34422   5.410   2.730   1.420 -1.2749 -0.0248  0.5635
  255MOL0     H34423   5.674   2.883   1.281  1.0689  1.3163  0.5047
  255MOL0     H34424   5.692   2.850   1.456 -0.2026 -0.7102 -0.0901
  255MOL0     H34425   5.610   2.734   1.351  1.5012  0.4071 -1.3468
  256MOL0     O34426  10.434   5.986   5.982  0.2425  0.1426  0.2816
  256MOL0     C34427  10.475   6.098   5.957  0.1286 -0.9062  0.7620
  256MOL0     O34428  10.608   6.131   5.971 -0.6811 -0.5584 -0.0939
  256MOL0     C34429  10.687   6.038   6.039  0.2685 -1.1374  0.7569
  256MOL0     C34430  10.805   5.996   5.972 -0.0567 -0.2634  0.4533
  256MOL0     C34431  10.903   5.900   6.036  0.3194 -0.6600  0.2146
  256MOL0     C34432  10.893   5.868   6.168  0.7592  0.2543 -0.1569
  256MOL0     O34433  10.978   5.774   6.218  0.6497  1.1404  0.1023
  256MOL0     C34434  11.120   5.809   6.202 -0.1841 -1.7711  0.3298
  256MOL0     C34435  11.200   5.707   6.118 -0.2352  0.0289 -1.0577
  256MOL0     C34436  11.232   5.563   6.177 -0.1132  0.6172 -0.2462
  256MOL0     C34437  11.350   5.567   6.272  0.6385 -0.9190  0.2836
  256MOL0     C34438  11.415   5.435   6.311  0.8823  0.2702 -0.7891
  256MOL0     C34439  11.531   5.471   6.395  0.4187  0.1203 -0.7689
  256MOL0     C34440  11.595   5.345   6.451  0.0914  0.4756  0.6570
  256MOL0     C34441  11.697   5.377   6.564 -0.1246 -0.4094 -0.0628
  256MOL0     N34442  11.794   5.478   6.509  0.0572 -0.1798  0.2545
  256MOL0     C34443  11.923   5.456   6.453  0.9698 -0.2083  0.2591
  256MOL0     C34444  11.986   5.578   6.451  0.2679 -0.7168  0.6109
  256MOL0     C34445  12.133   5.605   6.415 -0.2224 -0.9872 -0.3873
  256MOL0     C34446  12.202   5.716   6.508  0.2529 -0.2847 -0.1210
  256MOL0     C34447  12.351   5.724   6.516  0.0046  0.2175 -0.0863
  256MOL0     C34448  12.419   5.604   6.575 -0.4597 -0.3738 -0.0749
  256MOL0     O34449  12.451   5.505   6.478 -0.3138 -0.1476 -0.0816
  256MOL0     C34450  12.531   5.398   6.516  0.9428 -0.0153 -0.0490
  256MOL0     C34451  12.607   5.389   6.626  0.1199 -0.0751 -0.3871
  256MOL0     C34452  12.684   5.269   6.648 -0.3930 -0.0669 -0.6181
  256MOL0     C34453  12.689   5.166   6.559 -0.8154  0.0772  0.4629
  256MOL0     C34454  12.777   5.046   6.573  0.1129  1.0767 -1.0005
  256MOL0     O34455  12.845   5.053   6.685  0.4852  0.2042 -0.2367
  256MOL0     C34456  12.931   4.954   6.718  0.6794  0.4126  0.5515
  256MOL0     C34457  13.072   4.966   6.701  0.0550  0.3293  0.8030
  256MOL0     C34458  13.163   4.863   6.728  0.7740  0.5888  0.0807
  256MOL0     C34459  13.111   4.741   6.771 -0.1380  0.3727 -0.0655
  256MOL0     O34460  13.184   4.634   6.808 -0.0760  0.9826  0.0286
  256MOL0     C34461  13.302   4.645   6.897  0.7264 -0.1301  0.7417
  256MOL0     C34462  13.434   4.657   6.826  0.0576  0.8817 -0.3831
  256MOL0     C34463  13.454   4.534   6.733 -0.0690 -0.6915  0.3293
  256MOL0     C34464  13.582   4.565   6.652  0.5187 -0.1952  0.1815
  256MOL0     C34465  13.590   4.464   6.540 -1.2405  0.7739  0.4261
  256MOL0     C34466  13.476   4.470   6.431 -0.4853  0.3418  0.1946
  256MOL0     C34467  13.512   4.404   6.298 -0.0476  0.1219  0.0250
  256MOL0     C34468  13.506   4.252   6.286  0.1853 -0.1125  0.4000
  256MOL0    Cl34469  13.661   4.167   6.332  0.4753 -0.1250  0.3729
  256MOL0     C34470  12.982   4.723   6.802  0.9207 -0.8103  0.5214
  256MOL0     C34471  12.887   4.829   6.780  0.4285 -0.7112 -0.0961
  256MOL0     O34472  12.778   4.952   6.495  0.1248 -0.1071 -0.8017
  256MOL0     C34473  12.601   5.163   6.452  0.5686 -0.7334 -0.2839
  256MOL0     C34474  12.533   5.284   6.430  0.5535 -1.2669 -1.3800
  256MOL0     N34475  11.887   5.677   6.484 -0.7293 -0.6009  0.8391
  256MOL0     N34476  11.780   5.616   6.516  0.8180  0.2349 -0.0022
  256MOL0     C34477  10.781   5.920   6.230  0.1125 -0.9560  0.6121
  256MOL0     C34478  10.673   5.998   6.176  0.1299 -0.3649 -0.1742
  256MOL0     C34479  10.378   6.179   5.884  0.3134 -0.3625 -0.1648
  256MOL0     C34480  10.233   6.152   5.885 -0.4123 -0.0681  0.2140
  256MOL0     C34481  10.142   6.232   5.812  0.0785  0.4494  1.7374
  256MOL0     C34482  10.190   6.336   5.735 -0.5487  0.1188  0.4292
  256MOL0     O34483  10.093   6.421   5.685 -0.0129 -0.4061  0.4431
  256MOL0     C34484  10.131   6.536   5.609  0.4264 -0.6253 -0.2191
  256MOL0     C34485  10.010   6.607   5.539 -0.0720 -0.0913 -0.3356
  256MOL0     C34486   9.912   6.665   5.647  0.1065  0.0513  0.1626
  256MOL0     C34487   9.805   6.748   5.585  0.7016 -0.2444 -0.5006
  256MOL0     C34488   9.857   6.877   5.553  0.4234 -1.4501  0.3806
  256MOL0     C34489   9.901   6.990   5.525  0.2853 -0.3125  0.2629
  256MOL0     C34490  10.329   6.357   5.729  0.0755  0.1108 -0.4515
  256MOL0     C34491  10.421   6.290   5.813 -0.1849  0.0429  0.2270
  256MOL0     C34492  10.567   6.331   5.791  0.8225 -0.2160  0.0430
  256MOL0     H34493  10.818   6.028   5.870  1.5419  0.6466  0.9050
  256MOL0     H34494  10.974   5.866   5.961 -2.6747  0.6159 -3.5566
  256MOL0     H34495  11.124   5.909   6.158 -1.8496 -1.0166  1.8029
  256MOL0     H34496  11.149   5.808   6.307 -4.1140 -4.3759  1.5938
  256MOL0     H34497  11.297   5.755   6.102 -0.7676  1.3280 -0.5129
  256MOL0     H34498  11.157   5.691   6.018  1.7861  0.5775 -2.0601
  256MOL0     H34499  11.261   5.495   6.097 -0.3043  2.2436 -1.7467
  256MOL0     H34500  11.140   5.518   6.215 -0.3430 -2.0045 -3.5150
  256MOL0     H34501  11.431   5.621   6.222 -0.0308 -1.2021 -1.1414
  256MOL0     H34502  11.316   5.613   6.365  0.9764  1.5456 -0.7334
  256MOL0     H34503  11.327   5.389   6.357 -2.4788  3.4393 -3.4301
  256MOL0     H34504  11.441   5.380   6.220 -1.1983 -0.7526 -0.8254
  256MOL0     H34505  11.606   5.518   6.331  2.1817 -2.3750 -0.6849
  256MOL0     H34506  11.504   5.538   6.477  2.0224  3.4841 -2.8045
  256MOL0     H34507  11.646   5.294   6.368 -1.4958  2.3129 -1.5976
  256MOL0     H34508  11.523   5.273   6.491  2.4190 -1.6547  1.2582
  256MOL0     H34509  11.635   5.413   6.647 -1.1315  0.9702 -1.3451
  256MOL0     H34510  11.749   5.288   6.599 -2.7427 -1.9866  0.0730
  256MOL0     H34511  11.967   5.359   6.431 -0.1853 -0.8350  0.6166
  256MOL0     H34512  12.200   5.521   6.435  0.9834  0.6399  3.0893
  256MOL0     H34513  12.147   5.631   6.309  4.5814  0.3429  0.3294
  256MOL0     H34514  12.170   5.820   6.496  3.3009  0.8624  0.7430
  256MOL0     H34515  12.160   5.681   6.603 -1.8566  1.4588 -0.3481
  256MOL0     H34516  12.373   5.810   6.580  2.5521 -0.1015 -0.4380
  256MOL0     H34517  12.378   5.752   6.414 -1.5148 -0.8122 -0.8149
  256MOL0     H34518  12.376   5.556   6.663  0.3594  1.9411  1.7121
  256MOL0     H34519  12.518   5.643   6.599 -0.0336 -0.2671 -1.9270
  256MOL0     H34520  12.599   5.458   6.710 -0.2892 -3.7818  2.8676
  256MOL0     H34521  12.742   5.273   6.739 -0.3614  1.1684 -0.6708
  256MOL0     H34522  13.117   5.052   6.651  1.2122 -1.3704 -1.2360
  256MOL0     H34523  13.271   4.876   6.720  0.9745  0.1655  1.8482
  256MOL0     H34524  13.292   4.736   6.956 -0.2611 -0.5486  1.2374
  256MOL0     H34525  13.285   4.557   6.960 -1.1146  1.7024  2.9914
  256MOL0     H34526  13.440   4.749   6.768  0.7718  0.4898 -0.9587
  256MOL0     H34527  13.522   4.646   6.890  0.1252  1.6481 -0.3359
  256MOL0     H34528  13.480   4.450   6.798  0.8763 -0.9241 -0.3335
  256MOL0     H34529  13.364   4.512   6.675 -1.3332 -1.0350  2.3156
  256MOL0     H34530  13.667   4.553   6.719 -0.0814 -2.5383  0.6196
  256MOL0     H34531  13.570   4.664   6.607  0.5656 -0.3167 -0.1007
  256MOL0     H34532  13.594   4.360   6.574 -0.8600 -1.0611 -4.4370
  256MOL0     H34533  13.687   4.486   6.494 -0.3192 -0.5539  1.6421
  256MOL0     H34534  13.386   4.427   6.476  1.8652 -2.0419  3.0549
  256MOL0     H34535  13.464   4.576   6.408 -0.5170  0.0394 -1.2293
  256MOL0     H34536  13.612   4.435   6.265 -0.5441 -0.4502 -2.1579
  256MOL0     H34537  13.451   4.440   6.215  0.3394  0.9856  0.0996
  256MOL0     H34538  13.425   4.223   6.353  0.4624 -0.6572  0.5039
  256MOL0     H34539  13.483   4.235   6.181 -0.3292  1.7754  0.1756
  256MOL0     H34540  12.960   4.620   6.827  2.7973 -1.6883 -1.1140
  256MOL0     H34541  12.784   4.814   6.809  0.4178 -0.8518 -0.2069
  256MOL0     H34542  12.619   5.077   6.388  2.9454 -0.0249 -0.6752
  256MOL0     H34543  12.467   5.272   6.344 -2.3041 -1.4704  0.6913
  256MOL0     H34544  10.761   5.887   6.332  1.4458 -0.3066  1.1070
  256MOL0     H34545  10.600   6.041   6.243 -0.2656 -0.1485 -0.7403
  256MOL0     H34546  10.198   6.069   5.946  1.1686 -1.5075 -0.7469
  256MOL0     H34547  10.040   6.198   5.802  0.0447  0.0291  3.2159
  256MOL0     H34548  10.209   6.525   5.534 -0.9498  2.0851 -2.2563
  256MOL0     H34549  10.183   6.611   5.671  0.3614 -2.0730  1.6715
  256MOL0     H34550   9.964   6.544   5.462  0.4830  0.2833 -0.9866
  256MOL0     H34551  10.051   6.693   5.485 -0.5197  1.7167  2.0293
  256MOL0     H34552   9.968   6.727   5.718 -2.0067 -0.2734  2.2674
  256MOL0     H34553   9.866   6.587   5.708  0.7589  0.7149  1.5519
  256MOL0     H34554   9.765   6.699   5.496  3.8201  0.1986 -2.3119
  256MOL0     H34555   9.722   6.765   5.653  0.4728 -0.3584 -0.7526
  256MOL0     H34556   9.926   7.089   5.492 -1.3170  0.6082  1.6613
  256MOL0     H34557  10.355   6.450   5.679  2.4673  0.4716  1.3035
  256MOL0     H34558  10.637   6.250   5.769  1.2814 -1.5261  5.0189
  256MOL0     H34559  10.558   6.399   5.706  0.7184 -1.1314 -0.6931
  256MOL0     H34560  10.603   6.387   5.879 -0.3625  0.4222  0.1353
  257MOL0     O34561   6.775   9.213   5.790  0.5372 -0.5624  0.3766
  257MOL0     C34562   6.651   9.188   5.803 -0.2406  0.2461 -0.8092
  257MOL0     O34563   6.595   9.135   5.923  0.4281 -0.0310 -0.2548
  257MOL0     C34564   6.685   9.109   6.028 -0.6802  0.1916  0.8108
  257MOL0     C34565   6.646   8.997   6.093  0.0674 -0.3338 -0.3502
  257MOL0     C34566   6.721   8.957   6.207 -0.3424 -0.1951  1.2028
  257MOL0     C34567   6.818   9.037   6.262 -0.2638 -0.5762  0.1721
  257MOL0     O34568   6.902   8.981   6.363  0.3816 -0.2823 -0.4519
  257MOL0     C34569   6.841   9.028   6.486 -0.2438 -0.2854  0.3820
  257MOL0     C34570   6.918   8.971   6.610  0.3930 -0.4852  0.7743
  257MOL0     C34571   7.070   9.014   6.626  0.5512  0.6982  0.0319
  257MOL0     C34572   7.070   9.156   6.690 -0.3269 -0.1223 -0.1637
  257MOL0     C34573   7.208   9.217   6.661 -0.4547 -0.8085 -0.1727
  257MOL0     C34574   7.217   9.343   6.742  0.4297  0.3182 -0.3270
  257MOL0     C34575   7.349   9.420   6.717 -0.9985 -0.7910  0.0814
  257MOL0     C34576   7.356   9.550   6.807  0.3833  0.6821  1.3337
  257MOL0     N34577   7.247   9.643   6.793 -0.1592 -0.0405 -1.3750
  257MOL0     C34578   7.144   9.651   6.885  0.0393 -0.5553  0.9095
  257MOL0     C34579   7.088   9.775   6.849 -0.9025 -0.2957 -0.6030
  257MOL0     C34580   6.980   9.840   6.945 -0.2067 -0.0802  0.9498
  257MOL0     C34581   7.032   9.843   7.087 -0.2905 -1.0742  0.5368
  257MOL0     C34582   6.963   9.939   7.186 -0.3111 -0.2912  0.0684
  257MOL0     C34583   7.043   9.967   7.322 -0.3050 -0.3211 -1.1493
  257MOL0     O34584   6.998  10.080   7.402 -0.0256 -0.0200 -0.0371
  257MOL0     C34585   6.877  10.092   7.465  1.1156  0.7059  0.1628
  257MOL0     C34586   6.861  10.209   7.539  0.7299  0.5092 -0.3222
  257MOL0     C34587   6.748  10.226   7.618 -0.1863 -0.2211  0.6836
  257MOL0     C34588   6.657  10.121   7.632 -2.4215 -0.3796  1.0852
  257MOL0     C34589   6.544  10.137   7.724  0.3734 -0.1672  1.0771
  257MOL0     O34590   6.447  10.042   7.701 -1.0264 -0.5239 -0.0012
  257MOL0     C34591   6.349  10.042   7.800  0.7359  0.6886 -0.5324
  257MOL0     C34592   6.327   9.929   7.876  1.1716 -0.0676 -1.1523
  257MOL0     C34593   6.213   9.932   7.966 -0.2906  0.3050  0.4262
  257MOL0     C34594   6.148  10.046   8.001 -0.0100 -0.8873  0.9161
  257MOL0     O34595   6.039  10.065   8.076 -0.1885 -0.6293 -0.1809
  257MOL0     C34596   6.003   9.957   8.167 -0.5513  0.2786  0.6743
  257MOL0     C34597   5.886  10.014   8.254  0.0049 -0.3580  0.7783
  257MOL0     C34598   5.753  10.043   8.168  0.3254 -0.2794 -0.4755
  257MOL0     C34599   5.636  10.090   8.264  0.0136 -0.3788  0.0831
  257MOL0     C34600   5.494  10.082   8.217  0.0427  0.2168  0.4182
  257MOL0     C34601   5.407  10.144   8.324 -1.0993  0.7441  0.6651
  257MOL0     C34602   5.260  10.117   8.303 -0.3887  0.6659 -0.1417
  257MOL0     C34603   5.205  10.195   8.181 -0.5337 -0.1464  0.2239
  257MOL0    Cl34604   5.031  10.201   8.189  0.3656 -0.2364 -0.0169
  257MOL0     C34605   6.180  10.158   7.924 -0.0114 -0.6908  1.3359
  257MOL0     C34606   6.275  10.154   7.819 -0.0648 -0.5123 -1.5767
  257MOL0     O34607   6.536  10.236   7.797 -0.7203  0.0683 -0.0085
  257MOL0     C34608   6.683   9.993   7.569 -0.6374  0.5709  0.0883
  257MOL0     C34609   6.781   9.991   7.472  0.0760  0.0198  0.4280
  257MOL0     N34610   7.160   9.841   6.746  0.3912 -0.1611  1.0126
  257MOL0     N34611   7.251   9.752   6.718  0.2120  0.0921 -0.8519
  257MOL0     C34612   6.855   9.152   6.203  0.6009 -0.3152  0.4549
  257MOL0     C34613   6.792   9.190   6.079 -0.3081  0.2855  0.0706
  257MOL0     C34614   6.563   9.230   5.707 -0.1614  0.2690  0.1537
  257MOL0     C34615   6.429   9.174   5.719  0.3618 -0.8038 -1.3690
  257MOL0     C34616   6.319   9.217   5.637  0.0696  0.3148 -0.1891
  257MOL0     C34617   6.344   9.301   5.534 -0.0694 -0.3479  0.4494
  257MOL0     O34618   6.253   9.335   5.454  0.6713  0.3000  1.0511
  257MOL0     C34619   6.121   9.290   5.461  0.2842 -0.0547 -0.8909
  257MOL0     C34620   6.033   9.330   5.339 -0.6835  0.2591 -0.0007
  257MOL0     C34621   5.892   9.354   5.384 -0.3068  0.1006 -0.1175
  257MOL0     C34622   5.811   9.219   5.379  0.1195 -0.6892 -0.5955
  257MOL0     C34623   5.780   9.190   5.238 -0.0222  0.8932 -0.5360
  257MOL0     C34624   5.777   9.154   5.127  0.4943  0.5619 -0.1201
  257MOL0     C34625   6.464   9.349   5.522  0.0226 -0.5125  1.4834
  257MOL0     C34626   6.582   9.313   5.597 -0.1695 -1.2560 -0.3441
  257MOL0     C34627   6.713   9.365   5.566 -0.2690 -0.5149 -0.4272
  257MOL0     H34628   6.554   8.950   6.060  0.9553 -0.5203 -2.7663
  257MOL0     H34629   6.690   8.869   6.263 -0.3570  2.2230  5.3806
  257MOL0     H34630   6.850   9.137   6.481 -1.7214 -0.1953 -2.3881
  257MOL0     H34631   6.734   9.009   6.492 -0.3965  0.8554  1.7361
  257MOL0     H34632   6.907   8.862   6.613  1.3259 -0.5837  1.3407
  257MOL0     H34633   6.869   9.016   6.697  0.1516 -1.2005  1.0203
  257MOL0     H34634   7.119   9.008   6.528  2.8424 -3.9751  1.2000
  257MOL0     H34635   7.108   8.946   6.702 -0.5388 -0.3666 -0.3388
  257MOL0     H34636   6.993   9.224   6.653  0.7376  1.5826  0.6173
  257MOL0     H34637   7.057   9.139   6.797  1.8955  5.4328  1.3522
  257MOL0     H34638   7.293   9.153   6.687  2.2226  1.7540 -1.9208
  257MOL0     H34639   7.228   9.240   6.556 -0.8585  2.3084  0.3652
  257MOL0     H34640   7.134   9.407   6.711 -1.0079 -2.2341 -2.0818
  257MOL0     H34641   7.214   9.303   6.844  2.6258  1.8907  0.4185
  257MOL0     H34642   7.355   9.442   6.610  2.0927  3.8764  0.8949
  257MOL0     H34643   7.429   9.354   6.755 -2.2817 -1.3713  1.8972
  257MOL0     H34644   7.367   9.520   6.912 -1.1555  1.5213  1.7714
  257MOL0     H34645   7.445   9.601   6.771  0.4718 -2.1071 -3.1483
  257MOL0     H34646   7.116   9.591   6.971 -0.9466 -2.3316 -0.5958
  257MOL0     H34647   6.950   9.938   6.906 -0.6012 -0.6976 -0.3514
  257MOL0     H34648   6.890   9.779   6.933  0.0213  0.0433 -2.1915
  257MOL0     H34649   7.032   9.741   7.127 -1.8237 -1.2544  0.1309
  257MOL0     H34650   7.125   9.895   7.061 -0.5821 -0.8244 -0.0275
  257MOL0     H34651   6.870   9.888   7.214  0.0313 -0.9675  0.0101
  257MOL0     H34652   6.962  10.036   7.136 -1.9052  1.2338  2.8419
  257MOL0     H34653   7.147   9.982   7.292 -0.2875 -1.2198 -1.5577
  257MOL0     H34654   7.053   9.888   7.397  1.4275  0.1786 -0.7981
  257MOL0     H34655   6.944  10.277   7.530  1.0262  0.0062 -1.6086
  257MOL0     H34656   6.732  10.326   7.656 -1.1076  1.4271 -3.4454
  257MOL0     H34657   6.383   9.839   7.857  0.2742 -0.5623 -1.5332
  257MOL0     H34658   6.178   9.835   8.001  0.8462 -1.6300 -3.3611
  257MOL0     H34659   5.966   9.873   8.108  2.2161 -1.6680  1.4993
  257MOL0     H34660   6.087   9.920   8.228  0.6563 -2.5046 -2.3780
  257MOL0     H34661   5.856   9.933   8.320  4.0105 -1.6000  1.3666
  257MOL0     H34662   5.917  10.102   8.312 -1.3281  1.3788 -1.0091
  257MOL0     H34663   5.763  10.122   8.093 -1.0892  1.7630  1.3412
  257MOL0     H34664   5.736   9.951   8.112  3.4418 -0.2818 -1.5901
  257MOL0     H34665   5.648  10.195   8.292 -1.3262 -0.8697  2.8519
  257MOL0     H34666   5.642  10.033   8.357 -0.2738 -1.6217 -0.6327
  257MOL0     H34667   5.467   9.980   8.189  0.7697 -0.3409  1.6460
  257MOL0     H34668   5.480  10.128   8.119  0.6216  1.0240  0.6943
  257MOL0     H34669   5.435  10.112   8.425  0.7247  0.6318  0.1732
  257MOL0     H34670   5.429  10.251   8.318 -3.1778  1.3727  2.8537
  257MOL0     H34671   5.204  10.167   8.382 -0.3479 -2.3631  1.9691
  257MOL0     H34672   5.230  10.012   8.295 -2.8958  1.0589  2.6559
  257MOL0     H34673   5.247  10.296   8.184 -4.0519  1.4292  1.5118
  257MOL0     H34674   5.235  10.145   8.088 -0.5468  0.1578  0.0530
  257MOL0     H34675   6.133  10.255   7.937  0.7117 -0.4154  1.9721
  257MOL0     H34676   6.294  10.247   7.764 -4.0891  1.1925 -0.4025
  257MOL0     H34677   6.622   9.904   7.582 -0.0433  0.3016  1.0913
  257MOL0     H34678   6.801   9.895   7.427 -4.7099 -0.8764 -0.2392
  257MOL0     H34679   6.934   9.210   6.251  1.7211 -1.4118 -0.0261
  257MOL0     H34680   6.823   9.289   6.046  0.5996  1.2031  3.3200
  257MOL0     H34681   6.407   9.093   5.787 -0.0219  0.4674  0.0786
  257MOL0     H34682   6.222   9.178   5.665 -0.4807  3.2073  2.6796
  257MOL0     H34683   6.070   9.311   5.556  0.7420 -0.7949 -0.4692
  257MOL0     H34684   6.126   9.181   5.458 -0.9709 -0.1024 -3.2264
  257MOL0     H34685   6.042   9.248   5.266 -4.0590 -0.7174  0.4707
  257MOL0     H34686   6.063   9.429   5.303 -2.8901 -0.0247 -3.0792
  257MOL0     H34687   5.863   9.436   5.317 -2.4117  1.6473  2.5141
  257MOL0     H34688   5.900   9.401   5.482  4.2633 -0.9529  0.2572
  257MOL0     H34689   5.868   9.142   5.432 -2.2463 -0.6352  2.2663
  257MOL0     H34690   5.721   9.229   5.440  0.6041  1.1285 -0.1061
  257MOL0     H34691   5.761   9.105   5.033 -0.2663 -1.8721  1.1969
  257MOL0     H34692   6.484   9.402   5.430  2.8536 -2.4842  0.8131
  257MOL0     H34693   6.718   9.424   5.474 -0.1067  1.1305  0.5994
  257MOL0     H34694   6.772   9.421   5.639 -1.7431  2.2551 -1.1866
  257MOL0     H34695   6.762   9.271   5.541 -1.2010 -1.4270  0.9844
  258MOL0     O34696   9.236   7.400   3.787 -0.1060 -0.1329  0.0376
  258MOL0     C34697   9.334   7.403   3.711  0.1505  0.6288  0.1656
  258MOL0     O34698   9.338   7.467   3.583  0.7427  1.1154 -0.7991
  258MOL0     C34699   9.223   7.485   3.515  1.1946 -0.1687  0.3550
  258MOL0     C34700   9.200   7.602   3.440 -0.2387 -0.4365  1.0595
  258MOL0     C34701   9.086   7.605   3.350 -0.5865 -0.4652 -0.7625
  258MOL0     C34702   8.994   7.504   3.341 -0.0085  0.1867  0.3895
  258MOL0     O34703   8.880   7.511   3.258  0.1337  0.0245  0.6137
  258MOL0     C34704   8.809   7.383   3.225 -0.0920  0.3809  0.0010
  258MOL0     C34705   8.701   7.388   3.109  0.7269 -0.0401 -0.4484
  258MOL0     C34706   8.557   7.396   3.166 -0.1827 -0.9563  0.2836
  258MOL0     C34707   8.510   7.263   3.214 -0.2697 -0.0585  0.1080
  258MOL0     C34708   8.361   7.269   3.241 -0.4530  0.3768  0.0215
  258MOL0     C34709   8.277   7.282   3.118 -0.2572  0.4641  0.2919
  258MOL0     C34710   8.128   7.250   3.145  0.3059  0.4586  0.4181
  258MOL0     C34711   8.056   7.253   3.006 -0.7016  0.1248  0.0978
  258MOL0     N34712   7.912   7.238   3.024  0.8827  0.0876  0.4688
  258MOL0     C34713   7.823   7.311   3.101  0.1434  0.3489  0.5286
  258MOL0     C34714   7.714   7.240   3.105  0.5142  0.3786 -0.4111
  258MOL0     C34715   7.575   7.282   3.153  1.1778 -0.0228 -0.5601
  258MOL0     C34716   7.491   7.361   3.048  1.1964 -0.4379  0.3022
  258MOL0     C34717   7.564   7.483   2.992 -0.8102  0.2508 -0.4808
  258MOL0     C34718   7.492   7.538   2.878 -0.3428 -0.4560  0.0009
  258MOL0     O34719   7.358   7.578   2.911  0.2389 -0.8722  0.8386
  258MOL0     C34720   7.286   7.629   2.810 -0.2875  0.2497 -0.5375
  258MOL0     C34721   7.149   7.655   2.834 -0.3559 -0.0695  0.7727
  258MOL0     C34722   7.063   7.711   2.744 -0.0116  0.6034  0.0535
  258MOL0     C34723   7.113   7.726   2.611 -0.0336 -0.3172 -0.4288
  258MOL0     C34724   7.017   7.788   2.513  0.6563 -0.4527 -0.0201
  258MOL0     O34725   7.072   7.832   2.398 -0.4693  0.1488  0.6650
  258MOL0     C34726   7.005   7.918   2.315  0.7623 -0.0914  0.3686
  258MOL0     C34727   7.038   8.060   2.311  0.1118 -0.3326  0.7602
  258MOL0     C34728   6.970   8.144   2.224  0.5843  0.3262  0.5133
  258MOL0     C34729   6.864   8.102   2.147 -0.0655 -1.3448  0.4046
  258MOL0     O34730   6.785   8.203   2.095  0.2874  0.3527 -0.2826
  258MOL0     C34731   6.640   8.175   2.074 -0.8999 -0.5169 -0.0310
  258MOL0     C34732   6.553   8.291   2.070  1.3274 -0.3038 -0.7157
  258MOL0     C34733   6.552   8.382   2.193 -0.6250 -0.7340 -0.7263
  258MOL0     C34734   6.465   8.498   2.164  0.1907 -0.9575 -0.1224
  258MOL0     C34735   6.451   8.588   2.278 -0.9815 -0.2098 -1.2694
  258MOL0     C34736   6.343   8.688   2.257  0.0555 -0.6261 -0.4416
  258MOL0     C34737   6.317   8.768   2.387  0.4945  0.2303 -0.2982
  258MOL0     C34738   6.180   8.834   2.382 -0.3521 -0.2679 -0.3231
  258MOL0    Cl34739   6.207   8.993   2.471  0.1510  0.0538 -0.3197
  258MOL0     C34740   6.833   7.967   2.144 -0.1195  0.4544  0.0781
  258MOL0     C34741   6.896   7.875   2.234  0.2718  0.3294  0.2558
  258MOL0     O34742   6.893   7.794   2.549  0.0532 -0.3684  0.5152
  258MOL0     C34743   7.249   7.693   2.575  0.7558  0.8920  0.5134
  258MOL0     C34744   7.333   7.652   2.680 -0.2551 -0.1174  0.0789
  258MOL0     N34745   7.736   7.120   3.035 -0.7642  0.6266 -0.2137
  258MOL0     N34746   7.858   7.118   2.987 -0.3678 -0.6668 -0.1269
  258MOL0     C34747   9.016   7.391   3.422 -0.4844 -0.1996 -0.7745
  258MOL0     C34748   9.124   7.389   3.516  0.1934 -0.1991 -0.0022
  258MOL0     C34749   9.464   7.344   3.754 -0.0367  0.9944 -0.7265
  258MOL0     C34750   9.571   7.340   3.666  0.9192 -0.8762 -0.3448
  258MOL0     C34751   9.688   7.281   3.698  0.7343  0.7129  1.1205
  258MOL0     C34752   9.706   7.208   3.820  0.5108  0.9444  0.3265
  258MOL0     O34753   9.826   7.135   3.852 -0.4125 -0.5391  0.4633
  258MOL0     C34754   9.946   7.143   3.774 -0.8145 -0.3425 -0.1120
  258MOL0     C34755  10.083   7.092   3.840  0.3345  0.5274  0.7277
  258MOL0     C34756  10.067   6.953   3.910 -0.3813  0.1349 -0.6208
  258MOL0     C34757   9.931   6.926   3.986 -0.2789 -0.4226 -0.3761
  258MOL0     C34758   9.948   6.791   4.045  0.3793  0.5922  0.6619
  258MOL0     C34759   9.943   6.682   4.087  0.3643  0.8835  0.3119
  258MOL0     C34760   9.599   7.210   3.915 -0.2499 -0.5437  0.7927
  258MOL0     C34761   9.479   7.275   3.882 -0.6256 -0.4140 -0.4415
  258MOL0     C34762   9.378   7.273   4.004 -0.0311 -0.3897 -1.1452
  258MOL0     H34763   9.266   7.689   3.448 -0.4565 -0.1444 -0.1418
  258MOL0     H34764   9.067   7.694   3.290  2.3809 -1.1055 -2.8677
  258MOL0     H34765   8.878   7.302   3.200  2.9413  1.8786  2.7043
  258MOL0     H34766   8.762   7.341   3.314  0.4473 -2.9768 -1.1460
  258MOL0     H34767   8.707   7.299   3.045 -1.0060 -0.7022  0.2689
  258MOL0     H34768   8.728   7.468   3.039 -1.2172 -1.3364 -2.8606
  258MOL0     H34769   8.497   7.436   3.084  0.8097  2.6155  1.1592
  258MOL0     H34770   8.549   7.480   3.235 -1.8336  1.0814 -2.1905
  258MOL0     H34771   8.539   7.183   3.144 -1.4097 -1.1709  0.8561
  258MOL0     H34772   8.555   7.255   3.314 -4.3605  0.3496  2.1728
  258MOL0     H34773   8.331   7.181   3.298 -1.3245  0.0282 -0.9675
  258MOL0     H34774   8.337   7.353   3.308  0.5055 -0.0709  0.9725
  258MOL0     H34775   8.287   7.381   3.073 -1.5947  0.6767  0.4428
  258MOL0     H34776   8.310   7.212   3.042  0.8403  1.0074  0.2425
  258MOL0     H34777   8.089   7.318   3.223 -0.0585 -2.8614  3.3974
  258MOL0     H34778   8.125   7.149   3.187  0.8536  0.3499  0.1972
  258MOL0     H34779   8.074   7.351   2.961  0.8680  0.1759  0.7515
  258MOL0     H34780   8.097   7.176   2.940  3.8727  4.2508 -2.5585
  258MOL0     H34781   7.838   7.408   3.148  0.1262  1.2305 -1.1876
  258MOL0     H34782   7.522   7.190   3.177  3.8251 -1.1012  1.6989
  258MOL0     H34783   7.577   7.343   3.243 -0.0537 -1.8339  0.7633
  258MOL0     H34784   7.462   7.292   2.969  3.5080  2.1264 -3.0466
  258MOL0     H34785   7.406   7.404   3.102  2.2933  0.8599  1.0585
  258MOL0     H34786   7.668   7.463   2.965 -0.9276  0.8648 -1.4354
  258MOL0     H34787   7.582   7.556   3.071  3.6484  0.3597 -1.3046
  258MOL0     H34788   7.488   7.469   2.792  0.4273 -0.0021 -0.4106
  258MOL0     H34789   7.549   7.625   2.846 -0.1642 -0.4462  0.3473
  258MOL0     H34790   7.129   7.651   2.941  0.6172  0.7019  1.0026
  258MOL0     H34791   6.959   7.731   2.768 -1.0624  0.7000 -3.8727
  258MOL0     H34792   7.107   8.106   2.380 -1.5891  5.6872 -0.9208
  258MOL0     H34793   6.989   8.251   2.231  0.5279  0.3639  0.0834
  258MOL0     H34794   6.625   8.122   1.980 -0.6832  1.9112 -1.5167
  258MOL0     H34795   6.620   8.106   2.156  5.2872 -0.0432  2.3922
  258MOL0     H34796   6.568   8.359   1.986 -2.3635  1.4745 -0.1578
  258MOL0     H34797   6.450   8.254   2.062  1.2740 -0.4357  0.4297
  258MOL0     H34798   6.519   8.326   2.282 -1.4139  0.3788 -0.2977
  258MOL0     H34799   6.656   8.405   2.216 -1.0117 -1.0706  1.7347
  258MOL0     H34800   6.363   8.466   2.139  0.5310 -2.2545  0.1039
  258MOL0     H34801   6.503   8.555   2.079 -1.8542  1.6238  0.5691
  258MOL0     H34802   6.548   8.635   2.297 -1.2331  0.5140 -1.7311
  258MOL0     H34803   6.428   8.521   2.361  2.0661 -1.6854 -1.4475
  258MOL0     H34804   6.371   8.761   2.180  1.8923 -0.7213  0.0972
  258MOL0     H34805   6.249   8.646   2.220 -0.5990  0.6743 -0.3039
  258MOL0     H34806   6.395   8.844   2.394 -0.6675  1.4830 -0.5040
  258MOL0     H34807   6.325   8.704   2.476 -0.5493 -1.1938 -1.1716
  258MOL0     H34808   6.137   8.853   2.283 -1.4653 -0.5743  0.0930
  258MOL0     H34809   6.102   8.774   2.428 -0.0442  1.2930  2.4726
  258MOL0     H34810   6.751   7.928   2.084  1.1337 -2.2879  0.0265
  258MOL0     H34811   6.877   7.769   2.224  4.0403 -0.3500 -1.4266
  258MOL0     H34812   7.285   7.723   2.477 -0.5980 -2.8216 -1.3145
  258MOL0     H34813   7.438   7.654   2.655  0.0102  0.0297  1.1882
  258MOL0     H34814   8.941   7.312   3.416 -0.8870  0.1640 -0.5940
  258MOL0     H34815   9.137   7.295   3.569 -2.3064 -0.5159  0.1764
  258MOL0     H34816   9.563   7.376   3.564 -1.1894  0.1624  0.1315
  258MOL0     H34817   9.750   7.282   3.608  2.6838 -0.4837  2.3783
  258MOL0     H34818   9.967   7.247   3.747  0.6567 -0.6536 -0.2494
  258MOL0     H34819   9.925   7.077   3.690 -3.1095 -0.2122  0.2888
  258MOL0     H34820  10.106   7.170   3.914 -0.6732 -1.4987  3.3205
  258MOL0     H34821  10.160   7.080   3.764 -2.0981 -1.2144 -1.6262
  258MOL0     H34822  10.148   6.962   3.983 -1.8418  4.5620  0.7973
  258MOL0     H34823  10.104   6.874   3.845 -0.2604 -0.6459  0.3821
  258MOL0     H34824   9.914   7.005   4.060 -0.6842 -0.4907 -0.3919
  258MOL0     H34825   9.852   6.921   3.910  0.3717  0.0690 -1.1041
  258MOL0     H34826   9.940   6.583   4.129 -0.5679  0.6215 -0.3455
  258MOL0     H34827   9.632   7.171   4.010 -0.7382 -2.4772  0.2188
  258MOL0     H34828   9.316   7.183   3.996 -2.3773  0.9300  0.7641
  258MOL0     H34829   9.423   7.266   4.103 -0.1966  6.2223 -0.1522
  258MOL0     H34830   9.317   7.363   4.015 -2.3232 -1.8903 -0.8155
  259MOL0     O34831   7.729   7.140   5.301  0.0046 -0.1049 -0.3032
  259MOL0     C34832   7.807   7.126   5.211  0.0988 -0.1066  0.6660
  259MOL0     O34833   7.910   7.205   5.181  0.1002 -0.0584  0.5728
  259MOL0     C34834   7.946   7.325   5.239 -0.0305  0.7336  0.1525
  259MOL0     C34835   7.912   7.357   5.370 -0.4335  0.1510  0.4223
  259MOL0     C34836   7.967   7.473   5.420  0.5178  0.0780 -0.1696
  259MOL0     C34837   8.052   7.562   5.351 -0.4403  0.4694 -0.1748
  259MOL0     O34838   8.091   7.683   5.400  0.1673  0.3806 -0.1658
  259MOL0     C34839   8.080   7.704   5.543 -0.2955 -0.3553  1.4276
  259MOL0     C34840   8.187   7.810   5.576  0.0719 -0.0312 -0.3555
  259MOL0     C34841   8.328   7.775   5.536  0.5203  0.8453 -0.3509
  259MOL0     C34842   8.355   7.628   5.560  0.6067 -0.6033  0.0449
  259MOL0     C34843   8.508   7.600   5.551 -0.8596 -0.1069 -1.0571
  259MOL0     C34844   8.548   7.459   5.533 -0.6249 -0.3426 -0.6321
  259MOL0     C34845   8.705   7.429   5.543 -0.1538  0.9667  0.2723
  259MOL0     C34846   8.778   7.467   5.677  0.7962  0.3137  1.1039
  259MOL0     N34847   8.751   7.362   5.776 -0.7163 -0.3433  0.1434
  259MOL0     C34848   8.806   7.244   5.795 -0.2655  0.5578 -0.1532
  259MOL0     C34849   8.720   7.173   5.864  1.6034  0.6356 -0.2610
  259MOL0     C34850   8.741   7.026   5.905 -0.4679 -1.0251 -0.4460
  259MOL0     C34851   8.775   6.992   6.053  0.7216  0.2754 -0.3149
  259MOL0     C34852   8.900   7.061   6.097  0.6021  0.1732  0.3279
  259MOL0     C34853   8.894   7.210   6.140 -0.4986  0.0067 -0.7739
  259MOL0     O34854   8.868   7.229   6.285 -0.2467  0.3860  0.6409
  259MOL0     C34855   8.849   7.354   6.334 -0.6198  0.6663  0.7167
  259MOL0     C34856   8.813   7.352   6.460 -0.3687  0.3631 -0.8611
  259MOL0     C34857   8.783   7.483   6.524 -1.1784 -0.7476  0.2586
  259MOL0     C34858   8.797   7.607   6.454  0.2830 -0.6649  0.0243
  259MOL0     C34859   8.769   7.740   6.508  0.3172  0.4942 -0.1690
  259MOL0     O34860   8.868   7.835   6.485  0.5041  1.0419 -0.3731
  259MOL0     C34861   8.836   7.967   6.507 -0.4610 -0.4969  0.0075
  259MOL0     C34862   8.859   8.052   6.399 -0.5404 -0.2128 -0.2364
  259MOL0     C34863   8.815   8.188   6.409  1.4718  0.2249 -1.0147
  259MOL0     C34864   8.746   8.224   6.538  0.2608 -0.2901  0.2835
  259MOL0     O34865   8.692   8.338   6.575  0.0220 -1.3417  0.6903
  259MOL0     C34866   8.672   8.430   6.473  0.4769 -0.7874 -1.0793
  259MOL0     C34867   8.589   8.545   6.539  0.1221  0.0266 -0.1360
  259MOL0     C34868   8.446   8.499   6.557  1.0161 -0.0698  0.1093
  259MOL0     C34869   8.378   8.609   6.627  0.6506 -0.3595  0.0569
  259MOL0     C34870   8.226   8.584   6.659  0.3563  0.3784  0.5275
  259MOL0     C34871   8.144   8.706   6.710 -0.7025 -0.6710 -0.6586
  259MOL0     C34872   8.010   8.665   6.762  0.1063  0.2959 -0.6990
  259MOL0     C34873   7.914   8.785   6.772  0.4779 -0.0197  0.5776
  259MOL0    Cl34874   7.925   8.910   6.642  0.0009 -0.1175 -0.0870
  259MOL0     C34875   8.737   8.132   6.643  0.2530 -1.2059 -0.0578
  259MOL0     C34876   8.779   8.004   6.629  0.0732  0.1125  0.1913
  259MOL0     O34877   8.662   7.755   6.570 -0.8014  0.0055  0.1879
  259MOL0     C34878   8.824   7.601   6.318  0.7976  0.4304 -0.7539
  259MOL0     C34879   8.844   7.471   6.263 -0.1696  0.4550  0.1483
  259MOL0     N34880   8.607   7.239   5.888  0.2329  0.5419 -0.4561
  259MOL0     N34881   8.624   7.356   5.842  0.1926 -0.0479  0.4308
  259MOL0     C34882   8.070   7.530   5.212  0.1652 -0.1351 -0.2707
  259MOL0     C34883   8.027   7.406   5.161 -0.3369 -1.0190 -0.0270
  259MOL0     C34884   7.790   7.006   5.125 -0.2309 -0.2854  0.2913
  259MOL0     C34885   7.812   7.028   4.989 -0.2923  0.3565  1.0035
  259MOL0     C34886   7.789   6.923   4.902  0.2050 -1.1951  0.0298
  259MOL0     C34887   7.744   6.801   4.946 -0.4290 -0.2953 -0.0836
  259MOL0     O34888   7.713   6.700   4.861  0.8012 -0.4012 -0.1405
  259MOL0     C34889   7.573   6.654   4.851  0.0839 -0.2831 -0.4449
  259MOL0     C34890   7.540   6.508   4.806 -0.2103  0.2771 -1.0819
  259MOL0     C34891   7.631   6.447   4.697 -0.5952 -0.1815  0.9319
  259MOL0     C34892   7.758   6.391   4.747 -0.1994  1.1404 -0.5356
  259MOL0     C34893   7.848   6.315   4.654  0.4184  0.9252  0.2763
  259MOL0     C34894   7.902   6.255   4.559 -0.2353 -0.9915  0.1782
  259MOL0     C34895   7.717   6.775   5.073 -0.4498 -0.0880 -0.6000
  259MOL0     C34896   7.748   6.876   5.174 -0.2048  0.2904 -1.0357
  259MOL0     C34897   7.734   6.847   5.316 -0.3253  0.6041 -0.2031
  259MOL0     H34898   7.846   7.298   5.433 -1.4407  0.0664 -0.6800
  259MOL0     H34899   7.945   7.496   5.524 -3.0098  0.8787 -0.9737
  259MOL0     H34900   7.991   7.760   5.572 -0.5128  1.0364 -1.5074
  259MOL0     H34901   8.092   7.610   5.597 -3.0010 -1.4989  0.2181
  259MOL0     H34902   8.179   7.849   5.678  2.7602 -1.4770  0.5113
  259MOL0     H34903   8.163   7.892   5.507 -1.4104  0.7265  0.9974
  259MOL0     H34904   8.405   7.829   5.592  2.2808 -0.9887 -0.8636
  259MOL0     H34905   8.336   7.788   5.427 -1.3670  0.0951 -0.6191
  259MOL0     H34906   8.313   7.617   5.661 -0.8477  1.2510 -0.3023
  259MOL0     H34907   8.315   7.564   5.481  1.6542 -0.4510 -0.6183
  259MOL0     H34908   8.554   7.631   5.457  0.9073  0.7429  0.0276
  259MOL0     H34909   8.551   7.638   5.644 -0.6342 -0.5368 -0.9786
  259MOL0     H34910   8.500   7.392   5.605  2.5960 -0.7528  1.3132
  259MOL0     H34911   8.503   7.425   5.439 -1.3865 -2.1108  0.3177
  259MOL0     H34912   8.765   7.471   5.462 -0.3281  1.4575  0.3911
  259MOL0     H34913   8.716   7.320   5.536  2.9678  1.1933  0.1077
  259MOL0     H34914   8.884   7.455   5.652  0.9954 -0.3410  2.1790
  259MOL0     H34915   8.746   7.561   5.723 -2.9431 -0.5134  0.5351
  259MOL0     H34916   8.904   7.212   5.759 -0.8481 -1.2611 -0.2207
  259MOL0     H34917   8.647   6.974   5.883 -2.4762  1.4565  1.5887
  259MOL0     H34918   8.815   6.978   5.840  0.4915  2.8693 -2.5853
  259MOL0     H34919   8.695   7.011   6.125 -0.6003 -1.7188 -1.1805
  259MOL0     H34920   8.807   6.888   6.058 -0.6820 -0.2811 -2.0881
  259MOL0     H34921   8.956   7.054   6.003 -1.4575  0.9643 -1.0270
  259MOL0     H34922   8.952   7.001   6.173 -1.4412  0.3878  1.9626
  259MOL0     H34923   8.820   7.260   6.076  1.7434  3.2160 -1.0832
  259MOL0     H34924   8.985   7.262   6.109 -1.0727  1.7295  0.2857
  259MOL0     H34925   8.824   7.258   6.514 -0.2582  0.6196 -0.4352
  259MOL0     H34926   8.754   7.474   6.628  1.6186 -1.7981  1.0294
  259MOL0     H34927   8.878   8.002   6.304  3.2106  0.8937 -0.2329
  259MOL0     H34928   8.802   8.253   6.323 -0.7789  0.4967 -0.5118
  259MOL0     H34929   8.764   8.476   6.437 -0.1766  1.5619  0.0533
  259MOL0     H34930   8.624   8.389   6.384 -0.9755  3.1203 -2.3155
  259MOL0     H34931   8.629   8.576   6.636 -0.2178  3.0972 -0.8809
  259MOL0     H34932   8.585   8.632   6.473  0.6679  1.9003  2.1703
  259MOL0     H34933   8.412   8.490   6.454 -0.1314  0.9655  0.3740
  259MOL0     H34934   8.444   8.408   6.617 -0.4631  0.0162  0.2233
  259MOL0     H34935   8.385   8.694   6.559 -2.3679  1.8663  2.2709
  259MOL0     H34936   8.428   8.642   6.718 -0.6285 -1.3112  1.1476
  259MOL0     H34937   8.220   8.498   6.726  1.0506  0.6446  0.9392
  259MOL0     H34938   8.175   8.563   6.564 -1.1709  1.2781  1.1210
  259MOL0     H34939   8.195   8.748   6.798  1.6834 -3.6991 -0.3991
  259MOL0     H34940   8.143   8.765   6.618  2.1279  0.2008 -0.2351
  259MOL0     H34941   8.029   8.611   6.855  1.0359 -2.1654 -2.2397
  259MOL0     H34942   7.968   8.592   6.693 -0.3622  0.0895 -0.2046
  259MOL0     H34943   7.820   8.731   6.782  1.7409 -1.9459  3.2538
  259MOL0     H34944   7.924   8.834   6.869 -2.6152 -0.0239  0.9897
  259MOL0     H34945   8.688   8.180   6.727  0.4315  1.9065 -1.6044
  259MOL0     H34946   8.789   7.943   6.718 -0.2617 -0.2839 -0.0387
  259MOL0     H34947   8.828   7.693   6.261 -0.1869 -0.0552 -1.6631
  259MOL0     H34948   8.867   7.453   6.158 -1.5044 -1.8697  0.1958
  259MOL0     H34949   8.130   7.594   5.148 -2.6458 -1.3731 -4.5429
  259MOL0     H34950   8.051   7.381   5.058  2.7319 -1.2494  0.6433
  259MOL0     H34951   7.856   7.116   4.943 -0.0847 -0.0271  0.4651
  259MOL0     H34952   7.789   6.948   4.797  1.2958 -1.0019  0.0676
  259MOL0     H34953   7.525   6.714   4.773  0.4495  0.0806 -0.3955
  259MOL0     H34954   7.529   6.680   4.948 -2.0508  2.6285 -2.0319
  259MOL0     H34955   7.432   6.505   4.786 -1.0812  1.8724  2.4881
  259MOL0     H34956   7.540   6.441   4.892 -3.5752  0.2110 -0.9973
  259MOL0     H34957   7.646   6.524   4.620  0.6874 -1.1159  0.2072
  259MOL0     H34958   7.576   6.365   4.650  0.4120 -1.8456  2.5309
  259MOL0     H34959   7.820   6.473   4.783  0.4442  0.7840 -0.7988
  259MOL0     H34960   7.741   6.330   4.836 -0.9497  0.3156 -1.2268
  259MOL0     H34961   7.947   6.209   4.473 -0.1201  0.5435 -0.6327
  259MOL0     H34962   7.681   6.679   5.109  2.6995 -1.8026 -1.6030
  259MOL0     H34963   7.794   6.915   5.377  0.1120 -0.7541  0.9232
  259MOL0     H34964   7.630   6.856   5.350 -0.2429  0.1946  0.1661
  259MOL0     H34965   7.763   6.742   5.323 -3.2152 -0.3391 -0.8993
  260MOL0     O34966   9.074   4.972   6.867 -0.3475  0.2250  1.0275
  260MOL0     C34967   9.097   5.071   6.931 -0.7494  0.7192  0.0142
  260MOL0     O34968   9.031   5.110   7.039  0.3919 -0.9218 -0.5746
  260MOL0     C34969   8.983   5.022   7.136  0.2950 -1.1103 -0.3420
  260MOL0     C34970   9.036   4.889   7.159  0.4556 -0.7262  0.8094
  260MOL0     C34971   8.992   4.820   7.267 -0.3248  0.3872 -0.0121
  260MOL0     C34972   8.904   4.870   7.359  0.5275  0.1206  0.7863
  260MOL0     O34973   8.889   4.800   7.473  0.8854 -0.5275 -0.1660
  260MOL0     C34974   8.856   4.861   7.601  0.6575 -0.7928 -0.0600
  260MOL0     C34975   8.886   4.764   7.715 -0.9601 -0.8196  0.1291
  260MOL0     C34976   8.787   4.649   7.730 -0.5142  0.2536 -0.0806
  260MOL0     C34977   8.841   4.518   7.784  0.0888  0.2072 -0.3154
  260MOL0     C34978   8.747   4.404   7.798 -0.1778 -1.0710 -0.4128
  260MOL0     C34979   8.677   4.361   7.663  0.4287  0.1436  0.1666
  260MOL0     C34980   8.541   4.301   7.702  0.8223 -0.3332 -0.3150
  260MOL0     C34981   8.556   4.152   7.745  0.4427 -0.4744  0.3833
  260MOL0     N34982   8.441   4.095   7.816  0.0440  0.1434 -0.3826
  260MOL0     C34983   8.398   3.964   7.823 -0.2970  0.1152 -0.1861
  260MOL0     C34984   8.286   3.944   7.891 -0.0418 -0.5104 -0.2706
  260MOL0     C34985   8.202   3.826   7.937 -0.2834  0.5967 -0.9299
  260MOL0     C34986   8.079   3.806   7.849  0.6824  0.6292 -0.4270
  260MOL0     C34987   7.993   3.692   7.917 -0.0843  0.2479  1.2012
  260MOL0     C34988   7.866   3.651   7.839  0.0331  0.6869  0.9541
  260MOL0     O34989   7.774   3.603   7.936  0.2345  0.2161  0.1073
  260MOL0     C34990   7.677   3.685   7.997 -1.0240  1.0984 -0.0364
  260MOL0     C34991   7.642   3.821   7.957 -0.0109  0.9948  0.4978
  260MOL0     C34992   7.525   3.873   8.014  0.1393  1.2227 -0.7190
  260MOL0     C34993   7.450   3.817   8.126  0.6109  0.1320  0.3989
  260MOL0     C34994   7.333   3.888   8.184 -0.4408  0.5870  0.0182
  260MOL0     O34995   7.271   3.981   8.114 -0.1677 -0.2611 -0.2499
  260MOL0     C34996   7.153   4.046   8.163 -0.0509  0.2643  0.2913
  260MOL0     C34997   7.136   4.082   8.294  0.0438 -1.5082  1.0050
  260MOL0     C34998   7.017   4.142   8.328  0.0127  0.1126 -0.7851
  260MOL0     C34999   6.921   4.165   8.230  0.3904  0.0814  0.1605
  260MOL0     O35000   6.807   4.232   8.264  0.9061 -0.6143  0.5511
  260MOL0     C35001   6.692   4.165   8.220 -0.2741 -0.0075  0.8930
  260MOL0     C35002   6.575   4.210   8.306 -0.7446 -0.2263 -0.6507
  260MOL0     C35003   6.448   4.137   8.256  0.7764  0.1484 -0.1626
  260MOL0     C35004   6.415   4.026   8.350 -0.4627  0.1695  0.9267
  260MOL0     C35005   6.456   3.903   8.284  0.5802 -0.2513 -1.1309
  260MOL0     C35006   6.449   3.783   8.371  0.8670  0.7183  0.9515
  260MOL0     C35007   6.510   3.662   8.290  0.4186  0.3194 -0.1771
  260MOL0     C35008   6.505   3.531   8.374  0.0226  0.4755  0.1682
  260MOL0    Cl35009   6.348   3.445   8.343 -0.2425 -0.3249 -0.2144
  260MOL0     C35010   6.942   4.136   8.098 -0.0194  0.3864  0.0213
  260MOL0     C35011   7.055   4.073   8.055  0.7488  0.0541  0.3428
  260MOL0     O35012   7.302   3.863   8.302  0.2300  0.3072  0.6717
  260MOL0     C35013   7.491   3.694   8.173  0.8353  0.1483  0.2888
  260MOL0     C35014   7.591   3.628   8.099 -1.3203  0.0209  0.1920
  260MOL0     N35015   8.264   4.069   7.943 -0.6385  0.3722  0.0236
  260MOL0     N35016   8.355   4.159   7.906 -0.3718  0.0301  0.6462
  260MOL0     C35017   8.855   5.001   7.340  0.0300  0.4387  0.4762
  260MOL0     C35018   8.899   5.076   7.230 -0.0139 -0.0345  0.7189
  260MOL0     C35019   9.199   5.157   6.869  0.1651 -0.1808  0.0737
  260MOL0     C35020   9.295   5.110   6.778  1.0727 -0.2160  0.6942
  260MOL0     C35021   9.395   5.196   6.728  0.0207  0.8019  0.6675
  260MOL0     C35022   9.385   5.336   6.745  0.0319  0.7750  0.8710
  260MOL0     O35023   9.447   5.434   6.672 -0.7141 -0.5684 -0.0970
  260MOL0     C35024   9.544   5.390   6.570  0.1358  0.1375 -0.1413
  260MOL0     C35025   9.672   5.336   6.638  0.1266  0.5412  0.1079
  260MOL0     C35026   9.796   5.360   6.555  0.2297 -0.2045 -0.5172
  260MOL0     C35027   9.785   5.384   6.405  0.1113  0.0684 -0.0634
  260MOL0     C35028   9.917   5.403   6.337  0.6807 -0.5192  0.5195
  260MOL0     C35029  10.028   5.419   6.295  0.0783  0.8180  0.4898
  260MOL0     C35030   9.294   5.385   6.826 -0.8162 -0.0849  0.2066
  260MOL0     C35031   9.193   5.305   6.890 -0.1900  1.3982  0.8911
  260MOL0     C35032   9.083   5.380   6.952 -0.7895  0.4187  0.2577
  260MOL0     H35033   9.111   4.857   7.087  0.6300  2.1801 -0.4237
  260MOL0     H35034   9.039   4.722   7.273 -0.8054 -0.0489 -2.4799
  260MOL0     H35035   8.915   4.953   7.601 -2.1823  1.1576  0.4971
  260MOL0     H35036   8.752   4.891   7.619  0.2907 -2.2748  0.4471
  260MOL0     H35037   8.889   4.819   7.810  0.1815 -2.1547  0.9003
  260MOL0     H35038   8.983   4.716   7.704 -1.3972 -1.5992 -0.4150
  260MOL0     H35039   8.729   4.639   7.638  2.3392  3.0294 -2.3893
  260MOL0     H35040   8.714   4.694   7.798 -0.8398  0.4444 -0.5551
  260MOL0     H35041   8.930   4.483   7.729  0.8372  1.5928 -0.0143
  260MOL0     H35042   8.878   4.550   7.881 -1.5915  0.5506  0.2487
  260MOL0     H35043   8.801   4.314   7.830  2.0887  0.0026 -0.9750
  260MOL0     H35044   8.678   4.432   7.878  2.9326  1.4870  1.6310
  260MOL0     H35045   8.658   4.443   7.593  0.3938 -2.4215 -3.0927
  260MOL0     H35046   8.738   4.287   7.610 -0.4933  0.1472 -0.9202
  260MOL0     H35047   8.471   4.297   7.618  0.7325  0.9429 -0.3217
  260MOL0     H35048   8.496   4.362   7.781 -1.0660 -0.0649 -1.5432
  260MOL0     H35049   8.572   4.087   7.658  2.9147 -0.2386  0.5955
  260MOL0     H35050   8.648   4.140   7.802  0.0943  1.5930  1.4781
  260MOL0     H35051   8.463   3.886   7.784  2.5029  0.9348  2.4911
  260MOL0     H35052   8.261   3.734   7.942 -0.7909  0.2935  2.4768
  260MOL0     H35053   8.175   3.844   8.042 -0.1240 -0.6174 -0.6610
  260MOL0     H35054   8.017   3.896   7.850  0.4024  0.4327  0.1149
  260MOL0     H35055   8.102   3.783   7.745 -2.6929 -1.4193 -0.8975
  260MOL0     H35056   7.948   3.739   8.006 -3.0684  1.0072 -0.5503
  260MOL0     H35057   8.048   3.598   7.908 -0.4592  0.1778 -0.6663
  260MOL0     H35058   7.887   3.574   7.764 -1.1202  1.8387 -0.6239
  260MOL0     H35059   7.825   3.741   7.791 -0.6961  1.2024  2.4707
  260MOL0     H35060   7.703   3.874   7.885 -0.4106 -0.1216 -0.7128
  260MOL0     H35061   7.508   3.975   7.981  1.4765  1.1343 -1.7822
  260MOL0     H35062   7.215   4.083   8.369 -0.4018  1.6543  1.5693
  260MOL0     H35063   6.997   4.162   8.433 -0.0720 -3.2557 -0.0525
  260MOL0     H35064   6.682   4.184   8.113  0.6971 -0.3884  0.7160
  260MOL0     H35065   6.713   4.059   8.237 -0.7506 -0.3032 -0.2723
  260MOL0     H35066   6.591   4.218   8.414  3.9578  1.1287 -1.1994
  260MOL0     H35067   6.573   4.316   8.283  1.2342  0.5453  2.1473
  260MOL0     H35068   6.362   4.205   8.257 -0.1942 -1.0170 -1.2156
  260MOL0     H35069   6.450   4.108   8.150 -0.7684  1.8762 -0.7270
  260MOL0     H35070   6.307   4.021   8.369 -0.6562  0.7768  0.0368
  260MOL0     H35071   6.480   4.028   8.439 -0.5911 -1.6242  1.1020
  260MOL0     H35072   6.560   3.911   8.253  1.5467  0.3650  1.9020
  260MOL0     H35073   6.401   3.891   8.190 -0.1346 -0.7558 -0.6587
  260MOL0     H35074   6.506   3.809   8.460 -0.1934  5.7759  0.4259
  260MOL0     H35075   6.347   3.751   8.394  0.4528  0.8873 -0.5433
  260MOL0     H35076   6.614   3.682   8.266  0.0374  2.4288 -0.2648
  260MOL0     H35077   6.444   3.643   8.205 -4.0149  2.2763  2.4472
  260MOL0     H35078   6.584   3.469   8.328  0.0492 -0.3650  1.3101
  260MOL0     H35079   6.522   3.551   8.480 -5.4874 -0.3276  1.4826
  260MOL0     H35080   6.875   4.176   8.022 -0.2011 -0.9327 -0.5435
  260MOL0     H35081   7.054   4.060   7.947  2.7965  1.5976  0.0692
  260MOL0     H35082   7.438   3.636   8.248  2.5710  0.6040  1.9511
  260MOL0     H35083   7.610   3.523   8.120  0.2246  0.2645  0.0892
  260MOL0     H35084   8.793   5.052   7.413 -1.6648  1.9189 -1.8393
  260MOL0     H35085   8.857   5.176   7.220  4.0314  1.8947  1.1118
  260MOL0     H35086   9.301   5.004   6.758  0.4002 -0.4131  1.4490
  260MOL0     H35087   9.472   5.157   6.662 -1.2074 -3.0023  1.2661
  260MOL0     H35088   9.573   5.485   6.524  1.4706 -1.0498 -1.8948
  260MOL0     H35089   9.494   5.332   6.492 -1.3038 -0.3937  1.1155
  260MOL0     H35090   9.664   5.227   6.650 -3.2391  0.7008  0.3047
  260MOL0     H35091   9.681   5.383   6.737  2.1034 -1.4266  0.9486
  260MOL0     H35092   9.873   5.284   6.572  0.8713  0.6116  0.3773
  260MOL0     H35093   9.838   5.448   6.605  3.0316 -1.7831  0.1659
  260MOL0     H35094   9.730   5.302   6.356  0.0871  1.3375 -2.3033
  260MOL0     H35095   9.722   5.469   6.376 -0.2649  0.0178  0.5907
  260MOL0     H35096  10.124   5.422   6.248  0.7095 -1.7303  1.4543
  260MOL0     H35097   9.298   5.491   6.849  0.5364 -0.8719  4.5603
  260MOL0     H35098   9.085   5.348   7.056 -1.1896 -1.8654 -0.3917
  260MOL0     H35099   9.094   5.489   6.953 -1.3558  0.5646 -2.1218
  260MOL0     H35100   8.984   5.356   6.912 -1.6968  1.7815  1.5746
  261MOL0     O35101   9.940   4.952   8.664  0.1213 -0.2390 -0.0913
  261MOL0     C35102   9.932   4.862   8.754 -0.0547  0.0281  0.1173
  261MOL0     O35103   9.842   4.868   8.857  0.9718  1.6546  0.3864
  261MOL0     C35104   9.749   4.970   8.853 -0.5993 -0.0907  1.4153
  261MOL0     C35105   9.744   5.065   8.966  0.0356  0.5898  0.8790
  261MOL0     C35106   9.661   5.171   8.962  0.5967  0.0651  0.4717
  261MOL0     C35107   9.586   5.200   8.845  0.3354  0.3968  0.0073
  261MOL0     O35108   9.503   5.312   8.820  0.0998  0.1542  1.0456
  261MOL0     C35109   9.526   5.415   8.910 -1.1466  0.0522 -0.2921
  261MOL0     C35110   9.447   5.535   8.856  0.2989 -0.7026  1.0009
  261MOL0     C35111   9.510   5.667   8.884 -0.3576 -0.5177 -0.2301
  261MOL0     C35112   9.487   5.719   9.024  0.2997 -0.2464  0.0958
  261MOL0     C35113   9.560   5.851   9.058  0.3724  0.5719 -0.3810
  261MOL0     C35114   9.511   5.973   8.982  0.7628 -0.7401  0.7718
  261MOL0     C35115   9.574   6.106   9.028 -0.6620 -0.0954 -0.1500
  261MOL0     C35116   9.716   6.111   8.985 -0.2105  1.1663  0.6546
  261MOL0     N35117   9.767   6.247   9.007 -1.2069  0.1487 -0.4095
  261MOL0     C35118   9.834   6.291   9.123 -0.0823 -0.4314  0.1825
  261MOL0     C35119   9.858   6.418   9.105  0.1383 -0.3043  0.3033
  261MOL0     C35120   9.931   6.501   9.198  0.4730  0.3406  0.0568
  261MOL0     C35121  10.082   6.500   9.160 -1.0359  0.4015  0.0571
  261MOL0     C35122  10.163   6.584   9.265 -1.7919  0.7260  0.1943
  261MOL0     C35123  10.316   6.605   9.233  0.2190  0.1425 -0.3335
  261MOL0     O35124  10.333   6.659   9.104 -0.0697  0.1990  0.5743
  261MOL0     C35125  10.326   6.790   9.064  0.9255 -0.6960 -0.6678
  261MOL0     C35126  10.327   6.830   8.930 -0.1225  0.6097  0.3623
  261MOL0     C35127  10.314   6.963   8.886  0.3187  0.7492  0.1532
  261MOL0     C35128  10.282   7.063   8.980  0.4305 -0.7604 -0.4050
  261MOL0     C35129  10.258   7.205   8.934 -0.2327  0.6311  1.3670
  261MOL0     O35130  10.231   7.216   8.798  0.3522 -0.1799  0.6155
  261MOL0     C35131  10.183   7.335   8.744 -0.4112  0.0492 -0.4317
  261MOL0     C35132  10.237   7.459   8.779  0.2335  0.0981 -0.4661
  261MOL0     C35133  10.192   7.576   8.727 -0.2974  0.5125  0.8594
  261MOL0     C35134  10.084   7.573   8.633  0.1250  0.2974  0.2291
  261MOL0     O35135  10.035   7.687   8.575  0.2948  0.3435 -0.1132
  261MOL0     C35136  10.121   7.760   8.488 -0.8189  0.4912 -0.0210
  261MOL0     C35137  10.157   7.678   8.369 -0.3535 -0.0647 -0.1523
  261MOL0     C35138  10.043   7.640   8.277 -0.0956 -0.0380  0.9176
  261MOL0     C35139  10.076   7.526   8.182 -0.1107  0.0811  0.2566
  261MOL0     C35140   9.982   7.539   8.048  0.0876 -0.2456  0.0214
  261MOL0     C35141  10.020   7.652   7.953 -0.2431  0.4343  0.3848
  261MOL0     C35142  10.175   7.659   7.929 -0.6708 -0.1576  0.0510
  261MOL0     C35143  10.187   7.734   7.805  0.2930 -1.0016  1.2866
  261MOL0    Cl35144  10.132   7.627   7.670 -0.5583  0.1808 -0.2258
  261MOL0     C35145  10.028   7.453   8.595 -0.3032  0.2850  1.0106
  261MOL0     C35146  10.082   7.332   8.649 -0.3860 -0.2750  0.2191
  261MOL0     O35147  10.243   7.297   9.017 -0.0718  0.9011  0.2704
  261MOL0     C35148  10.292   7.033   9.125 -1.3991  0.5883 -0.0574
  261MOL0     C35149  10.318   6.897   9.161  0.7273  0.2371  0.6083
  261MOL0     N35150   9.804   6.456   8.985  0.4835  0.3463  0.1867
  261MOL0     N35151   9.758   6.351   8.926 -0.5826  1.0576 -0.2870
  261MOL0     C35152   9.590   5.108   8.742 -0.0956  1.2961  0.0146
  261MOL0     C35153   9.661   4.992   8.743  0.8210 -0.4291 -0.4455
  261MOL0     C35154  10.015   4.739   8.739 -0.3753 -0.6665 -0.7062
  261MOL0     C35155  10.080   4.713   8.616  0.1094 -0.0921  0.1746
  261MOL0     C35156  10.149   4.594   8.582 -0.9171 -0.1919 -0.7306
  261MOL0     C35157  10.160   4.498   8.677 -0.2904  0.2128  0.1717
  261MOL0     O35158  10.225   4.381   8.658 -0.1711 -0.0571 -0.0032
  261MOL0     C35159  10.295   4.348   8.542 -0.4707  0.7717 -0.1444
  261MOL0     C35160  10.432   4.415   8.539 -0.2375 -1.0321 -0.3848
  261MOL0     C35161  10.515   4.397   8.406 -0.4354  0.2469 -0.0149
  261MOL0     C35162  10.580   4.254   8.410  0.4510  0.7221  1.2684
  261MOL0     C35163  10.492   4.148   8.357 -0.6535  0.5684  0.3548
  261MOL0     C35164  10.416   4.056   8.323  0.6294 -0.2028  0.4227
  261MOL0     C35165  10.095   4.526   8.800  0.1659  0.2036  0.2035
  261MOL0     C35166  10.030   4.644   8.842  0.3208  0.1741  0.6169
  261MOL0     C35167   9.965   4.641   8.981 -0.0155 -1.0273  0.4664
  261MOL0     H35168   9.809   5.049   9.051  0.1489  0.3862  0.7562
  261MOL0     H35169   9.677   5.248   9.036 -2.8261  1.4610 -0.0776
  261MOL0     H35170   9.508   5.388   9.014  0.5842  0.0907  0.0338
  261MOL0     H35171   9.629   5.450   8.905 -1.6426  1.7871  1.0128
  261MOL0     H35172   9.341   5.540   8.881  0.5930 -0.4793  2.2667
  261MOL0     H35173   9.453   5.527   8.747  0.6197 -1.5635  1.0678
  261MOL0     H35174   9.464   5.746   8.824  3.3838  3.9077  2.0789
  261MOL0     H35175   9.618   5.670   8.863 -0.3525  0.4624 -0.1361
  261MOL0     H35176   9.381   5.735   9.044  0.2617 -1.0715  0.6317
  261MOL0     H35177   9.530   5.643   9.090 -1.9401 -0.5695  1.2772
  261MOL0     H35178   9.564   5.883   9.163  1.6802  5.6783 -1.6954
  261MOL0     H35179   9.665   5.824   9.046  0.8335  0.3848  2.9647
  261MOL0     H35180   9.529   5.964   8.874  2.2091 -0.4557  0.9713
  261MOL0     H35181   9.405   5.985   9.007  0.6424  1.1179 -0.4264
  261MOL0     H35182   9.577   6.120   9.136  1.8963 -1.8386  0.0940
  261MOL0     H35183   9.532   6.198   8.985  4.8125  1.3697 -3.4536
  261MOL0     H35184   9.783   6.040   9.034 -1.5292 -1.8427 -1.5322
  261MOL0     H35185   9.731   6.090   8.878  3.7818 -0.4980  1.3412
  261MOL0     H35186   9.876   6.236   9.206 -0.1210 -0.4235  0.2069
  261MOL0     H35187   9.889   6.602   9.199 -0.6984 -0.1285 -0.1460
  261MOL0     H35188   9.923   6.476   9.304  1.1527 -0.3203 -0.0459
  261MOL0     H35189  10.117   6.397   9.155 -0.6886  0.5720 -1.7177
  261MOL0     H35190  10.100   6.543   9.061  0.4091 -1.2485 -0.4364
  261MOL0     H35191  10.157   6.530   9.360 -0.2349 -1.3975 -0.8205
  261MOL0     H35192  10.108   6.675   9.288 -1.4893  0.6355  1.3367
  261MOL0     H35193  10.367   6.508   9.235 -1.2592 -0.7264  3.5339
  261MOL0     H35194  10.361   6.678   9.301 -3.5664  1.8956  0.5553
  261MOL0     H35195  10.330   6.743   8.865 -0.3881  1.6091 -1.0180
  261MOL0     H35196  10.322   6.976   8.779  1.4041 -2.4329 -0.2369
  261MOL0     H35197  10.310   7.466   8.859  0.3882  3.3434 -0.7378
  261MOL0     H35198  10.255   7.659   8.757  3.6298 -1.4121 -1.1723
  261MOL0     H35199  10.061   7.849   8.465 -0.7464  1.1808  2.2136
  261MOL0     H35200  10.207   7.803   8.540  1.9274 -0.6885 -3.2479
  261MOL0     H35201  10.230   7.738   8.313  0.1614  1.1703  1.7338
  261MOL0     H35202  10.213   7.586   8.383 -0.9297 -0.6993 -1.7483
  261MOL0     H35203   9.960   7.610   8.341  1.2268 -3.6925  1.1749
  261MOL0     H35204  10.014   7.730   8.223  1.1677 -0.0012  0.2735
  261MOL0     H35205  10.064   7.425   8.222 -2.7123  0.0471 -0.4120
  261MOL0     H35206  10.177   7.543   8.144  0.0167 -2.1133 -0.5665
  261MOL0     H35207   9.873   7.539   8.059  0.0464 -2.3754  0.0847
  261MOL0     H35208  10.001   7.450   7.987 -0.7835  1.8205 -3.5007
  261MOL0     H35209   9.970   7.644   7.856 -0.8956 -0.9843  0.8158
  261MOL0     H35210  10.000   7.750   7.995 -1.8474 -0.8728  2.9120
  261MOL0     H35211  10.221   7.560   7.933  0.1151  0.0316 -2.2802
  261MOL0     H35212  10.230   7.710   8.009  1.7166 -3.2873  0.5862
  261MOL0     H35213  10.130   7.827   7.814  2.1495  0.8304 -3.2631
  261MOL0     H35214  10.294   7.752   7.792  0.3451 -0.6237  2.1912
  261MOL0     H35215   9.949   7.445   8.520  0.8711 -3.3184 -0.0620
  261MOL0     H35216  10.030   7.243   8.612  0.9398 -2.1395  2.5633
  261MOL0     H35217  10.287   7.108   9.202 -3.5763 -1.8411  2.3705
  261MOL0     H35218  10.327   6.877   9.267  3.3009  1.8433  0.7898
  261MOL0     H35219   9.537   5.123   8.648  3.5847  2.6186 -2.0870
  261MOL0     H35220   9.658   4.932   8.652  2.1587 -0.3202 -0.5882
  261MOL0     H35221  10.073   4.795   8.545  1.8534  0.2650  0.3696
  261MOL0     H35222  10.193   4.568   8.486  3.0072 -3.7724  1.6452
  261MOL0     H35223  10.242   4.369   8.448 -0.3363 -0.4797 -0.5261
  261MOL0     H35224  10.305   4.239   8.544  2.6141  0.8401 -3.2030
  261MOL0     H35225  10.487   4.386   8.629  1.2129  1.1744 -0.4984
  261MOL0     H35226  10.427   4.522   8.558  5.8064 -0.8046  2.2572
  261MOL0     H35227  10.597   4.469   8.410  1.6165 -2.0111  0.9057
  261MOL0     H35228  10.462   4.411   8.312  0.9965  2.9365 -0.5208
  261MOL0     H35229  10.673   4.254   8.353  0.2333 -1.6945  0.7945
  261MOL0     H35230  10.599   4.223   8.513  0.5045 -0.3741  0.9474
  261MOL0     H35231  10.347   3.987   8.280 -0.3672  2.3248 -2.3712
  261MOL0     H35232  10.098   4.454   8.882  2.4897  1.6981  1.5312
  261MOL0     H35233   9.869   4.590   8.967 -0.3493 -0.1395 -0.6437
  261MOL0     H35234  10.018   4.571   9.046 -0.7288 -1.8338  0.2059
  261MOL0     H35235   9.956   4.741   9.025 -0.3108 -0.3726 -1.0235
  262MOL0     O35236   8.401   3.372  10.200 -0.0568 -0.1049  0.7960
  262MOL0     C35237   8.407   3.362  10.320  0.8270 -0.3706  0.0159
  262MOL0     O35238   8.513   3.384  10.399 -0.1576 -0.8185 -0.1481
  262MOL0     C35239   8.634   3.343  10.353 -0.4028 -0.1480 -0.4587
  262MOL0     C35240   8.671   3.258  10.247  0.7438  0.4729  0.0140
  262MOL0     C35241   8.806   3.225  10.223  0.2261 -0.4058  0.8607
  262MOL0     C35242   8.901   3.273  10.304  0.3830 -0.5930  0.5376
  262MOL0     O35243   9.037   3.248  10.292  0.2202  0.2515 -0.0507
  262MOL0     C35244   9.078   3.132  10.231  0.4708  0.4729 -0.4452
  262MOL0     C35245   9.225   3.110  10.248  0.4295 -0.7397  0.2368
  262MOL0     C35246   9.296   3.220  10.163  0.6765 -0.0304 -0.6164
  262MOL0     C35247   9.429   3.174  10.108 -0.1548  0.2956 -0.3987
  262MOL0     C35248   9.413   3.127   9.960 -0.0132  0.5651  0.4071
  262MOL0     C35249   9.388   3.253   9.867  0.4290  0.1469 -0.5416
  262MOL0     C35250   9.358   3.211   9.715 -0.3585  0.2326  0.1644
  262MOL0     C35251   9.321   3.340   9.638 -0.1873 -0.5879 -0.7519
  262MOL0     N35252   9.208   3.310   9.552 -0.0904  0.0392  0.1152
  262MOL0     C35253   9.077   3.301   9.595  0.3074 -0.3024 -0.3566
  262MOL0     C35254   9.008   3.273   9.482  0.0762  0.6155 -0.1239
  262MOL0     C35255   8.861   3.254   9.490  0.1365 -0.1437  0.5287
  262MOL0     C35256   8.830   3.099   9.499 -0.2966  0.4375  0.5553
  262MOL0     C35257   8.688   3.074   9.557  0.5148  0.0424  0.3563
  262MOL0     C35258   8.594   3.072   9.441  1.4482  0.4698  0.4852
  262MOL0     O35259   8.471   3.048   9.508  0.2315 -0.0929 -0.2293
  262MOL0     C35260   8.360   3.067   9.434  0.7882  0.1255  0.4310
  262MOL0     C35261   8.351   3.095   9.298  0.1823  0.3340  0.6273
  262MOL0     C35262   8.234   3.083   9.228  0.3490 -0.5816  0.8684
  262MOL0     C35263   8.114   3.068   9.300 -0.1843 -0.4000  0.1320
  262MOL0     C35264   7.988   3.049   9.228 -0.0419  0.6214  0.1513
  262MOL0     O35265   7.872   3.096   9.287  0.3256 -0.2485  0.9191
  262MOL0     C35266   7.754   3.040   9.242  0.3340 -0.0150  1.1592
  262MOL0     C35267   7.665   3.136   9.203  0.2247  0.3285 -0.0279
  262MOL0     C35268   7.522   3.105   9.194 -0.9535  0.2940 -0.8347
  262MOL0     C35269   7.469   2.972   9.212  0.2773 -0.4418 -0.5419
  262MOL0     O35270   7.336   2.942   9.215  0.8414  0.3066 -0.4481
  262MOL0     C35271   7.263   2.979   9.092 -0.6727  1.3023 -0.0524
  262MOL0     C35272   7.112   2.983   9.106  0.6460 -0.4136 -0.3591
  262MOL0     C35273   7.048   2.864   9.154  0.3550 -0.6916 -0.5078
  262MOL0     C35274   6.889   2.869   9.130  0.6539 -0.6443 -0.3871
  262MOL0     C35275   6.814   2.752   9.194 -1.0047 -1.2084  0.3322
  262MOL0     C35276   6.672   2.739   9.159  0.2417 -0.3039 -0.2686
  262MOL0     C35277   6.639   2.704   9.017  0.0677 -0.0006  0.1382
  262MOL0     C35278   6.516   2.772   8.958 -0.1940 -0.2218  0.1642
  262MOL0    Cl35279   6.366   2.751   9.052  0.1230  0.3253  0.2608
  262MOL0     C35280   7.569   2.877   9.252 -0.1021  0.3917 -0.4817
  262MOL0     C35281   7.705   2.912   9.270 -0.2087  0.0674 -0.7956
  262MOL0     O35282   7.995   2.990   9.122 -0.1311  0.5330 -0.3339
  262MOL0     C35283   8.117   3.066   9.439  0.6422 -0.6563 -0.2696
  262MOL0     C35284   8.238   3.057   9.501  0.1109 -0.8609 -0.1414
  262MOL0     N35285   9.092   3.283   9.372 -0.1729  0.3030 -0.0028
  262MOL0     N35286   9.216   3.293   9.416 -0.4564  0.1883 -0.0447
  262MOL0     C35287   8.871   3.372  10.400 -0.0913  0.7307  0.1343
  262MOL0     C35288   8.736   3.397  10.434 -0.9538  0.5731  0.6208
  262MOL0     C35289   8.281   3.334  10.387 -0.2521  0.0013  0.5391
  262MOL0     C35290   8.170   3.409  10.336 -0.6687  0.0677 -0.6630
  262MOL0     C35291   8.051   3.397  10.405 -0.8728 -0.5712 -0.4519
  262MOL0     C35292   8.041   3.305  10.507  1.1208  0.4925 -0.0694
  262MOL0     O35293   7.929   3.259  10.567 -0.1980 -0.3339 -0.2063
  262MOL0     C35294   7.841   3.362  10.605 -0.6391  0.4768 -0.7355
  262MOL0     C35295   7.750   3.306  10.718 -0.0256 -0.0955  0.4664
  262MOL0     C35296   7.658   3.416  10.774  0.0631  0.4304 -0.0033
  262MOL0     C35297   7.564   3.359  10.889 -0.1126  0.2337  0.4744
  262MOL0     C35298   7.466   3.269  10.823 -0.1447  0.3580 -0.1191
  262MOL0     C35299   7.368   3.214  10.774  0.4821  0.4192  0.4835
  262MOL0     C35300   8.150   3.243  10.561 -0.1560 -0.3393  0.5058
  262MOL0     C35301   8.273   3.247  10.495  0.4283  0.2646 -0.0819
  262MOL0     C35302   8.384   3.150  10.525  0.1867  0.3338  0.1883
  262MOL0     H35303   8.607   3.213  10.172  0.9842 -1.5147  0.9646
  262MOL0     H35304   8.838   3.163  10.140 -1.5217 -3.0161  1.9831
  262MOL0     H35305   9.018   3.055  10.281  0.7775  2.0277  2.5909
  262MOL0     H35306   9.055   3.133  10.125  3.0101 -1.3151 -1.0875
  262MOL0     H35307   9.252   3.015  10.201  4.5671  0.1596  0.3829
  262MOL0     H35308   9.257   3.108  10.352 -1.7947 -0.6744  0.9845
  262MOL0     H35309   9.321   3.296  10.237 -1.0633 -0.9007  0.9479
  262MOL0     H35310   9.232   3.260  10.083 -1.6762 -1.1891  0.5802
  262MOL0     H35311   9.503   3.254  10.105  0.7950 -0.6117 -2.1604
  262MOL0     H35312   9.471   3.091  10.166  0.4242  0.5362 -0.4730
  262MOL0     H35313   9.498   3.070   9.922 -1.4438  0.1319 -2.4312
  262MOL0     H35314   9.328   3.059   9.952 -1.6306  2.6974 -3.4502
  262MOL0     H35315   9.295   3.304   9.894 -0.3167 -1.0438 -0.8006
  262MOL0     H35316   9.462   3.332   9.883 -0.4603  0.7990  0.4195
  262MOL0     H35317   9.279   3.135   9.713 -1.7846  1.6007  1.5741
  262MOL0     H35318   9.444   3.168   9.663  0.7150  0.8629  1.3898
  262MOL0     H35319   9.296   3.422   9.706 -0.0839 -0.6208 -0.6746
  262MOL0     H35320   9.411   3.360   9.579 -0.8444 -1.3000 -2.0597
  262MOL0     H35321   9.048   3.299   9.699  3.9768 -0.5123  0.7971
  262MOL0     H35322   8.823   3.315   9.572 -0.6722 -1.3805  1.1062
  262MOL0     H35323   8.803   3.287   9.403  2.0404 -0.9606 -1.1394
  262MOL0     H35324   8.853   3.040   9.410 -3.7080 -0.6960  0.2785
  262MOL0     H35325   8.889   3.055   9.580 -0.2681 -0.1164  0.2341
  262MOL0     H35326   8.667   3.163   9.617 -1.0703 -1.0092  1.4260
  262MOL0     H35327   8.694   2.986   9.621  0.2379 -0.8802 -0.8477
  262MOL0     H35328   8.615   2.990   9.372 -1.7122  0.8651 -1.1127
  262MOL0     H35329   8.591   3.169   9.391  2.2382 -1.4340 -3.6773
  262MOL0     H35330   8.444   3.103   9.243  0.9347 -2.8292  1.2190
  262MOL0     H35331   8.238   3.096   9.120 -0.3965  1.0232  1.0103
  262MOL0     H35332   7.705   3.235   9.181 -0.1936  0.6370  0.5638
  262MOL0     H35333   7.454   3.178   9.152 -1.2558  0.1726 -0.5641
  262MOL0     H35334   7.281   3.085   9.073  0.8903  1.0136 -0.3224
  262MOL0     H35335   7.292   2.909   9.013 -0.5591 -2.5728  3.1030
  262MOL0     H35336   7.080   3.069   9.166  0.8999 -1.7437  1.8036
  262MOL0     H35337   7.074   2.993   9.004 -0.3320 -3.2314 -0.3625
  262MOL0     H35338   7.089   2.782   9.094  0.9606 -0.3559 -0.5646
  262MOL0     H35339   7.066   2.843   9.260  2.0256 -0.7079 -0.7699
  262MOL0     H35340   6.879   2.875   9.021  3.6119  0.4802 -0.6935
  262MOL0     H35341   6.839   2.956   9.174  0.7430 -1.3885  1.2741
  262MOL0     H35342   6.819   2.782   9.299 -2.3837 -1.0599  0.3757
  262MOL0     H35343   6.862   2.658   9.166  1.5974  0.4833 -1.4013
  262MOL0     H35344   6.620   2.674   9.230  1.0104 -2.4759 -1.5845
  262MOL0     H35345   6.629   2.838   9.178 -1.8181 -0.5868 -2.9321
  262MOL0     H35346   6.633   2.595   9.008  0.0003 -0.5016  4.3692
  262MOL0     H35347   6.716   2.734   8.946  0.4458 -3.3498 -1.0636
  262MOL0     H35348   6.532   2.880   8.946  4.7745 -0.4412  2.2107
  262MOL0     H35349   6.495   2.735   8.857 -1.1047  2.2274 -0.6351
  262MOL0     H35350   7.541   2.776   9.278  0.6897  0.4796  0.7916
  262MOL0     H35351   7.767   2.835   9.315  0.4504  1.2916  0.4685
  262MOL0     H35352   8.033   3.068   9.508  0.7490 -4.7403  0.2662
  262MOL0     H35353   8.245   3.051   9.609  1.8622  1.2931 -0.0672
  262MOL0     H35354   8.945   3.423  10.461  0.6202  0.6265 -0.6373
  262MOL0     H35355   8.716   3.458  10.521 -2.6266 -2.0049  2.1754
  262MOL0     H35356   8.192   3.477  10.254  0.7446 -0.3981 -0.7046
  262MOL0     H35357   7.960   3.445  10.370  0.4727  1.1090 -1.8302
  262MOL0     H35358   7.786   3.395  10.516 -0.7739  2.4287  0.0060
  262MOL0     H35359   7.903   3.445  10.642 -1.1936  1.3659 -1.7379
  262MOL0     H35360   7.821   3.265  10.790  0.2294 -0.6733 -0.1132
  262MOL0     H35361   7.691   3.229  10.669  3.0903 -2.1033 -0.3845
  262MOL0     H35362   7.599   3.471  10.700 -2.0674  2.9159  3.2871
  262MOL0     H35363   7.728   3.489  10.815  2.1668 -0.9626 -0.9000
  262MOL0     H35364   7.624   3.296  10.955  1.7723 -0.1781 -1.5214
  262MOL0     H35365   7.519   3.447  10.935  1.3396  1.0069  0.4648
  262MOL0     H35366   7.280   3.170  10.733 -0.4360  0.5968  2.1474
  262MOL0     H35367   8.138   3.169  10.640  2.2844 -2.7708 -1.2168
  262MOL0     H35368   8.476   3.206  10.543  0.5559  0.5021 -1.9911
  262MOL0     H35369   8.358   3.085  10.609  0.2702  1.5418  1.1658
  262MOL0     H35370   8.405   3.086  10.439  2.8212 -2.0802  2.4142
  263MOL0     O35371   2.234   2.333   5.807 -0.4443  0.1704  0.3531
  263MOL0     C35372   2.289   2.357   5.702 -0.4789  0.7042  0.1169
  263MOL0     O35373   2.427   2.382   5.695  0.4645  0.0298  0.4719
  263MOL0     C35374   2.503   2.323   5.789  0.1322 -0.9013 -0.2315
  263MOL0     C35375   2.559   2.199   5.762 -0.2998  0.3911  1.0950
  263MOL0     C35376   2.657   2.142   5.853  0.0932  0.2476  0.0189
  263MOL0     C35377   2.689   2.197   5.970 -0.8454 -0.8724 -0.1729
  263MOL0     O35378   2.781   2.130   6.053 -1.0152 -0.0889  0.8384
  263MOL0     C35379   2.845   2.189   6.165  0.0895  0.2658  0.2612
  263MOL0     C35380   2.938   2.297   6.110 -0.3197 -0.5372  0.6697
  263MOL0     C35381   2.991   2.368   6.226  0.0162 -0.2603  0.0559
  263MOL0     C35382   3.112   2.291   6.289  0.1717 -0.6132 -0.5290
  263MOL0     C35383   3.204   2.384   6.364 -0.3094  0.0090  0.5572
  263MOL0     C35384   3.314   2.313   6.449  0.6058  0.4447  0.3715
  263MOL0     C35385   3.257   2.217   6.549  0.0252 -0.0015  0.2411
  263MOL0     C35386   3.375   2.161   6.640  0.7835  0.4369  0.2022
  263MOL0     N35387   3.410   2.262   6.740 -0.8665 -0.4284 -0.4301
  263MOL0     C35388   3.328   2.296   6.844  0.0674 -0.3412 -0.4385
  263MOL0     C35389   3.400   2.381   6.920  0.0998 -0.1087  0.0560
  263MOL0     C35390   3.350   2.459   7.036  0.3750 -0.2881  0.1732
  263MOL0     C35391   3.391   2.600   7.020  0.2173 -0.9634  0.3389
  263MOL0     C35392   3.331   2.683   7.127 -0.2652 -0.6153 -0.5806
  263MOL0     C35393   3.349   2.831   7.102  0.2858 -0.5973 -1.1079
  263MOL0     O35394   3.285   2.902   7.221 -0.4988 -0.2266  0.3172
  263MOL0     C35395   3.147   2.913   7.224  0.1039 -0.6719 -0.7692
  263MOL0     C35396   3.056   2.884   7.118 -0.1647 -0.1543 -1.0489
  263MOL0     C35397   2.913   2.910   7.140 -0.3168  0.1603  0.6430
  263MOL0     C35398   2.858   2.951   7.262 -0.4706  0.4902 -0.6847
  263MOL0     C35399   2.714   2.982   7.284  0.0571 -0.2328  0.1098
  263MOL0     O35400   2.672   3.014   7.412 -0.3238  0.0958 -0.5592
  263MOL0     C35401   2.534   3.017   7.440 -0.9369  0.0658  0.0064
  263MOL0     C35402   2.493   2.927   7.534  0.2229 -0.4845 -0.0589
  263MOL0     C35403   2.364   2.922   7.579 -0.3158  0.1110  0.3753
  263MOL0     C35404   2.273   3.009   7.512  0.0245  0.3294 -0.8844
  263MOL0     O35405   2.137   3.011   7.548 -0.8245 -0.0121 -0.1982
  263MOL0     C35406   2.075   2.886   7.583 -0.1190  0.1856  0.2416
  263MOL0     C35407   1.919   2.886   7.563 -0.0114 -0.8888  0.6744
  263MOL0     C35408   1.840   2.865   7.695  0.7326 -0.0574 -0.7075
  263MOL0     C35409   1.860   2.959   7.817 -0.3622 -0.4098 -0.6378
  263MOL0     C35410   1.827   2.897   7.960 -0.2928 -0.2067  0.5680
  263MOL0     C35411   1.925   2.796   8.011  0.5898  0.2736 -0.5308
  263MOL0     C35412   1.895   2.702   8.131 -0.0549  0.5973 -0.1845
  263MOL0     C35413   1.936   2.768   8.256  0.4089 -1.0538 -1.2935
  263MOL0    Cl35414   1.865   2.693   8.402  0.1172  0.2437  0.5024
  263MOL0     C35415   2.313   3.112   7.418 -0.2663  0.9503  0.3103
  263MOL0     C35416   2.447   3.114   7.384  0.0595 -1.0196  0.0961
  263MOL0     O35417   2.634   2.969   7.194 -0.6485 -0.8013  0.2488
  263MOL0     C35418   2.950   2.974   7.367  1.3636 -0.0639 -0.1040
  263MOL0     C35419   3.092   2.964   7.346 -1.0211  0.5565 -0.2411
  263MOL0     N35420   3.522   2.388   6.871 -0.7531  1.3064 -0.4340
  263MOL0     N35421   3.540   2.302   6.773  0.1655  0.6282 -0.9095
  263MOL0     C35422   2.636   2.324   6.005 -0.8467 -0.3993  0.3008
  263MOL0     C35423   2.552   2.389   5.917  0.2722 -0.7480 -0.2026
  263MOL0     C35424   2.203   2.393   5.586  0.5069 -0.0370  1.1300
  263MOL0     C35425   2.071   2.435   5.605 -0.7559  0.4411  0.3038
  263MOL0     C35426   1.989   2.465   5.491  0.3121 -0.3734  0.0907
  263MOL0     C35427   2.044   2.463   5.356  0.4449  0.1236  0.6361
  263MOL0     O35428   1.957   2.499   5.252 -0.2930  0.0793 -0.1003
  263MOL0     C35429   2.020   2.567   5.148  0.4109 -0.2647 -0.3655
  263MOL0     C35430   1.912   2.646   5.066  0.7920  0.9071 -0.1464
  263MOL0     C35431   1.845   2.756   5.155  0.4800 -0.4287  0.2049
  263MOL0     C35432   1.876   2.896   5.094  0.2310 -0.2681 -0.0968
  263MOL0     C35433   2.015   2.941   5.114  1.2454 -0.6154  0.1686
  263MOL0     C35434   2.125   2.980   5.117 -0.3283 -0.4156 -0.0985
  263MOL0     C35435   2.176   2.413   5.341  0.9769 -0.4480 -0.6125
  263MOL0     C35436   2.255   2.380   5.451 -0.0316 -0.0119 -0.4563
  263MOL0     C35437   2.392   2.336   5.414  0.0663 -0.1131 -0.0422
  263MOL0     H35438   2.541   2.152   5.666  3.6759  1.1505 -0.1874
  263MOL0     H35439   2.699   2.044   5.836 -0.0005 -0.1690  1.9843
  263MOL0     H35440   2.770   2.220   6.239  0.4051  1.0058  0.2886
  263MOL0     H35441   2.908   2.112   6.211 -1.2330  0.4334  2.4865
  263MOL0     H35442   2.893   2.373   6.046  2.0265 -1.0948 -1.8476
  263MOL0     H35443   3.017   2.254   6.048 -1.7934  0.2626 -1.8798
  263MOL0     H35444   2.904   2.380   6.290 -3.0255 -4.6207 -2.6966
  263MOL0     H35445   3.019   2.468   6.192 -1.6779 -0.1227 -1.0298
  263MOL0     H35446   3.059   2.229   6.363 -0.1597 -0.6459 -0.7912
  263MOL0     H35447   3.166   2.235   6.212 -2.6633 -0.4486 -2.7926
  263MOL0     H35448   3.251   2.459   6.298 -0.1595 -1.4478 -1.0524
  263MOL0     H35449   3.133   2.445   6.422  0.0740  0.7901  0.2242
  263MOL0     H35450   3.369   2.248   6.380 -3.8852 -2.4263 -0.9406
  263MOL0     H35451   3.380   2.392   6.486  1.7243  0.7002 -1.9919
  263MOL0     H35452   3.217   2.132   6.494 -1.2244  0.9606 -0.3880
  263MOL0     H35453   3.169   2.255   6.601 -0.3379  2.0603 -1.7208
  263MOL0     H35454   3.339   2.082   6.706 -1.8996  0.7707 -0.7337
  263MOL0     H35455   3.465   2.122   6.592  0.7755  0.5913  0.0581
  263MOL0     H35456   3.221   2.287   6.859  0.3025 -0.0857  1.9194
  263MOL0     H35457   3.242   2.463   7.058  0.2113  1.1857 -0.7823
  263MOL0     H35458   3.394   2.412   7.124 -0.9125 -2.5629 -0.2956
  263MOL0     H35459   3.500   2.609   7.019  0.1882  0.6867  2.8656
  263MOL0     H35460   3.347   2.638   6.927 -1.1050  2.5645  2.2174
  263MOL0     H35461   3.385   2.663   7.220  0.8385  0.2530 -1.0061
  263MOL0     H35462   3.224   2.666   7.136  0.0207 -1.7339  1.3571
  263MOL0     H35463   3.309   2.870   7.008 -0.9573 -1.1109 -0.8061
  263MOL0     H35464   3.454   2.855   7.121 -1.1269  3.6436  3.6654
  263MOL0     H35465   3.095   2.850   7.023 -0.8165 -2.7836 -0.4432
  263MOL0     H35466   2.846   2.890   7.057  0.9116 -0.2269 -0.2801
  263MOL0     H35467   2.568   2.861   7.577  1.2260  0.6814  0.0627
  263MOL0     H35468   2.326   2.850   7.650 -1.5865  0.8422  0.4480
  263MOL0     H35469   2.125   2.813   7.519  0.3066 -1.3406  2.1978
  263MOL0     H35470   2.104   2.854   7.684 -0.6278  1.8363  0.9431
  263MOL0     H35471   1.892   2.972   7.501 -0.8401 -0.7596  1.1969
  263MOL0     H35472   1.902   2.796   7.503 -0.6206 -0.6902  0.5448
  263MOL0     H35473   1.733   2.862   7.675 -0.0161 -2.4760  2.8160
  263MOL0     H35474   1.851   2.762   7.731 -1.5039  0.0512  0.4267
  263MOL0     H35475   1.799   3.047   7.796  3.7907  2.6092 -1.3063
  263MOL0     H35476   1.961   2.998   7.826 -0.9137  0.8957  0.2616
  263MOL0     H35477   1.732   2.844   7.949  0.9250 -3.0780  2.7056
  263MOL0     H35478   1.819   2.975   8.037 -0.2243  2.4146 -1.8822
  263MOL0     H35479   1.925   2.720   7.932 -1.2868 -0.1610 -0.1480
  263MOL0     H35480   2.024   2.842   8.018  2.1013 -2.8306  0.2486
  263MOL0     H35481   1.961   2.616   8.135 -0.4635  0.2035 -1.4040
  263MOL0     H35482   1.792   2.664   8.132 -0.0103  0.4285 -1.0388
  263MOL0     H35483   2.044   2.785   8.262 -0.1138  2.6512  0.6497
  263MOL0     H35484   1.899   2.871   8.250 -1.2340 -1.5038  0.1837
  263MOL0     H35485   2.246   3.185   7.373 -0.8048  1.9301  2.5425
  263MOL0     H35486   2.491   3.187   7.317  0.2829 -0.7662  0.5144
  263MOL0     H35487   2.911   3.013   7.460  1.1823 -3.1830  1.2574
  263MOL0     H35488   3.168   2.987   7.421 -1.4965 -0.6429  0.6396
  263MOL0     H35489   2.648   2.374   6.101 -2.0061  0.1821  0.1706
  263MOL0     H35490   2.511   2.487   5.940  2.5945 -0.1905  1.9048
  263MOL0     H35491   2.025   2.441   5.703  0.6239  3.9283  0.8914
  263MOL0     H35492   1.884   2.490   5.507  0.5754  0.2006  1.0015
  263MOL0     H35493   2.072   2.496   5.083 -0.3451  1.3192 -2.8449
  263MOL0     H35494   2.092   2.641   5.184 -2.5775  1.8710  1.7770
  263MOL0     H35495   1.839   2.570   5.035 -1.4399  2.3406  1.2512
  263MOL0     H35496   1.969   2.684   4.981 -1.8041 -1.0700 -2.9979
  263MOL0     H35497   1.875   2.759   5.260  1.9771 -0.0608 -0.2169
  263MOL0     H35498   1.739   2.728   5.155  0.2251  0.2582  2.9371
  263MOL0     H35499   1.858   2.878   4.987 -1.8178  0.0072  0.1633
  263MOL0     H35500   1.813   2.976   5.134 -0.5012 -1.2391  0.7391
  263MOL0     H35501   2.219   3.031   5.110 -0.3730  0.4060  3.4899
  263MOL0     H35502   2.224   2.414   5.244  0.2220  2.8194 -1.0740
  263MOL0     H35503   2.426   2.256   5.481 -2.5823 -0.6619  0.7743
  263MOL0     H35504   2.401   2.308   5.308  2.4253  1.3527 -0.2936
  263MOL0     H35505   2.462   2.418   5.428  2.0873 -2.1865  3.2899
  264MOL0     O35506   6.430   0.472   1.728 -0.7476  0.3740 -0.0212
  264MOL0     C35507   6.459   0.494   1.607  0.5238 -0.7233 -0.8106
  264MOL0     O35508   6.441   0.618   1.548  0.0292  1.2677  0.3055
  264MOL0     C35509   6.395   0.723   1.621  0.1832 -0.8682 -0.1703
  264MOL0     C35510   6.464   0.848   1.605  0.4892  0.4955  0.8250
  264MOL0     C35511   6.426   0.959   1.676 -0.4686  0.2653 -0.6727
  264MOL0     C35512   6.317   0.954   1.764  0.0198  0.4652  0.7532
  264MOL0     O35513   6.285   1.070   1.819  0.1306 -0.0400  0.5385
  264MOL0     C35514   6.193   1.152   1.739  1.2948  0.4831  0.1515
  264MOL0     C35515   6.209   1.300   1.773  0.0766  0.2547 -0.5306
  264MOL0     C35516   6.210   1.317   1.930 -0.6336 -0.2551 -0.3477
  264MOL0     C35517   6.078   1.293   1.994 -0.2511 -0.5634 -0.4442
  264MOL0     C35518   6.082   1.307   2.146 -0.0765  0.1588 -0.6025
  264MOL0     C35519   5.944   1.337   2.213 -0.7024 -0.0765 -0.1501
  264MOL0     C35520   5.902   1.230   2.308 -0.1329  0.3521  0.4696
  264MOL0     C35521   5.776   1.276   2.381  0.4632 -0.4328 -0.3726
  264MOL0     N35522   5.658   1.266   2.305  0.6702 -0.2024 -0.0589
  264MOL0     C35523   5.554   1.179   2.317  1.0473  0.2318  0.0004
  264MOL0     C35524   5.457   1.229   2.239 -0.8491  0.1428 -0.5731
  264MOL0     C35525   5.316   1.180   2.227 -0.0782  0.5265 -0.7238
  264MOL0     C35526   5.232   1.293   2.167 -0.2151 -0.8293 -0.6324
  264MOL0     C35527   5.218   1.293   2.014 -1.4592  0.9324 -0.4586
  264MOL0     C35528   5.160   1.159   1.954  0.4356 -0.1960 -0.0217
  264MOL0     O35529   5.022   1.140   2.008  0.1369 -0.1879  0.2121
  264MOL0     C35530   4.915   1.206   1.948 -0.2513  0.7120 -0.7303
  264MOL0     C35531   4.789   1.197   2.018  0.0134  0.5684  0.2374
  264MOL0     C35532   4.676   1.252   1.964  0.6743 -0.5408 -0.2149
  264MOL0     C35533   4.673   1.312   1.840  0.5985  0.3587 -1.3164
  264MOL0     C35534   4.551   1.367   1.780  0.2255  0.4190  0.7745
  264MOL0     O35535   4.546   1.396   1.643 -1.1489  0.2111  0.4724
  264MOL0     C35536   4.437   1.468   1.598  0.2196  0.5325 -0.2822
  264MOL0     C35537   4.453   1.600   1.560  0.5569 -0.4554 -0.0626
  264MOL0     C35538   4.351   1.671   1.492  0.6387  0.1712 -0.7825
  264MOL0     C35539   4.234   1.599   1.467  0.1309 -0.2809  0.4061
  264MOL0     O35540   4.129   1.640   1.396  0.5567 -0.0065  0.7306
  264MOL0     C35541   4.086   1.780   1.400  0.9827 -0.5564  0.5582
  264MOL0     C35542   3.999   1.834   1.521  0.0207  0.2900  0.0230
  264MOL0     C35543   4.045   1.971   1.577 -0.9355 -0.7334  0.0578
  264MOL0     C35544   4.182   1.962   1.645  0.0234 -0.4017  0.0763
  264MOL0     C35545   4.178   1.863   1.758  0.1394 -0.5213  0.4557
  264MOL0     C35546   4.307   1.870   1.839 -0.0023 -0.0366  0.7057
  264MOL0     C35547   4.295   1.765   1.954 -1.1397 -0.1317  0.7097
  264MOL0     C35548   4.410   1.759   2.053 -1.6234 -0.0588  0.2902
  264MOL0    Cl35549   4.532   1.640   2.006 -0.0233  0.0677  0.1560
  264MOL0     C35550   4.226   1.463   1.497 -0.2752 -0.7810 -0.5869
  264MOL0     C35551   4.328   1.401   1.549 -0.2663  0.6668  0.0935
  264MOL0     O35552   4.461   1.379   1.857 -0.3249 -0.5682  1.5177
  264MOL0     C35553   4.797   1.327   1.778 -0.2190 -0.1491 -0.3519
  264MOL0     C35554   4.913   1.272   1.823 -0.1434 -0.5637 -0.3075
  264MOL0     N35555   5.503   1.346   2.179 -0.2742  0.6194 -0.7224
  264MOL0     N35556   5.619   1.376   2.233  0.3741  0.2704  1.1611
  264MOL0     C35557   6.242   0.835   1.777  0.2316 -0.4814 -0.0135
  264MOL0     C35558   6.288   0.720   1.709  0.0610  0.4663 -0.1429
  264MOL0     C35559   6.517   0.386   1.522 -0.2981  0.3947 -0.1006
  264MOL0     C35560   6.523   0.400   1.378 -0.3668 -0.9683 -0.7953
  264MOL0     C35561   6.564   0.297   1.299 -1.2007  1.4005  0.3299
  264MOL0     C35562   6.591   0.166   1.343  0.1792 -0.4767  0.4675
  264MOL0     O35563   6.610   0.072   1.250 -0.2541  0.4208 -0.6411
  264MOL0     C35564   6.642  -0.063   1.288 -0.3189  0.5737  0.5853
  264MOL0     C35565   6.714  -0.135   1.171  0.1998 -0.2897 -1.1121
  264MOL0     C35566   6.832  -0.067   1.119  0.5009 -0.3255 -0.3616
  264MOL0     C35567   6.882  -0.139   1.003  0.4713  0.9910  0.6259
  264MOL0     C35568   6.930  -0.269   1.042  0.0218 -1.1743 -0.3511
  264MOL0     C35569   6.952  -0.378   1.076  0.5677  0.1986 -0.5167
  264MOL0     C35570   6.595   0.154   1.477 -0.2846  0.5538 -1.3739
  264MOL0     C35571   6.566   0.262   1.573 -0.5316  0.2811  0.7890
  264MOL0     C35572   6.569   0.203   1.711  0.1880 -0.0949  0.3900
  264MOL0     H35573   6.544   0.851   1.533 -0.1306 -0.6386  0.0467
  264MOL0     H35574   6.476   1.054   1.659  0.5630 -0.1500  0.0095
  264MOL0     H35575   6.210   1.142   1.632  4.1824 -2.2519  0.7440
  264MOL0     H35576   6.089   1.121   1.756  2.0114 -1.1163  1.9191
  264MOL0     H35577   6.123   1.358   1.737 -2.1651 -2.8169 -0.5489
  264MOL0     H35578   6.301   1.341   1.731 -0.2811  0.3211 -1.2656
  264MOL0     H35579   6.237   1.421   1.948  1.5315 -0.3848 -2.4627
  264MOL0     H35580   6.290   1.251   1.963  2.1280  2.4153 -1.2461
  264MOL0     H35581   6.010   1.366   1.950  1.0840  1.7542  1.1054
  264MOL0     H35582   6.044   1.192   1.972 -1.2306 -0.1220 -1.0034
  264MOL0     H35583   6.118   1.214   2.191  1.8853  2.1599  2.4051
  264MOL0     H35584   6.158   1.377   2.185  0.8474 -1.6825  1.0655
  264MOL0     H35585   5.967   1.432   2.261 -1.5409  0.4525 -0.7633
  264MOL0     H35586   5.873   1.346   2.131 -1.1471  0.2198  0.2582
  264MOL0     H35587   5.977   1.223   2.387  2.0684  0.7875 -1.4874
  264MOL0     H35588   5.885   1.141   2.245  2.0393  0.4936 -0.4226
  264MOL0     H35589   5.762   1.226   2.477  0.6645  1.6705  0.8194
  264MOL0     H35590   5.783   1.382   2.408  0.7146 -0.4525 -0.3578
  264MOL0     H35591   5.547   1.085   2.372 -0.1708 -0.1356 -0.7454
  264MOL0     H35592   5.315   1.086   2.171  0.8109  0.8172 -1.2533
  264MOL0     H35593   5.278   1.156   2.327 -1.7976 -2.0900 -1.8964
  264MOL0     H35594   5.132   1.278   2.210  0.4647  0.7617  1.7066
  264MOL0     H35595   5.259   1.396   2.193 -0.2393 -1.0784  0.4237
  264MOL0     H35596   5.323   1.302   1.983 -1.2921 -0.1368 -0.2388
  264MOL0     H35597   5.166   1.384   1.981  0.7899  1.8285 -1.7919
  264MOL0     H35598   5.229   1.079   1.979  1.9181  1.7697  2.6691
  264MOL0     H35599   5.171   1.163   1.845 -3.0475  0.8204 -0.4628
  264MOL0     H35600   4.778   1.146   2.113  0.2958  1.1851  0.6094
  264MOL0     H35601   4.584   1.249   2.022  0.3041  2.3742 -0.4666
  264MOL0     H35602   4.547   1.645   1.591  0.1140  3.5681 -3.6885
  264MOL0     H35603   4.368   1.773   1.460  1.9329  0.6678  1.2702
  264MOL0     H35604   4.172   1.845   1.383 -1.4226  2.6329 -0.4033
  264MOL0     H35605   4.027   1.781   1.308  1.2246  0.2527  0.4058
  264MOL0     H35606   3.902   1.851   1.475  1.0003 -1.4353 -2.9018
  264MOL0     H35607   3.989   1.761   1.602 -0.1331 -0.6587 -0.8396
  264MOL0     H35608   4.048   2.042   1.495  1.5831 -1.1147 -0.2497
  264MOL0     H35609   3.978   2.004   1.658  1.3381  2.5890  0.7822
  264MOL0     H35610   4.192   2.065   1.682 -3.0255  0.3809 -0.9356
  264MOL0     H35611   4.266   1.944   1.577  1.7308  5.8988 -0.1363
  264MOL0     H35612   4.177   1.761   1.718  3.6652  0.2403 -2.1269
  264MOL0     H35613   4.096   1.887   1.826 -0.4891 -1.0823 -0.0981
  264MOL0     H35614   4.393   1.861   1.773  0.1924 -2.2619  1.1947
  264MOL0     H35615   4.298   1.973   1.875 -1.0033  0.1568 -0.0456
  264MOL0     H35616   4.282   1.665   1.911 -0.5000 -0.6947  1.7791
  264MOL0     H35617   4.202   1.802   1.999 -1.8538 -0.2757 -0.5940
  264MOL0     H35618   4.462   1.853   2.033 -0.8981 -1.0246 -2.9332
  264MOL0     H35619   4.359   1.747   2.149 -2.5640  1.8755  0.0713
  264MOL0     H35620   4.142   1.405   1.460  3.1065 -4.0434 -4.0857
  264MOL0     H35621   4.330   1.293   1.559  1.2223  0.6047 -0.5850
  264MOL0     H35622   4.802   1.375   1.681  0.2169  0.2888 -0.1202
  264MOL0     H35623   5.010   1.277   1.776  0.8650 -2.2662  1.4516
  264MOL0     H35624   6.164   0.825   1.851 -1.7669 -0.3611 -2.0166
  264MOL0     H35625   6.238   0.629   1.741  0.1078  1.2044  2.2497
  264MOL0     H35626   6.502   0.500   1.342  0.8377  0.0562  1.1831
  264MOL0     H35627   6.561   0.307   1.191  1.8588  3.2032  0.2840
  264MOL0     H35628   6.558  -0.120   1.329  1.9584 -1.9789  1.9792
  264MOL0     H35629   6.715  -0.068   1.369 -1.6084 -0.6641  1.7208
  264MOL0     H35630   6.650  -0.150   1.084 -1.6433 -2.8165  0.5591
  264MOL0     H35631   6.738  -0.234   1.211  2.0418 -0.2995 -2.1524
  264MOL0     H35632   6.910  -0.055   1.195  2.9058  1.8427 -2.9284
  264MOL0     H35633   6.802   0.032   1.084  0.6001  0.0719  0.6400
  264MOL0     H35634   6.806  -0.140   0.925 -2.4318 -1.3387  3.2049
  264MOL0     H35635   6.968  -0.090   0.957  1.4473 -1.7787 -0.7137
  264MOL0     H35636   6.967  -0.481   1.101  1.1906  1.0837  3.4559
  264MOL0     H35637   6.627   0.058   1.514  0.3794  1.0530 -0.6245
  264MOL0     H35638   6.562   0.280   1.788  1.7339 -0.2589  0.7090
  264MOL0     H35639   6.479   0.140   1.717 -0.2974  0.3999 -1.0691
  264MOL0     H35640   6.651   0.134   1.732 -1.9989 -2.3676  2.1291
  265MOL0     O35641  10.103  10.095   0.947 -0.0009 -0.2305 -0.1467
  265MOL0     C35642  10.068  10.029   1.040 -0.3636  0.4670 -0.2042
  265MOL0     O35643  10.071  10.069   1.175  0.1306  0.1661  0.2283
  265MOL0     C35644  10.157  10.165   1.212  0.4718  0.7073  0.4278
  265MOL0     C35645  10.250  10.247   1.138  0.7934 -0.0118 -0.5424
  265MOL0     C35646  10.346  10.334   1.203  0.1411 -0.2787 -0.4826
  265MOL0     C35647  10.344  10.353   1.340  0.2631  0.8580  0.4513
  265MOL0     O35648  10.423  10.455   1.394  0.3918 -0.0320 -0.8268
  265MOL0     C35649  10.558  10.449   1.364  1.1615  0.0041  0.1786
  265MOL0     C35650  10.669  10.510   1.459  0.2306 -0.0565  0.6345
  265MOL0     C35651  10.804  10.516   1.391 -0.3595  0.2091  0.3213
  265MOL0     C35652  10.889  10.644   1.402 -0.0605  0.0104 -0.9411
  265MOL0     C35653  10.909  10.705   1.546 -0.1221  0.1575 -0.1884
  265MOL0     C35654  10.977  10.599   1.635  0.1403  0.2499  0.3682
  265MOL0     C35655  11.128  10.570   1.608 -0.3606 -0.9877  1.3640
  265MOL0     C35656  11.227  10.674   1.658 -0.0348  0.9596 -0.8098
  265MOL0     N35657  11.362  10.630   1.624 -0.2990 -0.6260 -0.8521
  265MOL0     C35658  11.391  10.530   1.526  0.3516  0.1960  1.1598
  265MOL0     C35659  11.526  10.512   1.525 -0.6587  0.3192  0.4594
  265MOL0     C35660  11.616  10.421   1.439  0.4662  0.8152  0.2832
  265MOL0     C35661  11.725  10.514   1.364  0.6430 -0.1478 -0.3522
  265MOL0     C35662  11.845  10.539   1.449  0.1727  0.2136 -0.6411
  265MOL0     C35663  11.952  10.618   1.374  0.3541  0.0041 -0.2309
  265MOL0     O35664  12.006  10.537   1.264 -0.2221  0.9150 -0.4468
  265MOL0     C35665  12.025  10.603   1.147 -0.0754 -0.5759 -0.8436
  265MOL0     C35666  12.164  10.619   1.109 -0.2778  0.4416 -0.4521
  265MOL0     C35667  12.190  10.695   0.995 -0.8396  0.7785 -0.0751
  265MOL0     C35668  12.091  10.728   0.903  0.2302  0.0773  0.7205
  265MOL0     C35669  12.117  10.803   0.786  0.0882 -0.4157  0.0150
  265MOL0     O35670  12.221  10.896   0.806  0.4734 -0.3177 -0.3075
  265MOL0     C35671  12.256  10.973   0.701  0.3999  0.6083  0.3586
  265MOL0     C35672  12.182  11.071   0.628 -0.9389  0.6744 -0.4694
  265MOL0     C35673  12.246  11.161   0.540  0.4060 -0.4455  0.4440
  265MOL0     C35674  12.378  11.144   0.502  0.3974 -0.3782 -0.7427
  265MOL0     O35675  12.418  11.210   0.391  0.3030  1.0331  0.5788
  265MOL0     C35676  12.417  11.356   0.412 -0.3000  1.3391 -0.8481
  265MOL0     C35677  12.549  11.398   0.465  0.7535  0.2861  0.5219
  265MOL0     C35678  12.671  11.367   0.375 -0.0865 -1.0009  0.5415
  265MOL0     C35679  12.801  11.343   0.452  0.0322  0.0630 -0.2167
  265MOL0     C35680  12.903  11.279   0.362  0.2560  0.4234  0.3893
  265MOL0     C35681  13.044  11.244   0.416 -0.0659 -0.8163 -0.2765
  265MOL0     C35682  13.136  11.370   0.443  0.4345  1.0684  0.1181
  265MOL0     C35683  13.264  11.317   0.508  0.2033  0.7010 -0.7188
  265MOL0    Cl35684  13.265  11.320   0.693  0.5533  0.2136  0.0536
  265MOL0     C35685  12.446  11.044   0.565 -0.3178 -0.5207 -0.1645
  265MOL0     C35686  12.392  10.965   0.659 -0.6040 -0.3063 -0.0503
  265MOL0     O35687  12.041  10.807   0.689  0.1567 -0.2956  0.1976
  265MOL0     C35688  11.954  10.696   0.936  0.4684 -0.4174 -0.2523
  265MOL0     C35689  11.924  10.636   1.060  0.4088 -0.7708  0.9892
  265MOL0     N35690  11.580  10.610   1.608  0.2023 -0.7710  0.1267
  265MOL0     N35691  11.481  10.683   1.673 -0.3663  0.7944  0.3267
  265MOL0     C35692  10.261  10.268   1.416  0.9304 -0.3234  0.3471
  265MOL0     C35693  10.178  10.176   1.349  0.6774 -0.6717 -0.2695
  265MOL0     C35694  10.008   9.895   1.023  0.5166 -0.1051 -0.0601
  265MOL0     C35695   9.976   9.822   1.141 -0.7638 -0.2126 -0.4484
  265MOL0     C35696   9.918   9.687   1.122 -0.0970 -0.5784  0.4628
  265MOL0     C35697   9.898   9.631   0.999 -0.0739 -0.5563  1.6012
  265MOL0     O35698   9.853   9.507   1.005 -0.0485  0.3437  0.2127
  265MOL0     C35699   9.871   9.406   0.897 -0.7947  0.4076 -0.0192
  265MOL0     C35700   9.799   9.273   0.940  0.1458 -0.3463  0.9192
  265MOL0     C35701   9.819   9.246   1.090  0.0034 -0.0046 -0.2341
  265MOL0     C35702   9.693   9.283   1.173 -0.7193 -0.2615  0.9039
  265MOL0     C35703   9.733   9.343   1.298 -0.1718 -1.1023 -0.5709
  265MOL0     C35704   9.748   9.417   1.395  0.6305  0.6848 -1.2727
  265MOL0     C35705   9.935   9.709   0.880 -0.0500  0.6055 -0.1592
  265MOL0     C35706   9.968   9.845   0.890 -0.0221  0.5141  0.5236
  265MOL0     C35707   9.991   9.906   0.758 -0.2784  0.7094  0.0749
  265MOL0     H35708  10.253  10.257   1.030  0.2035 -1.0533 -0.6583
  265MOL0     H35709  10.397  10.407   1.141 -2.4688  1.2574 -1.0074
  265MOL0     H35710  10.600  10.354   1.330  1.0962  0.2717 -0.6618
  265MOL0     H35711  10.562  10.505   1.270  1.6735  0.5465  0.5181
  265MOL0     H35712  10.681  10.438   1.541  1.3241  0.7926  1.2446
  265MOL0     H35713  10.642  10.613   1.483 -1.6744 -0.2352 -0.5476
  265MOL0     H35714  10.805  10.479   1.289  0.0609 -4.1991  1.7180
  265MOL0     H35715  10.866  10.437   1.435  0.2075  0.8957  0.7754
  265MOL0     H35716  10.988  10.629   1.359  1.3902  0.1045  2.0653
  265MOL0     H35717  10.858  10.723   1.333  2.6936  0.9843 -1.1773
  265MOL0     H35718  10.967  10.797   1.538 -0.1185  0.1372 -0.4032
  265MOL0     H35719  10.820  10.747   1.593  1.2683  1.8522  1.0439
  265MOL0     H35720  10.969  10.635   1.738 -0.7621  0.5487  0.2089
  265MOL0     H35721  10.919  10.506   1.636  0.2516  0.1846  1.0314
  265MOL0     H35722  11.142  10.552   1.501 -0.2799 -0.5168  1.2912
  265MOL0     H35723  11.145  10.473   1.655 -0.0606 -1.1790  0.8683
  265MOL0     H35724  11.196  10.766   1.608 -1.6954  0.3365 -0.9878
  265MOL0     H35725  11.213  10.681   1.766  2.3224 -1.0625 -0.2649
  265MOL0     H35726  11.320  10.475   1.465 -0.9217  3.4579 -0.4877
  265MOL0     H35727  11.662  10.341   1.498  0.3312  0.4548 -0.0952
  265MOL0     H35728  11.559  10.356   1.372  2.2663  0.0503 -0.5678
  265MOL0     H35729  11.750  10.462   1.271 -1.1247  0.5216 -1.2462
  265MOL0     H35730  11.668  10.606   1.351  2.2161  0.6554 -2.0132
  265MOL0     H35731  11.883  10.446   1.491  0.9917  0.6342 -0.4232
  265MOL0     H35732  11.811  10.598   1.535 -0.7446  0.9576 -1.4866
  265MOL0     H35733  12.034  10.642   1.443  0.3550  1.3828 -0.6942
  265MOL0     H35734  11.902  10.710   1.344 -1.6374 -1.0985 -0.4438
  265MOL0     H35735  12.252  10.580   1.159 -1.1720 -0.0286  0.8133
  265MOL0     H35736  12.292  10.729   0.980 -1.2006  2.1310  0.3376
  265MOL0     H35737  12.074  11.075   0.641 -0.8474 -1.1701  1.2240
  265MOL0     H35738  12.179  11.232   0.493 -0.5070 -2.3178 -1.2649
  265MOL0     H35739  12.401  11.403   0.314  0.8710  0.8960 -1.2736
  265MOL0     H35740  12.330  11.378   0.475  0.3925 -3.7132  2.5099
  265MOL0     H35741  12.553  11.506   0.480  0.4067  0.1950  1.3580
  265MOL0     H35742  12.562  11.369   0.570  2.0580  0.0464  0.3049
  265MOL0     H35743  12.660  11.276   0.317 -0.6070 -0.3079 -0.4638
  265MOL0     H35744  12.686  11.453   0.309  0.2469 -1.1783  0.3829
  265MOL0     H35745  12.790  11.282   0.542  2.4141 -0.2381 -0.0485
  265MOL0     H35746  12.849  11.433   0.490  1.2192 -0.3277 -0.7339
  265MOL0     H35747  12.925  11.347   0.279  0.1138 -0.0226 -0.0176
  265MOL0     H35748  12.868  11.186   0.316  2.3194 -0.5951  0.7770
  265MOL0     H35749  13.035  11.186   0.509  1.8964 -0.6188  0.0735
  265MOL0     H35750  13.090  11.170   0.351  2.1146  1.0890 -1.0446
  265MOL0     H35751  13.078  11.439   0.505 -1.1826 -0.5744  0.5232
  265MOL0     H35752  13.157  11.414   0.345 -0.9025  0.7332 -0.3466
  265MOL0     H35753  13.284  11.218   0.468  1.0162  0.5906 -0.0731
  265MOL0     H35754  13.342  11.385   0.471 -1.5096  1.9917 -2.1016
  265MOL0     H35755  12.549  11.022   0.537 -0.3318  2.2855 -3.0057
  265MOL0     H35756  12.455  10.890   0.706 -1.4072 -1.7276 -1.1627
  265MOL0     H35757  11.868  10.706   0.871  0.2513 -1.5629 -0.1544
  265MOL0     H35758  11.822  10.623   1.094 -1.6490 -2.3649 -4.5680
  265MOL0     H35759  10.253  10.295   1.521  6.3852 -0.3552  1.0468
  265MOL0     H35760  10.114  10.110   1.406  1.7883  1.5668  3.9511
  265MOL0     H35761   9.997   9.854   1.243  1.5465 -4.1173  0.5159
  265MOL0     H35762   9.913   9.629   1.213  1.0478  2.6928  2.8066
  265MOL0     H35763   9.980   9.401   0.899 -0.6452  2.5703  1.7192
  265MOL0     H35764   9.842   9.445   0.799  0.5521 -0.8811 -0.9648
  265MOL0     H35765   9.826   9.188   0.878 -2.8042  0.0534 -1.1453
  265MOL0     H35766   9.693   9.276   0.914  1.2776 -1.6927 -5.6598
  265MOL0     H35767   9.914   9.286   1.127  0.5032 -2.0147  0.7783
  265MOL0     H35768   9.832   9.139   1.104 -2.4966 -0.3233  0.0358
  265MOL0     H35769   9.632   9.363   1.129  1.2504  0.8235  0.0020
  265MOL0     H35770   9.626   9.199   1.195 -1.8483 -0.2162 -1.9883
  265MOL0     H35771   9.738   9.484   1.478 -0.5019 -0.6559 -0.2711
  265MOL0     H35772   9.942   9.653   0.787 -4.2165 -0.5180  0.0181
  265MOL0     H35773   9.912   9.874   0.690 -3.4090  1.0601  3.2102
  265MOL0     H35774   9.967  10.013   0.758 -2.3128  0.3058  0.3567
  265MOL0     H35775  10.089   9.901   0.712 -0.6840  1.1482 -0.8534
  266MOL0     O35776   5.913   2.367   6.948 -0.4498 -0.7558  0.5259
  266MOL0     C35777   6.026   2.323   6.931 -0.3446 -0.5737 -0.1116
  266MOL0     O35778   6.075   2.269   6.818 -0.0513  0.3820  0.1888
  266MOL0     C35779   6.000   2.246   6.706 -0.5348 -1.0264  0.4616
  266MOL0     C35780   5.915   2.339   6.642  1.2502 -0.3765  0.9967
  266MOL0     C35781   5.852   2.315   6.522 -0.5681 -0.3666  0.4463
  266MOL0     C35782   5.876   2.195   6.448 -0.0314 -0.7344  0.0394
  266MOL0     O35783   5.847   2.184   6.318  0.7050  0.4021 -0.2857
  266MOL0     C35784   5.726   2.239   6.263  0.0187  0.4499 -0.3961
  266MOL0     C35785   5.705   2.201   6.122 -0.6260 -0.3724 -0.0111
  266MOL0     C35786   5.691   2.044   6.102  0.6647 -0.7409 -0.8854
  266MOL0     C35787   5.676   2.024   5.956  0.1476 -0.0138 -0.1423
  266MOL0     C35788   5.690   1.883   5.905  0.3798  0.7591  0.4590
  266MOL0     C35789   5.655   1.880   5.753  0.5459 -0.0735  0.0120
  266MOL0     C35790   5.558   1.771   5.715  0.7516 -0.0105  0.0553
  266MOL0     C35791   5.608   1.627   5.764  0.6032 -0.3293  0.2273
  266MOL0     N35792   5.502   1.527   5.723  1.3676 -0.6498 -0.3642
  266MOL0     C35793   5.509   1.386   5.716  0.4047  0.5889  1.8653
  266MOL0     C35794   5.382   1.339   5.714 -0.3889 -0.1224  0.2454
  266MOL0     C35795   5.358   1.188   5.730  0.3535  0.5802 -0.2917
  266MOL0     C35796   5.217   1.149   5.775 -0.8721  1.1087  0.0594
  266MOL0     C35797   5.166   1.004   5.726 -0.6756 -0.1812  0.0917
  266MOL0     C35798   5.232   0.871   5.755 -0.9992  0.0809 -0.1256
  266MOL0     O35799   5.369   0.884   5.804 -0.8572  0.1677 -0.2908
  266MOL0     C35800   5.438   0.766   5.814 -0.8166  0.0126  0.0485
  266MOL0     C35801   5.578   0.780   5.799  0.7621  0.5053 -0.9446
  266MOL0     C35802   5.658   0.661   5.796  0.3739 -0.0054 -0.8047
  266MOL0     C35803   5.604   0.535   5.819 -0.8325 -1.0293  0.1167
  266MOL0     C35804   5.696   0.419   5.836 -0.8391 -0.2598 -0.1462
  266MOL0     O35805   5.639   0.298   5.878 -0.3357 -0.1080  0.0500
  266MOL0     C35806   5.707   0.177   5.861  0.9968  0.9806 -0.5077
  266MOL0     C35807   5.719   0.110   5.740  0.2495 -0.2328  0.1282
  266MOL0     C35808   5.780  -0.016   5.738 -1.8495 -0.2647  0.1644
  266MOL0     C35809   5.848  -0.073   5.851  0.2252  0.1059  0.1310
  266MOL0     O35810   5.937  -0.167   5.829 -0.0301  0.4301  0.8352
  266MOL0     C35811   6.042  -0.188   5.920 -0.7026 -0.6010  0.1762
  266MOL0     C35812   6.146  -0.084   5.922  1.3549  0.4223  0.2390
  266MOL0     C35813   6.227  -0.089   5.798 -0.9997 -0.4036  0.4393
  266MOL0     C35814   6.189   0.006   5.691 -0.7142  0.4480 -0.0602
  266MOL0     C35815   6.255  -0.014   5.551 -0.3123 -0.1669 -0.6881
  266MOL0     C35816   6.223   0.102   5.454  0.3092 -0.8993 -0.0473
  266MOL0     C35817   6.245   0.059   5.309  0.8724 -0.1610  0.3295
  266MOL0     C35818   6.394   0.040   5.279 -0.2760  0.2292 -0.7402
  266MOL0    Cl35819   6.461   0.207   5.238  0.4676  0.5083 -0.2452
  266MOL0     C35820   5.826  -0.006   5.977 -0.4891  0.6360  0.9003
  266MOL0     C35821   5.750   0.111   5.976 -0.0711 -0.5977  0.0611
  266MOL0     O35822   5.816   0.438   5.818 -0.1931 -0.4632 -0.3062
  266MOL0     C35823   5.468   0.523   5.841 -0.2439  0.6928 -0.1038
  266MOL0     C35824   5.381   0.636   5.847 -0.6362 -0.8169 -0.5048
  266MOL0     N35825   5.300   1.445   5.733  0.2667  0.0205  0.2011
  266MOL0     N35826   5.368   1.551   5.728 -0.0183 -0.4874 -0.0852
  266MOL0     C35827   5.953   2.096   6.518 -0.0768 -1.2470 -0.0953
  266MOL0     C35828   6.015   2.128   6.644 -0.1073  0.2363  0.5439
  266MOL0     C35829   6.111   2.292   7.056 -0.3579 -0.1844  0.7524
  266MOL0     C35830   6.192   2.174   7.053  0.5583  1.5974 -0.0812
  266MOL0     C35831   6.275   2.148   7.158  0.3750 -0.1747  0.5615
  266MOL0     C35832   6.272   2.226   7.272 -0.2429 -0.8719 -0.6363
  266MOL0     O35833   6.358   2.202   7.380  0.5568 -0.2765 -0.1155
  266MOL0     C35834   6.315   2.077   7.446 -0.1787 -0.7226  0.9917
  266MOL0     C35835   6.429   2.024   7.540  0.5439 -0.4053  0.5093
  266MOL0     C35836   6.438   2.087   7.674 -0.1018  0.2832  0.5178
  266MOL0     C35837   6.581   2.058   7.721 -0.8051  0.4402 -0.4091
  266MOL0     C35838   6.586   2.078   7.865  0.4981 -1.0233  0.1812
  266MOL0     C35839   6.590   2.095   7.990 -0.5352  0.6136 -0.2281
  266MOL0     C35840   6.188   2.333   7.282  0.6493  0.7465  0.5583
  266MOL0     C35841   6.107   2.371   7.170 -0.9849  0.3841 -0.3237
  266MOL0     C35842   6.026   2.498   7.174 -0.1856 -0.4287  0.0537
  266MOL0     H35843   5.903   2.433   6.694  0.6139 -0.9278  1.8623
  266MOL0     H35844   5.786   2.392   6.484  0.8293  0.7889  0.2520
  266MOL0     H35845   5.633   2.207   6.311 -2.1770  1.8195 -3.4044
  266MOL0     H35846   5.740   2.347   6.277  3.0455  0.1736 -0.5840
  266MOL0     H35847   5.804   2.220   6.078  0.3056 -2.0950  1.2203
  266MOL0     H35848   5.627   2.256   6.070  0.3242  0.3975 -0.6642
  266MOL0     H35849   5.604   1.993   6.145 -0.2903 -0.4526 -2.3739
  266MOL0     H35850   5.784   1.996   6.135  0.0852  0.1136  2.2406
  266MOL0     H35851   5.575   2.051   5.925 -0.2088 -2.5057 -1.4313
  266MOL0     H35852   5.754   2.080   5.904  0.7429  2.9853  3.5351
  266MOL0     H35853   5.787   1.835   5.922 -0.3744 -0.3041  2.0182
  266MOL0     H35854   5.612   1.833   5.962 -0.2531  1.3753  0.1550
  266MOL0     H35855   5.612   1.977   5.725  0.1165 -0.5211 -0.9206
  266MOL0     H35856   5.745   1.881   5.692 -0.5418  2.6509 -1.7274
  266MOL0     H35857   5.550   1.758   5.607 -3.4028  2.2234 -0.1413
  266MOL0     H35858   5.459   1.799   5.752  0.4763  1.4836 -1.6753
  266MOL0     H35859   5.706   1.604   5.721  0.9806  0.4873  0.6162
  266MOL0     H35860   5.612   1.636   5.873  1.4743  1.0026  0.1156
  266MOL0     H35861   5.602   1.331   5.709  2.0776  3.2535  1.6559
  266MOL0     H35862   5.394   1.142   5.637  0.4347 -0.2202  0.1272
  266MOL0     H35863   5.417   1.170   5.820 -1.6298  1.3798  1.2592
  266MOL0     H35864   5.212   1.149   5.885  0.9236  2.0733  0.1755
  266MOL0     H35865   5.155   1.225   5.727  2.0762  3.1507 -0.7096
  266MOL0     H35866   5.138   1.001   5.620 -2.4548 -0.4755  0.5392
  266MOL0     H35867   5.070   0.983   5.774 -0.6216 -1.0095 -0.1523
  266MOL0     H35868   5.234   0.801   5.671  0.0364  0.0452 -0.0938
  266MOL0     H35869   5.185   0.819   5.838  0.3881 -1.8886 -0.5097
  266MOL0     H35870   5.608   0.884   5.792  0.9622  0.6071  0.8540
  266MOL0     H35871   5.766   0.672   5.785  0.1424  1.4748 -1.8626
  266MOL0     H35872   5.679   0.155   5.649 -0.7557 -0.2323  0.5555
  266MOL0     H35873   5.790  -0.081   5.652  1.3737 -1.9362  1.6447
  266MOL0     H35874   6.004  -0.200   6.022 -0.9507  0.2944  0.1981
  266MOL0     H35875   6.094  -0.282   5.904  0.0095 -0.0099 -1.1979
  266MOL0     H35876   6.115   0.019   5.946  2.0215  1.8044 -3.9566
  266MOL0     H35877   6.215  -0.103   6.004  1.7805  0.1941 -0.1668
  266MOL0     H35878   6.333  -0.078   5.822 -0.5422  1.3296 -1.9704
  266MOL0     H35879   6.228  -0.193   5.764 -1.6500 -0.7517  1.4400
  266MOL0     H35880   6.204   0.106   5.734  0.0999  0.5094 -0.4652
  266MOL0     H35881   6.080  -0.002   5.689 -0.6319 -0.5030 -1.5015
  266MOL0     H35882   6.190  -0.097   5.522 -3.0310  0.8892  1.8536
  266MOL0     H35883   6.359  -0.034   5.578 -0.0869  1.8358  0.0774
  266MOL0     H35884   6.119   0.129   5.476  1.1413  0.2025  3.1820
  266MOL0     H35885   6.282   0.190   5.483 -0.4334  0.1530 -1.5713
  266MOL0     H35886   6.197   0.142   5.256 -0.3042  0.8543  2.7846
  266MOL0     H35887   6.188  -0.033   5.294  0.2168 -0.4284  3.6831
  266MOL0     H35888   6.452  -0.016   5.353  2.2656  0.5585 -2.3461
  266MOL0     H35889   6.414  -0.021   5.190  2.4109 -2.5696  1.5790
  266MOL0     H35890   5.861  -0.042   6.073  0.5569  1.1736  0.7352
  266MOL0     H35891   5.715   0.173   6.058 -2.1902  0.0821 -1.2677
  266MOL0     H35892   5.430   0.421   5.839 -1.9393  1.2039  2.1522
  266MOL0     H35893   5.273   0.623   5.852 -0.9565  0.9295 -1.7303
  266MOL0     H35894   5.980   1.998   6.481  2.2840 -0.6922  0.0462
  266MOL0     H35895   6.074   2.046   6.683 -1.5978 -2.5885 -2.6639
  266MOL0     H35896   6.200   2.106   6.969 -0.5211 -0.0957  1.1264
  266MOL0     H35897   6.337   2.062   7.137  0.4388  0.1156 -0.5101
  266MOL0     H35898   6.290   2.003   7.371 -1.9386  0.0213  0.7904
  266MOL0     H35899   6.219   2.092   7.496 -0.4772  1.1097 -0.0257
  266MOL0     H35900   6.525   2.030   7.487  1.0044  1.8316  1.4740
  266MOL0     H35901   6.418   1.919   7.568  0.5996  0.5981  5.0491
  266MOL0     H35902   6.363   2.045   7.742 -0.9392  3.9975  2.1072
  266MOL0     H35903   6.426   2.195   7.677  0.0838  0.3676  4.4566
  266MOL0     H35904   6.595   1.951   7.699 -0.7376  0.4724 -0.5204
  266MOL0     H35905   6.651   2.128   7.676  0.0212 -0.1232 -0.0270
  266MOL0     H35906   6.583   2.081   8.096  2.0744  0.0660 -0.0599
  266MOL0     H35907   6.202   2.388   7.375 -0.7865 -0.7028  1.6988
  266MOL0     H35908   6.037   2.559   7.084 -0.8237  0.7311  0.7480
  266MOL0     H35909   5.919   2.481   7.188  0.0489  0.3982  3.9622
  266MOL0     H35910   6.071   2.551   7.259  4.1353 -0.3095 -2.0060
  267MOL0     O35911   1.250   8.976   6.990  0.2702 -1.0616  1.0106
  267MOL0     C35912   1.321   9.001   7.080 -0.4937  0.1512 -1.3303
  267MOL0     O35913   1.454   9.018   7.076  0.1780 -1.2846 -1.1940
  267MOL0     C35914   1.508   9.038   6.955 -0.0347 -0.4448 -0.0915
  267MOL0     C35915   1.572   8.929   6.899 -0.0610  0.9060  0.2549
  267MOL0     C35916   1.651   8.940   6.791 -0.1774 -0.4672 -0.8834
  267MOL0     C35917   1.663   9.069   6.725 -0.7503  1.0598 -0.5338
  267MOL0     O35918   1.725   9.086   6.607 -0.3724  0.9689 -0.1664
  267MOL0     C35919   1.830   8.999   6.572 -1.3176 -0.3748  0.5109
  267MOL0     C35920   1.852   9.030   6.419 -1.1172 -0.3790 -0.4066
  267MOL0     C35921   1.741   9.006   6.329  0.5746  0.2233  0.3241
  267MOL0     C35922   1.769   9.050   6.182  0.3667  0.3881  0.0587
  267MOL0     C35923   1.854   8.937   6.125  0.1502 -0.2086 -0.3657
  267MOL0     C35924   1.895   8.962   5.981  0.4655 -0.4101 -0.3066
  267MOL0     C35925   2.001   9.070   5.959 -0.4752  0.5437 -0.3896
  267MOL0     C35926   2.051   9.068   5.817 -0.8551 -0.1376 -0.1414
  267MOL0     N35927   2.072   9.204   5.756 -0.2455 -0.0608 -0.1569
  267MOL0     C35928   2.181   9.283   5.784  0.8703 -0.4338 -0.3785
  267MOL0     C35929   2.137   9.412   5.761  0.6394  0.6664  1.0067
  267MOL0     C35930   2.216   9.532   5.795 -0.6407  0.5697  0.1074
  267MOL0     C35931   2.132   9.620   5.893 -0.7323  0.1382 -0.5674
  267MOL0     C35932   2.196   9.768   5.919 -0.7158  0.4429 -0.2196
  267MOL0     C35933   2.101   9.863   5.989  0.4557 -1.6216 -1.0154
  267MOL0     O35934   2.098   9.813   6.128 -0.1452 -0.4982 -0.1728
  267MOL0     C35935   1.975   9.816   6.181 -0.0290  0.7993  0.5032
  267MOL0     C35936   1.853   9.780   6.110 -0.3420 -0.1017  0.0727
  267MOL0     C35937   1.728   9.778   6.178  1.2738  0.2613  0.3378
  267MOL0     C35938   1.721   9.834   6.297  1.0425  0.2823  0.0968
  267MOL0     C35939   1.595   9.865   6.362 -0.2288  0.0982  0.5714
  267MOL0     O35940   1.593   9.902   6.488 -0.3783 -0.8806 -0.0578
  267MOL0     C35941   1.494   9.968   6.551 -0.0966  0.9298 -0.5364
  267MOL0     C35942   1.438  10.082   6.501  0.2058 -0.0143  0.1809
  267MOL0     C35943   1.345  10.156   6.569  0.3971  0.0728  0.2554
  267MOL0     C35944   1.301  10.113   6.695  0.7724  0.1208 -0.1535
  267MOL0     O35945   1.204  10.195   6.759 -0.1243  0.3193  0.2125
  267MOL0     C35946   1.152  10.178   6.894 -0.2028 -0.6304 -0.5176
  267MOL0     C35947   1.254  10.222   7.000  0.5627  0.6501  0.1710
  267MOL0     C35948   1.299  10.368   6.969 -0.1442  0.1903 -0.1285
  267MOL0     C35949   1.382  10.421   7.088  0.0499 -0.2906 -0.1181
  267MOL0     C35950   1.347  10.567   7.123  0.6060 -0.4678  0.7022
  267MOL0     C35951   1.434  10.635   7.226 -0.6314 -0.3869  0.3023
  267MOL0     C35952   1.405  10.784   7.232 -0.5138  0.3524  0.3395
  267MOL0     C35953   1.418  10.837   7.374 -0.3050 -0.1315 -0.3275
  267MOL0    Cl35954   1.379  11.010   7.374  0.1910  0.0291  0.1596
  267MOL0     C35955   1.356   9.995   6.749 -0.0881  0.1258 -0.1750
  267MOL0     C35956   1.459   9.929   6.677 -0.0404  1.1620 -0.1552
  267MOL0     O35957   1.494   9.873   6.294  0.8273  0.8195  0.5180
  267MOL0     C35958   1.836   9.876   6.366  0.5402  0.4745 -0.1249
  267MOL0     C35959   1.961   9.861   6.312  0.1036  0.2063  0.1119
  267MOL0     N35960   2.015   9.400   5.695 -0.3218 -0.0590 -0.7001
  267MOL0     N35961   1.970   9.280   5.709 -1.3743  0.1774  0.3829
  267MOL0     C35962   1.598   9.181   6.787  0.2839  0.4158  0.5726
  267MOL0     C35963   1.510   9.161   6.896  0.4263  0.0522 -0.2143
  267MOL0     C35964   1.272   8.974   7.214 -0.1902  0.9236  0.2350
  267MOL0     C35965   1.146   9.023   7.244  0.1935  0.4988  0.3853
  267MOL0     C35966   1.097   9.021   7.378  0.0310  0.4079  0.2015
  267MOL0     C35967   1.172   8.954   7.478 -0.9647  0.0799 -0.4265
  267MOL0     O35968   1.117   8.943   7.598  0.5119 -0.1473 -0.0968
  267MOL0     C35969   1.206   8.973   7.710  0.3056 -0.2570  0.2121
  267MOL0     C35970   1.291   9.101   7.671  0.3939  0.7769 -0.1064
  267MOL0     C35971   1.328   9.181   7.796  0.1873  0.0981 -0.1398
  267MOL0     C35972   1.479   9.196   7.833 -0.0958  0.3740  0.5443
  267MOL0     C35973   1.544   9.063   7.859  0.4452 -1.3026 -0.1553
  267MOL0     C35974   1.601   8.955   7.864 -0.9250 -0.4003  0.2489
  267MOL0     C35975   1.276   8.878   7.436 -0.0211  0.3539 -0.5044
  267MOL0     C35976   1.334   8.885   7.312  0.4532  0.3803  0.0965
  267MOL0     C35977   1.460   8.805   7.281  0.1140  0.6921  0.0782
  267MOL0     H35978   1.573   8.835   6.953  0.6740  0.0898 -1.1004
  267MOL0     H35979   1.701   8.849   6.759  0.8139 -0.8272  1.5272
  267MOL0     H35980   1.926   9.014   6.621 -1.6296  0.4243  0.8937
  267MOL0     H35981   1.802   8.893   6.570  0.3463 -0.8814 -3.1371
  267MOL0     H35982   1.941   8.974   6.391  0.4361  0.9421  1.6209
  267MOL0     H35983   1.884   9.133   6.404  0.5354 -0.0622  3.9635
  267MOL0     H35984   1.656   9.068   6.358 -2.5361 -1.6400 -3.8013
  267MOL0     H35985   1.711   8.901   6.325  0.7053  0.1618  0.8971
  267MOL0     H35986   1.681   9.050   6.117  1.3709  0.0544 -1.3544
  267MOL0     H35987   1.827   9.142   6.167  2.7551 -1.1106 -0.5212
  267MOL0     H35988   1.940   8.936   6.193  0.7035  2.0165 -0.9544
  267MOL0     H35989   1.812   8.837   6.141  1.0217 -0.6168 -0.5675
  267MOL0     H35990   1.928   8.863   5.949  0.3508 -0.5051 -0.1291
  267MOL0     H35991   1.798   8.971   5.932  0.5523  2.8288 -0.1016
  267MOL0     H35992   2.081   9.072   6.033 -0.3677  0.5586 -0.5033
  267MOL0     H35993   1.952   9.163   5.989  0.6077  0.5498  1.4690
  267MOL0     H35994   2.137   9.003   5.800  0.9457  2.5885 -2.4889
  267MOL0     H35995   1.967   9.031   5.757 -2.3435  1.3788  0.8892
  267MOL0     H35996   2.271   9.247   5.832  0.6734  0.5232  0.7466
  267MOL0     H35997   2.311   9.505   5.843 -0.9027 -3.1619 -1.1648
  267MOL0     H35998   2.255   9.579   5.704 -4.2240  2.9592 -0.4313
  267MOL0     H35999   2.029   9.624   5.857  0.1439  0.3559 -3.3067
  267MOL0     H36000   2.135   9.563   5.987 -0.9458  0.3143 -0.4537
  267MOL0     H36001   2.224   9.795   5.816 -1.6754  1.2611 -0.2804
  267MOL0     H36002   2.291   9.756   5.971 -0.9469 -1.8801 -0.2055
  267MOL0     H36003   2.008   9.858   5.932 -1.0582 -1.4388  1.3036
  267MOL0     H36004   2.129   9.969   5.994  1.9357 -1.9642 -1.7772
  267MOL0     H36005   1.869   9.747   6.008 -0.5340  2.1599 -0.7485
  267MOL0     H36006   1.643   9.739   6.122 -1.0575  4.2206  0.7423
  267MOL0     H36007   1.473  10.106   6.401  2.4852  1.4045  1.2356
  267MOL0     H36008   1.290  10.236   6.520 -1.5756 -2.6177 -2.2701
  267MOL0     H36009   1.052  10.222   6.905 -0.6455 -1.3668 -1.4996
  267MOL0     H36010   1.143  10.070   6.908  0.9704 -0.4521  2.4255
  267MOL0     H36011   1.199  10.213   7.094 -0.6791 -1.6688 -0.6992
  267MOL0     H36012   1.338  10.153   7.008  0.7576  0.2913 -3.3931
  267MOL0     H36013   1.355  10.368   6.875 -1.0771  1.9743 -0.7367
  267MOL0     H36014   1.215  10.438   6.957  0.9550  1.2567 -2.1325
  267MOL0     H36015   1.489  10.402   7.072  0.0117 -2.5813  1.8375
  267MOL0     H36016   1.352  10.359   7.172 -0.8059 -1.1071 -0.9996
  267MOL0     H36017   1.245  10.578   7.160  1.0414 -2.5624  2.7752
  267MOL0     H36018   1.345  10.623   7.029 -2.8638  0.5033  1.1960
  267MOL0     H36019   1.404  10.581   7.316  1.1979 -0.7928  0.7045
  267MOL0     H36020   1.541  10.611   7.217  0.1563  0.8805  4.2886
  267MOL0     H36021   1.302  10.810   7.203 -0.3371  1.2487  0.4900
  267MOL0     H36022   1.474  10.832   7.162 -3.3092  4.5420  0.0401
  267MOL0     H36023   1.351  10.791   7.447 -2.0446  1.5747 -0.7834
  267MOL0     H36024   1.518  10.816   7.413  1.0461  3.4940 -1.3765
  267MOL0     H36025   1.328   9.973   6.852 -0.5471 -0.0148 -0.3267
  267MOL0     H36026   1.505   9.839   6.717 -1.2011  1.7386  2.6591
  267MOL0     H36027   1.833   9.937   6.456  3.6899  1.4296 -0.5609
  267MOL0     H36028   2.048   9.884   6.372  2.2641  2.0264 -3.3867
  267MOL0     H36029   1.589   9.273   6.730  0.3993  0.9715  1.4303
  267MOL0     H36030   1.451   9.237   6.946 -1.4824 -0.3781 -1.6463
  267MOL0     H36031   1.087   9.081   7.175  2.7076  0.8726 -1.6042
  267MOL0     H36032   1.008   9.074   7.410  0.7645  0.3205  2.5909
  267MOL0     H36033   1.278   8.892   7.721  0.1719 -0.5365 -0.8815
  267MOL0     H36034   1.148   8.990   7.802  1.1355  3.5048  0.1987
  267MOL0     H36035   1.229   9.176   7.623  0.8113  2.9192  2.4700
  267MOL0     H36036   1.380   9.090   7.608 -1.3880  2.0986 -3.0144
  267MOL0     H36037   1.285   9.129   7.882  1.5633  0.9148  1.0935
  267MOL0     H36038   1.297   9.283   7.775  0.1545  0.1677  0.2414
  267MOL0     H36039   1.523   9.254   7.752  0.1702  0.0942  0.4867
  267MOL0     H36040   1.498   9.265   7.915 -0.3263  1.8838 -0.6336
  267MOL0     H36041   1.657   8.864   7.867 -2.1917 -1.3033  4.7097
  267MOL0     H36042   1.332   8.817   7.506 -1.3331 -2.9306 -2.1340
  267MOL0     H36043   1.451   8.713   7.339 -2.3081 -1.8236 -3.7974
  267MOL0     H36044   1.453   8.767   7.178 -1.8050  1.8206 -0.2691
  267MOL0     H36045   1.548   8.868   7.291  0.6650  0.1182 -0.9414
  268MOL0     O36046   9.038   9.358   1.634  0.3091  0.0144 -0.3689
  268MOL0     C36047   9.134   9.414   1.676 -1.4390 -0.7979 -0.0147
  268MOL0     O36048   9.123   9.537   1.733  1.1066 -0.4375 -0.3605
  268MOL0     C36049   9.042   9.642   1.704  0.4366 -0.5411 -0.0005
  268MOL0     C36050   8.981   9.708   1.810 -0.5456  0.8758 -0.0348
  268MOL0     C36051   8.887   9.817   1.785  0.5142 -0.1131  0.8123
  268MOL0     C36052   8.853   9.850   1.647 -0.3940  0.7197 -0.6553
  268MOL0     O36053   8.768   9.957   1.608  0.1181 -0.5345 -0.5520
  268MOL0     C36054   8.722  10.052   1.700  0.7716 -0.3212  0.0189
  268MOL0     C36055   8.777  10.192   1.655 -0.0759  0.2918  0.4594
  268MOL0     C36056   8.927  10.224   1.672  1.1786 -1.3087 -0.5896
  268MOL0     C36057   9.013  10.143   1.573  0.2861 -0.6503  0.1809
  268MOL0     C36058   8.981  10.156   1.423  0.2535  0.6661 -0.0467
  268MOL0     C36059   8.954  10.302   1.372  0.6389 -0.4532  0.9613
  268MOL0     C36060   8.947  10.278   1.219  0.7474 -0.6458 -0.5226
  268MOL0     C36061   8.901  10.420   1.159  0.3458 -0.1886 -0.7429
  268MOL0     N36062   8.854  10.397   1.026 -0.0855 -0.2236  0.0910
  268MOL0     C36063   8.730  10.374   0.981  0.4370  0.6859 -0.2355
  268MOL0     C36064   8.743  10.333   0.855 -0.0282 -0.1564  0.4199
  268MOL0     C36065   8.635  10.311   0.757  0.3850  1.0015 -0.0824
  268MOL0     C36066   8.527  10.215   0.795 -0.4800 -0.1039  0.6083
  268MOL0     C36067   8.558  10.071   0.744 -0.2026  0.7171 -0.2499
  268MOL0     C36068   8.661  10.009   0.829 -0.3765 -0.4817 -0.1489
  268MOL0     O36069   8.688   9.882   0.766  0.7074  0.4562  0.4934
  268MOL0     C36070   8.707   9.768   0.842 -1.1492  0.4858 -0.0336
  268MOL0     C36071   8.664   9.640   0.815  0.3240  1.1905  0.0050
  268MOL0     C36072   8.700   9.528   0.894 -1.0378  0.2566 -0.2908
  268MOL0     C36073   8.788   9.549   1.001  0.5853  0.7200 -1.2370
  268MOL0     C36074   8.844   9.424   1.068 -0.4826  0.5891  0.2013
  268MOL0     O36075   8.777   9.305   1.052 -0.1198 -0.2304  1.1047
  268MOL0     C36076   8.836   9.199   1.122 -0.1214 -0.1039 -0.3976
  268MOL0     C36077   8.869   9.079   1.057 -0.7922 -0.8214  0.0044
  268MOL0     C36078   8.923   8.963   1.124  0.7688 -0.5076  0.2189
  268MOL0     C36079   8.939   8.965   1.258  1.3094 -0.4585 -0.4890
  268MOL0     O36080   8.968   8.865   1.341 -0.2037 -0.3853  0.4533
  268MOL0     C36081   9.065   8.759   1.303 -0.0651  0.7710  0.3821
  268MOL0     C36082   9.004   8.618   1.300 -0.5350 -0.6057  0.1231
  268MOL0     C36083   8.937   8.582   1.166 -0.1058 -0.0988 -0.1493
  268MOL0     C36084   8.871   8.446   1.153 -0.1105  0.3962  0.2064
  268MOL0     C36085   8.964   8.343   1.090  0.2532  0.2862  1.0278
  268MOL0     C36086   8.994   8.344   0.939  0.7694 -0.1154  1.0770
  268MOL0     C36087   8.877   8.301   0.856  0.3125  0.2833  0.4538
  268MOL0     C36088   8.922   8.296   0.710 -0.1338  0.3836 -0.3273
  268MOL0    Cl36089   8.793   8.211   0.633 -0.5263  0.4832  0.1217
  268MOL0     C36090   8.902   9.086   1.323 -0.4867 -0.1571 -0.6162
  268MOL0     C36091   8.853   9.201   1.262 -0.2428  0.1836  1.2176
  268MOL0     O36092   8.950   9.443   1.134  0.5303 -0.3669 -0.2692
  268MOL0     C36093   8.829   9.675   1.032  0.7775  0.6348 -0.6901
  268MOL0     C36094   8.786   9.781   0.953 -0.9196  0.5512 -0.4741
  268MOL0     N36095   8.882  10.320   0.834  0.9244 -0.1637 -0.8582
  268MOL0     N36096   8.948  10.356   0.941  0.0146 -0.6544  0.4308
  268MOL0     C36097   8.921   9.770   1.544  0.6588 -0.3530 -0.2434
  268MOL0     C36098   9.018   9.669   1.569 -0.5105 -0.1921 -0.3184
  268MOL0     C36099   9.263   9.339   1.669 -0.2192 -0.2803  0.2237
  268MOL0     C36100   9.380   9.411   1.695 -0.3941 -0.1487 -0.5003
  268MOL0     C36101   9.512   9.362   1.678 -0.7629  0.1882 -0.5999
  268MOL0     C36102   9.527   9.229   1.638 -0.2189  0.0172 -0.1638
  268MOL0     O36103   9.655   9.171   1.643  0.2112  0.9605  0.4721
  268MOL0     C36104   9.752   9.214   1.745  0.4635 -0.0314 -0.1837
  268MOL0     C36105   9.712   9.197   1.894  0.7265  0.1453 -0.3594
  268MOL0     C36106   9.602   9.089   1.937  0.6114  0.1820 -0.1834
  268MOL0     C36107   9.543   9.145   2.066 -0.0640 -0.0813  0.3753
  268MOL0     C36108   9.435   9.233   2.041 -0.1520  0.3537  0.6954
  268MOL0     C36109   9.341   9.310   2.013  0.0463 -0.2417 -0.2288
  268MOL0     C36110   9.413   9.163   1.594  0.0965  0.1465  0.1699
  268MOL0     C36111   9.279   9.204   1.617 -1.0292 -0.2823 -0.8500
  268MOL0     C36112   9.162   9.109   1.581  0.4275  0.1082 -0.1654
  268MOL0     H36113   9.000   9.674   1.911  0.1463  0.6330 -0.2421
  268MOL0     H36114   8.843   9.873   1.867 -1.9260  1.1004 -1.2032
  268MOL0     H36115   8.612  10.047   1.699  0.4981  2.6730  1.7659
  268MOL0     H36116   8.756  10.039   1.803 -0.6624  0.9908  0.6979
  268MOL0     H36117   8.723  10.264   1.718 -1.3598 -0.4300  0.2204
  268MOL0     H36118   8.743  10.206   1.552 -2.2885  0.8546  1.1918
  268MOL0     H36119   8.976  10.211   1.769  1.9586  1.5648 -0.4807
  268MOL0     H36120   8.938  10.332   1.654  1.5876 -1.2188  0.1416
  268MOL0     H36121   9.116  10.180   1.580 -0.1370  1.4074 -2.5944
  268MOL0     H36122   9.005  10.038   1.603 -5.0060  0.6657  5.3236
  268MOL0     H36123   9.066  10.113   1.368  0.2868 -1.6245  1.6302
  268MOL0     H36124   8.890  10.096   1.413  1.1551 -0.4121 -2.6849
  268MOL0     H36125   8.860  10.334   1.417  1.5664  3.4304  0.5503
  268MOL0     H36126   9.034  10.376   1.384 -0.4883  1.0058 -0.0872
  268MOL0     H36127   8.867  10.208   1.190 -3.3196  3.5023 -0.6011
  268MOL0     H36128   9.043  10.243   1.181  0.6465 -0.3774 -1.0483
  268MOL0     H36129   8.811  10.443   1.217  0.6610 -1.2497  0.2109
  268MOL0     H36130   8.981  10.492   1.180  1.4538 -1.2012 -1.3205
  268MOL0     H36131   8.636  10.388   1.035  0.9363  0.1546  0.7824
  268MOL0     H36132   8.580  10.404   0.738  1.7910  1.7363 -0.6884
  268MOL0     H36133   8.677  10.281   0.661  0.2030 -1.2027  0.4608
  268MOL0     H36134   8.514  10.215   0.903  1.4471 -1.3316  0.8932
  268MOL0     H36135   8.435  10.261   0.758  0.2215  1.8723  1.1942
  268MOL0     H36136   8.589  10.070   0.639 -4.1715  0.1960 -1.5763
  268MOL0     H36137   8.469  10.007   0.744  1.4157 -1.7786 -3.4542
  268MOL0     H36138   8.617   9.993   0.928  1.6771  1.5766  1.1629
  268MOL0     H36139   8.753  10.067   0.834 -0.5850 -0.2265  0.9220
  268MOL0     H36140   8.592   9.641   0.735  2.0905  0.8006 -1.6604
  268MOL0     H36141   8.661   9.430   0.866 -0.1192 -0.5544  1.1297
  268MOL0     H36142   8.854   9.083   0.949 -2.7682 -0.5238  0.2477
  268MOL0     H36143   8.944   8.872   1.068  0.8534 -0.1095 -0.4118
  268MOL0     H36144   9.121   8.777   1.211  1.3050 -0.3313  0.9602
  268MOL0     H36145   9.139   8.760   1.383 -0.4927 -2.8469  1.0159
  268MOL0     H36146   9.088   8.550   1.318 -1.2935 -1.8470 -0.8520
  268MOL0     H36147   8.933   8.601   1.382  1.9506 -2.5653  2.0140
  268MOL0     H36148   8.861   8.655   1.134  0.3326 -1.6080 -5.7315
  268MOL0     H36149   9.020   8.590   1.095 -1.3082  0.6253 -1.5256
  268MOL0     H36150   8.783   8.467   1.091 -0.4042 -3.3834 -0.9164
  268MOL0     H36151   8.835   8.414   1.251  3.3978  0.0430  1.4909
  268MOL0     H36152   8.918   8.246   1.114 -2.3662  1.1035 -0.3312
  268MOL0     H36153   9.056   8.350   1.149  1.9832  3.7268 -1.6660
  268MOL0     H36154   9.008   8.449   0.912 -0.8253 -0.1063  0.1852
  268MOL0     H36155   9.079   8.277   0.922 -0.1472 -0.8531 -0.7921
  268MOL0     H36156   8.785   8.357   0.879 -2.3199 -4.1300  2.0514
  268MOL0     H36157   8.855   8.198   0.889 -1.8942  0.1953 -1.0422
  268MOL0     H36158   8.943   8.397   0.676  3.7562 -0.4433 -0.8401
  268MOL0     H36159   9.018   8.244   0.703  0.7628  1.8585  0.4859
  268MOL0     H36160   8.912   9.102   1.430  1.2820 -2.0134 -0.4374
  268MOL0     H36161   8.814   9.288   1.315  3.4376  1.4091  2.2162
  268MOL0     H36162   8.885   9.689   1.124  0.5692 -1.8516 -0.0952
  268MOL0     H36163   8.826   9.876   0.987 -0.2133  0.8292 -2.0369
  268MOL0     H36164   8.889   9.808   1.448  1.5281  3.3310  0.7687
  268MOL0     H36165   9.069   9.623   1.485 -4.1240  1.0506 -3.4957
  268MOL0     H36166   9.382   9.512   1.734 -0.9427 -0.9220  1.6904
  268MOL0     H36167   9.595   9.430   1.693  0.1939 -0.7257 -1.5104
  268MOL0     H36168   9.771   9.319   1.719  0.0477 -0.2618 -1.4974
  268MOL0     H36169   9.845   9.160   1.725  1.0589  0.6609  0.6284
  268MOL0     H36170   9.678   9.295   1.928  1.5631 -0.9209  4.1884
  268MOL0     H36171   9.794   9.183   1.964  1.3140 -2.3024 -1.4256
  268MOL0     H36172   9.655   8.994   1.950  0.7081  0.6078  3.7934
  268MOL0     H36173   9.530   9.075   1.856 -0.2891  2.4632  0.1296
  268MOL0     H36174   9.514   9.060   2.130 -0.7802 -0.9498 -1.0639
  268MOL0     H36175   9.625   9.184   2.128 -0.2325 -1.2547  1.3984
  268MOL0     H36176   9.258   9.377   2.018 -1.0143 -1.5735  1.3818
  268MOL0     H36177   9.424   9.069   1.542  0.5987  1.5268 -2.3674
  268MOL0     H36178   9.103   9.160   1.504 -1.1379  1.3773  1.7846
  268MOL0     H36179   9.186   9.015   1.531 -1.7768 -0.0886 -0.9670
  268MOL0     H36180   9.101   9.094   1.670 -0.9585 -1.6576 -1.3602
  269MOL0     O36181   5.320   7.700   6.391 -1.1854  0.0082 -0.6392
  269MOL0     C36182   5.200   7.700   6.409  0.3288  0.7224  0.1961
  269MOL0     O36183   5.111   7.795   6.382  0.3137  0.6799 -0.0664
  269MOL0     C36184   5.158   7.914   6.329 -0.4398 -1.0331 -1.6939
  269MOL0     C36185   5.121   7.947   6.201 -1.2006 -0.3011 -0.6378
  269MOL0     C36186   5.159   8.074   6.150  0.3200  0.1938  0.0126
  269MOL0     C36187   5.235   8.160   6.229 -0.8992 -0.4571 -0.0257
  269MOL0     O36188   5.276   8.276   6.167  0.2732  0.6959  0.5960
  269MOL0     C36189   5.403   8.328   6.198  0.1652 -0.4740 -0.1842
  269MOL0     C36190   5.388   8.416   6.315  0.0936 -0.3672 -0.2786
  269MOL0     C36191   5.512   8.434   6.397 -0.1971  0.9513 -0.3859
  269MOL0     C36192   5.612   8.531   6.333 -1.2411 -1.0181  1.3139
  269MOL0     C36193   5.707   8.472   6.226 -0.3692  0.6140  1.0241
  269MOL0     C36194   5.777   8.337   6.281  0.3475  0.0763 -0.6588
  269MOL0     C36195   5.860   8.341   6.410  0.6765  0.0923 -0.1207
  269MOL0     C36196   5.919   8.206   6.441  1.3583  0.1735 -0.3653
  269MOL0     N36197   5.821   8.125   6.508 -0.0596 -0.2176 -0.1355
  269MOL0     C36198   5.753   8.006   6.474 -0.7040 -0.5625  0.7821
  269MOL0     C36199   5.699   7.959   6.587 -0.2909 -0.1762  0.2327
  269MOL0     C36200   5.613   7.833   6.580 -0.4835  1.0327 -0.9244
  269MOL0     C36201   5.668   7.710   6.663  0.1628 -0.3248 -0.4899
  269MOL0     C36202   5.771   7.640   6.584 -0.6093  0.7164  0.2734
  269MOL0     C36203   5.849   7.533   6.663  0.9158 -0.6893 -0.3784
  269MOL0     O36204   5.969   7.507   6.595 -0.6861 -0.6128  0.1538
  269MOL0     C36205   6.050   7.412   6.650  0.3412  1.2661 -0.2608
  269MOL0     C36206   6.013   7.324   6.752 -0.7897  0.2012  0.1045
  269MOL0     C36207   6.110   7.238   6.807  0.1489 -0.3620  0.4206
  269MOL0     C36208   6.241   7.232   6.760  0.0597 -0.1617 -0.5872
  269MOL0     C36209   6.338   7.135   6.812  0.2486 -0.7792  0.2741
  269MOL0     O36210   6.452   7.109   6.741 -0.5429  0.2554 -0.3017
  269MOL0     C36211   6.514   6.996   6.775 -0.6491 -1.2211 -0.6868
  269MOL0     C36212   6.576   6.983   6.901 -0.5877  1.0354 -1.0603
  269MOL0     C36213   6.630   6.860   6.936 -0.0724 -0.4295  0.2559
  269MOL0     C36214   6.634   6.764   6.838 -0.5574 -0.0483 -0.5007
  269MOL0     O36215   6.669   6.631   6.856  0.4692 -0.0613  0.1924
  269MOL0     C36216   6.711   6.587   6.990  1.1844 -0.1437  0.6518
  269MOL0     C36217   6.736   6.440   6.988  0.6575 -0.3822  0.1877
  269MOL0     C36218   6.843   6.400   6.877  0.4919 -0.0083 -0.3951
  269MOL0     C36219   6.883   6.259   6.911 -0.2282 -0.6340  0.3043
  269MOL0     C36220   7.005   6.205   6.827 -0.3989 -0.3765  0.0605
  269MOL0     C36221   7.074   6.085   6.871 -0.2275 -0.0849 -1.4291
  269MOL0     C36222   7.188   6.049   6.777 -0.2892  0.2254 -0.4378
  269MOL0     C36223   7.246   5.904   6.789 -0.3870 -0.1068  0.8122
  269MOL0    Cl36224   7.336   5.915   6.935 -0.0824  0.1698 -0.5874
  269MOL0     C36225   6.590   6.781   6.715 -0.2956  0.4896  0.6036
  269MOL0     C36226   6.535   6.895   6.679 -0.9443 -0.3335  0.5202
  269MOL0     O36227   6.303   7.075   6.911 -0.2205 -0.2623 -0.5008
  269MOL0     C36228   6.264   7.305   6.645 -0.1063 -0.2552  0.0846
  269MOL0     C36229   6.180   7.398   6.591  0.0126 -0.0979  0.3952
  269MOL0     N36230   5.718   8.050   6.682  0.0507 -0.3314 -0.1777
  269MOL0     N36231   5.796   8.146   6.642  0.4302 -0.3135  0.3280
  269MOL0     C36232   5.275   8.119   6.356  0.0641 -0.4297  0.2749
  269MOL0     C36233   5.237   7.997   6.411 -0.0628 -0.4586  1.6809
  269MOL0     C36234   5.155   7.591   6.491  0.5408 -0.2734  0.9268
  269MOL0     C36235   5.115   7.470   6.433  0.2483  0.2220 -0.2726
  269MOL0     C36236   5.072   7.374   6.525  0.3749 -0.0899  0.0576
  269MOL0     C36237   5.084   7.385   6.660  0.6477 -0.1338 -0.5326
  269MOL0     O36238   5.047   7.275   6.742 -0.4531  0.5843 -0.1144
  269MOL0     C36239   5.101   7.263   6.873 -0.0530 -0.1355 -0.0031
  269MOL0     C36240   5.031   7.140   6.935 -0.3397  0.3284 -0.2055
  269MOL0     C36241   4.877   7.135   6.946 -0.8148 -0.9435  0.4326
  269MOL0     C36242   4.828   7.262   7.024 -0.1835  0.0742 -0.2031
  269MOL0     C36243   4.844   7.255   7.174 -0.7036 -0.1297  0.0252
  269MOL0     C36244   4.869   7.273   7.290  0.1103 -0.1902 -0.0990
  269MOL0     C36245   5.119   7.508   6.714  0.0339 -0.2207  0.4511
  269MOL0     C36246   5.155   7.614   6.625  0.8045 -0.1302 -0.2211
  269MOL0     C36247   5.201   7.746   6.700  0.7064  1.0133  0.2284
  269MOL0     H36248   5.055   7.892   6.135 -1.8114 -1.4130  0.8530
  269MOL0     H36249   5.108   8.108   6.061  0.8736  3.4737  0.8005
  269MOL0     H36250   5.466   8.240   6.216  0.8237 -0.5716 -2.6113
  269MOL0     H36251   5.451   8.383   6.116 -0.7965 -1.1325 -1.2085
  269MOL0     H36252   5.315   8.372   6.383 -1.2877  1.5934 -0.3971
  269MOL0     H36253   5.359   8.516   6.282 -0.0294 -0.3467 -0.1113
  269MOL0     H36254   5.556   8.337   6.423  2.7498  2.1179 -0.7184
  269MOL0     H36255   5.479   8.471   6.494  2.2866  0.1995  0.8307
  269MOL0     H36256   5.566   8.620   6.289  1.1687 -0.7678 -0.9074
  269MOL0     H36257   5.681   8.574   6.405 -0.4436  1.9179 -1.0045
  269MOL0     H36258   5.650   8.456   6.134 -0.8327  1.1752  1.2083
  269MOL0     H36259   5.785   8.543   6.196  0.4499 -0.5436  0.3578
  269MOL0     H36260   5.692   8.270   6.294 -1.5448  2.4020 -0.2189
  269MOL0     H36261   5.832   8.296   6.196  1.1179  0.1453 -0.2022
  269MOL0     H36262   5.808   8.390   6.493 -0.1164 -0.9444  0.0045
  269MOL0     H36263   5.949   8.404   6.400  0.4680  0.2369 -1.1365
  269MOL0     H36264   5.947   8.162   6.345  0.7882 -0.1658 -0.3791
  269MOL0     H36265   6.009   8.217   6.504  0.3504 -1.6627  1.5458
  269MOL0     H36266   5.750   7.964   6.374 -2.0862  0.7554  0.2339
  269MOL0     H36267   5.523   7.860   6.635 -0.4870  2.7127 -1.6926
  269MOL0     H36268   5.600   7.800   6.476  2.8109  2.4755 -1.9442
  269MOL0     H36269   5.709   7.753   6.754 -1.2779  0.5476 -0.2235
  269MOL0     H36270   5.583   7.646   6.687  0.5778 -0.2963  1.1286
  269MOL0     H36271   5.846   7.712   6.551  1.2644  0.6151  3.8332
  269MOL0     H36272   5.732   7.585   6.498  1.3622 -0.2256 -0.0820
  269MOL0     H36273   5.780   7.449   6.676 -2.1502  0.8185 -4.5704
  269MOL0     H36274   5.870   7.570   6.764  2.7295 -0.8113 -0.6700
  269MOL0     H36275   5.917   7.340   6.801 -1.1925  1.2944 -0.9843
  269MOL0     H36276   6.076   7.164   6.879  1.3390 -0.5224  0.8423
  269MOL0     H36277   6.582   7.062   6.976  3.2839  0.7798 -0.8872
  269MOL0     H36278   6.677   6.834   7.030 -0.7602 -3.1016 -0.0580
  269MOL0     H36279   6.798   6.643   7.025  0.2279 -0.6268  4.1960
  269MOL0     H36280   6.626   6.608   7.056  0.8549 -0.5351  0.3606
  269MOL0     H36281   6.766   6.416   7.090  2.7479  3.4963  0.6626
  269MOL0     H36282   6.641   6.393   6.957  1.2648 -0.4619 -1.6747
  269MOL0     H36283   6.806   6.416   6.775  3.6365  0.0019 -1.6198
  269MOL0     H36284   6.930   6.465   6.889  1.9705 -0.9692 -4.4165
  269MOL0     H36285   6.798   6.193   6.891 -0.1383 -0.0305 -2.3232
  269MOL0     H36286   6.908   6.258   7.018 -1.9428  1.0066  0.7625
  269MOL0     H36287   7.074   6.288   6.807 -4.5661  2.9916 -2.0989
  269MOL0     H36288   6.961   6.187   6.728 -0.7330  0.7038 -0.0071
  269MOL0     H36289   7.092   6.093   6.979 -1.4845 -1.6683 -1.0546
  269MOL0     H36290   6.999   6.005   6.872 -1.3804  0.9735 -1.4140
  269MOL0     H36291   7.264   6.127   6.780 -1.5456  1.5259 -1.3494
  269MOL0     H36292   7.136   6.053   6.682 -3.6940 -2.5111  1.0935
  269MOL0     H36293   7.167   5.828   6.789 -0.5631 -0.0354 -1.8093
  269MOL0     H36294   7.313   5.875   6.708 -2.1108 -1.0699 -0.3449
  269MOL0     H36295   6.592   6.706   6.636  2.5562  2.9572 -1.9604
  269MOL0     H36296   6.495   6.893   6.578  1.3503 -2.6142 -0.4467
  269MOL0     H36297   6.357   7.293   6.590  1.4560 -2.1644  2.8954
  269MOL0     H36298   6.211   7.456   6.505 -0.1299 -0.8324 -0.1603
  269MOL0     H36299   5.327   8.172   6.436  1.5076 -0.8723 -0.3382
  269MOL0     H36300   5.248   7.973   6.517  0.9567 -0.9096  1.4843
  269MOL0     H36301   5.111   7.457   6.325  1.3665  0.5141 -0.3612
  269MOL0     H36302   5.025   7.288   6.478  1.8721  0.9090 -3.5486
  269MOL0     H36303   5.088   7.348   6.941  2.1687  1.2586 -1.2453
  269MOL0     H36304   5.209   7.249   6.864  0.5308  3.1471  0.5636
  269MOL0     H36305   5.073   7.132   7.036 -1.3465  0.0476  0.2040
  269MOL0     H36306   5.063   7.053   6.876  0.7905  0.2808  0.4431
  269MOL0     H36307   4.849   7.048   7.007 -1.9485  0.0265  1.3506
  269MOL0     H36308   4.823   7.140   6.851 -0.2943 -3.1275 -0.0265
  269MOL0     H36309   4.873   7.356   6.990 -0.7187  1.9758  3.7740
  269MOL0     H36310   4.719   7.263   7.024 -0.2211 -0.6442  1.4925
  269MOL0     H36311   4.899   7.276   7.393  5.0461 -1.2406 -1.2583
  269MOL0     H36312   5.134   7.518   6.821 -0.6728  1.5713  0.4322
  269MOL0     H36313   5.127   7.821   6.668 -3.2665 -1.4845  2.6038
  269MOL0     H36314   5.213   7.733   6.808  0.4383 -0.0532  0.1375
  269MOL0     H36315   5.302   7.771   6.667 -0.9850  3.8416 -3.7248
  270MOL0     O36316   2.148   9.250   9.326  0.2195 -0.2573  0.5472
  270MOL0     C36317   2.251   9.320   9.333  0.2502  1.2122  0.3977
  270MOL0     O36318   2.259   9.448   9.319 -0.1913 -1.2502  0.5098
  270MOL0     C36319   2.161   9.517   9.378 -0.9699 -0.9450  0.1838
  270MOL0     C36320   2.075   9.590   9.308 -0.2391  0.0082 -0.4489
  270MOL0     C36321   1.980   9.673   9.371 -0.0994  0.0668 -0.0835
  270MOL0     C36322   1.973   9.688   9.515  0.0414 -0.4636 -0.1668
  270MOL0     O36323   1.881   9.767   9.575 -0.5754 -0.5156 -0.2601
  270MOL0     C36324   1.929   9.838   9.700 -0.1617  0.6422 -0.0025
  270MOL0     C36325   1.869   9.979   9.721 -0.5499  1.3997 -0.1350
  270MOL0     C36326   1.898  10.071   9.595 -0.8366 -0.4874 -1.2692
  270MOL0     C36327   1.853  10.213   9.622 -0.4797  0.3040 -0.1367
  270MOL0     C36328   1.888  10.317   9.504 -0.6774  0.3497 -0.6218
  270MOL0     C36329   1.764  10.386   9.460 -0.1983  0.0721 -0.1620
  270MOL0     C36330   1.775  10.460   9.327  0.5150 -0.2278  0.4051
  270MOL0     C36331   1.878  10.580   9.317  0.4161 -0.5462  0.5921
  270MOL0     N36332   1.817  10.714   9.347 -0.3724 -0.1478 -0.6226
  270MOL0     C36333   1.850  10.822   9.282  0.8839 -0.9711 -0.0657
  270MOL0     C36334   1.792  10.929   9.340  0.2398 -0.2252 -0.0769
  270MOL0     C36335   1.777  11.078   9.305  0.6415  0.3688  0.6202
  270MOL0     C36336   1.734  11.108   9.160  0.0290 -0.6565  0.0487
  270MOL0     C36337   1.679  11.247   9.146  0.4557 -0.6833 -0.0437
  270MOL0     C36338   1.795  11.347   9.163  0.2893 -0.3448  0.1494
  270MOL0     O36339   1.770  11.461   9.068  0.0763  0.7642  0.2155
  270MOL0     C36340   1.838  11.570   9.099  1.3274 -0.2288  0.2127
  270MOL0     C36341   1.922  11.592   9.213  0.3230 -0.0194 -0.4645
  270MOL0     C36342   1.962  11.722   9.253 -0.5423  0.5875  0.5765
  270MOL0     C36343   1.913  11.837   9.183 -0.3136  0.0575 -0.0575
  270MOL0     C36344   1.935  11.971   9.235 -0.3809  0.3517 -0.6836
  270MOL0     O36345   2.008  11.979   9.349  0.7651  0.0200 -0.0458
  270MOL0     C36346   2.032  12.105   9.390  0.0525  0.8529 -0.8176
  270MOL0     C36347   2.153  12.159   9.361 -0.2213 -0.3384 -0.8196
  270MOL0     C36348   2.191  12.284   9.398 -0.3250 -0.1171 -0.8125
  270MOL0     C36349   2.085  12.366   9.436 -0.4449 -0.5750 -0.0530
  270MOL0     O36350   2.120  12.499   9.466 -0.6349 -0.3833  0.8010
  270MOL0     C36351   2.016  12.597   9.506 -0.0951 -0.3621  0.4669
  270MOL0     C36352   2.076  12.739   9.486  0.1246 -0.1133  0.5379
  270MOL0     C36353   2.174  12.783   9.604  0.6220 -0.3586  0.0196
  270MOL0     C36354   2.243  12.906   9.544 -0.5550  0.0518 -0.3454
  270MOL0     C36355   2.312  12.978   9.663  0.5396 -0.1763  0.0955
  270MOL0     C36356   2.388  13.096   9.607  0.4441 -0.8414  0.4127
  270MOL0     C36357   2.304  13.200   9.539  1.0007  0.6039 -0.2939
  270MOL0     C36358   2.191  13.239   9.635 -0.3293 -0.4512  0.4823
  270MOL0    Cl36359   2.111  13.387   9.578 -0.6126 -0.6418 -0.0834
  270MOL0     C36360   1.946  12.322   9.446  0.1192 -0.8012  1.3475
  270MOL0     C36361   1.921  12.180   9.430 -0.7932  0.1340 -0.2859
  270MOL0     O36362   1.910  12.064   9.159  0.6776  0.4245 -1.0699
  270MOL0     C36363   1.842  11.817   9.064  0.6905  0.3268  0.0861
  270MOL0     C36364   1.808  11.685   9.016  1.4970 -0.8619 -1.4467
  270MOL0     N36365   1.739  10.881   9.459 -0.0810 -0.2680 -0.9514
  270MOL0     N36366   1.756  10.757   9.461  0.2554 -0.2062  0.1476
  270MOL0     C36367   2.072   9.612   9.583  0.1532 -0.7243 -0.8533
  270MOL0     C36368   2.155   9.530   9.517 -1.1159  0.1551  0.1833
  270MOL0     C36369   2.374   9.236   9.336 -0.9674 -0.2022  0.5133
  270MOL0     C36370   2.372   9.105   9.280 -1.2631  0.9827 -0.0105
  270MOL0     C36371   2.486   9.018   9.292  0.9163  1.3109 -0.2242
  270MOL0     C36372   2.611   9.059   9.329 -0.3962  0.7601 -0.0455
  270MOL0     O36373   2.726   8.983   9.336  0.1463 -0.6466  0.2761
  270MOL0     C36374   2.851   9.042   9.389  0.4798  0.2191  0.0304
  270MOL0     C36375   2.974   8.955   9.337  0.2427  1.1815 -0.2877
  270MOL0     C36376   2.964   8.812   9.377  0.4387  0.3576  0.0441
  270MOL0     C36377   3.093   8.729   9.329  0.2717 -1.2019 -0.6985
  270MOL0     C36378   3.211   8.762   9.411  0.2267 -0.7835 -0.4390
  270MOL0     C36379   3.308   8.792   9.481 -0.1776 -0.7413  0.1857
  270MOL0     C36380   2.617   9.195   9.375  0.5302  0.4128  0.3001
  270MOL0     C36381   2.503   9.281   9.372  0.3407 -0.8569  0.7260
  270MOL0     C36382   2.531   9.424   9.415 -0.0467 -0.5833 -1.2797
  270MOL0     H36383   2.085   9.607   9.202 -2.2960  2.2043 -0.3787
  270MOL0     H36384   1.912   9.735   9.312  0.7689  0.3691 -0.7930
  270MOL0     H36385   1.893   9.784   9.788  1.2697  0.6792  0.6420
  270MOL0     H36386   2.038   9.831   9.710 -0.1103 -3.4511 -1.5160
  270MOL0     H36387   1.923  10.026   9.804  0.8568  0.3834 -0.4450
  270MOL0     H36388   1.762   9.964   9.738 -0.5934 -1.9252 -2.4160
  270MOL0     H36389   1.848  10.034   9.505 -0.3607  0.2557 -1.8560
  270MOL0     H36390   2.005  10.075   9.574 -0.6977  1.4459 -0.4772
  270MOL0     H36391   1.748  10.216   9.653 -1.5782 -4.1255 -2.5406
  270MOL0     H36392   1.914  10.249   9.706  0.0916  0.6249 -0.6868
  270MOL0     H36393   1.962  10.390   9.538 -0.7317 -0.2158  0.7900
  270MOL0     H36394   1.920  10.268   9.412  2.4214  0.4966  0.2660
  270MOL0     H36395   1.698  10.300   9.448  1.0753 -1.1700  1.3872
  270MOL0     H36396   1.738  10.458   9.537 -0.6207  2.5232 -2.4382
  270MOL0     H36397   1.672  10.489   9.304 -0.5104 -2.6004  1.6116
  270MOL0     H36398   1.799  10.380   9.257  0.8196  1.2892 -1.2897
  270MOL0     H36399   1.978  10.571   9.359  0.1666 -1.1042  1.0745
  270MOL0     H36400   1.900  10.590   9.210 -0.2713 -1.3459  0.3621
  270MOL0     H36401   1.906  10.822   9.189 -0.2845 -0.1608 -0.8039
  270MOL0     H36402   1.707  11.112   9.381 -0.8584  1.3135 -1.0988
  270MOL0     H36403   1.876  11.123   9.319  0.2618  1.5345 -0.2559
  270MOL0     H36404   1.813  11.078   9.090 -1.8718  1.6376 -3.3693
  270MOL0     H36405   1.652  11.046   9.122 -3.2752  3.4368 -0.1212
  270MOL0     H36406   1.596  11.267   9.214 -0.2054  0.7985 -1.2387
  270MOL0     H36407   1.635  11.238   9.046 -2.0281 -0.8590  0.9974
  270MOL0     H36408   1.890  11.295   9.145  0.4081  0.1893 -0.8567
  270MOL0     H36409   1.799  11.391   9.263  2.6747  1.0821 -0.4933
  270MOL0     H36410   1.955  11.518   9.286  0.3600  1.2181  0.8015
  270MOL0     H36411   2.024  11.733   9.342  0.4506 -1.5528  0.2111
  270MOL0     H36412   2.226  12.085   9.330  0.9036 -0.0065  0.9132
  270MOL0     H36413   2.291  12.319   9.374 -0.7535 -0.7302 -3.9702
  270MOL0     H36414   1.935  12.599   9.432  1.5596  0.1785 -1.4183
  270MOL0     H36415   1.972  12.588   9.605 -0.4980  3.0474  0.7165
  270MOL0     H36416   2.135  12.733   9.394 -0.6626 -1.0656  0.0701
  270MOL0     H36417   1.998  12.815   9.476  2.0871  1.7267 -2.1891
  270MOL0     H36418   2.127  12.805   9.700 -1.6559 -1.6258 -0.7385
  270MOL0     H36419   2.241  12.697   9.622 -0.2958 -1.1752 -0.3753
  270MOL0     H36420   2.165  12.974   9.508 -0.9120  0.1016  0.5133
  270MOL0     H36421   2.310  12.873   9.463  2.7105 -0.5298  2.3662
  270MOL0     H36422   2.379  12.916   9.723 -1.5517 -2.5311  0.1946
  270MOL0     H36423   2.240  13.001   9.742  2.7914  0.7414  1.9733
  270MOL0     H36424   2.434  13.158   9.684 -0.0349  0.0824 -0.0192
  270MOL0     H36425   2.455  13.060   9.529  0.6565  3.3608 -1.6407
  270MOL0     H36426   2.257  13.151   9.453  3.0468 -2.2744  0.1162
  270MOL0     H36427   2.360  13.286   9.501  4.9172 -2.0338 -1.0449
  270MOL0     H36428   2.123  13.155   9.653  0.2511 -0.7685  1.2513
  270MOL0     H36429   2.244  13.266   9.727  1.7510  1.3488 -1.1299
  270MOL0     H36430   1.873  12.393   9.482 -1.7623 -0.6086 -2.3051
  270MOL0     H36431   1.824  12.133   9.428 -0.3418 -0.8457  0.2311
  270MOL0     H36432   1.804  11.902   9.008  0.1786 -1.2587 -2.0873
  270MOL0     H36433   1.737  11.669   8.935 -2.1412  1.0274  1.1031
  270MOL0     H36434   2.076   9.622   9.691  0.2056 -0.5997 -0.8660
  270MOL0     H36435   2.232   9.474   9.570  1.4004  0.5951 -2.6878
  270MOL0     H36436   2.287   9.068   9.224 -1.8515 -1.5977  2.3766
  270MOL0     H36437   2.473   8.912   9.271 -1.6580  1.9877 -2.5849
  270MOL0     H36438   2.861   9.059   9.497 -0.5894  4.1549 -0.3481
  270MOL0     H36439   2.876   9.139   9.345  1.5365 -0.5946 -1.2499
  270MOL0     H36440   3.070   8.997   9.369  0.5572 -0.3949  0.9542
  270MOL0     H36441   2.982   8.964   9.228  1.6069 -0.1859 -0.3191
  270MOL0     H36442   2.875   8.759   9.343 -0.7214  1.0405  1.9142
  270MOL0     H36443   2.965   8.803   9.486  3.0453 -2.1423 -0.0502
  270MOL0     H36444   3.075   8.621   9.332  1.9893 -1.5157  2.6397
  270MOL0     H36445   3.113   8.751   9.224  2.0074 -4.2860 -1.1240
  270MOL0     H36446   3.377   8.822   9.558  2.1955  1.3153 -2.5380
  270MOL0     H36447   2.709   9.251   9.387  0.0907  0.8804  1.5491
  270MOL0     H36448   2.630   9.443   9.458 -1.4368  0.3386  1.8672
  270MOL0     H36449   2.508   9.485   9.327 -4.1311 -0.0962 -0.1087
  270MOL0     H36450   2.468   9.449   9.501  0.7761 -1.6871 -0.3266
  271MOL0     O36451   6.650  10.544   6.560 -0.0502  0.0431 -0.2933
  271MOL0     C36452   6.612  10.452   6.488  0.8499 -0.0477 -1.1520
  271MOL0     O36453   6.532  10.464   6.382  0.9355  0.3753 -0.1100
  271MOL0     C36454   6.501  10.599   6.354 -0.1458 -0.5596  0.2212
  271MOL0     C36455   6.576  10.680   6.270  0.0014 -0.0360  0.0658
  271MOL0     C36456   6.543  10.812   6.245  1.0037  0.3500 -0.0423
  271MOL0     C36457   6.421  10.858   6.301 -0.0876  0.3538 -0.1522
  271MOL0     O36458   6.396  10.986   6.266  0.4372 -0.4735  0.2893
  271MOL0     C36459   6.271  11.048   6.294 -0.6863 -0.8527 -0.1417
  271MOL0     C36460   6.265  11.185   6.214 -0.5571  0.1565  0.0995
  271MOL0     C36461   6.377  11.278   6.227  0.4588 -0.0902  0.4010
  271MOL0     C36462   6.502  11.253   6.129  0.6800 -0.1957  0.4263
  271MOL0     C36463   6.588  11.375   6.124 -0.9353 -0.0867  0.1474
  271MOL0     C36464   6.658  11.405   6.255  0.4905  0.8756 -0.9579
  271MOL0     C36465   6.746  11.528   6.232  0.6895  1.0228  0.2377
  271MOL0     C36466   6.829  11.561   6.362  0.5691 -0.0943 -0.1259
  271MOL0     N36467   6.933  11.660   6.316  0.4647 -0.2473 -1.1977
  271MOL0     C36468   7.047  11.624   6.248  0.9336  0.3358  0.6262
  271MOL0     C36469   7.115  11.733   6.217 -0.6292  0.7102 -0.2339
  271MOL0     C36470   7.235  11.746   6.139 -0.4819  0.7419  0.1392
  271MOL0     C36471   7.210  11.839   6.017  0.2038 -0.5389 -0.2565
  271MOL0     C36472   7.331  11.813   5.917  0.7454  0.4126  0.4828
  271MOL0     C36473   7.348  11.945   5.831  1.2800  0.2675  0.5414
  271MOL0     O36474   7.217  12.005   5.796  0.0738  0.0430 -0.5121
  271MOL0     C36475   7.213  12.034   5.665  0.1765 -0.2575  0.4279
  271MOL0     C36476   7.313  12.124   5.610  0.3691  0.2743 -0.2518
  271MOL0     C36477   7.303  12.151   5.470 -0.7656  0.1177 -0.1492
  271MOL0     C36478   7.200  12.098   5.383  0.2026  0.8769 -0.3863
  271MOL0     C36479   7.206  12.116   5.241  1.2298  0.0202 -0.2714
  271MOL0     O36480   7.132  12.025   5.169  0.1154  0.0719  0.3998
  271MOL0     C36481   7.164  11.973   5.051 -0.2371 -1.0172  1.1319
  271MOL0     C36482   7.289  11.987   4.996 -0.6451  1.3988 -0.5755
  271MOL0     C36483   7.319  11.946   4.868 -0.0995  0.1864  0.2919
  271MOL0     C36484   7.228  11.882   4.789  0.3231 -0.3670  0.4303
  271MOL0     O36485   7.269  11.826   4.670  0.1546 -0.4078  0.9704
  271MOL0     C36486   7.182  11.760   4.592  1.4883  0.2036  0.0095
  271MOL0     C36487   7.254  11.705   4.470  0.2364 -1.0717  0.6168
  271MOL0     C36488   7.309  11.567   4.508 -0.4807  0.4776  0.2311
  271MOL0     C36489   7.394  11.510   4.398  0.0709  0.0781 -0.4485
  271MOL0     C36490   7.461  11.385   4.435 -0.3282  0.2390  0.1149
  271MOL0     C36491   7.378  11.263   4.449  0.1852  0.5604  0.0900
  271MOL0     C36492   7.463  11.136   4.489 -0.2712  1.5876 -0.2864
  271MOL0     C36493   7.361  11.015   4.514  0.1672 -0.2054 -0.0707
  271MOL0    Cl36494   7.391  10.939   4.667  0.0816  0.0310 -0.4790
  271MOL0     C36495   7.093  11.860   4.842  0.6129  0.6938  0.2838
  271MOL0     C36496   7.064  11.910   4.972  0.6487 -0.4586  0.8750
  271MOL0     O36497   7.268  12.206   5.190  0.2714  0.0755 -0.1902
  271MOL0     C36498   7.095  12.018   5.445 -1.4937 -0.1320 -1.3344
  271MOL0     C36499   7.107  11.992   5.585  1.1433 -0.2747  0.1846
  271MOL0     N36500   7.035  11.841   6.259  0.5643 -0.3026  0.2524
  271MOL0     N36501   6.940  11.797   6.325 -0.9140 -0.2758 -0.1949
  271MOL0     C36502   6.345  10.778   6.384  0.3451 -0.7720 -0.3142
  271MOL0     C36503   6.384  10.644   6.413 -0.8496 -0.1663  0.2839
  271MOL0     C36504   6.639  10.308   6.528 -0.1505  0.0329 -0.1716
  271MOL0     C36505   6.589  10.200   6.436  0.3467  1.0038  1.2818
  271MOL0     C36506   6.622  10.066   6.463  0.5569 -0.1785 -0.0247
  271MOL0     C36507   6.694  10.029   6.573  0.2400  0.0567  0.1315
  271MOL0     O36508   6.710   9.895   6.610  0.1423  0.1202  0.4778
  271MOL0     C36509   6.658   9.788   6.533 -0.6981  0.4391  0.2168
  271MOL0     C36510   6.749   9.784   6.400  0.7858 -0.7026 -1.1958
  271MOL0     C36511   6.690   9.684   6.305 -1.3935 -0.0955 -0.4250
  271MOL0     C36512   6.559   9.715   6.230 -0.7743 -0.7211  0.2739
  271MOL0     C36513   6.520   9.609   6.137  0.6474  0.4617 -0.9442
  271MOL0     C36514   6.474   9.519   6.066  0.2188  0.2464 -0.2430
  271MOL0     C36515   6.744  10.123   6.662  0.7529 -0.6958  0.1362
  271MOL0     C36516   6.722  10.268   6.644  0.0300  0.7084  0.5199
  271MOL0     C36517   6.752  10.370   6.752 -1.0501  0.4749  0.0289
  271MOL0     H36518   6.665  10.644   6.218 -0.1695  1.6441 -1.5072
  271MOL0     H36519   6.605  10.881   6.188  1.1074 -0.1389 -0.5331
  271MOL0     H36520   6.184  10.985   6.272 -1.0492 -0.7730  0.9977
  271MOL0     H36521   6.276  11.071   6.400  0.0465  0.5825 -0.4632
  271MOL0     H36522   6.169  11.226   6.246 -1.9711 -1.0567 -2.2788
  271MOL0     H36523   6.253  11.157   6.109  2.0828 -0.0233 -0.2065
  271MOL0     H36524   6.408  11.276   6.331 -1.1465  1.2952  0.9463
  271MOL0     H36525   6.347  11.382   6.211 -1.8100 -0.9371 -1.5672
  271MOL0     H36526   6.554  11.166   6.170  0.4823 -0.1359  0.8062
  271MOL0     H36527   6.465  11.242   6.027  2.1894  0.3756 -0.2233
  271MOL0     H36528   6.658  11.382   6.041 -0.5072  2.9637  0.6490
  271MOL0     H36529   6.514  11.455   6.110 -0.6239  0.9022  3.3375
  271MOL0     H36530   6.589  11.428   6.337 -1.2951  0.1335 -2.1807
  271MOL0     H36531   6.723  11.324   6.289  0.4570  2.1228  2.4350
  271MOL0     H36532   6.684  11.610   6.196  0.1629  0.2182 -0.7644
  271MOL0     H36533   6.816  11.517   6.148 -0.5365  1.5977 -0.8830
  271MOL0     H36534   6.764  11.596   6.443  1.1569  1.3597 -0.2391
  271MOL0     H36535   6.876  11.467   6.392  3.5360  0.4076 -2.6917
  271MOL0     H36536   7.074  11.528   6.206 -1.5125 -0.8199  1.5040
  271MOL0     H36537   7.322  11.775   6.198  0.2475 -0.5128 -0.2661
  271MOL0     H36538   7.262  11.646   6.101 -0.0652  1.7724 -2.4935
  271MOL0     H36539   7.107  11.825   5.982 -0.3183  1.2348  0.4518
  271MOL0     H36540   7.221  11.943   6.048  1.0924  0.2795 -3.0442
  271MOL0     H36541   7.299  11.725   5.860  0.0816  0.8055  0.2268
  271MOL0     H36542   7.429  11.792   5.960  0.5372  0.5439  1.0269
  271MOL0     H36543   7.415  11.930   5.746  1.1412  0.6393  0.3651
  271MOL0     H36544   7.390  12.006   5.911 -1.1311 -2.6957  4.5089
  271MOL0     H36545   7.392  12.181   5.659  0.4195 -0.0408  0.0395
  271MOL0     H36546   7.387  12.209   5.431 -0.0999 -1.4674 -1.1397
  271MOL0     H36547   7.369  12.040   5.048 -0.1993  1.7000 -1.5473
  271MOL0     H36548   7.420  11.947   4.829 -0.8193 -1.1353 -1.7483
  271MOL0     H36549   7.127  11.679   4.641 -3.9145  1.3978 -3.1975
  271MOL0     H36550   7.105  11.828   4.553 -1.8157 -2.8898  0.6212
  271MOL0     H36551   7.171  11.697   4.400 -1.2386  0.6633  2.0460
  271MOL0     H36552   7.334  11.771   4.434 -2.8094  3.2212  0.9368
  271MOL0     H36553   7.379  11.580   4.591  3.0365  1.2241 -2.5647
  271MOL0     H36554   7.233  11.491   4.526 -1.1431  0.6267 -1.7186
  271MOL0     H36555   7.472  11.584   4.376  0.5950  0.2119  1.6607
  271MOL0     H36556   7.328  11.498   4.312  0.7615  1.8261 -1.2742
  271MOL0     H36557   7.509  11.399   4.533 -0.6083 -0.8174  0.4251
  271MOL0     H36558   7.551  11.371   4.375 -1.0698  2.9735 -1.8157
  271MOL0     H36559   7.305  11.263   4.530  0.9608 -0.0307  0.8044
  271MOL0     H36560   7.323  11.254   4.354  1.0250 -1.9022 -0.2432
  271MOL0     H36561   7.516  11.164   4.581 -3.6235 -2.2567  3.2444
  271MOL0     H36562   7.533  11.106   4.410 -1.5088 -3.0736  0.1075
  271MOL0     H36563   7.259  11.055   4.510  1.0480  2.4435  1.5169
  271MOL0     H36564   7.385  10.947   4.432 -1.9938 -1.5872  0.3683
  271MOL0     H36565   7.020  11.814   4.776 -0.1216 -3.0842  3.3374
  271MOL0     H36566   6.965  11.893   5.014  0.7151 -1.7854  0.5277
  271MOL0     H36567   7.025  11.960   5.386  0.9744 -2.0055 -2.6247
  271MOL0     H36568   7.028  11.932   5.629 -0.6337  2.7330  1.3926
  271MOL0     H36569   6.255  10.818   6.429  1.9219  0.6725  1.7026
  271MOL0     H36570   6.325  10.583   6.480 -0.9368  1.1888  1.4669
  271MOL0     H36571   6.524  10.213   6.351  0.3868 -4.7810 -0.0130
  271MOL0     H36572   6.576   9.982   6.411 -1.8743 -1.0316  3.1760
  271MOL0     H36573   6.549   9.785   6.526 -0.8435 -2.1832  2.2083
  271MOL0     H36574   6.681   9.694   6.583  0.5542 -0.0652 -1.2339
  271MOL0     H36575   6.848   9.750   6.431  0.7854  1.3669  1.3763
  271MOL0     H36576   6.765   9.881   6.351 -1.1906 -0.9548 -2.4657
  271MOL0     H36577   6.674   9.597   6.369  0.1179 -0.5924 -0.6802
  271MOL0     H36578   6.768   9.665   6.230  2.9213 -0.0714  3.5988
  271MOL0     H36579   6.475   9.719   6.300 -0.4252 -1.0017  0.7200
  271MOL0     H36580   6.578   9.801   6.166  0.3231 -1.4792 -0.4477
  271MOL0     H36581   6.417   9.449   6.008  0.1943 -2.4346  2.7635
  271MOL0     H36582   6.780  10.090   6.759 -2.0320 -0.0547  1.4890
  271MOL0     H36583   6.831  10.434   6.714 -2.4320  1.8147 -0.6966
  271MOL0     H36584   6.675  10.441   6.782 -0.1624  1.4361  0.0882
  271MOL0     H36585   6.795  10.320   6.839 -1.4351  0.9547  0.5017
  272MOL0     O36586   4.191   3.229   4.450  0.0706 -0.6104 -0.7456
  272MOL0     C36587   4.269   3.158   4.516 -0.2117  0.2783  0.5028
  272MOL0     O36588   4.355   3.066   4.468 -1.0575  0.1486  0.2894
  272MOL0     C36589   4.366   3.071   4.328  0.6861  0.9063 -1.1568
  272MOL0     C36590   4.466   3.148   4.265  0.2112 -0.0397  0.3192
  272MOL0     C36591   4.456   3.165   4.128  0.2905 -0.4575  0.4015
  272MOL0     C36592   4.345   3.115   4.057 -0.2781  0.4871  0.5179
  272MOL0     O36593   4.324   3.133   3.920 -0.3788 -0.4876  0.1345
  272MOL0     C36594   4.449   3.151   3.845 -1.2583  0.1038  0.4566
  272MOL0     C36595   4.424   3.073   3.712  0.2545 -0.5420 -0.7114
  272MOL0     C36596   4.547   3.088   3.621  0.5045  0.5000 -0.3579
  272MOL0     C36597   4.522   3.027   3.488 -0.0037 -0.0124 -0.3430
  272MOL0     C36598   4.639   3.050   3.394  0.1148  0.1337  0.1586
  272MOL0     C36599   4.602   3.017   3.250  0.3550  0.8610  0.9031
  272MOL0     C36600   4.710   3.070   3.158  0.3057  0.1471 -0.0626
  272MOL0     C36601   4.665   3.156   3.038  0.2009 -0.7923  0.9592
  272MOL0     N36602   4.568   3.086   2.953 -0.1932 -0.1440  0.4185
  272MOL0     C36603   4.589   2.959   2.916  0.3464  0.2144  0.1503
  272MOL0     C36604   4.487   2.927   2.830 -0.1503 -0.0859 -0.2023
  272MOL0     C36605   4.453   2.792   2.769  0.0173 -0.5492 -0.1495
  272MOL0     C36606   4.379   2.790   2.639  1.0165 -0.0567  0.1201
  272MOL0     C36607   4.354   2.648   2.588  0.3177 -0.5992 -0.1647
  272MOL0     C36608   4.206   2.645   2.527 -0.4752 -0.3818 -0.1418
  272MOL0     O36609   4.185   2.508   2.487 -0.2598  0.4936  0.4689
  272MOL0     C36610   4.240   2.453   2.375  0.0385  0.2742 -0.3779
  272MOL0     C36611   4.289   2.521   2.267 -0.3544 -0.5744  0.3851
  272MOL0     C36612   4.328   2.461   2.150  0.4137  0.7656  0.3463
  272MOL0     C36613   4.303   2.319   2.135  0.1117  0.3785  0.1723
  272MOL0     C36614   4.352   2.241   2.017 -0.0221  0.2732 -0.6404
  272MOL0     O36615   4.329   2.300   1.899  0.2048 -0.1705  0.4510
  272MOL0     C36616   4.390   2.265   1.782 -0.3737 -0.9097  0.1510
  272MOL0     C36617   4.491   2.167   1.766  0.7235 -0.3972 -0.2375
  272MOL0     C36618   4.533   2.141   1.637  0.5566 -0.1998 -0.3747
  272MOL0     C36619   4.480   2.193   1.521  0.9802  0.8366 -0.6003
  272MOL0     O36620   4.555   2.161   1.416  0.0858  0.3006  0.7690
  272MOL0     C36621   4.483   2.158   1.290 -0.3263  0.3170  0.7291
  272MOL0     C36622   4.578   2.095   1.179 -0.2258  0.2638 -0.8376
  272MOL0     C36623   4.572   1.941   1.184  0.5620 -0.7747  1.0774
  272MOL0     C36624   4.629   1.874   1.306  0.1818 -0.8829 -0.2748
  272MOL0     C36625   4.626   1.721   1.306 -0.6833  0.1196  0.0410
  272MOL0     C36626   4.719   1.669   1.200  0.3630  0.3366 -0.4387
  272MOL0     C36627   4.744   1.514   1.220 -0.7983  0.4083  0.4899
  272MOL0     C36628   4.617   1.427   1.204  0.0232 -0.1800 -0.0615
  272MOL0    Cl36629   4.561   1.424   1.039  0.3344 -0.0082 -0.3566
  272MOL0     C36630   4.380   2.294   1.539 -0.3729  0.1259 -0.3291
  272MOL0     C36631   4.333   2.327   1.668  0.7765  0.5785 -0.7512
  272MOL0     O36632   4.396   2.132   2.035 -0.2313 -0.4876  0.1771
  272MOL0     C36633   4.248   2.252   2.242 -0.1211 -0.4508 -0.4006
  272MOL0     C36634   4.222   2.318   2.357  0.8134  0.8636 -1.0342
  272MOL0     N36635   4.415   3.038   2.808  1.0140 -0.5016 -0.1624
  272MOL0     N36636   4.460   3.135   2.885  0.1929 -0.3628 -0.0783
  272MOL0     C36637   4.242   3.045   4.124  0.0130 -0.0119 -0.5351
  272MOL0     C36638   4.255   3.018   4.260 -0.1474  0.3149 -0.3159
  272MOL0     C36639   4.245   3.141   4.654 -0.1320  0.2154 -0.9687
  272MOL0     C36640   4.352   3.086   4.742  0.8647  0.4093  1.7561
  272MOL0     C36641   4.336   3.076   4.881  0.1704  0.2098  0.2765
  272MOL0     C36642   4.217   3.111   4.943 -0.9049  0.4240  0.3269
  272MOL0     O36643   4.228   3.122   5.078  0.3695  0.7764 -0.3542
  272MOL0     C36644   4.109   3.109   5.154  0.1685 -0.0605  0.4024
  272MOL0     C36645   4.138   3.032   5.286  0.4429 -0.2684 -0.1511
  272MOL0     C36646   4.178   2.890   5.252  0.0687  0.0771 -0.4701
  272MOL0     C36647   4.241   2.819   5.377 -0.7468 -0.0701  0.3834
  272MOL0     C36648   4.168   2.855   5.504 -0.0724  0.1361  1.4824
  272MOL0     C36649   4.131   2.887   5.612  1.1482 -0.9061 -0.3850
  272MOL0     C36650   4.119   3.165   4.864  0.2545 -0.1058  0.2933
  272MOL0     C36651   4.131   3.185   4.725  0.1376  0.1929 -0.7037
  272MOL0     C36652   4.016   3.273   4.657  0.1599  0.1970 -0.0545
  272MOL0     H36653   4.537   3.201   4.327  0.5021 -0.9972  0.8184
  272MOL0     H36654   4.529   3.235   4.086 -0.2503  0.0940  0.3599
  272MOL0     H36655   4.476   3.255   3.828  0.8767 -0.4526  0.1227
  272MOL0     H36656   4.533   3.098   3.891 -0.1102 -1.2833 -2.9299
  272MOL0     H36657   4.334   3.098   3.655  0.3347  0.8509 -0.2848
  272MOL0     H36658   4.400   2.974   3.751 -3.3302  1.1496  2.0862
  272MOL0     H36659   4.635   3.035   3.660 -0.6981 -0.6431  0.8903
  272MOL0     H36660   4.597   3.185   3.628  3.2713 -0.7994 -0.8500
  272MOL0     H36661   4.496   2.921   3.484  0.7015 -0.1673 -1.1548
  272MOL0     H36662   4.438   3.075   3.436  1.8525  1.6622 -1.9367
  272MOL0     H36663   4.663   3.157   3.390  1.4289 -0.1686 -0.6544
  272MOL0     H36664   4.726   2.985   3.407 -0.2195 -0.6297 -1.2206
  272MOL0     H36665   4.582   2.911   3.234  2.5988  0.5046  0.2113
  272MOL0     H36666   4.507   3.067   3.224 -0.2316 -1.2350 -1.3260
  272MOL0     H36667   4.777   2.995   3.116  4.3376  3.4942 -0.2391
  272MOL0     H36668   4.783   3.128   3.215 -0.1652  2.1606 -1.4110
  272MOL0     H36669   4.621   3.253   3.064 -1.1964 -1.0887 -0.1393
  272MOL0     H36670   4.754   3.177   2.979 -0.9286  1.8064  0.0399
  272MOL0     H36671   4.660   2.887   2.956  2.3407  1.8680 -0.2873
  272MOL0     H36672   4.554   2.750   2.761 -0.1123 -0.8577 -0.1684
  272MOL0     H36673   4.401   2.736   2.847 -1.0949 -1.6704 -1.6613
  272MOL0     H36674   4.286   2.840   2.665  1.1515 -0.8406  2.3172
  272MOL0     H36675   4.427   2.852   2.562 -1.6701  2.7440  0.5263
  272MOL0     H36676   4.357   2.578   2.672 -0.7969 -2.0151 -1.2742
  272MOL0     H36677   4.418   2.622   2.504 -1.0275  3.6779 -2.8169
  272MOL0     H36678   4.183   2.710   2.442 -0.0144  0.1608  0.1413
  272MOL0     H36679   4.134   2.670   2.605 -0.9416  0.8733 -0.9428
  272MOL0     H36680   4.315   2.626   2.277  0.1859 -0.6970  0.3032
  272MOL0     H36681   4.399   2.516   2.089  2.5573 -0.9396  1.1915
  272MOL0     H36682   4.538   2.118   1.851 -0.8767 -0.5707  0.5946
  272MOL0     H36683   4.620   2.078   1.623 -0.0938 -0.5700 -3.4608
  272MOL0     H36684   4.392   2.098   1.300 -0.5565 -1.0752 -5.3998
  272MOL0     H36685   4.467   2.262   1.261 -2.9794 -0.0200  0.7228
  272MOL0     H36686   4.545   2.122   1.078  0.6927 -0.6623 -1.4180
  272MOL0     H36687   4.682   2.127   1.188  1.1861 -4.1529  1.2315
  272MOL0     H36688   4.465   1.924   1.166  0.6967 -0.7339  0.2222
  272MOL0     H36689   4.633   1.914   1.098  0.7404  1.6834  0.3403
  272MOL0     H36690   4.569   1.900   1.394 -0.6475 -1.1305 -0.7609
  272MOL0     H36691   4.731   1.909   1.324  0.2030  0.8984 -3.1901
  272MOL0     H36692   4.524   1.689   1.282 -0.1266 -1.3198 -0.5523
  272MOL0     H36693   4.665   1.687   1.402  1.7740 -2.0692 -1.5813
  272MOL0     H36694   4.679   1.685   1.099  1.7138  0.5434 -0.9672
  272MOL0     H36695   4.812   1.727   1.200  0.6144 -0.0355 -1.5387
  272MOL0     H36696   4.782   1.497   1.322 -2.7107  2.1243  1.5704
  272MOL0     H36697   4.818   1.463   1.158 -0.7832  0.2144  0.6653
  272MOL0     H36698   4.627   1.323   1.236  0.4023 -0.9401 -2.4506
  272MOL0     H36699   4.533   1.466   1.262  2.7352  2.4309  2.4220
  272MOL0     H36700   4.340   2.349   1.455 -0.8232 -3.1433 -2.4218
  272MOL0     H36701   4.256   2.401   1.684  0.2831  0.1502 -1.1445
  272MOL0     H36702   4.227   2.146   2.241  0.8652 -0.6754  0.5632
  272MOL0     H36703   4.169   2.259   2.431  3.9843  1.0282  1.5855
  272MOL0     H36704   4.159   3.013   4.063 -2.3691 -0.8862  2.8798
  272MOL0     H36705   4.175   2.959   4.304 -1.4076  1.7336 -0.5852
  272MOL0     H36706   4.443   3.041   4.703 -1.8166 -3.0922 -1.3107
  272MOL0     H36707   4.426   3.057   4.938  0.8824 -0.8875 -1.1534
  272MOL0     H36708   4.035   3.058   5.092  0.2118 -0.5110  0.7144
  272MOL0     H36709   4.073   3.208   5.184  3.1915  1.4893 -0.6012
  272MOL0     H36710   4.045   3.039   5.344 -0.2419 -0.4089 -1.2065
  272MOL0     H36711   4.217   3.073   5.350  0.9338  0.1714 -1.0252
  272MOL0     H36712   4.244   2.894   5.165 -0.5310 -0.1533 -0.9486
  272MOL0     H36713   4.095   2.829   5.215 -1.2472  0.5970  1.4866
  272MOL0     H36714   4.262   2.715   5.350  1.0524  0.4122 -0.1745
  272MOL0     H36715   4.346   2.850   5.381 -1.1025  1.1064  1.3664
  272MOL0     H36716   4.079   2.922   5.699  1.4646 -1.7216  0.1414
  272MOL0     H36717   4.036   3.202   4.922 -0.1933 -1.8610  0.8340
  272MOL0     H36718   3.954   3.220   4.584 -2.2349  1.7818  0.6932
  272MOL0     H36719   3.950   3.323   4.729 -2.3249 -1.5183 -0.9865
  272MOL0     H36720   4.067   3.358   4.612  2.1693  1.7896  4.6160
  273MOL0     O36721   2.144   6.148   2.333 -0.1448  0.0853  0.4681
  273MOL0     C36722   2.208   6.258   2.348 -0.0614  0.3810 -1.4815
  273MOL0     O36723   2.221   6.314   2.479  0.1743 -0.7491  0.7395
  273MOL0     C36724   2.190   6.223   2.584  0.2235  0.8327 -0.2134
  273MOL0     C36725   2.060   6.200   2.633 -0.0343 -0.3029 -0.3776
  273MOL0     C36726   2.029   6.109   2.732  0.0436  0.3295 -0.2626
  273MOL0     C36727   2.134   6.031   2.783  0.2606 -0.4266  0.1183
  273MOL0     O36728   2.087   5.917   2.852 -0.0189  0.7991 -0.2755
  273MOL0     C36729   2.172   5.836   2.930 -0.5781  0.4328 -0.3450
  273MOL0     C36730   2.087   5.728   3.004 -0.6810 -0.6058  0.9617
  273MOL0     C36731   2.001   5.641   2.914 -0.0224  0.9905  0.6588
  273MOL0     C36732   1.919   5.534   2.984 -0.1127 -0.1276 -0.1289
  273MOL0     C36733   1.823   5.462   2.887  0.0149 -0.0928  0.2565
  273MOL0     C36734   1.742   5.350   2.962 -0.1358 -1.0284  0.1301
  273MOL0     C36735   1.646   5.271   2.872  0.5448 -0.6248 -0.1434
  273MOL0     C36736   1.520   5.376   2.851 -0.7774 -0.3646  0.7371
  273MOL0     N36737   1.439   5.330   2.741 -0.5230  1.0918 -0.1560
  273MOL0     C36738   1.495   5.326   2.614  1.0950  0.2793 -0.0179
  273MOL0     C36739   1.422   5.222   2.554 -0.1728 -0.1977 -0.3439
  273MOL0     C36740   1.439   5.176   2.414 -0.1182  0.5608  0.4582
  273MOL0     C36741   1.540   5.057   2.414  0.1243 -0.3974  0.2621
  273MOL0     C36742   1.684   5.074   2.460 -0.2377 -1.1260 -0.1061
  273MOL0     C36743   1.774   4.955   2.432 -0.4900 -0.5271 -0.4286
  273MOL0     O36744   1.908   4.999   2.449  0.4771  0.1884  0.2832
  273MOL0     C36745   1.964   5.029   2.569 -0.5660 -1.3280 -0.5216
  273MOL0     C36746   2.085   5.090   2.558  1.0318  0.5215  1.0942
  273MOL0     C36747   2.156   5.149   2.664  0.4214 -0.1269 -0.6193
  273MOL0     C36748   2.102   5.148   2.790  0.2716 -0.2958  0.0211
  273MOL0     C36749   2.185   5.197   2.904 -1.3709  0.5614  0.5055
  273MOL0     O36750   2.316   5.200   2.879 -0.4463  0.0642 -0.5865
  273MOL0     C36751   2.406   5.303   2.906  0.5695 -0.2923  0.7736
  273MOL0     C36752   2.383   5.435   2.867  1.0449 -0.7880 -1.3393
  273MOL0     C36753   2.474   5.539   2.895 -0.0069  0.6328  0.7243
  273MOL0     C36754   2.584   5.504   2.976  0.1331 -0.3392  0.9354
  273MOL0     O36755   2.671   5.603   3.006  0.5607  0.0813 -1.1729
  273MOL0     C36756   2.661   5.633   3.146  0.1439 -0.4220 -0.7894
  273MOL0     C36757   2.733   5.767   3.174  0.0912  0.5206 -0.2825
  273MOL0     C36758   2.665   5.876   3.088  0.5594  0.5067 -0.3905
  273MOL0     C36759   2.532   5.926   3.149 -0.0175 -0.5056 -0.7090
  273MOL0     C36760   2.477   6.031   3.059 -0.2156  0.2553  0.3171
  273MOL0     C36761   2.363   6.108   3.129 -0.0146 -0.6739  0.0019
  273MOL0     C36762   2.354   6.242   3.068  0.0322 -0.4204  0.4715
  273MOL0     C36763   2.219   6.322   3.070 -0.3433  0.6970 -1.1025
  273MOL0    Cl36764   2.141   6.324   3.225  0.4745 -0.2360 -0.5216
  273MOL0     C36765   2.613   5.371   2.999 -0.2161 -0.0747 -0.1050
  273MOL0     C36766   2.526   5.269   2.970  0.0816  0.4537 -0.2260
  273MOL0     O36767   2.142   5.241   3.004  0.4222 -0.9374 -0.3919
  273MOL0     C36768   1.974   5.096   2.805 -0.8174 -0.4009  0.2778
  273MOL0     C36769   1.904   5.028   2.703  0.2252 -0.3808  0.3923
  273MOL0     N36770   1.326   5.174   2.636 -0.1292  0.2708  0.6275
  273MOL0     N36771   1.348   5.228   2.752 -0.2104 -0.2636 -0.6219
  273MOL0     C36772   2.267   6.055   2.744  0.5187 -0.7150  0.8771
  273MOL0     C36773   2.293   6.149   2.648  0.3405  0.2088  0.0096
  273MOL0     C36774   2.270   6.330   2.234  0.2594  1.3230 -0.5338
  273MOL0     C36775   2.262   6.263   2.100 -0.4275 -0.0377  0.0295
  273MOL0     C36776   2.337   6.324   1.996 -1.3005  0.2897 -0.0956
  273MOL0     C36777   2.425   6.435   2.018 -0.3359 -0.0456 -0.6185
  273MOL0     O36778   2.508   6.473   1.911  0.0368 -0.7270 -0.3724
  273MOL0     C36779   2.578   6.600   1.912  0.4361  0.5130 -0.3320
  273MOL0     C36780   2.491   6.723   1.881 -0.9151  0.8675  0.0096
  273MOL0     C36781   2.392   6.703   1.765 -0.2514  1.4896 -0.5280
  273MOL0     C36782   2.252   6.762   1.799  0.2404  0.1660  0.3255
  273MOL0     C36783   2.266   6.904   1.826 -0.5060  1.2649 -0.3089
  273MOL0     C36784   2.268   7.020   1.851  0.4650  0.6399 -0.5814
  273MOL0     C36785   2.418   6.501   2.143 -0.0639 -0.4431  1.3299
  273MOL0     C36786   2.345   6.450   2.249  0.2495 -0.2994  0.7094
  273MOL0     C36787   2.363   6.525   2.376 -0.0916 -0.0732  0.6579
  273MOL0     H36788   1.984   6.269   2.597  3.1378  2.4926 -2.2993
  273MOL0     H36789   1.925   6.095   2.756  0.1221  0.4201  0.1308
  273MOL0     H36790   2.240   5.783   2.863 -1.8809 -0.5971 -0.9007
  273MOL0     H36791   2.231   5.887   3.006  0.9348 -1.5985 -0.0836
  273MOL0     H36792   2.026   5.786   3.074 -0.8782  1.3541 -0.7419
  273MOL0     H36793   2.159   5.664   3.056  1.4654  3.6917  3.8586
  273MOL0     H36794   2.073   5.596   2.846  0.6141  0.6902  1.5124
  273MOL0     H36795   1.934   5.699   2.849  0.2392 -2.6203 -3.2738
  273MOL0     H36796   1.996   5.468   3.025  0.4618 -0.3126 -1.4242
  273MOL0     H36797   1.868   5.585   3.066 -1.3910 -0.6611 -0.5615
  273MOL0     H36798   1.761   5.534   2.833 -2.2101 -3.3174 -1.8858
  273MOL0     H36799   1.880   5.420   2.805  2.3917  2.0683  0.6946
  273MOL0     H36800   1.812   5.283   3.013  1.0330 -1.6994 -2.2405
  273MOL0     H36801   1.679   5.387   3.044 -1.8409  1.4387 -2.1090
  273MOL0     H36802   1.609   5.184   2.927 -6.2414  2.2045  0.7934
  273MOL0     H36803   1.693   5.232   2.781 -0.9093 -0.6875 -0.8993
  273MOL0     H36804   1.452   5.396   2.935  1.2725  1.0966  2.1478
  273MOL0     H36805   1.557   5.474   2.821 -3.1525  0.2385 -0.4416
  273MOL0     H36806   1.569   5.391   2.569 -0.1039  0.2300 -2.1856
  273MOL0     H36807   1.342   5.154   2.369 -1.7071  2.9093  2.5355
  273MOL0     H36808   1.483   5.253   2.349  0.3751 -2.1505 -2.7204
  273MOL0     H36809   1.495   4.972   2.467 -0.5357  0.7102  1.5523
  273MOL0     H36810   1.545   5.034   2.308 -2.2208  3.0817 -0.7785
  273MOL0     H36811   1.689   5.091   2.568 -0.6383 -4.4582  0.5440
  273MOL0     H36812   1.728   5.165   2.418  1.0776 -0.7451  1.9097
  273MOL0     H36813   1.760   4.915   2.331  1.3453 -1.5861 -0.3065
  273MOL0     H36814   1.754   4.868   2.497 -0.4608  0.0937  0.4284
  273MOL0     H36815   2.128   5.089   2.459 -0.4333 -1.2848  0.4107
  273MOL0     H36816   2.245   5.200   2.630 -0.3161  2.2980  0.8597
  273MOL0     H36817   2.290   5.449   2.813 -0.5386 -1.1373  1.1090
  273MOL0     H36818   2.453   5.643   2.872  3.4035  1.7373  1.9446
  273MOL0     H36819   2.556   5.651   3.170  1.1469  1.2309  3.2566
  273MOL0     H36820   2.686   5.549   3.212 -3.6557 -0.7230  0.5387
  273MOL0     H36821   2.735   5.805   3.276  2.7029 -2.3722  0.8911
  273MOL0     H36822   2.835   5.738   3.146  0.4352 -5.1073  4.7640
  273MOL0     H36823   2.732   5.961   3.075 -1.8980  2.7626  0.7826
  273MOL0     H36824   2.644   5.826   2.993  2.1519 -3.1686  0.9814
  273MOL0     H36825   2.560   5.965   3.248  1.7320 -2.8851 -0.1665
  273MOL0     H36826   2.463   5.843   3.165  1.6378 -1.6112  1.2678
  273MOL0     H36827   2.438   5.978   2.972  1.6771  1.4008 -1.3130
  273MOL0     H36828   2.558   6.097   3.027 -0.7299  2.4373  3.0757
  273MOL0     H36829   2.268   6.057   3.111 -1.3337  1.5041  0.4966
  273MOL0     H36830   2.376   6.114   3.237  0.5175  0.3782 -0.1137
  273MOL0     H36831   2.382   6.229   2.963 -1.0105 -3.0071  0.4406
  273MOL0     H36832   2.427   6.297   3.128 -0.4888  0.2884  0.4617
  273MOL0     H36833   2.230   6.422   3.027 -2.2473  0.5099 -2.1734
  273MOL0     H36834   2.144   6.280   3.002 -0.9175  3.0517 -2.0267
  273MOL0     H36835   2.712   5.343   3.032  0.4057  2.3734  0.3172
  273MOL0     H36836   2.554   5.171   3.008  0.5621  1.8417  3.4991
  273MOL0     H36837   1.937   5.098   2.906 -0.1379  0.1596  0.5275
  273MOL0     H36838   1.808   4.978   2.712 -0.1877 -1.0726 -4.8761
  273MOL0     H36839   2.356   6.008   2.785  0.5318  0.7987  2.7288
  273MOL0     H36840   2.397   6.160   2.622  0.9257 -4.9429 -0.7742
  273MOL0     H36841   2.195   6.177   2.101 -0.8673  0.2740  2.2875
  273MOL0     H36842   2.353   6.284   1.897  3.4596 -0.0751  0.5614
  273MOL0     H36843   2.646   6.593   1.827  0.9569  0.9263  0.0416
  273MOL0     H36844   2.641   6.607   2.002 -0.6890 -0.9972  0.6283
  273MOL0     H36845   2.566   6.797   1.849 -0.8714  0.8442  0.0593
  273MOL0     H36846   2.447   6.769   1.970  3.3717 -0.7996  3.3427
  273MOL0     H36847   2.372   6.596   1.748  2.5930  0.1825  3.0977
  273MOL0     H36848   2.434   6.742   1.672 -1.4829 -0.5120 -2.0300
  273MOL0     H36849   2.176   6.741   1.724  0.6614  6.0378 -2.3421
  273MOL0     H36850   2.203   6.728   1.891 -0.6001 -1.2732 -0.6243
  273MOL0     H36851   2.284   7.118   1.892  3.2520  0.0197  0.0854
  273MOL0     H36852   2.476   6.593   2.146  0.8761 -0.9483 -0.0638
  273MOL0     H36853   2.264   6.530   2.420 -1.1531  1.6514 -1.7084
  273MOL0     H36854   2.441   6.475   2.435  2.0375  0.1802 -1.7538
  273MOL0     H36855   2.392   6.629   2.357 -1.4751  0.2333  0.1276
  274MOL0     O36856   2.062   5.064   5.812  0.7836 -0.3606  0.4428
  274MOL0     C36857   1.971   5.068   5.728  0.4713  0.7077  0.6673
  274MOL0     O36858   1.988   5.110   5.597 -1.0162 -0.4708 -0.0742
  274MOL0     C36859   2.097   5.185   5.568 -1.0352  0.1476  0.7711
  274MOL0     C36860   2.216   5.122   5.545 -0.1168  0.6095  0.5657
  274MOL0     C36861   2.335   5.195   5.527  0.1920 -0.2248 -1.0272
  274MOL0     C36862   2.337   5.328   5.544  1.2616 -0.0775 -0.5030
  274MOL0     O36863   2.454   5.395   5.533 -0.3741  0.2628 -0.1582
  274MOL0     C36864   2.550   5.371   5.640  0.6899 -1.0908  0.1942
  274MOL0     C36865   2.675   5.448   5.625 -0.3184  0.0184 -0.1802
  274MOL0     C36866   2.744   5.410   5.490  0.3166 -0.2387 -0.6595
  274MOL0     C36867   2.894   5.423   5.484 -0.6447  0.4329  0.2941
  274MOL0     C36868   2.961   5.377   5.348  0.1752 -0.3448 -0.1914
  274MOL0     C36869   3.086   5.295   5.363 -0.8163 -0.1080 -0.4152
  274MOL0     C36870   3.157   5.281   5.223  0.1957  0.4484  0.5404
  274MOL0     C36871   3.088   5.182   5.135 -0.0755  0.2531  0.1829
  274MOL0     N36872   3.170   5.150   5.018  0.8244  0.3798  0.0994
  274MOL0     C36873   3.297   5.194   4.976  0.7132  0.4590 -0.8345
  274MOL0     C36874   3.315   5.140   4.853  0.5011 -0.1406  0.0863
  274MOL0     C36875   3.428   5.171   4.757  1.5210 -0.9196 -0.5248
  274MOL0     C36876   3.398   5.287   4.666 -0.3940 -0.4594  0.2538
  274MOL0     C36877   3.502   5.325   4.563  0.5594 -0.5750  0.2651
  274MOL0     C36878   3.614   5.403   4.622 -0.3818 -0.3105 -0.1284
  274MOL0     O36879   3.582   5.527   4.689  0.2742  0.7099 -0.2508
  274MOL0     C36880   3.672   5.636   4.690  0.2306 -0.1089  0.3517
  274MOL0     C36881   3.615   5.756   4.724 -0.0649 -0.4300 -0.2512
  274MOL0     C36882   3.683   5.873   4.720 -0.0202  0.5434 -0.4793
  274MOL0     C36883   3.823   5.873   4.694  0.6747  0.6127  0.4412
  274MOL0     C36884   3.899   6.002   4.695 -0.0992 -0.2709 -0.1708
  274MOL0     O36885   4.024   5.996   4.642 -0.1953  0.3041 -0.2258
  274MOL0     C36886   4.106   6.099   4.665  0.6418 -1.5420  0.2644
  274MOL0     C36887   4.120   6.163   4.792 -0.6366 -0.0873 -0.1497
  274MOL0     C36888   4.208   6.268   4.814  0.4123 -0.4877  0.8541
  274MOL0     C36889   4.277   6.329   4.712 -0.5652 -0.4718  0.3287
  274MOL0     O36890   4.367   6.432   4.744 -0.6533 -0.1297  0.1306
  274MOL0     C36891   4.436   6.513   4.647  0.2331 -0.9103 -0.7057
  274MOL0     C36892   4.558   6.447   4.591 -1.0457 -1.3286  1.0859
  274MOL0     C36893   4.686   6.539   4.596  0.7328  0.5287 -0.4464
  274MOL0     C36894   4.690   6.675   4.521 -1.1603  0.4519 -0.3092
  274MOL0     C36895   4.638   6.677   4.387  0.1049 -0.5318 -0.4292
  274MOL0     C36896   4.726   6.597   4.288  0.4334  0.3136 -0.3454
  274MOL0     C36897   4.884   6.614   4.297  0.4823 -0.0449  1.0901
  274MOL0     C36898   4.945   6.527   4.186 -1.4717 -0.3081  0.1618
  274MOL0    Cl36899   5.117   6.537   4.205  0.0867  0.3241  0.2744
  274MOL0     C36900   4.259   6.278   4.584 -0.1517  0.5878 -0.1483
  274MOL0     C36901   4.181   6.159   4.565  0.5663 -0.1649  0.2872
  274MOL0     O36902   3.842   6.100   4.746  0.5489 -0.1235 -1.2159
  274MOL0     C36903   3.884   5.745   4.660  0.5269  0.3099 -0.3559
  274MOL0     C36904   3.805   5.631   4.652 -0.6723  0.1601  1.2818
  274MOL0     N36905   3.213   5.058   4.829  0.3484 -0.4304  0.6984
  274MOL0     N36906   3.129   5.059   4.925  0.3259  0.0766 -1.0868
  274MOL0     C36907   2.212   5.389   5.572 -0.5833 -0.3491 -0.4203
  274MOL0     C36908   2.092   5.319   5.586 -0.2534 -1.4591 -0.0729
  274MOL0     C36909   1.835   5.001   5.757  0.7685  1.2757 -0.2064
  274MOL0     C36910   1.729   5.027   5.665  0.4564  1.3510 -0.3631
  274MOL0     C36911   1.602   4.978   5.686  0.9732 -1.6237 -0.7870
  274MOL0     C36912   1.573   4.882   5.787 -0.7165 -0.3407 -0.4221
  274MOL0     O36913   1.462   4.804   5.810 -0.3123  1.1338  0.2203
  274MOL0     C36914   1.348   4.846   5.734  0.3314  0.7986 -0.0908
  274MOL0     C36915   1.234   4.773   5.808 -0.4158  0.0153 -0.9295
  274MOL0     C36916   1.253   4.768   5.970  0.7323 -0.3775  0.4539
  274MOL0     C36917   1.119   4.732   6.032 -0.3271  0.8670  0.3799
  274MOL0     C36918   1.135   4.750   6.173 -0.2244 -0.1609 -1.1581
  274MOL0     C36919   1.149   4.748   6.290  0.1106  0.0000  0.7493
  274MOL0     C36920   1.685   4.859   5.879  1.4067 -1.5172 -0.4473
  274MOL0     C36921   1.810   4.918   5.872  0.4325  0.5911 -0.4577
  274MOL0     C36922   1.897   4.895   5.986  0.3113 -0.1620  0.0917
  274MOL0     H36923   2.218   5.015   5.562  1.8572  0.6829  1.0843
  274MOL0     H36924   2.436   5.157   5.512  1.0793  2.2836 -1.9026
  274MOL0     H36925   2.499   5.387   5.736  1.6103  0.0971  0.5085
  274MOL0     H36926   2.576   5.265   5.635 -1.4326 -1.5956 -2.4001
  274MOL0     H36927   2.745   5.427   5.707  2.7654 -0.7237 -2.8239
  274MOL0     H36928   2.659   5.556   5.615  2.2700  0.5015  0.3327
  274MOL0     H36929   2.711   5.482   5.414  0.2008  1.1946  0.6920
  274MOL0     H36930   2.704   5.316   5.451 -1.6809  0.8800 -1.5342
  274MOL0     H36931   2.911   5.527   5.511  2.0088  0.8581 -2.5039
  274MOL0     H36932   2.942   5.358   5.558  1.0303  0.7540 -0.4838
  274MOL0     H36933   2.885   5.325   5.290 -1.2631 -1.4560  2.4959
  274MOL0     H36934   2.982   5.467   5.289 -1.3698 -0.3867 -0.8468
  274MOL0     H36935   3.157   5.336   5.436  0.1183 -1.5536 -0.4584
  274MOL0     H36936   3.051   5.201   5.407  0.2458  0.3134  1.4397
  274MOL0     H36937   3.250   5.235   5.258  0.1371  0.5701  0.8650
  274MOL0     H36938   3.163   5.381   5.179  0.1351  0.3645  0.3447
  274MOL0     H36939   3.071   5.093   5.196 -0.4731 -0.6877 -1.2419
  274MOL0     H36940   2.996   5.227   5.097 -1.4277 -0.8168  2.0181
  274MOL0     H36941   3.360   5.271   5.021 -3.1212  3.0069  0.6699
  274MOL0     H36942   3.511   5.199   4.823 -0.5516 -1.6310  2.6372
  274MOL0     H36943   3.456   5.084   4.696 -0.1057 -0.6437 -1.7228
  274MOL0     H36944   3.303   5.263   4.617 -0.8342 -0.1179  0.9219
  274MOL0     H36945   3.370   5.377   4.721  1.0426  0.9897 -1.2666
  274MOL0     H36946   3.454   5.385   4.485  3.7793 -0.9304 -2.1852
  274MOL0     H36947   3.538   5.237   4.509  1.0678 -1.1752  1.5535
  274MOL0     H36948   3.679   5.413   4.534 -1.0940 -3.3148 -1.1233
  274MOL0     H36949   3.660   5.340   4.699 -1.9609  0.9779  1.9628
  274MOL0     H36950   3.518   5.753   4.772  0.5203 -0.8448  0.9420
  274MOL0     H36951   3.650   5.971   4.756 -0.5320  0.2501 -0.1368
  274MOL0     H36952   4.076   6.115   4.880  1.3659  1.1019  1.6143
  274MOL0     H36953   4.226   6.299   4.917 -2.4927  0.7505  1.0942
  274MOL0     H36954   4.370   6.538   4.563  2.9008  0.7527 -2.4686
  274MOL0     H36955   4.461   6.610   4.690 -3.7341 -0.0730  0.1468
  274MOL0     H36956   4.583   6.365   4.659 -1.9576 -2.6020 -0.0661
  274MOL0     H36957   4.518   6.417   4.494 -0.4600  1.2306 -0.0341
  274MOL0     H36958   4.692   6.563   4.702 -2.6734  1.7871 -0.4218
  274MOL0     H36959   4.769   6.471   4.573 -0.8578 -2.7117  2.5756
  274MOL0     H36960   4.796   6.704   4.525 -1.1508  0.2371  1.5743
  274MOL0     H36961   4.631   6.752   4.572 -1.2003  0.0086  0.3214
  274MOL0     H36962   4.629   6.782   4.359 -2.9535  0.1607  2.4308
  274MOL0     H36963   4.535   6.642   4.372  1.1024 -3.6088 -0.8542
  274MOL0     H36964   4.706   6.490   4.293 -1.5242  0.6170 -0.9607
  274MOL0     H36965   4.691   6.620   4.187  0.9037  0.7930 -0.3985
  274MOL0     H36966   4.921   6.592   4.397  1.6441 -1.2401  0.4309
  274MOL0     H36967   4.887   6.722   4.285 -0.3296  0.0833  1.9270
  274MOL0     H36968   4.917   6.421   4.186 -2.0817 -0.1876 -1.3803
  274MOL0     H36969   4.912   6.556   4.086 -2.1797 -1.1787  0.1288
  274MOL0     H36970   4.318   6.331   4.509 -1.7543  1.1202 -1.0819
  274MOL0     H36971   4.177   6.099   4.475 -1.8543  0.5743 -0.1674
  274MOL0     H36972   3.990   5.729   4.640  0.7958  3.0302 -1.5993
  274MOL0     H36973   3.854   5.542   4.615  3.2820  3.7449 -3.3106
  274MOL0     H36974   2.221   5.496   5.591 -0.8985 -0.2910 -0.5881
  274MOL0     H36975   1.998   5.367   5.613 -0.5369 -0.3992 -2.6578
  274MOL0     H36976   1.745   5.088   5.577 -2.5133  0.9718 -1.2971
  274MOL0     H36977   1.538   5.020   5.609 -1.0522 -1.1900  1.0554
  274MOL0     H36978   1.362   4.787   5.643  2.0295  0.3663  0.4244
  274MOL0     H36979   1.334   4.953   5.717  0.2661  0.4899 -2.3325
  274MOL0     H36980   1.225   4.666   5.785 -1.2887 -1.0464  3.3349
  274MOL0     H36981   1.134   4.814   5.787 -1.9973 -0.9545  3.4100
  274MOL0     H36982   1.288   4.867   6.000 -1.7791  1.0992 -1.1550
  274MOL0     H36983   1.318   4.685   5.998 -0.0260 -1.2767 -0.3965
  274MOL0     H36984   1.038   4.802   6.005 -1.6526 -0.5078  0.6678
  274MOL0     H36985   1.079   4.635   6.000  2.1970 -0.3814  0.8268
  274MOL0     H36986   1.180   4.740   6.392  4.4865  2.2489 -0.1434
  274MOL0     H36987   1.650   4.790   5.955 -0.4279 -1.6563 -1.3522
  274MOL0     H36988   1.855   4.810   6.040  1.1269 -0.3313  0.4857
  274MOL0     H36989   1.998   4.855   5.971  1.0450  2.6105 -4.1559
  274MOL0     H36990   1.890   4.989   6.041  1.0183  1.0387 -1.7549
  275MOL0     O36991   3.585   6.823   6.037  0.4040 -0.2589  0.4858
  275MOL0     C36992   3.517   6.917   5.986  0.0557 -0.0485  0.0799
  275MOL0     O36993   3.560   7.046   5.964 -0.1819  0.1655 -0.1611
  275MOL0     C36994   3.685   7.085   5.998 -0.3747  0.6049  0.5305
  275MOL0     C36995   3.697   7.181   6.097  0.6919 -0.1209 -0.4915
  275MOL0     C36996   3.822   7.233   6.116  0.2080  0.8107 -0.1475
  275MOL0     C36997   3.938   7.202   6.043 -0.4535  0.9873  0.3690
  275MOL0     O36998   4.055   7.263   6.066  0.2289  0.0852  0.1220
  275MOL0     C36999   4.179   7.204   6.028 -0.5286  0.1155 -0.3565
  275MOL0     C37000   4.296   7.289   6.088  0.2258  0.1235  0.6370
  275MOL0     C37001   4.439   7.258   6.042 -0.7841  0.4585 -0.4323
  275MOL0     C37002   4.492   7.333   5.919 -0.3456 -1.2765  0.3973
  275MOL0     C37003   4.611   7.260   5.859 -1.0560 -0.3752 -0.6308
  275MOL0     C37004   4.671   7.339   5.748  0.7335  0.3682 -0.0887
  275MOL0     C37005   4.804   7.301   5.699 -0.7814 -0.0628 -0.7426
  275MOL0     C37006   4.864   7.421   5.637 -0.0984  0.7129 -0.0041
  275MOL0     N37007   4.990   7.389   5.572 -0.5314  0.7212 -0.3850
  275MOL0     C37008   5.066   7.269   5.579  0.0268 -0.1541 -0.3145
  275MOL0     C37009   5.169   7.296   5.496 -0.5951 -0.3402 -0.2978
  275MOL0     C37010   5.288   7.203   5.464 -0.3820 -0.7824 -0.8645
  275MOL0     C37011   5.414   7.279   5.519  0.2259 -0.4023  0.0531
  275MOL0     C37012   5.531   7.189   5.574 -1.3624  0.1467  0.5012
  275MOL0     C37013   5.654   7.271   5.623  0.0657  0.0477 -0.3146
  275MOL0     O37014   5.609   7.344   5.743 -0.3118 -0.3300  0.2745
  275MOL0     C37015   5.621   7.304   5.867  0.5309 -0.2127  0.7864
  275MOL0     C37016   5.682   7.188   5.897  0.4734 -0.3228 -0.7803
  275MOL0     C37017   5.709   7.160   6.036 -0.7243  0.0428  0.6296
  275MOL0     C37018   5.675   7.248   6.135  1.1055  0.2579  0.1073
  275MOL0     C37019   5.716   7.236   6.274  0.5618  0.6219  0.3165
  275MOL0     O37020   5.838   7.170   6.283 -0.8497  0.2541  0.3116
  275MOL0     C37021   5.881   7.111   6.397 -0.1834  0.2796  0.4990
  275MOL0     C37022   5.794   7.036   6.482 -0.2270 -0.0212 -0.0954
  275MOL0     C37023   5.849   6.968   6.587  0.4466 -0.0664  0.3687
  275MOL0     C37024   5.987   6.973   6.610 -1.2585  0.3307 -0.0476
  275MOL0     O37025   6.039   6.910   6.720  0.2763 -1.1081 -0.4113
  275MOL0     C37026   6.141   6.815   6.691 -0.8977  0.0251  0.1415
  275MOL0     C37027   6.143   6.705   6.802  0.3698 -0.5295  0.1339
  275MOL0     C37028   6.229   6.739   6.931 -0.5125 -0.8490 -0.4756
  275MOL0     C37029   6.233   6.606   7.006 -0.8926  0.2335 -0.4183
  275MOL0     C37030   6.275   6.602   7.162 -0.6985 -0.2368  0.4638
  275MOL0     C37031   6.300   6.459   7.216 -0.1598  0.1327  0.2126
  275MOL0     C37032   6.334   6.457   7.365 -1.1741  0.8070 -0.4649
  275MOL0     C37033   6.223   6.506   7.461  0.0914  1.0948 -0.8266
  275MOL0    Cl37034   6.252   6.678   7.526 -0.2971  0.6536 -0.1009
  275MOL0     C37035   6.073   7.050   6.533 -0.0737  0.1309  0.6556
  275MOL0     C37036   6.019   7.121   6.425  1.4601 -0.4540 -0.2608
  275MOL0     O37037   5.657   7.292   6.369  0.1307  0.4894 -0.2028
  275MOL0     C37038   5.616   7.364   6.101  0.1847 -0.0467 -0.7826
  275MOL0     C37039   5.589   7.392   5.966 -0.4674 -0.3259  0.7295
  275MOL0     N37040   5.153   7.425   5.443 -0.5717 -0.2532  0.8634
  275MOL0     N37041   5.056   7.485   5.498  0.0207  0.9622  0.7355
  275MOL0     C37042   3.923   7.102   5.945  0.7590 -0.2173 -0.1380
  275MOL0     C37043   3.792   7.041   5.924 -0.3816 -0.8988 -0.4296
  275MOL0     C37044   3.376   6.893   5.942  0.1026  0.1729 -0.4491
  275MOL0     C37045   3.294   7.010   5.913 -1.3498  0.7799  1.0877
  275MOL0     C37046   3.161   6.989   5.876 -0.0118 -0.1899 -0.0091
  275MOL0     C37047   3.109   6.862   5.883 -0.2004 -0.2231  0.2040
  275MOL0     O37048   2.977   6.854   5.857  0.1543  0.1111 -0.5832
  275MOL0     C37049   2.930   6.917   5.735 -0.0245 -0.1995  0.2928
  275MOL0     C37050   2.811   6.840   5.674  1.1167  0.1198 -0.7228
  275MOL0     C37051   2.696   6.812   5.777  0.3769  1.3912  0.2625
  275MOL0     C37052   2.608   6.939   5.798 -0.1717 -0.2888 -0.5033
  275MOL0     C37053   2.488   6.909   5.868  0.3303  0.5246  0.0335
  275MOL0     C37054   2.380   6.895   5.920 -0.5374  0.5832  0.0244
  275MOL0     C37055   3.182   6.753   5.923  0.2146 -0.3426 -0.4104
  275MOL0     C37056   3.317   6.761   5.949 -0.0229  0.5087 -0.6475
  275MOL0     C37057   3.380   6.628   5.972  0.0209 -0.6511  0.0166
  275MOL0     H37058   3.612   7.204   6.161  0.8047 -0.6674 -0.1477
  275MOL0     H37059   3.834   7.292   6.206 -2.3130 -0.2336  0.9600
  275MOL0     H37060   4.180   7.099   6.058  0.7686 -0.4662 -2.2672
  275MOL0     H37061   4.193   7.198   5.920 -1.3116 -0.9578 -0.4212
  275MOL0     H37062   4.296   7.284   6.197 -1.3101  0.3331  0.6695
  275MOL0     H37063   4.275   7.391   6.053  0.1757 -0.2519 -0.4931
  275MOL0     H37064   4.452   7.152   6.020  1.4979  0.9309 -1.6927
  275MOL0     H37065   4.508   7.286   6.122  1.8715  1.4884 -2.8952
  275MOL0     H37066   4.419   7.348   5.839  0.1028  0.0280  0.2025
  275MOL0     H37067   4.518   7.434   5.954  0.4839 -2.0219  2.0324
  275MOL0     H37068   4.679   7.240   5.942 -3.0077 -3.7019  0.3648
  275MOL0     H37069   4.583   7.167   5.809  0.1815 -0.3091 -1.4800
  275MOL0     H37070   4.602   7.337   5.663  1.5520  0.6578 -0.7768
  275MOL0     H37071   4.682   7.442   5.783  1.1458  0.3091 -0.0367
  275MOL0     H37072   4.800   7.225   5.620  0.2490  0.8033 -1.6624
  275MOL0     H37073   4.860   7.258   5.782 -0.8886 -0.4512 -0.8675
  275MOL0     H37074   4.788   7.451   5.565 -1.6717 -1.6762  0.5263
  275MOL0     H37075   4.881   7.495   5.715 -1.2228  3.1918 -1.9562
  275MOL0     H37076   5.069   7.180   5.640 -0.2121 -0.4653 -0.7595
  275MOL0     H37077   5.270   7.110   5.519 -3.0001 -0.2565 -0.7070
  275MOL0     H37078   5.305   7.200   5.356  0.3773  0.9188 -0.8238
  275MOL0     H37079   5.447   7.357   5.449 -2.1792  0.1189 -0.5711
  275MOL0     H37080   5.373   7.332   5.606  1.5791  2.3730 -0.8589
  275MOL0     H37081   5.563   7.129   5.489  0.5340  0.8646  0.6729
  275MOL0     H37082   5.493   7.121   5.651  0.7150 -2.4099 -0.6089
  275MOL0     H37083   5.676   7.348   5.547 -4.3369  2.0049  0.1133
  275MOL0     H37084   5.748   7.219   5.641  0.1693 -0.0519 -1.1007
  275MOL0     H37085   5.729   7.120   5.826 -1.4783 -0.7350 -1.7319
  275MOL0     H37086   5.784   7.083   6.050 -0.9257 -0.2046  0.3714
  275MOL0     H37087   5.685   7.040   6.477 -0.6105  2.0623  4.4285
  275MOL0     H37088   5.792   6.931   6.671  1.8473  0.9480  1.8487
  275MOL0     H37089   6.118   6.771   6.593 -1.9360 -0.6728  0.6862
  275MOL0     H37090   6.247   6.844   6.685 -0.4004 -1.1629  2.0855
  275MOL0     H37091   6.042   6.665   6.812 -1.3944  2.9320 -1.8934
  275MOL0     H37092   6.206   6.627   6.758 -1.3799 -1.0959 -1.5250
  275MOL0     H37093   6.322   6.786   6.899 -0.5905  0.1261  0.6556
  275MOL0     H37094   6.186   6.810   7.002  0.2638  0.1557 -0.9948
  275MOL0     H37095   6.311   6.560   6.945 -0.7971 -2.4455  1.5373
  275MOL0     H37096   6.140   6.552   6.990 -0.4665 -0.0604 -2.0749
  275MOL0     H37097   6.195   6.649   7.220  0.2601  1.9414  0.1244
  275MOL0     H37098   6.362   6.667   7.176 -0.3069 -0.4744 -0.7204
  275MOL0     H37099   6.206   6.412   7.187 -2.8743  4.3893  1.1975
  275MOL0     H37100   6.392   6.428   7.165  1.6501  1.8697  2.1827
  275MOL0     H37101   6.411   6.533   7.378  0.4908 -0.8583 -0.2201
  275MOL0     H37102   6.364   6.355   7.392  0.6181  0.7413 -2.4533
  275MOL0     H37103   6.130   6.511   7.404 -2.5028 -2.0025  2.6786
  275MOL0     H37104   6.206   6.428   7.536  0.7403  0.6625 -1.1109
  275MOL0     H37105   6.178   7.058   6.561  0.5195  1.5390 -1.7103
  275MOL0     H37106   6.084   7.170   6.354  0.9241  2.2199  0.9591
  275MOL0     H37107   5.581   7.431   6.178 -1.3468  0.4531 -1.8674
  275MOL0     H37108   5.536   7.486   5.951  2.2767  1.4219  1.2581
  275MOL0     H37109   4.007   7.066   5.887  0.0371 -1.7460 -0.2926
  275MOL0     H37110   3.780   6.986   5.831 -0.1402 -1.4489 -0.1403
  275MOL0     H37111   3.320   7.115   5.926 -0.7000  0.4720  2.5436
  275MOL0     H37112   3.099   7.076   5.856 -3.0104 -2.2532 -0.3533
  275MOL0     H37113   3.012   6.935   5.665 -0.0964  0.3953  0.3498
  275MOL0     H37114   2.892   7.016   5.762 -2.2890 -0.7383 -0.6894
  275MOL0     H37115   2.835   6.747   5.622  0.2916  0.8550 -2.5301
  275MOL0     H37116   2.760   6.899   5.596  0.6187  0.5475 -0.0872
  275MOL0     H37117   2.730   6.781   5.877 -0.9263 -0.9516  0.0422
  275MOL0     H37118   2.642   6.727   5.735  2.7578  1.8571 -4.4012
  275MOL0     H37119   2.653   7.000   5.877 -1.8938  1.2684 -0.6572
  275MOL0     H37120   2.578   7.003   5.714 -1.7769 -1.8407 -1.1686
  275MOL0     H37121   2.280   6.894   5.957 -1.3646 -2.2612 -1.9525
  275MOL0     H37122   3.132   6.657   5.916  0.9218 -0.6315 -2.4660
  275MOL0     H37123   3.374   6.603   6.079  2.1554 -0.2583  0.2566
  275MOL0     H37124   3.311   6.555   5.928 -0.4267 -0.0903 -0.2169
  275MOL0     H37125   3.487   6.615   5.954  0.1791 -1.4827  1.4065
  276MOL0     O37126   1.020   8.264   3.677  1.1688 -0.1400 -0.0777
  276MOL0     C37127   0.915   8.194   3.695 -0.5756  0.5410  0.3781
  276MOL0     O37128   0.798   8.248   3.739 -0.2867  0.2815 -0.0714
  276MOL0     C37129   0.784   8.368   3.803  0.1759  0.3996  1.1375
  276MOL0     C37130   0.649   8.423   3.805 -0.4702 -0.0647 -0.3383
  276MOL0     C37131   0.623   8.552   3.855  0.5475  0.1268  0.6629
  276MOL0     C37132   0.732   8.615   3.916  0.1641 -0.1743  0.1866
  276MOL0     O37133   0.703   8.737   3.976 -0.3029  0.6524  0.5058
  276MOL0     C37134   0.650   8.721   4.110 -0.1300  0.0527 -0.6355
  276MOL0     C37135   0.640   8.860   4.164 -0.8101 -0.1613 -0.1245
  276MOL0     C37136   0.523   8.942   4.109  0.1022  0.6559  0.5744
  276MOL0     C37137   0.516   9.078   4.174  0.1693 -0.8160  0.0275
  276MOL0     C37138   0.423   9.168   4.092 -0.1910 -0.6732 -0.4859
  276MOL0     C37139   0.424   9.313   4.155  0.3971 -0.8559 -0.4036
  276MOL0     C37140   0.351   9.416   4.062  0.6661 -0.3403 -0.6930
  276MOL0     C37141   0.327   9.547   4.140  0.2391 -0.3678  0.1661
  276MOL0     N37142   0.265   9.647   4.043 -0.5735  0.2044 -1.0516
  276MOL0     C37143   0.330   9.737   3.968  1.4152 -0.7568 -0.2019
  276MOL0     C37144   0.231   9.815   3.918 -0.5507  0.3847 -0.3610
  276MOL0     C37145   0.244   9.925   3.814 -0.8287  0.0517  0.2178
  276MOL0     C37146   0.342  10.036   3.865 -0.3713  0.3348 -0.0964
  276MOL0     C37147   0.392  10.122   3.756 -1.2879 -0.0108  0.2511
  276MOL0     C37148   0.542  10.166   3.786  0.0466 -0.1914  0.2198
  276MOL0     O37149   0.628  10.045   3.801 -0.1416 -0.1891 -0.4144
  276MOL0     C37150   0.758  10.063   3.849 -0.0046  0.5815  1.0561
  276MOL0     C37151   0.827   9.948   3.891 -0.2500  0.5381  0.5108
  276MOL0     C37152   0.963   9.953   3.923  0.2664  0.4606 -0.1368
  276MOL0     C37153   1.027  10.074   3.948 -0.4715 -0.4241  1.1302
  276MOL0     C37154   1.156  10.081   4.018 -0.3837  0.5984 -0.8620
  276MOL0     O37155   1.216   9.965   4.023  0.1133 -0.3113  0.3352
  276MOL0     C37156   1.341   9.952   4.082  0.1014  0.2699  0.0335
  276MOL0     C37157   1.379  10.022   4.192 -1.4603  0.2619 -0.3815
  276MOL0     C37158   1.507   9.993   4.253 -0.5155 -1.0049  0.5029
  276MOL0     C37159   1.587   9.894   4.201  0.4458 -0.1437 -0.3632
  276MOL0     O37160   1.710   9.888   4.263 -0.6480  0.5197 -0.1268
  276MOL0     C37161   1.807   9.783   4.233  0.2229 -0.9300  0.1115
  276MOL0     C37162   1.902   9.792   4.110 -0.8219  0.4642 -1.2039
  276MOL0     C37163   2.058   9.755   4.130  0.0015 -0.1094  0.5172
  276MOL0     C37164   2.091   9.611   4.101 -0.4565 -0.4739  0.5246
  276MOL0     C37165   2.233   9.565   4.104  0.0756 -0.4546 -0.3933
  276MOL0     C37166   2.281   9.533   4.247  0.4257 -0.0917  1.0032
  276MOL0     C37167   2.275   9.651   4.355  0.5137 -0.0682 -0.7575
  276MOL0     C37168   2.383   9.621   4.462  1.0842 -0.4059 -0.4634
  276MOL0    Cl37169   2.347   9.489   4.578  0.1217 -0.4089  0.4213
  276MOL0     C37170   1.543   9.808   4.096  0.8435 -0.1011  0.4856
  276MOL0     C37171   1.421   9.844   4.037 -0.3174 -0.6348 -0.5835
  276MOL0     O37172   1.209  10.189   4.055 -0.2963 -0.3705  0.5420
  276MOL0     C37173   0.952  10.191   3.912 -0.5014  0.9403 -0.5517
  276MOL0     C37174   0.824  10.182   3.853 -0.7267  0.1416 -0.3560
  276MOL0     N37175   0.111   9.765   3.958  0.1710  0.5523 -0.7635
  276MOL0     N37176   0.135   9.674   4.047  0.9739 -0.6697  0.8059
  276MOL0     C37177   0.864   8.559   3.923  0.2242  0.0765  0.2732
  276MOL0     C37178   0.890   8.444   3.859  0.1704  0.5631 -0.4068
  276MOL0     C37179   0.929   8.054   3.656  0.8950 -0.0492  0.6907
  276MOL0     C37180   0.877   7.999   3.534 -0.2341  1.0190  0.0448
  276MOL0     C37181   0.907   7.865   3.496  0.2135  0.1699  0.4602
  276MOL0     C37182   0.977   7.790   3.573  0.0218  0.8362 -0.4615
  276MOL0     O37183   0.997   7.660   3.526  0.2639  1.0453 -0.5279
  276MOL0     C37184   1.126   7.612   3.569  0.0431  0.3605 -0.2967
  276MOL0     C37185   1.184   7.498   3.478  0.9356  0.0057  0.1229
  276MOL0     C37186   1.089   7.375   3.496  0.5122  0.1860  0.6037
  276MOL0     C37187   1.151   7.264   3.418  0.8011 -0.2949  0.2438
  276MOL0     C37188   1.097   7.132   3.474 -0.1254 -0.0491  0.5746
  276MOL0     C37189   1.054   7.020   3.510  0.0484  0.3682  0.3363
  276MOL0     C37190   1.027   7.835   3.703  0.6511 -0.3149  0.6326
  276MOL0     C37191   1.002   7.967   3.741 -0.0230 -0.9340  0.6527
  276MOL0     C37192   1.048   8.003   3.877  0.1304  0.6238  0.3379
  276MOL0     H37193   0.564   8.364   3.772 -0.1296 -1.7489  1.5791
  276MOL0     H37194   0.521   8.587   3.858  0.6188  0.3430  0.6451
  276MOL0     H37195   0.556   8.663   4.107 -0.7010  0.9862 -1.7748
  276MOL0     H37196   0.726   8.672   4.171 -0.2470  0.3007 -0.2878
  276MOL0     H37197   0.737   8.904   4.141  0.0239 -0.9501  1.6537
  276MOL0     H37198   0.631   8.861   4.273  0.5596 -3.0698  0.1193
  276MOL0     H37199   0.426   8.897   4.135  0.3385  0.4853  1.1808
  276MOL0     H37200   0.532   8.952   4.001  1.4733  0.1279  0.6264
  276MOL0     H37201   0.478   9.070   4.276  0.2921 -0.0405  0.1426
  276MOL0     H37202   0.615   9.122   4.186  0.3693 -1.4173  0.6432
  276MOL0     H37203   0.448   9.166   3.985  1.3765  1.2926 -0.2105
  276MOL0     H37204   0.321   9.128   4.096 -0.9859  1.2438 -0.6626
  276MOL0     H37205   0.372   9.315   4.251 -2.4653  1.8607 -1.8346
  276MOL0     H37206   0.530   9.339   4.156  0.9317 -2.8342 -1.0822
  276MOL0     H37207   0.249   9.382   4.040 -0.1623 -1.1328  3.5577
  276MOL0     H37208   0.408   9.431   3.970 -1.4529 -1.6311 -2.3425
  276MOL0     H37209   0.262   9.536   4.227  0.7395  3.2732  1.1968
  276MOL0     H37210   0.421   9.582   4.184 -1.0657 -0.0131  2.8230
  276MOL0     H37211   0.435   9.741   3.938  1.4103  1.7735 -0.0468
  276MOL0     H37212   0.300   9.879   3.732  2.1961 -2.2436  3.2654
  276MOL0     H37213   0.156   9.969   3.767  2.0413  4.0342 -2.1087
  276MOL0     H37214   0.285  10.093   3.939 -2.9764 -2.9076  0.6692
  276MOL0     H37215   0.422   9.982   3.916  0.0516 -1.0401 -2.1278
  276MOL0     H37216   0.330  10.212   3.749 -2.8198 -0.4540  4.6128
  276MOL0     H37217   0.398  10.066   3.663 -0.1863 -1.1747  0.9800
  276MOL0     H37218   0.547  10.237   3.869 -2.0892  2.7093 -1.9620
  276MOL0     H37219   0.586  10.215   3.699 -1.0976  1.9863  0.7965
  276MOL0     H37220   0.783   9.849   3.891 -0.5263  0.6617  0.6728
  276MOL0     H37221   1.009   9.856   3.943  1.2549  0.1746 -3.2785
  276MOL0     H37222   1.303  10.086   4.237 -1.6103  1.6162 -2.4175
  276MOL0     H37223   1.546  10.040   4.344  0.4951  1.5489 -1.1319
  276MOL0     H37224   1.869   9.790   4.323 -0.0434  0.3452  0.2168
  276MOL0     H37225   1.755   9.687   4.236  0.2223 -0.9117  1.6112
  276MOL0     H37226   1.858   9.736   4.027  1.1396 -1.2197 -1.1866
  276MOL0     H37227   1.900   9.900   4.090  0.2805  0.7777  0.2396
  276MOL0     H37228   2.112   9.832   4.074 -0.4136  2.0440  2.9056
  276MOL0     H37229   2.086   9.775   4.234 -1.1395 -2.1005  1.2466
  276MOL0     H37230   2.066   9.579   3.999  1.4185  1.1193 -0.5008
  276MOL0     H37231   2.046   9.535   4.166  2.7533 -3.7266 -0.6793
  276MOL0     H37232   2.291   9.649   4.063  1.0813 -1.6532 -1.5138
  276MOL0     H37233   2.243   9.472   4.047  2.5764 -1.8597  2.0591
  276MOL0     H37234   2.229   9.442   4.279 -2.6582  0.7741 -1.0508
  276MOL0     H37235   2.387   9.511   4.230  0.2460 -0.2075 -0.0170
  276MOL0     H37236   2.182   9.666   4.411  0.3544 -4.3487  0.4740
  276MOL0     H37237   2.305   9.748   4.316 -3.9854  1.3622 -1.2887
  276MOL0     H37238   2.474   9.591   4.410  1.5364 -0.8057  0.5499
  276MOL0     H37239   2.393   9.710   4.525 -3.0637  0.6502 -0.9748
  276MOL0     H37240   1.605   9.727   4.060 -0.7764 -0.7016 -1.0775
  276MOL0     H37241   1.384   9.774   3.963 -1.9276  0.2788 -0.6678
  276MOL0     H37242   1.006  10.285   3.911  1.1657  0.0120 -1.0682
  276MOL0     H37243   0.778  10.266   3.803 -1.9984 -0.7339 -0.7184
  276MOL0     H37244   0.947   8.613   3.969  1.2023 -0.7346 -0.5113
  276MOL0     H37245   0.991   8.405   3.859 -0.0539 -0.0272 -0.4625
  276MOL0     H37246   0.825   8.069   3.469 -0.2239  1.1435  0.1709
  276MOL0     H37247   0.860   7.831   3.404 -0.3734 -1.6438  1.3783
  276MOL0     H37248   1.119   7.558   3.663  0.6307 -0.4757 -0.7155
  276MOL0     H37249   1.204   7.688   3.562  1.2247 -0.7823 -0.0700
  276MOL0     H37250   1.287   7.473   3.505  0.3634  0.4782  3.0075
  276MOL0     H37251   1.167   7.521   3.372 -1.2410  1.0954  0.6506
  276MOL0     H37252   0.994   7.384   3.443  1.6920 -2.5135 -2.2532
  276MOL0     H37253   1.067   7.346   3.599  0.0349  0.8816  0.7035
  276MOL0     H37254   1.118   7.272   3.314  1.3605 -1.7377 -0.0628
  276MOL0     H37255   1.260   7.268   3.420  0.8048  2.9504 -0.7581
  276MOL0     H37256   1.037   6.921   3.549 -1.4544 -0.1329 -1.4468
  276MOL0     H37257   1.066   7.766   3.777  1.5186 -0.5804 -0.0479
  276MOL0     H37258   1.145   7.958   3.896 -0.4385  0.1254  2.2595
  276MOL0     H37259   1.055   8.112   3.886 -0.1378  0.8493 -1.6486
  276MOL0     H37260   0.968   7.962   3.939  1.2835 -2.9426 -0.3498
  277MOL0     O37261   6.625   2.304   5.267 -1.3151  0.0468 -0.5570
  277MOL0     C37262   6.704   2.344   5.357  0.1876  0.1323 -0.2147
  277MOL0     O37263   6.730   2.473   5.384 -0.3238 -0.0958  0.2944
  277MOL0     C37264   6.650   2.577   5.330 -0.4155 -0.8000  0.5164
  277MOL0     C37265   6.605   2.681   5.413  0.4066  0.1823  0.5005
  277MOL0     C37266   6.527   2.788   5.369 -0.4730 -0.1005 -0.1466
  277MOL0     C37267   6.505   2.801   5.241  0.7880  0.0485  0.5243
  277MOL0     O37268   6.445   2.906   5.186 -0.1964  0.4089 -0.5065
  277MOL0     C37269   6.462   3.038   5.241 -0.5985 -0.2817 -1.0726
  277MOL0     C37270   6.437   3.144   5.135 -0.2240  0.9819  1.5860
  277MOL0     C37271   6.293   3.198   5.092  0.2676 -0.8254 -0.3327
  277MOL0     C37272   6.206   3.095   5.031  0.7714 -0.5408  0.3939
  277MOL0     C37273   6.088   3.149   4.946 -0.2288 -0.0332  0.7596
  277MOL0     C37274   5.981   3.038   4.927 -0.2695  0.0849  0.2573
  277MOL0     C37275   5.871   3.076   4.827  0.9663  0.0499  0.3634
  277MOL0     C37276   5.905   3.147   4.698  0.1827 -0.3612  0.5299
  277MOL0     N37277   5.969   3.065   4.589 -0.9072  0.5442 -0.7034
  277MOL0     C37278   5.904   3.030   4.477  0.8417 -0.0696 -0.5388
  277MOL0     C37279   5.985   2.962   4.404 -0.2083  0.0429  0.7686
  277MOL0     C37280   5.956   2.916   4.260  0.9779 -0.3636 -0.1048
  277MOL0     C37281   6.087   2.915   4.174 -0.1004 -0.5698 -0.1976
  277MOL0     C37282   6.140   3.060   4.149  0.0052 -0.0610  1.1184
  277MOL0     C37283   6.275   3.062   4.074 -1.0703 -0.6360 -0.3529
  277MOL0     O37284   6.312   3.197   4.040  0.2620 -0.0357  0.0467
  277MOL0     C37285   6.438   3.235   4.009 -0.0197 -0.2941  0.1373
  277MOL0     C37286   6.453   3.368   3.955  0.0614 -0.5251  0.1932
  277MOL0     C37287   6.577   3.424   3.929 -1.4970  0.0910  0.1800
  277MOL0     C37288   6.691   3.340   3.950  0.4103 -0.0865  0.8733
  277MOL0     C37289   6.824   3.386   3.898 -0.1555 -0.2183 -1.1954
  277MOL0     O37290   6.923   3.294   3.926 -0.1566 -0.1797 -0.5179
  277MOL0     C37291   7.050   3.353   3.938  0.0354  0.9074  0.4520
  277MOL0     C37292   7.150   3.311   3.853  0.4778  0.0190  0.1128
  277MOL0     C37293   7.278   3.367   3.844  0.2972 -1.0977 -0.0194
  277MOL0     C37294   7.301   3.462   3.943 -0.2378 -0.0623 -0.7462
  277MOL0     O37295   7.424   3.531   3.961  0.8826  0.1827 -0.5970
  277MOL0     C37296   7.535   3.504   3.881 -0.0465  0.3058 -0.6488
  277MOL0     C37297   7.667   3.555   3.939 -0.0458  0.1431 -0.2176
  277MOL0     C37298   7.782   3.515   3.842  0.2475 -0.2354 -0.4556
  277MOL0     C37299   7.923   3.499   3.905  0.2632 -0.5769 -0.2008
  277MOL0     C37300   8.036   3.494   3.797  0.5898  1.2774 -0.0940
  277MOL0     C37301   8.036   3.365   3.726  0.0037  0.3904 -0.4243
  277MOL0     C37302   8.137   3.375   3.607  0.7613  0.8668  0.3964
  277MOL0     C37303   8.129   3.243   3.527 -0.1661  0.1497  0.6341
  277MOL0    Cl37304   8.021   3.259   3.370 -0.2755  0.2785  0.0126
  277MOL0     C37305   7.199   3.516   4.023 -0.1011  0.6150  0.0566
  277MOL0     C37306   7.075   3.458   4.024  0.4796  1.1750  0.2141
  277MOL0     O37307   6.835   3.496   3.846 -0.1413 -0.2812  0.5332
  277MOL0     C37308   6.673   3.205   4.002  0.3062 -0.5151 -0.4708
  277MOL0     C37309   6.544   3.155   4.025 -0.0345 -0.3748  0.3779
  277MOL0     N37310   6.096   2.938   4.484 -0.1409  0.6186  0.5763
  277MOL0     N37311   6.083   2.994   4.597 -0.2746  0.5259 -0.3584
  277MOL0     C37312   6.557   2.707   5.146 -1.1456  1.1223 -0.1295
  277MOL0     C37313   6.640   2.601   5.193 -0.1638 -0.2123  0.0691
  277MOL0     C37314   6.772   2.235   5.428  1.1105 -0.2667  0.3044
  277MOL0     C37315   6.806   2.116   5.359  0.7878  0.4216  0.5478
  277MOL0     C37316   6.883   2.018   5.420 -0.5945  0.5463 -1.0345
  277MOL0     C37317   6.914   2.022   5.558  0.6733  0.1210  0.7726
  277MOL0     O37318   6.966   1.910   5.618 -0.1877  0.4905 -0.3271
  277MOL0     C37319   7.039   1.904   5.742 -0.7604  0.3490  0.0333
  277MOL0     C37320   7.085   1.763   5.778 -0.3858 -0.4493 -0.5990
  277MOL0     C37321   7.134   1.674   5.668  0.9076  0.3019 -0.1732
  277MOL0     C37322   7.186   1.532   5.716 -0.5663 -0.0841 -0.6519
  277MOL0     C37323   7.302   1.540   5.809 -0.4364  0.3460  0.6262
  277MOL0     C37324   7.396   1.548   5.888 -0.9337 -0.9302  1.2114
  277MOL0     C37325   6.900   2.148   5.621 -0.2074 -0.0753 -0.9268
  277MOL0     C37326   6.825   2.250   5.561  0.7005  0.3733 -0.1291
  277MOL0     C37327   6.772   2.354   5.648 -0.6161 -0.9081 -0.2014
  277MOL0     H37328   6.617   2.677   5.521  0.3792  1.7840  0.5881
  277MOL0     H37329   6.482   2.861   5.436 -0.6581  0.2055 -0.5965
  277MOL0     H37330   6.408   3.058   5.335  1.7684 -0.5407  0.4219
  277MOL0     H37331   6.564   3.044   5.279 -1.7315  0.9926  2.1641
  277MOL0     H37332   6.484   3.111   5.042  0.5891  4.3717  0.6511
  277MOL0     H37333   6.488   3.237   5.164 -0.2048  1.9212 -1.1796
  277MOL0     H37334   6.308   3.282   5.023  0.1703  1.2314  2.0345
  277MOL0     H37335   6.232   3.244   5.170  1.8680  1.4966 -0.3547
  277MOL0     H37336   6.277   3.050   4.961  2.7185  5.4605 -2.2096
  277MOL0     H37337   6.170   3.032   5.112 -2.0012  2.6888  1.9462
  277MOL0     H37338   6.036   3.233   4.995 -2.2625 -1.0277  0.4331
  277MOL0     H37339   6.125   3.182   4.848 -0.1292  1.4213  1.2541
  277MOL0     H37340   6.029   2.946   4.894  0.9427  1.0260 -0.7062
  277MOL0     H37341   5.937   3.016   5.024 -1.9395  0.2094 -0.4377
  277MOL0     H37342   5.817   3.159   4.873 -0.7983  0.7819 -2.7280
  277MOL0     H37343   5.795   3.000   4.809 -1.9863  3.1508 -1.5749
  277MOL0     H37344   5.810   3.184   4.661  1.4133  1.6131 -0.8250
  277MOL0     H37345   5.965   3.234   4.726 -1.6219  0.4976  1.9169
  277MOL0     H37346   5.807   3.071   4.449  1.0164  1.6655  1.1914
  277MOL0     H37347   5.903   2.820   4.263 -1.4332  0.9066  1.1175
  277MOL0     H37348   5.892   2.989   4.210  1.8672 -1.2665 -2.7544
  277MOL0     H37349   6.156   2.864   4.242 -1.4398 -2.5382 -0.2283
  277MOL0     H37350   6.080   2.841   4.095  0.9675 -0.8708 -0.0188
  277MOL0     H37351   6.149   3.098   4.251 -0.9213  0.1095  1.1436
  277MOL0     H37352   6.062   3.117   4.097  0.6280  0.7009  0.9954
  277MOL0     H37353   6.272   3.012   3.977  1.4147 -3.7381  1.0174
  277MOL0     H37354   6.340   3.002   4.137 -0.2435 -1.4672 -1.9395
  277MOL0     H37355   6.364   3.428   3.946  0.6005  0.2179 -0.3309
  277MOL0     H37356   6.584   3.531   3.915  2.0612  0.0269  0.5164
  277MOL0     H37357   7.123   3.227   3.790  2.0199 -2.3549  2.4575
  277MOL0     H37358   7.347   3.317   3.777  0.5218 -0.9874  0.1298
  277MOL0     H37359   7.549   3.396   3.879 -1.6849  0.0726 -0.9490
  277MOL0     H37360   7.512   3.533   3.777  0.9821  1.4177 -0.5866
  277MOL0     H37361   7.659   3.664   3.941  1.0980  0.4548 -4.1886
  277MOL0     H37362   7.692   3.526   4.041 -0.0315  0.2126 -0.2015
  277MOL0     H37363   7.761   3.431   3.775  0.4822  1.1686 -2.3698
  277MOL0     H37364   7.800   3.597   3.772  1.2778 -0.2536 -0.2237
  277MOL0     H37365   7.930   3.408   3.965 -1.7337 -0.9202 -0.3923
  277MOL0     H37366   7.949   3.586   3.967  0.8670 -0.4733 -0.6004
  277MOL0     H37367   8.133   3.504   3.847  1.1127 -1.4267 -0.3935
  277MOL0     H37368   8.028   3.570   3.719  3.3849  0.8388 -0.9407
  277MOL0     H37369   8.074   3.287   3.792  0.4652 -0.5497 -1.7606
  277MOL0     H37370   7.933   3.347   3.695  0.1743  1.9008 -2.0407
  277MOL0     H37371   8.237   3.398   3.643  0.0430  1.1518  2.3456
  277MOL0     H37372   8.097   3.448   3.536 -2.6720  0.5035  1.7432
  277MOL0     H37373   8.232   3.219   3.499 -0.3251  1.0735 -0.8349
  277MOL0     H37374   8.091   3.156   3.582 -0.8914 -1.8296 -2.6595
  277MOL0     H37375   7.221   3.605   4.081  1.8233  1.1180 -1.3414
  277MOL0     H37376   6.995   3.496   4.086  1.4614  0.6645  1.8701
  277MOL0     H37377   6.753   3.138   4.032 -0.5057 -0.6917  1.4338
  277MOL0     H37378   6.547   3.061   4.080 -0.8309 -0.6563 -0.0408
  277MOL0     H37379   6.547   2.721   5.038 -2.7639  0.0370 -0.1508
  277MOL0     H37380   6.696   2.554   5.113  0.1401  2.0897 -1.1324
  277MOL0     H37381   6.805   2.097   5.252  3.5018  0.1729  0.5059
  277MOL0     H37382   6.911   1.929   5.366 -0.4275  0.5350 -0.9284
  277MOL0     H37383   6.976   1.939   5.824 -3.0497 -2.6031 -0.2890
  277MOL0     H37384   7.127   1.970   5.743 -0.0807 -0.1866  5.4594
  277MOL0     H37385   7.000   1.714   5.825 -0.5542  2.6765  2.8577
  277MOL0     H37386   7.159   1.769   5.858  0.7548 -1.4859 -1.5549
  277MOL0     H37387   7.211   1.724   5.609  1.7714  2.2942  2.4576
  277MOL0     H37388   7.050   1.655   5.600  1.1332 -0.3071 -0.2877
  277MOL0     H37389   7.102   1.483   5.764  0.7802 -1.4240  0.4497
  277MOL0     H37390   7.214   1.470   5.630 -2.3699 -0.0486 -1.2873
  277MOL0     H37391   7.480   1.549   5.954  1.4534 -2.0515 -1.5404
  277MOL0     H37392   6.941   2.163   5.721  1.4660 -1.2194 -1.3973
  277MOL0     H37393   6.827   2.448   5.635 -1.5984 -0.1517  0.9560
  277MOL0     H37394   6.663   2.361   5.637 -0.7610 -2.6185 -0.1557
  277MOL0     H37395   6.784   2.314   5.749  0.3234  0.2006  0.1457
  278MOL0     O37396   4.252   5.551  10.865  0.4443 -0.3205 -0.0697
  278MOL0     C37397   4.341   5.489  10.810 -0.0448 -0.4666  0.5473
  278MOL0     O37398   4.469   5.517  10.826 -0.4564 -0.0738 -0.2829
  278MOL0     C37399   4.519   5.587  10.935 -0.0508  1.1586  0.4836
  278MOL0     C37400   4.471   5.585  11.065 -0.9297 -0.5528 -0.3669
  278MOL0     C37401   4.517   5.669  11.161 -0.0784 -0.1560  0.1252
  278MOL0     C37402   4.605   5.779  11.137  0.4286  0.2792  0.6270
  278MOL0     O37403   4.641   5.857  11.241  0.3633 -0.7873  0.6516
  278MOL0     C37404   4.742   5.962  11.217  0.5535 -0.0038  0.5151
  278MOL0     C37405   4.756   6.026  11.356 -0.9285 -0.3366 -0.8345
  278MOL0     C37406   4.870   6.135  11.354  0.0618 -0.1999  0.9003
  278MOL0     C37407   4.852   6.262  11.441 -0.7158  1.1964 -0.0572
  278MOL0     C37408   4.967   6.294  11.538 -0.0303 -1.0396  0.5477
  278MOL0     C37409   4.999   6.184  11.643 -0.4937 -0.8520  0.4247
  278MOL0     C37410   5.107   6.240  11.738  0.0203  0.5869  0.2708
  278MOL0     C37411   5.178   6.135  11.831 -0.1933  0.0218 -0.0285
  278MOL0     N37412   5.258   6.031  11.762  0.6672 -0.5139 -0.2621
  278MOL0     C37413   5.274   5.908  11.814 -0.3814  0.2659  0.7165
  278MOL0     C37414   5.359   5.844  11.722 -1.2380 -0.9170  0.9191
  278MOL0     C37415   5.415   5.712  11.758  0.8166 -0.0929 -0.4223
  278MOL0     C37416   5.517   5.668  11.661  0.5601  0.0862 -0.9913
  278MOL0     C37417   5.592   5.531  11.699 -0.4801 -1.1895 -0.3866
  278MOL0     C37418   5.712   5.579  11.784 -0.1832  0.1813  0.3879
  278MOL0     O37419   5.807   5.477  11.817  0.7141 -0.3310  0.0420
  278MOL0     C37420   5.906   5.462  11.726 -0.7322  0.2155 -0.4401
  278MOL0     C37421   6.009   5.565  11.703 -0.8271  0.4802  0.5191
  278MOL0     C37422   6.105   5.535  11.597 -0.6205  0.0987  0.6204
  278MOL0     C37423   6.102   5.418  11.515 -0.6152  0.1231 -0.4302
  278MOL0     C37424   6.213   5.374  11.422 -0.1164  0.1343 -0.1268
  278MOL0     O37425   6.199   5.250  11.359 -0.1824  0.3212 -0.6529
  278MOL0     C37426   6.276   5.216  11.252 -1.4049 -0.2802  0.0936
  278MOL0     C37427   6.397   5.157  11.278  0.2496  0.3662 -0.0540
  278MOL0     C37428   6.476   5.106  11.174 -0.3903 -1.4175 -0.5250
  278MOL0     C37429   6.440   5.115  11.040 -0.6634 -0.5512 -0.4192
  278MOL0     O37430   6.527   5.077  10.944  0.6324 -0.6329  0.8130
  278MOL0     C37431   6.515   5.129  10.809  0.7809  0.4874 -0.0652
  278MOL0     C37432   6.635   5.106  10.716 -0.7904 -0.4752  1.4284
  278MOL0     C37433   6.589   5.104  10.564 -1.6975  0.0098 -0.3856
  278MOL0     C37434   6.687   5.044  10.476  0.0419 -0.9285  0.7071
  278MOL0     C37435   6.650   5.095  10.336 -0.0692  0.6844  0.0139
  278MOL0     C37436   6.550   4.992  10.276  0.2592 -0.5472  0.7850
  278MOL0     C37437   6.531   5.016  10.123 -0.7197  0.2909  0.8397
  278MOL0     C37438   6.427   4.941  10.060  0.6960 -0.0409 -0.7496
  278MOL0    Cl37439   6.268   4.989  10.115 -0.0846 -0.2808 -0.8714
  278MOL0     C37440   6.307   5.167  11.012  0.7145  0.2684 -0.5197
  278MOL0     C37441   6.227   5.231  11.116 -0.2094  0.6363 -0.7737
  278MOL0     O37442   6.305   5.450  11.399  0.1939  0.3820 -0.0634
  278MOL0     C37443   6.006   5.322  11.555 -0.1500 -0.2187  1.0358
  278MOL0     C37444   5.913   5.341  11.662 -0.3986 -0.0191 -0.3643
  278MOL0     N37445   5.377   5.930  11.613  0.3439  0.5648  0.1892
  278MOL0     N37446   5.324   6.044  11.649  0.1526  0.0347 -0.3494
  278MOL0     C37447   4.642   5.793  10.998  0.2172  0.9815 -0.2006
  278MOL0     C37448   4.609   5.693  10.901  0.0892 -0.0255 -0.3011
  278MOL0     C37449   4.298   5.397  10.699 -0.0804  1.1214  1.2676
  278MOL0     C37450   4.391   5.282  10.689  0.5043 -0.4722  1.2196
  278MOL0     C37451   4.362   5.198  10.576 -0.5932 -0.5585  0.0268
  278MOL0     C37452   4.264   5.224  10.479  0.3665  0.0861 -1.1822
  278MOL0     O37453   4.235   5.148  10.374  0.6754 -0.5558  0.2461
  278MOL0     C37454   4.306   5.033  10.338  0.3012 -0.2348  0.8441
  278MOL0     C37455   4.316   5.023  10.183 -0.6813 -0.3958 -1.2661
  278MOL0     C37456   4.421   4.911  10.154 -0.6464  0.7213 -0.0568
  278MOL0     C37457   4.371   4.767  10.203 -0.3149 -0.1437  0.4834
  278MOL0     C37458   4.249   4.736  10.125  1.1645  0.4398 -0.1763
  278MOL0     C37459   4.148   4.701  10.059 -0.4480 -0.4128  0.5513
  278MOL0     C37460   4.162   5.323  10.510 -0.3569  0.6589  0.7478
  278MOL0     C37461   4.187   5.415  10.620  0.6163 -0.7287 -0.3146
  278MOL0     C37462   4.070   5.508  10.652  0.1159 -0.1702  0.0129
  278MOL0     H37463   4.393   5.515  11.092 -1.1500  0.5665  2.1659
  278MOL0     H37464   4.471   5.653  11.258  0.2531 -2.6477 -0.0631
  278MOL0     H37465   4.840   5.917  11.201 -0.2091 -0.9678 -1.8990
  278MOL0     H37466   4.703   6.030  11.141 -0.3128 -0.0629  0.8904
  278MOL0     H37467   4.769   5.942  11.424  0.1358  0.0398 -0.5551
  278MOL0     H37468   4.662   6.080  11.373  0.1163  1.8078 -1.4940
  278MOL0     H37469   4.884   6.165  11.250  1.4250 -4.2006 -0.2455
  278MOL0     H37470   4.968   6.089  11.369  0.3426  0.0225 -0.1588
  278MOL0     H37471   4.840   6.349  11.376  1.7472  0.4326 -1.6782
  278MOL0     H37472   4.777   6.245  11.519  1.7020  1.7315  2.5695
  278MOL0     H37473   5.063   6.310  11.487 -0.9593 -2.1749 -1.6706
  278MOL0     H37474   4.958   6.392  11.587  1.5547 -0.9431  0.7228
  278MOL0     H37475   4.907   6.159  11.697 -1.3464 -0.0721 -0.6266
  278MOL0     H37476   5.043   6.099  11.590 -1.5574 -1.7637  0.9627
  278MOL0     H37477   5.059   6.314  11.802 -1.4120  3.9565 -4.1501
  278MOL0     H37478   5.186   6.290  11.681 -0.3155  1.3914  0.4940
  278MOL0     H37479   5.246   6.193  11.895  0.0518  1.0581 -1.1892
  278MOL0     H37480   5.099   6.094  11.894 -0.2873  2.3143  1.4933
  278MOL0     H37481   5.228   5.868  11.903 -4.7757 -0.3950 -1.5490
  278MOL0     H37482   5.452   5.710  11.861  0.1065  1.5170 -0.1154
  278MOL0     H37483   5.337   5.636  11.750  2.8289 -2.1390 -2.2521
  278MOL0     H37484   5.462   5.656  11.567  0.4661  0.2035 -0.9511
  278MOL0     H37485   5.591   5.748  11.650  0.8571  0.7057  3.6117
  278MOL0     H37486   5.628   5.479  11.610 -3.2676  0.6479 -2.7476
  278MOL0     H37487   5.530   5.465  11.761 -0.1026 -0.7421  0.4942
  278MOL0     H37488   5.672   5.609  11.881  1.7069 -4.0621  2.7526
  278MOL0     H37489   5.754   5.663  11.728 -1.8021 -0.1350 -1.4375
  278MOL0     H37490   6.018   5.660  11.755  2.3220  1.5389 -1.6661
  278MOL0     H37491   6.191   5.601  11.600  1.0053 -1.7488 -1.7875
  278MOL0     H37492   6.412   5.143  11.384 -3.6273  1.0954  0.7535
  278MOL0     H37493   6.573   5.059  11.185  0.0864 -0.5074 -0.7641
  278MOL0     H37494   6.433   5.078  10.758  0.0579 -0.3481  1.8314
  278MOL0     H37495   6.487   5.234  10.819  2.2475  1.0066 -1.1399
  278MOL0     H37496   6.708   5.187  10.725 -0.6226 -0.3852 -0.2866
  278MOL0     H37497   6.679   5.008  10.738 -2.6389 -1.7305 -0.1111
  278MOL0     H37498   6.510   5.028  10.559  0.1077 -2.0715  0.6025
  278MOL0     H37499   6.555   5.202  10.531  0.5147  0.4511 -1.5319
  278MOL0     H37500   6.693   4.938  10.502  1.1980 -0.5147  2.2995
  278MOL0     H37501   6.782   5.095  10.499 -1.0618  2.4703 -1.4968
  278MOL0     H37502   6.736   5.080  10.271 -0.9141 -0.3003 -0.9241
  278MOL0     H37503   6.625   5.201  10.324 -1.9605 -0.0056 -3.6027
  278MOL0     H37504   6.584   4.888  10.275  3.4440  0.3799 -0.0005
  278MOL0     H37505   6.455   5.005  10.328  0.0551  3.5607 -0.2422
  278MOL0     H37506   6.617   4.984  10.064 -2.6629 -0.3743 -1.8538
  278MOL0     H37507   6.518   5.123  10.106  2.5048  0.5457 -0.6887
  278MOL0     H37508   6.432   4.966   9.954 -1.2434 -0.7747 -1.0555
  278MOL0     H37509   6.437   4.832  10.066 -2.1180 -0.3308  0.3188
  278MOL0     H37510   6.259   5.172  10.915 -3.7597 -1.1984  1.3362
  278MOL0     H37511   6.138   5.288  11.092 -1.2602 -1.2263 -1.5532
  278MOL0     H37512   6.015   5.227  11.504  1.0081  0.7617 -0.7266
  278MOL0     H37513   5.852   5.266  11.713  0.6651 -0.4777  0.2758
  278MOL0     H37514   4.707   5.872  10.964  2.4287  0.1620  1.8604
  278MOL0     H37515   4.661   5.691  10.806  1.7058 -0.3176  0.5576
  278MOL0     H37516   4.469   5.249  10.756  1.5767 -0.3653  0.0601
  278MOL0     H37517   4.419   5.108  10.556 -0.8268 -0.1842 -2.6284
  278MOL0     H37518   4.275   4.934  10.374 -1.2824 -1.3769 -3.0542
  278MOL0     H37519   4.410   5.046  10.371  1.1498 -2.6004 -0.6417
  278MOL0     H37520   4.363   5.115  10.146 -0.7070 -0.2357 -0.9120
  278MOL0     H37521   4.214   5.016  10.145 -1.7749  3.8658  0.2958
  278MOL0     H37522   4.521   4.934  10.192  0.4049  0.0598 -2.2648
  278MOL0     H37523   4.430   4.901  10.045  2.2637  0.7690  0.0920
  278MOL0     H37524   4.448   4.693  10.181  0.9130  0.6613  1.9106
  278MOL0     H37525   4.364   4.766  10.312 -2.6685  3.3046  0.5104
  278MOL0     H37526   4.066   4.668   9.998 -0.4200 -0.6896  0.6639
  278MOL0     H37527   4.075   5.319  10.446 -1.4871 -0.5943  2.2773
  278MOL0     H37528   3.998   5.500  10.570 -2.6828  0.9972  2.1784
  278MOL0     H37529   4.017   5.475  10.742  1.3523  0.8978  1.1796
  278MOL0     H37530   4.097   5.612  10.669 -1.2340  0.9174 -3.6026
  279MOL0     O37531   1.008   6.158  10.722 -0.2856  0.3039 -0.5030
  279MOL0     C37532   1.127   6.172  10.752 -1.1992 -0.7815 -0.2867
  279MOL0     O37533   1.198   6.078  10.820  0.2647  0.0891 -0.2986
  279MOL0     C37534   1.166   5.945  10.804  0.6746  0.1421 -0.1568
  279MOL0     C37535   1.195   5.860  10.913 -0.8368  0.4159 -0.2960
  279MOL0     C37536   1.173   5.722  10.910 -0.7506  0.3456  0.9104
  279MOL0     C37537   1.119   5.668  10.788  0.3252  0.3545 -0.2517
  279MOL0     O37538   1.077   5.533  10.787 -0.5334 -0.6012 -1.3274
  279MOL0     C37539   1.020   5.472  10.666 -0.4827  0.1510 -0.7067
  279MOL0     C37540   0.999   5.327  10.698 -0.2927  0.3344  0.5564
  279MOL0     C37541   1.144   5.262  10.701 -0.7565 -0.0029 -0.8500
  279MOL0     C37542   1.147   5.155  10.817  0.1575  0.0827  0.1435
  279MOL0     C37543   1.289   5.094  10.815  0.1043 -0.5068  0.4864
  279MOL0     C37544   1.309   4.975  10.908  0.8602 -0.5724  1.1595
  279MOL0     C37545   1.445   4.918  10.897  0.1088  0.4177  0.3153
  279MOL0     C37546   1.451   4.815  10.779 -0.6766 -0.5417 -0.0387
  279MOL0     N37547   1.573   4.736  10.783 -0.0402 -0.5835 -0.5633
  279MOL0     C37548   1.700   4.791  10.791  0.3811  0.0973 -0.8337
  279MOL0     C37549   1.782   4.684  10.751  0.6023 -0.9597  0.8157
  279MOL0     C37550   1.934   4.682  10.738  0.5516  0.9492  0.3746
  279MOL0     C37551   1.999   4.690  10.866  0.1350 -0.2609  0.3208
  279MOL0     C37552   2.152   4.665  10.855 -0.6677  0.2823  0.5763
  279MOL0     C37553   2.237   4.711  10.733  0.1241 -0.2110 -0.1871
  279MOL0     O37554   2.245   4.855  10.738 -0.5783 -0.6414  0.2966
  279MOL0     C37555   2.317   4.908  10.637  1.0803 -0.8099  0.0596
  279MOL0     C37556   2.456   4.896  10.633 -1.3131 -0.0050 -0.4698
  279MOL0     C37557   2.532   4.975  10.546 -0.3772 -0.3567  0.0382
  279MOL0     C37558   2.470   5.052  10.445 -0.7518 -0.0694 -0.2402
  279MOL0     C37559   2.551   5.132  10.351 -0.2098 -0.3963  0.4792
  279MOL0     O37560   2.680   5.138  10.392  0.1369 -0.0036  0.0111
  279MOL0     C37561   2.767   5.210  10.307  0.6555  1.2870 -0.0867
  279MOL0     C37562   2.769   5.352  10.290  1.4976  0.4215 -0.6971
  279MOL0     C37563   2.880   5.419  10.222 -0.3020 -0.2379 -0.0910
  279MOL0     C37564   2.979   5.338  10.170  0.1883  0.0067  0.4111
  279MOL0     O37565   3.100   5.395  10.128  0.5810  0.0884  0.3507
  279MOL0     C37566   3.115   5.539  10.114 -0.2952  1.0487 -0.7726
  279MOL0     C37567   3.241   5.580  10.033  0.8578  0.3515  0.1728
  279MOL0     C37568   3.221   5.536   9.879  0.1232  0.5692 -0.8300
  279MOL0     C37569   3.342   5.571   9.804 -0.7563  0.4564  0.4428
  279MOL0     C37570   3.417   5.436   9.780  0.0421 -0.3376 -0.2553
  279MOL0     C37571   3.545   5.453   9.703 -0.1407  1.1011  0.0127
  279MOL0     C37572   3.631   5.318   9.705 -0.7874 -0.7806 -0.2276
  279MOL0     C37573   3.630   5.227   9.581  0.4685 -0.6958 -0.1960
  279MOL0    Cl37574   3.689   5.313   9.437  0.2409 -0.5826 -0.5060
  279MOL0     C37575   2.975   5.201  10.187  0.2872 -0.7261  0.2870
  279MOL0     C37576   2.873   5.141  10.257 -1.5106  0.5412  0.4616
  279MOL0     O37577   2.511   5.155  10.237  0.4263 -0.4801 -0.4636
  279MOL0     C37578   2.332   5.045  10.436 -0.6222  0.4496  1.3506
  279MOL0     C37579   2.256   4.981  10.532  0.3311 -0.3496 -0.6385
  279MOL0     N37580   1.700   4.582  10.727  0.3721 -0.2912  0.1650
  279MOL0     N37581   1.577   4.612  10.735 -0.2776 -0.2611 -0.1712
  279MOL0     C37582   1.097   5.752  10.681 -0.2839 -0.0327 -0.9694
  279MOL0     C37583   1.118   5.888  10.683  0.4156 -0.2571  0.0630
  279MOL0     C37584   1.188   6.318  10.745 -0.2886  0.8647  1.4807
  279MOL0     C37585   1.095   6.425  10.706 -0.3364  0.6981 -0.1769
  279MOL0     C37586   1.124   6.555  10.721 -0.3355  0.6912  1.0744
  279MOL0     C37587   1.242   6.599  10.771  0.4675 -0.0710 -1.4157
  279MOL0     O37588   1.277   6.728  10.797  0.4025  0.2171  0.2126
  279MOL0     C37589   1.188   6.831  10.827  0.0528 -0.1750  0.5428
  279MOL0     C37590   1.118   6.824  10.962  0.6960  0.6564 -0.0792
  279MOL0     C37591   1.216   6.856  11.069  0.3295  0.3217  0.4199
  279MOL0     C37592   1.136   6.881  11.194 -0.2835 -0.0421  0.5909
  279MOL0     C37593   1.050   6.769  11.234  0.3116 -0.1815  0.7840
  279MOL0     C37594   0.966   6.685  11.252 -0.0813  1.0239 -0.2468
  279MOL0     C37595   1.338   6.504  10.808 -0.2951 -0.0721 -0.1485
  279MOL0     C37596   1.310   6.365  10.808 -0.1728  1.0177 -0.5276
  279MOL0     C37597   1.418   6.277  10.869 -0.0510  0.2322  0.1489
  279MOL0     H37598   1.242   5.898  11.003  2.7493  0.4525 -1.9960
  279MOL0     H37599   1.205   5.652  10.987 -0.5862 -2.7179 -1.7147
  279MOL0     H37600   0.920   5.513  10.651 -0.8027 -0.8759 -1.5276
  279MOL0     H37601   1.081   5.490  10.577  0.7749  0.0475  0.1151
  279MOL0     H37602   0.935   5.286  10.620  1.4318 -2.5541  0.5162
  279MOL0     H37603   0.964   5.315  10.801 -2.6892  0.2972 -0.2139
  279MOL0     H37604   1.213   5.346  10.715 -1.4213  0.4303 -0.0364
  279MOL0     H37605   1.169   5.205  10.611  0.3204 -1.1839  0.1552
  279MOL0     H37606   1.116   5.183  10.919  2.7243 -2.8624  1.9058
  279MOL0     H37607   1.084   5.071  10.785  1.5853 -1.6710  1.6804
  279MOL0     H37608   1.318   5.066  10.714 -2.8398  0.1649 -0.6322
  279MOL0     H37609   1.352   5.182  10.829 -3.9477  2.7074  0.4266
  279MOL0     H37610   1.298   5.001  11.013 -1.7077 -0.0738  0.8177
  279MOL0     H37611   1.233   4.901  10.879  1.6982 -1.2442  0.6099
  279MOL0     H37612   1.462   4.861  10.989 -0.8972 -0.0664  0.2183
  279MOL0     H37613   1.522   4.995  10.892  2.7782 -1.9362  2.2482
  279MOL0     H37614   1.357   4.758  10.787 -0.6532 -0.5789 -0.0300
  279MOL0     H37615   1.459   4.851  10.677  0.7516  0.0553  0.2631
  279MOL0     H37616   1.715   4.896  10.813  0.1376  0.0163 -0.2661
  279MOL0     H37617   1.970   4.594  10.684 -1.0256  0.3101  0.3037
  279MOL0     H37618   1.960   4.766  10.672 -1.3055  1.1452 -0.1742
  279MOL0     H37619   1.983   4.791  10.905 -0.5442 -0.6877  1.2069
  279MOL0     H37620   1.959   4.627  10.947  0.2230  1.7822  2.0553
  279MOL0     H37621   2.165   4.558  10.868  1.9928  0.0698 -2.4602
  279MOL0     H37622   2.203   4.715  10.938 -0.6383  0.2485  0.5791
  279MOL0     H37623   2.197   4.669  10.640  2.0900 -1.5722 -0.4958
  279MOL0     H37624   2.340   4.675  10.750  0.0327  0.6110  2.7261
  279MOL0     H37625   2.508   4.826  10.698 -2.7955 -0.5199  0.2123
  279MOL0     H37626   2.639   4.981  10.560 -0.5566  1.1793  1.0520
  279MOL0     H37627   2.699   5.409  10.349  0.1692 -2.0986  0.3009
  279MOL0     H37628   2.873   5.526  10.206 -2.0588 -0.7765 -3.8307
  279MOL0     H37629   3.032   5.582  10.057  0.3952  1.0738 -1.7890
  279MOL0     H37630   3.126   5.587  10.212  0.8536 -0.0987 -0.3063
  279MOL0     H37631   3.248   5.689  10.029 -1.5743  0.5408 -0.7428
  279MOL0     H37632   3.331   5.536  10.077  1.8486  0.0524 -2.0056
  279MOL0     H37633   3.187   5.434   9.856 -3.4115  2.3749 -4.8879
  279MOL0     H37634   3.137   5.588   9.833 -0.5305 -0.9500 -1.4497
  279MOL0     H37635   3.407   5.635   9.865  0.3082  1.0128 -1.2227
  279MOL0     H37636   3.323   5.634   9.717 -1.1988  1.1185  0.9997
  279MOL0     H37637   3.348   5.370   9.727 -1.2054 -0.6345  1.6654
  279MOL0     H37638   3.443   5.405   9.881 -0.6847  3.8134  1.4159
  279MOL0     H37639   3.530   5.486   9.600 -2.3720 -0.4080 -0.2232
  279MOL0     H37640   3.604   5.523   9.762  2.1124 -1.0873  0.5267
  279MOL0     H37641   3.617   5.253   9.792  1.0798 -0.0038  0.7140
  279MOL0     H37642   3.736   5.348   9.709 -1.2300  1.3228 -2.0553
  279MOL0     H37643   3.682   5.132   9.593 -1.6885 -2.0474 -0.8967
  279MOL0     H37644   3.528   5.195   9.558  0.6539 -0.0916 -2.0220
  279MOL0     H37645   3.061   5.137  10.167  1.7646  1.1731  0.3396
  279MOL0     H37646   2.886   5.034  10.267 -2.1043 -0.4113 -5.2435
  279MOL0     H37647   2.273   5.100  10.363 -1.2412 -1.6385  0.1934
  279MOL0     H37648   2.153   5.007  10.511  0.2127 -0.6898 -0.4851
  279MOL0     H37649   1.060   5.718  10.585  1.8210  3.1538 -3.1207
  279MOL0     H37650   1.083   5.945  10.597 -1.6974  2.5257  2.5568
  279MOL0     H37651   0.992   6.414  10.673  0.4598 -0.2796 -2.5926
  279MOL0     H37652   1.039   6.622  10.709  0.9789  2.6504  2.0896
  279MOL0     H37653   1.105   6.836  10.756 -0.1575 -0.1415  0.7872
  279MOL0     H37654   1.244   6.925  10.827 -0.9603  0.4619 -0.9477
  279MOL0     H37655   1.086   6.720  10.978  0.0958  0.8942  0.2843
  279MOL0     H37656   1.036   6.896  10.949  2.1537  2.0089 -2.6356
  279MOL0     H37657   1.270   6.951  11.059  1.3273 -0.4451 -2.2742
  279MOL0     H37658   1.284   6.770  11.070 -1.1432 -1.0028 -2.6123
  279MOL0     H37659   1.201   6.908  11.278 -1.7631  1.6190  1.2799
  279MOL0     H37660   1.071   6.967  11.177  0.9511  0.9226  0.6068
  279MOL0     H37661   0.890   6.610  11.262 -0.0488  0.8988 -0.8776
  279MOL0     H37662   1.428   6.556  10.840  0.7214 -1.7910 -0.1180
  279MOL0     H37663   1.422   6.177  10.826 -1.1744 -0.9479  2.6189
  279MOL0     H37664   1.518   6.321  10.871  1.0903 -1.8104 -3.0105
  279MOL0     H37665   1.395   6.265  10.975 -2.7190  0.4405 -0.3423
  280MOL0     O37666   9.002   9.746   2.491 -0.9633  0.8682 -0.0081
  280MOL0     C37667   9.032   9.630   2.482  0.8057  0.0558 -0.1649
  280MOL0     O37668   9.098   9.562   2.580  0.0888 -0.6918  0.1793
  280MOL0     C37669   9.140   9.632   2.681 -0.3737 -0.6024 -0.0315
  280MOL0     C37670   9.261   9.698   2.664 -0.1351 -1.1169  0.5819
  280MOL0     C37671   9.305   9.785   2.762 -0.3855 -0.1063 -0.1183
  280MOL0     C37672   9.224   9.803   2.876  0.8811 -0.3492 -0.4291
  280MOL0     O37673   9.255   9.880   2.990 -0.2585  0.0519  0.9420
  280MOL0     C37674   9.400   9.916   3.002  0.0602 -0.5109  0.1158
  280MOL0     C37675   9.409  10.063   2.965 -0.1114  0.3810 -0.3065
  280MOL0     C37676   9.544  10.125   2.995  0.2511 -0.2343  0.0577
  280MOL0     C37677   9.529  10.276   2.963  1.2520 -0.0196 -0.6366
  280MOL0     C37678   9.663  10.344   2.966  0.2576  0.1682  0.3033
  280MOL0     C37679   9.671  10.491   2.950 -0.6940 -0.8095  0.7435
  280MOL0     C37680   9.815  10.536   2.982  0.4009 -0.2566 -0.3552
  280MOL0     C37681   9.817  10.680   3.033 -0.9664  0.5407 -0.8694
  280MOL0     N37682   9.953  10.739   3.058  0.8456  0.1514 -0.0841
  280MOL0     C37683   9.997  10.769   3.177  0.1909  0.3925 -0.5503
  280MOL0     C37684  10.104  10.843   3.155  0.0418  1.2068 -0.3682
  280MOL0     C37685  10.203  10.891   3.263  0.5937 -0.1751  0.2829
  280MOL0     C37686  10.158  11.022   3.337  0.1149  0.4582  0.7336
  280MOL0     C37687  10.263  11.066   3.434 -0.5776  0.9543 -0.3254
  280MOL0     C37688  10.231  11.191   3.513  0.3251  0.4756 -0.6004
  280MOL0     O37689  10.105  11.160   3.582 -0.5905  0.4815  0.6875
  280MOL0     C37690  10.085  11.093   3.688  0.5936  1.0453 -1.1042
  280MOL0     C37691  10.024  10.971   3.682 -0.3741  0.4648 -0.4786
  280MOL0     C37692  10.017  10.883   3.794  0.2979 -0.6069  1.2420
  280MOL0     C37693  10.072  10.928   3.914  0.7769 -0.4374 -0.2406
  280MOL0     C37694  10.064  10.830   4.031 -0.1177 -0.3880 -0.0792
  280MOL0     O37695  10.130  10.877   4.141  0.2418  1.1331  0.3772
  280MOL0     C37696  10.125  10.791   4.252 -0.5355 -0.5129 -0.4736
  280MOL0     C37697  10.214  10.688   4.259 -0.6282  0.7191  0.0302
  280MOL0     C37698  10.214  10.603   4.363  0.5346  0.5033 -0.1640
  280MOL0     C37699  10.127  10.625   4.471  1.2996  0.4607 -0.0425
  280MOL0     O37700  10.141  10.554   4.586  0.1715  0.1343 -0.0903
  280MOL0     C37701  10.038  10.562   4.689 -0.7869 -0.7569  0.8575
  280MOL0     C37702  10.087  10.466   4.795  0.8133  0.7666  0.1720
  280MOL0     C37703   9.977  10.422   4.889 -0.2509 -1.1360  0.1488
  280MOL0     C37704  10.039  10.392   5.024 -0.8725  0.1943 -0.5091
  280MOL0     C37705   9.940  10.355   5.127  0.4714 -0.1929 -0.4089
  280MOL0     C37706   9.876  10.213   5.112 -0.3299  0.5332  0.3497
  280MOL0     C37707   9.789  10.156   5.232 -0.4131 -0.3077 -0.5702
  280MOL0     C37708   9.661  10.238   5.265 -0.4733  0.9298 -0.5471
  280MOL0    Cl37709   9.678  10.386   5.362 -0.2297  0.3772 -0.3750
  280MOL0     C37710  10.031  10.726   4.458  0.1625  0.1419  0.0770
  280MOL0     C37711  10.029  10.799   4.356  0.0274  0.2526  0.3689
  280MOL0     O37712  10.016  10.717   4.021 -1.1808 -0.5389  0.0297
  280MOL0     C37713  10.140  11.059   3.924  0.6486  0.2449  0.3892
  280MOL0     C37714  10.139  11.136   3.806  0.2754  0.3492 -0.0111
  280MOL0     N37715  10.120  10.879   3.027  0.2161 -0.8686  0.0485
  280MOL0     N37716  10.023  10.812   2.972 -0.8120 -1.0575  0.0955
  280MOL0     C37717   9.108   9.729   2.885  0.5680  1.0859 -0.0138
  280MOL0     C37718   9.057   9.642   2.788 -1.0978  0.5804 -0.0476
  280MOL0     C37719   8.983   9.566   2.358 -0.5711  0.1264 -0.0347
  280MOL0     C37720   8.875   9.632   2.290 -0.0340 -0.8376  1.1728
  280MOL0     C37721   8.831   9.578   2.163  0.0975  0.1702 -0.8408
  280MOL0     C37722   8.887   9.464   2.110  0.3158  0.3677 -0.4442
  280MOL0     O37723   8.824   9.416   1.997  0.0147  0.5437 -0.0987
  280MOL0     C37724   8.866   9.288   1.956  0.2894 -0.1066  0.7761
  280MOL0     C37725   8.765   9.246   1.851  0.3703 -0.7855  1.5594
  280MOL0     C37726   8.742   9.342   1.733  0.4655  0.1909 -0.3731
  280MOL0     C37727   8.699   9.282   1.598  0.0813  0.3305  0.1134
  280MOL0     C37728   8.577   9.210   1.618  0.0238 -0.0295  0.2020
  280MOL0     C37729   8.466   9.167   1.630 -1.3626 -0.3154 -0.8415
  280MOL0     C37730   8.991   9.397   2.185  0.9019 -0.3085  0.5140
  280MOL0     C37731   9.036   9.451   2.300 -0.9732  0.2805  0.3303
  280MOL0     C37732   9.157   9.387   2.366 -0.4059  0.3444  0.2454
  280MOL0     H37733   9.309   9.697   2.567 -3.5879  3.2112 -1.5284
  280MOL0     H37734   9.397   9.841   2.766  0.2928 -1.2609  1.3147
  280MOL0     H37735   9.430   9.920   3.107  0.3538  2.1781  0.0035
  280MOL0     H37736   9.470   9.844   2.957  0.3176 -1.4714  1.9520
  280MOL0     H37737   9.337  10.116   3.029 -0.1142 -1.5730  1.4304
  280MOL0     H37738   9.388  10.080   2.859  1.0493 -1.8512 -0.9545
  280MOL0     H37739   9.631  10.080   2.947  2.3981  2.8085  0.7985
  280MOL0     H37740   9.552  10.127   3.104 -3.3855  0.6770  0.4664
  280MOL0     H37741   9.482  10.287   2.865  1.2775 -1.1330 -0.7756
  280MOL0     H37742   9.470  10.328   3.039  1.6077  1.5934 -1.4001
  280MOL0     H37743   9.711  10.316   3.060  3.7943  1.1655 -1.0486
  280MOL0     H37744   9.708  10.300   2.877  0.9326 -1.1106  1.2457
  280MOL0     H37745   9.646  10.528   2.850 -0.0123  2.6708  1.7401
  280MOL0     H37746   9.595  10.541   3.010 -3.3978  0.9048 -3.6255
  280MOL0     H37747   9.870  10.516   2.889 -2.9377 -0.5694 -2.4258
  280MOL0     H37748   9.869  10.476   3.056  2.1174 -0.6608 -1.8485
  280MOL0     H37749   9.778  10.739   2.948  0.8692  0.1491 -2.0491
  280MOL0     H37750   9.758  10.688   3.125 -1.4434 -0.7420 -1.0467
  280MOL0     H37751   9.956  10.728   3.269  4.4503 -0.2035  1.3015
  280MOL0     H37752  10.227  10.813   3.337  1.0825 -0.0504  0.2586
  280MOL0     H37753  10.283  10.932   3.200  0.8188 -2.1391 -0.7846
  280MOL0     H37754  10.162  11.102   3.262 -1.1792 -1.1412 -1.1301
  280MOL0     H37755  10.053  11.027   3.368  0.1398  0.9222  0.7526
  280MOL0     H37756  10.352  11.092   3.376  0.7753  0.6075  1.5337
  280MOL0     H37757  10.283  10.984   3.503  1.8495  0.5227 -1.4434
  280MOL0     H37758  10.224  11.284   3.457  2.7146  2.6969  2.4224
  280MOL0     H37759  10.307  11.202   3.591  1.3271 -2.3137 -1.0613
  280MOL0     H37760   9.982  10.931   3.590  1.1469 -0.0299 -0.9922
  280MOL0     H37761   9.960  10.791   3.785  0.1639 -0.7590  3.1081
  280MOL0     H37762  10.291  10.669   4.184 -0.7412 -1.0554  0.3125
  280MOL0     H37763  10.288  10.526   4.381  1.1745  0.7662 -1.4948
  280MOL0     H37764  10.024  10.660   4.734  1.2096 -0.4377  0.8321
  280MOL0     H37765   9.944  10.540   4.637  0.4588 -1.7320 -1.1312
  280MOL0     H37766  10.125  10.377   4.744 -2.8035 -1.5292  1.1170
  280MOL0     H37767  10.179  10.498   4.845  1.5870  0.6293 -1.1150
  280MOL0     H37768   9.907  10.504   4.905  0.7495 -0.4123  0.9218
  280MOL0     H37769   9.929  10.336   4.841 -0.1120 -0.9295 -0.3586
  280MOL0     H37770  10.101  10.477   5.052  0.1051  0.9443 -4.4449
  280MOL0     H37771  10.109  10.308   5.009  0.1179  1.1194 -1.2079
  280MOL0     H37772   9.859  10.427   5.141 -1.2562 -1.9073 -1.0988
  280MOL0     H37773   9.980  10.351   5.229 -0.6440  1.6459  0.1443
  280MOL0     H37774   9.811  10.210   5.025 -4.1117 -1.2098  2.9726
  280MOL0     H37775   9.961  10.144   5.103 -0.1127  0.5846  1.6803
  280MOL0     H37776   9.853  10.141   5.319 -0.2923 -0.5694 -0.7037
  280MOL0     H37777   9.747  10.060   5.198  3.2562 -1.5866 -1.9611
  280MOL0     H37778   9.631  10.265   5.164 -0.1118 -2.5502 -1.7109
  280MOL0     H37779   9.582  10.180   5.313 -1.8129  2.4284 -0.8831
  280MOL0     H37780   9.941  10.742   4.518  0.5790 -2.7038  1.6291
  280MOL0     H37781   9.958  10.879   4.341  2.1193  1.9523 -1.2264
  280MOL0     H37782  10.202  11.082   4.011  0.4996 -1.2510  0.9295
  280MOL0     H37783  10.184  11.234   3.816 -2.0758  1.3243  1.7750
  280MOL0     H37784   9.031   9.742   2.961  0.0499  0.5487 -0.4364
  280MOL0     H37785   8.970   9.578   2.778  1.0510 -2.4049 -0.9774
  280MOL0     H37786   8.821   9.719   2.326  1.7018 -0.1669  2.2710
  280MOL0     H37787   8.744   9.621   2.116 -0.3962  1.0430  0.7887
  280MOL0     H37788   8.867   9.214   2.036 -0.9962  0.7840  1.6469
  280MOL0     H37789   8.958   9.287   1.896  0.0270  0.7461  0.3418
  280MOL0     H37790   8.668   9.243   1.902  0.7055 -2.4514  2.1758
  280MOL0     H37791   8.788   9.146   1.812 -1.6220  0.4700 -3.5092
  280MOL0     H37792   8.831   9.399   1.706 -0.4816  1.7374 -0.3136
  280MOL0     H37793   8.667   9.415   1.766 -0.2303 -1.3004  1.5712
  280MOL0     H37794   8.690   9.362   1.525 -1.2946  0.0490 -0.0578
  280MOL0     H37795   8.773   9.208   1.568 -3.7921 -3.9775  0.0458
  280MOL0     H37796   8.365   9.130   1.639 -2.4542  1.8403 -2.9195
  280MOL0     H37797   9.024   9.306   2.137 -1.7954 -2.7176  2.8396
  280MOL0     H37798   9.124   9.343   2.461  0.2887 -0.4074  0.1501
  280MOL0     H37799   9.213   9.323   2.298  0.4588  1.6802 -0.3376
  280MOL0     H37800   9.227   9.466   2.394 -0.5663 -0.8562  4.8968
  281MOL0     O37801   2.938  10.430   7.469  0.7380 -0.2740  0.2248
  281MOL0     C37802   2.968  10.325   7.525  0.8570 -0.0651  0.7077
  281MOL0     O37803   2.865  10.225   7.540 -0.6974 -0.4687 -0.3177
  281MOL0     C37804   2.727  10.262   7.539 -0.9410  0.4156 -0.1098
  281MOL0     C37805   2.672  10.384   7.585  0.5003  1.1696 -1.1237
  281MOL0     C37806   2.526  10.407   7.577 -0.0953 -0.0148 -0.5002
  281MOL0     C37807   2.443  10.299   7.545 -0.1181 -0.7050  0.2524
  281MOL0     O37808   2.311  10.314   7.547  0.1193  0.1884 -0.2703
  281MOL0     C37809   2.250  10.415   7.622  0.8244  0.4502  0.3446
  281MOL0     C37810   2.099  10.375   7.636 -0.2334  0.2731 -0.3761
  281MOL0     C37811   2.013  10.408   7.509  0.6877 -0.2381 -0.2295
  281MOL0     C37812   1.895  10.323   7.471 -0.9092 -0.6367 -0.4252
  281MOL0     C37813   1.770  10.378   7.544 -0.0503  0.6416  0.8299
  281MOL0     C37814   1.642  10.306   7.534  0.4453  0.6769 -0.3731
  281MOL0     C37815   1.645  10.172   7.606 -0.6710 -0.7790  0.5503
  281MOL0     C37816   1.543  10.079   7.540 -1.1738  0.9540 -0.5854
  281MOL0     N37817   1.529   9.949   7.622  0.5420 -0.2797 -0.7597
  281MOL0     C37818   1.445   9.939   7.736 -1.1300 -0.1015  1.1043
  281MOL0     C37819   1.458   9.810   7.770 -0.5694 -0.7843  0.3457
  281MOL0     C37820   1.391   9.749   7.891 -0.1338  0.0349 -0.3945
  281MOL0     C37821   1.358   9.608   7.859 -0.3892  0.2737  1.2333
  281MOL0     C37822   1.303   9.531   7.978 -0.3658  0.4446 -0.1429
  281MOL0     C37823   1.167   9.579   7.998  0.0761 -0.0282 -0.9756
  281MOL0     O37824   1.147   9.585   8.146 -1.3037  0.1254  0.8556
  281MOL0     C37825   1.028   9.542   8.175  1.4664  0.9950  0.2175
  281MOL0     C37826   1.019   9.418   8.233  2.4959  0.8336 -1.1690
  281MOL0     C37827   0.895   9.346   8.256 -0.6852  0.0844 -0.6063
  281MOL0     C37828   0.773   9.420   8.225 -0.2136 -0.7247  0.3942
  281MOL0     C37829   0.644   9.361   8.257 -0.1903  0.3291 -0.5136
  281MOL0     O37830   0.642   9.222   8.284 -1.0270  0.1451 -0.1094
  281MOL0     C37831   0.524   9.161   8.329 -0.4189 -0.0548 -0.9094
  281MOL0     C37832   0.408   9.148   8.241 -1.2807  0.2134  0.1920
  281MOL0     C37833   0.309   9.057   8.276  0.3182  0.2960  0.3380
  281MOL0     C37834   0.324   9.002   8.406 -0.4591 -0.2656  0.1782
  281MOL0     O37835   0.228   8.917   8.458 -0.6185 -0.4974  0.4333
  281MOL0     C37836   0.240   8.781   8.432 -0.3058 -0.0776  0.4513
  281MOL0     C37837   0.175   8.700   8.540  1.4037  0.9313 -1.3769
  281MOL0     C37838   0.017   8.722   8.566  0.5054  0.1246 -0.0814
  281MOL0     C37839  -0.073   8.636   8.472 -0.3991 -0.2279 -0.8943
  281MOL0     C37840  -0.132   8.728   8.366 -0.1383 -0.1161 -0.3700
  281MOL0     C37841  -0.234   8.667   8.282 -0.9832 -0.5991  0.5014
  281MOL0     C37842  -0.188   8.546   8.207 -0.7419 -0.3118  0.2047
  281MOL0     C37843  -0.077   8.572   8.096  0.2309 -0.9161 -0.5675
  281MOL0    Cl37844  -0.100   8.724   7.991  0.2926  0.3217  0.2799
  281MOL0     C37845   0.429   9.017   8.499  0.0239  0.0486  0.1373
  281MOL0     C37846   0.533   9.095   8.454  0.3029  0.9006  0.2627
  281MOL0     O37847   0.546   9.435   8.283 -1.0391  0.3891 -0.0762
  281MOL0     C37848   0.786   9.552   8.173  0.4837  0.4391 -0.4595
  281MOL0     C37849   0.908   9.613   8.142  0.7452  0.8823 -0.0515
  281MOL0     N37850   1.524   9.745   7.666  0.6232  0.1150  0.6939
  281MOL0     N37851   1.567   9.828   7.580 -0.2388 -0.7006 -0.4435
  281MOL0     C37852   2.498  10.180   7.487  0.0794  1.0471  0.2853
  281MOL0     C37853   2.639  10.156   7.494  0.6916  0.7391  0.2987
  281MOL0     C37854   3.109  10.284   7.573  0.5564 -0.4611  0.0918
  281MOL0     C37855   3.128  10.152   7.610 -0.7863  0.2181 -0.7745
  281MOL0     C37856   3.258  10.115   7.660 -0.1437 -0.4640 -0.6799
  281MOL0     C37857   3.361  10.205   7.673  0.0051  0.2232 -0.1684
  281MOL0     O37858   3.480  10.161   7.724 -0.6215  0.3323  0.7226
  281MOL0     C37859   3.578  10.256   7.764  0.0354  0.4303 -0.3877
  281MOL0     C37860   3.656  10.189   7.879  0.2428 -0.5464 -0.3904
  281MOL0     C37861   3.729  10.070   7.830 -0.3906  0.2596  0.0706
  281MOL0     C37862   3.801   9.993   7.928  0.5964 -0.5917  0.2461
  281MOL0     C37863   3.917  10.057   7.985 -0.4329  0.9628 -0.4708
  281MOL0     C37864   4.011  10.117   8.029 -0.4219 -0.3022 -0.3678
  281MOL0     C37865   3.338  10.334   7.622  0.0313 -0.1734 -0.3163
  281MOL0     C37866   3.217  10.378   7.579 -1.0947  0.3631 -0.6379
  281MOL0     C37867   3.198  10.523   7.534  0.1324  0.2329  0.4838
  281MOL0     H37868   2.743  10.464   7.602  0.7668  0.7975 -0.4452
  281MOL0     H37869   2.483  10.502   7.607  3.1219  0.6835  2.5077
  281MOL0     H37870   2.288  10.416   7.725  0.5981 -0.4610  0.4438
  281MOL0     H37871   2.269  10.517   7.588  1.9936  0.3218  0.5450
  281MOL0     H37872   2.060  10.424   7.726 -0.7320 -2.5547  1.0619
  281MOL0     H37873   2.104  10.267   7.651  1.1090  0.3863  0.1540
  281MOL0     H37874   2.081  10.397   7.424  1.0256 -1.0484  0.1339
  281MOL0     H37875   1.973  10.509   7.515 -2.2638 -1.3183 -0.1311
  281MOL0     H37876   1.879  10.323   7.363 -0.1419  0.7273 -0.5659
  281MOL0     H37877   1.923  10.220   7.495  0.4213 -1.2716 -4.0559
  281MOL0     H37878   1.801  10.376   7.648 -1.1567 -1.9949  1.2000
  281MOL0     H37879   1.758  10.479   7.505  0.3104 -0.7126 -3.2639
  281MOL0     H37880   1.554  10.353   7.578  0.5060 -0.3418  0.8992
  281MOL0     H37881   1.629  10.297   7.426 -1.4157 -1.7532 -0.0128
  281MOL0     H37882   1.614  10.185   7.710 -1.0643  1.5324  0.1959
  281MOL0     H37883   1.742  10.123   7.596  0.9542  2.3308 -0.4651
  281MOL0     H37884   1.441  10.119   7.537 -3.2796 -3.7779 -1.7070
  281MOL0     H37885   1.566  10.057   7.435 -0.0422  1.1847 -0.3947
  281MOL0     H37886   1.407  10.018   7.800  0.6053  2.0367 -0.3717
  281MOL0     H37887   1.454   9.760   7.980 -0.8517  2.0968 -0.1079
  281MOL0     H37888   1.301   9.806   7.911 -0.8578 -1.5998  1.3670
  281MOL0     H37889   1.310   9.587   7.763  0.7916 -3.5598  1.2965
  281MOL0     H37890   1.454   9.563   7.832 -0.9615  0.8384 -2.1670
  281MOL0     H37891   1.373   9.523   8.061 -0.4773 -6.9560 -0.0672
  281MOL0     H37892   1.279   9.426   7.958  1.1678 -0.5400  2.6419
  281MOL0     H37893   1.099   9.505   7.955  2.3474 -3.4242  0.8310
  281MOL0     H37894   1.139   9.677   7.957 -0.5359  0.3290  0.2329
  281MOL0     H37895   1.115   9.368   8.244  3.6472  3.1519  0.2232
  281MOL0     H37896   0.899   9.245   8.294  4.1816 -0.1611 -1.0535
  281MOL0     H37897   0.404   9.205   8.149  1.0388  3.5731  1.9319
  281MOL0     H37898   0.223   9.038   8.213  1.3831  4.9652 -3.0963
  281MOL0     H37899   0.193   8.758   8.336 -1.8869 -1.6062  1.5326
  281MOL0     H37900   0.345   8.751   8.427 -0.8027 -2.2089  1.6527
  281MOL0     H37901   0.196   8.597   8.511 -0.4760  0.6148 -1.7121
  281MOL0     H37902   0.220   8.716   8.639  1.1071  3.2848 -1.5657
  281MOL0     H37903  -0.007   8.689   8.667 -2.6264  1.7504 -0.1906
  281MOL0     H37904  -0.002   8.830   8.569 -2.0850 -0.2842 -0.0098
  281MOL0     H37905  -0.147   8.582   8.531  1.3309 -2.6007 -0.7449
  281MOL0     H37906  -0.013   8.555   8.429 -0.8660 -0.7152 -0.6354
  281MOL0     H37907  -0.048   8.742   8.298 -1.0668 -3.0771 -2.3166
  281MOL0     H37908  -0.165   8.823   8.410 -2.2738 -1.4237  1.0975
  281MOL0     H37909  -0.327   8.639   8.333 -0.3138 -1.2945  1.3827
  281MOL0     H37910  -0.246   8.749   8.211  2.9220  1.6586  2.1647
  281MOL0     H37911  -0.278   8.508   8.156 -0.3166  0.7424 -1.3937
  281MOL0     H37912  -0.148   8.473   8.278 -3.1703 -0.9596  1.0234
  281MOL0     H37913   0.027   8.576   8.130  0.5426  3.6751 -1.4523
  281MOL0     H37914  -0.084   8.477   8.042 -0.5943 -2.4134  2.0083
  281MOL0     H37915   0.432   8.980   8.601  0.2117  0.2396  0.2020
  281MOL0     H37916   0.619   9.108   8.520  1.5767 -1.8066 -0.7028
  281MOL0     H37917   0.692   9.602   8.152  0.9763  0.4088 -3.0514
  281MOL0     H37918   0.892   9.707   8.089  0.0788  0.9787  0.3076
  281MOL0     H37919   2.427  10.104   7.458  0.8177 -0.6157  2.5715
  281MOL0     H37920   2.677  10.065   7.447  2.6986  1.9513 -0.5461
  281MOL0     H37921   3.047  10.080   7.611 -0.6073  0.0036 -1.5463
  281MOL0     H37922   3.286  10.012   7.674 -2.6839 -0.8560  2.9311
  281MOL0     H37923   3.533  10.349   7.800  1.6660  0.4544  1.7810
  281MOL0     H37924   3.650  10.278   7.684  0.6283 -4.2560 -1.4155
  281MOL0     H37925   3.583  10.157   7.954 -0.5828  1.7983 -0.1202
  281MOL0     H37926   3.722  10.260   7.928 -0.5283 -0.3304  0.3646
  281MOL0     H37927   3.800  10.102   7.754 -0.0316  0.0476  0.3160
  281MOL0     H37928   3.664  10.006   7.770  2.6348 -0.1274 -3.1172
  281MOL0     H37929   3.735   9.956   8.006 -2.1078  1.0216 -1.1252
  281MOL0     H37930   3.844   9.905   7.879 -1.3294 -1.0025 -0.7981
  281MOL0     H37931   4.090  10.164   8.085 -0.8803 -1.4878  1.3676
  281MOL0     H37932   3.427  10.397   7.613  0.5132 -0.3939  2.1269
  281MOL0     H37933   3.105  10.564   7.576 -0.6170 -0.2235 -0.6813
  281MOL0     H37934   3.284  10.586   7.557  0.4519 -0.8943  2.6455
  281MOL0     H37935   3.182  10.516   7.426 -6.0107  0.1214  1.0581
  282MOL0     O37936   8.124   7.680  10.677 -0.3602 -0.3305  0.3092
  282MOL0     C37937   8.085   7.589  10.750  0.1736  0.8149 -0.4243
  282MOL0     O37938   8.107   7.588  10.895  0.7944 -0.1086  1.3607
  282MOL0     C37939   8.043   7.497  10.972  0.1466  0.7114  0.4835
  282MOL0     C37940   8.114   7.413  11.068  0.4710 -0.8347 -0.0320
  282MOL0     C37941   8.045   7.329  11.155  0.5200 -0.8928  0.0698
  282MOL0     C37942   7.904   7.315  11.144 -0.0787 -0.2706  0.2598
  282MOL0     O37943   7.850   7.225  11.218  0.7454  0.5752  0.3567
  282MOL0     C37944   7.708   7.240  11.254 -0.1815  0.3453 -0.3170
  282MOL0     C37945   7.653   7.100  11.262  0.1267  0.6377  0.3437
  282MOL0     C37946   7.504   7.092  11.260  0.2302  0.0319  0.1987
  282MOL0     C37947   7.437   7.031  11.382 -0.1739 -0.6595 -0.3546
  282MOL0     C37948   7.299   7.099  11.415 -0.8424 -0.6271  0.2825
  282MOL0     C37949   7.261   7.086  11.556  0.2045  0.1493 -0.4951
  282MOL0     C37950   7.248   6.943  11.614  0.6053  1.5936 -0.3600
  282MOL0     C37951   7.141   6.856  11.534  0.4302  0.5090  1.1692
  282MOL0     N37952   7.140   6.717  11.583  0.0066  0.3118 -0.1157
  282MOL0     C37953   7.108   6.604  11.502 -0.0724 -0.3942 -0.0130
  282MOL0     C37954   7.144   6.500  11.586  0.7914 -0.1332  0.8243
  282MOL0     C37955   7.115   6.358  11.546 -0.7836 -0.6484  0.7996
  282MOL0     C37956   7.103   6.272  11.672  0.0340  0.2479 -0.3434
  282MOL0     C37957   7.002   6.154  11.645 -0.8311  0.6586  0.5631
  282MOL0     C37958   6.989   6.059  11.764  0.2731 -0.7525  0.5236
  282MOL0     O37959   7.089   5.979  11.827 -0.1840 -0.2376 -0.2221
  282MOL0     C37960   7.056   5.849  11.823 -0.2057  0.7398  0.3284
  282MOL0     C37961   7.122   5.767  11.734  0.2849 -0.6682 -0.6277
  282MOL0     C37962   7.107   5.630  11.739  1.0550 -0.1961 -0.9228
  282MOL0     C37963   7.020   5.568  11.840  0.4339 -0.8333  0.1457
  282MOL0     C37964   7.002   5.423  11.848 -0.5829 -0.4141  0.0476
  282MOL0     O37965   7.061   5.347  11.746 -0.2338  0.5468  0.7940
  282MOL0     C37966   7.037   5.209  11.731 -0.6174 -1.0091  0.0410
  282MOL0     C37967   7.135   5.121  11.672 -0.2343  0.2661 -0.1548
  282MOL0     C37968   7.112   4.984  11.661 -0.1720 -0.4297 -1.0155
  282MOL0     C37969   6.986   4.938  11.695  0.3566  0.5429 -1.1709
  282MOL0     O37970   6.948   4.805  11.697  0.2551  0.2769 -0.0450
  282MOL0     C37971   7.011   4.717  11.613  0.9207 -0.5254  0.4924
  282MOL0     C37972   6.974   4.570  11.645  0.5101 -0.5777 -0.1366
  282MOL0     C37973   7.001   4.534  11.793  0.3887  0.1895  1.0085
  282MOL0     C37974   6.882   4.571  11.878 -0.1672 -0.1069  0.3504
  282MOL0     C37975   6.916   4.574  12.026 -0.3209 -0.4317 -0.0626
  282MOL0     C37976   6.791   4.588  12.120 -0.1859 -0.8733  0.1991
  282MOL0     C37977   6.676   4.479  12.098  0.2389  0.5638 -0.5604
  282MOL0     C37978   6.707   4.326  12.131  0.4297 -1.0822 -0.3712
  282MOL0    Cl37979   6.764   4.305  12.303 -0.5362  0.1470  0.1628
  282MOL0     C37980   6.881   5.023  11.733 -0.7022 -1.7387 -0.9633
  282MOL0     C37981   6.908   5.158  11.755 -0.6110 -1.1608  0.9770
  282MOL0     O37982   6.931   5.386  11.937  1.2742 -1.0385 -0.8643
  282MOL0     C37983   6.955   5.654  11.924  0.1148  0.1719  0.5090
  282MOL0     C37984   6.979   5.790  11.923 -0.2347 -0.2187  0.2158
  282MOL0     N37985   7.199   6.548  11.708 -0.3791  0.5186 -0.2141
  282MOL0     N37986   7.200   6.680  11.700 -0.4994  0.2060  0.7018
  282MOL0     C37987   7.837   7.390  11.037 -0.0448 -0.3761 -1.2728
  282MOL0     C37988   7.908   7.483  10.963  0.1933  0.2220 -0.1339
  282MOL0     C37989   8.011   7.482  10.687 -0.2142 -1.7542 -0.6165
  282MOL0     C37990   8.044   7.349  10.704  0.6631  0.6426 -0.6210
  282MOL0     C37991   7.968   7.244  10.658 -0.3468  0.2031  0.1734
  282MOL0     C37992   7.855   7.265  10.581  0.2421 -0.6681  0.2118
  282MOL0     O37993   7.758   7.164  10.572  0.3294  0.0130  0.1946
  282MOL0     C37994   7.696   7.159  10.443  0.3177 -0.3741 -0.2244
  282MOL0     C37995   7.581   7.060  10.435 -0.6010  0.1783  0.1760
  282MOL0     C37996   7.613   6.913  10.464  0.6237  0.3752 -1.3753
  282MOL0     C37997   7.707   6.864  10.359  1.0351 -0.4867  0.4183
  282MOL0     C37998   7.710   6.712  10.364  0.0421  0.2636 -0.1560
  282MOL0     C37999   7.706   6.591  10.355 -0.4024  0.4972  0.6774
  282MOL0     C38000   7.814   7.405  10.572 -1.1065  1.8179  0.0944
  282MOL0     C38001   7.899   7.511  10.613  0.5368  0.6918  0.5016
  282MOL0     C38002   7.835   7.643  10.613  0.1758  0.3600 -0.0974
  282MOL0     H38003   8.221   7.432  11.070  0.5814  0.0352 -4.4633
  282MOL0     H38004   8.108   7.255  11.204 -0.7302 -1.2956  1.1119
  282MOL0     H38005   7.713   7.286  11.353 -2.4709  2.3910 -1.0341
  282MOL0     H38006   7.655   7.312  11.192 -1.1298  1.7870  2.0356
  282MOL0     H38007   7.701   7.036  11.337  0.1203 -0.3378 -0.4584
  282MOL0     H38008   7.692   7.062  11.167  0.5330 -0.2445  0.8441
  282MOL0     H38009   7.475   7.025  11.179 -4.5740  1.4980  0.3952
  282MOL0     H38010   7.456   7.187  11.233 -0.2089 -0.7172 -1.9019
  282MOL0     H38011   7.417   6.925  11.364  0.1661 -1.2358  2.2972
  282MOL0     H38012   7.511   7.041  11.462 -0.3528 -0.1392 -0.2514
  282MOL0     H38013   7.315   7.205  11.394 -0.2223 -0.6170  0.7990
  282MOL0     H38014   7.221   7.063  11.346  1.8022 -2.4532 -1.9685
  282MOL0     H38015   7.335   7.144  11.612 -0.3601  0.8744 -0.4865
  282MOL0     H38016   7.168   7.143  11.569 -1.3137 -2.2764 -0.0878
  282MOL0     H38017   7.207   6.959  11.714 -0.4947 -0.1358 -0.5082
  282MOL0     H38018   7.346   6.895  11.622  0.0750  0.1395 -2.0061
  282MOL0     H38019   7.045   6.907  11.533 -1.1023 -2.1456 -0.5867
  282MOL0     H38020   7.171   6.850  11.429  2.7900 -1.9072  1.8608
  282MOL0     H38021   7.064   6.598  11.403  0.6800 -0.6537 -0.3380
  282MOL0     H38022   7.021   6.349  11.491  1.4129  0.9764 -3.7244
  282MOL0     H38023   7.186   6.320  11.473 -1.4305 -1.7601  0.7300
  282MOL0     H38024   7.201   6.245  11.711 -0.0070  2.3220  1.3588
  282MOL0     H38025   7.060   6.327  11.755 -4.1778 -0.7870 -1.5835
  282MOL0     H38026   7.040   6.097  11.559 -0.7504  2.3644 -0.5737
  282MOL0     H38027   6.904   6.191  11.615  0.1191  3.0006  0.1236
  282MOL0     H38028   6.912   5.987  11.733 -1.2464  1.8793 -2.3549
  282MOL0     H38029   6.941   6.114  11.846  0.2434 -0.2890  0.1974
  282MOL0     H38030   7.208   5.808  11.682 -1.8032  2.4135 -1.8991
  282MOL0     H38031   7.151   5.564  11.665  1.1555  0.6061 -1.5955
  282MOL0     H38032   7.240   5.144  11.657 -0.4883  0.9427 -0.9732
  282MOL0     H38033   7.188   4.920  11.617  1.1587 -1.8899  2.9578
  282MOL0     H38034   6.986   4.735  11.508 -1.2520  0.6486  1.1299
  282MOL0     H38035   7.116   4.719  11.642  1.0455  1.1597  0.0368
  282MOL0     H38036   6.866   4.559  11.629  0.6190 -0.9494 -0.6162
  282MOL0     H38037   7.033   4.504  11.582 -1.5618 -0.7802 -1.9798
  282MOL0     H38038   7.031   4.430  11.809  0.8325  0.7851  5.1748
  282MOL0     H38039   7.087   4.590  11.830  0.1775  0.6462  0.8162
  282MOL0     H38040   6.806   4.494  11.864  1.3173 -1.5314 -0.1714
  282MOL0     H38041   6.842   4.670  11.855  2.1560  1.3815  2.2359
  282MOL0     H38042   6.971   4.666  12.048 -3.1829  1.7656 -1.4453
  282MOL0     H38043   6.977   4.491  12.064  0.7916 -0.3501 -1.5644
  282MOL0     H38044   6.828   4.585  12.222 -0.6644 -1.6836  0.3587
  282MOL0     H38045   6.757   4.691  12.104  0.1656 -0.9448 -1.1533
  282MOL0     H38046   6.635   4.495  11.998  1.3533  2.3068 -0.7879
  282MOL0     H38047   6.593   4.504  12.164 -2.5314  0.2035 -3.6331
  282MOL0     H38048   6.621   4.261  12.114  1.1037 -3.0370  2.8453
  282MOL0     H38049   6.789   4.291  12.067 -0.6572 -1.4949 -1.5997
  282MOL0     H38050   6.778   4.997  11.751 -1.3872  1.9553  1.4038
  282MOL0     H38051   6.830   5.222  11.795 -0.9886 -0.8972 -0.1685
  282MOL0     H38052   6.880   5.608  11.989 -0.1348 -2.4249 -1.4482
  282MOL0     H38053   6.925   5.853  11.993  1.3358  2.7723 -1.0692
  282MOL0     H38054   7.732   7.392  11.007 -1.3833  1.4296  2.8593
  282MOL0     H38055   7.846   7.552  10.907 -2.8521 -1.6225  0.7115
  282MOL0     H38056   8.130   7.319  10.763 -0.0660  0.4279  0.3452
  282MOL0     H38057   7.986   7.138  10.672 -2.9387 -0.6402 -1.8620
  282MOL0     H38058   7.767   7.136  10.363 -0.3953 -1.0075 -0.6871
  282MOL0     H38059   7.662   7.260  10.416 -0.2042 -0.1567  1.1856
  282MOL0     H38060   7.544   7.063  10.332 -2.2053 -0.8328  0.7025
  282MOL0     H38061   7.494   7.086  10.496  0.6747  2.1528  1.2929
  282MOL0     H38062   7.514   6.869  10.454 -0.5616  2.2045  1.1972
  282MOL0     H38063   7.646   6.889  10.566  1.6518 -1.8780 -2.1608
  282MOL0     H38064   7.687   6.908  10.261 -1.2020  0.3910  1.2104
  282MOL0     H38065   7.810   6.892  10.383  1.6748 -1.7408 -0.6838
  282MOL0     H38066   7.710   6.484  10.344 -1.5715  0.6127 -1.3463
  282MOL0     H38067   7.717   7.429  10.530 -1.4503 -3.0127 -2.6128
  282MOL0     H38068   7.845   7.691  10.711 -1.5527  2.7155 -0.9783
  282MOL0     H38069   7.894   7.695  10.538  0.2391 -0.4797 -0.6441
  282MOL0     H38070   7.730   7.643  10.584 -0.0076 -2.9141  0.1620
  283MOL0     O38071   0.024   6.524   5.081 -0.2020  0.9161  0.0709
  283MOL0     C38072   0.096   6.521   5.186 -0.1587  0.2467 -0.1645
  283MOL0     O38073   0.083   6.432   5.283  0.8542  0.0479 -0.1007
  283MOL0     C38074  -0.012   6.329   5.284 -1.1269 -0.6486  0.3673
  283MOL0     C38075  -0.102   6.318   5.388  1.5748 -0.0345 -0.2149
  283MOL0     C38076  -0.198   6.214   5.393  0.2690 -0.4496  0.3483
  283MOL0     C38077  -0.195   6.111   5.303 -0.1153 -0.3417  0.4372
  283MOL0     O38078  -0.280   6.001   5.300  0.1694 -0.1407  0.0590
  283MOL0     C38079  -0.382   5.993   5.206 -0.4206 -0.4949 -0.2330
  283MOL0     C38080  -0.511   6.064   5.244 -0.2075 -0.1238  1.0571
  283MOL0     C38081  -0.553   6.023   5.392  0.2963  0.2553  0.4356
  283MOL0     C38082  -0.581   5.874   5.404  0.4285 -0.2226 -0.7238
  283MOL0     C38083  -0.611   5.829   5.550  0.4006 -0.3446 -0.0169
  283MOL0     C38084  -0.634   5.675   5.569  0.6743  0.1691 -0.8553
  283MOL0     C38085  -0.783   5.641   5.542 -0.8136 -0.6749  0.3820
  283MOL0     C38086  -0.832   5.501   5.566 -0.9544  0.7560 -0.0231
  283MOL0     N38087  -0.755   5.408   5.477 -0.0271  0.0739  1.0610
  283MOL0     C38088  -0.777   5.390   5.342 -0.5368 -0.0627 -0.9749
  283MOL0     C38089  -0.681   5.306   5.307 -0.2237  0.5584  0.3475
  283MOL0     C38090  -0.644   5.239   5.177  0.7073  0.0582  0.3998
  283MOL0     C38091  -0.744   5.118   5.151 -0.2841 -0.8449 -0.6219
  283MOL0     C38092  -0.713   5.005   5.262  0.4371 -0.9213 -0.2898
  283MOL0     C38093  -0.565   4.947   5.246  0.7750  0.2221  0.6543
  283MOL0     O38094  -0.549   4.817   5.302  1.0846 -0.0581  0.1366
  283MOL0     C38095  -0.563   4.706   5.219 -0.2513 -0.0914  0.4676
  283MOL0     C38096  -0.507   4.584   5.271  0.6019 -0.3394 -0.4192
  283MOL0     C38097  -0.528   4.460   5.208  0.2539  0.8805  0.4981
  283MOL0     C38098  -0.576   4.464   5.079 -0.2825  0.5301 -0.0526
  283MOL0     C38099  -0.559   4.347   4.987 -0.8481  0.6275 -0.6282
  283MOL0     O38100  -0.567   4.357   4.852 -0.2473  0.3535  0.6128
  283MOL0     C38101  -0.508   4.259   4.776  0.9213 -0.2484  0.2942
  283MOL0     C38102  -0.580   4.218   4.667  0.6746 -0.9707  0.3097
  283MOL0     C38103  -0.536   4.116   4.589 -1.2565 -0.5629  0.1810
  283MOL0     C38104  -0.399   4.073   4.591  0.7225  0.3782  0.1129
  283MOL0     O38105  -0.344   3.981   4.499 -0.5158 -0.4003 -0.2704
  283MOL0     C38106  -0.416   3.932   4.381 -0.1103 -0.2954 -0.6015
  283MOL0     C38107  -0.299   3.879   4.294  0.4086  0.2081  0.1704
  283MOL0     C38108  -0.211   4.001   4.250 -0.0015 -0.3411 -0.3038
  283MOL0     C38109  -0.074   3.948   4.200 -0.4313 -0.1297  0.8741
  283MOL0     C38110   0.031   4.053   4.201  0.7357  0.2761 -0.0198
  283MOL0     C38111   0.163   4.010   4.139 -0.1261 -0.0705  0.4414
  283MOL0     C38112   0.232   3.907   4.223  0.0258  0.2816  0.4742
  283MOL0     C38113   0.373   3.884   4.187  0.9143  0.1889 -0.6917
  283MOL0    Cl38114   0.383   3.829   4.018 -0.1663 -0.1441  0.4760
  283MOL0     C38115  -0.322   4.116   4.697  0.3620 -0.0114 -0.5293
  283MOL0     C38116  -0.378   4.213   4.789  0.8043  0.7857 -1.5036
  283MOL0     O38117  -0.536   4.235   5.047 -0.6122 -0.3196 -0.3216
  283MOL0     C38118  -0.620   4.585   5.024  1.9871  0.2679 -0.5402
  283MOL0     C38119  -0.628   4.698   5.100 -0.4694 -0.0959  0.4017
  283MOL0     N38120  -0.602   5.271   5.416  0.2368 -0.5298  0.2263
  283MOL0     N38121  -0.658   5.329   5.513  0.0455  0.5136 -0.7676
  283MOL0     C38122  -0.093   6.112   5.210  1.0005 -0.1392 -0.3279
  283MOL0     C38123   0.004   6.214   5.204 -0.2919 -0.7753  1.3210
  283MOL0     C38124   0.198   6.626   5.195 -0.7039 -0.3683  0.8653
  283MOL0     C38125   0.328   6.590   5.238  0.0101 -0.2244  0.1786
  283MOL0     C38126   0.423   6.690   5.251  0.1587  0.1138  0.5875
  283MOL0     C38127   0.394   6.822   5.225  0.5893  0.3669 -1.0724
  283MOL0     O38128   0.478   6.927   5.236  0.8732  0.1439 -0.0233
  283MOL0     C38129   0.592   6.919   5.329  0.5148  0.5298 -0.9883
  283MOL0     C38130   0.641   7.067   5.348 -0.6771 -1.0623  0.2770
  283MOL0     C38131   0.765   7.066   5.447 -0.9602 -0.4008 -0.8167
  283MOL0     C38132   0.839   7.206   5.453 -1.2913 -0.5246  0.0588
  283MOL0     C38133   0.759   7.313   5.508 -0.3751  0.9147  0.4852
  283MOL0     C38134   0.684   7.394   5.557  0.7414  0.7059  0.0158
  283MOL0     C38135   0.267   6.862   5.192  0.2047  0.7283  0.1299
  283MOL0     C38136   0.167   6.764   5.171 -0.0549 -0.2277 -0.3136
  283MOL0     C38137   0.033   6.808   5.120 -0.1630  0.1014 -0.2818
  283MOL0     H38138  -0.112   6.404   5.453 -0.3603 -0.5332  0.2117
  283MOL0     H38139  -0.283   6.199   5.459  0.6600  0.4324  1.0821
  283MOL0     H38140  -0.355   6.045   5.113 -0.8153  1.6338  0.7656
  283MOL0     H38141  -0.400   5.888   5.185 -1.7265 -0.3162 -0.0684
  283MOL0     H38142  -0.595   6.035   5.180 -0.2055  2.8522 -0.4643
  283MOL0     H38143  -0.498   6.172   5.242 -1.0062 -0.0010  1.7655
  283MOL0     H38144  -0.643   6.077   5.420  0.5495  0.5487  0.6965
  283MOL0     H38145  -0.461   6.046   5.447  0.8925 -1.4332  0.2204
  283MOL0     H38146  -0.661   5.852   5.333  0.1079  0.0342 -0.4425
  283MOL0     H38147  -0.495   5.812   5.376  0.6644  0.1581 -0.8482
  283MOL0     H38148  -0.519   5.862   5.599  0.3824  1.6846 -1.2452
  283MOL0     H38149  -0.697   5.887   5.587  0.7250  2.8931 -3.6766
  283MOL0     H38150  -0.583   5.614   5.494  0.6089  3.0859 -3.4632
  283MOL0     H38151  -0.600   5.647   5.669 -2.6394  0.4156  0.4658
  283MOL0     H38152  -0.783   5.667   5.436  2.8461  1.0119  0.6226
  283MOL0     H38153  -0.857   5.705   5.590  0.4269  1.9105 -0.9455
  283MOL0     H38154  -0.817   5.474   5.671  2.3895 -1.7959 -0.9929
  283MOL0     H38155  -0.930   5.488   5.518  0.3814 -3.4088 -2.1011
  283MOL0     H38156  -0.854   5.428   5.274  2.1184  4.0639 -2.0978
  283MOL0     H38157  -0.656   5.312   5.096  0.3545 -0.1967  0.2191
  283MOL0     H38158  -0.538   5.213   5.185  0.5928 -2.0358 -3.1576
  283MOL0     H38159  -0.850   5.142   5.161 -0.6039 -2.9550  2.9991
  283MOL0     H38160  -0.730   5.079   5.050 -1.7117 -0.5884 -0.9268
  283MOL0     H38161  -0.784   4.926   5.239  0.4318 -0.5995 -1.4500
  283MOL0     H38162  -0.731   5.045   5.362  1.2963 -1.3149  0.0306
  283MOL0     H38163  -0.487   5.006   5.295  0.8061  0.3115  0.4990
  283MOL0     H38164  -0.533   4.949   5.141  1.7776 -3.1868  0.7527
  283MOL0     H38165  -0.451   4.598   5.362  0.5443 -1.1511 -0.2506
  283MOL0     H38166  -0.485   4.372   5.255 -3.4907 -1.9107 -0.7403
  283MOL0     H38167  -0.676   4.263   4.642  1.5371 -0.4566 -2.5465
  283MOL0     H38168  -0.598   4.059   4.520 -1.2012  0.5002 -0.7818
  283MOL0     H38169  -0.489   3.854   4.406 -1.7905  1.7452  1.1892
  283MOL0     H38170  -0.445   4.016   4.318  4.3630  0.5443 -1.8657
  283MOL0     H38171  -0.245   3.811   4.361  2.7392 -1.2715 -3.0019
  283MOL0     H38172  -0.331   3.825   4.205  2.1318  1.8188 -1.5049
  283MOL0     H38173  -0.254   4.052   4.164  1.4544 -0.8653 -1.3915
  283MOL0     H38174  -0.188   4.078   4.323  1.6204  0.8067 -1.9229
  283MOL0     H38175  -0.073   3.900   4.102  1.2151  1.8872 -0.1688
  283MOL0     H38176  -0.045   3.878   4.279 -2.2737 -0.9845  0.8413
  283MOL0     H38177   0.055   4.092   4.301 -1.7639  2.5967 -0.2107
  283MOL0     H38178  -0.007   4.133   4.137 -0.4998 -2.7754 -3.4106
  283MOL0     H38179   0.157   3.983   4.033 -0.1895  0.9586  0.1763
  283MOL0     H38180   0.228   4.096   4.128  0.3460 -0.7777 -5.1347
  283MOL0     H38181   0.174   3.814   4.221  2.1730 -1.1226 -0.1606
  283MOL0     H38182   0.218   3.939   4.327 -2.6842 -2.7060  1.1865
  283MOL0     H38183   0.415   3.985   4.195 -0.5394  0.7061  4.6730
  283MOL0     H38184   0.428   3.825   4.261  0.6585  2.2912  1.2650
  283MOL0     H38185  -0.220   4.081   4.713  0.6500  1.5838  1.5735
  283MOL0     H38186  -0.336   4.224   4.889 -2.5760 -0.0550  0.1652
  283MOL0     H38187  -0.665   4.592   4.925  2.7369  0.7905 -0.8544
  283MOL0     H38188  -0.669   4.786   5.051  0.6931  0.5533  0.5577
  283MOL0     H38189  -0.083   6.031   5.138  0.8685  0.6740 -1.2844
  283MOL0     H38190   0.085   6.195   5.134 -1.7406 -0.0327 -0.6797
  283MOL0     H38191   0.344   6.486   5.265 -3.3717 -1.5806 -2.3597
  283MOL0     H38192   0.520   6.663   5.291  1.4245 -0.1842 -2.4203
  283MOL0     H38193   0.669   6.850   5.293 -0.5929 -1.2822 -0.0475
  283MOL0     H38194   0.562   6.894   5.431  1.2894 -1.2823 -1.1719
  283MOL0     H38195   0.556   7.121   5.391 -2.2292 -2.3550 -1.0146
  283MOL0     H38196   0.679   7.101   5.252  2.2226 -2.3192  0.8873
  283MOL0     H38197   0.842   6.997   5.412  0.7715  2.1872 -2.4994
  283MOL0     H38198   0.728   7.034   5.545  1.6403 -5.0649 -1.0491
  283MOL0     H38199   0.925   7.189   5.519  2.0249  1.5614 -3.3169
  283MOL0     H38200   0.884   7.228   5.356  0.2400  2.3476  1.2788
  283MOL0     H38201   0.615   7.465   5.597 -0.3611 -1.0432  1.3797
  283MOL0     H38202   0.238   6.965   5.174 -0.2194  0.5648 -0.1299
  283MOL0     H38203   0.024   6.793   5.012  1.7017 -0.4176 -0.3918
  283MOL0     H38204  -0.052   6.751   5.158 -0.1891  0.9811  1.0406
  283MOL0     H38205   0.008   6.913   5.142 -2.1805 -0.2949 -0.4363
  284MOL0     O38206   5.011   5.667   6.011  0.1528 -0.5976  0.0589
  284MOL0     C38207   4.907   5.653   6.069  0.5239  0.5712 -0.0976
  284MOL0     O38208   4.901   5.628   6.201 -0.0897  0.4305  0.2665
  284MOL0     C38209   4.990   5.693   6.283  0.7695  0.4546  0.3835
  284MOL0     C38210   4.957   5.826   6.324  0.3024 -0.1334  0.6929
  284MOL0     C38211   5.049   5.893   6.398  0.2793 -0.4073  0.7182
  284MOL0     C38212   5.179   5.841   6.423  0.2850  0.4984  0.3548
  284MOL0     O38213   5.263   5.924   6.498 -0.1786  1.0496  0.2787
  284MOL0     C38214   5.404   5.899   6.507  0.2508  0.1751  0.1023
  284MOL0     C38215   5.472   6.032   6.513 -0.2965  0.1628 -0.7496
  284MOL0     C38216   5.615   6.023   6.548 -0.8992 -0.2622 -0.5159
  284MOL0     C38217   5.712   6.055   6.431  0.4790 -0.5142 -0.0992
  284MOL0     C38218   5.730   6.202   6.406  0.1116  0.9638  0.7259
  284MOL0     C38219   5.830   6.228   6.286  0.1901  0.7332 -1.3231
  284MOL0     C38220   5.748   6.247   6.148  0.2106 -0.3272 -1.0808
  284MOL0     C38221   5.835   6.231   6.025  0.8325  0.0321 -0.3160
  284MOL0     N38222   5.860   6.090   5.983  0.7380  0.2695  0.0220
  284MOL0     C38223   5.965   6.008   6.018  0.8389  0.5633  0.5747
  284MOL0     C38224   5.932   5.889   5.959 -0.4078  0.3682  0.6042
  284MOL0     C38225   6.009   5.750   5.952 -0.3138  0.2531  0.3909
  284MOL0     C38226   5.972   5.660   5.839 -0.3979  0.5719 -0.1018
  284MOL0     C38227   6.081   5.557   5.827 -0.4228 -0.0512 -0.7268
  284MOL0     C38228   6.014   5.417   5.801 -0.1283 -0.9685 -0.6325
  284MOL0     O38229   5.968   5.413   5.667  0.0516  0.1628 -0.1676
  284MOL0     C38230   5.895   5.309   5.623 -0.0867  0.3512  0.8156
  284MOL0     C38231   5.812   5.329   5.502 -0.2616  0.5931  0.1711
  284MOL0     C38232   5.723   5.224   5.458  0.8766 -0.0977  0.3558
  284MOL0     C38233   5.729   5.102   5.514 -0.5126 -0.0409  0.3364
  284MOL0     C38234   5.638   4.992   5.469  0.0358 -0.8616  1.5000
  284MOL0     O38235   5.550   5.023   5.363  0.7777  0.2030 -0.0958
  284MOL0     C38236   5.453   4.939   5.307  0.0187 -0.0772  1.3595
  284MOL0     C38237   5.408   4.981   5.185 -0.1560  0.5337 -0.5573
  284MOL0     C38238   5.300   4.924   5.121  0.1169  0.1075 -0.0564
  284MOL0     C38239   5.251   4.800   5.171 -0.0889 -0.8002 -0.1266
  284MOL0     O38240   5.143   4.734   5.107  0.0661 -0.1628  1.1477
  284MOL0     C38241   5.092   4.609   5.152 -0.6198  0.0018 -0.5784
  284MOL0     C38242   5.003   4.536   5.054  0.2984 -0.7524 -0.5489
  284MOL0     C38243   4.872   4.619   5.031 -0.3777  0.1433  0.0655
  284MOL0     C38244   4.764   4.563   4.931  0.8685  0.0450 -0.0477
  284MOL0     C38245   4.635   4.646   4.942  0.0131  0.6515  0.8410
  284MOL0     C38246   4.540   4.610   4.835  0.3102  0.0558  0.0166
  284MOL0     C38247   4.465   4.723   4.788  0.3615 -0.0691  0.9784
  284MOL0     C38248   4.349   4.670   4.697  0.9037 -0.5866  0.4284
  284MOL0    Cl38249   4.281   4.805   4.592 -0.5361 -0.4632  0.2876
  284MOL0     C38250   5.310   4.747   5.288  0.1704 -0.1376 -0.3678
  284MOL0     C38251   5.403   4.816   5.361 -0.1722 -1.1309  0.2119
  284MOL0     O38252   5.654   4.881   5.516 -0.0768 -0.2409 -0.5426
  284MOL0     C38253   5.805   5.088   5.627  0.0267  0.1872 -0.2880
  284MOL0     C38254   5.883   5.187   5.686  0.5347  0.0818 -0.8925
  284MOL0     N38255   5.816   5.901   5.883 -0.3229  0.4885 -0.3047
  284MOL0     N38256   5.772   6.020   5.899  0.9982 -0.0086  0.7105
  284MOL0     C38257   5.198   5.702   6.402 -0.6980 -0.6896 -0.6485
  284MOL0     C38258   5.105   5.629   6.329 -0.0470  0.4248  0.5701
  284MOL0     C38259   4.781   5.639   6.001 -0.9387 -0.7819 -0.5180
  284MOL0     C38260   4.672   5.585   6.063  0.3872  1.6991 -0.4462
  284MOL0     C38261   4.549   5.580   5.997  0.1167 -0.3026 -0.6120
  284MOL0     C38262   4.541   5.607   5.861 -0.0189 -0.1651 -0.0362
  284MOL0     O38263   4.423   5.575   5.791 -0.0337 -0.5148 -0.1133
  284MOL0     C38264   4.306   5.566   5.864  0.3546  0.0151  0.0390
  284MOL0     C38265   4.182   5.573   5.772 -0.0941 -0.1525 -0.7360
  284MOL0     C38266   4.179   5.471   5.659 -1.3732 -0.3908  0.2758
  284MOL0     C38267   4.041   5.428   5.600  1.1054 -0.1123 -0.1382
  284MOL0     C38268   3.974   5.348   5.695 -1.7383 -0.0817  0.9077
  284MOL0     C38269   3.922   5.261   5.756  0.8931 -0.3181  0.1201
  284MOL0     C38270   4.649   5.648   5.794  0.2410  0.2058  0.2486
  284MOL0     C38271   4.772   5.666   5.862 -0.2242  0.1024  0.4760
  284MOL0     C38272   4.873   5.723   5.773 -0.6986  0.1935 -0.0575
  284MOL0     H38273   4.863   5.869   6.291  2.5179  2.6934 -2.8118
  284MOL0     H38274   5.023   5.992   6.433  2.2390  0.1769  0.6279
  284MOL0     H38275   5.414   5.840   6.599 -1.5413 -0.8899 -0.3221
  284MOL0     H38276   5.450   5.836   6.430  2.2542 -0.8252  2.0004
  284MOL0     H38277   5.431   6.094   6.593 -3.5500 -0.6352 -1.6452
  284MOL0     H38278   5.463   6.078   6.415 -0.3347 -1.1291 -1.3700
  284MOL0     H38279   5.632   5.922   6.586 -1.9777 -0.6177 -0.9169
  284MOL0     H38280   5.648   6.097   6.621  0.2393  0.2814 -1.5516
  284MOL0     H38281   5.813   6.015   6.440  0.0569 -2.2228 -2.0494
  284MOL0     H38282   5.673   6.005   6.341 -0.4186 -1.1405  0.6140
  284MOL0     H38283   5.634   6.253   6.391 -0.8512 -0.7066  0.9632
  284MOL0     H38284   5.775   6.240   6.499  1.2319 -0.0145  0.5998
  284MOL0     H38285   5.899   6.312   6.298  0.8813 -0.0977  1.3328
  284MOL0     H38286   5.886   6.136   6.266 -2.0766 -2.4162  4.4110
  284MOL0     H38287   5.712   6.350   6.144 -2.7920 -1.2847 -1.3566
  284MOL0     H38288   5.658   6.187   6.135  0.8261 -0.7017 -4.6649
  284MOL0     H38289   5.783   6.277   5.940  1.0894  2.1186  0.5807
  284MOL0     H38290   5.925   6.294   6.021  0.2688  0.8081 -1.4280
  284MOL0     H38291   6.052   6.011   6.083  2.9881 -1.2031 -2.0064
  284MOL0     H38292   6.115   5.778   5.945  0.6261 -2.8704  0.8488
  284MOL0     H38293   5.984   5.709   6.050 -2.4133 -0.7857 -0.5141
  284MOL0     H38294   5.869   5.624   5.830 -1.0059  2.3472 -0.8993
  284MOL0     H38295   5.992   5.728   5.755  5.5277 -0.1056  0.3632
  284MOL0     H38296   6.138   5.551   5.921 -0.0218  0.5716 -0.9281
  284MOL0     H38297   6.149   5.579   5.745 -0.9843 -2.7314 -2.0542
  284MOL0     H38298   5.932   5.402   5.871  0.5517  2.1376  0.9777
  284MOL0     H38299   6.090   5.341   5.823  1.5628  0.7789 -0.2018
  284MOL0     H38300   5.820   5.420   5.443  2.5963  0.5833  0.4018
  284MOL0     H38301   5.662   5.249   5.372 -3.0851  2.6386  3.5882
  284MOL0     H38302   5.456   5.070   5.144  1.7273 -1.2401 -2.4643
  284MOL0     H38303   5.267   4.979   5.033  1.7058  1.3692  0.0816
  284MOL0     H38304   5.176   4.542   5.176 -1.3551 -0.9135 -0.4819
  284MOL0     H38305   5.031   4.630   5.240  1.0312 -2.3126  1.2610
  284MOL0     H38306   5.055   4.530   4.958  2.1366 -0.0648  0.3631
  284MOL0     H38307   4.972   4.447   5.110 -0.5587  0.3147  0.7168
  284MOL0     H38308   4.825   4.603   5.128  2.5433  0.4843  1.6454
  284MOL0     H38309   4.898   4.725   5.032  1.6250 -0.1349  4.5232
  284MOL0     H38310   4.749   4.458   4.960  2.2198 -0.2226 -0.2471
  284MOL0     H38311   4.804   4.560   4.829 -2.2830 -0.8640 -1.3637
  284MOL0     H38312   4.672   4.749   4.940  1.3574  0.2940 -3.8684
  284MOL0     H38313   4.583   4.625   5.036  0.2863 -1.4432  0.5815
  284MOL0     H38314   4.593   4.580   4.745 -0.5237  0.5255 -0.6485
  284MOL0     H38315   4.471   4.529   4.862  0.7870 -0.0023  1.1300
  284MOL0     H38316   4.527   4.801   4.742 -0.5751  1.0932  1.6045
  284MOL0     H38317   4.420   4.779   4.870 -1.7467  0.5854 -0.5423
  284MOL0     H38318   4.394   4.603   4.622  1.0833  1.3751 -1.3205
  284MOL0     H38319   4.272   4.611   4.747 -0.7007  0.9992 -0.0562
  284MOL0     H38320   5.273   4.655   5.332  0.1270  0.1050  0.1116
  284MOL0     H38321   5.440   4.758   5.445  1.1238 -2.1594 -1.0045
  284MOL0     H38322   5.804   4.994   5.681 -1.0349 -0.4257 -1.3426
  284MOL0     H38323   5.918   5.161   5.786 -0.6911 -2.0622 -0.9606
  284MOL0     H38324   5.282   5.657   6.454 -0.2116 -1.9334 -2.3990
  284MOL0     H38325   5.139   5.527   6.319 -0.9358  0.1162  0.5779
  284MOL0     H38326   4.678   5.550   6.165  2.1940 -1.9204 -1.5959
  284MOL0     H38327   4.475   5.526   6.056 -0.2866 -0.3854 -1.1861
  284MOL0     H38328   4.290   5.642   5.941  0.0779 -2.2009  2.2694
  284MOL0     H38329   4.309   5.467   5.910  4.9805 -1.9684 -3.6801
  284MOL0     H38330   4.179   5.676   5.735  0.4318 -0.1096 -0.6723
  284MOL0     H38331   4.098   5.563   5.841  1.5890  0.2706  1.5165
  284MOL0     H38332   4.234   5.384   5.694  2.6170  2.9017  3.2152
  284MOL0     H38333   4.234   5.510   5.573 -2.4228  1.7293  0.4775
  284MOL0     H38334   3.980   5.512   5.567 -0.1965 -0.8867  0.2171
  284MOL0     H38335   4.064   5.374   5.507  3.3429  2.2993 -1.1227
  284MOL0     H38336   3.894   5.168   5.802  3.9246 -0.5955  1.6563
  284MOL0     H38337   4.633   5.687   5.694 -1.9695  0.7495  0.7570
  284MOL0     H38338   4.828   5.744   5.675 -0.0617  0.5889 -0.2754
  284MOL0     H38339   4.908   5.820   5.809  0.4697 -0.9122  1.9351
  284MOL0     H38340   4.954   5.651   5.758 -0.1053  0.2074  2.6024
  285MOL0     O38341  10.994   8.719   1.359  0.7752  0.1449 -0.3879
  285MOL0     C38342  10.988   8.606   1.409  0.4293  0.5189  0.5627
  285MOL0     O38343  10.910   8.502   1.358  0.1707  0.3705 -0.0016
  285MOL0     C38344  10.855   8.498   1.230 -0.6612 -0.2449  0.1685
  285MOL0     C38345  10.735   8.561   1.200  0.7075 -0.1305 -0.4763
  285MOL0     C38346  10.691   8.559   1.064 -0.1409  0.3458 -0.8887
  285MOL0     C38347  10.760   8.485   0.964  0.0005 -0.4284 -0.8888
  285MOL0     O38348  10.717   8.462   0.832  0.4163 -0.5496  0.0227
  285MOL0     C38349  10.573   8.470   0.809 -0.0803  0.8114 -0.0391
  285MOL0     C38350  10.554   8.481   0.660 -0.2195 -1.4058 -0.3311
  285MOL0     C38351  10.656   8.576   0.583 -0.3007  0.0520 -0.2083
  285MOL0     C38352  10.578   8.619   0.458 -0.3585 -0.2221  0.8508
  285MOL0     C38353  10.670   8.711   0.368 -0.0027  0.4994  0.2969
  285MOL0     C38354  10.592   8.808   0.276  0.4468 -0.3997  0.6752
  285MOL0     C38355  10.670   8.856   0.152 -1.3660 -0.9619  0.6696
  285MOL0     C38356  10.707   8.746   0.046 -0.5022  0.4615 -0.7050
  285MOL0     N38357  10.814   8.775  -0.057  0.3020 -0.2243  0.4359
  285MOL0     C38358  10.847   8.903  -0.096 -0.1761  0.0995 -0.3737
  285MOL0     C38359  10.926   8.892  -0.203 -0.7565 -1.2246  0.6077
  285MOL0     C38360  10.998   9.014  -0.286 -0.1685 -0.2377 -1.2516
  285MOL0     C38361  10.994   8.969  -0.429  1.2694  0.7132  0.1707
  285MOL0     C38362  10.847   8.991  -0.482 -0.4270  1.2070  0.6772
  285MOL0     C38363  10.826   8.952  -0.631 -0.0705  1.0119  0.0372
  285MOL0     O38364  10.903   9.047  -0.710 -0.3053  0.4603 -0.6384
  285MOL0     C38365  10.846   9.164  -0.753  0.0786  1.0025  0.1139
  285MOL0     C38366  10.710   9.194  -0.728 -0.1690 -0.0601 -0.8703
  285MOL0     C38367  10.660   9.309  -0.758 -0.0882 -0.0497  1.1654
  285MOL0     C38368  10.740   9.412  -0.830  0.4931 -0.1181  0.3302
  285MOL0     C38369  10.668   9.527  -0.889 -0.5163  0.1185 -0.3662
  285MOL0     O38370  10.753   9.627  -0.921 -0.0262 -0.2865 -0.2649
  285MOL0     C38371  10.717   9.739  -0.985  0.1102 -0.6496  0.3437
  285MOL0     C38372  10.662   9.732  -1.120 -0.1027  0.0278  0.0994
  285MOL0     C38373  10.633   9.858  -1.191  0.5943 -1.0695  0.1417
  285MOL0     C38374  10.659   9.982  -1.131 -0.0689  0.4662 -0.1748
  285MOL0     O38375  10.623  10.104  -1.187  0.0315 -0.2806 -0.1745
  285MOL0     C38376  10.478  10.124  -1.226  0.3852 -0.4965 -0.4412
  285MOL0     C38377  10.436  10.266  -1.216 -0.4377 -0.3494  0.7071
  285MOL0     C38378  10.454  10.317  -1.068 -0.7581 -0.9241 -0.0999
  285MOL0     C38379  10.403  10.459  -1.055  0.6643 -0.8204  0.2089
  285MOL0     C38380  10.453  10.564  -1.161  0.0028 -0.4739 -0.8104
  285MOL0     C38381  10.460  10.701  -1.102 -0.4194 -0.5030  0.3455
  285MOL0     C38382  10.522  10.803  -1.210 -1.1954  0.0596  0.5297
  285MOL0     C38383  10.539  10.944  -1.166 -0.7293  0.1341 -0.1221
  285MOL0    Cl38384  10.701  10.972  -1.099 -0.1321 -0.2030 -0.4449
  285MOL0     C38385  10.721   9.988  -1.004  0.2810  0.0328  0.9186
  285MOL0     C38386  10.742   9.870  -0.938  0.0827  0.2019 -0.4086
  285MOL0     O38387  10.549   9.534  -0.893  0.0596  0.3659 -0.0207
  285MOL0     C38388  10.867   9.376  -0.859  0.6715  0.2932  0.9360
  285MOL0     C38389  10.925   9.255  -0.824 -0.9268  1.3886 -0.0317
  285MOL0     N38390  10.950   8.760  -0.222  0.6173  0.9204  0.1474
  285MOL0     N38391  10.870   8.694  -0.138  0.3183  0.0831 -1.0845
  285MOL0     C38392  10.880   8.426   1.005  0.1116 -0.3688  0.3705
  285MOL0     C38393  10.929   8.436   1.133  0.1409  0.0856 -0.8444
  285MOL0     C38394  11.077   8.574   1.530  0.5551 -0.5887 -0.7995
  285MOL0     C38395  11.042   8.459   1.610 -0.3648  0.5196 -0.4029
  285MOL0     C38396  11.122   8.417   1.717  0.9453 -0.5000 -0.3843
  285MOL0     C38397  11.241   8.482   1.742  0.7426 -0.2658  0.5294
  285MOL0     O38398  11.323   8.433   1.841  0.3258  0.8158  0.4633
  285MOL0     C38399  11.465   8.428   1.822  0.2896  0.2886 -0.3533
  285MOL0     C38400  11.531   8.535   1.915  0.1219  0.0100  0.4101
  285MOL0     C38401  11.678   8.524   1.903  0.0211  0.6719 -0.3531
  285MOL0     C38402  11.747   8.623   1.984  0.1523 -0.1050  0.8002
  285MOL0     C38403  11.745   8.601   2.127 -0.2728 -0.2098 -0.2089
  285MOL0     C38404  11.708   8.589   2.248  0.9212  0.3105  0.0561
  285MOL0     C38405  11.279   8.601   1.671 -0.0415 -0.4249 -0.6139
  285MOL0     C38406  11.198   8.642   1.565  0.1298 -0.6812  0.4903
  285MOL0     C38407  11.230   8.767   1.500  0.2002 -0.5545  0.3322
  285MOL0     H38408  10.672   8.615   1.270 -1.3412 -0.3265 -2.0776
  285MOL0     H38409  10.606   8.619   1.036 -2.0714 -2.5245 -1.6450
  285MOL0     H38410  10.517   8.382   0.842 -0.6842  1.5878  1.0729
  285MOL0     H38411  10.529   8.558   0.855  1.0698  1.5582 -0.3363
  285MOL0     H38412  10.457   8.531   0.654  1.3664  1.9663 -0.1871
  285MOL0     H38413  10.548   8.383   0.611 -1.3730 -2.8317  2.4232
  285MOL0     H38414  10.740   8.512   0.557 -1.5439 -2.9271  2.4007
  285MOL0     H38415  10.678   8.660   0.649  3.9624 -0.8764 -0.1918
  285MOL0     H38416  10.532   8.534   0.406 -1.6161 -1.5086  3.8350
  285MOL0     H38417  10.489   8.675   0.488 -1.6402 -0.7510 -1.6320
  285MOL0     H38418  10.728   8.774   0.436  3.0669 -0.2958 -1.4378
  285MOL0     H38419  10.745   8.643   0.328  1.1407  0.2343  2.6973
  285MOL0     H38420  10.505   8.748   0.246 -0.6451  1.5239 -0.2358
  285MOL0     H38421  10.546   8.891   0.331  1.2596  0.7175 -0.2781
  285MOL0     H38422  10.769   8.892   0.181 -1.5602 -0.4884  0.7553
  285MOL0     H38423  10.626   8.944   0.103  3.4539  0.3247 -1.9358
  285MOL0     H38424  10.742   8.669   0.115  0.2818  2.1137  0.8407
  285MOL0     H38425  10.610   8.728  -0.001  0.2120  0.4482 -2.2475
  285MOL0     H38426  10.805   8.991  -0.050 -1.8071 -0.9708  0.2846
  285MOL0     H38427  10.953   9.114  -0.286 -0.5988 -0.4244 -1.7651
  285MOL0     H38428  11.096   9.028  -0.239  0.4208  2.0289 -2.9485
  285MOL0     H38429  11.060   9.024  -0.498  4.0666 -1.8333  0.6214
  285MOL0     H38430  11.030   8.867  -0.443 -2.0812 -1.2436  3.9503
  285MOL0     H38431  10.820   9.097  -0.486  0.3821  1.4469  1.2940
  285MOL0     H38432  10.774   8.945  -0.415 -0.2582  1.5969  1.1319
  285MOL0     H38433  10.726   8.924  -0.665  1.2258 -4.0519 -0.3854
  285MOL0     H38434  10.883   8.861  -0.655  0.2817  1.3171 -0.3077
  285MOL0     H38435  10.637   9.123  -0.690  1.1818 -2.0161 -1.7606
  285MOL0     H38436  10.554   9.321  -0.734  0.3827 -0.9079  4.0234
  285MOL0     H38437  10.644   9.640  -1.174  0.8604  0.0731 -0.3074
  285MOL0     H38438  10.579   9.866  -1.285 -2.3146 -2.1447  1.6033
  285MOL0     H38439  10.476  10.093  -1.331 -2.2855  0.6618 -0.8334
  285MOL0     H38440  10.412  10.057  -1.170  1.9978  0.9769  3.5410
  285MOL0     H38441  10.487  10.323  -1.294 -0.1582  0.3464  1.3803
  285MOL0     H38442  10.329  10.272  -1.238 -0.0973  0.1246 -0.9052
  285MOL0     H38443  10.392  10.265  -0.995 -1.8755  0.2147 -0.2074
  285MOL0     H38444  10.557  10.317  -1.030 -0.6509 -0.5267 -0.3780
  285MOL0     H38445  10.409  10.488  -0.950  1.1557 -1.4153  0.3468
  285MOL0     H38446  10.295  10.466  -1.072  0.9192 -0.2518 -1.4329
  285MOL0     H38447  10.365  10.565  -1.227 -4.1904 -0.6880  4.1444
  285MOL0     H38448  10.551  10.534  -1.199  1.2800  0.1637  1.7878
  285MOL0     H38449  10.364  10.747  -1.079 -2.0690 -3.6183  0.1307
  285MOL0     H38450  10.515  10.696  -1.008  0.3128  3.5880  0.3240
  285MOL0     H38451  10.449  10.803  -1.292 -0.3595  1.7232 -0.2621
  285MOL0     H38452  10.610  10.763  -1.260 -1.7496  0.4257 -0.7703
  285MOL0     H38453  10.544  11.006  -1.256 -0.1280 -2.2927 -1.8721
  285MOL0     H38454  10.456  10.988  -1.110  0.1074  1.8634 -0.1709
  285MOL0     H38455  10.735  10.084  -0.956  4.8284 -0.5976  1.3064
  285MOL0     H38456  10.783   9.886  -0.839  0.7928 -2.1057 -0.2672
  285MOL0     H38457  10.928   9.451  -0.908  5.0853 -3.5736 -0.1308
  285MOL0     H38458  11.030   9.236  -0.844 -1.3597 -1.0731 -0.2270
  285MOL0     H38459  10.929   8.362   0.931 -2.6174  0.1210 -2.0519
  285MOL0     H38460  11.030   8.402   1.153 -1.0077 -2.7409  0.6842
  285MOL0     H38461  10.953   8.402   1.589 -0.2872 -0.1300  0.8989
  285MOL0     H38462  11.096   8.324   1.767  0.6133 -1.4161 -2.1791
  285MOL0     H38463  11.501   8.452   1.721  0.1765 -1.6084 -0.8703
  285MOL0     H38464  11.494   8.327   1.851 -0.9497  0.2503  0.8476
  285MOL0     H38465  11.502   8.523   2.020  0.0800  1.8949  0.6518
  285MOL0     H38466  11.477   8.627   1.891 -1.7981 -1.0081  0.6105
  285MOL0     H38467  11.709   8.537   1.799 -0.0135 -0.6812 -0.5598
  285MOL0     H38468  11.708   8.425   1.940  0.0865 -0.4560 -3.2050
  285MOL0     H38469  11.852   8.618   1.954  1.4239 -1.0295  4.7753
  285MOL0     H38470  11.704   8.722   1.972  1.1134  0.2328 -0.0445
  285MOL0     H38471  11.665   8.585   2.346  0.4986 -1.1744 -0.1769
  285MOL0     H38472  11.373   8.650   1.696 -1.2350  2.3027 -1.0957
  285MOL0     H38473  11.322   8.811   1.540 -2.7420  2.7977  4.2414
  285MOL0     H38474  11.232   8.755   1.391 -1.8199 -2.6178  0.4300
  285MOL0     H38475  11.151   8.840   1.515  1.5875  1.1020 -0.1458
  286MOL0     O38476   2.124   4.550   1.425 -0.6429  0.2450 -0.1255
  286MOL0     C38477   2.131   4.648   1.500  0.3937  0.7939  0.4983
  286MOL0     O38478   2.061   4.661   1.612  0.1108 -0.7682 -0.5611
  286MOL0     C38479   1.960   4.577   1.635 -0.1190 -0.1253  0.2981
  286MOL0     C38480   1.980   4.463   1.713  0.1706 -0.6637  0.0619
  286MOL0     C38481   1.870   4.371   1.732 -0.0066 -1.0850  0.5101
  286MOL0     C38482   1.747   4.394   1.672  0.3446 -1.1558  0.4647
  286MOL0     O38483   1.643   4.311   1.696 -0.4225 -0.5726 -0.2702
  286MOL0     C38484   1.528   4.361   1.775 -0.1243 -0.6446 -0.2013
  286MOL0     C38485   1.415   4.259   1.751  0.3521  0.2020  0.3466
  286MOL0     C38486   1.288   4.274   1.837 -0.3895 -0.0951  0.2238
  286MOL0     C38487   1.163   4.274   1.750  0.0575  0.9693 -0.1401
  286MOL0     C38488   1.029   4.261   1.813  0.4964  0.2840 -0.3045
  286MOL0     C38489   0.920   4.214   1.724  0.2527 -0.1182  0.0598
  286MOL0     C38490   0.889   4.063   1.728 -0.3524 -0.2315 -0.5429
  286MOL0     C38491   0.763   4.009   1.675  0.0759 -0.8629  0.4302
  286MOL0     N38492   0.647   4.081   1.722 -0.2434  0.2425 -0.4106
  286MOL0     C38493   0.612   4.089   1.861  0.1327 -0.0849  0.4892
  286MOL0     C38494   0.503   4.166   1.855  0.1673 -1.3898 -1.5453
  286MOL0     C38495   0.406   4.208   1.965  0.1934  0.2967  1.1059
  286MOL0     C38496   0.435   4.347   2.012 -0.7037  0.2830 -0.4025
  286MOL0     C38497   0.397   4.460   1.915 -0.0114  0.3978  1.2954
  286MOL0     C38498   0.399   4.595   1.983  0.0190 -0.5996 -0.5262
  286MOL0     O38499   0.510   4.605   2.084  0.1800 -0.1634 -0.4239
  286MOL0     C38500   0.576   4.727   2.091  0.3804  0.9548 -0.3447
  286MOL0     C38501   0.529   4.852   2.058  0.0516  0.1891 -0.3686
  286MOL0     C38502   0.617   4.960   2.074 -0.5433 -0.2056  0.8096
  286MOL0     C38503   0.753   4.944   2.111  1.0401 -0.1310 -0.9960
  286MOL0     C38504   0.839   5.062   2.100  0.4798 -0.7433 -1.0890
  286MOL0     O38505   0.784   5.192   2.085  0.4342 -0.1800 -0.5752
  286MOL0     C38506   0.871   5.287   2.042  0.0391 -1.1590 -0.5388
  286MOL0     C38507   0.976   5.333   2.129 -0.6655 -0.4565 -0.0174
  286MOL0     C38508   1.074   5.425   2.092  0.4459 -0.4182 -0.0096
  286MOL0     C38509   1.069   5.474   1.957  0.4279  0.4511 -0.3386
  286MOL0     O38510   1.152   5.575   1.905 -0.1586 -0.5598 -0.2236
  286MOL0     C38511   1.290   5.539   1.902 -0.2172  0.3201  0.3163
  286MOL0     C38512   1.379   5.624   1.822  0.3947 -0.4152 -0.4894
  286MOL0     C38513   1.378   5.592   1.670 -0.8841 -0.3905 -1.0273
  286MOL0     C38514   1.474   5.690   1.592  0.5835 -0.0362 -0.3103
  286MOL0     C38515   1.501   5.638   1.455  0.0801  0.5027 -0.2257
  286MOL0     C38516   1.389   5.635   1.355  0.7534 -0.6727  0.1438
  286MOL0     C38517   1.434   5.575   1.224 -0.9453  0.1976  0.3472
  286MOL0     C38518   1.325   5.570   1.119  1.2769 -0.6953 -0.3526
  286MOL0    Cl38519   1.389   5.501   0.981  0.1699  0.2850 -0.4110
  286MOL0     C38520   0.967   5.433   1.875  0.7920  0.4261 -0.7047
  286MOL0     C38521   0.864   5.340   1.912 -0.2355 -0.2685 -0.0198
  286MOL0     O38522   0.957   5.031   2.089 -0.2793  0.5335 -0.0128
  286MOL0     C38523   0.799   4.819   2.147  0.5172  0.4303 -0.7846
  286MOL0     C38524   0.711   4.707   2.124  0.8056  0.0489  0.0633
  286MOL0     N38525   0.470   4.206   1.724  0.4254 -0.3058  0.2180
  286MOL0     N38526   0.568   4.161   1.651  0.4355  0.0286 -0.2056
  286MOL0     C38527   1.728   4.510   1.599 -0.1700 -0.1918 -0.3511
  286MOL0     C38528   1.828   4.603   1.587 -0.7191 -0.6945  0.6781
  286MOL0     C38529   2.229   4.751   1.457  0.5254 -0.0054 -0.1856
  286MOL0     C38530   2.277   4.839   1.562 -0.3684  0.3229 -0.6333
  286MOL0     C38531   2.380   4.934   1.539 -0.1936 -0.4765  1.1341
  286MOL0     C38532   2.432   4.944   1.411 -0.0342 -0.6420  0.0970
  286MOL0     O38533   2.533   5.035   1.405 -0.4180 -0.7040 -0.0910
  286MOL0     C38534   2.603   5.064   1.284  1.1010 -1.3857  0.3389
  286MOL0     C38535   2.698   5.186   1.290  0.0780 -0.5066  0.3587
  286MOL0     C38536   2.839   5.146   1.353  0.8374 -0.3708  0.7506
  286MOL0     C38537   2.924   5.067   1.259  0.1692 -0.2009 -0.1261
  286MOL0     C38538   3.063   5.099   1.282  0.2546 -0.5436 -1.7365
  286MOL0     C38539   3.182   5.127   1.296  0.0734 -0.4069  0.5685
  286MOL0     C38540   2.377   4.862   1.309 -0.2941 -0.5360 -0.4240
  286MOL0     C38541   2.280   4.761   1.321 -0.2173 -0.4393 -0.5928
  286MOL0     C38542   2.228   4.699   1.192 -0.3893 -0.2649  0.0468
  286MOL0     H38543   2.075   4.468   1.766 -1.3992 -0.3349  3.0586
  286MOL0     H38544   1.882   4.288   1.801 -1.3533 -2.1899 -0.5186
  286MOL0     H38545   1.556   4.371   1.880 -0.8936 -0.1380 -0.0348
  286MOL0     H38546   1.493   4.460   1.743 -1.9847 -2.1377 -3.2666
  286MOL0     H38547   1.459   4.159   1.762  0.6186  0.4144  1.3438
  286MOL0     H38548   1.381   4.270   1.648  1.2120 -1.1579 -0.1144
  286MOL0     H38549   1.293   4.364   1.899 -1.5189 -1.9130  3.1431
  286MOL0     H38550   1.291   4.181   1.894 -1.3644 -0.1643  0.1851
  286MOL0     H38551   1.159   4.358   1.680 -0.2068  2.0820  1.1722
  286MOL0     H38552   1.176   4.187   1.685  3.9316  2.4299 -1.6377
  286MOL0     H38553   1.022   4.208   1.908  0.2925 -0.1826 -0.5756
  286MOL0     H38554   1.018   4.367   1.840 -2.6596 -0.2725  0.9991
  286MOL0     H38555   0.830   4.272   1.748 -0.7441 -1.8635  0.7130
  286MOL0     H38556   0.949   4.236   1.621  0.0794 -0.7065 -0.1155
  286MOL0     H38557   0.896   4.021   1.829 -0.0371  2.5932  0.6917
  286MOL0     H38558   0.970   4.007   1.680 -1.0634 -1.4652 -0.3455
  286MOL0     H38559   0.767   4.022   1.566 -1.7686 -0.9480  0.3316
  286MOL0     H38560   0.747   3.905   1.703 -2.2725 -0.4395  0.7921
  286MOL0     H38561   0.665   4.049   1.947  2.3308  1.3107 -0.1402
  286MOL0     H38562   0.306   4.201   1.921  0.0242  1.4286  1.2838
  286MOL0     H38563   0.422   4.153   2.058  1.6994 -3.0698 -0.9168
  286MOL0     H38564   0.369   4.370   2.096 -1.9285  2.3666 -1.8435
  286MOL0     H38565   0.537   4.344   2.050 -1.9192 -2.2096  3.2770
  286MOL0     H38566   0.301   4.441   1.867 -0.4010  2.4676  1.1594
  286MOL0     H38567   0.474   4.449   1.838 -3.5355 -0.0295 -2.4670
  286MOL0     H38568   0.303   4.610   2.033 -0.2674  2.4151 -1.7623
  286MOL0     H38569   0.399   4.673   1.906 -1.1309  2.5822  2.4001
  286MOL0     H38570   0.427   4.852   2.020 -1.6290 -0.1040  3.6187
  286MOL0     H38571   0.580   5.051   2.028  1.1680 -1.0191 -2.4397
  286MOL0     H38572   0.985   5.307   2.234  3.5937  1.7230  0.3687
  286MOL0     H38573   1.135   5.467   2.172 -3.6408  1.8264  2.3050
  286MOL0     H38574   1.323   5.540   2.006  0.4220 -2.1901  0.2034
  286MOL0     H38575   1.291   5.435   1.867 -0.3298  0.6333 -0.6495
  286MOL0     H38576   1.360   5.731   1.839  2.0684  0.0973 -1.5099
  286MOL0     H38577   1.483   5.608   1.853  2.1077  5.9536 -1.3339
  286MOL0     H38578   1.418   5.490   1.667  0.3294  0.0320 -0.2112
  286MOL0     H38579   1.273   5.601   1.640 -1.6537  0.5841  1.6354
  286MOL0     H38580   1.573   5.689   1.639  2.5019 -1.2776 -3.9945
  286MOL0     H38581   1.426   5.788   1.583  2.9096  1.1856 -0.0256
  286MOL0     H38582   1.550   5.540   1.455  1.2075  1.0488 -0.4780
  286MOL0     H38583   1.586   5.701   1.426  1.2685 -0.7507  0.3678
  286MOL0     H38584   1.305   5.570   1.381  0.3199 -0.5075 -0.8086
  286MOL0     H38585   1.345   5.735   1.347 -0.0540 -1.1336 -1.5312
  286MOL0     H38586   1.472   5.474   1.238  1.3621  1.1759  1.6875
  286MOL0     H38587   1.523   5.634   1.199 -0.8948 -0.0924 -0.1852
  286MOL0     H38588   1.237   5.511   1.145 -0.2214  2.5964  3.1265
  286MOL0     H38589   1.282   5.667   1.091  0.8023 -0.9529 -0.5265
  286MOL0     H38590   0.958   5.483   1.779 -1.2425  2.8295  0.6114
  286MOL0     H38591   0.777   5.317   1.852  1.6844  1.5446 -3.8850
  286MOL0     H38592   0.895   4.800   2.193  0.6642 -1.3763 -1.7466
  286MOL0     H38593   0.755   4.610   2.146  2.7717  0.7812 -0.4288
  286MOL0     H38594   1.632   4.533   1.553  0.8377  1.7790 -1.5610
  286MOL0     H38595   1.814   4.699   1.539 -0.3205 -0.8614  0.2291
  286MOL0     H38596   2.229   4.822   1.658  2.2368 -2.1216  0.3672
  286MOL0     H38597   2.418   4.986   1.626 -0.5409  0.7227  0.5970
  286MOL0     H38598   2.530   5.089   1.206  0.2698 -3.3291  0.4295
  286MOL0     H38599   2.663   4.974   1.263  0.4181 -1.8108  0.1725
  286MOL0     H38600   2.647   5.261   1.352 -0.5704 -3.7529  4.1336
  286MOL0     H38601   2.725   5.217   1.189  1.5565  0.5429  1.0360
  286MOL0     H38602   2.819   5.072   1.432  2.1711 -1.0338  0.4922
  286MOL0     H38603   2.887   5.230   1.404 -0.8521 -1.3112  4.1864
  286MOL0     H38604   2.904   4.959   1.264  1.4160 -0.4257  0.4987
  286MOL0     H38605   2.913   5.102   1.156  1.8518  1.5142  0.2196
  286MOL0     H38606   3.288   5.136   1.307  0.2532 -1.8298  0.1516
  286MOL0     H38607   2.430   4.881   1.216  2.3216  0.5056  1.1550
  286MOL0     H38608   2.122   4.728   1.185  0.6595  5.0707  1.5953
  286MOL0     H38609   2.276   4.736   1.101 -1.1039 -0.0651 -0.2565
  286MOL0     H38610   2.230   4.590   1.199 -1.7595 -0.2539  1.2618
  287MOL0     O38611  11.278  10.974  10.647  0.2342  0.3081  0.4977
  287MOL0     C38612  11.167  10.953  10.590  0.8693  0.8850 -0.3161
  287MOL0     O38613  11.120  11.008  10.475 -1.2000 -0.7864  1.1176
  287MOL0     C38614  11.155  11.139  10.442  0.9363 -0.2233  0.3037
  287MOL0     C38615  11.116  11.173  10.313 -0.4925 -0.2959 -0.0485
  287MOL0     C38616  11.157  11.301  10.265 -1.3333  0.4505  1.0950
  287MOL0     C38617  11.230  11.386  10.344  0.2530 -1.2504 -0.3321
  287MOL0     O38618  11.257  11.515  10.304  0.0785  0.0886 -0.0220
  287MOL0     C38619  11.357  11.535  10.210 -1.6202 -0.8569 -0.6923
  287MOL0     C38620  11.305  11.516  10.066 -0.1976 -0.7166  0.1182
  287MOL0     C38621  11.386  11.595   9.962 -0.6289  0.5402 -0.6523
  287MOL0     C38622  11.541  11.546   9.952 -0.5800  0.2299  0.3801
  287MOL0     C38623  11.629  11.635   9.855  0.1987  0.3882 -0.5717
  287MOL0     C38624  11.577  11.663   9.712 -0.7283 -0.8955 -0.2309
  287MOL0     C38625  11.682  11.743   9.634 -0.0701 -0.0802 -0.6318
  287MOL0     C38626  11.702  11.897   9.683 -0.2610  0.7316 -0.4350
  287MOL0     N38627  11.842  11.938   9.664 -0.2644  1.3127  0.7272
  287MOL0     C38628  11.888  12.030   9.572  0.7144  0.5544 -0.8377
  287MOL0     C38629  12.015  12.035   9.597 -1.0694  0.1653  0.7295
  287MOL0     C38630  12.130  12.119   9.536  0.3172 -0.4207 -0.3193
  287MOL0     C38631  12.130  12.259   9.611  0.3259  0.1268  0.1652
  287MOL0     C38632  12.220  12.349   9.534  0.8895 -0.0969  0.5656
  287MOL0     C38633  12.237  12.484   9.596  0.6604 -0.8598 -0.3641
  287MOL0     O38634  12.124  12.575   9.569 -0.3096  0.3880  0.7539
  287MOL0     C38635  12.101  12.676   9.654 -0.3915  0.0587  0.0929
  287MOL0     C38636  12.096  12.639   9.792 -0.0023 -1.7888 -0.1967
  287MOL0     C38637  12.065  12.731   9.900  0.0874 -0.5686 -0.8515
  287MOL0     C38638  12.052  12.870   9.856  0.6519 -1.1089 -0.2354
  287MOL0     C38639  12.015  12.978   9.945 -0.2355 -0.0396  0.1912
  287MOL0     O38640  11.977  13.094   9.902  0.3086 -0.5036 -0.5961
  287MOL0     C38641  11.936  13.185  10.002 -0.0887  0.2784 -0.2372
  287MOL0     C38642  12.027  13.239  10.091  0.4579  0.1929  0.0274
  287MOL0     C38643  11.995  13.344  10.182  0.2303 -0.6001 -0.6996
  287MOL0     C38644  11.854  13.383  10.187 -0.8623 -0.3357  0.3356
  287MOL0     O38645  11.814  13.485  10.272  0.5068 -0.9164  0.6964
  287MOL0     C38646  11.888  13.501  10.397 -0.0219  0.5824 -0.3184
  287MOL0     C38647  11.803  13.589  10.501  0.5515  0.5809  0.1497
  287MOL0     C38648  11.874  13.618  10.629 -0.8717  0.2909 -0.9452
  287MOL0     C38649  11.779  13.662  10.736 -0.7500 -0.4608  0.0957
  287MOL0     C38650  11.694  13.791  10.694  0.3980 -0.5558  0.3417
  287MOL0     C38651  11.779  13.906  10.633  0.0584  0.4614 -1.2636
  287MOL0     C38652  11.676  14.018  10.619 -0.2206 -0.2672  0.0691
  287MOL0     C38653  11.739  14.154  10.606 -0.5722  0.2116 -0.0894
  287MOL0    Cl38654  11.612  14.277  10.570  0.7775 -0.2808  0.2167
  287MOL0     C38655  11.761  13.328  10.094 -0.1970  0.2631 -0.0494
  287MOL0     C38656  11.808  13.225  10.008 -0.2698 -0.1852 -0.9711
  287MOL0     O38657  12.007  12.940  10.060  0.7028  0.0935 -0.1984
  287MOL0     C38658  12.047  12.901   9.724  0.6484 -0.2722  0.8099
  287MOL0     C38659  12.082  12.812   9.616  0.3593  1.1221  0.2362
  287MOL0     N38660  12.059  11.946   9.691 -0.0207 -0.1910 -0.0820
  287MOL0     N38661  11.952  11.896   9.728  0.8888 -0.0769 -1.0964
  287MOL0     C38662  11.252  11.360  10.481  0.6507 -0.0840 -0.1879
  287MOL0     C38663  11.214  11.233  10.529 -0.4905  0.2204 -0.1435
  287MOL0     C38664  11.101  10.821  10.627  0.4562  0.5777 -0.7154
  287MOL0     C38665  10.978  10.790  10.562  0.0160 -0.7710 -0.4416
  287MOL0     C38666  10.916  10.662  10.568  0.1191 -0.8544 -0.3999
  287MOL0     C38667  10.967  10.566  10.649  0.1235  1.2651 -0.0836
  287MOL0     O38668  10.914  10.443  10.675  1.0759 -0.2555 -0.0972
  287MOL0     C38669  10.844  10.371  10.568 -0.2855  0.0806  1.0474
  287MOL0     C38670  10.947  10.293  10.474 -0.1123 -0.7842  0.2406
  287MOL0     C38671  10.898  10.264  10.331  0.9777 -0.0861  0.3953
  287MOL0     C38672  10.914  10.392  10.235 -0.3794 -0.0168 -0.1920
  287MOL0     C38673  10.815  10.402  10.132  0.1456 -0.1420 -0.6104
  287MOL0     C38674  10.749  10.416  10.036  0.3199  0.0674 -0.0242
  287MOL0     C38675  11.087  10.595  10.727  1.5663  1.0993  0.5234
  287MOL0     C38676  11.152  10.719  10.718 -0.7120 -0.4476 -0.7718
  287MOL0     C38677  11.276  10.744  10.808 -0.3851  0.9043 -0.1887
  287MOL0     H38678  11.060  11.100  10.255  2.1627  0.3608 -3.7716
  287MOL0     H38679  11.129  11.336  10.166 -0.6202 -3.2107 -0.5472
  287MOL0     H38680  11.380  11.640  10.231 -0.1252 -1.2465 -0.3094
  287MOL0     H38681  11.439  11.467  10.233 -1.6684 -0.6693  0.0756
  287MOL0     H38682  11.199  11.542  10.069 -0.2763 -1.0994  1.4720
  287MOL0     H38683  11.295  11.410  10.041  1.1976 -1.6080  2.8811
  287MOL0     H38684  11.402  11.700   9.987 -1.6043  0.7204 -0.7531
  287MOL0     H38685  11.327  11.584   9.870  0.1695  0.8784 -1.2210
  287MOL0     H38686  11.580  11.558  10.054 -1.2611  1.8345  0.4783
  287MOL0     H38687  11.527  11.442   9.920 -4.7167  0.6261  0.3258
  287MOL0     H38688  11.633  11.724   9.917 -2.1492 -0.9079  1.6399
  287MOL0     H38689  11.727  11.593   9.833  0.7981  1.6166 -0.3462
  287MOL0     H38690  11.547  11.571   9.662 -1.2101 -0.5815 -0.5300
  287MOL0     H38691  11.481  11.715   9.710 -1.4972 -2.2865 -1.4176
  287MOL0     H38692  11.643  11.757   9.532 -0.0655  1.5641 -0.4439
  287MOL0     H38693  11.779  11.695   9.621  2.4348  4.4665 -0.6391
  287MOL0     H38694  11.631  11.953   9.622  1.2749 -0.0916 -3.1722
  287MOL0     H38695  11.687  11.906   9.791 -3.2581 -0.1379 -0.6817
  287MOL0     H38696  11.826  12.091   9.508  0.0361  0.2922 -0.4431
  287MOL0     H38697  12.222  12.061   9.542 -0.2128 -1.2672 -0.2945
  287MOL0     H38698  12.103  12.154   9.436 -0.0387  4.4614  1.2171
  287MOL0     H38699  12.033  12.309   9.628  1.2375  2.8283 -1.8828
  287MOL0     H38700  12.174  12.245   9.710  0.9087 -3.5452 -0.5025
  287MOL0     H38701  12.195  12.368   9.429 -0.2712  0.1746  0.8864
  287MOL0     H38702  12.320  12.305   9.543  1.6504  1.1856 -1.0132
  287MOL0     H38703  12.328  12.523   9.550  0.4328 -2.1284 -2.0034
  287MOL0     H38704  12.275  12.471   9.698 -2.5148 -1.5747  0.8398
  287MOL0     H38705  12.101  12.534   9.819 -1.8702 -1.4853  1.5265
  287MOL0     H38706  12.055  12.715  10.007  0.5521  1.8265 -0.3864
  287MOL0     H38707  12.132  13.209  10.098 -0.0905 -1.7704  0.5124
  287MOL0     H38708  12.073  13.393  10.239  0.2556  0.8822 -1.9270
  287MOL0     H38709  11.913  13.403  10.439  3.8807  1.2569 -0.6782
  287MOL0     H38710  11.985  13.548  10.377  0.4818 -1.4762 -3.5533
  287MOL0     H38711  11.774  13.683  10.453  1.9771  0.9972  0.0466
  287MOL0     H38712  11.709  13.534  10.509  1.3646 -0.7942  0.5190
  287MOL0     H38713  11.929  13.529  10.659 -1.4164  0.5060  0.7757
  287MOL0     H38714  11.945  13.701  10.620  0.1025 -0.1462  1.8392
  287MOL0     H38715  11.835  13.690  10.826 -0.6218 -0.2021 -0.0656
  287MOL0     H38716  11.725  13.568  10.754 -2.5135 -0.0915 -2.7525
  287MOL0     H38717  11.638  13.815  10.785 -2.5906 -2.1512 -0.9264
  287MOL0     H38718  11.619  13.755  10.622 -0.4516 -0.7983  1.3127
  287MOL0     H38719  11.854  13.923  10.711  0.3612 -1.1018 -1.1956
  287MOL0     H38720  11.825  13.881  10.537 -0.8561 -0.0287 -1.5891
  287MOL0     H38721  11.600  14.031  10.696  0.6316  4.4168  0.4291
  287MOL0     H38722  11.625  13.995  10.525 -2.4839  1.1844  0.8471
  287MOL0     H38723  11.784  14.171  10.704 -0.3102 -1.2191  0.0494
  287MOL0     H38724  11.814  14.159  10.527 -1.2823  1.7543 -0.7161
  287MOL0     H38725  11.659  13.364  10.086  0.0271  0.9341  0.0325
  287MOL0     H38726  11.731  13.182   9.944  0.1216 -2.1366 -0.1841
  287MOL0     H38727  12.029  13.005   9.696 -0.2501 -0.1884  1.6474
  287MOL0     H38728  12.074  12.847   9.514 -2.6358 -2.1793 -0.8517
  287MOL0     H38729  11.288  11.442  10.543  1.0372  0.3179 -0.9335
  287MOL0     H38730  11.253  11.210  10.627  1.5573 -1.7340 -1.3141
  287MOL0     H38731  10.929  10.860  10.495 -0.0605  0.5836  0.9533
  287MOL0     H38732  10.827  10.651  10.508  1.0535 -1.1803 -1.7670
  287MOL0     H38733  10.770  10.427  10.510  2.4736  0.3978 -2.4473
  287MOL0     H38734  10.773  10.303  10.617 -2.7913  1.5846 -0.2899
  287MOL0     H38735  10.978  10.200  10.523 -2.1154 -1.9392 -0.5782
  287MOL0     H38736  11.038  10.352  10.461 -1.7159  2.0206  1.0280
  287MOL0     H38737  10.790  10.243  10.336  0.8577 -0.0081 -1.3803
  287MOL0     H38738  10.950  10.173  10.301  2.2480  0.8529 -0.3015
  287MOL0     H38739  10.902  10.480  10.299  0.5006  0.3669 -0.5502
  287MOL0     H38740  11.015  10.404  10.195  0.4601 -0.0753  1.7721
  287MOL0     H38741  10.668  10.428   9.966 -0.9675  1.1036  1.5704
  287MOL0     H38742  11.129  10.513  10.785 -0.9572 -1.1405 -0.6014
  287MOL0     H38743  11.361  10.743  10.740  0.2852 -0.2962  0.6244
  287MOL0     H38744  11.272  10.842  10.857  0.9752  0.1233  1.5819
  287MOL0     H38745  11.293  10.676  10.892 -0.5072  2.3645  1.0478
  288MOL0     O38746   7.220   7.407   9.149 -0.6627  0.7073  0.5900
  288MOL0     C38747   7.146   7.354   9.065  0.2658 -0.7154 -0.3419
  288MOL0     O38748   7.013   7.398   9.039 -0.2026 -0.2846  0.1799
  288MOL0     C38749   6.976   7.520   9.100 -0.8322  0.3446 -0.9595
  288MOL0     C38750   6.940   7.542   9.234  0.0981  1.1613 -0.8522
  288MOL0     C38751   6.929   7.668   9.289 -0.2212 -0.9886 -0.0493
  288MOL0     C38752   6.937   7.784   9.208 -1.5328  0.3474 -0.2856
  288MOL0     O38753   6.918   7.908   9.270  1.0706 -0.0853  0.4942
  288MOL0     C38754   6.908   8.029   9.184 -0.3373  0.9774 -0.0614
  288MOL0     C38755   6.940   8.162   9.255  1.1508 -0.1840  0.5271
  288MOL0     C38756   7.087   8.182   9.298  0.4718  0.1700 -0.2754
  288MOL0     C38757   7.117   8.316   9.369  0.1441  0.0695 -0.7796
  288MOL0     C38758   7.255   8.322   9.439  0.3519  0.9693  0.5813
  288MOL0     C38759   7.381   8.296   9.358  0.2869 -0.7846  0.4162
  288MOL0     C38760   7.474   8.411   9.349  0.0813  0.8234  0.1137
  288MOL0     C38761   7.424   8.542   9.283  0.5491  0.0720 -0.1483
  288MOL0     N38762   7.416   8.524   9.134  0.5141 -0.0128  0.2299
  288MOL0     C38763   7.527   8.509   9.059 -0.9599 -0.3641 -0.7091
  288MOL0     C38764   7.480   8.463   8.936  0.7838 -0.5138 -0.2576
  288MOL0     C38765   7.565   8.411   8.820  0.7679 -0.7046  0.2273
  288MOL0     C38766   7.490   8.419   8.693  1.1286  0.2358  0.1832
  288MOL0     C38767   7.593   8.378   8.588 -0.5274 -0.2749 -0.1314
  288MOL0     C38768   7.546   8.413   8.449  0.2250  0.8993  0.4568
  288MOL0     O38769   7.422   8.340   8.420  0.1604  0.2028  0.5039
  288MOL0     C38770   7.431   8.210   8.365  0.3318  0.6500 -0.1920
  288MOL0     C38771   7.551   8.138   8.362  0.1656  0.0454 -0.8663
  288MOL0     C38772   7.554   8.015   8.293  0.6053  0.5536 -0.1772
  288MOL0     C38773   7.447   7.959   8.229 -0.9300 -0.7659  0.3172
  288MOL0     C38774   7.465   7.829   8.157  0.2900 -0.3520  0.3117
  288MOL0     O38775   7.568   7.751   8.196 -0.0232  0.3977  0.2687
  288MOL0     C38776   7.577   7.615   8.177 -0.1466 -0.3924  0.7641
  288MOL0     C38777   7.664   7.547   8.258  0.3810  0.4882 -0.4715
  288MOL0     C38778   7.683   7.410   8.240  0.1664  0.3402 -0.2816
  288MOL0     C38779   7.620   7.331   8.141 -0.2304 -0.0933 -0.1573
  288MOL0     O38780   7.661   7.207   8.115  0.4347  0.5155  0.0586
  288MOL0     C38781   7.735   7.190   7.984  0.2545 -0.6003 -0.2362
  288MOL0     C38782   7.886   7.215   7.993  0.4170 -0.1081 -0.1032
  288MOL0     C38783   7.946   7.113   8.088 -0.9185  1.2453  0.1946
  288MOL0     C38784   8.099   7.114   8.096 -0.1351  0.3235 -0.1680
  288MOL0     C38785   8.149   7.193   8.211 -0.6924  0.3936 -0.0466
  288MOL0     C38786   8.134   7.117   8.351  0.0340  0.5250  0.2278
  288MOL0     C38787   8.170   7.206   8.461  0.0512 -0.2540  0.0183
  288MOL0     C38788   8.218   7.145   8.593 -0.9829 -0.1034  0.3483
  288MOL0    Cl38789   8.392   7.105   8.585  0.0112 -0.0860 -0.3235
  288MOL0     C38790   7.524   7.401   8.071 -0.1156 -0.2999  0.6174
  288MOL0     C38791   7.506   7.537   8.080 -0.4663 -0.0393 -0.0598
  288MOL0     O38792   7.390   7.806   8.069 -0.2283  0.2818 -0.1838
  288MOL0     C38793   7.322   8.034   8.218  0.2196 -0.1858  0.1463
  288MOL0     C38794   7.326   8.157   8.284  0.4398 -0.4384 -0.4739
  288MOL0     N38795   7.346   8.445   8.950 -0.0048  0.0155 -0.8739
  288MOL0     N38796   7.304   8.486   9.070 -0.2139  0.2565  0.6084
  288MOL0     C38797   6.979   7.772   9.074  0.1758  0.4173 -0.6230
  288MOL0     C38798   7.008   7.640   9.028  0.0341 -0.0842  0.7638
  288MOL0     C38799   7.199   7.242   8.994 -0.1407  0.9211 -0.4510
  288MOL0     C38800   7.111   7.141   8.964  0.5136  0.4521  0.4806
  288MOL0     C38801   7.149   7.032   8.897 -0.6095  0.5397  0.3011
  288MOL0     C38802   7.288   7.007   8.874  0.1778  0.8108 -0.2201
  288MOL0     O38803   7.320   6.885   8.827  0.4769 -0.3601 -0.0961
  288MOL0     C38804   7.449   6.830   8.873 -0.0150 -0.3382  1.1328
  288MOL0     C38805   7.442   6.768   9.013 -0.2986  0.5848  0.3810
  288MOL0     C38806   7.561   6.673   9.033  0.7228 -0.4549 -1.0603
  288MOL0     C38807   7.576   6.669   9.188 -0.8155  0.0836  0.4597
  288MOL0     C38808   7.672   6.558   9.204 -0.2242 -1.0327  0.9756
  288MOL0     C38809   7.728   6.452   9.196 -0.1727 -0.1589 -0.5946
  288MOL0     C38810   7.374   7.118   8.887  0.3807  0.2647 -0.7355
  288MOL0     C38811   7.331   7.239   8.944 -0.2821 -0.1665 -0.8604
  288MOL0     C38812   7.428   7.352   8.966  0.9364 -0.5377  0.2740
  288MOL0     H38813   6.934   7.459   9.303 -1.7592  0.5072 -1.7541
  288MOL0     H38814   6.907   7.674   9.395  1.3609 -0.8434  0.2948
  288MOL0     H38815   6.985   8.031   9.107  0.1780 -0.8964  0.3605
  288MOL0     H38816   6.806   8.029   9.146 -1.3460  2.2825  2.3702
  288MOL0     H38817   6.878   8.167   9.345 -1.2944  0.7730 -1.1277
  288MOL0     H38818   6.904   8.240   9.188 -4.9590 -1.0437  2.2732
  288MOL0     H38819   7.156   8.159   9.216 -0.2350 -1.9172 -0.3523
  288MOL0     H38820   7.111   8.112   9.379  1.3554  1.4898  0.6521
  288MOL0     H38821   7.107   8.402   9.303  1.1250 -0.5811 -1.8203
  288MOL0     H38822   7.034   8.330   9.440 -1.0696  0.3694 -2.2148
  288MOL0     H38823   7.269   8.412   9.499  2.6482 -0.5210  2.4648
  288MOL0     H38824   7.260   8.243   9.514  1.3853 -0.8628 -1.3022
  288MOL0     H38825   7.433   8.206   9.392 -0.3932 -0.3974  2.6625
  288MOL0     H38826   7.350   8.271   9.256  3.7413 -0.4109 -0.8437
  288MOL0     H38827   7.566   8.383   9.298  0.4770 -0.1467  1.3197
  288MOL0     H38828   7.501   8.436   9.452 -0.9988  1.7983  0.1794
  288MOL0     H38829   7.320   8.545   9.316  0.2589 -3.2981 -0.3970
  288MOL0     H38830   7.465   8.640   9.309  1.4067 -0.5435  0.9197
  288MOL0     H38831   7.624   8.545   9.094 -2.1936  1.3197  1.1846
  288MOL0     H38832   7.655   8.473   8.815 -2.0936  4.1485  1.1873
  288MOL0     H38833   7.585   8.306   8.840 -1.8064 -1.4309 -0.5829
  288MOL0     H38834   7.407   8.349   8.709  0.0547  1.4747  0.1967
  288MOL0     H38835   7.447   8.519   8.683 -0.5238 -0.5590 -1.2974
  288MOL0     H38836   7.610   8.272   8.608 -0.9131 -0.5716 -1.2899
  288MOL0     H38837   7.695   8.418   8.596  0.0161 -1.4944 -0.6799
  288MOL0     H38838   7.611   8.393   8.363  0.5917  5.2271 -0.4665
  288MOL0     H38839   7.530   8.520   8.436 -2.4664  0.3799 -1.4445
  288MOL0     H38840   7.636   8.167   8.423 -0.5527 -0.0198  0.1976
  288MOL0     H38841   7.646   7.958   8.299 -0.7926 -2.4048 -3.3186
  288MOL0     H38842   7.733   7.595   8.326 -1.6854  0.6449  1.6543
  288MOL0     H38843   7.762   7.373   8.304  1.3947 -0.7846 -2.3363
  288MOL0     H38844   7.718   7.090   7.942  1.6186 -0.4631 -1.1694
  288MOL0     H38845   7.698   7.261   7.910  2.2877  0.1351 -0.6151
  288MOL0     H38846   7.934   7.203   7.895 -0.8649 -1.1438 -0.6344
  288MOL0     H38847   7.903   7.314   8.036 -1.9266  1.0339 -1.5732
  288MOL0     H38848   7.908   7.122   8.190 -1.5802  1.0530 -0.0277
  288MOL0     H38849   7.918   7.016   8.045  0.1102  1.4548 -0.9722
  288MOL0     H38850   8.138   7.147   7.999  0.9054  1.4163  0.5904
  288MOL0     H38851   8.134   7.012   8.115 -0.5976 -0.2706 -2.2870
  288MOL0     H38852   8.093   7.287   8.217 -0.3076  0.6082  0.1945
  288MOL0     H38853   8.254   7.222   8.203 -0.5446  0.1288  0.7948
  288MOL0     H38854   8.032   7.081   8.372 -1.3601  4.3769  0.9537
  288MOL0     H38855   8.203   7.034   8.333 -0.1007  0.8243 -2.0275
  288MOL0     H38856   8.085   7.270   8.485 -0.3150 -0.6291 -0.2581
  288MOL0     H38857   8.254   7.266   8.425 -0.7176 -0.1484 -1.6410
  288MOL0     H38858   8.206   7.216   8.676  2.6665  2.1293 -0.8132
  288MOL0     H38859   8.157   7.055   8.609 -2.1070  0.2385 -1.6706
  288MOL0     H38860   7.472   7.358   7.986 -2.0280  1.3446  0.8880
  288MOL0     H38861   7.447   7.571   7.995 -0.5208  0.5767  0.2140
  288MOL0     H38862   7.230   8.001   8.172  0.6641  0.0273 -0.9244
  288MOL0     H38863   7.234   8.213   8.297  0.6592  0.2491 -1.6888
  288MOL0     H38864   7.009   7.854   9.010  1.6417  0.7517  0.4310
  288MOL0     H38865   7.056   7.629   8.931 -0.4580  0.9401  0.3946
  288MOL0     H38866   7.010   7.156   9.000  0.0007 -2.4042  0.4551
  288MOL0     H38867   7.071   6.957   8.889  1.9370 -2.3069  0.5337
  288MOL0     H38868   7.530   6.902   8.861 -2.2565  2.1365 -0.2620
  288MOL0     H38869   7.487   6.754   8.804 -1.4737 -1.5892  1.6318
  288MOL0     H38870   7.349   6.715   9.033  0.7893 -2.3274 -1.6722
  288MOL0     H38871   7.451   6.843   9.093  2.2293  0.5412  0.2248
  288MOL0     H38872   7.649   6.705   8.977  2.2913 -3.7245 -0.6926
  288MOL0     H38873   7.531   6.575   8.994  0.3715 -0.7382 -0.1082
  288MOL0     H38874   7.625   6.757   9.232  1.4773 -1.1795  0.5691
  288MOL0     H38875   7.486   6.638   9.242  0.2057 -2.9448  0.5673
  288MOL0     H38876   7.778   6.358   9.182 -0.4128 -0.1214 -1.8720
  288MOL0     H38877   7.477   7.106   8.854  0.7513 -0.3717  0.5877
  288MOL0     H38878   7.451   7.376   9.070  2.2761 -0.1124 -0.1001
  288MOL0     H38879   7.518   7.323   8.910  0.5819  0.4008 -0.7987
  288MOL0     H38880   7.393   7.442   8.916  0.4020  0.5221  2.4528
  289MOL0     O38881   1.646   9.726   3.518  0.0225 -0.0164  0.8733
  289MOL0     C38882   1.570   9.633   3.512 -0.3042 -0.4495  0.8820
  289MOL0     O38883   1.612   9.503   3.529 -0.7232  0.7264  0.3576
  289MOL0     C38884   1.749   9.466   3.537  0.0818 -0.3616  0.5685
  289MOL0     C38885   1.838   9.530   3.627  0.1928 -0.3805 -0.2303
  289MOL0     C38886   1.975   9.503   3.624  0.2616 -0.7051  0.0009
  289MOL0     C38887   2.028   9.418   3.522 -0.1613  0.3693 -0.5954
  289MOL0     O38888   2.159   9.391   3.505  0.0999  0.1242 -0.2534
  289MOL0     C38889   2.247   9.356   3.617  0.6206  0.9868  0.0722
  289MOL0     C38890   2.267   9.204   3.610 -0.4749  0.2708  0.3442
  289MOL0     C38891   2.354   9.177   3.495 -0.4494  0.7814 -1.0489
  289MOL0     C38892   2.407   9.029   3.513 -0.5798  0.0905 -0.1576
  289MOL0     C38893   2.542   9.022   3.437  0.2596  0.4075  0.0644
  289MOL0     C38894   2.587   8.877   3.405  0.3723 -0.7814 -0.0577
  289MOL0     C38895   2.587   8.778   3.523 -0.7365 -0.9188  0.2232
  289MOL0     C38896   2.706   8.693   3.528  0.0175 -0.1962  0.2277
  289MOL0     N38897   2.715   8.602   3.416 -0.7726  0.0132  0.0866
  289MOL0     C38898   2.655   8.482   3.417  0.0498  0.2828  0.2960
  289MOL0     C38899   2.743   8.392   3.356  0.3686 -0.4324 -0.2828
  289MOL0     C38900   2.754   8.246   3.338 -0.4985 -0.3817 -0.2727
  289MOL0     C38901   2.878   8.181   3.402 -0.7302 -0.1021 -0.0161
  289MOL0     C38902   2.888   8.223   3.556 -0.5117  0.5737  0.0709
  289MOL0     C38903   3.000   8.135   3.624  0.6594  0.0593 -1.1934
  289MOL0     O38904   3.049   8.193   3.745 -0.5484 -0.4383  0.1126
  289MOL0     C38905   3.165   8.150   3.809 -0.2424  0.6153  0.5359
  289MOL0     C38906   3.261   8.236   3.866  0.3441  0.5505  1.3374
  289MOL0     C38907   3.389   8.203   3.918  0.4309  0.5606  0.5262
  289MOL0     C38908   3.416   8.062   3.919  0.2233  0.1002 -0.4540
  289MOL0     C38909   3.546   8.010   3.956 -0.2621  0.0403 -0.8963
  289MOL0     O38910   3.585   7.893   3.915 -0.2166  0.7747 -0.7555
  289MOL0     C38911   3.713   7.850   3.920  0.7140  0.4547  0.7565
  289MOL0     C38912   3.735   7.721   3.889 -0.7244 -0.0252  0.6642
  289MOL0     C38913   3.855   7.657   3.883 -1.2254 -0.1264  0.7795
  289MOL0     C38914   3.967   7.734   3.908 -0.4999  0.5245 -0.0805
  289MOL0     O38915   4.090   7.662   3.910  0.7675 -0.4972 -0.4325
  289MOL0     C38916   4.184   7.711   4.011  0.2968 -1.1610  1.0350
  289MOL0     C38917   4.300   7.622   4.014 -0.4681  1.4982  0.6779
  289MOL0     C38918   4.413   7.681   4.102 -0.5548 -0.1671  1.0442
  289MOL0     C38919   4.516   7.574   4.151  0.1689 -0.7006 -0.3437
  289MOL0     C38920   4.621   7.629   4.246  0.5593 -0.0344 -0.5202
  289MOL0     C38921   4.725   7.725   4.179  0.7778 -0.6183  0.5834
  289MOL0     C38922   4.802   7.665   4.067 -0.1826  0.7249  0.7550
  289MOL0     C38923   4.935   7.740   4.030  0.3644 -0.6538  0.1086
  289MOL0    Cl38924   5.056   7.627   3.976 -0.2168  0.3242  0.3997
  289MOL0     C38925   3.950   7.867   3.949  0.1983 -0.6219  1.4845
  289MOL0     C38926   3.831   7.926   3.942  0.1646  0.2038  0.7423
  289MOL0     O38927   3.618   8.092   4.021 -0.3454  0.4134  0.2911
  289MOL0     C38928   3.323   7.976   3.858 -0.1472  0.2875  0.0188
  289MOL0     C38929   3.202   8.016   3.809  0.8400 -0.5068 -0.3672
  289MOL0     N38930   2.862   8.470   3.328  0.2474 -0.1851 -0.7701
  289MOL0     N38931   2.844   8.595   3.366 -0.4046 -0.6346  0.1192
  289MOL0     C38932   1.939   9.343   3.442 -0.3199 -0.4423 -0.1185
  289MOL0     C38933   1.805   9.374   3.448 -0.2333  0.2209  0.3740
  289MOL0     C38934   1.433   9.659   3.460 -0.7141  0.3821 -0.1701
  289MOL0     C38935   1.336   9.572   3.519  0.2939  0.3496  0.0121
  289MOL0     C38936   1.200   9.597   3.482 -0.4273 -0.2849 -1.3534
  289MOL0     C38937   1.163   9.699   3.395 -0.0068 -0.3694 -0.2105
  289MOL0     O38938   1.028   9.720   3.394  0.3398 -0.2425 -0.1339
  289MOL0     C38939   0.978   9.840   3.323  0.5258 -0.4360  0.1412
  289MOL0     C38940   0.934   9.799   3.181  0.0270 -0.8927 -0.0606
  289MOL0     C38941   0.856   9.932   3.151 -0.2839  0.1462  0.3830
  289MOL0     C38942   0.845   9.950   2.993 -0.3497  0.3926 -0.1068
  289MOL0     C38943   0.765  10.059   2.948  0.5176  0.8093 -0.2197
  289MOL0     C38944   0.674  10.122   2.898 -0.1678  0.6064  0.4821
  289MOL0     C38945   1.261   9.774   3.330 -0.3399  0.5579  0.3597
  289MOL0     C38946   1.395   9.743   3.357  0.5088  0.3834  0.2919
  289MOL0     C38947   1.492   9.806   3.257  0.0032 -0.3045  0.3334
  289MOL0     H38948   1.785   9.574   3.711  0.8535 -0.9467  0.5051
  289MOL0     H38949   2.051   9.549   3.687  0.0867  0.0434 -0.3197
  289MOL0     H38950   2.341   9.413   3.615  0.0949  1.8997  0.7494
  289MOL0     H38951   2.200   9.375   3.714  1.0850  1.1707  0.2657
  289MOL0     H38952   2.176   9.143   3.610 -0.1055 -0.2987  1.2869
  289MOL0     H38953   2.315   9.165   3.700  4.2830  1.6781 -1.2970
  289MOL0     H38954   2.439   9.244   3.516  0.3278 -0.7900  1.2884
  289MOL0     H38955   2.310   9.203   3.399  0.0894 -0.2293 -1.5785
  289MOL0     H38956   2.404   9.003   3.619 -2.6373 -1.7545 -0.5934
  289MOL0     H38957   2.337   8.959   3.466  2.5681 -2.3662 -1.5575
  289MOL0     H38958   2.544   9.079   3.343 -2.0409 -0.5516 -0.6379
  289MOL0     H38959   2.623   9.057   3.501  1.2049  0.2876 -1.0336
  289MOL0     H38960   2.520   8.838   3.327  3.5560 -0.5545 -3.1925
  289MOL0     H38961   2.686   8.902   3.367 -0.2136 -2.1622 -2.7555
  289MOL0     H38962   2.495   8.719   3.531 -1.0162 -0.5771 -0.4085
  289MOL0     H38963   2.595   8.836   3.615 -0.1605 -4.4663  2.6041
  289MOL0     H38964   2.789   8.763   3.515  1.5572 -2.1850 -1.0444
  289MOL0     H38965   2.713   8.641   3.624 -0.4661  2.0660  1.5838
  289MOL0     H38966   2.558   8.458   3.460 -0.2228  1.2688  0.2742
  289MOL0     H38967   2.674   8.184   3.380 -0.9330  1.2905  1.4770
  289MOL0     H38968   2.781   8.224   3.234  0.0041  0.9848 -0.4480
  289MOL0     H38969   2.877   8.072   3.395  1.2379 -0.1296 -0.3158
  289MOL0     H38970   2.971   8.201   3.348 -1.2415  0.8417 -0.5877
  289MOL0     H38971   2.791   8.206   3.603 -0.9986 -3.2026 -1.9608
  289MOL0     H38972   2.918   8.328   3.564  1.1926  0.0314  1.6147
  289MOL0     H38973   3.067   8.090   3.550 -0.9998 -2.8317 -1.0752
  289MOL0     H38974   2.941   8.053   3.666  2.4191 -0.6506  0.0412
  289MOL0     H38975   3.253   8.344   3.856  0.3692  0.4169 -0.4455
  289MOL0     H38976   3.466   8.275   3.944  2.3700 -1.3102  0.2785
  289MOL0     H38977   3.656   7.663   3.841 -1.4143  4.3684 -4.5857
  289MOL0     H38978   3.864   7.554   3.848  0.4100  0.3518 -0.2842
  289MOL0     H38979   4.211   7.813   3.982 -2.1523 -0.6991  0.0667
  289MOL0     H38980   4.148   7.720   4.114  1.2010 -0.7294  1.3235
  289MOL0     H38981   4.272   7.520   4.039  4.6556 -1.0275 -2.3011
  289MOL0     H38982   4.332   7.610   3.910 -1.4368  2.3311  0.2583
  289MOL0     H38983   4.464   7.752   4.036 -2.4326  0.1667 -0.1268
  289MOL0     H38984   4.367   7.733   4.187  0.3826  0.2710  1.3009
  289MOL0     H38985   4.558   7.512   4.072 -1.2909 -4.7043  1.7140
  289MOL0     H38986   4.462   7.500   4.212  1.2476 -0.7395  0.5778
  289MOL0     H38987   4.683   7.548   4.285 -0.7524  0.0317  1.8348
  289MOL0     H38988   4.572   7.671   4.334 -3.3152 -2.9105 -1.0784
  289MOL0     H38989   4.669   7.807   4.132 -0.0944 -1.7593 -0.4010
  289MOL0     H38990   4.792   7.768   4.254 -0.3071  3.2788 -0.4515
  289MOL0     H38991   4.734   7.667   3.981  1.6162 -0.9275 -0.8032
  289MOL0     H38992   4.824   7.561   4.094  3.1004  1.3525  0.9700
  289MOL0     H38993   4.922   7.819   3.954  1.1013  3.8674  4.1733
  289MOL0     H38994   4.984   7.802   4.106 -1.3465  2.7142 -1.3167
  289MOL0     H38995   4.031   7.931   3.984 -0.3960  1.1901 -0.2914
  289MOL0     H38996   3.820   8.030   3.972  1.1213  0.9383 -1.3002
  289MOL0     H38997   3.343   7.869   3.850 -3.9096 -0.5735  0.3043
  289MOL0     H38998   3.132   7.949   3.759  1.0515 -0.3282 -0.9043
  289MOL0     H38999   1.971   9.272   3.366 -0.6510 -3.2052  2.1409
  289MOL0     H39000   1.732   9.334   3.377  0.1522 -0.0662  0.1354
  289MOL0     H39001   1.362   9.496   3.591  0.1535  0.3045  0.0160
  289MOL0     H39002   1.120   9.536   3.522  0.8274 -0.5010  0.9526
  289MOL0     H39003   1.048   9.924   3.332 -0.2529  0.3795 -1.1207
  289MOL0     H39004   0.887   9.874   3.373  0.3419 -0.3840 -0.2236
  289MOL0     H39005   0.879   9.705   3.190 -0.2542 -0.6946  0.3396
  289MOL0     H39006   1.013   9.774   3.110 -1.3422 -3.1109 -0.9327
  289MOL0     H39007   0.901  10.024   3.191 -1.2537 -0.5749  3.4359
  289MOL0     H39008   0.754   9.918   3.189 -2.3218 -1.2851 -4.7943
  289MOL0     H39009   0.943   9.970   2.951 -0.0455 -3.5769 -1.7313
  289MOL0     H39010   0.818   9.853   2.949  0.0219 -1.4080  3.2663
  289MOL0     H39011   0.594  10.173   2.849  0.8381  0.4183 -1.4259
  289MOL0     H39012   1.231   9.851   3.260  1.8106 -2.0685 -3.8013
  289MOL0     H39013   1.596   9.801   3.288  0.8560 -0.7531 -2.3149
  289MOL0     H39014   1.474   9.764   3.157 -2.8294 -3.2413  1.8703
  289MOL0     H39015   1.473   9.914   3.254  2.1567  0.1377  0.8061
  290MOL0     O39016   5.052   6.914   9.165  0.3518  0.1878  0.1079
  290MOL0     C39017   5.171   6.888   9.150  0.1147  0.0978 -0.2810
  290MOL0     O39018   5.236   6.789   9.219  0.5219 -0.6258 -0.3720
  290MOL0     C39019   5.171   6.676   9.271  0.0884  0.1482 -0.2591
  290MOL0     C39020   5.158   6.662   9.411  0.2055 -0.3540  0.2986
  290MOL0     C39021   5.097   6.546   9.466 -0.7669  0.0874  0.0461
  290MOL0     C39022   5.059   6.438   9.387 -1.4053 -0.5398  0.1010
  290MOL0     O39023   4.982   6.334   9.427 -0.5137  0.0104 -0.1776
  290MOL0     C39024   4.994   6.204   9.372 -0.2961  0.3077 -0.0085
  290MOL0     C39025   5.039   6.095   9.470  0.1533  0.0534  0.2381
  290MOL0     C39026   4.985   6.099   9.610  0.4224  0.8723  0.3607
  290MOL0     C39027   4.834   6.055   9.595 -1.0647  0.4529 -0.2472
  290MOL0     C39028   4.752   6.077   9.721  0.9122  0.1107 -0.2876
  290MOL0     C39029   4.603   6.043   9.701  0.5561  1.3622 -1.2604
  290MOL0     C39030   4.566   5.895   9.704 -0.0263 -0.1246  0.5959
  290MOL0     C39031   4.409   5.860   9.681 -0.2390  0.4492  0.9170
  290MOL0     N39032   4.337   5.910   9.800  0.2818  0.1873 -0.2173
  290MOL0     C39033   4.282   5.842   9.908  0.1430  0.5910  0.0113
  290MOL0     C39034   4.222   5.943   9.978 -0.0430  0.0696 -0.7896
  290MOL0     C39035   4.129   5.912  10.102  0.2017 -0.0459 -0.0839
  290MOL0     C39036   4.209   5.866  10.216 -0.1037  0.1976 -0.2506
  290MOL0     C39037   4.122   5.860  10.346  0.1071 -0.0264 -0.1432
  290MOL0     C39038   4.203   5.815  10.466 -0.0055 -0.7050  0.3881
  290MOL0     O39039   4.273   5.688  10.456  0.0145 -0.0210 -0.1173
  290MOL0     C39040   4.409   5.678  10.439  0.0446 -0.9710 -0.7838
  290MOL0     C39041   4.499   5.783  10.474 -0.8426 -0.5600 -0.4683
  290MOL0     C39042   4.638   5.774  10.443  1.3344  0.7795 -0.2275
  290MOL0     C39043   4.692   5.658  10.389 -0.1309 -0.5123  0.5147
  290MOL0     C39044   4.833   5.646  10.346 -0.3588  0.0935  0.4616
  290MOL0     O39045   4.852   5.565  10.245 -0.7841  1.1250 -0.0693
  290MOL0     C39046   4.970   5.499  10.224  0.1206  0.0011 -0.3792
  290MOL0     C39047   5.078   5.491  10.315  0.8344 -0.0276 -0.5252
  290MOL0     C39048   5.182   5.404  10.296  0.8362 -0.0420  0.0322
  290MOL0     C39049   5.190   5.331  10.171 -0.1384 -1.2766 -0.4942
  290MOL0     O39050   5.278   5.233  10.153  0.3596 -0.0336 -0.9401
  290MOL0     C39051   5.380   5.201  10.245 -0.0501 -0.4081  0.1570
  290MOL0     C39052   5.498   5.303  10.246  0.4561  0.7878  0.9085
  290MOL0     C39053   5.602   5.241  10.334 -0.1482  0.5511  0.3152
  290MOL0     C39054   5.731   5.321  10.341  0.4168 -0.0456  0.2560
  290MOL0     C39055   5.827   5.243  10.446 -0.1865 -0.9963  0.2729
  290MOL0     C39056   5.925   5.138  10.395  0.0804 -0.6314 -0.0540
  290MOL0     C39057   6.014   5.100  10.524  1.1038 -0.5847  0.0549
  290MOL0     C39058   6.135   5.023  10.475  0.4907 -0.5183 -0.3257
  290MOL0    Cl39059   6.220   4.979  10.629 -0.2238  0.3476  0.7138
  290MOL0     C39060   5.080   5.342  10.073  1.0485  0.1199  1.1557
  290MOL0     C39061   4.981   5.429  10.108  0.8028 -0.1883  0.8432
  290MOL0     O39062   4.915   5.701  10.417 -0.5282 -0.9153  0.1824
  290MOL0     C39063   4.598   5.559  10.357  0.2278 -0.7229  0.3193
  290MOL0     C39064   4.465   5.568  10.385  0.4763  0.2053 -0.7200
  290MOL0     N39065   4.245   6.066   9.920 -0.4948 -0.3740  0.3118
  290MOL0     N39066   4.325   6.048   9.813 -0.9151  0.1778  0.5485
  290MOL0     C39067   5.083   6.451   9.245 -0.1078  0.2169 -0.8103
  290MOL0     C39068   5.129   6.570   9.189  0.1966 -0.6473 -0.0644
  290MOL0     C39069   5.264   6.975   9.067 -0.0253  0.0418  0.0533
  290MOL0     C39070   5.405   6.968   9.086  0.6748 -0.1935 -0.3858
  290MOL0     C39071   5.491   7.053   9.014 -0.6079  0.4349 -0.2276
  290MOL0     C39072   5.441   7.164   8.940 -0.0846  0.8213 -0.5361
  290MOL0     O39073   5.515   7.270   8.896 -0.9962 -1.0235  0.3769
  290MOL0     C39074   5.654   7.265   8.909 -0.1075  0.0021  1.2850
  290MOL0     C39075   5.734   7.376   8.829  0.3214 -0.4316  0.5946
  290MOL0     C39076   5.737   7.513   8.902 -0.7987  0.6242  0.8163
  290MOL0     C39077   5.748   7.633   8.810  0.2308 -0.6903 -0.1234
  290MOL0     C39078   5.630   7.654   8.724 -0.1825  0.0138 -0.1477
  290MOL0     C39079   5.517   7.672   8.673 -0.1970 -0.2897 -0.0817
  290MOL0     C39080   5.303   7.176   8.938  0.1555 -0.1331 -0.1047
  290MOL0     C39081   5.215   7.083   8.985  0.3681  0.1326 -0.0323
  290MOL0     C39082   5.067   7.101   8.957  0.5992  0.0268 -0.0246
  290MOL0     H39083   5.184   6.741   9.482 -3.3936  0.6625  0.6843
  290MOL0     H39084   5.073   6.541   9.572  0.8378 -2.8549  0.3967
  290MOL0     H39085   4.899   6.178   9.324 -1.3071  0.2375  1.9337
  290MOL0     H39086   5.067   6.194   9.292 -3.0992 -2.5813 -2.4898
  290MOL0     H39087   5.148   6.090   9.477  0.1889 -1.8295 -0.9884
  290MOL0     H39088   5.026   5.998   9.422 -2.7797  1.3350 -1.8308
  290MOL0     H39089   4.980   6.191   9.669 -0.4587  0.9665  0.1567
  290MOL0     H39090   5.041   6.022   9.664 -0.2861 -0.0807 -0.2201
  290MOL0     H39091   4.802   6.119   9.512  0.1000  0.7734 -0.4733
  290MOL0     H39092   4.840   5.950   9.564 -0.8426  0.9669 -2.0429
  290MOL0     H39093   4.789   6.029   9.812 -0.4528  3.1596  2.1077
  290MOL0     H39094   4.762   6.184   9.743  0.9911  0.6558 -2.7488
  290MOL0     H39095   4.547   6.082   9.786 -1.0713 -2.8546 -0.1139
  290MOL0     H39096   4.563   6.081   9.607 -0.8853  1.0280 -0.8056
  290MOL0     H39097   4.591   5.852   9.801  1.2057 -0.3987  0.1737
  290MOL0     H39098   4.629   5.851   9.626 -0.3740  1.3667 -0.5799
  290MOL0     H39099   4.368   5.898   9.587 -2.1321 -2.1036  0.6044
  290MOL0     H39100   4.398   5.751   9.680  0.8614  0.3357 -0.4928
  290MOL0     H39101   4.275   5.736   9.932  0.3267  0.9167  1.6069
  290MOL0     H39102   4.062   5.991  10.138  1.0503  1.5975 -1.9144
  290MOL0     H39103   4.065   5.828  10.072 -0.7118  0.5317  0.1820
  290MOL0     H39104   4.261   5.775  10.185 -0.1796 -0.2211  0.7991
  290MOL0     H39105   4.297   5.931  10.222  1.7352 -2.1345 -0.4218
  290MOL0     H39106   4.044   5.784  10.336 -1.5955  1.2519  2.3687
  290MOL0     H39107   4.063   5.951  10.357 -1.1091 -0.4272 -2.5844
  290MOL0     H39108   4.140   5.810  10.556  0.0407  3.9368  0.9273
  290MOL0     H39109   4.271   5.899  10.480 -1.0283  0.2547 -0.2024
  290MOL0     H39110   4.469   5.880  10.512 -1.2451  0.2226 -2.5943
  290MOL0     H39111   4.695   5.866  10.456 -0.0728  1.7774 -0.8992
  290MOL0     H39112   5.087   5.540  10.412  1.1194 -0.1872 -0.4680
  290MOL0     H39113   5.263   5.406  10.367  1.8621 -0.9070 -1.0628
  290MOL0     H39114   5.340   5.177  10.344  1.4389 -1.9779  0.4477
  290MOL0     H39115   5.422   5.109  10.203 -1.7669 -2.2945  2.3172
  290MOL0     H39116   5.536   5.310  10.143  0.9523 -0.9471  0.9410
  290MOL0     H39117   5.467   5.395  10.296 -0.6493  0.1454  1.4464
  290MOL0     H39118   5.562   5.227  10.435 -0.9074 -1.3949 -0.2083
  290MOL0     H39119   5.637   5.144  10.298  0.6387  0.7009  0.6724
  290MOL0     H39120   5.707   5.423  10.374 -2.4024 -0.5595  0.0434
  290MOL0     H39121   5.765   5.332  10.238 -2.1567  0.0448 -0.6622
  290MOL0     H39122   5.766   5.211  10.531  0.2243 -3.0245 -0.1413
  290MOL0     H39123   5.883   5.329  10.483 -0.4806 -0.5225 -0.3627
  290MOL0     H39124   5.867   5.056  10.350 -4.4598  1.6140  1.0949
  290MOL0     H39125   5.987   5.164  10.309 -1.2000  2.1437 -0.2474
  290MOL0     H39126   5.937   5.037  10.570 -1.2762  0.5403 -2.1140
  290MOL0     H39127   6.039   5.180  10.593 -0.5819 -0.9346  1.1316
  290MOL0     H39128   6.102   4.938  10.414  0.7758 -0.3100 -0.7768
  290MOL0     H39129   6.204   5.081  10.413  0.8347 -0.5028  0.0665
  290MOL0     H39130   5.072   5.284   9.982  0.5631 -1.3301  2.0813
  290MOL0     H39131   4.899   5.445  10.039  1.5939  0.2298 -0.0149
  290MOL0     H39132   4.615   5.475  10.291 -2.0719  1.2854 -3.1448
  290MOL0     H39133   4.408   5.482  10.352  1.8833 -1.7046  1.4879
  290MOL0     H39134   5.052   6.379   9.170 -2.3107  1.4135 -1.1400
  290MOL0     H39135   5.128   6.595   9.083  0.3844  2.3944  0.5486
  290MOL0     H39136   5.451   6.888   9.144 -1.0750 -2.7721 -2.2875
  290MOL0     H39137   5.597   7.041   9.032 -0.5826  3.0440  2.1697
  290MOL0     H39138   5.692   7.172   8.866 -2.2416 -0.6229  0.6378
  290MOL0     H39139   5.670   7.262   9.017 -1.1356  2.7908  1.6117
  290MOL0     H39140   5.697   7.394   8.728  1.0966 -3.1672 -0.2894
  290MOL0     H39141   5.838   7.341   8.826  0.2726 -0.5722  0.5087
  290MOL0     H39142   5.821   7.518   8.972 -2.0320 -0.6177  2.4757
  290MOL0     H39143   5.647   7.509   8.965  1.3218  1.2594  4.1382
  290MOL0     H39144   5.771   7.724   8.866 -0.4212  1.4081 -3.0457
  290MOL0     H39145   5.833   7.619   8.743  0.0129  1.5561 -0.9442
  290MOL0     H39146   5.433   7.698   8.612  1.2017  1.0340 -1.5144
  290MOL0     H39147   5.272   7.263   8.883 -1.6862 -0.2924  0.6191
  290MOL0     H39148   5.025   7.013   8.908  1.4762  0.2700 -1.2661
  290MOL0     H39149   5.008   7.140   9.041 -1.2203  2.8096 -2.3565
  290MOL0     H39150   5.060   7.186   8.888  2.0271 -0.4926 -0.8539
  291MOL0     O39151   0.871   9.425   5.819 -0.0051 -0.7851  0.1947
  291MOL0     C39152   0.869   9.342   5.727 -1.0810  0.4290 -0.2188
  291MOL0     O39153   0.941   9.223   5.731 -0.5046 -0.2091  0.3005
  291MOL0     C39154   1.020   9.195   5.838  1.0277  1.0060 -0.0781
  291MOL0     C39155   0.972   9.111   5.943 -1.3930 -0.2763  0.5071
  291MOL0     C39156   1.070   9.057   6.034  0.7593 -0.3095  0.1095
  291MOL0     C39157   1.204   9.085   6.026  0.2634  0.3278 -0.0889
  291MOL0     O39158   1.305   9.046   6.112  0.3073  0.3407  0.0033
  291MOL0     C39159   1.278   9.021   6.252  0.3772 -0.3934  0.2624
  291MOL0     C39160   1.320   8.879   6.278  0.1940 -0.2540  0.1176
  291MOL0     C39161   1.299   8.841   6.423 -0.5061 -0.6067 -1.0647
  291MOL0     C39162   1.154   8.830   6.457 -0.0810 -0.6520  1.0337
  291MOL0     C39163   1.110   8.739   6.569  0.3344 -0.0772 -0.4252
  291MOL0     C39164   1.190   8.766   6.694 -0.0031  0.0271 -0.1649
  291MOL0     C39165   1.141   8.691   6.822 -0.7104 -0.0047  0.1147
  291MOL0     C39166   1.263   8.671   6.904 -0.7976  0.8424 -0.8201
  291MOL0     N39167   1.242   8.607   7.038 -0.1159  0.2312  0.5957
  291MOL0     C39168   1.147   8.655   7.123 -0.3015  0.6437 -0.7760
  291MOL0     C39169   1.158   8.563   7.224  0.3938  0.0696 -0.1789
  291MOL0     C39170   1.075   8.587   7.345 -0.7144  0.0443  0.1567
  291MOL0     C39171   1.046   8.471   7.438 -1.4159 -0.9593  0.3498
  291MOL0     C39172   0.932   8.488   7.537 -0.5526 -0.0202  0.7968
  291MOL0     C39173   0.961   8.592   7.650  0.4456  0.4480 -0.9284
  291MOL0     O39174   0.857   8.601   7.745  0.6250  0.0304  0.3379
  291MOL0     C39175   0.890   8.585   7.876  0.2471  0.4668  0.4995
  291MOL0     C39176   0.991   8.663   7.931  0.4019 -0.2673 -0.0507
  291MOL0     C39177   1.042   8.615   8.055 -0.4443  0.7433 -0.1353
  291MOL0     C39178   0.979   8.508   8.119  0.2105 -0.8713  0.3041
  291MOL0     C39179   1.041   8.467   8.249  0.4667  0.2021 -0.6085
  291MOL0     O39180   1.137   8.545   8.302  0.0286 -0.1762  0.0248
  291MOL0     C39181   1.201   8.535   8.426 -0.2942  0.5841 -1.0417
  291MOL0     C39182   1.123   8.512   8.545 -0.0015  0.8203  0.1508
  291MOL0     C39183   1.176   8.513   8.671 -0.3343  0.6542 -0.2253
  291MOL0     C39184   1.313   8.527   8.690  0.0140  0.2670  0.4555
  291MOL0     O39185   1.365   8.507   8.819  0.5291 -0.1368  0.3886
  291MOL0     C39186   1.507   8.523   8.836  0.5756  0.7467 -0.1145
  291MOL0     C39187   1.546   8.542   8.984 -0.4212  0.7129  0.5531
  291MOL0     C39188   1.519   8.677   9.056  0.5394 -1.5232  0.0496
  291MOL0     C39189   1.370   8.689   9.102  0.0321  0.0594  1.0082
  291MOL0     C39190   1.346   8.789   9.211  0.4389 -0.3164 -0.0164
  291MOL0     C39191   1.301   8.730   9.345  0.5064 -0.8454 -0.1197
  291MOL0     C39192   1.411   8.651   9.411  0.1229  0.2662  0.1984
  291MOL0     C39193   1.345   8.590   9.536 -0.0394 -0.0433 -0.8333
  291MOL0    Cl39194   1.222   8.475   9.478  0.0195 -0.0975 -0.0439
  291MOL0     C39195   1.389   8.558   8.566 -0.2052 -0.6851 -0.0811
  291MOL0     C39196   1.335   8.565   8.439  0.1417 -0.1355 -0.2414
  291MOL0     O39197   0.996   8.365   8.306 -0.0016 -0.4724 -0.6178
  291MOL0     C39198   0.867   8.444   8.064 -0.4692 -0.0935  0.8434
  291MOL0     C39199   0.825   8.477   7.942  0.3229 -0.4756  0.2977
  291MOL0     N39200   1.264   8.481   7.207 -1.1525  0.8349  0.3219
  291MOL0     N39201   1.320   8.512   7.090  0.7779 -0.4034 -0.2678
  291MOL0     C39202   1.245   9.163   5.917  0.1929  0.1916 -0.1818
  291MOL0     C39203   1.157   9.216   5.835  0.3178 -0.2024  0.3293
  291MOL0     C39204   0.772   9.347   5.616 -0.6063  0.3310  0.1287
  291MOL0     C39205   0.761   9.228   5.541 -0.0542 -0.1276  0.8529
  291MOL0     C39206   0.690   9.220   5.425  0.2043  0.1338  0.3721
  291MOL0     C39207   0.628   9.338   5.381  0.8503 -0.5412 -0.1876
  291MOL0     O39208   0.558   9.314   5.272 -0.2971  0.1032  0.0658
  291MOL0     C39209   0.550   9.428   5.180  0.4472 -0.4780 -0.1568
  291MOL0     C39210   0.677   9.468   5.110  0.1577 -0.0848 -0.2434
  291MOL0     C39211   0.766   9.354   5.062 -0.9313  0.0397 -0.1195
  291MOL0     C39212   0.710   9.285   4.944  0.0615 -0.5065 -0.5134
  291MOL0     C39213   0.775   9.157   4.908  0.0441 -0.1435  0.3590
  291MOL0     C39214   0.831   9.057   4.880 -0.7956 -0.0820 -0.0710
  291MOL0     C39215   0.644   9.455   5.457  0.1379 -0.2772  0.0921
  291MOL0     C39216   0.712   9.464   5.574  1.4971 -1.7486 -0.4323
  291MOL0     C39217   0.713   9.602   5.643 -0.3344  0.7297  0.4450
  291MOL0     H39218   0.870   9.073   5.938 -0.8854 -1.6032 -0.1042
  291MOL0     H39219   1.050   8.973   6.100  1.1154  0.0373  0.6606
  291MOL0     H39220   1.342   9.088   6.309  0.3411 -1.0063  1.0429
  291MOL0     H39221   1.172   9.036   6.277  0.2454  4.2507 -2.0226
  291MOL0     H39222   1.426   8.863   6.256  0.2613  0.2299  0.0763
  291MOL0     H39223   1.265   8.824   6.202  0.9349 -0.0061 -0.6183
  291MOL0     H39224   1.344   8.916   6.490  0.4913 -0.4708 -1.8615
  291MOL0     H39225   1.343   8.745   6.450  0.0731 -0.5500 -1.7777
  291MOL0     H39226   1.117   8.930   6.481 -0.5527 -0.4663 -0.3543
  291MOL0     H39227   1.107   8.787   6.368  0.3286  0.0017  0.4850
  291MOL0     H39228   1.002   8.741   6.588  0.6999  1.7162  2.0560
  291MOL0     H39229   1.129   8.636   6.539 -1.6530 -0.0725 -1.8729
  291MOL0     H39230   1.289   8.722   6.679  0.3180  0.9072 -0.6922
  291MOL0     H39231   1.209   8.869   6.725  1.5950 -0.5975  1.0777
  291MOL0     H39232   1.093   8.594   6.803  1.8011 -1.2339 -0.3014
  291MOL0     H39233   1.071   8.756   6.875 -0.0500  1.9349 -1.2772
  291MOL0     H39234   1.333   8.601   6.858 -0.3345 -1.3478  2.7581
  291MOL0     H39235   1.319   8.762   6.926 -0.0512 -0.2154  2.1570
  291MOL0     H39236   1.074   8.734   7.111  0.1344  1.1108 -0.4242
  291MOL0     H39237   1.139   8.653   7.405  2.1121 -2.6314  0.3608
  291MOL0     H39238   0.982   8.636   7.318  0.1351  1.3121 -0.5953
  291MOL0     H39239   1.022   8.390   7.369  0.2774 -1.3996  0.2298
  291MOL0     H39240   1.139   8.430   7.481 -0.8224 -0.5379 -0.5004
  291MOL0     H39241   0.918   8.390   7.584  0.1106 -1.0745 -1.0568
  291MOL0     H39242   0.842   8.514   7.481  1.4190  2.5895 -1.4576
  291MOL0     H39243   0.981   8.696   7.620  0.3001  1.3198  1.7391
  291MOL0     H39244   1.057   8.560   7.693 -0.6023  0.7847  1.8034
  291MOL0     H39245   1.031   8.749   7.879  2.0968 -0.7803  0.3397
  291MOL0     H39246   1.142   8.645   8.084 -0.1292 -0.9990  0.6791
  291MOL0     H39247   1.018   8.491   8.531 -0.5728  2.2809  1.8831
  291MOL0     H39248   1.110   8.481   8.751 -0.2389 -1.5948 -0.9648
  291MOL0     H39249   1.547   8.426   8.806 -1.2126 -0.6169  1.6891
  291MOL0     H39250   1.552   8.604   8.777  0.5988  0.5290 -0.3952
  291MOL0     H39251   1.499   8.469   9.051 -0.5437  2.5132  2.5457
  291MOL0     H39252   1.652   8.518   8.988 -0.9295 -2.0900 -0.2573
  291MOL0     H39253   1.590   8.709   9.133  1.9709  0.8571 -2.0793
  291MOL0     H39254   1.541   8.753   8.980 -1.4869 -1.3930 -0.4620
  291MOL0     H39255   1.347   8.590   9.144 -0.7024  0.3266  1.2397
  291MOL0     H39256   1.300   8.704   9.020 -2.9909  0.1659  3.4149
  291MOL0     H39257   1.267   8.861   9.189  0.5752  1.8276  5.1226
  291MOL0     H39258   1.440   8.843   9.228  0.8083 -1.1791  0.7408
  291MOL0     H39259   1.281   8.812   9.414 -2.4572 -2.7155  1.4320
  291MOL0     H39260   1.209   8.672   9.331  0.9190 -2.1180  2.0213
  291MOL0     H39261   1.491   8.720   9.439  0.8396 -0.0286 -1.0462
  291MOL0     H39262   1.457   8.579   9.342 -0.1160  0.2317  0.0734
  291MOL0     H39263   1.419   8.536   9.595  0.3482  1.4308  0.0774
  291MOL0     H39264   1.304   8.670   9.598  0.4164  0.4039 -1.1019
  291MOL0     H39265   1.496   8.563   8.549 -0.5281  0.4684 -2.1451
  291MOL0     H39266   1.390   8.580   8.347 -0.0866 -1.8179 -0.7006
  291MOL0     H39267   0.807   8.363   8.106 -4.6526 -0.5707 -4.8304
  291MOL0     H39268   0.745   8.412   7.908 -1.1516  1.2977  0.1990
  291MOL0     H39269   1.350   9.187   5.903  0.9738 -2.6528  0.2547
  291MOL0     H39270   1.190   9.281   5.754 -2.1631 -0.0988 -0.7063
  291MOL0     H39271   0.811   9.139   5.576  0.4807 -0.0968  0.1826
  291MOL0     H39272   0.701   9.140   5.353 -0.1226  1.6147 -1.4053
  291MOL0     H39273   0.486   9.508   5.219 -0.4452 -1.5090  0.5811
  291MOL0     H39274   0.478   9.395   5.104  0.9672  0.3310 -1.0202
  291MOL0     H39275   0.738   9.521   5.184 -0.5018 -0.1006  0.3276
  291MOL0     H39276   0.652   9.539   5.031 -1.6969  4.2018  3.7081
  291MOL0     H39277   0.783   9.290   5.149  1.6208 -0.3508 -0.8366
  291MOL0     H39278   0.865   9.389   5.035 -1.5584 -0.5378 -3.6720
  291MOL0     H39279   0.605   9.262   4.967 -0.5778  1.5324 -1.1605
  291MOL0     H39280   0.717   9.358   4.863 -0.0077 -0.1093 -0.1648
  291MOL0     H39281   0.883   8.965   4.866 -2.6045 -1.4428  1.4756
  291MOL0     H39282   0.580   9.530   5.412 -1.1456 -0.6569  1.2236
  291MOL0     H39283   0.797   9.658   5.600 -1.0277  1.8490  0.5178
  291MOL0     H39284   0.623   9.663   5.636 -1.5176 -0.3925  3.8427
  291MOL0     H39285   0.729   9.595   5.751  3.1266 -1.3707 -0.0292
  292MOL0     O39286   6.751   2.029   3.945  0.0500 -0.0992 -0.1121
  292MOL0     C39287   6.804   2.089   4.035  0.1495 -0.0131  1.2943
  292MOL0     O39288   6.851   2.030   4.152  0.2195  0.6408 -0.7316
  292MOL0     C39289   6.802   1.897   4.168 -0.5451 -0.4650 -0.4925
  292MOL0     C39290   6.678   1.877   4.230  0.3746 -0.0459 -0.4266
  292MOL0     C39291   6.640   1.744   4.257 -0.1524  0.7589  0.5965
  292MOL0     C39292   6.716   1.636   4.211 -0.3587 -0.3619  0.1858
  292MOL0     O39293   6.658   1.516   4.253  0.3465 -0.3261  0.0294
  292MOL0     C39294   6.760   1.419   4.283  0.2325  0.3584 -0.0882
  292MOL0     C39295   6.679   1.293   4.309  0.6977  0.1021  0.5699
  292MOL0     C39296   6.764   1.171   4.336 -0.2078 -0.8442 -0.0598
  292MOL0     C39297   6.850   1.172   4.464  1.2269  0.1981  0.0220
  292MOL0     C39298   6.977   1.085   4.455  0.1483  0.6502  0.9167
  292MOL0     C39299   7.097   1.150   4.382 -0.2568  0.0342  0.6347
  292MOL0     C39300   7.213   1.048   4.399  0.1944 -0.5814  0.1608
  292MOL0     C39301   7.329   1.081   4.309 -1.3284  0.1860 -0.4153
  292MOL0     N39302   7.435   1.148   4.383  0.1764 -0.7404  0.2027
  292MOL0     C39303   7.427   1.261   4.467 -0.0875 -0.2791  0.4044
  292MOL0     C39304   7.551   1.266   4.519  0.0290 -0.3584 -0.1225
  292MOL0     C39305   7.589   1.370   4.616  0.3628  0.0083  0.2887
  292MOL0     C39306   7.632   1.489   4.554 -1.4381  0.1100 -0.5054
  292MOL0     C39307   7.613   1.619   4.630 -0.3383 -0.0551  0.9691
  292MOL0     C39308   7.699   1.634   4.758 -0.3105  0.1947 -0.2609
  292MOL0     O39309   7.630   1.559   4.859  0.8821 -0.3339  0.7018
  292MOL0     C39310   7.713   1.496   4.947  1.1830  0.0632  0.2385
  292MOL0     C39311   7.712   1.359   4.965 -0.6230 -0.2704  0.2028
  292MOL0     C39312   7.780   1.309   5.076  0.4654 -0.3393  0.9094
  292MOL0     C39313   7.862   1.384   5.161 -0.1008  0.2061  0.0276
  292MOL0     C39314   7.928   1.327   5.277 -0.6304 -0.4742 -0.9207
  292MOL0     O39315   7.871   1.207   5.321 -0.2286  0.1736  0.5390
  292MOL0     C39316   7.924   1.146   5.428  0.8106  0.8853 -0.7694
  292MOL0     C39317   7.888   1.172   5.563  0.2190  0.2033 -0.1928
  292MOL0     C39318   7.957   1.105   5.663 -0.0075 -0.5495  0.4717
  292MOL0     C39319   8.050   1.000   5.635 -0.4920 -0.8597  0.4081
  292MOL0     O39320   8.091   0.925   5.735 -0.1645 -1.1569  0.0902
  292MOL0     C39321   8.016   0.807   5.754  0.0109  0.1755  0.2815
  292MOL0     C39322   8.057   0.716   5.867 -0.3193 -0.3016  0.4500
  292MOL0     C39323   8.051   0.796   5.997 -0.1947 -0.0680 -0.5453
  292MOL0     C39324   8.130   0.715   6.110 -0.0407  0.0928 -0.4743
  292MOL0     C39325   8.062   0.578   6.144  0.3975 -0.6913  0.4678
  292MOL0     C39326   8.123   0.450   6.080 -0.0060  0.3245 -0.6679
  292MOL0     C39327   8.057   0.318   6.144  0.7466 -0.9358  0.2099
  292MOL0     C39328   8.097   0.200   6.049 -0.6350  0.1640  0.7098
  292MOL0    Cl39329   8.269   0.149   6.068 -0.4275  0.2185 -0.4532
  292MOL0     C39330   8.075   0.965   5.505 -0.3550 -1.3238 -0.2120
  292MOL0     C39331   8.014   1.039   5.403 -0.4562 -1.1400  0.9512
  292MOL0     O39332   8.013   1.380   5.345 -0.4921 -0.0140 -0.0515
  292MOL0     C39333   7.863   1.522   5.136 -0.9534  0.5481  0.1009
  292MOL0     C39334   7.773   1.577   5.047 -0.2506  0.2512 -0.0152
  292MOL0     N39335   7.635   1.177   4.465 -0.0307  0.6845 -0.2055
  292MOL0     N39336   7.562   1.103   4.387 -0.4077  0.4189  0.5422
  292MOL0     C39337   6.838   1.657   4.145 -0.7064  0.2127 -0.6823
  292MOL0     C39338   6.877   1.793   4.123  0.4001  0.3505  0.4284
  292MOL0     C39339   6.835   2.243   4.028 -0.3581 -0.7917  0.5726
  292MOL0     C39340   6.928   2.294   4.119  0.4871 -0.4197 -0.4306
  292MOL0     C39341   6.940   2.428   4.140  0.6628 -0.7356 -0.3142
  292MOL0     C39342   6.871   2.521   4.069  0.0556 -0.4960 -1.0495
  292MOL0     O39343   6.881   2.655   4.098  0.5780  0.6359  0.7805
  292MOL0     C39344   6.965   2.735   4.010  0.2198  0.2468 -1.4085
  292MOL0     C39345   7.117   2.691   4.021  0.2942  0.5337 -0.1405
  292MOL0     C39346   7.208   2.784   3.944  0.5172  0.4869  0.6387
  292MOL0     C39347   7.208   2.933   3.976 -0.7644  0.2657 -0.0568
  292MOL0     C39348   7.315   3.002   3.903  0.2773  0.7889  0.0286
  292MOL0     C39349   7.417   3.058   3.868  0.6684 -1.1443 -0.9380
  292MOL0     C39350   6.790   2.478   3.972  0.1092 -0.3694  0.5519
  292MOL0     C39351   6.766   2.342   3.951 -0.6873  1.3031  0.2541
  292MOL0     C39352   6.658   2.306   3.856 -0.2838 -0.3410 -1.0780
  292MOL0     H39353   6.631   1.959   4.284  0.5624  0.6898 -1.3463
  292MOL0     H39354   6.541   1.732   4.301 -1.2650  1.5191 -1.5092
  292MOL0     H39355   6.830   1.393   4.203 -2.7780 -4.4710 -1.5645
  292MOL0     H39356   6.807   1.445   4.378  1.6482 -0.8650 -0.4215
  292MOL0     H39357   6.629   1.268   4.216  2.1574  0.5791 -0.3703
  292MOL0     H39358   6.606   1.300   4.391  0.2808 -0.0064  0.2158
  292MOL0     H39359   6.839   1.163   4.257 -2.0400  0.1038 -1.9652
  292MOL0     H39360   6.692   1.090   4.325  1.2797 -2.5578  1.8499
  292MOL0     H39361   6.885   1.272   4.490  2.7675 -0.4989  0.7781
  292MOL0     H39362   6.790   1.127   4.545 -0.2477 -0.6007 -1.4556
  292MOL0     H39363   7.008   1.066   4.558  0.2983 -1.1124  0.5822
  292MOL0     H39364   6.952   0.991   4.404  3.3100  1.1221 -1.8100
  292MOL0     H39365   7.073   1.147   4.276  0.1085  0.1037  0.5490
  292MOL0     H39366   7.131   1.247   4.421  2.9896 -0.0161 -1.6806
  292MOL0     H39367   7.180   0.947   4.373  1.8319 -1.2499  0.5787
  292MOL0     H39368   7.252   1.045   4.501  1.0129 -0.6235 -0.1448
  292MOL0     H39369   7.367   0.986   4.270  3.4525  1.7891 -0.2288
  292MOL0     H39370   7.293   1.150   4.232 -2.7932  0.7887  0.7558
  292MOL0     H39371   7.349   1.332   4.491 -1.2595 -0.9073 -1.3177
  292MOL0     H39372   7.502   1.393   4.679  1.0418  1.9024  0.5905
  292MOL0     H39373   7.665   1.314   4.671  3.0385 -3.1965 -5.7739
  292MOL0     H39374   7.732   1.461   4.519  0.0856 -0.6449  3.8513
  292MOL0     H39375   7.576   1.491   4.460 -0.6214  0.6925 -0.9895
  292MOL0     H39376   7.506   1.635   4.646 -0.4116 -0.8868  1.3632
  292MOL0     H39377   7.658   1.702   4.574  0.0029 -1.1439 -0.4396
  292MOL0     H39378   7.713   1.741   4.773  0.0895  0.3193 -1.3772
  292MOL0     H39379   7.794   1.586   4.732 -0.4528  0.1602 -0.7397
  292MOL0     H39380   7.651   1.301   4.897 -0.0723 -0.4630 -0.1334
  292MOL0     H39381   7.786   1.201   5.090  1.9555 -0.6184 -1.2786
  292MOL0     H39382   7.809   1.243   5.585 -1.7724 -1.7460 -0.7103
  292MOL0     H39383   7.945   1.122   5.769 -3.6713  2.6044 -0.1919
  292MOL0     H39384   7.912   0.835   5.774  0.1110  0.7069  0.0670
  292MOL0     H39385   8.026   0.757   5.657  0.4439  1.4707 -0.3683
  292MOL0     H39386   7.992   0.628   5.873 -1.6859  0.7721  2.1015
  292MOL0     H39387   8.153   0.666   5.849 -0.4697 -1.5152  2.7169
  292MOL0     H39388   8.089   0.899   5.990  0.9384  0.0795  4.1715
  292MOL0     H39389   7.947   0.806   6.030 -0.9740 -0.2531 -2.8194
  292MOL0     H39390   8.137   0.782   6.196  1.6712 -1.4779  0.6978
  292MOL0     H39391   8.232   0.687   6.080 -0.3374 -1.9239  0.2263
  292MOL0     H39392   7.955   0.587   6.127  0.2039 -1.3553  1.2803
  292MOL0     H39393   8.074   0.562   6.252  1.1783 -1.6402  0.2583
  292MOL0     H39394   8.117   0.454   5.970 -0.8986  4.7064 -0.6217
  292MOL0     H39395   8.229   0.447   6.107  0.0871  0.8445 -0.9697
  292MOL0     H39396   7.948   0.330   6.148  0.9334  0.8910  0.5041
  292MOL0     H39397   8.093   0.302   6.246 -2.1015 -1.4597  1.2281
  292MOL0     H39398   8.027   0.120   6.071 -0.3372 -0.9411 -1.9462
  292MOL0     H39399   8.079   0.246   5.951 -2.4702 -1.0647  0.4273
  292MOL0     H39400   8.150   0.892   5.479  1.2955  0.5788 -1.0502
  292MOL0     H39401   8.027   1.023   5.297 -3.5463  1.1598  0.1001
  292MOL0     H39402   7.940   1.583   5.183 -0.5021 -2.1476  3.2913
  292MOL0     H39403   7.760   1.685   5.043 -1.3390  0.2331  1.8070
  292MOL0     H39404   6.912   1.582   4.121 -1.6112 -1.1948  0.7364
  292MOL0     H39405   6.970   1.815   4.072  0.7620 -2.4929 -0.3183
  292MOL0     H39406   6.989   2.239   4.190  0.7667  0.6426  0.1805
  292MOL0     H39407   7.011   2.470   4.211  0.7792 -0.6445 -0.4837
  292MOL0     H39408   6.964   2.841   4.038  2.9876  0.5391 -2.1698
  292MOL0     H39409   6.928   2.718   3.908 -0.1528 -3.2780 -0.8298
  292MOL0     H39410   7.121   2.591   3.978 -1.9445  0.2334  0.2246
  292MOL0     H39411   7.146   2.684   4.126  1.3785  0.8871 -0.4080
  292MOL0     H39412   7.202   2.775   3.835  1.4100 -2.4760  0.7542
  292MOL0     H39413   7.310   2.753   3.966  0.6079  0.7365  0.5855
  292MOL0     H39414   7.131   3.000   3.936  3.6144  3.7065 -3.7947
  292MOL0     H39415   7.219   2.953   4.083 -2.7973 -0.3086  0.3094
  292MOL0     H39416   7.503   3.103   3.821 -0.8237  0.5844 -2.1424
  292MOL0     H39417   6.728   2.557   3.932 -1.9508 -1.4330  1.4842
  292MOL0     H39418   6.671   2.211   3.804 -1.8317 -0.7676 -0.7401
  292MOL0     H39419   6.569   2.284   3.915  0.2350 -1.2152 -0.6179
  292MOL0     H39420   6.637   2.379   3.777 -1.5261  1.2949  0.6753
  293MOL0     O39421   6.365  10.052   2.829  0.4493 -0.1522  0.4677
  293MOL0     C39422   6.303  10.005   2.732 -0.3800  0.8186 -0.3117
  293MOL0     O39423   6.172  10.033   2.692 -0.0730  1.5603 -0.4967
  293MOL0     C39424   6.113  10.146   2.750  0.4332 -0.8229  0.2719
  293MOL0     C39425   6.188  10.268   2.777 -0.5576 -0.1155  0.0373
  293MOL0     C39426   6.117  10.378   2.822  0.6564  0.4155 -0.3427
  293MOL0     C39427   5.979  10.375   2.843 -0.3041 -0.0565 -0.4279
  293MOL0     O39428   5.900  10.479   2.864 -0.5068  0.4627 -0.1278
  293MOL0     C39429   5.967  10.607   2.899  0.0662  0.3038 -0.3968
  293MOL0     C39430   5.864  10.707   2.955 -0.1413 -0.2706 -0.2147
  293MOL0     C39431   5.768  10.648   3.061 -0.0796  0.2223  0.2055
  293MOL0     C39432   5.661  10.756   3.097  0.0805  0.6802 -0.0382
  293MOL0     C39433   5.556  10.712   3.199 -0.3158 -0.8604  0.3803
  293MOL0     C39434   5.464  10.591   3.155 -1.0432 -0.1417  0.1718
  293MOL0     C39435   5.349  10.567   3.267  0.7948 -0.1947 -0.7441
  293MOL0     C39436   5.257  10.448   3.232  0.0220  1.1336  0.8029
  293MOL0     N39437   5.165  10.407   3.333  0.2273  0.0195  0.1550
  293MOL0     C39438   5.197  10.403   3.466  0.6856 -0.0696 -0.6875
  293MOL0     C39439   5.086  10.355   3.529  0.3822  0.1851 -0.8666
  293MOL0     C39440   5.053  10.333   3.673 -0.0251  0.3466  0.2220
  293MOL0     C39441   4.908  10.314   3.723  1.0242  0.0635  0.5447
  293MOL0     C39442   4.811  10.426   3.679 -0.1108  0.1098 -0.4750
  293MOL0     C39443   4.671  10.414   3.727  0.7128 -1.0256 -0.0754
  293MOL0     O39444   4.675  10.381   3.873  0.2190  0.1052 -0.7797
  293MOL0     C39445   4.621  10.265   3.919  0.3101 -0.8778  0.3968
  293MOL0     C39446   4.621  10.244   4.060 -0.1055 -0.6308  0.0647
  293MOL0     C39447   4.558  10.127   4.104  0.4283 -0.9734  0.2702
  293MOL0     C39448   4.501  10.023   4.028 -1.0060 -0.6208  0.4347
  293MOL0     C39449   4.428   9.912   4.085  0.3200  0.1093 -0.1067
  293MOL0     O39450   4.309   9.884   4.036 -0.9040  0.5511 -0.7517
  293MOL0     C39451   4.236   9.788   4.109  0.2864 -0.0945  0.1783
  293MOL0     C39452   4.271   9.653   4.108  0.0138 -0.0537  0.9330
  293MOL0     C39453   4.189   9.556   4.166  0.6358  0.1834 -0.0801
  293MOL0     C39454   4.070   9.591   4.226 -1.3630 -0.2566 -0.1877
  293MOL0     O39455   3.986   9.489   4.271  0.1195  0.2983  0.1591
  293MOL0     C39456   3.923   9.511   4.399 -0.5192 -0.2897  0.5904
  293MOL0     C39457   3.855   9.388   4.432  0.1858  0.4419 -0.4675
  293MOL0     C39458   3.725   9.374   4.345 -0.1327 -0.7150  0.2579
  293MOL0     C39459   3.649   9.251   4.394 -0.8548  0.0098  0.7513
  293MOL0     C39460   3.507   9.248   4.340  0.1295  0.1727 -0.4648
  293MOL0     C39461   3.510   9.223   4.194  0.0252  0.3571 -0.2876
  293MOL0     C39462   3.372   9.222   4.132  0.0694 -0.0621 -0.3511
  293MOL0     C39463   3.356   9.170   3.991 -1.0052 -1.0491  0.5427
  293MOL0    Cl39464   3.473   9.232   3.867  0.2810  0.4097 -0.0116
  293MOL0     C39465   4.039   9.732   4.231 -0.6679 -0.3792  0.4314
  293MOL0     C39466   4.118   9.827   4.177  0.5006 -0.9328  1.0661
  293MOL0     O39467   4.477   9.863   4.184 -0.8289 -0.6669 -0.4284
  293MOL0     C39468   4.496  10.052   3.887  0.7270 -0.1807 -1.2707
  293MOL0     C39469   4.555  10.171   3.836  0.8289 -0.1238 -0.8604
  293MOL0     N39470   4.999  10.311   3.431  0.4116 -0.0502 -0.3147
  293MOL0     N39471   5.047  10.340   3.316 -0.4519 -0.4216  0.1056
  293MOL0     C39472   5.915  10.252   2.835  0.2788  0.5505  0.6008
  293MOL0     C39473   5.977  10.140   2.782  0.6700 -0.2000 -0.2088
  293MOL0     C39474   6.361   9.897   2.648  0.2784  0.4875  0.4121
  293MOL0     C39475   6.372   9.913   2.509  1.0474 -0.4145 -0.8996
  293MOL0     C39476   6.440   9.822   2.434  0.8116  0.9786 -0.1902
  293MOL0     C39477   6.504   9.711   2.487  0.3219 -0.2313 -0.7774
  293MOL0     O39478   6.563   9.620   2.402  0.1427  0.0218 -0.0619
  293MOL0     C39479   6.606   9.493   2.462 -0.7003  0.1891  0.2648
  293MOL0     C39480   6.688   9.401   2.367 -0.7639 -1.2624 -1.2044
  293MOL0     C39481   6.712   9.265   2.432 -1.2497  0.2155  0.1125
  293MOL0     C39482   6.595   9.178   2.401 -0.2258  0.3669 -1.0257
  293MOL0     C39483   6.584   9.120   2.268 -0.4796 -0.2789 -0.1201
  293MOL0     C39484   6.573   9.093   2.152 -0.5629  0.9539  0.0931
  293MOL0     C39485   6.481   9.692   2.622 -0.3126  0.1922 -0.2381
  293MOL0     C39486   6.409   9.781   2.709 -0.7666  0.0228 -1.0280
  293MOL0     C39487   6.409   9.753   2.854 -0.4026 -0.5560  0.4261
  293MOL0     H39488   6.285  10.299   2.738  0.4401 -0.4589  2.0643
  293MOL0     H39489   6.173  10.467   2.850  1.0785  0.0467 -0.0061
  293MOL0     H39490   6.042  10.591   2.977 -0.8141 -1.0447  0.2063
  293MOL0     H39491   6.028  10.658   2.824  0.8598  1.7668  1.1768
  293MOL0     H39492   5.800  10.737   2.871 -1.1262 -1.4445  0.0758
  293MOL0     H39493   5.918  10.794   2.992  2.3669 -1.8701  0.0989
  293MOL0     H39494   5.831  10.629   3.148  5.0429  0.0470 -3.1041
  293MOL0     H39495   5.725  10.560   3.013  1.9519 -0.4531 -0.4622
  293MOL0     H39496   5.723  10.833   3.144  1.6335 -0.2451 -0.5027
  293MOL0     H39497   5.609  10.802   3.013  1.8328  2.2373 -0.3416
  293MOL0     H39498   5.610  10.676   3.287 -0.6774  1.9184  1.8675
  293MOL0     H39499   5.495  10.799   3.226 -0.6639 -0.0017 -2.7704
  293MOL0     H39500   5.419  10.612   3.057  1.4529  3.2446 -0.4498
  293MOL0     H39501   5.525  10.502   3.141  0.1842  0.6732  0.1707
  293MOL0     H39502   5.295  10.661   3.282  1.1902 -0.2825  1.5323
  293MOL0     H39503   5.400  10.550   3.362 -1.2867 -2.5406  0.0721
  293MOL0     H39504   5.208  10.474   3.137  0.1995  2.6051  1.0903
  293MOL0     H39505   5.318  10.358   3.225 -0.2271  1.0816 -2.3123
  293MOL0     H39506   5.286  10.442   3.514  0.4339  0.9029 -0.9925
  293MOL0     H39507   5.116  10.255   3.717  0.7089  0.6498 -0.2714
  293MOL0     H39508   5.094  10.422   3.722  1.1380 -0.1256  0.1499
  293MOL0     H39509   4.885  10.217   3.679  1.6508 -0.1547  0.6915
  293MOL0     H39510   4.903  10.291   3.830 -0.9190 -3.4628 -0.1542
  293MOL0     H39511   4.801  10.436   3.571 -1.0880  0.8090 -0.3361
  293MOL0     H39512   4.859  10.513   3.725 -1.9028  0.3929  0.9772
  293MOL0     H39513   4.620  10.341   3.663  2.5828 -2.1808 -0.3135
  293MOL0     H39514   4.629  10.513   3.706  4.5204  0.4629 -1.5999
  293MOL0     H39515   4.655  10.322   4.127  0.1854 -1.1540  0.5363
  293MOL0     H39516   4.553  10.104   4.210 -1.3447  0.3457  0.5108
  293MOL0     H39517   4.355   9.630   4.043 -1.7962 -1.0462 -1.2100
  293MOL0     H39518   4.209   9.453   4.139  0.2013 -0.0462  0.4425
  293MOL0     H39519   3.987   9.540   4.483  2.2177  1.7232 -2.0110
  293MOL0     H39520   3.850   9.591   4.384  0.2166 -0.3084 -5.0984
  293MOL0     H39521   3.930   9.309   4.424  2.9104  2.8039  0.0302
  293MOL0     H39522   3.823   9.386   4.536 -1.5218  1.7745 -0.9104
  293MOL0     H39523   3.672   9.469   4.355  0.9297 -0.2614  2.0534
  293MOL0     H39524   3.742   9.360   4.238  0.1327  0.4098  0.1433
  293MOL0     H39525   3.656   9.248   4.503  1.6911  0.4308  0.6762
  293MOL0     H39526   3.712   9.168   4.362 -0.5198  0.3321  0.5579
  293MOL0     H39527   3.460   9.345   4.361 -0.2148 -0.3222  1.2741
  293MOL0     H39528   3.449   9.175   4.397 -1.1300 -0.3485 -2.3355
  293MOL0     H39529   3.573   9.306   4.159  4.2653 -1.4205  2.2906
  293MOL0     H39530   3.571   9.135   4.171  0.3860  0.7515 -0.8634
  293MOL0     H39531   3.321   9.318   4.139 -0.5231 -0.0320 -3.6357
  293MOL0     H39532   3.314   9.152   4.193 -0.3511 -1.3295 -2.1242
  293MOL0     H39533   3.367   9.062   3.996  1.7690 -1.2028 -3.7614
  293MOL0     H39534   3.254   9.178   3.954 -1.0860 -2.7548  0.3293
  293MOL0     H39535   3.945   9.770   4.271 -2.0678  0.6564 -3.3502
  293MOL0     H39536   4.084   9.930   4.186 -0.3161 -0.9002 -1.6340
  293MOL0     H39537   4.438   9.983   3.826 -0.7632 -0.6280  0.5904
  293MOL0     H39538   4.540  10.171   3.729 -1.6440 -3.0339 -0.6487
  293MOL0     H39539   5.809  10.244   2.853  0.4761 -0.2493  1.5033
  293MOL0     H39540   5.917  10.049   2.779  2.8536 -1.6609 -2.3549
  293MOL0     H39541   6.330  10.000   2.460  1.1178  0.1669  0.0500
  293MOL0     H39542   6.433   9.840   2.328  0.1426  0.6590 -0.2046
  293MOL0     H39543   6.518   9.433   2.489 -0.9459  1.5955  2.9562
  293MOL0     H39544   6.671   9.510   2.548  0.4708  2.1026 -0.9420
  293MOL0     H39545   6.781   9.457   2.354  1.6805 -4.1814  1.8342
  293MOL0     H39546   6.640   9.405   2.269  0.2041  0.9440 -1.6368
  293MOL0     H39547   6.710   9.261   2.542 -2.4096 -2.0879  0.0759
  293MOL0     H39548   6.805   9.213   2.406 -0.6039 -0.3767  3.2096
  293MOL0     H39549   6.602   9.084   2.455 -0.7660  0.9010  0.0056
  293MOL0     H39550   6.502   9.224   2.438  1.8341  0.2831  5.4357
  293MOL0     H39551   6.570   9.061   2.049  0.6102 -0.8238  0.5610
  293MOL0     H39552   6.521   9.603   2.669 -0.8074  1.0997  2.0347
  293MOL0     H39553   6.447   9.651   2.857 -0.2181 -0.4860  0.5145
  293MOL0     H39554   6.486   9.815   2.900  1.0932 -0.9876 -1.3619
  293MOL0     H39555   6.311   9.755   2.902 -1.1058  0.7039 -0.9562
  294MOL0     O39556   3.437   4.949   6.641 -0.5365  0.1911  0.0187
  294MOL0     C39557   3.501   4.964   6.746 -0.0663 -1.1765 -0.9963
  294MOL0     O39558   3.627   4.947   6.767 -0.0416 -0.4278  0.0189
  294MOL0     C39559   3.696   4.870   6.673  0.0779 -0.2739 -0.0175
  294MOL0     C39560   3.739   4.924   6.551 -0.5873  0.7194 -0.8789
  294MOL0     C39561   3.806   4.844   6.465 -0.2962  0.1540 -0.5034
  294MOL0     C39562   3.844   4.708   6.489 -0.3823 -0.6748 -0.1766
  294MOL0     O39563   3.920   4.646   6.384 -0.4670 -0.9744 -0.1761
  294MOL0     C39564   3.897   4.509   6.366  0.4451 -0.2819 -0.0442
  294MOL0     C39565   3.996   4.455   6.255  0.1856 -0.0585  0.3627
  294MOL0     C39566   4.135   4.432   6.296  0.5177 -0.7585 -0.3296
  294MOL0     C39567   4.156   4.318   6.396  0.6656 -0.1504 -0.9031
  294MOL0     C39568   4.306   4.267   6.410 -0.6666  0.3561 -0.1054
  294MOL0     C39569   4.329   4.142   6.503  0.2146  0.4872  0.4467
  294MOL0     C39570   4.470   4.092   6.496 -1.0134 -0.3473 -0.1794
  294MOL0     C39571   4.483   3.983   6.376 -0.3746 -0.1119 -0.1834
  294MOL0     N39572   4.449   3.847   6.432  0.4457 -0.6249  0.6806
  294MOL0     C39573   4.348   3.807   6.528 -0.6194 -0.0267 -0.0577
  294MOL0     C39574   4.379   3.671   6.540 -0.2358  0.1699  0.8751
  294MOL0     C39575   4.297   3.566   6.612 -0.5602  0.1639 -0.5005
  294MOL0     C39576   4.148   3.611   6.633 -0.4780 -0.4334  0.2259
  294MOL0     C39577   4.073   3.606   6.496 -0.8202  0.7473  0.1602
  294MOL0     C39578   3.931   3.658   6.514 -0.1630 -0.5550  0.3428
  294MOL0     O39579   3.940   3.789   6.566 -0.7597 -0.4658 -0.3971
  294MOL0     C39580   3.851   3.888   6.538 -0.5642  0.1008  0.0733
  294MOL0     C39581   3.724   3.861   6.486  0.0005 -0.2671  0.5605
  294MOL0     C39582   3.631   3.959   6.450 -0.3842 -0.1289  0.3150
  294MOL0     C39583   3.663   4.094   6.477 -0.9343 -0.0911 -0.0476
  294MOL0     C39584   3.570   4.197   6.438 -0.2183 -0.5737  0.2917
  294MOL0     O39585   3.593   4.329   6.478 -0.2460  1.0229  0.3043
  294MOL0     C39586   3.536   4.438   6.416 -0.2822  0.2075  0.0397
  294MOL0     C39587   3.521   4.453   6.284  0.2381  0.6591  0.3642
  294MOL0     C39588   3.469   4.573   6.224 -0.0273 -0.0517 -0.7240
  294MOL0     C39589   3.412   4.672   6.311  0.2532 -0.0104  1.1252
  294MOL0     O39590   3.341   4.775   6.245  0.1730  0.7352  0.1820
  294MOL0     C39591   3.332   4.900   6.314  0.0152 -0.9535  0.3173
  294MOL0     C39592   3.455   4.976   6.332 -1.0079 -0.4152 -0.6439
  294MOL0     C39593   3.434   5.102   6.404  0.3627 -1.2222 -0.1693
  294MOL0     C39594   3.408   5.226   6.311 -0.1726 -0.2030  0.7070
  294MOL0     C39595   3.440   5.360   6.386  0.1909 -0.1797 -0.0426
  294MOL0     C39596   3.450   5.484   6.296  0.7520 -0.8563  0.4559
  294MOL0     C39597   3.310   5.527   6.268  0.6046 -0.7598 -0.7705
  294MOL0     C39598   3.313   5.686   6.259  0.0728 -0.8576 -1.6076
  294MOL0    Cl39599   3.372   5.750   6.428 -0.8372 -0.4355  0.5765
  294MOL0     C39600   3.420   4.651   6.448 -0.5156 -0.1789 -0.4643
  294MOL0     C39601   3.489   4.539   6.499  0.1928 -0.0864 -0.1169
  294MOL0     O39602   3.481   4.166   6.353 -0.0269  0.3416  0.1106
  294MOL0     C39603   3.793   4.128   6.528 -0.1925  0.3492  0.0011
  294MOL0     C39604   3.888   4.021   6.557  0.9566 -0.8618 -0.2806
  294MOL0     N39605   4.474   3.630   6.452 -0.2489 -1.1125  0.1579
  294MOL0     N39606   4.515   3.737   6.385 -0.8330 -0.2980  0.4704
  294MOL0     C39607   3.785   4.656   6.606 -0.8697 -0.3295 -0.2061
  294MOL0     C39608   3.724   4.734   6.698  0.9272 -0.6093 -0.4439
  294MOL0     C39609   3.426   5.014   6.880 -0.3969  0.3729 -0.2940
  294MOL0     C39610   3.500   5.003   7.002  0.5321 -0.3649 -0.5674
  294MOL0     C39611   3.436   5.017   7.127  0.8061  0.1376 -1.1456
  294MOL0     C39612   3.306   5.079   7.131  0.2923 -0.0253  0.8449
  294MOL0     O39613   3.248   5.130   7.243 -0.1039  0.0125  0.2352
  294MOL0     C39614   3.226   5.276   7.249 -0.2714  0.2126 -0.3669
  294MOL0     C39615   3.327   5.374   7.219 -0.0173 -0.5653  0.5608
  294MOL0     C39616   3.345   5.427   7.075  0.0190  0.4317  0.5314
  294MOL0     C39617   3.230   5.530   7.033 -0.6057 -0.0072  0.2225
  294MOL0     C39618   3.242   5.581   6.899  1.1008  0.2723 -0.1756
  294MOL0     C39619   3.244   5.623   6.782 -0.5773 -0.3552 -0.0035
  294MOL0     C39620   3.241   5.097   7.007 -0.5755 -0.0361  0.5535
  294MOL0     C39621   3.289   5.064   6.880  0.1217 -0.0250  0.0339
  294MOL0     C39622   3.200   5.087   6.767  0.9309 -0.3538 -0.0750
  294MOL0     H39623   3.699   5.020   6.523 -3.9360 -1.0572 -2.8050
  294MOL0     H39624   3.832   4.880   6.366  2.5643 -3.3040 -1.2537
  294MOL0     H39625   3.902   4.455   6.461 -3.0094 -1.6578 -0.4885
  294MOL0     H39626   3.796   4.493   6.326  1.5900 -2.6210 -2.2641
  294MOL0     H39627   3.995   4.536   6.181 -0.5246 -1.0616 -0.7643
  294MOL0     H39628   3.951   4.366   6.210 -0.0950 -0.2676  1.0551
  294MOL0     H39629   4.165   4.534   6.323  1.3739 -0.6735 -1.5129
  294MOL0     H39630   4.196   4.402   6.210  1.2914 -4.1127  1.2504
  294MOL0     H39631   4.110   4.339   6.493  0.9662  3.1377 -1.3671
  294MOL0     H39632   4.114   4.226   6.355  1.8977 -1.4721  0.6451
  294MOL0     H39633   4.354   4.255   6.312 -1.8485  0.3348 -0.7038
  294MOL0     H39634   4.353   4.353   6.458 -3.4272  1.1139  1.4544
  294MOL0     H39635   4.300   4.164   6.606 -1.3242 -0.5448  0.2499
  294MOL0     H39636   4.258   4.064   6.477 -0.1872 -0.2203  3.3205
  294MOL0     H39637   4.500   4.029   6.579  2.6643 -0.5694 -1.4951
  294MOL0     H39638   4.546   4.169   6.481 -0.9223 -0.7620 -2.2582
  294MOL0     H39639   4.405   4.003   6.301 -0.8679  2.2963  0.8743
  294MOL0     H39640   4.575   3.993   6.318 -1.7800  1.9309 -2.2349
  294MOL0     H39641   4.268   3.873   6.558 -2.6085 -2.6390  0.8082
  294MOL0     H39642   4.296   3.485   6.539 -1.8647  0.6597 -1.0627
  294MOL0     H39643   4.358   3.545   6.700  1.2482  0.0751 -1.7103
  294MOL0     H39644   4.116   3.539   6.709  1.1608  0.4175  1.8054
  294MOL0     H39645   4.142   3.707   6.686  0.1280  1.1495 -2.3897
  294MOL0     H39646   4.064   3.507   6.452 -3.2852  1.2234 -0.5626
  294MOL0     H39647   4.118   3.678   6.427  1.6370  0.4809  1.3674
  294MOL0     H39648   3.882   3.588   6.583 -0.0028 -0.7092  0.3003
  294MOL0     H39649   3.875   3.658   6.420  0.5706 -1.0392 -0.1115
  294MOL0     H39650   3.696   3.760   6.461 -0.0567  0.1450 -1.1252
  294MOL0     H39651   3.534   3.937   6.407  0.1480 -3.0642  0.3961
  294MOL0     H39652   3.541   4.376   6.211 -0.2860  1.0475 -0.2015
  294MOL0     H39653   3.434   4.581   6.121 -1.3741  1.5549 -0.1914
  294MOL0     H39654   3.271   4.955   6.241  0.4962  0.0438  0.6437
  294MOL0     H39655   3.285   4.886   6.412 -0.1221  1.8705  0.7399
  294MOL0     H39656   3.529   4.917   6.386 -1.4706 -1.6311 -1.2963
  294MOL0     H39657   3.506   4.992   6.237  1.1619 -0.6221  0.4276
  294MOL0     H39658   3.357   5.092   6.481  1.7300 -1.9850  1.1565
  294MOL0     H39659   3.525   5.115   6.463 -0.7394 -2.1543  1.8260
  294MOL0     H39660   3.306   5.238   6.273 -0.3605  3.6075  2.0005
  294MOL0     H39661   3.466   5.218   6.218 -1.2544  1.6648 -0.1979
  294MOL0     H39662   3.535   5.341   6.436  0.2723 -1.0564 -0.4992
  294MOL0     H39663   3.368   5.374   6.468  1.5765  0.3781  1.1063
  294MOL0     H39664   3.496   5.557   6.363 -2.8634  1.9870  0.1583
  294MOL0     H39665   3.518   5.464   6.212  1.1103 -1.7810  0.9500
  294MOL0     H39666   3.238   5.498   6.345  0.3127  0.2348 -0.6479
  294MOL0     H39667   3.291   5.472   6.175  6.3200  0.2695 -3.0121
  294MOL0     H39668   3.370   5.723   6.174  0.0907  2.8034 -0.1790
  294MOL0     H39669   3.220   5.741   6.245  3.5879  6.4144 -0.8584
  294MOL0     H39670   3.382   4.712   6.530  2.1487 -1.9759  2.3583
  294MOL0     H39671   3.495   4.506   6.602  1.2321 -2.9664 -1.0313
  294MOL0     H39672   3.820   4.229   6.557 -3.0612  0.9032  1.0941
  294MOL0     H39673   3.981   4.044   6.607 -0.0362 -1.8237  2.2040
  294MOL0     H39674   3.775   4.549   6.626  2.4018 -0.5871  0.5716
  294MOL0     H39675   3.690   4.687   6.789 -0.4409 -0.7627 -1.0080
  294MOL0     H39676   3.599   4.957   7.003  2.1152  2.7598  0.1010
  294MOL0     H39677   3.473   4.971   7.219 -0.7250 -2.0681 -1.5671
  294MOL0     H39678   3.193   5.302   7.350 -0.1735  0.8957 -0.5079
  294MOL0     H39679   3.141   5.295   7.182 -1.3864  0.0009  0.9313
  294MOL0     H39680   3.418   5.321   7.246 -0.6140 -2.8235 -1.5363
  294MOL0     H39681   3.328   5.460   7.287  0.6273 -1.1377  1.2986
  294MOL0     H39682   3.352   5.355   6.993 -1.5207  1.7109 -0.7868
  294MOL0     H39683   3.435   5.488   7.073  0.0130  0.4673  1.1009
  294MOL0     H39684   3.130   5.484   7.036 -0.3970 -0.4282  1.3472
  294MOL0     H39685   3.228   5.612   7.105 -1.3227 -0.8921  1.2496
  294MOL0     H39686   3.241   5.691   6.699  0.8302  0.0743  0.2729
  294MOL0     H39687   3.141   5.138   7.020 -0.1521  1.1363  0.2174
  294MOL0     H39688   3.252   5.122   6.677  0.2595  1.9602  0.3727
  294MOL0     H39689   3.143   4.996   6.747  1.0292 -0.4294 -0.0113
  294MOL0     H39690   3.131   5.167   6.795 -0.3127 -1.1922 -0.6412
  295MOL0     O39691   4.738   1.329   8.859 -0.0552  0.2442  0.0455
  295MOL0     C39692   4.786   1.425   8.798 -1.1660 -0.0538  0.6243
  295MOL0     O39693   4.911   1.433   8.750 -0.5053 -0.7400 -0.4765
  295MOL0     C39694   4.994   1.326   8.744  0.1808 -0.4190 -0.2063
  295MOL0     C39695   5.097   1.316   8.832  0.0762  0.5545 -0.2563
  295MOL0     C39696   5.183   1.204   8.831  0.2555  0.2160  0.8646
  295MOL0     C39697   5.163   1.098   8.744 -0.0384 -0.2137 -0.2058
  295MOL0     O39698   5.243   0.982   8.743 -0.2943  0.2163  0.1772
  295MOL0     C39699   5.350   0.989   8.641  0.2602 -0.2712  0.3608
  295MOL0     C39700   5.476   0.912   8.675 -0.6979 -0.3094 -0.0720
  295MOL0     C39701   5.460   0.756   8.648 -0.3344 -0.4203  0.3679
  295MOL0     C39702   5.498   0.707   8.504  0.1730 -0.3410  0.1974
  295MOL0     C39703   5.488   0.553   8.490 -0.5849  0.2870  0.5017
  295MOL0     C39704   5.620   0.505   8.559 -0.2626 -0.6813 -0.2644
  295MOL0     C39705   5.664   0.357   8.536  0.2387  0.8493 -0.0240
  295MOL0     C39706   5.534   0.263   8.554 -0.6185  0.7717 -0.8912
  295MOL0     N39707   5.577   0.120   8.543  0.6938 -0.2202  0.0631
  295MOL0     C39708   5.687   0.076   8.623  0.0838  0.9819 -0.4518
  295MOL0     C39709   5.660  -0.059   8.632 -1.3096  0.6418 -0.0232
  295MOL0     C39710   5.752  -0.166   8.709  0.2361  0.1227 -0.1252
  295MOL0     C39711   5.753  -0.148   8.856  0.6915 -0.7871 -0.0229
  295MOL0     C39712   5.873  -0.209   8.932 -0.3168  0.6380 -0.4612
  295MOL0     C39713   5.877  -0.163   9.076 -0.1912 -0.1131  0.6269
  295MOL0     O39714   5.752  -0.189   9.150  0.2633  0.7105  0.3794
  295MOL0     C39715   5.720  -0.316   9.180  0.0043  0.5900 -0.3274
  295MOL0     C39716   5.811  -0.423   9.151  0.4203 -0.1188 -0.3773
  295MOL0     C39717   5.785  -0.552   9.202 -0.1393 -0.0375  0.0799
  295MOL0     C39718   5.684  -0.579   9.304 -0.4183  1.8251  0.4074
  295MOL0     C39719   5.669  -0.714   9.362  0.2358  0.4325  0.8320
  295MOL0     O39720   5.553  -0.728   9.430  0.7764  0.9444 -0.2820
  295MOL0     C39721   5.529  -0.853   9.485  0.0556  0.0878  0.3917
  295MOL0     C39722   5.540  -0.972   9.413 -0.3719  0.7510  0.9048
  295MOL0     C39723   5.541  -1.095   9.483  0.2866 -0.0868  0.8702
  295MOL0     C39724   5.505  -1.101   9.616 -0.4417 -0.2439  0.1532
  295MOL0     O39725   5.506  -1.215   9.688 -0.5581 -0.2079 -0.1683
  295MOL0     C39726   5.381  -1.254   9.758  0.0414  0.1190 -0.3240
  295MOL0     C39727   5.425  -1.300   9.895  0.1105  0.3365 -1.1188
  295MOL0     C39728   5.323  -1.411   9.929 -0.2937  0.3944  0.6665
  295MOL0     C39729   5.327  -1.461  10.075  0.1917 -0.0783  0.1333
  295MOL0     C39730   5.227  -1.571  10.115  0.2802  0.2932  0.2063
  295MOL0     C39731   5.079  -1.534  10.074  0.3888 -0.3221 -0.0314
  295MOL0     C39732   4.976  -1.647  10.114 -0.0251 -0.3686 -0.3831
  295MOL0     C39733   4.840  -1.609  10.057  0.0239  0.5947 -0.0922
  295MOL0    Cl39734   4.741  -1.751  10.013 -0.5351 -0.6210 -0.0302
  295MOL0     C39735   5.483  -0.981   9.688  0.5232 -0.3921  0.9960
  295MOL0     C39736   5.505  -0.859   9.626 -0.4816  0.6910  0.3716
  295MOL0     O39737   5.767  -0.782   9.371 -0.2155 -0.2139  0.3228
  295MOL0     C39738   5.595  -0.466   9.340 -0.3244  0.5300 -1.1284
  295MOL0     C39739   5.609  -0.340   9.269  0.1098  0.3465 -0.2874
  295MOL0     N39740   5.537  -0.084   8.570 -0.3524  0.0650 -0.5306
  295MOL0     N39741   5.491   0.018   8.512  0.2226 -0.0801  0.3245
  295MOL0     C39742   5.057   1.104   8.652  0.2947 -0.5366  0.4132
  295MOL0     C39743   4.976   1.222   8.646  0.3688  1.0784  0.9754
  295MOL0     C39744   4.702   1.543   8.776 -0.4952 -0.1973 -0.5670
  295MOL0     C39745   4.773   1.657   8.720 -0.0230  0.2915  0.1463
  295MOL0     C39746   4.703   1.785   8.708 -0.5197  0.6464 -1.0235
  295MOL0     C39747   4.570   1.809   8.759  0.0932 -0.4098 -0.8981
  295MOL0     O39748   4.498   1.929   8.766 -0.4116  0.6127 -1.3252
  295MOL0     C39749   4.561   2.054   8.719 -0.5188 -0.1553 -0.3906
  295MOL0     C39750   4.689   2.111   8.790 -0.5283  0.1063 -0.3837
  295MOL0     C39751   4.671   2.195   8.914  0.3412  0.1059  0.2866
  295MOL0     C39752   4.639   2.344   8.885 -0.7096 -0.7229 -0.3828
  295MOL0     C39753   4.585   2.395   9.012 -0.1782 -0.3879  0.7118
  295MOL0     C39754   4.545   2.442   9.116 -0.9228 -0.1081 -0.3560
  295MOL0     C39755   4.509   1.697   8.816 -0.1464 -0.3541  0.8652
  295MOL0     C39756   4.565   1.566   8.819  0.3933  0.2069 -0.1819
  295MOL0     C39757   4.477   1.463   8.887  0.0700  0.8222 -0.7747
  295MOL0     H39758   5.107   1.400   8.900 -1.5083  2.0002 -1.6864
  295MOL0     H39759   5.268   1.194   8.899  0.0756  2.7085  1.5526
  295MOL0     H39760   5.310   0.959   8.544 -1.1957  1.8886  0.2309
  295MOL0     H39761   5.372   1.095   8.628 -0.1463  0.0123  1.8285
  295MOL0     H39762   5.499   0.919   8.781 -0.1182  0.1671 -0.2262
  295MOL0     H39763   5.560   0.947   8.614 -1.7346 -1.5392 -2.3313
  295MOL0     H39764   5.354   0.731   8.660 -1.6337  2.9690 -2.2240
  295MOL0     H39765   5.524   0.704   8.720 -1.2846 -0.7778  0.9719
  295MOL0     H39766   5.425   0.748   8.434 -2.4869 -0.8883  2.4888
  295MOL0     H39767   5.595   0.739   8.464  0.0056  0.4364  0.3924
  295MOL0     H39768   5.403   0.509   8.544 -1.3932  0.6779 -0.4339
  295MOL0     H39769   5.480   0.499   8.395 -0.1649 -2.0088  1.6803
  295MOL0     H39770   5.708   0.566   8.537  1.2950 -2.0148  1.8176
  295MOL0     H39771   5.600   0.520   8.666  1.0853 -0.9599  0.0493
  295MOL0     H39772   5.740   0.341   8.612 -0.3005 -0.8041  0.2050
  295MOL0     H39773   5.710   0.338   8.438  1.9548  0.1962  0.8784
  295MOL0     H39774   5.487   0.271   8.653  0.1902 -1.2831 -0.2707
  295MOL0     H39775   5.459   0.280   8.477 -0.7770  2.3204 -0.4254
  295MOL0     H39776   5.762   0.135   8.674  0.7232  0.2556 -0.5107
  295MOL0     H39777   5.719  -0.268   8.686  1.6585  0.2207 -2.9557
  295MOL0     H39778   5.857  -0.157   8.680  1.4869 -0.5575  3.6821
  295MOL0     H39779   5.745  -0.041   8.873 -0.9103 -1.0593  1.2070
  295MOL0     H39780   5.657  -0.182   8.895 -2.2019  4.1259 -1.9598
  295MOL0     H39781   5.969  -0.191   8.883 -0.8891  0.8741 -1.5177
  295MOL0     H39782   5.860  -0.316   8.918 -3.0871  0.8101  0.1871
  295MOL0     H39783   5.893  -0.055   9.069 -0.0288  0.0127  2.5107
  295MOL0     H39784   5.966  -0.204   9.122 -0.8028 -1.6071  0.5361
  295MOL0     H39785   5.903  -0.409   9.095  0.7673  1.2697  0.4889
  295MOL0     H39786   5.848  -0.637   9.180 -0.1590  0.1333 -0.6883
  295MOL0     H39787   5.572  -0.973   9.310  1.6334  1.7544  1.4494
  295MOL0     H39788   5.566  -1.182   9.422 -0.4881  1.4430 -1.8175
  295MOL0     H39789   5.313  -1.170   9.778  1.2590  0.4290  3.0960
  295MOL0     H39790   5.326  -1.325   9.696  2.6270 -1.8942 -0.4417
  295MOL0     H39791   5.529  -1.332   9.886  0.9771  1.4786  2.8733
  295MOL0     H39792   5.419  -1.222   9.972 -1.5365 -2.3545  1.7316
  295MOL0     H39793   5.228  -1.367   9.899  0.3102  1.7079  0.6116
  295MOL0     H39794   5.351  -1.497   9.867 -0.4682 -0.7623  2.1368
  295MOL0     H39795   5.290  -1.373  10.127  0.5057  2.1901 -3.1503
  295MOL0     H39796   5.428  -1.486  10.110  0.2456  1.3591  1.0545
  295MOL0     H39797   5.221  -1.590  10.222  2.4394 -1.0579  0.1531
  295MOL0     H39798   5.262  -1.662  10.064  1.6405  0.1284  1.3867
  295MOL0     H39799   5.051  -1.440  10.120 -0.3390 -1.8898  3.0018
  295MOL0     H39800   5.066  -1.519   9.967  0.9561  0.1532 -0.0424
  295MOL0     H39801   4.987  -1.648  10.223 -0.7428  0.0644 -0.3029
  295MOL0     H39802   5.022  -1.740  10.078  2.0772  0.6570 -0.5028
  295MOL0     H39803   4.780  -1.559  10.134  0.5360  1.6746 -0.3933
  295MOL0     H39804   4.851  -1.554   9.964 -2.0024  0.1732 -0.6484
  295MOL0     H39805   5.477  -0.986   9.796 -0.1889 -2.2031  0.9067
  295MOL0     H39806   5.499  -0.766   9.682 -1.9724 -0.1552  1.6909
  295MOL0     H39807   5.515  -0.482   9.412 -0.8967  1.6161 -1.5136
  295MOL0     H39808   5.541  -0.258   9.291 -3.9087 -2.3209 -1.5831
  295MOL0     H39809   5.041   1.013   8.597 -0.5974 -1.1248  1.6052
  295MOL0     H39810   4.904   1.235   8.566  0.5743 -3.5310 -0.2523
  295MOL0     H39811   4.873   1.647   8.679 -0.2960 -1.0569 -0.2516
  295MOL0     H39812   4.770   1.857   8.662  3.0944 -2.2862 -0.8719
  295MOL0     H39813   4.484   2.132   8.725  0.0366  0.4462 -0.9046
  295MOL0     H39814   4.592   2.049   8.614  1.9155  2.4496  0.0607
  295MOL0     H39815   4.731   2.183   8.719  0.3339 -0.6038 -0.6170
  295MOL0     H39816   4.763   2.032   8.809  0.0886  0.9142  0.7005
  295MOL0     H39817   4.767   2.197   8.966  0.8153  3.7547 -0.4677
  295MOL0     H39818   4.595   2.152   8.980  0.4483 -1.5985 -0.6374
  295MOL0     H39819   4.720   2.410   8.853 -0.9802  0.3408  1.0421
  295MOL0     H39820   4.561   2.357   8.810 -0.8962 -0.7190 -0.1900
  295MOL0     H39821   4.508   2.469   9.213  0.3160 -0.5260  0.2539
  295MOL0     H39822   4.414   1.721   8.862 -1.2214  1.6449 -2.0724
  295MOL0     H39823   4.494   1.374   8.825 -0.0412 -0.3237  0.7900
  295MOL0     H39824   4.515   1.443   8.987 -1.8164  0.5750 -0.0787
  295MOL0     H39825   4.368   1.473   8.885  0.0376  1.3073  1.6732
  296MOL0     O39826   6.976   6.216   0.757  0.0413 -0.7270 -0.5035
  296MOL0     C39827   7.039   6.294   0.829  0.0671 -0.9980  0.2607
  296MOL0     O39828   7.019   6.311   0.960 -0.8638 -0.4042 -0.3490
  296MOL0     C39829   6.931   6.222   1.014 -0.8609  1.2635  0.0749
  296MOL0     C39830   6.798   6.237   1.035  0.5694 -0.7440  0.2614
  296MOL0     C39831   6.716   6.136   1.090  0.5261 -0.1820 -0.4373
  296MOL0     C39832   6.761   6.015   1.134  0.1479  0.2641  0.0442
  296MOL0     O39833   6.678   5.910   1.171 -0.5934 -0.0527 -0.1440
  296MOL0     C39834   6.542   5.906   1.137 -0.5516 -0.4302  0.0581
  296MOL0     C39835   6.489   5.761   1.125 -0.3541 -0.8862  1.0269
  296MOL0     C39836   6.341   5.761   1.142 -0.2350 -0.6679  0.3758
  296MOL0     C39837   6.273   5.837   1.036 -0.2685  0.3215  0.6865
  296MOL0     C39838   6.149   5.907   1.085  0.5728 -0.8401 -0.8450
  296MOL0     C39839   6.077   5.993   0.981  0.3156  0.5618 -0.3642
  296MOL0     C39840   6.181   6.089   0.916  0.6006 -0.3615  0.1751
  296MOL0     C39841   6.230   6.189   1.017  0.5979 -0.3571  0.3220
  296MOL0     N39842   6.290   6.318   0.973  1.1912 -0.0479 -0.3536
  296MOL0     C39843   6.339   6.408   1.057  1.6817 -0.2901 -0.1102
  296MOL0     C39844   6.389   6.505   0.976  0.8162  1.0390 -0.4179
  296MOL0     C39845   6.482   6.617   1.029 -0.0326  0.6221  0.5347
  296MOL0     C39846   6.540   6.713   0.921  0.9796 -0.0930 -0.3428
  296MOL0     C39847   6.677   6.653   0.871 -0.5064 -0.3164  0.2094
  296MOL0     C39848   6.789   6.673   0.973 -0.9859  1.2364 -0.1772
  296MOL0     O39849   6.796   6.812   1.021  0.5133  0.3058 -0.4120
  296MOL0     C39850   6.891   6.851   1.117 -0.1873  1.0298  1.3736
  296MOL0     C39851   6.947   6.760   1.214 -0.6439 -0.0934 -0.1981
  296MOL0     C39852   7.041   6.807   1.316  0.1278  0.5350  0.3357
  296MOL0     C39853   7.080   6.937   1.324  0.6816  0.2306 -0.0348
  296MOL0     C39854   7.162   6.987   1.442  0.3379  0.9048 -0.1201
  296MOL0     O39855   7.175   6.905   1.553 -0.5855 -0.0970  0.3410
  296MOL0     C39856   7.265   6.932   1.656  0.3098  1.3342 -1.0361
  296MOL0     C39857   7.253   6.857   1.779  0.9515 -0.6900  0.9890
  296MOL0     C39858   7.338   6.870   1.888  0.2843 -1.0051  0.2142
  296MOL0     C39859   7.446   6.980   1.889 -0.9204 -0.1472  0.1067
  296MOL0     O39860   7.544   6.987   1.989  0.6267 -0.3223 -0.3107
  296MOL0     C39861   7.511   6.925   2.108  0.6997  0.7393 -0.2788
  296MOL0     C39862   7.572   6.993   2.226  0.1943 -0.1458  0.1241
  296MOL0     C39863   7.526   6.935   2.362  0.6172 -0.3916 -1.2259
  296MOL0     C39864   7.589   6.800   2.386  0.2337 -0.0063 -1.0371
  296MOL0     C39865   7.551   6.738   2.519 -0.8712  0.3346  0.1365
  296MOL0     C39866   7.399   6.735   2.561 -0.7277 -0.0510 -0.2879
  296MOL0     C39867   7.374   6.679   2.698  0.4932 -0.8006  0.0508
  296MOL0     C39868   7.401   6.532   2.715 -0.0350 -1.0817  0.3182
  296MOL0    Cl39869   7.318   6.454   2.589 -0.3869  0.0850 -0.5023
  296MOL0     C39870   7.465   7.051   1.765  0.8900 -0.0065 -0.4708
  296MOL0     C39871   7.372   7.034   1.665 -0.1444  0.4414  0.6137
  296MOL0     O39872   7.209   7.100   1.438  0.8976 -0.2978  0.6677
  296MOL0     C39873   7.020   7.025   1.229  0.8949  0.4219  0.8462
  296MOL0     C39874   6.932   6.983   1.125 -0.7096 -0.9011 -0.5478
  296MOL0     N39875   6.376   6.468   0.847  0.2260  0.4254 -0.4206
  296MOL0     N39876   6.311   6.358   0.846 -0.1165 -0.1076 -0.3621
  296MOL0     C39877   6.897   5.990   1.115  0.0082 -0.1275  0.9430
  296MOL0     C39878   6.980   6.096   1.054 -0.5788  0.6653  0.2331
  296MOL0     C39879   7.136   6.375   0.758  0.5850 -0.5795 -0.1953
  296MOL0     C39880   7.112   6.443   0.634  0.8917 -0.1859 -0.6044
  296MOL0     C39881   7.202   6.520   0.571 -0.0813 -0.1500  0.3921
  296MOL0     C39882   7.325   6.543   0.630  0.3899  0.0025 -0.6141
  296MOL0     O39883   7.431   6.607   0.581 -0.0536  0.3875 -0.1471
  296MOL0     C39884   7.436   6.618   0.439  0.1029  0.7005  0.0714
  296MOL0     C39885   7.555   6.711   0.408 -0.3618 -1.0965  0.3908
  296MOL0     C39886   7.646   6.644   0.298 -0.5383 -0.7413  0.6373
  296MOL0     C39887   7.752   6.735   0.248 -0.2711  0.0062 -0.5209
  296MOL0     C39888   7.726   6.800   0.122 -0.7916  0.5380  1.3671
  296MOL0     C39889   7.695   6.836   0.010  1.2519 -1.0434 -0.3977
  296MOL0     C39890   7.349   6.480   0.752 -0.6046 -0.4964  0.2148
  296MOL0     C39891   7.261   6.402   0.817 -0.1377 -0.5913  0.2902
  296MOL0     C39892   7.313   6.343   0.951  0.0817 -0.0793  0.0383
  296MOL0     H39893   6.758   6.334   1.007 -2.0246 -1.4304  1.3158
  296MOL0     H39894   6.615   6.161   1.122  2.1799  3.4985  2.7515
  296MOL0     H39895   6.486   5.965   1.210  1.5113 -0.5207  1.8437
  296MOL0     H39896   6.529   5.962   1.045  1.9515  1.9744  1.0420
  296MOL0     H39897   6.542   5.694   1.193 -0.0445  0.4346  2.0998
  296MOL0     H39898   6.526   5.733   1.026  1.1019  2.8457  0.3709
  296MOL0     H39899   6.334   5.813   1.238 -0.8861  1.5232 -0.7968
  296MOL0     H39900   6.302   5.659   1.144  0.1948 -0.8612 -0.5818
  296MOL0     H39901   6.339   5.913   0.995  0.5120 -0.1598  1.0374
  296MOL0     H39902   6.256   5.778   0.946  1.3642 -2.7207  2.2028
  296MOL0     H39903   6.074   5.850   1.140  1.0094  0.8552  1.6366
  296MOL0     H39904   6.184   5.981   1.157  0.6718 -1.6885 -0.0013
  296MOL0     H39905   6.046   5.923   0.903 -0.6455  0.2754  0.2513
  296MOL0     H39906   5.991   6.040   1.030 -0.2344 -0.8008  0.0395
  296MOL0     H39907   6.123   6.137   0.837  0.6211 -2.7941 -1.4398
  296MOL0     H39908   6.256   6.038   0.855  2.6776  1.4747  1.0569
  296MOL0     H39909   6.145   6.214   1.080 -2.3388 -3.5536 -2.0026
  296MOL0     H39910   6.311   6.136   1.068  2.4513  2.2237  0.2971
  296MOL0     H39911   6.345   6.406   1.166  1.6819  1.2205 -0.0551
  296MOL0     H39912   6.437   6.681   1.105  0.2354  3.3978 -1.4835
  296MOL0     H39913   6.564   6.561   1.074 -0.6174 -0.1944  0.5943
  296MOL0     H39914   6.463   6.720   0.844  1.4707  0.1168 -0.8173
  296MOL0     H39915   6.543   6.813   0.967 -0.3797 -0.7714  1.3561
  296MOL0     H39916   6.696   6.702   0.775 -0.8822  0.1774  0.3808
  296MOL0     H39917   6.662   6.550   0.837 -1.9105 -0.9369  2.4818
  296MOL0     H39918   6.885   6.645   0.929 -1.6711 -0.6501 -0.5968
  296MOL0     H39919   6.775   6.602   1.055  1.2542  2.2794  1.1820
  296MOL0     H39920   6.898   6.664   1.205 -1.5780  0.3132  0.3856
  296MOL0     H39921   7.089   6.741   1.388  0.0762 -0.6214 -0.6341
  296MOL0     H39922   7.194   6.766   1.777  0.9514 -0.8006  3.2086
  296MOL0     H39923   7.318   6.811   1.977  3.0638 -1.1649  0.8233
  296MOL0     H39924   7.404   6.936   2.130  1.5002  2.9002  3.2230
  296MOL0     H39925   7.538   6.821   2.089  3.0420  0.8990  1.7628
  296MOL0     H39926   7.680   6.979   2.220  0.4927  0.4698  2.8600
  296MOL0     H39927   7.537   7.096   2.220 -3.4603 -1.2033  0.6785
  296MOL0     H39928   7.558   7.000   2.444 -2.9705 -1.1260  0.9539
  296MOL0     H39929   7.418   6.946   2.374  0.7226  2.1002 -1.9958
  296MOL0     H39930   7.698   6.804   2.399 -0.0743 -0.0272  2.5327
  296MOL0     H39931   7.566   6.727   2.309 -0.7787  0.8472 -1.5816
  296MOL0     H39932   7.602   6.797   2.596 -1.5604  1.8547 -0.5312
  296MOL0     H39933   7.609   6.646   2.523  2.6960  2.4207  2.2712
  296MOL0     H39934   7.352   6.834   2.556  0.6864  0.7009  0.4362
  296MOL0     H39935   7.353   6.673   2.484  2.2936 -1.9988 -0.6897
  296MOL0     H39936   7.274   6.712   2.729  1.8790  0.3419  3.7216
  296MOL0     H39937   7.443   6.742   2.754 -2.8628  2.0303  1.3876
  296MOL0     H39938   7.505   6.499   2.707 -0.0307 -1.3654  1.3134
  296MOL0     H39939   7.355   6.496   2.808 -2.1108  0.2587 -0.1103
  296MOL0     H39940   7.557   7.106   1.745  1.4600 -1.2742 -1.5025
  296MOL0     H39941   7.397   7.093   1.578 -4.8139 -1.3518 -2.3130
  296MOL0     H39942   7.043   7.130   1.215 -3.7487  1.4619 -0.6036
  296MOL0     H39943   6.912   7.046   1.039 -1.0214  0.6921  0.6551
  296MOL0     H39944   6.944   5.903   1.162 -1.8581 -2.5861 -1.4071
  296MOL0     H39945   7.087   6.077   1.047 -1.0158 -3.6770  2.0725
  296MOL0     H39946   7.019   6.421   0.581 -1.2725 -0.8899  3.1350
  296MOL0     H39947   7.184   6.574   0.478 -2.3082 -1.6817 -0.1717
  296MOL0     H39948   7.353   6.664   0.385 -1.5445 -0.8260  1.2002
  296MOL0     H39949   7.460   6.519   0.398  0.0050 -0.3090  2.3355
  296MOL0     H39950   7.612   6.723   0.500 -1.3874  2.5636  0.6964
  296MOL0     H39951   7.529   6.813   0.379  0.6017 -0.7610  0.6726
  296MOL0     H39952   7.585   6.611   0.213 -0.1870 -0.4126  0.2536
  296MOL0     H39953   7.700   6.555   0.331  1.5187  0.1479 -0.1257
  296MOL0     H39954   7.775   6.811   0.324  2.2691 -0.5249 -0.6912
  296MOL0     H39955   7.842   6.675   0.238  1.5412  2.2939  0.9489
  296MOL0     H39956   7.684   6.854  -0.095  0.0144 -3.2339 -0.6934
  296MOL0     H39957   7.448   6.500   0.793  0.4927 -0.4063 -2.2814
  296MOL0     H39958   7.306   6.234   0.947 -1.4598 -0.0099  0.2956
  296MOL0     H39959   7.415   6.371   0.981  0.5055 -0.4020 -1.0735
  296MOL0     H39960   7.251   6.395   1.025  0.5986  3.5023 -1.7812
  297MOL0     O39961   4.025   7.738   9.748  0.4188  0.8909 -0.2493
  297MOL0     C39962   4.050   7.631   9.816  0.5744 -1.0260 -0.0949
  297MOL0     O39963   4.161   7.615   9.889  0.4563 -0.1439 -0.5529
  297MOL0     C39964   4.251   7.718   9.880  0.1630 -0.1438  0.3128
  297MOL0     C39965   4.365   7.715   9.801  0.8822 -0.1704  0.5075
  297MOL0     C39966   4.456   7.821   9.799  0.2666  0.0251  0.0647
  297MOL0     C39967   4.447   7.934   9.881  0.4425  0.4215 -0.1423
  297MOL0     O39968   4.529   8.035   9.873 -0.6216  0.1517  0.5891
  297MOL0     C39969   4.539   8.084   9.744 -0.4051 -0.8804  0.0038
  297MOL0     C39970   4.618   8.217   9.740 -0.6304 -0.1345  0.3829
  297MOL0     C39971   4.639   8.269   9.589  0.3828 -0.4259  0.3217
  297MOL0     C39972   4.719   8.401   9.577 -0.0579 -0.5884 -0.1451
  297MOL0     C39973   4.636   8.511   9.636 -0.2131  0.3415 -0.1460
  297MOL0     C39974   4.712   8.646   9.634  0.1119 -0.3771 -0.2481
  297MOL0     C39975   4.600   8.750   9.659 -0.6196  0.7404  0.2127
  297MOL0     C39976   4.663   8.892   9.653  0.2616  0.0308 -0.4375
  297MOL0     N39977   4.559   8.989   9.622  0.1081  0.0887  0.6885
  297MOL0     C39978   4.464   9.024   9.711  0.2907  1.0194 -0.4190
  297MOL0     C39979   4.388   9.103   9.632  0.1591  0.1829 -0.1709
  297MOL0     C39980   4.248   9.153   9.668 -0.2922  0.1394  0.0018
  297MOL0     C39981   4.143   9.048   9.694  0.3927  0.9027 -0.2791
  297MOL0     C39982   4.101   8.961   9.577  0.3293  1.1390 -0.3936
  297MOL0     C39983   4.006   9.038   9.484  0.0126  0.4628  0.1200
  297MOL0     O39984   3.906   8.938   9.446 -0.0926 -0.3649 -0.3074
  297MOL0     C39985   3.918   8.888   9.316  0.1091 -0.0182  0.1157
  297MOL0     C39986   3.879   8.955   9.196  0.2586  0.0145 -0.0843
  297MOL0     C39987   3.865   8.874   9.080 -0.6374 -0.3372 -0.5620
  297MOL0     C39988   3.907   8.738   9.084 -0.5678  0.3871 -0.5084
  297MOL0     C39989   3.896   8.656   8.963  0.7456 -1.0706 -1.9102
  297MOL0     O39990   3.802   8.702   8.868 -0.0396  0.3011 -0.1033
  297MOL0     C39991   3.797   8.642   8.744 -0.3227  0.2084  0.0525
  297MOL0     C39992   3.667   8.621   8.692 -0.4029 -0.4396  0.9770
  297MOL0     C39993   3.655   8.570   8.553  0.6405  0.0987 -0.0852
  297MOL0     C39994   3.768   8.538   8.471  0.5630  0.5661 -0.3758
  297MOL0     O39995   3.754   8.477   8.348  0.6006 -0.7223 -0.3275
  297MOL0     C39996   3.631   8.423   8.311  0.1591 -0.2849  0.8966
  297MOL0     C39997   3.649   8.305   8.208  0.0861 -0.2157  0.1020
  297MOL0     C39998   3.512   8.253   8.166  0.2316  0.3081  0.7380
  297MOL0     C39999   3.522   8.163   8.040 -0.9111 -0.2242  0.1348
  297MOL0     C40000   3.399   8.077   8.037 -0.6962 -0.9626 -0.3210
  297MOL0     C40001   3.362   8.024   7.896  0.0956  0.6701  0.1162
  297MOL0     C40002   3.247   7.910   7.898 -0.6994  0.1196  0.0399
  297MOL0     C40003   3.120   7.956   7.953  0.2918 -0.2865  0.3595
  297MOL0    Cl40004   3.013   7.811   7.964  0.1242 -0.0903 -0.3786
  297MOL0     C40005   3.893   8.560   8.520  0.0322 -0.1032 -0.6198
  297MOL0     C40006   3.908   8.613   8.658  0.1987 -0.2061 -0.6782
  297MOL0     O40007   3.976   8.563   8.957 -1.1510  0.6043 -0.5092
  297MOL0     C40008   3.959   8.682   9.199 -0.0891 -0.4943  1.2498
  297MOL0     C40009   3.962   8.753   9.317  0.0454  0.9694 -0.1928
  297MOL0     N40010   4.448   9.124   9.512  0.1332 -0.1224 -0.3340
  297MOL0     N40011   4.557   9.055   9.505 -0.6064 -0.9638 -0.2884
  297MOL0     C40012   4.333   7.936   9.968  0.0747 -1.5851 -0.2546
  297MOL0     C40013   4.241   7.831   9.969 -0.5740  0.9505 -0.3719
  297MOL0     C40014   3.942   7.542   9.859 -0.4826 -0.5552  0.4582
  297MOL0     C40015   3.888   7.540   9.989 -0.1672  0.1069 -0.2050
  297MOL0     C40016   3.773   7.475  10.005 -0.1843 -0.5737 -0.8371
  297MOL0     C40017   3.709   7.398   9.917 -0.1689 -0.2702  0.6130
  297MOL0     O40018   3.588   7.337   9.942 -0.2464 -0.3307 -0.1728
  297MOL0     C40019   3.483   7.425   9.992 -0.4085  0.4690  1.6190
  297MOL0     C40020   3.334   7.376   9.971 -0.5503  0.1703 -0.2834
  297MOL0     C40021   3.229   7.430  10.077  0.0198  0.1380  0.4013
  297MOL0     C40022   3.082   7.414  10.031  0.2659 -0.4228 -0.2168
  297MOL0     C40023   3.000   7.502  10.119 -0.2168 -0.3949  1.1887
  297MOL0     C40024   2.944   7.577  10.189 -0.6107 -0.4745 -0.4722
  297MOL0     C40025   3.766   7.396   9.787  0.1798  0.4581 -0.1579
  297MOL0     C40026   3.881   7.460   9.759 -0.7647  0.3833  0.2136
  297MOL0     C40027   3.948   7.444   9.629  0.4278  0.1145  0.5475
  297MOL0     H40028   4.383   7.623   9.747  3.2067  0.8191 -0.5446
  297MOL0     H40029   4.533   7.798   9.726  1.7949 -0.5339  1.7807
  297MOL0     H40030   4.596   8.013   9.684  0.6804 -1.4558  1.6813
  297MOL0     H40031   4.438   8.102   9.704 -1.5223  2.2873  3.6169
  297MOL0     H40032   4.703   8.194   9.805 -3.5294 -0.8506  4.3346
  297MOL0     H40033   4.573   8.297   9.800 -1.0474  0.4566 -0.6980
  297MOL0     H40034   4.542   8.267   9.538 -0.7136  1.2404  2.1561
  297MOL0     H40035   4.699   8.193   9.539 -1.8686 -1.7304 -0.5281
  297MOL0     H40036   4.802   8.389   9.646 -1.5351 -0.1802  1.7901
  297MOL0     H40037   4.766   8.412   9.478 -0.6692 -5.3730 -1.1942
  297MOL0     H40038   4.541   8.523   9.582  0.1557 -1.4901 -1.2937
  297MOL0     H40039   4.605   8.487   9.738  0.5323 -1.1685 -0.2420
  297MOL0     H40040   4.782   8.643   9.718 -1.2571  0.5534  0.9638
  297MOL0     H40041   4.752   8.664   9.534 -2.8689 -0.9760 -1.6553
  297MOL0     H40042   4.554   8.721   9.753 -2.6662 -0.4747 -1.0769
  297MOL0     H40043   4.522   8.735   9.584  0.5646 -0.5867 -0.8150
  297MOL0     H40044   4.714   8.913   9.748 -0.9300 -0.5882  0.3564
  297MOL0     H40045   4.738   8.889   9.573 -0.4459 -1.1821 -1.0684
  297MOL0     H40046   4.449   8.993   9.814 -0.7437  1.8153 -0.3137
  297MOL0     H40047   4.262   9.231   9.743 -0.0914 -0.1040  0.2183
  297MOL0     H40048   4.217   9.219   9.586 -1.8357  3.8015  3.2321
  297MOL0     H40049   4.176   8.982   9.775  0.5744  2.4871  0.9675
  297MOL0     H40050   4.055   9.100   9.732 -0.8620 -0.1118 -1.6734
  297MOL0     H40051   4.044   8.880   9.623  2.4744 -0.3778 -0.2383
  297MOL0     H40052   4.176   8.900   9.526 -1.7930 -0.9276 -1.2035
  297MOL0     H40053   4.054   9.085   9.397  1.4264  0.8337  1.0596
  297MOL0     H40054   3.957   9.121   9.535 -3.8478 -1.2918 -0.4186
  297MOL0     H40055   3.864   9.063   9.203 -1.1593 -0.0313 -1.6035
  297MOL0     H40056   3.822   8.917   8.990 -0.9657  0.5912  0.0311
  297MOL0     H40057   3.580   8.641   8.754 -1.0223 -2.2666  0.7745
  297MOL0     H40058   3.551   8.573   8.522  0.6161 -4.9670 -1.3708
  297MOL0     H40059   3.569   8.376   8.389 -1.8548 -2.6591 -1.8703
  297MOL0     H40060   3.577   8.511   8.275 -0.4405  0.4158  3.3451
  297MOL0     H40061   3.690   8.348   8.115  0.2223  0.7236  0.5793
  297MOL0     H40062   3.716   8.223   8.233  0.1866 -0.7963 -1.8727
  297MOL0     H40063   3.472   8.193   8.248  1.8961  2.1291  3.0018
  297MOL0     H40064   3.443   8.333   8.139  1.1856  0.7700 -0.4492
  297MOL0     H40065   3.612   8.100   8.040 -1.9754 -1.8105 -1.2462
  297MOL0     H40066   3.517   8.217   7.945 -1.2985 -0.4960  0.0004
  297MOL0     H40067   3.311   8.119   8.086 -0.9350 -0.0165 -1.4990
  297MOL0     H40068   3.420   7.995   8.107  0.1154  0.1702  0.8138
  297MOL0     H40069   3.327   8.109   7.837 -5.5168 -0.3615  1.3405
  297MOL0     H40070   3.451   7.993   7.840 -0.8747 -0.8443 -0.6819
  297MOL0     H40071   3.281   7.826   7.960 -1.4361  0.8329  1.4686
  297MOL0     H40072   3.236   7.873   7.795 -1.1367 -2.4763  0.9332
  297MOL0     H40073   3.127   8.004   8.051 -0.2518 -1.2189  0.8636
  297MOL0     H40074   3.065   8.021   7.884 -0.4974  0.7359  1.8786
  297MOL0     H40075   3.966   8.535   8.444  1.1705 -0.2973  0.5101
  297MOL0     H40076   4.002   8.635   8.706 -0.4569 -1.6809  1.4750
  297MOL0     H40077   3.978   8.576   9.188 -1.5831 -0.6232 -0.5904
  297MOL0     H40078   3.985   8.707   9.412 -0.7665  1.0953  0.0721
  297MOL0     H40079   4.326   8.014  10.043 -0.3662 -1.0901 -0.8007
  297MOL0     H40080   4.147   7.830  10.024  0.3956  1.5440  1.3764
  297MOL0     H40081   3.935   7.597  10.069 -0.5385  0.7704 -0.4582
  297MOL0     H40082   3.733   7.474  10.106  1.8560 -0.6546  0.0153
  297MOL0     H40083   3.501   7.527   9.956  0.0026 -0.1800 -0.1122
  297MOL0     H40084   3.496   7.424  10.101  0.1476 -2.9543  1.6365
  297MOL0     H40085   3.338   7.267   9.971 -1.0654  0.1135 -2.5484
  297MOL0     H40086   3.301   7.397   9.869  1.3415 -0.4311 -1.0453
  297MOL0     H40087   3.250   7.535  10.099  1.4102  0.3056 -1.4960
  297MOL0     H40088   3.248   7.371  10.168  0.1649 -0.3736  0.0411
  297MOL0     H40089   3.081   7.446   9.926 -0.1707 -0.3894 -0.2022
  297MOL0     H40090   3.040   7.314  10.047  0.5810 -0.3147  1.5162
  297MOL0     H40091   2.897   7.648  10.254  1.3161 -1.2631  1.9068
  297MOL0     H40092   3.713   7.344   9.709 -2.9195  1.7584  0.9310
  297MOL0     H40093   3.884   7.475   9.547  1.2476 -1.6336 -0.8228
  297MOL0     H40094   4.046   7.491   9.614 -1.4262  3.8885 -0.8014
  297MOL0     H40095   3.969   7.338   9.611  1.5836  0.2131  1.1737
  298MOL0     O40096   9.436   3.956   8.819 -0.5337 -0.3965 -0.4144
  298MOL0     C40097   9.421   3.858   8.890  0.7841  0.4280 -0.1227
  298MOL0     O40098   9.525   3.772   8.927  0.6308  0.2971 -0.6070
  298MOL0     C40099   9.651   3.804   8.884  0.8609 -0.2861 -0.0013
  298MOL0     C40100   9.747   3.853   8.971  0.7936 -0.9218 -0.1283
  298MOL0     C40101   9.879   3.864   8.930  0.4403 -0.2890  0.8041
  298MOL0     C40102   9.916   3.817   8.808 -0.0103 -0.0725  1.1443
  298MOL0     O40103  10.047   3.843   8.766 -0.1719  0.4632 -0.4524
  298MOL0     C40104  10.086   3.822   8.629  0.8416 -0.0613 -0.5398
  298MOL0     C40105  10.224   3.870   8.607  0.1954  0.0479  0.2086
  298MOL0     C40106  10.332   3.811   8.693 -0.3926  0.7635  0.1627
  298MOL0     C40107  10.477   3.840   8.632  0.1286  0.6233 -0.7317
  298MOL0     C40108  10.557   3.710   8.641  0.2882 -0.4589  0.1517
  298MOL0     C40109  10.712   3.733   8.631 -0.4824 -0.3434  0.4268
  298MOL0     C40110  10.773   3.728   8.490 -0.8385  0.3187 -0.8441
  298MOL0     C40111  10.723   3.850   8.414 -0.6428 -0.8301  0.1269
  298MOL0     N40112  10.813   3.903   8.316 -0.1863 -1.1484  0.1368
  298MOL0     C40113  10.848   4.038   8.318 -0.7474  0.4097  0.8426
  298MOL0     C40114  10.897   4.063   8.190 -0.6548  0.5579  0.0817
  298MOL0     C40115  10.913   4.201   8.124 -0.0857  0.2571 -1.1619
  298MOL0     C40116  10.842   4.213   7.982 -0.6179 -0.0609 -0.8032
  298MOL0     C40117  10.911   4.321   7.900 -0.4238  0.7161 -0.9251
  298MOL0     C40118  10.921   4.450   7.979  0.1182  0.0532 -0.3845
  298MOL0     O40119  10.802   4.477   8.050 -0.5477  0.6994 -0.4266
  298MOL0     C40120  10.799   4.599   8.105 -0.3195  1.0042  0.4796
  298MOL0     C40121  10.804   4.710   8.027  0.0992  0.1143 -0.0762
  298MOL0     C40122  10.814   4.835   8.091  1.1016  0.7465 -1.0672
  298MOL0     C40123  10.806   4.845   8.234  0.3115  0.3976  0.4072
  298MOL0     C40124  10.817   4.976   8.298  0.2681 -1.0242  0.6239
  298MOL0     O40125  10.814   5.089   8.223 -0.0472  0.0860 -0.2055
  298MOL0     C40126  10.799   5.206   8.289 -0.4058 -0.1573 -0.3823
  298MOL0     C40127  10.915   5.285   8.313  0.0887  0.5879 -0.5727
  298MOL0     C40128  10.910   5.415   8.366  0.1951  0.5861  0.3213
  298MOL0     C40129  10.788   5.482   8.384 -0.4578  0.9681 -0.0016
  298MOL0     O40130  10.794   5.611   8.418  0.4170  0.9486  0.0141
  298MOL0     C40131  10.677   5.677   8.469 -0.1926  0.6906  0.3605
  298MOL0     C40132  10.721   5.774   8.576  0.0428  0.1587 -0.0083
  298MOL0     C40133  10.832   5.873   8.530 -0.5697 -0.3173  0.3212
  298MOL0     C40134  10.900   5.914   8.660 -0.2047  0.9327  1.1850
  298MOL0     C40135  11.030   5.823   8.678  0.2928 -0.2828 -0.6004
  298MOL0     C40136  11.095   5.846   8.822 -0.3073  0.1234 -0.0778
  298MOL0     C40137  10.996   5.808   8.941 -0.6161 -0.5850 -0.4369
  298MOL0     C40138  10.951   5.669   8.948  0.1321  0.9802  0.0219
  298MOL0    Cl40139  10.832   5.639   9.085 -0.6542 -0.5970  0.0198
  298MOL0     C40140  10.671   5.409   8.342  0.1607  0.0951 -1.2454
  298MOL0     C40141  10.679   5.266   8.322  0.3066 -0.1730 -0.4232
  298MOL0     O40142  10.835   4.973   8.420  0.7015  0.9722  0.2306
  298MOL0     C40143  10.802   4.728   8.314 -0.0499  0.1895  0.4037
  298MOL0     C40144  10.807   4.604   8.245 -0.0369  0.1174  0.5767
  298MOL0     N40145  10.892   3.949   8.124 -0.5997  0.0888 -0.0839
  298MOL0     N40146  10.836   3.856   8.196  0.1896 -0.5434 -0.4019
  298MOL0     C40147   9.822   3.773   8.720  0.7642  1.1607  1.5866
  298MOL0     C40148   9.687   3.756   8.761  0.2271 -0.1491 -0.3850
  298MOL0     C40149   9.281   3.814   8.928 -0.1141  1.1817 -0.0563
  298MOL0     C40150   9.273   3.709   9.025 -0.2169  0.1367  0.4844
  298MOL0     C40151   9.152   3.649   9.060 -0.6701  0.3573 -0.0893
  298MOL0     C40152   9.038   3.697   9.004  0.1895 -0.3239 -0.9677
  298MOL0     O40153   8.934   3.628   9.068  1.3427 -0.4812  0.0786
  298MOL0     C40154   8.803   3.657   9.012  0.5497  0.3158 -0.2292
  298MOL0     C40155   8.701   3.555   9.049  0.4919  0.6444 -0.2299
  298MOL0     C40156   8.674   3.545   9.207 -0.7758  0.2050 -0.4641
  298MOL0     C40157   8.602   3.420   9.257  0.1162 -0.0447 -1.1712
  298MOL0     C40158   8.456   3.425   9.217 -0.6290  0.5634  0.3350
  298MOL0     C40159   8.352   3.425   9.161 -0.0636 -0.3199 -0.4493
  298MOL0     C40160   9.041   3.806   8.913  0.1045 -1.0579  0.1177
  298MOL0     C40161   9.161   3.859   8.865  0.3826 -0.2384 -0.0939
  298MOL0     C40162   9.143   3.954   8.747  0.0139  0.1192 -0.5173
  298MOL0     H40163   9.707   3.897   9.062 -1.2740  2.9682 -2.6159
  298MOL0     H40164   9.954   3.914   8.992 -0.8462 -0.0874  2.2625
  298MOL0     H40165  10.078   3.713   8.618 -1.2568  0.1760 -1.9696
  298MOL0     H40166  10.008   3.862   8.563 -1.4974 -2.5551  0.5125
  298MOL0     H40167  10.225   3.977   8.629  2.4398  0.1932 -0.3471
  298MOL0     H40168  10.251   3.862   8.501 -0.1433  1.6039 -0.0260
  298MOL0     H40169  10.312   3.705   8.677  1.0954  0.8974 -3.6825
  298MOL0     H40170  10.339   3.837   8.799  1.8981  1.0782 -0.0184
  298MOL0     H40171  10.474   3.889   8.534  2.2010  1.5842 -0.3674
  298MOL0     H40172  10.530   3.914   8.692  0.3348 -1.1262  1.3526
  298MOL0     H40173  10.543   3.654   8.734  2.3526 -1.0265  0.1733
  298MOL0     H40174  10.522   3.650   8.557 -0.3163  0.4211 -0.2435
  298MOL0     H40175  10.736   3.829   8.678  1.2878  0.0095 -1.1053
  298MOL0     H40176  10.758   3.661   8.699 -1.1042  0.8241  2.1734
  298MOL0     H40177  10.759   3.627   8.451 -1.5554 -0.8996  2.2326
  298MOL0     H40178  10.882   3.736   8.493 -0.5039 -3.2570  0.4481
  298MOL0     H40179  10.640   3.809   8.356 -1.7944  2.4009 -0.6764
  298MOL0     H40180  10.692   3.927   8.485  2.9034 -0.0931  1.0851
  298MOL0     H40181  10.822   4.111   8.395 -3.5106  1.0262 -0.5449
  298MOL0     H40182  10.885   4.277   8.197  1.8988  0.8343 -0.9290
  298MOL0     H40183  11.021   4.211   8.110  0.2893 -0.1315  1.0299
  298MOL0     H40184  10.835   4.119   7.927 -0.6363 -0.8379  0.4984
  298MOL0     H40185  10.743   4.255   7.998  0.1765  1.8969 -0.7131
  298MOL0     H40186  10.853   4.361   7.816  0.4258 -2.7834 -3.4123
  298MOL0     H40187  11.010   4.285   7.870 -0.2406 -0.0197  0.4980
  298MOL0     H40188  10.960   4.528   7.913 -1.2181 -1.1025 -2.6345
  298MOL0     H40189  10.995   4.438   8.059 -1.1155 -0.6828  0.6784
  298MOL0     H40190  10.824   4.700   7.920  1.2437  3.2005 -0.2660
  298MOL0     H40191  10.811   4.925   8.030 -3.8310 -0.4298 -3.0799
  298MOL0     H40192  11.003   5.232   8.276 -0.7723 -0.8948 -0.6033
  298MOL0     H40193  11.004   5.465   8.388  1.1252 -1.3050  0.8606
  298MOL0     H40194  10.638   5.729   8.381  1.2528  1.4821  0.1554
  298MOL0     H40195  10.610   5.605   8.517 -0.6397  0.3038 -0.8005
  298MOL0     H40196  10.642   5.834   8.620 -0.3956 -0.1057 -0.4293
  298MOL0     H40197  10.753   5.710   8.659 -2.6854 -0.7431  0.4551
  298MOL0     H40198  10.913   5.837   8.465  0.5867 -1.1247  2.1452
  298MOL0     H40199  10.783   5.951   8.471  0.1468 -1.3151 -1.6799
  298MOL0     H40200  10.842   5.917   8.752  0.6752  1.6750  1.7308
  298MOL0     H40201  10.931   6.016   8.636 -0.7725  0.5946 -1.3720
  298MOL0     H40202  11.102   5.841   8.598  2.7475 -0.8060  1.3666
  298MOL0     H40203  11.014   5.715   8.672 -0.0303 -0.2928  0.2707
  298MOL0     H40204  11.189   5.792   8.839  1.2866  2.8104  0.1590
  298MOL0     H40205  11.122   5.951   8.827 -3.2871  0.9271  1.5555
  298MOL0     H40206  10.914   5.880   8.942 -0.8438 -0.7735 -2.1142
  298MOL0     H40207  11.035   5.818   9.043 -0.2094 -1.1205 -0.5311
  298MOL0     H40208  10.899   5.654   8.853  3.0645 -2.7275 -1.2562
  298MOL0     H40209  11.038   5.603   8.958 -0.6422 -0.2866 -1.1925
  298MOL0     H40210  10.572   5.455   8.340  0.2124  0.2504 -0.3640
  298MOL0     H40211  10.588   5.209   8.300 -0.7492  1.8979 -1.7353
  298MOL0     H40212  10.818   4.735   8.421  0.3210 -1.2474  0.4546
  298MOL0     H40213  10.809   4.506   8.291 -0.2011 -1.8735 -3.2720
  298MOL0     H40214   9.868   3.735   8.628  1.3428 -1.7840  2.9732
  298MOL0     H40215   9.613   3.709   8.697  0.4520 -0.5880 -0.3222
  298MOL0     H40216   9.364   3.693   9.081 -0.3672 -0.7468  0.4816
  298MOL0     H40217   9.144   3.578   9.141  0.3387 -1.4670 -1.5285
  298MOL0     H40218   8.791   3.667   8.904 -1.6388 -0.9716 -0.1719
  298MOL0     H40219   8.776   3.752   9.060 -3.1730 -1.4691  1.6681
  298MOL0     H40220   8.728   3.455   9.014  1.0254  1.0631 -1.0291
  298MOL0     H40221   8.605   3.579   9.002  0.0274 -2.6833 -1.2799
  298MOL0     H40222   8.619   3.635   9.236 -0.7816  0.2888 -0.7403
  298MOL0     H40223   8.771   3.538   9.257  0.0644  0.0413 -2.0509
  298MOL0     H40224   8.654   3.327   9.233 -2.0873 -2.0449  1.2208
  298MOL0     H40225   8.613   3.417   9.366  0.9149  0.0618 -1.2427
  298MOL0     H40226   8.261   3.426   9.106  0.7657  1.0387 -1.8713
  298MOL0     H40227   8.945   3.841   8.877  1.0568  0.0563 -1.4946
  298MOL0     H40228   9.039   3.986   8.734 -0.2116 -0.8817 -1.2157
  298MOL0     H40229   9.210   4.039   8.763  2.4050 -2.0331  1.6447
  298MOL0     H40230   9.185   3.905   8.659  0.2519 -3.2146  1.3087
  299MOL0     O40231   1.661   4.219   2.536  0.3675  0.4892  0.1115
  299MOL0     C40232   1.700   4.269   2.431 -0.4932 -0.2426  2.1175
  299MOL0     O40233   1.734   4.400   2.405  0.8362  0.2254 -0.0803
  299MOL0     C40234   1.713   4.492   2.499 -0.0543 -0.1345 -0.4725
  299MOL0     C40235   1.794   4.499   2.615 -0.7824 -0.0760  0.6904
  299MOL0     C40236   1.751   4.590   2.721  0.3051  1.0942 -0.3168
  299MOL0     C40237   1.634   4.653   2.714  0.7170  0.0294  0.3731
  299MOL0     O40238   1.598   4.741   2.816  0.9710  0.4804  0.4258
  299MOL0     C40239   1.617   4.728   2.957 -0.5080 -0.1711 -0.4246
  299MOL0     C40240   1.686   4.859   2.988 -0.0132  0.8879 -0.3499
  299MOL0     C40241   1.731   4.868   3.135 -0.3988  0.9485 -0.1638
  299MOL0     C40242   1.841   4.975   3.153 -0.1909 -0.2094  0.3222
  299MOL0     C40243   1.907   4.958   3.297 -0.6509  0.5789 -0.2924
  299MOL0     C40244   2.005   5.082   3.325  0.4017  0.5495 -0.0464
  299MOL0     C40245   1.950   5.225   3.298  0.1054 -0.3438 -0.2680
  299MOL0     C40246   1.826   5.266   3.384  1.2467  0.9868  0.2108
  299MOL0     N40247   1.774   5.388   3.353  0.2366 -0.4600 -0.1418
  299MOL0     C40248   1.647   5.418   3.305  0.2842 -0.3350 -1.0178
  299MOL0     C40249   1.637   5.549   3.300  0.2753 -0.6000  0.4792
  299MOL0     C40250   1.524   5.638   3.252 -0.6786  0.6122 -0.5097
  299MOL0     C40251   1.522   5.770   3.315 -1.1200  0.2421 -0.9214
  299MOL0     C40252   1.406   5.847   3.259 -0.2950  0.5712 -0.0209
  299MOL0     C40253   1.418   5.988   3.311 -0.0362  0.2407 -0.3918
  299MOL0     O40254   1.290   6.060   3.317 -0.2790  0.5348 -0.2544
  299MOL0     C40255   1.223   6.103   3.205  0.5566 -0.3469  1.4827
  299MOL0     C40256   1.278   6.148   3.086 -0.5590  0.0927  0.6273
  299MOL0     C40257   1.209   6.233   2.999  0.6383 -0.6815  0.9138
  299MOL0     C40258   1.071   6.253   3.020  0.0959 -0.5205  0.6209
  299MOL0     C40259   1.003   6.350   2.932  0.8950  0.0442  0.1289
  299MOL0     O40260   1.077   6.455   2.887 -0.2694  0.4595 -0.6010
  299MOL0     C40261   1.028   6.553   2.799 -0.4257  0.2872 -0.0458
  299MOL0     C40262   1.115   6.602   2.697  0.2438 -0.4670  0.0862
  299MOL0     C40263   1.072   6.690   2.602 -0.0302  0.0083  1.4450
  299MOL0     C40264   0.935   6.729   2.596 -0.7442 -0.0780  0.6166
  299MOL0     O40265   0.877   6.811   2.496  0.4633 -0.5983 -0.3823
  299MOL0     C40266   0.761   6.775   2.428 -0.0537 -0.2285  0.2076
  299MOL0     C40267   0.658   6.891   2.407  0.3098  0.5357 -0.0974
  299MOL0     C40268   0.695   6.994   2.309  0.1348 -0.1855  0.0634
  299MOL0     C40269   0.575   7.055   2.236  0.1795 -0.9737 -0.2737
  299MOL0     C40270   0.609   7.135   2.108 -0.6207  0.3967  0.1009
  299MOL0     C40271   0.478   7.170   2.033 -0.7116 -0.5161 -0.5809
  299MOL0     C40272   0.522   7.259   1.918  0.9115  0.8371 -0.3387
  299MOL0     C40273   0.411   7.249   1.805  0.6150 -0.3584  0.1562
  299MOL0    Cl40274   0.442   7.365   1.662  0.1094  0.2165  0.3556
  299MOL0     C40275   0.856   6.688   2.698  0.0589 -0.0821 -0.5970
  299MOL0     C40276   0.891   6.599   2.799 -0.4509  0.9242 -0.3042
  299MOL0     O40277   0.884   6.321   2.912 -0.6679  0.2790 -0.9778
  299MOL0     C40278   1.014   6.190   3.131  0.8622  0.4070 -0.0942
  299MOL0     C40279   1.086   6.127   3.228  0.3475 -1.0099  0.8042
  299MOL0     N40280   1.754   5.603   3.339  0.3610  0.3668  1.1429
  299MOL0     N40281   1.829   5.505   3.379  0.4715 -0.7651 -1.1682
  299MOL0     C40282   1.549   4.651   2.602  0.2400  0.6292 -0.5700
  299MOL0     C40283   1.596   4.568   2.493 -0.3866  0.4171 -0.1463
  299MOL0     C40284   1.708   4.180   2.323  1.2188  0.2396 -0.0098
  299MOL0     C40285   1.634   4.203   2.209  0.6648  0.5529 -0.2446
  299MOL0     C40286   1.636   4.111   2.105 -0.6682 -0.4908 -0.0320
  299MOL0     C40287   1.701   3.984   2.115 -1.1112 -0.4159  0.5418
  299MOL0     O40288   1.685   3.879   2.024 -0.9890 -0.5424 -0.6737
  299MOL0     C40289   1.611   3.895   1.901  0.6592 -0.3771 -0.5263
  299MOL0     C40290   1.699   3.948   1.792  0.4363 -0.5211 -0.2025
  299MOL0     C40291   1.814   3.858   1.747  0.5591  0.9380  0.0754
  299MOL0     C40292   1.856   3.882   1.597 -0.0923 -0.4924  0.6129
  299MOL0     C40293   1.935   4.005   1.573 -0.7899  0.0667 -0.6804
  299MOL0     C40294   1.997   4.108   1.546  0.3794 -0.2180 -0.0065
  299MOL0     C40295   1.788   3.967   2.228  0.5483  0.0273  0.1672
  299MOL0     C40296   1.798   4.069   2.322 -0.5111  0.1551 -0.1074
  299MOL0     C40297   1.913   4.049   2.432  0.0465  0.7056  1.0511
  299MOL0     H40298   1.880   4.434   2.630 -1.1541 -0.3272  1.9154
  299MOL0     H40299   1.801   4.604   2.816 -1.8001 -0.4424  1.1273
  299MOL0     H40300   1.526   4.727   3.017 -0.6940 -0.3778 -0.7064
  299MOL0     H40301   1.673   4.636   2.977  4.4224  2.9332  2.0104
  299MOL0     H40302   1.622   4.946   2.972  0.9013  1.7104  0.3222
  299MOL0     H40303   1.772   4.860   2.921  1.3177 -0.2279  1.2686
  299MOL0     H40304   1.781   4.771   3.147  0.9729  1.7921  1.2598
  299MOL0     H40305   1.654   4.869   3.212 -1.1698 -1.0429 -0.8307
  299MOL0     H40306   1.913   4.951   3.075  2.4744  0.7800  2.3223
  299MOL0     H40307   1.797   5.075   3.152  1.6911  0.7558 -3.2624
  299MOL0     H40308   1.838   4.949   3.381  0.8535  0.5050  0.9774
  299MOL0     H40309   1.971   4.869   3.292  0.2684  1.2809 -3.0819
  299MOL0     H40310   2.041   5.083   3.428 -1.4306  2.7818  0.6720
  299MOL0     H40311   2.087   5.063   3.256 -1.3517  1.0355 -2.4229
  299MOL0     H40312   1.932   5.252   3.193  2.7848  0.1642 -0.6726
  299MOL0     H40313   2.026   5.299   3.326  0.2257  2.2228 -5.9906
  299MOL0     H40314   1.750   5.191   3.361  3.1880 -1.2554  0.6855
  299MOL0     H40315   1.860   5.266   3.488 -0.7661 -1.3421  0.9667
  299MOL0     H40316   1.557   5.364   3.275 -2.2385  2.3519  1.1435
  299MOL0     H40317   1.520   5.654   3.144  1.5073  1.2491 -0.5338
  299MOL0     H40318   1.436   5.579   3.279 -2.3337  2.4836 -1.5118
  299MOL0     H40319   1.511   5.766   3.423  0.4892 -3.0319 -0.7643
  299MOL0     H40320   1.617   5.815   3.282 -1.6867  1.5723 -0.8023
  299MOL0     H40321   1.309   5.802   3.284 -0.8546 -0.2571 -3.2741
  299MOL0     H40322   1.406   5.838   3.150 -1.5452  1.2332 -0.0883
  299MOL0     H40323   1.498   6.049   3.270  0.0529  1.0656  0.9285
  299MOL0     H40324   1.455   5.985   3.415  0.0156 -1.9981 -0.4139
  299MOL0     H40325   1.385   6.148   3.069  0.0840  1.4466  4.0097
  299MOL0     H40326   1.275   6.276   2.924 -0.9742  0.9746  0.3691
  299MOL0     H40327   1.219   6.569   2.696  1.4108  2.4328  3.4168
  299MOL0     H40328   1.123   6.750   2.527 -1.4665 -0.0272  0.3869
  299MOL0     H40329   0.792   6.733   2.332  3.1336  1.0733  0.5642
  299MOL0     H40330   0.723   6.688   2.484 -1.8909  0.3736 -0.0466
  299MOL0     H40331   0.572   6.849   2.355 -1.8895  3.1307  1.1750
  299MOL0     H40332   0.620   6.934   2.500 -3.6098  0.8789 -1.6751
  299MOL0     H40333   0.768   7.061   2.355 -0.0688 -1.6763  2.7279
  299MOL0     H40334   0.748   6.946   2.227 -3.1069 -1.1943 -1.6009
  299MOL0     H40335   0.518   7.118   2.305  1.3693  1.7829 -1.6266
  299MOL0     H40336   0.506   6.975   2.208 -1.9621  0.7476 -0.1839
  299MOL0     H40337   0.679   7.077   2.048  0.0379 -0.4861  1.6813
  299MOL0     H40338   0.664   7.223   2.142  1.1124 -0.3934 -0.5451
  299MOL0     H40339   0.431   7.075   2.006  1.2056 -1.9127  0.7055
  299MOL0     H40340   0.410   7.223   2.100  2.9219  0.3486  2.8649
  299MOL0     H40341   0.623   7.239   1.881  2.0317  4.7940  0.0685
  299MOL0     H40342   0.530   7.362   1.955 -1.1063  0.4462  1.3918
  299MOL0     H40343   0.410   7.147   1.767  1.4112 -0.4934  0.4966
  299MOL0     H40344   0.316   7.271   1.856  0.9845 -0.9054  1.0985
  299MOL0     H40345   0.755   6.728   2.705  1.0361  2.2469  2.0110
  299MOL0     H40346   0.835   6.557   2.883  3.5485 -3.6736  0.5212
  299MOL0     H40347   0.908   6.192   3.155  1.2834  0.3570  1.9305
  299MOL0     H40348   1.040   6.093   3.320  0.4560 -0.5218  1.0484
  299MOL0     H40349   1.455   4.704   2.597 -1.5298 -2.4148 -3.1883
  299MOL0     H40350   1.531   4.543   2.410 -1.3109 -2.0574  1.2116
  299MOL0     H40351   1.584   4.298   2.193  1.8801  1.0119 -1.5054
  299MOL0     H40352   1.577   4.139   2.018  0.3065  2.9558  0.2632
  299MOL0     H40353   1.524   3.960   1.908  1.3472  0.5560 -0.3998
  299MOL0     H40354   1.563   3.807   1.856 -2.9568  0.5499  1.1465
  299MOL0     H40355   1.750   4.038   1.827  2.3517 -2.1146  1.3306
  299MOL0     H40356   1.636   3.971   1.706 -0.0174  1.3246  0.5784
  299MOL0     H40357   1.779   3.754   1.755 -0.6124  1.4087  1.4403
  299MOL0     H40358   1.897   3.863   1.817  1.6808 -0.5433 -1.0857
  299MOL0     H40359   1.913   3.796   1.561  1.9378  1.4748 -1.2398
  299MOL0     H40360   1.766   3.885   1.536 -0.0465 -3.6311  0.2454
  299MOL0     H40361   2.063   4.192   1.537  1.0390 -0.9001 -2.2947
  299MOL0     H40362   1.837   3.872   2.246 -3.3669 -2.8550 -2.4526
  299MOL0     H40363   1.878   4.049   2.535 -0.8358 -1.5854  0.8078
  299MOL0     H40364   1.954   3.950   2.408 -0.7697  0.3281  1.1869
  299MOL0     H40365   1.994   4.120   2.413 -0.0255  1.1141  2.2503
  300MOL0     O40366   4.418   5.051   2.656  0.3022 -0.2341  0.3513
  300MOL0     C40367   4.378   5.094   2.548 -0.9981 -0.3100 -0.4663
  300MOL0     O40368   4.262   5.162   2.531  0.2927 -0.9631 -0.2377
  300MOL0     C40369   4.171   5.175   2.637 -0.2467  1.7189 -0.3855
  300MOL0     C40370   4.100   5.286   2.645  0.1269  0.3921  0.1126
  300MOL0     C40371   3.994   5.299   2.737 -0.1638 -0.9541  0.2836
  300MOL0     C40372   3.961   5.192   2.822 -0.1041  0.0784  0.7245
  300MOL0     O40373   3.867   5.198   2.912 -0.0653  0.6874  0.2551
  300MOL0     C40374   3.735   5.267   2.884  0.0657  0.1681  0.3592
  300MOL0     C40375   3.693   5.214   2.740 -0.2008  0.1717 -0.4570
  300MOL0     C40376   3.547   5.236   2.688  0.4416 -0.5678  0.4899
  300MOL0     C40377   3.524   5.183   2.549 -0.3238  1.6346  0.3350
  300MOL0     C40378   3.379   5.173   2.513 -0.1456  0.5094 -0.0067
  300MOL0     C40379   3.314   5.050   2.577 -0.7653  0.4637  0.0251
  300MOL0     C40380   3.169   5.049   2.530 -0.2735  0.0637  1.1573
  300MOL0     C40381   3.086   4.947   2.617 -0.2078  0.2022  0.7658
  300MOL0     N40382   2.961   4.923   2.548  0.5862  0.8686 -0.0314
  300MOL0     C40383   2.844   5.005   2.570 -0.3111 -0.1271  1.0181
  300MOL0     C40384   2.754   4.946   2.485  0.8074 -0.5969  0.0354
  300MOL0     C40385   2.606   5.005   2.462  0.3352 -0.3985 -0.0924
  300MOL0     C40386   2.603   5.159   2.454  1.1025  0.4718 -0.5020
  300MOL0     C40387   2.571   5.230   2.594  0.2890  0.3292 -0.3035
  300MOL0     C40388   2.608   5.373   2.591  0.0674 -0.2397 -0.0391
  300MOL0     O40389   2.740   5.394   2.544  0.1394 -0.3528  0.0099
  300MOL0     C40390   2.835   5.424   2.630 -0.5860 -0.0194 -0.0001
  300MOL0     C40391   2.959   5.376   2.612 -0.2473 -1.2266 -0.4909
  300MOL0     C40392   3.078   5.397   2.693  0.2787  0.1836  0.7215
  300MOL0     C40393   3.066   5.476   2.805 -0.0290 -0.0957  0.8824
  300MOL0     C40394   3.175   5.492   2.895 -0.3378 -0.3487  1.2474
  300MOL0     O40395   3.302   5.451   2.859 -0.5962  0.3059  0.5227
  300MOL0     C40396   3.398   5.459   2.957  0.1304  0.4412  0.6845
  300MOL0     C40397   3.487   5.568   2.965  0.3773  0.1742  0.6498
  300MOL0     C40398   3.593   5.574   3.047 -0.1137 -0.0392 -0.4248
  300MOL0     C40399   3.610   5.469   3.129 -0.1629  1.2749 -0.1273
  300MOL0     O40400   3.723   5.444   3.204  0.0004  0.5550  0.1318
  300MOL0     C40401   3.826   5.537   3.219 -0.0227  0.3889 -0.1275
  300MOL0     C40402   3.957   5.482   3.279  0.2637  0.5901 -0.4345
  300MOL0     C40403   4.057   5.594   3.301 -0.3429 -1.4657 -0.5986
  300MOL0     C40404   4.200   5.562   3.263  0.1681  0.8595  0.2237
  300MOL0     C40405   4.274   5.444   3.345  0.2688  0.0919 -0.6444
  300MOL0     C40406   4.409   5.408   3.282 -0.0775 -0.2775 -0.0542
  300MOL0     C40407   4.476   5.290   3.352  0.0669  0.4562  0.1249
  300MOL0     C40408   4.615   5.255   3.297 -0.4742  0.3203  0.0433
  300MOL0    Cl40409   4.715   5.403   3.324 -0.3424  0.7726 -0.5244
  300MOL0     C40410   3.519   5.362   3.140 -0.1335  1.1777 -0.2128
  300MOL0     C40411   3.416   5.349   3.048 -0.1745 -0.0998  0.2982
  300MOL0     O40412   3.154   5.544   3.003 -0.2531 -0.2030 -0.4145
  300MOL0     C40413   2.933   5.533   2.841  0.4436  0.2518  0.2382
  300MOL0     C40414   2.828   5.505   2.742 -0.1108 -0.6695  0.1290
  300MOL0     N40415   2.816   4.830   2.427  0.2685  0.2087 -0.6767
  300MOL0     N40416   2.931   4.815   2.478 -0.6032 -1.0311  0.5666
  300MOL0     C40417   4.047   5.086   2.815  0.6182 -0.4583 -0.4417
  300MOL0     C40418   4.148   5.064   2.721  0.3868 -0.0623  0.1549
  300MOL0     C40419   4.479   5.071   2.435 -0.4140  1.1534  0.6866
  300MOL0     C40420   4.594   4.990   2.452  0.6023 -0.1973 -0.6185
  300MOL0     C40421   4.696   4.985   2.360  1.2178 -0.0905  0.4787
  300MOL0     C40422   4.669   5.033   2.230 -0.0260  0.0679  0.7398
  300MOL0     O40423   4.773   5.025   2.132  0.3400 -0.7614 -0.3081
  300MOL0     C40424   4.773   5.088   2.002  0.5359  0.3644 -0.7897
  300MOL0     C40425   4.913   5.081   1.941 -0.9207 -0.3710 -0.9437
  300MOL0     C40426   5.016   5.158   2.029 -0.5823 -0.8892  0.4054
  300MOL0     C40427   5.152   5.130   1.964  1.0594  0.0725 -0.3072
  300MOL0     C40428   5.254   5.206   2.037  0.0797  0.0802 -0.0217
  300MOL0     C40429   5.335   5.276   2.106  1.5257  0.5543  0.0862
  300MOL0     C40430   4.558   5.109   2.203  1.3443 -0.0207 -0.2128
  300MOL0     C40431   4.458   5.126   2.306 -0.0284  0.4649  0.2022
  300MOL0     C40432   4.338   5.211   2.269 -0.4877 -0.3160 -0.2215
  300MOL0     H40433   4.129   5.366   2.577  0.0584  0.7005  0.4425
  300MOL0     H40434   3.936   5.388   2.759  0.0965 -0.7506  0.1514
  300MOL0     H40435   3.659   5.234   2.955  0.6512 -1.7678  0.1422
  300MOL0     H40436   3.738   5.375   2.905 -0.2952 -0.1208  2.1164
  300MOL0     H40437   3.710   5.105   2.741 -1.0157  0.0398  0.7504
  300MOL0     H40438   3.765   5.252   2.667  0.3721 -2.3901 -1.3498
  300MOL0     H40439   3.514   5.340   2.685 -0.3678 -0.8439 -1.0469
  300MOL0     H40440   3.493   5.181   2.765 -0.5264 -0.2415  0.0656
  300MOL0     H40441   3.578   5.258   2.491  2.9411  2.3164  3.8350
  300MOL0     H40442   3.563   5.082   2.533 -3.0003 -0.5213  5.1142
  300MOL0     H40443   3.324   5.263   2.542  1.5041  1.7888 -0.6696
  300MOL0     H40444   3.371   5.163   2.405 -0.6006 -1.8576  0.1797
  300MOL0     H40445   3.359   4.955   2.548 -1.9670 -0.3992  0.8887
  300MOL0     H40446   3.318   5.063   2.685 -0.9243  0.6800  0.0056
  300MOL0     H40447   3.172   5.027   2.423  0.0404 -1.8566  1.5247
  300MOL0     H40448   3.119   5.146   2.536 -1.1692 -0.0412 -2.3827
  300MOL0     H40449   3.142   4.854   2.627  0.5716  0.5974  0.1735
  300MOL0     H40450   3.077   4.992   2.717  4.1531  2.0450  0.5747
  300MOL0     H40451   2.842   5.101   2.621  0.6041 -0.6072  1.9948
  300MOL0     H40452   2.564   4.957   2.373  1.1231 -0.9074 -0.1934
  300MOL0     H40453   2.545   4.975   2.548  1.3939  0.7862  1.1205
  300MOL0     H40454   2.699   5.190   2.413  3.8264 -1.6322  3.6317
  300MOL0     H40455   2.521   5.194   2.391 -1.6231 -2.3625  1.1594
  300MOL0     H40456   2.625   5.166   2.665 -1.4064 -2.9294 -1.7157
  300MOL0     H40457   2.468   5.219   2.628  0.9735 -2.9220  1.0809
  300MOL0     H40458   2.599   5.409   2.694  1.3509  1.9581 -0.6305
  300MOL0     H40459   2.539   5.434   2.532  0.2897  0.2581  0.2123
  300MOL0     H40460   2.971   5.319   2.521  2.7170 -0.0811 -0.9295
  300MOL0     H40461   3.168   5.346   2.658 -1.7130 -0.2616 -4.7389
  300MOL0     H40462   3.463   5.645   2.893 -0.2854 -0.6967 -0.1014
  300MOL0     H40463   3.655   5.663   3.050 -0.9083  0.6789  4.7773
  300MOL0     H40464   3.848   5.580   3.121 -5.2986  1.5158 -1.1403
  300MOL0     H40465   3.792   5.618   3.284  1.2906  0.5100  0.4302
  300MOL0     H40466   3.926   5.429   3.369 -0.8913  0.1626 -1.0568
  300MOL0     H40467   3.999   5.398   3.223 -5.6828 -1.8557 -1.9788
  300MOL0     H40468   4.017   5.690   3.266 -0.5692 -0.4739  2.1419
  300MOL0     H40469   4.061   5.602   3.410 -3.1478  2.2408 -0.5521
  300MOL0     H40470   4.271   5.644   3.277  0.0385  1.0555 -0.2515
  300MOL0     H40471   4.194   5.543   3.155  0.2881  0.2782  0.3180
  300MOL0     H40472   4.208   5.358   3.359  0.3081  0.4043  2.0284
  300MOL0     H40473   4.288   5.480   3.447 -0.3634  0.5758 -0.7287
  300MOL0     H40474   4.397   5.393   3.174  1.1138  0.9204 -0.3789
  300MOL0     H40475   4.471   5.498   3.278 -0.0977 -0.2671 -0.1407
  300MOL0     H40476   4.413   5.202   3.336 -0.6830  0.0934  4.0250
  300MOL0     H40477   4.479   5.296   3.462 -0.2827 -1.1739  0.2460
  300MOL0     H40478   4.664   5.173   3.350 -0.5983  0.9835  1.1951
  300MOL0     H40479   4.609   5.245   3.188 -0.8247 -0.2667  0.1135
  300MOL0     H40480   3.529   5.288   3.219 -2.7778  1.7370  0.7702
  300MOL0     H40481   3.345   5.268   3.036  0.2119 -0.4597  0.4094
  300MOL0     H40482   2.925   5.608   2.919  0.2781 -0.5463  0.9960
  300MOL0     H40483   2.743   5.570   2.761 -1.7003 -2.5704 -0.1441
  300MOL0     H40484   4.019   5.003   2.879 -1.6362 -0.3991 -1.2582
  300MOL0     H40485   4.209   4.974   2.713 -0.4187 -0.4879 -1.7413
  300MOL0     H40486   4.612   4.938   2.545 -0.0647 -2.9509 -1.9156
  300MOL0     H40487   4.787   4.934   2.388  0.0188 -1.5190  1.9651
  300MOL0     H40488   4.732   5.189   2.016 -2.4901 -0.5410 -2.3688
  300MOL0     H40489   4.703   5.037   1.936 -3.2980  2.1314  1.5352
  300MOL0     H40490   4.918   5.101   1.833 -0.9708 -2.5826 -1.3914
  300MOL0     H40491   4.940   4.975   1.947 -0.6436 -0.2500  0.0995
  300MOL0     H40492   5.024   5.116   2.130  2.0593 -2.7682 -0.4559
  300MOL0     H40493   4.999   5.266   2.027 -0.0547 -0.7854  1.0746
  300MOL0     H40494   5.170   5.022   1.967  1.5607  0.1805  2.0022
  300MOL0     H40495   5.149   5.176   1.865 -1.3471  3.6003  1.2053
  300MOL0     H40496   5.398   5.317   2.183  2.8695 -4.0158  1.7520
  300MOL0     H40497   4.541   5.133   2.098 -2.5724  0.3252  0.3333
  300MOL0     H40498   4.339   5.304   2.327 -0.1488  2.5467 -4.3663
  300MOL0     H40499   4.314   5.235   2.165 -2.4583 -0.9088  0.0574
  300MOL0     H40500   4.255   5.150   2.305 -0.3074 -0.5558 -0.2058
  301MOL0     O40501   5.999   4.364   4.383 -0.2289  0.1748 -0.3235
  301MOL0     C40502   6.118   4.403   4.371  1.1890 -0.5747 -0.3954
  301MOL0     O40503   6.205   4.373   4.269 -0.0747  0.1146 -0.2944
  301MOL0     C40504   6.145   4.299   4.173 -0.2335 -0.2790  0.0137
  301MOL0     C40505   6.079   4.173   4.192  0.1809 -0.3838  0.2352
  301MOL0     C40506   6.012   4.105   4.096  0.8798 -0.1143  0.6147
  301MOL0     C40507   5.999   4.149   3.971 -0.5967 -0.7108 -0.0037
  301MOL0     O40508   5.937   4.059   3.887  0.4100  0.2710 -0.2129
  301MOL0     C40509   5.906   4.101   3.755  0.0327 -1.3411 -0.5269
  301MOL0     C40510   6.032   4.076   3.676  0.8613  0.9394 -0.3059
  301MOL0     C40511   6.007   4.118   3.530 -0.0157  0.0229  0.1960
  301MOL0     C40512   6.107   4.233   3.488 -0.2261  1.1910 -0.2698
  301MOL0     C40513   6.145   4.230   3.333  0.4178  0.3391 -0.9896
  301MOL0     C40514   6.223   4.353   3.303 -1.1010  0.2343  0.0005
  301MOL0     C40515   6.267   4.358   3.153  0.0142  0.0772 -0.1570
  301MOL0     C40516   6.379   4.446   3.131  0.8487  0.1794  1.3255
  301MOL0     N40517   6.417   4.444   2.989 -0.4881  0.0428  0.0898
  301MOL0     C40518   6.497   4.540   2.928 -0.3229  0.4238 -0.5320
  301MOL0     C40519   6.514   4.488   2.803  0.3179  0.0600 -0.3333
  301MOL0     C40520   6.636   4.543   2.727  0.5283  0.2725 -0.0368
  301MOL0     C40521   6.619   4.697   2.698 -0.2886  0.7595 -0.1616
  301MOL0     C40522   6.737   4.744   2.623 -0.3614 -0.3990  0.1761
  301MOL0     C40523   6.863   4.756   2.717 -0.8792  0.8052  0.5663
  301MOL0     O40524   6.966   4.833   2.648 -0.0263 -0.3534  0.2785
  301MOL0     C40525   6.969   4.966   2.685 -0.2141 -0.6857  0.1009
  301MOL0     C40526   7.098   5.011   2.720 -0.2390  0.8761 -0.3951
  301MOL0     C40527   7.115   5.139   2.776 -0.9703  0.0217  0.7214
  301MOL0     C40528   7.006   5.220   2.792  0.7825 -0.2894 -0.2628
  301MOL0     C40529   7.023   5.344   2.873  0.6555  0.0281 -0.1356
  301MOL0     O40530   6.909   5.383   2.934 -0.0225 -0.2181  0.5509
  301MOL0     C40531   6.926   5.484   3.026 -0.4658 -1.1146 -0.3570
  301MOL0     C40532   6.974   5.608   3.003  0.1572  0.1228  0.2534
  301MOL0     C40533   6.992   5.706   3.103 -0.2106  0.1623  0.6887
  301MOL0     C40534   6.970   5.665   3.235  0.2685  0.3364  0.5528
  301MOL0     O40535   6.994   5.747   3.344 -0.1675  0.3360 -0.2493
  301MOL0     C40536   7.133   5.783   3.362  0.0490 -0.0889 -0.7117
  301MOL0     C40537   7.173   5.836   3.503  0.6629 -0.4807 -0.1113
  301MOL0     C40538   7.058   5.847   3.609  0.4029  0.3473  0.4895
  301MOL0     C40539   7.041   5.726   3.700  0.6168  0.3838  0.1288
  301MOL0     C40540   6.957   5.762   3.815 -0.5767  0.4661 -0.1734
  301MOL0     C40541   6.925   5.631   3.904  0.7458 -0.0351 -0.5404
  301MOL0     C40542   6.839   5.662   4.029 -0.0708  0.6061 -0.3693
  301MOL0     C40543   6.847   5.784   4.106  0.4105  0.2799  0.4939
  301MOL0    Cl40544   7.005   5.806   4.176  0.3954  0.3152  0.5153
  301MOL0     C40545   6.919   5.543   3.265  0.2302  0.0675 -0.4500
  301MOL0     C40546   6.900   5.451   3.155 -0.1290 -0.4244 -1.2980
  301MOL0     O40547   7.137   5.397   2.894  0.4112  0.3078 -0.8493
  301MOL0     C40548   6.882   5.181   2.756 -0.6750 -0.3757  0.5618
  301MOL0     C40549   6.858   5.058   2.700 -0.5280 -0.4171 -0.7873
  301MOL0     N40550   6.432   4.377   2.786 -0.5607 -0.7155 -0.2223
  301MOL0     N40551   6.372   4.347   2.896  0.5220  0.8945 -0.6436
  301MOL0     C40552   6.074   4.267   3.941 -0.2669  0.0205 -1.0840
  301MOL0     C40553   6.140   4.346   4.041 -0.7725  0.1407 -0.3494
  301MOL0     C40554   6.160   4.502   4.477  0.7327  1.0601 -0.6943
  301MOL0     C40555   6.063   4.546   4.570 -0.3826 -0.7501 -0.1049
  301MOL0     C40556   6.093   4.645   4.665  0.6818  0.1121 -0.0111
  301MOL0     C40557   6.225   4.701   4.661  0.5982 -0.3621 -0.0856
  301MOL0     O40558   6.253   4.805   4.751  0.0538  0.1207 -0.2170
  301MOL0     C40559   6.378   4.884   4.733 -0.2647  0.6731 -0.8592
  301MOL0     C40560   6.386   5.004   4.828  0.0718  0.6215  0.0586
  301MOL0     C40561   6.262   5.106   4.815 -0.9943  0.5134  0.0659
  301MOL0     C40562   6.266   5.175   4.680  0.4563  0.1899 -0.0358
  301MOL0     C40563   6.176   5.287   4.688  0.3820 -0.2718  0.1126
  301MOL0     C40564   6.108   5.390   4.688 -0.1712 -0.0821  0.2673
  301MOL0     C40565   6.322   4.647   4.582 -0.2148 -0.2329 -0.4504
  301MOL0     C40566   6.302   4.539   4.492 -0.3315  0.0232  0.6293
  301MOL0     C40567   6.412   4.472   4.415 -0.9219 -0.7201  0.3502
  301MOL0     H40568   6.073   4.121   4.287 -1.1550 -0.4018  0.1508
  301MOL0     H40569   5.957   4.016   4.124  2.2058 -0.6902  1.4827
  301MOL0     H40570   5.821   4.044   3.716 -0.9915  1.2333 -2.3653
  301MOL0     H40571   5.873   4.205   3.761  1.2919 -0.9268 -0.5734
  301MOL0     H40572   6.049   3.969   3.683  0.0854  0.9078  1.6424
  301MOL0     H40573   6.124   4.118   3.719  0.4134  0.2686  1.3886
  301MOL0     H40574   5.905   4.154   3.515 -1.5108 -4.2242 -1.2233
  301MOL0     H40575   6.023   4.032   3.464 -0.7288  1.4366 -1.9153
  301MOL0     H40576   6.066   4.327   3.526 -0.6130  1.4229 -1.2235
  301MOL0     H40577   6.205   4.217   3.535  1.3391 -5.2751 -4.4624
  301MOL0     H40578   6.206   4.142   3.309  0.4921 -0.5480  1.9965
  301MOL0     H40579   6.047   4.221   3.285 -1.5258 -2.3733  2.9330
  301MOL0     H40580   6.152   4.436   3.305 -1.1780  0.1589  0.6382
  301MOL0     H40581   6.302   4.369   3.377 -1.1546 -1.9493  0.5988
  301MOL0     H40582   6.189   4.385   3.081  0.4792  0.7411 -0.4214
  301MOL0     H40583   6.281   4.255   3.117 -1.8501  0.6479 -2.8830
  301MOL0     H40584   6.350   4.547   3.162  1.3496  0.9226 -0.4364
  301MOL0     H40585   6.461   4.414   3.195  3.1021  0.4390 -1.2054
  301MOL0     H40586   6.561   4.611   2.980 -2.8460  2.2614  0.2941
  301MOL0     H40587   6.724   4.517   2.786 -0.3220 -1.2580  0.6327
  301MOL0     H40588   6.667   4.498   2.633  2.7173  3.2497 -0.8978
  301MOL0     H40589   6.531   4.739   2.650 -0.3030  0.8734 -0.0359
  301MOL0     H40590   6.622   4.744   2.797  0.9273 -0.1310  0.2562
  301MOL0     H40591   6.717   4.843   2.580 -1.8937 -0.2978  1.0583
  301MOL0     H40592   6.764   4.679   2.539 -1.2072  0.3653 -0.7130
  301MOL0     H40593   6.907   4.656   2.728 -1.6543  0.4155  0.1717
  301MOL0     H40594   6.831   4.808   2.807 -4.7012 -0.8549  0.3446
  301MOL0     H40595   7.178   4.941   2.699  1.0950  2.9034 -2.4691
  301MOL0     H40596   7.213   5.183   2.789 -0.3550 -0.5366 -1.5272
  301MOL0     H40597   7.002   5.633   2.901 -0.6558  1.2017  0.2749
  301MOL0     H40598   7.031   5.797   3.060  2.8005 -2.1947 -2.1071
  301MOL0     H40599   7.199   5.701   3.335  0.6862 -0.7503  2.5385
  301MOL0     H40600   7.158   5.864   3.292 -2.8857  1.0788 -0.5700
  301MOL0     H40601   7.256   5.786   3.554  0.8790 -2.3836 -2.1972
  301MOL0     H40602   7.195   5.942   3.487  1.7180 -0.6042  0.4112
  301MOL0     H40603   7.089   5.937   3.663  3.2147 -0.1237 -0.2094
  301MOL0     H40604   6.958   5.878   3.576  0.5085 -0.7892 -0.9926
  301MOL0     H40605   7.128   5.694   3.758  0.7237 -0.1796 -0.3417
  301MOL0     H40606   7.001   5.641   3.644  4.2275 -0.6060 -1.1942
  301MOL0     H40607   6.863   5.805   3.779 -1.1981 -2.2241 -2.0056
  301MOL0     H40608   7.011   5.833   3.879  0.0919 -0.4479  0.2925
  301MOL0     H40609   6.863   5.568   3.839 -1.8300  0.3881  1.3433
  301MOL0     H40610   7.021   5.584   3.926  1.4534  2.2500  1.6526
  301MOL0     H40611   6.842   5.567   4.083  1.3597  0.8383 -0.0119
  301MOL0     H40612   6.740   5.671   3.982 -1.3721 -1.4760  1.7657
  301MOL0     H40613   6.820   5.866   4.039  2.3595 -0.5454 -1.4368
  301MOL0     H40614   6.770   5.783   4.183  1.3977  3.4478  1.6381
  301MOL0     H40615   6.891   5.520   3.368  0.0748  0.2752 -0.4473
  301MOL0     H40616   6.853   5.354   3.170 -3.0168  1.1213  0.7651
  301MOL0     H40617   6.794   5.244   2.768  0.3560  1.4191 -0.8429
  301MOL0     H40618   6.756   5.039   2.668 -0.3550 -0.5723 -1.2616
  301MOL0     H40619   6.089   4.302   3.839  3.0768 -0.0942 -0.7600
  301MOL0     H40620   6.186   4.442   4.020  1.4767 -0.8039 -0.0266
  301MOL0     H40621   5.962   4.506   4.571 -0.4995 -0.4581  0.9790
  301MOL0     H40622   6.032   4.697   4.738  1.8530  0.1638  0.9625
  301MOL0     H40623   6.374   4.911   4.627  1.0181 -3.6718 -2.2577
  301MOL0     H40624   6.467   4.821   4.749  0.3623  1.7124 -0.1669
  301MOL0     H40625   6.484   5.050   4.810  0.2764  0.3074  0.3252
  301MOL0     H40626   6.401   4.970   4.932  0.1416 -1.5807 -0.6104
  301MOL0     H40627   6.266   5.180   4.895 -4.6588  1.8514 -0.8004
  301MOL0     H40628   6.166   5.052   4.817 -0.1988 -0.9438  0.4623
  301MOL0     H40629   6.359   5.222   4.648  0.2367  0.7376  0.1181
  301MOL0     H40630   6.232   5.109   4.600 -2.2100 -1.6229  2.4095
  301MOL0     H40631   6.044   5.475   4.675 -1.2204 -0.9532 -0.3453
  301MOL0     H40632   6.427   4.671   4.595 -0.0906 -1.3861  1.0325
  301MOL0     H40633   6.515   4.505   4.433 -1.1645  0.6780 -0.5981
  301MOL0     H40634   6.423   4.365   4.430  0.3217 -0.8011 -0.8839
  301MOL0     H40635   6.395   4.519   4.317  2.4925  1.4563  0.6023
  302MOL0     O40636   5.221   7.589   1.257  0.1334 -0.6049 -0.6417
  302MOL0     C40637   5.299   7.686   1.273  1.0102 -0.4049 -1.1299
  302MOL0     O40638   5.435   7.686   1.248  0.2896 -0.4586 -0.6175
  302MOL0     C40639   5.496   7.576   1.194  0.1879  0.1823  0.5146
  302MOL0     C40640   5.548   7.590   1.064 -0.5157 -0.9438  0.7446
  302MOL0     C40641   5.632   7.497   0.999  0.0927 -0.0451 -0.1799
  302MOL0     C40642   5.676   7.388   1.065 -0.6496  0.6801  0.2765
  302MOL0     O40643   5.757   7.298   0.999  0.2270 -0.4012 -1.4315
  302MOL0     C40644   5.693   7.185   0.954  0.1970  0.0422  0.5617
  302MOL0     C40645   5.711   7.161   0.804  0.5698 -0.0921 -0.4419
  302MOL0     C40646   5.856   7.143   0.777 -0.1579 -0.5760  0.1021
  302MOL0     C40647   5.929   7.272   0.744  0.4662  0.1693 -0.1525
  302MOL0     C40648   6.080   7.246   0.722 -0.7237 -0.1405 -0.3205
  302MOL0     C40649   6.161   7.383   0.679  0.5797  0.6343  0.5399
  302MOL0     C40650   6.175   7.482   0.793  0.2604 -0.1063  0.4288
  302MOL0     C40651   6.270   7.598   0.760  0.1718  0.5380  0.2900
  302MOL0     N40652   6.255   7.652   0.618 -0.3025  0.4630  0.2244
  302MOL0     C40653   6.136   7.685   0.557 -0.5922 -0.7256  0.2157
  302MOL0     C40654   6.168   7.704   0.423  0.5268 -0.5470  0.0415
  302MOL0     C40655   6.075   7.758   0.315  0.3340 -0.7385 -0.2205
  302MOL0     C40656   6.010   7.632   0.229 -0.0366 -0.2553  0.0038
  302MOL0     C40657   5.908   7.552   0.302  0.4183  0.3326  0.3962
  302MOL0     C40658   5.841   7.442   0.217 -0.5855 -0.3720  0.1759
  302MOL0     O40659   5.749   7.391   0.314  0.4544  0.4384 -0.2851
  302MOL0     C40660   5.694   7.274   0.270 -0.3037  0.5523 -0.3546
  302MOL0     C40661   5.636   7.255   0.144  0.9311 -0.3167 -0.3379
  302MOL0     C40662   5.568   7.130   0.110 -0.4065 -1.0111 -0.5594
  302MOL0     C40663   5.552   7.038   0.216 -0.4027 -0.4936  0.4041
  302MOL0     C40664   5.494   6.912   0.179  0.2138  0.5719 -0.1256
  302MOL0     O40665   5.439   6.890   0.047  1.2386 -0.3505  0.2887
  302MOL0     C40666   5.419   6.771  -0.004  0.1158  0.6325 -0.0028
  302MOL0     C40667   5.332   6.674   0.051 -0.0558  0.0551  0.0054
  302MOL0     C40668   5.311   6.550  -0.006 -1.3279 -0.4220 -0.5897
  302MOL0     C40669   5.392   6.514  -0.101 -0.0539  0.5066 -0.6572
  302MOL0     O40670   5.401   6.386  -0.153 -0.4155  0.0193  0.8886
  302MOL0     C40671   5.423   6.285  -0.050 -0.2854  0.1003  1.6353
  302MOL0     C40672   5.570   6.244  -0.019  0.0135  0.3593  0.7918
  302MOL0     C40673   5.627   6.167  -0.149  0.5648 -0.1132  0.1113
  302MOL0     C40674   5.755   6.093  -0.136 -0.2048 -0.2717  0.4371
  302MOL0     C40675   5.759   5.949  -0.084 -0.8241  0.8730 -0.1925
  302MOL0     C40676   5.691   5.842  -0.167  0.0090 -0.4585  0.8955
  302MOL0     C40677   5.778   5.716  -0.158 -0.1467  0.4638 -0.0260
  302MOL0     C40678   5.730   5.576  -0.217  0.0211 -0.1569  0.3457
  302MOL0    Cl40679   5.689   5.585  -0.392 -0.1849  0.3223 -0.9278
  302MOL0     C40680   5.479   6.599  -0.162  0.6734  0.5266  0.2657
  302MOL0     C40681   5.492   6.730  -0.117  0.2641  0.9107 -1.2664
  302MOL0     O40682   5.485   6.823   0.268  0.1525 -0.3994 -0.4241
  302MOL0     C40683   5.594   7.068   0.342  0.9173 -0.1169  1.2417
  302MOL0     C40684   5.660   7.187   0.374  0.6185  0.0191  0.7312
  302MOL0     N40685   6.307   7.682   0.411  0.0169 -1.0562  0.5345
  302MOL0     N40686   6.355   7.663   0.523 -0.0088  0.7762 -0.1393
  302MOL0     C40687   5.611   7.356   1.179 -0.5374  0.0763 -1.1888
  302MOL0     C40688   5.522   7.451   1.246 -0.1406 -0.2424  0.5999
  302MOL0     C40689   5.230   7.814   1.309 -0.1371 -0.3827  0.5015
  302MOL0     C40690   5.309   7.932   1.315  1.2124 -0.3438 -0.7477
  302MOL0     C40691   5.242   8.065   1.325  0.2989  0.2499  0.0841
  302MOL0     C40692   5.101   8.069   1.349 -1.2454  0.2555  0.4732
  302MOL0     O40693   5.025   8.180   1.387  0.5633  0.7405 -0.6305
  302MOL0     C40694   5.081   8.313   1.378 -0.5346  0.2129 -0.4073
  302MOL0     C40695   5.086   8.361   1.233 -0.7880 -0.4153  0.2924
  302MOL0     C40696   5.171   8.487   1.217  0.5104 -0.4374 -0.6007
  302MOL0     C40697   5.099   8.623   1.254  0.7362  0.5940 -0.8195
  302MOL0     C40698   5.207   8.727   1.263 -0.1462  0.2474 -0.3532
  302MOL0     C40699   5.310   8.795   1.263  0.1736 -0.0290  0.1837
  302MOL0     C40700   5.032   7.952   1.346 -0.0787  1.2307  0.6111
  302MOL0     C40701   5.090   7.827   1.329 -0.0746  0.2173 -0.1660
  302MOL0     C40702   4.987   7.719   1.319 -0.5267  0.2275 -0.3851
  302MOL0     H40703   5.534   7.685   1.012 -0.7491 -1.0313  0.6423
  302MOL0     H40704   5.663   7.501   0.895  0.5994 -0.7504 -0.0664
  302MOL0     H40705   5.732   7.096   1.004 -1.7347 -1.0236  0.2461
  302MOL0     H40706   5.585   7.188   0.971  0.1598 -0.3067  0.3911
  302MOL0     H40707   5.664   7.232   0.736  1.0856 -1.1826 -1.9937
  302MOL0     H40708   5.669   7.062   0.780 -1.6870  0.5396  0.5501
  302MOL0     H40709   5.870   7.074   0.693  1.1584 -0.9004  0.5714
  302MOL0     H40710   5.904   7.087   0.858 -2.7752 -0.9135  1.5482
  302MOL0     H40711   5.887   7.330   0.662 -0.9206 -2.1544 -1.1673
  302MOL0     H40712   5.929   7.333   0.835  0.5832 -0.4005  0.2344
  302MOL0     H40713   6.134   7.218   0.813  1.3480  3.7247 -0.1297
  302MOL0     H40714   6.087   7.181   0.634  0.8111 -0.8814  0.3190
  302MOL0     H40715   6.262   7.356   0.646  0.2036  1.4815 -1.4147
  302MOL0     H40716   6.116   7.436   0.595  1.5267 -1.3338 -1.3100
  302MOL0     H40717   6.223   7.424   0.872 -0.1588 -0.0931  0.6964
  302MOL0     H40718   6.075   7.512   0.824  0.4004 -1.0498  1.9136
  302MOL0     H40719   6.247   7.684   0.823  0.3582  1.3812 -0.7631
  302MOL0     H40720   6.373   7.563   0.777  0.4510  1.5256  0.7377
  302MOL0     H40721   6.037   7.696   0.600 -0.2568  1.4347  0.5873
  302MOL0     H40722   5.993   7.813   0.362  0.5792 -0.1254 -0.5099
  302MOL0     H40723   6.105   7.829   0.238 -1.2043  0.2471  0.0422
  302MOL0     H40724   5.959   7.674   0.142 -2.4577 -0.2084  1.3829
  302MOL0     H40725   6.091   7.563   0.204 -1.3743 -1.3680 -1.4214
  302MOL0     H40726   5.826   7.614   0.340 -2.0464 -1.4387 -1.6438
  302MOL0     H40727   5.942   7.494   0.389 -1.6100 -1.5844  0.0208
  302MOL0     H40728   5.915   7.374   0.173  0.8249  1.4344 -0.3575
  302MOL0     H40729   5.786   7.488   0.134  0.6783  1.0360  0.0748
  302MOL0     H40730   5.630   7.333   0.068 -0.2530 -0.3376 -0.2867
  302MOL0     H40731   5.530   7.109   0.011 -2.7102 -0.5926  0.1771
  302MOL0     H40732   5.284   6.692   0.146 -1.0672  1.3826 -0.7219
  302MOL0     H40733   5.253   6.485   0.058  0.0031  1.2468  2.5706
  302MOL0     H40734   5.364   6.299   0.041 -0.7364 -1.2631  1.5670
  302MOL0     H40735   5.381   6.198  -0.101  1.8414 -0.1518  0.2132
  302MOL0     H40736   5.632   6.330   0.006  2.0362 -0.6565 -0.4704
  302MOL0     H40737   5.559   6.173   0.064  1.6966 -0.9113 -0.0180
  302MOL0     H40738   5.546   6.113  -0.200 -0.0277 -0.1561  1.0751
  302MOL0     H40739   5.649   6.242  -0.226  0.2367  0.5187  0.6205
  302MOL0     H40740   5.831   6.158  -0.091 -0.5057  0.0843  0.4421
  302MOL0     H40741   5.789   6.081  -0.239  0.6461 -1.5899  0.8551
  302MOL0     H40742   5.713   5.946   0.015 -2.3622 -0.9780 -0.9089
  302MOL0     H40743   5.863   5.919  -0.067 -0.8103  2.3309  3.0611
  302MOL0     H40744   5.592   5.810  -0.133  0.5335 -0.8432  2.1118
  302MOL0     H40745   5.673   5.887  -0.265 -3.2060 -1.1978  1.0328
  302MOL0     H40746   5.814   5.697  -0.056  3.3525  3.0220 -0.5905
  302MOL0     H40747   5.865   5.742  -0.219  0.4786  1.6042  1.2947
  302MOL0     H40748   5.803   5.496  -0.200  2.5082  2.6120  4.3666
  302MOL0     H40749   5.637   5.557  -0.163  1.5509 -4.5562  1.9062
  302MOL0     H40750   5.545   6.570  -0.243 -0.4970  1.2658 -0.9825
  302MOL0     H40751   5.553   6.807  -0.161  1.0747  1.1385  0.1807
  302MOL0     H40752   5.573   7.010   0.431  0.3404  0.6524  1.6248
  302MOL0     H40753   5.693   7.204   0.476  0.4608 -0.9496  0.9560
  302MOL0     H40754   5.643   7.266   1.230 -0.3536  0.9095  0.2143
  302MOL0     H40755   5.488   7.431   1.347  1.4975  0.7270  1.3619
  302MOL0     H40756   5.417   7.939   1.327  1.1297  2.4390 -1.1803
  302MOL0     H40757   5.309   8.150   1.324  0.9058 -0.2294 -0.8276
  302MOL0     H40758   5.175   8.313   1.434 -1.7963  1.1866  1.8428
  302MOL0     H40759   5.013   8.381   1.431  0.8788  1.8099 -0.5433
  302MOL0     H40760   4.988   8.395   1.200 -0.2275  2.8390  1.5618
  302MOL0     H40761   5.131   8.282   1.172 -2.2621 -2.9078  2.2716
  302MOL0     H40762   5.203   8.479   1.112  1.3166 -1.0163 -0.3196
  302MOL0     H40763   5.261   8.486   1.279 -0.6637  1.8286  1.3091
  302MOL0     H40764   5.029   8.644   1.172 -1.5881 -1.3822  0.5380
  302MOL0     H40765   5.054   8.625   1.353  0.9612  2.4180 -0.7317
  302MOL0     H40766   5.390   8.865   1.252 -0.8868  0.7749 -4.2647
  302MOL0     H40767   4.926   7.962   1.368  0.1128 -1.3863  3.2796
  302MOL0     H40768   4.889   7.761   1.345 -0.5702  0.7847 -1.3850
  302MOL0     H40769   4.983   7.685   1.215 -1.0348  1.0376 -0.6450
  302MOL0     H40770   5.013   7.646   1.396  3.0465 -0.3240 -1.8948
  303MOL0     O40771   4.937   7.731   6.957 -0.6216 -0.4569 -0.7442
  303MOL0     C40772   4.980   7.825   7.035 -0.6402 -0.4251 -0.1192
  303MOL0     O40773   5.086   7.818   7.120  0.1047 -0.3763 -0.1391
  303MOL0     C40774   5.148   7.698   7.122  0.1364 -0.2257 -0.8604
  303MOL0     C40775   5.091   7.589   7.182  0.7301 -1.0053 -0.6616
  303MOL0     C40776   5.141   7.461   7.173  0.0360  0.5887  0.0397
  303MOL0     C40777   5.278   7.451   7.137  0.7337 -0.0045  0.3048
  303MOL0     O40778   5.355   7.336   7.152  0.6500  0.4757  0.6767
  303MOL0     C40779   5.457   7.353   7.252  0.0955  1.0160 -0.7559
  303MOL0     C40780   5.504   7.208   7.287  0.6919  0.1409  0.1881
  303MOL0     C40781   5.548   7.192   7.433  0.1403  0.0944  0.7025
  303MOL0     C40782   5.682   7.282   7.450 -0.4482  0.1306  1.3335
  303MOL0     C40783   5.750   7.266   7.585 -0.3982 -0.9697  0.1383
  303MOL0     C40784   5.687   7.344   7.690  0.0755 -0.9184 -0.2951
  303MOL0     C40785   5.786   7.374   7.801  0.8619  0.3022  0.0862
  303MOL0     C40786   5.731   7.469   7.919 -0.5758 -0.3710 -0.5517
  303MOL0     N40787   5.827   7.540   8.003  0.3250  0.2614 -0.2122
  303MOL0     C40788   5.810   7.574   8.140  0.2444  0.7139 -0.7803
  303MOL0     C40789   5.934   7.614   8.178 -0.3209  0.1477 -0.1089
  303MOL0     C40790   5.961   7.676   8.308  0.5810 -0.4294 -0.4043
  303MOL0     C40791   6.064   7.606   8.402 -0.1275 -0.2680  0.6075
  303MOL0     C40792   6.036   7.646   8.544 -0.3433  0.4031 -0.6125
  303MOL0     C40793   6.045   7.800   8.572 -0.6668 -0.2623 -1.4956
  303MOL0     O40794   6.062   7.810   8.716  0.0806 -0.5169  0.2331
  303MOL0     C40795   6.049   7.930   8.780  0.0670 -0.1408 -0.4666
  303MOL0     C40796   6.026   7.924   8.917 -0.3907 -0.6589  0.1162
  303MOL0     C40797   6.032   8.037   8.993 -0.4170 -1.1261 -0.0523
  303MOL0     C40798   6.040   8.165   8.935 -0.1805  1.0114 -0.3766
  303MOL0     C40799   6.043   8.289   9.013  0.6539 -0.5911 -0.2487
  303MOL0     O40800   5.962   8.306   9.121  1.0848 -0.0959  0.2165
  303MOL0     C40801   5.952   8.422   9.197  0.2831 -0.2609 -0.0080
  303MOL0     C40802   5.923   8.543   9.137 -0.6519 -0.2124 -0.8259
  303MOL0     C40803   5.903   8.654   9.217 -0.4676  0.4981 -0.4995
  303MOL0     C40804   5.896   8.652   9.358  0.6709  0.4157  0.5401
  303MOL0     O40805   5.872   8.763   9.434 -0.5636  0.0316  0.2463
  303MOL0     C40806   5.946   8.776   9.557  0.9511 -0.1556  0.7051
  303MOL0     C40807   5.955   8.920   9.603 -0.4703  0.1712  0.0510
  303MOL0     C40808   5.836   8.978   9.676  0.4512 -0.4706 -0.1120
  303MOL0     C40809   5.806   9.123   9.672  0.4823  0.3391 -0.2916
  303MOL0     C40810   5.723   9.181   9.787  0.4334 -0.4129 -0.3930
  303MOL0     C40811   5.576   9.153   9.772 -0.6099 -0.4557  0.0453
  303MOL0     C40812   5.501   9.245   9.872  0.5113  1.0015  0.1478
  303MOL0     C40813   5.363   9.181   9.914 -0.1535 -0.3164  0.3155
  303MOL0    Cl40814   5.286   9.296  10.039  0.1052 -0.1158 -0.1490
  303MOL0     C40815   5.916   8.524   9.419  1.2688  0.4531  0.5136
  303MOL0     C40816   5.950   8.413   9.335 -1.3125  0.3894 -0.1692
  303MOL0     O40817   6.105   8.385   8.962 -0.3140 -0.5877  0.4283
  303MOL0     C40818   6.066   8.174   8.793  0.0128  1.1641 -0.0789
  303MOL0     C40819   6.065   8.056   8.722 -0.4186  0.1709  0.0632
  303MOL0     N40820   6.020   7.620   8.067  0.1858 -0.0980  0.2123
  303MOL0     N40821   5.953   7.569   7.970 -0.2188 -0.4291 -0.4171
  303MOL0     C40822   5.346   7.565   7.096  0.2698  0.8354 -0.3740
  303MOL0     C40823   5.276   7.684   7.082  0.3389  0.3627  0.3246
  303MOL0     C40824   4.910   7.958   7.033 -0.1201  0.4838  0.0323
  303MOL0     C40825   4.942   8.050   7.139 -0.3999  0.1474  0.6064
  303MOL0     C40826   4.892   8.181   7.145  0.9217  0.1170  0.7437
  303MOL0     C40827   4.788   8.224   7.060 -0.4520 -0.2638 -0.1680
  303MOL0     O40828   4.738   8.349   7.071 -0.3727  0.0816  0.9519
  303MOL0     C40829   4.821   8.443   6.989 -1.1238  0.8831 -0.1331
  303MOL0     C40830   4.937   8.502   7.063 -1.1094  0.1586  0.2352
  303MOL0     C40831   5.019   8.573   6.969  0.2610 -0.8990 -0.3230
  303MOL0     C40832   5.138   8.653   7.041 -1.3742  0.6547 -1.2784
  303MOL0     C40833   5.246   8.555   7.078 -0.2251 -0.2823 -0.1893
  303MOL0     C40834   5.344   8.495   7.114  0.2143 -1.8809 -0.3705
  303MOL0     C40835   4.748   8.134   6.965  0.3913 -0.3100 -0.0350
  303MOL0     C40836   4.810   8.008   6.939 -0.1394 -0.0833  0.3117
  303MOL0     C40837   4.764   7.953   6.808 -0.6595  0.6478  0.7757
  303MOL0     H40838   4.990   7.603   7.219  1.9623 -2.3160  3.7401
  303MOL0     H40839   5.083   7.376   7.207 -0.2065  0.5538 -0.4591
  303MOL0     H40840   5.547   7.404   7.217 -0.3490  3.2563  1.0816
  303MOL0     H40841   5.420   7.399   7.344  1.6246  0.5674  0.1222
  303MOL0     H40842   5.578   7.169   7.216  0.2973  0.6015 -0.4855
  303MOL0     H40843   5.410   7.156   7.269 -1.5371  4.0314 -0.4684
  303MOL0     H40844   5.566   7.094   7.476 -1.2922  2.0427  6.7652
  303MOL0     H40845   5.473   7.236   7.499 -0.3275 -0.3784  0.4883
  303MOL0     H40846   5.749   7.235   7.377 -3.0568 -2.8096  0.5849
  303MOL0     H40847   5.658   7.386   7.424 -2.6140 -0.8720 -1.1894
  303MOL0     H40848   5.756   7.158   7.603 -0.0889 -1.0530 -0.4617
  303MOL0     H40849   5.851   7.305   7.571 -0.4989 -1.0675 -0.9219
  303MOL0     H40850   5.660   7.444   7.654 -2.9201 -0.1860  3.3096
  303MOL0     H40851   5.596   7.299   7.733 -1.7755  3.6985  1.2565
  303MOL0     H40852   5.863   7.438   7.758  1.3772  1.3221  2.3596
  303MOL0     H40853   5.817   7.278   7.845 -2.6775 -1.2083 -0.3319
  303MOL0     H40854   5.666   7.540   7.867  1.1109 -0.0951 -2.3754
  303MOL0     H40855   5.666   7.401   7.975 -1.3468 -0.3390 -1.3910
  303MOL0     H40856   5.712   7.566   8.185 -0.0199 -0.7153 -1.5737
  303MOL0     H40857   5.986   7.780   8.289 -0.0715 -0.2578 -0.3272
  303MOL0     H40858   5.868   7.682   8.365  0.8428 -1.4101  0.1522
  303MOL0     H40859   6.073   7.499   8.382  1.9030  0.0853 -0.7212
  303MOL0     H40860   6.162   7.641   8.367 -0.9392  0.5673 -0.9559
  303MOL0     H40861   6.104   7.595   8.613 -0.9358  0.0160 -0.3111
  303MOL0     H40862   5.937   7.606   8.568  1.2982 -4.4024 -0.7536
  303MOL0     H40863   5.959   7.859   8.538 -0.0416  0.0373 -2.6166
  303MOL0     H40864   6.139   7.846   8.540 -1.8484  2.3110 -1.5602
  303MOL0     H40865   5.996   7.829   8.961 -0.9139 -1.0699 -1.0796
  303MOL0     H40866   6.008   8.032   9.099  0.3965  1.8659  0.3580
  303MOL0     H40867   5.931   8.554   9.029  0.7958 -1.4910 -0.8726
  303MOL0     H40868   5.885   8.755   9.180  1.7700  0.1844 -2.7279
  303MOL0     H40869   5.900   8.707   9.628  4.1844 -2.0565  1.1568
  303MOL0     H40870   6.050   8.749   9.536  1.2931  2.8318 -2.1964
  303MOL0     H40871   6.047   8.934   9.660 -0.6300  3.3587 -0.2926
  303MOL0     H40872   5.966   8.979   9.511 -2.3730  0.2206 -0.2031
  303MOL0     H40873   5.754   8.926   9.626  0.8183  2.3263 -4.1178
  303MOL0     H40874   5.857   8.961   9.782 -1.1206  2.1724  0.7138
  303MOL0     H40875   5.749   9.150   9.583 -1.2760  1.2139  1.0181
  303MOL0     H40876   5.906   9.168   9.673  1.6384 -1.9973  1.9364
  303MOL0     H40877   5.743   9.289   9.790  0.6404 -0.4608  0.1215
  303MOL0     H40878   5.755   9.132   9.879  0.1209 -0.8765 -0.5318
  303MOL0     H40879   5.540   9.169   9.670 -0.1653  1.7098  0.1637
  303MOL0     H40880   5.562   9.046   9.789  2.2437 -0.2843  6.4798
  303MOL0     H40881   5.490   9.345   9.831 -0.9200  0.7313 -0.1845
  303MOL0     H40882   5.558   9.262   9.964 -2.5580  0.8631  2.2369
  303MOL0     H40883   5.306   9.175   9.821  0.7792 -0.9847 -0.2266
  303MOL0     H40884   5.359   9.079   9.953  1.0867 -0.3013  0.5284
  303MOL0     H40885   5.914   8.509   9.527  1.3432 -1.1631  0.3062
  303MOL0     H40886   5.969   8.313   9.374  2.2530 -0.4513 -3.4219
  303MOL0     H40887   6.091   8.258   8.728 -2.0776  2.8207  1.0882
  303MOL0     H40888   6.092   8.056   8.616  0.5107 -0.1751  0.2884
  303MOL0     H40889   5.447   7.548   7.059  0.7674 -1.0867  1.6609
  303MOL0     H40890   5.322   7.759   7.019  0.3621 -0.7807 -1.0569
  303MOL0     H40891   5.019   8.028   7.212 -1.6097  0.9015  2.1549
  303MOL0     H40892   4.919   8.250   7.225  2.4142 -1.4120  1.6221
  303MOL0     H40893   4.761   8.531   6.966  0.7702  1.4790 -3.4472
  303MOL0     H40894   4.858   8.391   6.900 -1.0988 -0.6592  0.7542
  303MOL0     H40895   5.001   8.422   7.101  0.6407  1.4497  0.1501
  303MOL0     H40896   4.908   8.579   7.136  1.6259 -1.5660  3.3850
  303MOL0     H40897   4.960   8.648   6.916 -1.0590 -3.2399 -2.4238
  303MOL0     H40898   5.060   8.521   6.882  0.0823 -0.3514 -0.7397
  303MOL0     H40899   5.186   8.727   6.978  1.1370  1.2012  1.0902
  303MOL0     H40900   5.099   8.714   7.123  2.3465  2.7711 -0.9112
  303MOL0     H40901   5.422   8.442   7.166 -0.3450  0.2416  2.9348
  303MOL0     H40902   4.688   8.173   6.883 -2.0290  0.3187  1.8928
  303MOL0     H40903   4.845   7.906   6.751  0.6920  0.6435  2.6078
  303MOL0     H40904   4.687   7.877   6.823  2.8628 -3.3764  0.5006
  303MOL0     H40905   4.721   8.033   6.746 -1.8017 -1.0310 -0.7082
  304MOL0     O40906   2.726   5.402   6.878 -0.6154  0.6075  0.2474
  304MOL0     C40907   2.660   5.328   6.804  0.1041  0.5981  0.8377
  304MOL0     O40908   2.522   5.306   6.812 -0.2685  0.0450 -0.1007
  304MOL0     C40909   2.442   5.400   6.876 -0.4008  0.4588  0.4011
  304MOL0     C40910   2.343   5.471   6.802  0.4927 -0.4441  0.3000
  304MOL0     C40911   2.271   5.572   6.874 -0.5323  0.8412 -0.1457
  304MOL0     C40912   2.303   5.593   7.007  0.0486  0.3239 -0.4163
  304MOL0     O40913   2.226   5.693   7.062 -0.3349  0.1456  0.4110
  304MOL0     C40914   2.228   5.741   7.198  0.3649  0.6313 -0.2040
  304MOL0     C40915   2.103   5.826   7.229  0.2586  0.2710  0.3298
  304MOL0     C40916   2.126   5.872   7.374 -0.0634 -0.3475  1.3843
  304MOL0     C40917   2.136   6.028   7.385  0.3112  0.8741  0.3447
  304MOL0     C40918   2.163   6.060   7.533 -0.2116  1.1929 -0.1653
  304MOL0     C40919   2.304   6.042   7.585  0.1795 -0.9641 -0.2166
  304MOL0     C40920   2.422   6.115   7.508  0.9576 -0.8946 -0.2720
  304MOL0     C40921   2.494   6.028   7.408 -0.2712  0.1059 -0.4802
  304MOL0     N40922   2.559   5.903   7.461 -0.3755  0.6977  0.5999
  304MOL0     C40923   2.663   5.904   7.550 -1.2654 -0.5796 -0.4624
  304MOL0     C40924   2.671   5.771   7.594 -0.0558 -0.9088  0.1603
  304MOL0     C40925   2.778   5.715   7.688  0.0912  0.2889 -0.9255
  304MOL0     C40926   2.852   5.831   7.767 -0.2172  0.6180  0.0132
  304MOL0     C40927   2.983   5.778   7.846 -0.2000 -0.2521 -0.8957
  304MOL0     C40928   3.056   5.891   7.930  0.2496  0.1583  0.3066
  304MOL0     O40929   2.962   5.985   7.993 -0.0263 -0.5435 -0.0014
  304MOL0     C40930   2.953   5.968   8.130  0.2643 -0.4675 -0.3971
  304MOL0     C40931   2.921   6.089   8.200  0.8069  0.2640 -0.6482
  304MOL0     C40932   2.926   6.091   8.347  0.0337  0.0485 -0.2400
  304MOL0     C40933   2.953   5.969   8.415 -0.2232  0.5935  0.6955
  304MOL0     C40934   2.952   5.973   8.563 -0.9386  0.2701 -0.7337
  304MOL0     O40935   2.961   6.094   8.620 -0.1272  0.0082  0.0977
  304MOL0     C40936   2.971   6.111   8.751 -0.0175 -0.1373 -1.2764
  304MOL0     C40937   2.860   6.102   8.840 -0.5352  0.8385 -0.1346
  304MOL0     C40938   2.875   6.120   8.981 -0.1816 -0.3489  1.2123
  304MOL0     C40939   3.000   6.168   9.028  0.0930 -0.2811 -0.1746
  304MOL0     O40940   3.032   6.205   9.159 -0.0898 -0.9436  0.3897
  304MOL0     C40941   2.956   6.153   9.262  0.3715 -0.0777  0.6128
  304MOL0     C40942   3.018   6.170   9.399  0.0995  0.0369  0.2874
  304MOL0     C40943   3.015   6.312   9.457 -0.1241 -0.1870 -0.2648
  304MOL0     C40944   3.151   6.374   9.424 -0.2822 -0.4681 -0.0662
  304MOL0     C40945   3.170   6.506   9.503  0.5554  0.0670 -0.2391
  304MOL0     C40946   3.294   6.584   9.456 -0.2447  0.1034  0.6720
  304MOL0     C40947   3.298   6.732   9.499 -0.4784  0.3654  0.0907
  304MOL0     C40948   3.408   6.818   9.441 -1.5322  0.1988  0.9306
  304MOL0    Cl40949   3.572   6.728   9.445  0.2737 -0.3082 -0.2505
  304MOL0     C40950   3.102   6.194   8.942 -0.3789  0.0287  0.7678
  304MOL0     C40951   3.093   6.162   8.803  0.3793 -0.3830  0.7872
  304MOL0     O40952   2.945   5.868   8.632  0.1871 -0.1525 -0.0449
  304MOL0     C40953   2.960   5.847   8.346  0.2583 -0.3361 -0.0820
  304MOL0     C40954   2.969   5.846   8.202  0.1457 -0.2612 -0.4300
  304MOL0     N40955   2.581   5.694   7.529 -0.2938 -0.4407 -0.1326
  304MOL0     N40956   2.509   5.776   7.457 -0.2915 -0.3585  0.1961
  304MOL0     C40957   2.389   5.512   7.081 -0.5554  0.6543 -0.2865
  304MOL0     C40958   2.469   5.418   7.012  0.1405  0.7474  0.9383
  304MOL0     C40959   2.729   5.263   6.683 -0.1525 -0.6785  0.4874
  304MOL0     C40960   2.654   5.174   6.604 -0.6046 -0.0939 -0.7618
  304MOL0     C40961   2.701   5.115   6.482  0.4835 -0.0427 -0.5038
  304MOL0     C40962   2.824   5.147   6.435  1.0979 -0.5593  0.1997
  304MOL0     O40963   2.862   5.096   6.313  0.5075 -0.2364  0.6690
  304MOL0     C40964   2.999   5.107   6.278  0.3609  0.5829 -0.4015
  304MOL0     C40965   3.001   5.065   6.130  0.9742 -0.2599 -0.6180
  304MOL0     C40966   2.908   4.945   6.094  0.6306 -0.6885  0.2280
  304MOL0     C40967   2.935   4.872   5.956 -0.0918  0.0063 -0.1302
  304MOL0     C40968   3.069   4.830   5.949  0.0252 -0.3536  1.4811
  304MOL0     C40969   3.186   4.808   5.941 -0.5471 -0.0181 -0.1346
  304MOL0     C40970   2.911   5.232   6.510  0.7710 -0.0817 -0.7006
  304MOL0     C40971   2.864   5.291   6.639  0.8464  0.7827 -0.0132
  304MOL0     C40972   2.950   5.394   6.708  0.6727 -0.9442 -0.1341
  304MOL0     H40973   2.323   5.446   6.698 -0.5731  2.6723 -0.3667
  304MOL0     H40974   2.181   5.628   6.850  0.3658  1.7763 -1.5152
  304MOL0     H40975   2.234   5.666   7.278 -1.6018 -0.6465 -1.2033
  304MOL0     H40976   2.316   5.806   7.212  1.5199 -0.5599 -1.6103
  304MOL0     H40977   2.006   5.776   7.241 -0.2227  1.4565  1.8314
  304MOL0     H40978   2.095   5.913   7.163  1.4029  0.8981  0.9824
  304MOL0     H40979   2.218   5.830   7.417 -0.4661 -2.6222  0.1709
  304MOL0     H40980   2.043   5.838   7.436 -0.3433 -1.6536  0.3198
  304MOL0     H40981   2.195   6.071   7.304  0.2105  1.6530  0.6748
  304MOL0     H40982   2.033   6.054   7.356  0.1806 -1.0511 -1.1017
  304MOL0     H40983   2.151   6.168   7.547 -2.9896  0.8232  1.0700
  304MOL0     H40984   2.089   6.008   7.594  0.5929  2.2675  1.7995
  304MOL0     H40985   2.299   6.090   7.683 -1.2571  0.5549 -0.9569
  304MOL0     H40986   2.333   5.937   7.593 -1.0166 -1.3622 -0.7997
  304MOL0     H40987   2.502   6.145   7.576 -1.4606 -0.3613  2.5558
  304MOL0     H40988   2.375   6.205   7.468  0.7318 -0.5071  0.8166
  304MOL0     H40989   2.406   5.996   7.351 -2.6225 -0.7305  3.2693
  304MOL0     H40990   2.561   6.087   7.345 -1.5098  0.6323 -1.3509
  304MOL0     H40991   2.730   5.984   7.578 -2.0496 -0.6357  1.8239
  304MOL0     H40992   2.745   5.633   7.753 -0.9644 -2.2539 -4.3516
  304MOL0     H40993   2.853   5.679   7.617 -0.4900  1.7077 -2.3014
  304MOL0     H40994   2.905   5.902   7.702 -0.5634  1.5843  0.7622
  304MOL0     H40995   2.775   5.886   7.821 -0.4665  1.5221 -1.2123
  304MOL0     H40996   3.061   5.741   7.779  0.4240 -1.6748  0.5532
  304MOL0     H40997   2.952   5.690   7.903  0.3204  0.5832  0.7317
  304MOL0     H40998   3.112   5.949   7.856 -3.0198  2.3673 -0.6902
  304MOL0     H40999   3.128   5.848   8.000 -0.6413  1.8236  2.3835
  304MOL0     H41000   2.911   6.173   8.132 -1.9195  0.3647 -0.2188
  304MOL0     H41001   2.909   6.188   8.391  0.4832  0.1566 -0.2961
  304MOL0     H41002   2.765   6.069   8.798  0.6786 -0.4238 -2.0077
  304MOL0     H41003   2.789   6.117   9.047  0.6075  1.7484  2.4329
  304MOL0     H41004   2.855   6.195   9.257  1.5110  2.9321  0.4621
  304MOL0     H41005   2.949   6.048   9.232 -1.7917 -0.4870  2.3840
  304MOL0     H41006   2.952   6.124   9.473  0.7920 -0.3563  0.6663
  304MOL0     H41007   3.111   6.114   9.409 -1.3745 -2.7945 -0.8130
  304MOL0     H41008   2.940   6.379   9.415  0.3316 -1.0976 -2.7327
  304MOL0     H41009   3.003   6.312   9.565 -0.9939 -0.9331 -0.3537
  304MOL0     H41010   3.153   6.400   9.317 -1.0380  1.8531  0.4229
  304MOL0     H41011   3.232   6.304   9.445  1.8911  0.5090 -4.1983
  304MOL0     H41012   3.171   6.481   9.609  0.6581 -5.0712 -1.1892
  304MOL0     H41013   3.084   6.570   9.484 -0.2051 -1.4330 -2.2832
  304MOL0     H41014   3.384   6.535   9.494 -0.4461 -0.0530  0.9574
  304MOL0     H41015   3.304   6.565   9.348 -0.0324 -1.9196  0.9942
  304MOL0     H41016   3.325   6.747   9.604  1.9013  1.5054 -0.6116
  304MOL0     H41017   3.200   6.776   9.482 -1.4963 -1.0629  1.9250
  304MOL0     H41018   3.388   6.856   9.340  2.8187 -0.8159 -0.5374
  304MOL0     H41019   3.428   6.909   9.498 -0.9678 -2.0952  4.7412
  304MOL0     H41020   3.191   6.239   8.985  0.8883  1.3739 -2.8353
  304MOL0     H41021   3.172   6.173   8.729  0.0995 -0.2973  0.4974
  304MOL0     H41022   2.965   5.752   8.399  0.8334 -0.8472 -1.0080
  304MOL0     H41023   2.983   5.764   8.132 -1.9220  0.5023 -1.8351
  304MOL0     H41024   2.400   5.513   7.189  0.0600 -0.1608 -0.3275
  304MOL0     H41025   2.532   5.342   7.058  0.9249 -1.1311 -2.8079
  304MOL0     H41026   2.559   5.142   6.645  0.5419 -2.8659 -0.0292
  304MOL0     H41027   2.633   5.058   6.419 -2.6956  0.5988  2.0979
  304MOL0     H41028   3.049   5.039   6.348  1.3431  0.7241 -0.9437
  304MOL0     H41029   3.032   5.211   6.278  0.7606  0.4972  2.1210
  304MOL0     H41030   3.104   5.042   6.104  1.4287 -0.5921  1.4010
  304MOL0     H41031   2.972   5.150   6.066 -3.7653 -1.6515 -0.6967
  304MOL0     H41032   2.801   4.969   6.101  1.1645  1.8901  0.5330
  304MOL0     H41033   2.925   4.869   6.170  1.0033 -0.9695 -0.1339
  304MOL0     H41034   2.865   4.789   5.944 -1.1911  1.1266 -2.0487
  304MOL0     H41035   2.907   4.937   5.872 -1.4590 -0.7288 -0.2773
  304MOL0     H41036   3.285   4.769   5.938 -1.7992 -3.8632  2.0727
  304MOL0     H41037   3.008   5.257   6.469  1.0814  1.4270  0.8342
  304MOL0     H41038   3.052   5.401   6.669  0.8229 -0.7743  0.2816
  304MOL0     H41039   2.909   5.495   6.713  1.8810 -0.4227 -0.4826
  304MOL0     H41040   2.968   5.360   6.810  0.8778 -1.2717 -0.2757
  305MOL0     O41041   9.802   0.297   4.267 -1.1821  0.1560  0.7472
  305MOL0     C41042   9.709   0.241   4.330  0.9867  0.5406  0.4564
  305MOL0     O41043   9.594   0.191   4.280  0.1710  0.4929  0.3748
  305MOL0     C41044   9.593   0.163   4.145  0.5415 -0.3800 -0.6941
  305MOL0     C41045   9.554   0.038   4.105  1.1457 -0.0422 -0.0656
  305MOL0     C41046   9.534   0.005   3.969 -0.8144  0.5085  0.1564
  305MOL0     C41047   9.578   0.103   3.867  0.3373 -0.6437 -0.1330
  305MOL0     O41048   9.563   0.065   3.743 -0.3269 -0.1568  0.5854
  305MOL0     C41049   9.598   0.154   3.630 -0.4019 -0.3644 -0.6007
  305MOL0     C41050   9.618   0.066   3.503 -0.2543  0.2007 -0.0767
  305MOL0     C41051   9.615   0.152   3.374 -0.0161 -0.9383 -1.3042
  305MOL0     C41052   9.662   0.063   3.255 -0.3034 -1.1919 -0.0899
  305MOL0     C41053   9.683   0.145   3.121 -1.1960 -0.0493  0.6319
  305MOL0     C41054   9.807   0.099   3.041 -0.4890  0.3668 -0.7583
  305MOL0     C41055   9.812   0.187   2.904 -0.1044  0.2461 -1.6781
  305MOL0     C41056   9.760   0.333   2.919 -0.6883 -0.1586  0.6600
  305MOL0     N41057   9.780   0.422   2.798 -0.2442  0.0425 -0.0158
  305MOL0     C41058   9.677   0.492   2.743  0.2680 -0.2876 -0.1263
  305MOL0     C41059   9.737   0.575   2.668  0.7267  1.0399  0.5368
  305MOL0     C41060   9.666   0.664   2.573  0.3770  0.6352  0.2900
  305MOL0     C41061   9.566   0.585   2.489 -0.2029  0.2801 -0.1290
  305MOL0     C41062   9.459   0.673   2.408 -0.1211  0.6729 -1.0859
  305MOL0     C41063   9.337   0.588   2.365 -0.6322 -0.4704  0.0719
  305MOL0     O41064   9.223   0.672   2.378 -0.3769 -0.4227 -0.4650
  305MOL0     C41065   9.105   0.597   2.407 -0.2895 -0.3668  0.1336
  305MOL0     C41066   9.071   0.480   2.348 -1.0022 -0.0873 -0.0326
  305MOL0     C41067   8.946   0.419   2.358  0.3930  1.0384 -1.1402
  305MOL0     C41068   8.848   0.478   2.441 -1.1302  0.6369 -0.2497
  305MOL0     C41069   8.717   0.404   2.451  0.2767  0.0087  0.5883
  305MOL0     O41070   8.645   0.435   2.553 -0.7293 -0.5205  0.2009
  305MOL0     C41071   8.511   0.405   2.565  0.0921 -0.1747 -0.2556
  305MOL0     C41072   8.461   0.273   2.542  0.1009 -0.0658 -0.0180
  305MOL0     C41073   8.324   0.241   2.564 -0.0616  0.1880  1.2113
  305MOL0     C41074   8.238   0.334   2.615 -0.1190 -0.5747  0.2980
  305MOL0     O41075   8.107   0.310   2.633 -1.2621 -0.7757  0.2729
  305MOL0     C41076   8.052   0.185   2.620  0.0232  0.2170 -0.0268
  305MOL0     C41077   7.908   0.174   2.665  0.3995  0.0885  1.2351
  305MOL0     C41078   7.863   0.030   2.705  0.6703  0.0951 -0.0226
  305MOL0     C41079   7.788  -0.053   2.594 -0.3511  0.1506 -0.0905
  305MOL0     C41080   7.765  -0.195   2.632  0.5250 -0.0590 -0.7450
  305MOL0     C41081   7.888  -0.285   2.611  0.1345  0.6164 -0.3213
  305MOL0     C41082   7.866  -0.418   2.691 -0.1806 -0.8185 -0.3664
  305MOL0     C41083   7.857  -0.402   2.843  0.4041 -0.1728  0.4440
  305MOL0    Cl41084   7.778  -0.546   2.893  0.4699  0.0561 -0.7776
  305MOL0     C41085   8.289   0.462   2.644  0.4183 -0.5048  0.4756
  305MOL0     C41086   8.420   0.497   2.616 -0.2628 -0.4886 -0.0968
  305MOL0     O41087   8.684   0.320   2.364  0.1169 -0.9233  0.3555
  305MOL0     C41088   8.886   0.588   2.517 -0.3359  0.1093 -0.6989
  305MOL0     C41089   9.012   0.650   2.497 -0.5027  0.9985 -0.1782
  305MOL0     N41090   9.874   0.549   2.659  0.2745  0.3637 -0.0496
  305MOL0     N41091   9.900   0.468   2.753 -0.9343  0.5734  0.1204
  305MOL0     C41092   9.605   0.233   3.915 -0.2783  0.6664 -0.7496
  305MOL0     C41093   9.612   0.256   4.047  0.4520 -0.5462 -1.0144
  305MOL0     C41094   9.726   0.190   4.473 -0.1416  0.4457 -0.0986
  305MOL0     C41095   9.685   0.061   4.509 -1.5591  0.1663 -0.4916
  305MOL0     C41096   9.707   0.007   4.633  0.7809  0.0576  0.4720
  305MOL0     C41097   9.755   0.087   4.733  0.4206  0.3584 -0.5383
  305MOL0     O41098   9.770   0.015   4.851  0.0714  0.2995  0.2279
  305MOL0     C41099   9.901   0.006   4.900  0.9221 -1.1809 -0.3158
  305MOL0     C41100   9.975  -0.097   4.818  0.0835  0.3949 -1.0746
  305MOL0     C41101  10.124  -0.112   4.856 -0.4975 -0.8217 -0.6436
  305MOL0     C41102  10.200  -0.227   4.805 -0.9454  0.0754  0.3550
  305MOL0     C41103  10.341  -0.204   4.824  0.7194 -1.6055  0.2213
  305MOL0     C41104  10.455  -0.176   4.854  0.1800 -1.3304  0.1770
  305MOL0     C41105   9.787   0.216   4.714  0.0038 -0.3061 -0.4389
  305MOL0     C41106   9.777   0.278   4.580  0.1434  0.3690 -0.2853
  305MOL0     C41107   9.801   0.425   4.555  0.1563  0.0696  0.1069
  305MOL0     H41108   9.549  -0.044   4.175  0.8543 -1.6716 -1.8901
  305MOL0     H41109   9.497  -0.095   3.948  0.2380  0.3036 -0.8747
  305MOL0     H41110   9.517   0.227   3.626  0.1217  0.4016  1.3292
  305MOL0     H41111   9.697   0.200   3.642  0.8314 -3.0230 -0.0021
  305MOL0     H41112   9.525   0.008   3.508  0.9000 -1.6789  0.3323
  305MOL0     H41113   9.700  -0.005   3.510 -1.1492 -0.7875  0.7920
  305MOL0     H41114   9.681   0.238   3.389 -0.6227 -0.4706 -1.2885
  305MOL0     H41115   9.511   0.185   3.364 -0.0318  0.7932  2.7064
  305MOL0     H41116   9.765   0.036   3.279 -0.1211 -0.0396  0.5091
  305MOL0     H41117   9.611  -0.033   3.242  1.8412 -2.1381 -2.3473
  305MOL0     H41118   9.601   0.130   3.050 -0.0036  0.2503 -0.8582
  305MOL0     H41119   9.679   0.253   3.141  1.0784  0.5021 -1.3689
  305MOL0     H41120   9.898   0.106   3.101 -1.1960 -1.4037  0.6307
  305MOL0     H41121   9.790  -0.008   3.024 -1.1449  0.2712  0.3992
  305MOL0     H41122   9.738   0.135   2.844 -3.4924  2.2418  0.4143
  305MOL0     H41123   9.913   0.181   2.863  0.5368  0.8041 -0.2788
  305MOL0     H41124   9.654   0.331   2.946 -0.3427 -2.5415  2.1294
  305MOL0     H41125   9.815   0.383   2.999 -1.3627  0.8040  0.5335
  305MOL0     H41126   9.569   0.493   2.756  0.2519 -0.9044 -0.1925
  305MOL0     H41127   9.614   0.736   2.637  0.3730  0.0563  0.9590
  305MOL0     H41128   9.742   0.705   2.507 -0.8004 -0.3271 -1.7417
  305MOL0     H41129   9.618   0.525   2.413  1.6015  1.3086  0.2331
  305MOL0     H41130   9.492   0.528   2.545 -2.2196  3.1818  0.4017
  305MOL0     H41131   9.523   0.718   2.332  1.9937 -0.2908  0.0206
  305MOL0     H41132   9.419   0.757   2.467 -1.5440  0.7043 -2.0474
  305MOL0     H41133   9.344   0.491   2.415  0.6992 -0.4087  0.0603
  305MOL0     H41134   9.346   0.555   2.262 -0.4739  0.7476 -0.3194
  305MOL0     H41135   9.134   0.425   2.279 -0.7911  1.6630 -1.3398
  305MOL0     H41136   8.923   0.328   2.303  0.5467 -0.1465  0.6611
  305MOL0     H41137   8.517   0.187   2.505  1.0190  0.1850  0.7843
  305MOL0     H41138   8.278   0.146   2.539  1.8786 -0.2213 -1.2107
  305MOL0     H41139   8.053   0.160   2.513  1.3478 -0.2934  0.0905
  305MOL0     H41140   8.105   0.105   2.673 -0.5212  0.0784  0.3285
  305MOL0     H41141   7.888   0.232   2.755  0.0144 -0.5644  1.5694
  305MOL0     H41142   7.848   0.211   2.581  0.4498 -0.2015  1.0696
  305MOL0     H41143   7.951  -0.021   2.745 -0.9464 -0.9030  2.5337
  305MOL0     H41144   7.793   0.029   2.789  0.4679 -1.8831 -0.1754
  305MOL0     H41145   7.857  -0.055   2.510  0.6719  0.1395  0.7328
  305MOL0     H41146   7.697   0.007   2.583  0.1060  1.2642  1.7682
  305MOL0     H41147   7.676  -0.235   2.582 -1.2509  1.4431  1.0563
  305MOL0     H41148   7.739  -0.188   2.738 -0.6486 -3.0521 -0.7260
  305MOL0     H41149   7.894  -0.315   2.506 -0.5078 -1.4829  0.1911
  305MOL0     H41150   7.980  -0.240   2.648  0.4303  0.4944 -0.8991
  305MOL0     H41151   7.945  -0.489   2.664 -0.1877 -2.1411  2.6021
  305MOL0     H41152   7.777  -0.467   2.649 -0.3484 -0.1982 -0.7408
  305MOL0     H41153   7.961  -0.395   2.877  0.2856 -0.5163  0.8813
  305MOL0     H41154   7.792  -0.319   2.873 -1.8750  0.1241 -4.3990
  305MOL0     H41155   8.222   0.534   2.690  1.1553 -0.2663  1.2052
  305MOL0     H41156   8.437   0.599   2.650 -0.5051 -0.2403 -0.7087
  305MOL0     H41157   8.809   0.619   2.588  0.1930 -1.0637  0.4257
  305MOL0     H41158   9.034   0.734   2.562  0.9291  1.3905 -1.1267
  305MOL0     H41159   9.640   0.310   3.847  0.0618  1.7143  0.5670
  305MOL0     H41160   9.632   0.358   4.079  0.1761 -0.6105 -0.6248
  305MOL0     H41161   9.660   0.000   4.423  1.0741  0.1336 -1.3176
  305MOL0     H41162   9.698  -0.097   4.660 -0.5614 -0.0465 -0.3165
  305MOL0     H41163   9.887  -0.023   5.005 -1.4239  1.4201  0.2244
  305MOL0     H41164   9.936   0.109   4.891 -1.9597 -0.2523 -2.2881
  305MOL0     H41165   9.945  -0.085   4.714  3.7522  1.2831 -2.2039
  305MOL0     H41166   9.937  -0.197   4.842 -0.4871  1.2288  1.8751
  305MOL0     H41167  10.122  -0.124   4.964 -1.1688  0.4588 -0.4988
  305MOL0     H41168  10.171  -0.017   4.829 -4.2143  1.3558 -0.1438
  305MOL0     H41169  10.158  -0.312   4.860 -0.3018  1.4323  3.0779
  305MOL0     H41170  10.188  -0.239   4.697  2.7965 -0.8271 -0.0749
  305MOL0     H41171  10.550  -0.149   4.895 -0.1600 -1.4669  1.0817
  305MOL0     H41172   9.828   0.270   4.799 -0.0177 -1.5935  0.4213
  305MOL0     H41173   9.891   0.441   4.495 -2.6681  0.4250 -4.5309
  305MOL0     H41174   9.728   0.476   4.491 -0.5149 -1.4462 -0.3808
  305MOL0     H41175   9.811   0.490   4.642 -0.9235  0.4181 -0.0114
  306MOL0     O41176   2.831   1.774   0.494 -0.1752  0.5577 -0.4148
  306MOL0     C41177   2.929   1.846   0.489 -0.5804  0.6751  0.4809
  306MOL0     O41178   2.991   1.905   0.601 -0.2977 -0.4402 -0.5381
  306MOL0     C41179   2.945   1.893   0.725  0.5135  0.1872 -0.5651
  306MOL0     C41180   2.918   1.766   0.778 -0.7274  0.0993  0.3201
  306MOL0     C41181   2.872   1.760   0.912 -0.2108 -0.2570  0.1821
  306MOL0     C41182   2.843   1.886   0.982  0.6214 -0.9641 -0.1196
  306MOL0     O41183   2.793   1.881   1.108  0.1721  0.4033  0.6467
  306MOL0     C41184   2.903   1.911   1.201 -0.6018  0.3648 -0.3985
  306MOL0     C41185   2.885   1.847   1.331 -0.9890 -0.2160 -0.8243
  306MOL0     C41186   3.009   1.866   1.420  0.0689  0.6885 -0.7501
  306MOL0     C41187   2.982   1.836   1.574 -0.4054  0.5049  1.1246
  306MOL0     C41188   3.113   1.831   1.654  0.0646  0.2138  0.1243
  306MOL0     C41189   3.084   1.783   1.795  0.1719 -0.6523  0.2303
  306MOL0     C41190   3.218   1.753   1.863 -0.5491 -0.5654  0.3007
  306MOL0     C41191   3.189   1.699   2.001  0.1788  0.3434 -0.2809
  306MOL0     N41192   3.314   1.689   2.081 -0.4970  0.0678 -0.8065
  306MOL0     C41193   3.398   1.582   2.073 -0.7589 -0.5292  0.0088
  306MOL0     C41194   3.497   1.601   2.165 -0.4581 -0.1832  0.0734
  306MOL0     C41195   3.612   1.511   2.201  0.9100 -0.8392 -0.2556
  306MOL0     C41196   3.552   1.395   2.273 -0.5250 -0.9886 -0.3275
  306MOL0     C41197   3.652   1.286   2.316  0.1673 -0.1005  0.6524
  306MOL0     C41198   3.758   1.338   2.414  0.5674 -0.8987 -0.8890
  306MOL0     O41199   3.704   1.428   2.516  0.4680  0.0884 -0.5546
  306MOL0     C41200   3.789   1.493   2.607  0.6762  0.1746 -0.3535
  306MOL0     C41201   3.930   1.506   2.606  0.1401 -0.0331 -0.6876
  306MOL0     C41202   4.002   1.559   2.716  0.3246 -0.1432  0.0420
  306MOL0     C41203   3.940   1.608   2.827 -0.2059 -0.1219  0.5527
  306MOL0     C41204   4.014   1.665   2.944 -0.4892  0.6827  0.7084
  306MOL0     O41205   3.931   1.687   3.051 -0.5848 -0.0565  0.2434
  306MOL0     C41206   3.995   1.750   3.154 -0.9619 -0.3992  0.2780
  306MOL0     C41207   4.052   1.881   3.149 -0.0299  0.2439  0.0209
  306MOL0     C41208   4.140   1.920   3.249  0.2230 -1.1711  0.7768
  306MOL0     C41209   4.169   1.847   3.355  0.2841  0.2709 -0.7238
  306MOL0     O41210   4.247   1.916   3.447  0.0848 -0.2979 -0.4714
  306MOL0     C41211   4.300   1.836   3.557 -0.4293  0.4972  0.3879
  306MOL0     C41212   4.381   1.914   3.669 -0.3161 -0.5310  0.0729
  306MOL0     C41213   4.311   2.042   3.742  0.4337 -0.0312  0.0944
  306MOL0     C41214   4.392   2.089   3.860 -0.1268 -0.4211  0.0629
  306MOL0     C41215   4.307   2.159   3.971  0.5674 -0.5155 -0.5714
  306MOL0     C41216   4.377   2.159   4.103 -0.3279  0.6787 -0.1898
  306MOL0     C41217   4.518   2.225   4.091  0.1369  0.5089 -0.5306
  306MOL0     C41218   4.600   2.246   4.217  0.2349  0.3703  0.6259
  306MOL0    Cl41219   4.512   2.346   4.336  0.1646 -0.2389  0.2213
  306MOL0     C41220   4.127   1.713   3.356  0.5095 -0.4354  0.7093
  306MOL0     C41221   4.036   1.671   3.259  1.8361  0.3958  0.3528
  306MOL0     O41222   4.136   1.693   2.936 -0.0768 -0.0037  0.2497
  306MOL0     C41223   3.802   1.595   2.824  0.7399 -0.5546 -0.3177
  306MOL0     C41224   3.728   1.544   2.722  1.0166 -0.5818  0.0290
  306MOL0     N41225   3.457   1.723   2.226 -1.5367 -0.7387  0.0092
  306MOL0     N41226   3.352   1.776   2.178 -0.8523 -0.1362  0.4266
  306MOL0     C41227   2.886   2.006   0.925 -0.3089  1.1219 -0.2544
  306MOL0     C41228   2.923   2.012   0.796 -1.3034  0.1766 -0.2294
  306MOL0     C41229   3.015   1.833   0.367 -0.8553 -0.0280 -0.3406
  306MOL0     C41230   3.156   1.829   0.388  0.3109  0.5311  0.0618
  306MOL0     C41231   3.237   1.815   0.284 -0.0620 -0.2661  0.2359
  306MOL0     C41232   3.194   1.806   0.154  0.3671  0.0261 -0.4877
  306MOL0     O41233   3.285   1.774   0.059 -0.1194 -0.2938  0.3267
  306MOL0     C41234   3.249   1.772  -0.086  0.2151  0.5074  0.0137
  306MOL0     C41235   3.363   1.718  -0.166 -0.3093  0.7609  0.0067
  306MOL0     C41236   3.318   1.746  -0.317  0.4191  0.4845  0.5329
  306MOL0     C41237   3.415   1.666  -0.409  0.0630  0.0183  0.7434
  306MOL0     C41238   3.551   1.708  -0.419 -0.9766 -0.4396  0.1905
  306MOL0     C41239   3.661   1.755  -0.452 -0.4245 -0.9483 -0.0117
  306MOL0     C41240   3.052   1.804   0.130 -0.0648  1.6620 -0.3615
  306MOL0     C41241   2.966   1.806   0.235  0.5277 -0.5377  0.2454
  306MOL0     C41242   2.824   1.841   0.191  0.1460 -0.4053  0.0619
  306MOL0     H41243   2.930   1.679   0.714 -0.3893  1.4507 -1.5432
  306MOL0     H41244   2.852   1.662   0.956 -2.3057 -1.8830 -3.8824
  306MOL0     H41245   3.000   1.881   1.160  0.4104 -0.4430  2.4130
  306MOL0     H41246   2.893   2.019   1.216  0.1711  0.3351  0.3857
  306MOL0     H41247   2.871   1.739   1.317 -0.1027 -0.7822  2.1424
  306MOL0     H41248   2.797   1.899   1.370  2.0528  1.6095  4.5649
  306MOL0     H41249   3.058   1.964   1.414 -0.4769  0.8914 -2.3264
  306MOL0     H41250   3.083   1.798   1.378  0.9770  3.0689 -3.2969
  306MOL0     H41251   2.915   1.915   1.608 -1.4912 -1.4328  3.8808
  306MOL0     H41252   2.934   1.738   1.585  1.1911 -0.2813  1.5455
  306MOL0     H41253   3.182   1.760   1.607 -0.4664  0.3203 -0.8315
  306MOL0     H41254   3.167   1.925   1.666  0.3290 -0.1292  1.8400
  306MOL0     H41255   3.025   1.859   1.847  2.2348  0.9273  0.3944
  306MOL0     H41256   3.020   1.695   1.780 -1.7467  0.1319  3.0879
  306MOL0     H41257   3.277   1.845   1.858  1.4160 -1.8170 -1.8949
  306MOL0     H41258   3.259   1.672   1.802 -0.1343  0.1273 -0.3671
  306MOL0     H41259   3.131   1.777   2.052  4.2424  4.1836 -0.9473
  306MOL0     H41260   3.129   1.607   2.002  1.6553 -0.6865  2.1810
  306MOL0     H41261   3.401   1.502   2.000  0.5682 -1.1925  0.7438
  306MOL0     H41262   3.658   1.475   2.109 -1.2849  0.5171 -2.0016
  306MOL0     H41263   3.685   1.563   2.263 -0.1872 -0.2725  0.6151
  306MOL0     H41264   3.502   1.441   2.358  1.3995  1.6010 -0.4668
  306MOL0     H41265   3.478   1.341   2.213  1.3113 -3.7387 -0.3305
  306MOL0     H41266   3.699   1.235   2.231 -2.1180 -2.0623  0.4314
  306MOL0     H41267   3.598   1.202   2.361  2.0385 -0.7851  1.7381
  306MOL0     H41268   3.843   1.384   2.363  1.3103  0.3526  1.3228
  306MOL0     H41269   3.800   1.253   2.470 -1.1565 -1.3265 -0.1821
  306MOL0     H41270   3.984   1.469   2.519  0.2868 -1.6524  0.0680
  306MOL0     H41271   4.110   1.548   2.709  0.1768 -1.7353  0.0740
  306MOL0     H41272   4.044   1.946   3.062 -0.8555  1.4284  0.9569
  306MOL0     H41273   4.171   2.024   3.240 -2.6453 -0.3140 -0.3886
  306MOL0     H41274   4.214   1.802   3.616  1.1170 -1.3425  1.7251
  306MOL0     H41275   4.352   1.753   3.508  0.1333  0.8719  0.3477
  306MOL0     H41276   4.408   1.849   3.753 -0.2586 -1.3910 -0.5981
  306MOL0     H41277   4.470   1.962   3.626 -0.2952  1.3216  1.9771
  306MOL0     H41278   4.291   2.122   3.670  0.2323  1.0418  1.3075
  306MOL0     H41279   4.213   2.004   3.771  0.7757 -0.8054  0.2555
  306MOL0     H41280   4.472   2.154   3.824  0.7107 -1.3228  0.2627
  306MOL0     H41281   4.445   2.003   3.902 -1.6200 -1.6965 -0.5569
  306MOL0     H41282   4.215   2.102   3.988  0.0708  0.9131  2.1400
  306MOL0     H41283   4.289   2.262   3.940 -0.1647 -0.2812  0.5565
  306MOL0     H41284   4.318   2.210   4.181  2.7386  3.4346  0.5438
  306MOL0     H41285   4.401   2.058   4.137  2.0732  0.5341 -2.1067
  306MOL0     H41286   4.511   2.320   4.037 -0.1617  0.5009 -0.5049
  306MOL0     H41287   4.579   2.166   4.022 -1.7622 -1.6076 -0.4849
  306MOL0     H41288   4.614   2.144   4.253  0.7887 -0.5168 -1.8620
  306MOL0     H41289   4.691   2.302   4.197 -0.8418  1.2585 -2.4625
  306MOL0     H41290   4.161   1.653   3.441  2.3071  0.6128  0.7879
  306MOL0     H41291   4.002   1.569   3.271  5.6967 -1.1574 -0.3786
  306MOL0     H41292   3.748   1.629   2.911  2.6619  0.3446  0.5761
  306MOL0     H41293   3.620   1.547   2.723  0.8475  4.9980 -0.9926
  306MOL0     H41294   2.864   2.101   0.971  1.1709  1.3983 -0.0655
  306MOL0     H41295   2.935   2.109   0.749 -4.1439  1.5257  1.5420
  306MOL0     H41296   3.202   1.830   0.486 -0.0432  2.1318  0.2381
  306MOL0     H41297   3.345   1.812   0.298  0.7884  1.6465 -4.0849
  306MOL0     H41298   3.252   1.872  -0.130  5.4577  0.9918  0.8892
  306MOL0     H41299   3.148   1.738  -0.112  1.5010 -2.9374 -1.0513
  306MOL0     H41300   3.363   1.610  -0.148 -1.3997  0.2457 -2.5837
  306MOL0     H41301   3.458   1.765  -0.136  0.4915 -0.8646  0.1342
  306MOL0     H41302   3.333   1.847  -0.358 -1.3125 -0.5012 -2.9419
  306MOL0     H41303   3.216   1.709  -0.327  0.4877 -1.0385  4.1008
  306MOL0     H41304   3.405   1.560  -0.385 -0.9925  0.1584  0.9995
  306MOL0     H41305   3.377   1.674  -0.511  0.1854  0.6226  0.7387
  306MOL0     H41306   3.757   1.792  -0.482 -2.2077  2.8528 -1.7273
  306MOL0     H41307   3.017   1.790   0.028  1.3022  0.1063 -0.6647
  306MOL0     H41308   2.801   1.947   0.176  0.4530 -0.6249 -2.4236
  306MOL0     H41309   2.809   1.804   0.089  0.8876  1.2804 -0.7120
  306MOL0     H41310   2.754   1.801   0.264  3.2552 -0.2766  3.3700
  307MOL0     O41311   4.281   8.133  10.704  0.0343 -0.3985 -0.4792
  307MOL0     C41312   4.250   8.220  10.619  0.2754 -0.4859  0.0075
  307MOL0     O41313   4.269   8.206  10.481 -0.4265 -0.6483 -0.2955
  307MOL0     C41314   4.325   8.092  10.430 -0.3533 -0.0168 -0.1560
  307MOL0     C41315   4.445   8.102  10.357  0.2524  0.2384  0.0466
  307MOL0     C41316   4.515   7.990  10.304 -0.1960 -0.5853  0.3076
  307MOL0     C41317   4.463   7.872  10.329 -0.2598 -0.6373 -0.0472
  307MOL0     O41318   4.534   7.771  10.271  0.4837  0.4121  0.4601
  307MOL0     C41319   4.466   7.640  10.264  0.2584  0.0153  0.4839
  307MOL0     C41320   4.551   7.552  10.170 -0.2231  0.1872  0.4654
  307MOL0     C41321   4.669   7.477  10.242 -0.2521 -0.4395 -0.2100
  307MOL0     C41322   4.714   7.355  10.157  0.8535 -1.4993 -0.8379
  307MOL0     C41323   4.812   7.277  10.245  0.0895 -0.3540 -0.9477
  307MOL0     C41324   4.850   7.140  10.196 -0.6757 -0.2393 -0.4024
  307MOL0     C41325   4.970   7.142  10.101  0.6470  0.7669 -0.1490
  307MOL0     C41326   5.003   6.998  10.040 -0.0799  0.4413  0.1292
  307MOL0     N41327   5.062   6.906  10.132 -0.7434  0.4222  0.1539
  307MOL0     C41328   5.105   6.785  10.093  0.8853 -0.2355 -0.6946
  307MOL0     C41329   5.176   6.749  10.198 -0.6082 -0.4282 -0.6985
  307MOL0     C41330   5.229   6.614  10.219 -0.3291  0.4980  1.3272
  307MOL0     C41331   5.186   6.554  10.350  0.2966  0.3220 -0.3812
  307MOL0     C41332   5.058   6.475  10.334  0.6787 -1.1003  0.0798
  307MOL0     C41333   5.000   6.412  10.455 -1.0764  0.0384 -0.3344
  307MOL0     O41334   4.858   6.382  10.455  0.5107 -0.2543 -0.7192
  307MOL0     C41335   4.767   6.485  10.484  0.0827  0.3436 -0.3609
  307MOL0     C41336   4.815   6.613  10.511 -0.2707 -0.7057  0.0884
  307MOL0     C41337   4.726   6.720  10.541 -0.6402 -0.2776  0.2727
  307MOL0     C41338   4.592   6.690  10.572  0.0263  0.3867  0.1958
  307MOL0     C41339   4.497   6.784  10.633 -0.1709 -0.6426  0.9464
  307MOL0     O41340   4.376   6.747  10.675 -0.3467 -0.8849  0.2745
  307MOL0     C41341   4.308   6.824  10.768  0.3034 -0.3344  0.1064
  307MOL0     C41342   4.350   6.841  10.899  0.4247 -0.4387 -1.0535
  307MOL0     C41343   4.271   6.914  10.988 -0.1802 -0.3580 -0.8827
  307MOL0     C41344   4.149   6.969  10.941 -0.0018 -0.4531 -0.1631
  307MOL0     O41345   4.054   7.029  11.024  0.4104 -1.4602 -0.2319
  307MOL0     C41346   4.070   7.033  11.170  1.4959 -0.5943  0.2893
  307MOL0     C41347   3.927   7.020  11.227 -0.1700 -0.3346 -0.1593
  307MOL0     C41348   3.844   7.155  11.212  0.1746  0.7709 -0.8038
  307MOL0     C41349   3.864   7.268  11.324 -0.0901 -0.0537  0.2515
  307MOL0     C41350   3.741   7.313  11.386 -0.2884  0.2919  0.2808
  307MOL0     C41351   3.783   7.436  11.473  0.0388  0.6104  0.7840
  307MOL0     C41352   3.667   7.486  11.558 -0.0318 -0.0030 -0.6837
  307MOL0     C41353   3.540   7.516  11.479 -0.0834  1.0129 -0.2309
  307MOL0    Cl41354   3.434   7.634  11.579 -0.2938  0.8939 -0.0912
  307MOL0     C41355   4.107   6.954  10.810  0.1200  0.4753 -0.0615
  307MOL0     C41356   4.185   6.883  10.715 -0.0418  0.0494  0.0166
  307MOL0     O41357   4.546   6.896  10.656  0.3791  0.7651  0.0399
  307MOL0     C41358   4.549   6.560  10.534 -0.3507 -0.5681 -1.2013
  307MOL0     C41359   4.633   6.459  10.485 -0.2450 -0.1910  0.7248
  307MOL0     N41360   5.173   6.844  10.301 -0.1190 -0.2798 -0.4156
  307MOL0     N41361   5.113   6.943  10.253  0.0864  0.0727 -0.1322
  307MOL0     C41362   4.345   7.851  10.410  0.0648  0.4391 -0.2333
  307MOL0     C41363   4.276   7.963  10.456  0.3156  0.1976 -0.3883
  307MOL0     C41364   4.220   8.363  10.666  0.3407 -0.1541 -0.1078
  307MOL0     C41365   4.229   8.458  10.568  0.7259  0.6174  0.3209
  307MOL0     C41366   4.197   8.589  10.600 -1.7762 -0.4245  0.3465
  307MOL0     C41367   4.171   8.632  10.728  0.0439  0.1694 -0.3508
  307MOL0     O41368   4.163   8.765  10.771 -0.4899 -0.3916  0.4222
  307MOL0     C41369   4.229   8.871  10.693 -0.2696 -0.0884 -0.3028
  307MOL0     C41370   4.184   9.009  10.740  0.1343 -0.7519 -0.1924
  307MOL0     C41371   4.250   9.132  10.678 -0.1450 -0.0102  0.8049
  307MOL0     C41372   4.405   9.123  10.671  0.1288 -0.4035 -0.3910
  307MOL0     C41373   4.477   9.124  10.806 -0.0618  0.2459  0.2498
  307MOL0     C41374   4.542   9.139  10.912  0.2816 -0.7989 -0.2758
  307MOL0     C41375   4.159   8.533  10.832  0.1985 -0.3063 -0.0128
  307MOL0     C41376   4.183   8.399  10.804 -0.6726  0.3670  0.4947
  307MOL0     C41377   4.168   8.303  10.922  0.9267  0.3942  0.2481
  307MOL0     H41378   4.491   8.200  10.348  0.4838 -0.0564 -2.5121
  307MOL0     H41379   4.608   8.004  10.250 -0.8547 -0.8884 -0.9254
  307MOL0     H41380   4.454   7.590  10.361 -1.1384 -0.3103  0.1678
  307MOL0     H41381   4.364   7.649  10.224  0.0710 -0.7035  0.7864
  307MOL0     H41382   4.573   7.598  10.073 -0.0820  1.6773  1.1834
  307MOL0     H41383   4.486   7.473  10.130  2.4870 -0.5100 -3.1036
  307MOL0     H41384   4.639   7.455  10.345 -2.2086  0.0886 -0.6287
  307MOL0     H41385   4.749   7.551  10.236 -0.9829  0.5266  1.3096
  307MOL0     H41386   4.633   7.286  10.128 -2.0154 -0.2555  3.3432
  307MOL0     H41387   4.765   7.390  10.067 -0.0528  0.9403 -0.4842
  307MOL0     H41388   4.907   7.332  10.251 -0.9712  1.3975  0.8110
  307MOL0     H41389   4.774   7.261  10.346  1.1495  1.5385 -0.1910
  307MOL0     H41390   4.892   7.082  10.280  1.9335 -1.7910 -2.5908
  307MOL0     H41391   4.764   7.096  10.146  0.9585 -0.7334 -2.9517
  307MOL0     H41392   5.057   7.174  10.159  1.0592 -0.4101 -0.0925
  307MOL0     H41393   4.958   7.209  10.015 -2.5687  1.8724  1.0053
  307MOL0     H41394   4.911   6.957   9.998 -0.1998  0.7709  0.0701
  307MOL0     H41395   5.073   7.010   9.958  0.4001 -0.9023  0.3194
  307MOL0     H41396   5.073   6.733  10.003  2.2779  2.5172 -2.9562
  307MOL0     H41397   5.202   6.553  10.133  1.9629  0.6116  0.4576
  307MOL0     H41398   5.337   6.619  10.201 -0.4804 -1.9873 -0.7283
  307MOL0     H41399   5.263   6.483  10.382 -0.3334  0.0430  0.5758
  307MOL0     H41400   5.185   6.627  10.432 -2.1772 -1.3565  1.2128
  307MOL0     H41401   5.075   6.397  10.260 -0.7279 -0.2698 -1.1774
  307MOL0     H41402   4.988   6.553  10.302 -0.0415 -1.6651  0.2423
  307MOL0     H41403   5.025   6.488  10.529  3.9265  2.1336 -3.6341
  307MOL0     H41404   5.062   6.325  10.476  1.2038  0.8162 -3.2753
  307MOL0     H41405   4.915   6.656  10.509 -0.3574 -0.2916  2.1756
  307MOL0     H41406   4.758   6.824  10.548 -0.1469 -0.5413  2.6175
  307MOL0     H41407   4.445   6.798  10.930  2.6749  2.5106 -3.2783
  307MOL0     H41408   4.299   6.915  11.093 -2.8772  0.4088 -0.0966
  307MOL0     H41409   4.114   6.946  11.219  0.3602 -0.1847  2.1381
  307MOL0     H41410   4.106   7.127  11.213 -1.8385 -0.1491  2.5531
  307MOL0     H41411   3.879   6.939  11.172 -1.2735 -1.0893  1.8039
  307MOL0     H41412   3.935   6.981  11.329 -2.2137 -4.0082 -1.2108
  307MOL0     H41413   3.854   7.208  11.117 -2.1400  4.1671  0.6378
  307MOL0     H41414   3.742   7.116  11.210 -0.2931  1.4294  2.9425
  307MOL0     H41415   3.909   7.347  11.262 -2.3923 -1.3104 -3.3403
  307MOL0     H41416   3.927   7.224  11.402  1.5259  2.0618  0.2413
  307MOL0     H41417   3.695   7.230  11.440  0.0289 -3.3182 -4.3234
  307MOL0     H41418   3.680   7.345  11.301 -0.3043 -3.0787 -1.1235
  307MOL0     H41419   3.869   7.405  11.534 -2.9896 -2.8491  3.8069
  307MOL0     H41420   3.818   7.520  11.413 -3.3161  0.8717 -1.0175
  307MOL0     H41421   3.702   7.574  11.613 -0.5974  0.8577 -1.6786
  307MOL0     H41422   3.652   7.406  11.631  1.0770  1.1581  0.8841
  307MOL0     H41423   3.566   7.562  11.383 -2.9435  3.6741  0.1046
  307MOL0     H41424   3.493   7.419  11.461  2.4263 -0.0790 -1.3857
  307MOL0     H41425   4.018   7.010  10.785 -0.4777 -0.3793  0.1467
  307MOL0     H41426   4.163   6.883  10.608 -0.0167  0.7260  0.0085
  307MOL0     H41427   4.449   6.530  10.565  0.7320 -1.4652  1.7982
  307MOL0     H41428   4.593   6.359  10.476 -1.0362  0.2687 -1.4855
  307MOL0     H41429   4.305   7.751  10.424 -4.5243  1.9843 -0.5072
  307MOL0     H41430   4.196   7.973  10.529  2.0911  2.5661  1.4112
  307MOL0     H41431   4.254   8.442  10.463  0.0081  3.3909 -0.3591
  307MOL0     H41432   4.204   8.658  10.517  1.9884  1.0314  1.6790
  307MOL0     H41433   4.210   8.857  10.586 -3.4241 -1.7477  0.3548
  307MOL0     H41434   4.332   8.856  10.724 -0.9335 -3.4497  0.6517
  307MOL0     H41435   4.166   9.014  10.848  2.1426  1.0294  0.1431
  307MOL0     H41436   4.082   9.015  10.701  1.3366  1.1207 -3.5311
  307MOL0     H41437   4.230   9.226  10.729 -1.1862  0.4135 -0.3325
  307MOL0     H41438   4.202   9.141  10.580 -5.1139 -4.3347  2.3970
  307MOL0     H41439   4.432   9.037  10.609 -0.0389  1.2623 -2.8917
  307MOL0     H41440   4.445   9.206  10.612  0.3031 -1.8097 -2.3631
  307MOL0     H41441   4.597   9.166  11.000  1.5616  0.4673 -1.4051
  307MOL0     H41442   4.142   8.576  10.930 -0.8036 -2.4610  0.8224
  307MOL0     H41443   4.273   8.275  10.939  0.5580 -1.5738 -0.4507
  307MOL0     H41444   4.147   8.350  11.018 -0.9979 -2.1503  1.1599
  307MOL0     H41445   4.095   8.227  10.894  3.1000 -1.7891  0.1249
  308MOL0     O41446   0.906  10.115   9.578 -0.2966 -0.3680  1.1661
  308MOL0     C41447   0.984  10.214   9.570  1.1758 -0.6870  0.5716
  308MOL0     O41448   1.007  10.295   9.668 -0.0692  0.1965 -0.2190
  308MOL0     C41449   0.960  10.261   9.792  0.4054 -0.0289  0.8210
  308MOL0     C41450   1.049  10.186   9.867 -0.3755 -0.0493  0.6012
  308MOL0     C41451   1.026  10.166  10.004  0.4235 -0.0078 -0.4476
  308MOL0     C41452   0.911  10.232  10.066  0.0684 -0.7907  0.1044
  308MOL0     O41453   0.894  10.208  10.196 -0.1281  0.0842  0.0322
  308MOL0     C41454   0.760  10.211  10.252 -0.9555  0.5798  0.6394
  308MOL0     C41455   0.755  10.149  10.390  0.4132 -0.1819  0.2867
  308MOL0     C41456   0.740  10.003  10.415  0.4249  0.2835 -0.0606
  308MOL0     C41457   0.746   9.961  10.563  0.1503  0.3384  0.5394
  308MOL0     C41458   0.793   9.814  10.598 -0.8520 -0.2884  0.3377
  308MOL0     C41459   0.795   9.783  10.740  1.0942 -0.0412 -0.0494
  308MOL0     C41460   0.862   9.898  10.824  1.1989  0.6882 -0.7998
  308MOL0     C41461   0.878   9.854  10.974  0.2007 -0.6843  0.1135
  308MOL0     N41462   0.942   9.954  11.063 -0.7755  0.6495  0.3719
  308MOL0     C41463   1.067   9.986  11.072  0.0325 -0.5831 -0.7122
  308MOL0     C41464   1.082  10.069  11.180  1.1677  0.6468 -0.3398
  308MOL0     C41465   1.210  10.123  11.234  0.3154 -0.2737 -0.5603
  308MOL0     C41466   1.339  10.071  11.173 -0.5319 -0.4235  0.4269
  308MOL0     C41467   1.452  10.181  11.199  0.8971  0.4391  0.1495
  308MOL0     C41468   1.584  10.161  11.130  0.8355  0.7246  0.1879
  308MOL0     O41469   1.568  10.166  10.987  0.1960 -0.4547  0.0252
  308MOL0     C41470   1.655  10.105  10.893  0.1702  0.3385  0.3966
  308MOL0     C41471   1.667  10.150  10.758 -0.4767 -0.1667 -0.8681
  308MOL0     C41472   1.761  10.102  10.666  0.5437  0.2470  0.7723
  308MOL0     C41473   1.851   9.999  10.700  0.1702  0.4021 -0.1032
  308MOL0     C41474   1.967   9.961  10.613 -0.1332  0.0043  0.1856
  308MOL0     O41475   2.004  10.041  10.510  0.3149  0.1672 -0.0186
  308MOL0     C41476   2.130  10.014  10.450  1.4864  0.1436  0.7812
  308MOL0     C41477   2.198  10.118  10.397  0.7223 -0.3152 -0.2964
  308MOL0     C41478   2.305  10.096  10.301 -0.2314  0.1064  0.2165
  308MOL0     C41479   2.354   9.965  10.276 -0.3662  0.0567 -0.4649
  308MOL0     O41480   2.460   9.938  10.192  0.5602  0.6889 -0.0052
  308MOL0     C41481   2.546  10.045  10.176 -0.6273 -0.8789 -0.2352
  308MOL0     C41482   2.667   9.980  10.110  0.4446 -0.9556  0.3398
  308MOL0     C41483   2.754  10.091  10.047  0.5207  0.4203 -0.2055
  308MOL0     C41484   2.894  10.032  10.009  0.5877 -0.1427  1.0179
  308MOL0     C41485   2.982  10.127   9.930 -0.6800 -0.3859 -0.3577
  308MOL0     C41486   3.032  10.256  10.011  0.7252 -0.3586 -0.4384
  308MOL0     C41487   3.096  10.355   9.910  0.3102  0.5319  0.3010
  308MOL0     C41488   3.048  10.494   9.947  0.1896 -0.2531  1.0398
  308MOL0    Cl41489   2.881  10.532   9.896 -0.1695  0.1605  0.0240
  308MOL0     C41490   2.285   9.862  10.338 -0.8001  0.0540  0.7004
  308MOL0     C41491   2.171   9.882  10.407  0.8789 -0.3664  0.1127
  308MOL0     O41492   2.024   9.853  10.644 -0.2224 -0.2801  0.0638
  308MOL0     C41493   1.836   9.938  10.831  0.9439 -0.0549 -0.2800
  308MOL0     C41494   1.740   9.992  10.918  0.1798  0.1644 -0.3331
  308MOL0     N41495   0.961  10.071  11.246 -0.8168 -0.1474 -0.8384
  308MOL0     N41496   0.877  10.001  11.178 -0.3643 -0.7963 -0.6178
  308MOL0     C41497   0.825  10.312   9.987  0.8042  0.8032  0.1093
  308MOL0     C41498   0.846  10.319   9.846 -0.1038  0.0297  0.6222
  308MOL0     C41499   1.067  10.249   9.457 -0.1212  0.1790  0.2442
  308MOL0     C41500   1.104  10.388   9.438  1.3095 -0.0061 -0.3054
  308MOL0     C41501   1.180  10.430   9.327  0.2235 -0.1443 -0.2473
  308MOL0     C41502   1.221  10.338   9.232 -0.0788 -0.3727  0.4696
  308MOL0     O41503   1.288  10.368   9.114  0.7201 -1.0193 -0.0265
  308MOL0     C41504   1.327  10.501   9.091  0.2710 -0.4182  0.3340
  308MOL0     C41505   1.377  10.505   8.946 -0.0827 -0.5998 -1.2749
  308MOL0     C41506   1.521  10.465   8.925 -0.4870 -1.3892  0.7067
  308MOL0     C41507   1.622  10.545   9.011 -0.1972  0.2539 -0.0639
  308MOL0     C41508   1.641  10.681   8.946  0.3629 -0.2242  0.5242
  308MOL0     C41509   1.639  10.789   8.899  0.3333  1.0767  0.6758
  308MOL0     C41510   1.187  10.206   9.250 -0.2936  0.0788 -0.8897
  308MOL0     C41511   1.118  10.156   9.366 -0.1026 -0.5832  0.8298
  308MOL0     C41512   1.106  10.010   9.376  0.6687 -0.0805  0.0777
  308MOL0     H41513   1.146  10.160   9.826  0.1814  0.7863  1.3534
  308MOL0     H41514   1.092  10.108  10.068  0.0275 -0.2117 -0.2197
  308MOL0     H41515   0.732  10.316  10.262 -0.2760  0.7628  0.6695
  308MOL0     H41516   0.684  10.162  10.190 -0.9216  1.5299 -0.1783
  308MOL0     H41517   0.672  10.200  10.439  0.6152  0.4243  0.0031
  308MOL0     H41518   0.842  10.178  10.448  0.0931  1.4817 -0.0122
  308MOL0     H41519   0.826   9.951  10.371  1.6624  1.4387  0.8924
  308MOL0     H41520   0.647   9.972  10.366  0.0953  0.3616  0.5054
  308MOL0     H41521   0.812  10.024  10.623  0.2459 -0.2134  1.0120
  308MOL0     H41522   0.644   9.969  10.601 -0.7862 -1.9386 -1.2399
  308MOL0     H41523   0.719   9.749  10.551 -2.9693  1.3936  1.2116
  308MOL0     H41524   0.896   9.797  10.565 -1.1373  0.8145 -1.1993
  308MOL0     H41525   0.696   9.754  10.777  1.5077  0.2972  1.3807
  308MOL0     H41526   0.860   9.696  10.731 -1.1262 -1.5980 -3.9709
  308MOL0     H41527   0.786   9.976  10.817 -1.2849 -0.8194  4.2828
  308MOL0     H41528   0.956   9.936  10.784  0.3759  0.7261 -2.8021
  308MOL0     H41529   0.785   9.814  11.015 -2.3954  2.5670 -2.1691
  308MOL0     H41530   0.948   9.770  10.968  0.4797 -0.3289 -2.6080
  308MOL0     H41531   1.155   9.963  11.013  1.6787  4.9230 -0.9785
  308MOL0     H41532   1.194  10.229  11.211  4.5549  1.0606  1.6431
  308MOL0     H41533   1.220  10.126  11.343  2.0451  2.2225 -0.7309
  308MOL0     H41534   1.357   9.971  11.213  0.8302  0.4673  2.1947
  308MOL0     H41535   1.340  10.046  11.067  0.9975 -5.1263  1.3156
  308MOL0     H41536   1.474  10.175  11.306 -3.6777 -2.2305  1.2569
  308MOL0     H41537   1.416  10.280  11.172  2.3166  2.3063  4.3033
  308MOL0     H41538   1.628  10.063  11.154  1.1039  0.8462  0.1995
  308MOL0     H41539   1.656  10.237  11.160 -1.5846  2.4517  1.9969
  308MOL0     H41540   1.611  10.240  10.735 -0.4501  0.1198  0.1391
  308MOL0     H41541   1.761  10.158  10.573 -0.8407  0.3628  0.8188
  308MOL0     H41542   2.164  10.219  10.420 -0.0410  0.1014 -2.9428
  308MOL0     H41543   2.355  10.182  10.258 -2.0512 -0.8170 -4.3955
  308MOL0     H41544   2.509  10.115  10.101 -0.2731  0.3529  0.7040
  308MOL0     H41545   2.583  10.098  10.264  1.8151  0.1819 -1.8042
  308MOL0     H41546   2.725   9.912  10.172  3.3232 -0.1533 -1.2728
  308MOL0     H41547   2.617   9.935  10.023  0.0616  0.4012 -0.1787
  308MOL0     H41548   2.700  10.136   9.963  1.9663  1.8829 -0.4002
  308MOL0     H41549   2.773  10.173  10.117 -0.7469 -0.3249  1.0613
  308MOL0     H41550   2.875   9.940   9.953 -0.1672 -0.7397  2.2320
  308MOL0     H41551   2.943  10.006  10.103  2.7609  1.5896  0.4790
  308MOL0     H41552   2.921  10.162   9.847 -2.8093  1.4179  1.8154
  308MOL0     H41553   3.072  10.081   9.887 -0.5258 -0.9130  0.4952
  308MOL0     H41554   2.947  10.298  10.065 -0.3900  0.8820 -2.9905
  308MOL0     H41555   3.102  10.231  10.091 -1.4547  0.9241  2.0179
  308MOL0     H41556   3.062  10.333   9.808 -0.7793  0.6677  0.6144
  308MOL0     H41557   3.205  10.361   9.911  0.3439  0.0927 -0.1368
  308MOL0     H41558   3.054  10.522  10.053  1.0467  1.8505  0.4731
  308MOL0     H41559   3.115  10.567   9.902 -1.3654  0.3553 -0.3914
  308MOL0     H41560   2.317   9.763  10.307 -2.4900  0.7115 -3.7245
  308MOL0     H41561   2.102   9.801  10.428  1.7924 -0.2894  4.1280
  308MOL0     H41562   1.896   9.852  10.858 -1.2041 -1.2255  1.1262
  308MOL0     H41563   1.732   9.942  11.014 -0.0253  2.1909  0.7598
  308MOL0     H41564   0.731  10.346  10.029  0.4176 -3.3194  3.1314
  308MOL0     H41565   0.770  10.380   9.797  2.0386  3.0250  0.7960
  308MOL0     H41566   1.070  10.458   9.514  1.6904 -1.3468  1.1559
  308MOL0     H41567   1.193  10.538   9.316  1.1038 -0.2214 -0.1047
  308MOL0     H41568   1.391  10.549   9.165  0.9272  4.0789 -2.7571
  308MOL0     H41569   1.231  10.553   9.099  0.3094 -0.2426 -0.2612
  308MOL0     H41570   1.342  10.605   8.920 -0.1346 -0.3315 -0.1810
  308MOL0     H41571   1.306  10.441   8.892 -3.5248 -0.4403  2.5807
  308MOL0     H41572   1.551  10.479   8.821 -0.3371 -0.8257  0.8227
  308MOL0     H41573   1.515  10.358   8.947 -1.0607 -1.9214 -1.7622
  308MOL0     H41574   1.588  10.562   9.114 -1.0602  2.9491 -0.7060
  308MOL0     H41575   1.721  10.498   9.017 -0.0421  0.6733  1.0229
  308MOL0     H41576   1.637  10.880   8.842  1.4212  1.6763  1.5702
  308MOL0     H41577   1.206  10.143   9.163 -2.5048  0.0041 -1.3634
  308MOL0     H41578   1.083   9.991   9.481  1.3255  1.5969  0.5459
  308MOL0     H41579   1.027   9.970   9.311 -1.7610 -0.1909  2.8621
  308MOL0     H41580   1.202   9.958   9.377  1.9304  1.9684  3.9445
  309MOL0     O41581  10.753   8.303   7.048 -0.9528 -0.6386  0.4892
  309MOL0     C41582  10.860   8.357   7.057 -0.3428  0.0175 -0.4560
  309MOL0     O41583  10.950   8.384   6.962  0.3031 -0.2225  0.3701
  309MOL0     C41584  10.912   8.383   6.838  0.2594 -0.2332 -0.4106
  309MOL0     C41585  10.935   8.270   6.750  0.6839  0.3286 -0.0047
  309MOL0     C41586  10.906   8.270   6.617 -0.5698  0.2220 -0.2751
  309MOL0     C41587  10.827   8.369   6.563  1.2260  0.9424  0.0221
  309MOL0     O41588  10.760   8.357   6.442  0.1402  0.0637  0.1968
  309MOL0     C41589  10.800   8.263   6.346 -0.2066 -0.2166 -0.0718
  309MOL0     C41590  10.743   8.300   6.206 -0.8229 -0.0922 -0.1307
  309MOL0     C41591  10.592   8.247   6.201  0.2487  0.0186 -0.2929
  309MOL0     C41592  10.501   8.366   6.180 -1.0730  0.3675  0.0206
  309MOL0     C41593  10.353   8.320   6.192 -0.1067 -0.0998 -0.1949
  309MOL0     C41594  10.309   8.302   6.336 -0.0281  0.8188  0.4359
  309MOL0     C41595  10.332   8.424   6.429 -0.2117  0.2349  0.1938
  309MOL0     C41596  10.271   8.559   6.387  0.0146 -0.0181  0.5920
  309MOL0     N41597  10.120   8.534   6.368  0.1580 -1.0141 -0.6085
  309MOL0     C41598  10.032   8.516   6.480  0.6720 -0.0792  0.4170
  309MOL0     C41599   9.917   8.478   6.420 -0.4164  0.7492 -0.0707
  309MOL0     C41600   9.787   8.455   6.484 -0.4905 -0.4413  0.2200
  309MOL0     C41601   9.670   8.520   6.418  0.2594 -0.2220 -0.1752
  309MOL0     C41602   9.654   8.671   6.469 -0.0512 -0.3803  0.0796
  309MOL0     C41603   9.604   8.677   6.618 -0.4043  0.0991  0.3847
  309MOL0     O41604   9.598   8.817   6.662  0.2686  0.8743 -0.2194
  309MOL0     C41605   9.488   8.878   6.601 -1.0368 -0.2773  0.1727
  309MOL0     C41606   9.361   8.861   6.650  0.0006  0.3064 -0.2337
  309MOL0     C41607   9.258   8.931   6.595  0.4907 -0.0247  0.4209
  309MOL0     C41608   9.284   9.031   6.498  0.1310  0.2141  0.5837
  309MOL0     C41609   9.170   9.096   6.426  0.4310 -0.9076 -0.2549
  309MOL0     O41610   9.040   9.069   6.473 -0.1309  0.8542  0.2870
  309MOL0     C41611   8.945   9.113   6.396 -0.1760  0.6622 -0.1894
  309MOL0     C41612   8.898   9.035   6.287  0.1632 -0.9060  0.7242
  309MOL0     C41613   8.810   9.095   6.195  0.4363 -0.4743 -0.8107
  309MOL0     C41614   8.759   9.220   6.224 -0.0027  0.1984 -0.4061
  309MOL0     O41615   8.701   9.285   6.113  0.0573 -0.4422 -0.4586
  309MOL0     C41616   8.566   9.265   6.089  1.1717  0.5405 -0.4030
  309MOL0     C41617   8.529   9.371   5.976  0.8500  0.1908  0.6826
  309MOL0     C41618   8.379   9.357   5.929  0.0035 -1.1608  0.0615
  309MOL0     C41619   8.345   9.225   5.861 -0.6936 -0.8476 -0.6338
  309MOL0     C41620   8.208   9.231   5.798  0.2375  0.2809 -0.2067
  309MOL0     C41621   8.177   9.102   5.725 -0.3156  0.4129  0.2155
  309MOL0     C41622   8.178   8.977   5.815 -0.5910 -0.1552  0.1014
  309MOL0     C41623   8.125   8.850   5.735 -0.0464 -0.0929 -0.6552
  309MOL0    Cl41624   8.265   8.808   5.619 -0.0357 -0.4669 -0.0144
  309MOL0     C41625   8.799   9.293   6.337  0.1223 -0.1315 -0.3171
  309MOL0     C41626   8.891   9.234   6.427 -0.8887 -0.5305  0.5491
  309MOL0     O41627   9.203   9.160   6.325  0.3406 -0.4884  0.6892
  309MOL0     C41628   9.418   9.059   6.459 -0.3498 -0.1675  0.7073
  309MOL0     C41629   9.521   8.980   6.512 -0.3132 -0.7195  0.0919
  309MOL0     N41630   9.933   8.493   6.281 -0.1879  0.1981 -0.2271
  309MOL0     N41631  10.057   8.531   6.245  0.1868 -0.2752 -0.1002
  309MOL0     C41632  10.795   8.474   6.648  0.9334 -0.7490  0.3246
  309MOL0     C41633  10.833   8.486   6.779  0.0035  0.6714 -0.2860
  309MOL0     C41634  10.899   8.403   7.188  0.5023  0.7040 -1.0311
  309MOL0     C41635  11.020   8.483   7.204  0.5034 -0.0485  0.7817
  309MOL0     C41636  11.055   8.550   7.314  0.4614  0.1217  0.5524
  309MOL0     C41637  10.995   8.532   7.438 -0.0472  0.8863 -0.7350
  309MOL0     O41638  11.015   8.600   7.559  0.2550 -0.0528  0.1143
  309MOL0     C41639  11.075   8.731   7.537  0.0389 -0.2492  0.5851
  309MOL0     C41640  11.042   8.831   7.649  0.0187 -0.1534 -0.1407
  309MOL0     C41641  11.107   8.790   7.783 -0.6870 -0.2453  0.3766
  309MOL0     C41642  11.063   8.875   7.900 -0.3821 -0.0107 -0.0970
  309MOL0     C41643  11.110   9.011   7.885 -0.6254  0.8783 -1.2446
  309MOL0     C41644  11.155   9.125   7.888 -0.0449 -0.0556 -0.9929
  309MOL0     C41645  10.894   8.434   7.435  0.7060  0.8738 -0.3259
  309MOL0     C41646  10.848   8.368   7.321 -0.2924 -0.3036 -0.2766
  309MOL0     C41647  10.721   8.282   7.334  0.3806 -0.4891  0.5376
  309MOL0     H41648  10.992   8.186   6.789  2.0197  0.8814 -0.6909
  309MOL0     H41649  10.926   8.182   6.555 -0.1880  0.8061 -0.9972
  309MOL0     H41650  10.908   8.277   6.347 -0.0241 -1.4371 -0.5198
  309MOL0     H41651  10.767   8.163   6.379  2.1045 -1.3628 -1.0144
  309MOL0     H41652  10.811   8.265   6.127  1.6883  3.5316  0.1694
  309MOL0     H41653  10.753   8.407   6.187 -2.3508  0.1071  0.0868
  309MOL0     H41654  10.564   8.200   6.296 -0.1182  1.5773  0.4015
  309MOL0     H41655  10.581   8.172   6.122  3.8334  1.1256 -2.0481
  309MOL0     H41656  10.525   8.451   6.243 -3.3619  1.6154 -0.6529
  309MOL0     H41657  10.516   8.411   6.082 -0.1256  2.1067  0.9200
  309MOL0     H41658  10.293   8.398   6.145 -0.9810 -1.7797 -2.0187
  309MOL0     H41659  10.335   8.231   6.131  0.5784  0.5359 -1.3517
  309MOL0     H41660  10.204   8.273   6.337 -0.5980  2.5752 -1.9069
  309MOL0     H41661  10.359   8.220   6.389 -0.5162 -0.0798 -0.4637
  309MOL0     H41662  10.440   8.443   6.432  0.2049 -1.3143 -2.0022
  309MOL0     H41663  10.307   8.407   6.534 -0.3112 -1.0876 -0.0239
  309MOL0     H41664  10.289   8.637   6.461  0.6397 -0.5239  0.9765
  309MOL0     H41665  10.317   8.581   6.290  3.1870 -1.3775  1.6804
  309MOL0     H41666  10.054   8.517   6.586 -2.3433  0.3663  1.1187
  309MOL0     H41667   9.760   8.350   6.477 -0.8258 -0.3846  0.6119
  309MOL0     H41668   9.789   8.482   6.590  1.9828  2.2614 -0.3647
  309MOL0     H41669   9.685   8.525   6.310 -0.1453  0.2760 -0.2126
  309MOL0     H41670   9.581   8.460   6.440  0.9282  0.1183  4.2849
  309MOL0     H41671   9.582   8.726   6.407 -1.5746 -1.1782  1.0741
  309MOL0     H41672   9.751   8.720   6.459  0.3348 -0.9964  0.7261
  309MOL0     H41673   9.680   8.624   6.676  1.5738  0.3063 -1.8556
  309MOL0     H41674   9.512   8.619   6.629 -0.2897 -0.4901 -1.4536
  309MOL0     H41675   9.337   8.793   6.731  2.3907 -3.1549 -2.1491
  309MOL0     H41676   9.157   8.923   6.633 -0.3394  1.8919 -1.1788
  309MOL0     H41677   8.936   8.937   6.261 -0.0467 -1.2913  1.8158
  309MOL0     H41678   8.786   9.044   6.102  1.3832 -4.3330  0.8492
  309MOL0     H41679   8.558   9.162   6.054  3.5979 -0.6829  2.2656
  309MOL0     H41680   8.508   9.281   6.180 -0.1629 -1.2338 -0.8833
  309MOL0     H41681   8.534   9.475   6.009  0.6909  1.7926 -3.6291
  309MOL0     H41682   8.596   9.359   5.890  1.1876  0.1436  0.9516
  309MOL0     H41683   8.313   9.390   6.010 -0.1497 -0.6621 -0.2662
  309MOL0     H41684   8.356   9.433   5.855 -2.3194 -1.6152  0.2327
  309MOL0     H41685   8.357   9.141   5.930 -1.2946 -0.3875  0.0475
  309MOL0     H41686   8.408   9.206   5.774  0.9313 -0.1881  0.3671
  309MOL0     H41687   8.207   9.320   5.734  1.6547 -0.4869 -1.3394
  309MOL0     H41688   8.123   9.252   5.865  0.7418  0.2457  0.4572
  309MOL0     H41689   8.082   9.113   5.671 -0.5581  0.1181  0.5762
  309MOL0     H41690   8.254   9.088   5.648 -1.1332  2.1674 -1.0055
  309MOL0     H41691   8.105   8.995   5.895  0.8371 -1.7932  1.8808
  309MOL0     H41692   8.279   8.956   5.852  0.4505  1.4856 -1.6768
  309MOL0     H41693   8.113   8.758   5.793  0.6036 -1.8722 -3.1811
  309MOL0     H41694   8.025   8.874   5.698 -1.5775 -1.1278  2.4286
  309MOL0     H41695   8.756   9.390   6.362  1.3099  0.1418  0.8050
  309MOL0     H41696   8.919   9.300   6.508  1.3415 -2.1250  1.1767
  309MOL0     H41697   9.442   9.142   6.393  2.0550  1.3382  3.2417
  309MOL0     H41698   9.622   9.009   6.486 -0.3217  0.4635  1.2991
  309MOL0     H41699  10.713   8.535   6.611  1.1257  2.1541  4.0138
  309MOL0     H41700  10.812   8.575   6.837  0.9858  1.3158 -0.8795
  309MOL0     H41701  11.090   8.502   7.122 -1.4426  2.1300 -0.4942
  309MOL0     H41702  11.147   8.607   7.314 -0.2209  1.2678  0.1275
  309MOL0     H41703  11.044   8.786   7.448  0.0053  2.2323  2.0528
  309MOL0     H41704  11.182   8.715   7.523 -0.0607 -3.7149  2.4768
  309MOL0     H41705  10.934   8.830   7.666  0.1670  0.8517  1.0581
  309MOL0     H41706  11.075   8.927   7.609  1.4126 -0.3533  0.4835
  309MOL0     H41707  11.215   8.803   7.773  0.0181 -2.9022  3.1571
  309MOL0     H41708  11.106   8.683   7.804  0.3824 -0.4041 -0.3273
  309MOL0     H41709  10.955   8.869   7.915 -0.2720  0.2690  0.8437
  309MOL0     H41710  11.121   8.839   7.985  0.4823  3.3636  0.9184
  309MOL0     H41711  11.194   9.224   7.896 -0.7474  0.1510  0.0825
  309MOL0     H41712  10.837   8.410   7.524 -0.0283 -1.2674 -1.3058
  309MOL0     H41713  10.747   8.181   7.302 -3.4460 -1.3862 -0.2176
  309MOL0     H41714  10.689   8.283   7.438 -1.9100  0.9242 -0.1074
  309MOL0     H41715  10.644   8.337   7.279  1.0313  0.7664  0.8407
  310MOL0     O41716   7.267   4.436  10.269 -0.2829  0.7246  0.1757
  310MOL0     C41717   7.366   4.447  10.195 -0.6359 -1.0409 -0.3748
  310MOL0     O41718   7.477   4.517  10.234 -0.1114  0.6512  0.2711
  310MOL0     C41719   7.483   4.557  10.362 -0.0689 -0.6334  0.4806
  310MOL0     C41720   7.472   4.476  10.474  0.3375  0.0711  1.0272
  310MOL0     C41721   7.500   4.527  10.601  0.5912  0.1972  0.0884
  310MOL0     C41722   7.531   4.669  10.609 -1.0642  0.4006 -0.1352
  310MOL0     O41723   7.554   4.736  10.727 -0.5234  0.0702  0.6789
  310MOL0     C41724   7.550   4.674  10.855 -0.4628  0.0393  0.9750
  310MOL0     C41725   7.519   4.771  10.968 -0.2806  0.2002  0.3239
  310MOL0     C41726   7.368   4.776  10.973  0.2982  0.8411  0.3339
  310MOL0     C41727   7.333   4.879  11.085  0.0900 -0.5700  0.2094
  310MOL0     C41728   7.188   4.932  11.066  0.0087 -0.1572  0.6258
  310MOL0     C41729   7.078   4.836  11.110 -0.2680 -0.0240 -0.1317
  310MOL0     C41730   6.957   4.907  11.170 -0.8172 -0.1822  0.0026
  310MOL0     C41731   6.827   4.856  11.119  0.8654  0.4740 -0.6107
  310MOL0     N41732   6.800   4.726  11.185 -0.0407 -0.1863  0.0298
  310MOL0     C41733   6.803   4.597  11.140  0.5212 -0.4122 -0.2153
  310MOL0     C41734   6.759   4.520  11.239  0.1861  0.3097 -0.6289
  310MOL0     C41735   6.745   4.367  11.235  0.8936  0.9253 -1.0243
  310MOL0     C41736   6.598   4.328  11.189  0.6214 -0.1078  0.1997
  310MOL0     C41737   6.592   4.183  11.120 -0.2876 -0.4413  0.1248
  310MOL0     C41738   6.454   4.145  11.086  0.8812 -0.3046  0.5498
  310MOL0     O41739   6.370   4.098  11.195  0.0485  0.3106 -0.0698
  310MOL0     C41740   6.290   4.178  11.273 -0.0347  0.8448  1.2319
  310MOL0     C41741   6.245   4.306  11.236  0.4163 -0.5896  0.1471
  310MOL0     C41742   6.154   4.371  11.321 -0.0736 -0.3668  1.0770
  310MOL0     C41743   6.096   4.306  11.431 -0.5150 -1.2393  0.4432
  310MOL0     C41744   5.995   4.379  11.520  0.2166  0.0709 -0.2582
  310MOL0     O41745   5.936   4.310  11.631 -0.1975 -0.0021  0.1626
  310MOL0     C41746   5.820   4.370  11.684 -0.5286  0.2006 -0.2236
  310MOL0     C41747   5.810   4.360  11.819  0.1478  1.1161 -0.2178
  310MOL0     C41748   5.699   4.422  11.875 -0.7625 -0.3919 -0.5624
  310MOL0     C41749   5.599   4.486  11.804  0.7199  0.6524 -0.1087
  310MOL0     O41750   5.508   4.552  11.886  0.0470  0.0285 -0.2799
  310MOL0     C41751   5.380   4.573  11.827  0.2785 -0.1584 -0.0533
  310MOL0     C41752   5.282   4.627  11.935  0.0397  0.0031 -0.3305
  310MOL0     C41753   5.134   4.614  11.887  0.1099 -0.0196  0.1557
  310MOL0     C41754   5.072   4.728  11.809 -0.0338 -0.7755 -0.5419
  310MOL0     C41755   5.053   4.858  11.885  0.7055  1.0072  0.4654
  310MOL0     C41756   4.984   4.965  11.794 -0.1990 -0.5928 -0.3728
  310MOL0     C41757   5.002   5.097  11.876 -0.5238  0.2696  0.0176
  310MOL0     C41758   4.974   5.218  11.779  0.6528  0.0839  0.7339
  310MOL0    Cl41759   4.836   5.194  11.675  0.0767 -0.4821  0.9892
  310MOL0     C41760   5.597   4.471  11.667 -0.3707  0.3495  0.3568
  310MOL0     C41761   5.709   4.416  11.600  0.0906 -0.3016 -0.4408
  310MOL0     O41762   5.985   4.499  11.489  0.1525 -0.3035 -0.5639
  310MOL0     C41763   6.149   4.182  11.471 -0.1892 -1.2363  0.0553
  310MOL0     C41764   6.244   4.115  11.387 -1.2025 -0.5830 -0.4012
  310MOL0     N41765   6.725   4.598  11.342 -0.6665  0.6915  0.1291
  310MOL0     N41766   6.757   4.714  11.312  0.2540  0.1894 -0.8435
  310MOL0     C41767   7.527   4.753  10.498 -0.4841 -1.0010  0.8707
  310MOL0     C41768   7.510   4.695  10.370  0.2518 -0.2827 -0.2452
  310MOL0     C41769   7.352   4.400  10.056  0.6739 -0.4525  0.5331
  310MOL0     C41770   7.460   4.412   9.969  0.3445  0.2908 -0.1872
  310MOL0     C41771   7.469   4.345   9.847  0.2444  0.3305  0.1430
  310MOL0     C41772   7.360   4.265   9.800 -0.1474  0.1690 -0.2097
  310MOL0     O41773   7.388   4.167   9.713  0.0136  0.9966  0.0580
  310MOL0     C41774   7.427   4.206   9.582  0.1255 -0.4679  0.2202
  310MOL0     C41775   7.302   4.168   9.498  0.1004  0.3509  0.1847
  310MOL0     C41776   7.302   4.245   9.364  1.1073 -0.1641 -0.0970
  310MOL0     C41777   7.419   4.219   9.271 -0.8909  0.2671  0.4689
  310MOL0     C41778   7.416   4.083   9.215 -0.1476 -0.0446 -1.3161
  310MOL0     C41779   7.404   3.961   9.197  0.4598 -0.4266  0.1192
  310MOL0     C41780   7.248   4.271   9.875 -0.0564 -0.6971 -0.1051
  310MOL0     C41781   7.238   4.335   9.997 -0.4321  0.0129 -0.1589
  310MOL0     C41782   7.097   4.333  10.048 -0.7155 -0.5840  0.8418
  310MOL0     H41783   7.441   4.372  10.465  2.5346 -0.5921  0.2678
  310MOL0     H41784   7.512   4.455  10.681 -1.5071 -1.1332 -0.7021
  310MOL0     H41785   7.481   4.589  10.850 -1.5539  0.9626 -1.2641
  310MOL0     H41786   7.645   4.620  10.865 -0.6384 -0.4436  0.1465
  310MOL0     H41787   7.561   4.868  10.941 -0.1902 -0.5060 -2.3737
  310MOL0     H41788   7.557   4.750  11.068  0.2390 -0.0274  0.0848
  310MOL0     H41789   7.327   4.676  10.993  0.8236  0.0402 -2.2355
  310MOL0     H41790   7.331   4.815  10.878 -4.1914  2.0570  2.3133
  310MOL0     H41791   7.343   4.850  11.190 -1.5722 -0.2772  0.4725
  310MOL0     H41792   7.396   4.965  11.060  0.8212 -0.8594  1.0271
  310MOL0     H41793   7.169   5.028  11.114 -0.5468  0.5262 -0.9065
  310MOL0     H41794   7.181   4.951  10.958  1.0180  0.0187  0.5813
  310MOL0     H41795   7.047   4.789  11.016 -4.1588  2.2377 -0.1651
  310MOL0     H41796   7.129   4.763  11.173 -4.4989 -3.6492 -0.4269
  310MOL0     H41797   6.966   5.014  11.148  0.9146  0.0938  1.7867
  310MOL0     H41798   6.962   4.896  11.279 -1.4828 -1.1523 -0.0485
  310MOL0     H41799   6.748   4.922  11.154  0.2340 -0.4651 -0.2345
  310MOL0     H41800   6.836   4.836  11.011  0.2592 -0.4472 -0.4978
  310MOL0     H41801   6.838   4.569  11.041 -0.9269  0.2886 -0.9546
  310MOL0     H41802   6.817   4.328  11.163  1.4782 -0.6158  0.3448
  310MOL0     H41803   6.764   4.325  11.334  0.6573  1.7268 -0.6313
  310MOL0     H41804   6.532   4.332  11.276  2.3131 -4.2144  1.9583
  310MOL0     H41805   6.557   4.399  11.116  2.0009 -1.1602 -1.7072
  310MOL0     H41806   6.643   4.101  11.170  1.4207  0.5996  0.1504
  310MOL0     H41807   6.640   4.186  11.022 -1.1413  1.2223 -0.2825
  310MOL0     H41808   6.455   4.065  11.012 -0.5012  1.1357 -1.1147
  310MOL0     H41809   6.400   4.229  11.042  1.4471 -0.1957  0.0660
  310MOL0     H41810   6.289   4.354  11.148  0.5834 -3.6270 -1.5636
  310MOL0     H41811   6.124   4.469  11.285 -0.2487 -1.1078 -0.8887
  310MOL0     H41812   5.890   4.318  11.879  0.5670  1.7070 -0.3502
  310MOL0     H41813   5.679   4.411  11.981 -1.0000 -2.5449 -0.7852
  310MOL0     H41814   5.388   4.650  11.750 -2.2317  1.3662  1.0800
  310MOL0     H41815   5.332   4.483  11.787  0.4320  0.7516 -2.4218
  310MOL0     H41816   5.294   4.563  12.023  0.9360  0.8996  0.2351
  310MOL0     H41817   5.300   4.723  11.985  0.2978 -0.7824  1.1694
  310MOL0     H41818   5.123   4.524  11.826 -1.8626 -0.8875  1.6871
  310MOL0     H41819   5.071   4.600  11.975 -0.7860 -3.5394 -0.9030
  310MOL0     H41820   4.969   4.697  11.792 -0.9414 -0.3529  3.2449
  310MOL0     H41821   5.115   4.742  11.709  3.1290  1.4143  0.9475
  310MOL0     H41822   5.145   4.901  11.925  2.2152  0.1545 -1.8674
  310MOL0     H41823   4.981   4.839  11.966 -0.5799  2.1839 -0.3541
  310MOL0     H41824   5.035   4.976  11.698 -3.8473  0.7373 -2.3549
  310MOL0     H41825   4.878   4.940  11.785 -0.7500  0.4734  2.2399
  310MOL0     H41826   5.106   5.104  11.911  0.2255  2.1405 -2.3011
  310MOL0     H41827   4.941   5.094  11.967 -0.2999  0.3300  0.1709
  310MOL0     H41828   4.962   5.309  11.839 -0.6090  0.6134 -0.2861
  310MOL0     H41829   5.058   5.217  11.709 -0.7838 -1.1181 -1.0564
  310MOL0     H41830   5.514   4.510  11.609  0.1986  3.2107  1.2913
  310MOL0     H41831   5.697   4.408  11.493 -1.7184 -0.2122 -0.2778
  310MOL0     H41832   6.114   4.130  11.560 -1.0750 -4.0225 -1.7802
  310MOL0     H41833   6.271   4.013  11.415  0.1105 -1.1509 -3.3623
  310MOL0     H41834   7.555   4.858  10.495 -3.8262  0.1053 -3.8792
  310MOL0     H41835   7.517   4.760  10.283 -0.0681 -1.9144 -1.5283
  310MOL0     H41836   7.549   4.461  10.009 -0.2837  0.6512  0.7997
  310MOL0     H41837   7.562   4.341   9.792  0.4394  1.2220  0.3895
  310MOL0     H41838   7.519   4.150   9.565  1.2594  1.0432  1.1537
  310MOL0     H41839   7.422   4.314   9.563 -3.8098 -0.7843 -1.7602
  310MOL0     H41840   7.208   4.196   9.547 -0.3822 -1.4616  0.3801
  310MOL0     H41841   7.307   4.061   9.479  4.4306  0.2693  0.7862
  310MOL0     H41842   7.295   4.352   9.384  1.3609 -0.2150  0.2803
  310MOL0     H41843   7.213   4.211   9.311  1.6432  0.4647 -1.4374
  310MOL0     H41844   7.410   4.283   9.183 -1.1620 -0.2259  0.1351
  310MOL0     H41845   7.521   4.243   9.302  0.4406 -0.0539 -3.2550
  310MOL0     H41846   7.383   3.855   9.200  0.8407 -0.4927  1.8515
  310MOL0     H41847   7.157   4.231   9.831  1.9734 -4.3104 -1.4714
  310MOL0     H41848   7.078   4.420  10.112 -1.3779  0.4799 -0.7526
  310MOL0     H41849   7.033   4.346   9.961  3.4660 -0.1392 -2.5048
  310MOL0     H41850   7.081   4.239  10.103 -4.4059  0.0615  1.0974
  311MOL0     O41851  10.228   4.330   7.429 -0.1673  0.8630  0.6407
  311MOL0     C41852  10.212   4.338   7.307 -0.5753 -1.0959  0.1892
  311MOL0     O41853  10.273   4.420   7.227 -0.3684 -1.2355 -0.1640
  311MOL0     C41854  10.295   4.555   7.263  0.1388 -0.3985 -0.2533
  311MOL0     C41855  10.302   4.637   7.152  0.4990 -0.0009  0.4743
  311MOL0     C41856  10.321   4.774   7.169 -0.0676 -0.2391  0.3705
  311MOL0     C41857  10.322   4.831   7.300  0.1985 -0.2682 -0.3518
  311MOL0     O41858  10.376   4.952   7.319  0.4436  0.0379 -0.8482
  311MOL0     C41859  10.288   5.061   7.309 -0.1206  0.0669  0.6314
  311MOL0     C41860  10.351   5.189   7.369 -0.0082  0.1223  0.3750
  311MOL0     C41861  10.249   5.310   7.367 -0.0303  0.1022  0.4399
  311MOL0     C41862  10.328   5.443   7.372  0.1263 -0.3502  0.2949
  311MOL0     C41863  10.232   5.561   7.372 -0.1277  0.0270 -0.0439
  311MOL0     C41864  10.141   5.565   7.244 -0.4533 -0.0069  0.8237
  311MOL0     C41865  10.086   5.705   7.226 -0.5428 -0.2000 -0.3652
  311MOL0     C41866   9.991   5.745   7.351  0.7098 -0.3193  0.2104
  311MOL0     N41867   9.921   5.876   7.325  0.5027 -0.5769  0.0034
  311MOL0     C41868   9.947   6.001   7.375  0.2348  0.0107  0.4787
  311MOL0     C41869   9.848   6.080   7.333 -0.1715  0.2281  0.4719
  311MOL0     C41870   9.833   6.229   7.371 -0.2431  0.7638  0.5725
  311MOL0     C41871   9.859   6.253   7.518 -0.3016 -0.0795  0.0433
  311MOL0     C41872   9.767   6.171   7.614  0.0455 -0.4514  0.0628
  311MOL0     C41873   9.811   6.212   7.755 -0.2941  0.3885 -0.7767
  311MOL0     O41874   9.722   6.147   7.862 -0.0084 -0.0495 -0.5765
  311MOL0     C41875   9.744   6.010   7.894  0.4590  0.1062  0.3008
  311MOL0     C41876   9.861   5.944   7.843 -0.1385  0.1652  0.5379
  311MOL0     C41877   9.887   5.812   7.874  0.3565 -0.3990  0.2154
  311MOL0     C41878   9.792   5.744   7.957 -0.2394  0.2355 -0.5599
  311MOL0     C41879   9.811   5.605   7.995 -0.4628  0.0469  0.5620
  311MOL0     O41880   9.901   5.535   7.917  0.9351  0.4055  0.8398
  311MOL0     C41881   9.926   5.407   7.948 -0.6311  0.0879  0.6539
  311MOL0     C41882   9.856   5.303   7.887  0.5408  0.0935  0.3854
  311MOL0     C41883   9.898   5.171   7.905  0.3978  0.1007 -1.1258
  311MOL0     C41884  10.008   5.142   7.993  0.1407  0.3967  0.5693
  311MOL0     O41885  10.049   5.008   8.012  0.3553 -0.3410  0.4590
  311MOL0     C41886  10.178   4.979   7.966  2.0404 -0.4538  0.2864
  311MOL0     C41887  10.172   4.886   7.847 -0.6615 -0.4478  0.1920
  311MOL0     C41888  10.064   4.782   7.855 -0.2382 -0.4931 -0.5680
  311MOL0     C41889  10.097   4.661   7.764  0.1516 -0.0430  1.1721
  311MOL0     C41890  10.026   4.532   7.795  0.6468  0.0510 -0.6352
  311MOL0     C41891  10.095   4.406   7.736  0.2691  0.6561  0.4832
  311MOL0     C41892  10.042   4.271   7.797 -0.6633 -0.4385  0.1009
  311MOL0     C41893  10.125   4.162   7.731 -0.0414 -0.2307 -0.3516
  311MOL0    Cl41894  10.072   4.007   7.804  0.0882  0.2959  0.2312
  311MOL0     C41895  10.082   5.247   8.058 -0.1356  0.4763 -0.4728
  311MOL0     C41896  10.036   5.377   8.036  0.3013  0.3450  0.1818
  311MOL0     O41897   9.760   5.563   8.099 -0.4407  0.0093  0.0752
  311MOL0     C41898   9.685   5.814   8.012  0.5301  1.0330  0.8618
  311MOL0     C41899   9.657   5.940   7.978 -0.3105 -0.4078 -1.3883
  311MOL0     N41900   9.770   6.005   7.254 -0.2212  0.6705  0.0815
  311MOL0     N41901   9.815   5.889   7.245  0.6148 -0.3669 -0.1347
  311MOL0     C41902  10.323   4.746   7.407  0.5720  0.5063  0.0591
  311MOL0     C41903  10.303   4.607   7.395  0.9125 -0.3477 -0.7799
  311MOL0     C41904  10.125   4.229   7.253 -1.0263 -0.9560  0.0311
  311MOL0     C41905  10.015   4.184   7.328  0.4745  0.4849  0.0131
  311MOL0     C41906   9.923   4.094   7.273 -0.0844  0.4500 -0.2450
  311MOL0     C41907   9.935   4.039   7.145 -0.7448 -0.0262 -0.9844
  311MOL0     O41908   9.830   3.950   7.097 -0.2458 -0.8526  0.1013
  311MOL0     C41909   9.853   3.868   6.984  0.2330  0.7744  0.0080
  311MOL0     C41910   9.722   3.792   6.951  0.0250  0.3505  0.2649
  311MOL0     C41911   9.592   3.864   6.915 -1.0527 -0.9670 -0.4181
  311MOL0     C41912   9.551   3.965   7.024 -0.5442  0.5685 -0.0199
  311MOL0     C41913   9.546   3.896   7.146 -0.7626 -0.4725  0.0938
  311MOL0     C41914   9.535   3.819   7.228 -0.3207  0.0304  0.6226
  311MOL0     C41915  10.055   4.078   7.085 -1.0402 -0.4186  0.4840
  311MOL0     C41916  10.145   4.170   7.124  0.1417 -0.4965  0.0686
  311MOL0     C41917  10.256   4.199   7.036  0.2563 -0.2367 -0.4456
  311MOL0     H41918  10.287   4.610   7.048  0.3196  0.6393  0.3281
  311MOL0     H41919  10.311   4.852   7.093  0.7530  1.4060  1.8757
  311MOL0     H41920  10.242   5.070   7.211  3.3727 -1.2296 -1.3114
  311MOL0     H41921  10.208   5.047   7.383  1.4597 -1.4124  2.1496
  311MOL0     H41922  10.428   5.219   7.297 -2.5693  2.9523 -1.4388
  311MOL0     H41923  10.402   5.170   7.464 -0.1614  0.8563  0.6137
  311MOL0     H41924  10.192   5.304   7.460  1.5854 -0.6655  1.4101
  311MOL0     H41925  10.195   5.308   7.272 -0.2370 -0.0204  0.5579
  311MOL0     H41926  10.399   5.442   7.455  3.2165 -1.5456 -2.1533
  311MOL0     H41927  10.394   5.445   7.285  1.5056 -0.4829  1.3027
  311MOL0     H41928  10.170   5.565   7.463  1.6061  2.2623  1.1407
  311MOL0     H41929  10.291   5.653   7.375  0.3175 -0.2360 -0.5766
  311MOL0     H41930  10.210   5.542   7.162 -0.4974 -1.3317  1.1366
  311MOL0     H41931  10.058   5.494   7.239  1.7472 -2.6913 -3.4919
  311MOL0     H41932  10.035   5.719   7.130  3.3891  1.9452 -2.3931
  311MOL0     H41933  10.177   5.765   7.216  2.8368 -4.5336  0.7886
  311MOL0     H41934   9.919   5.664   7.354  0.8250 -0.4580 -0.6289
  311MOL0     H41935  10.046   5.749   7.446 -1.1940  1.0908  1.3277
  311MOL0     H41936  10.025   6.025   7.447 -0.4988 -0.3989  1.4284
  311MOL0     H41937   9.899   6.287   7.306  0.3945 -0.8254 -0.2664
  311MOL0     H41938   9.730   6.259   7.351 -0.5278 -1.3625 -1.7381
  311MOL0     H41939   9.965   6.258   7.547 -0.2243  1.4196 -0.4135
  311MOL0     H41940   9.840   6.358   7.542  0.6086 -0.6043  3.7145
  311MOL0     H41941   9.779   6.064   7.595 -0.1326 -0.3134 -0.8510
  311MOL0     H41942   9.661   6.200   7.607  0.0177 -0.7602 -0.8215
  311MOL0     H41943   9.807   6.320   7.773  1.8493  0.2381  1.1144
  311MOL0     H41944   9.916   6.189   7.775 -0.5586  1.4063  2.3950
  311MOL0     H41945   9.926   5.992   7.770  3.2833 -0.0462  3.1737
  311MOL0     H41946   9.978   5.773   7.830  0.8407 -1.3255  1.9801
  311MOL0     H41947   9.771   5.317   7.821  1.7798  2.5997 -0.8312
  311MOL0     H41948   9.846   5.086   7.863  2.3278 -2.0342  0.5252
  311MOL0     H41949  10.231   5.073   7.943  1.0430  0.5302  1.8389
  311MOL0     H41950  10.226   4.929   8.051 -1.2046 -0.7524  2.0972
  311MOL0     H41951  10.168   4.943   7.754 -0.1196  1.0244  1.0292
  311MOL0     H41952  10.264   4.828   7.847 -1.7604 -2.2983 -0.8804
  311MOL0     H41953  10.075   4.738   7.955  1.7829 -0.4165 -0.7232
  311MOL0     H41954   9.966   4.832   7.849 -0.3567 -0.1226  2.6221
  311MOL0     H41955  10.198   4.622   7.783  0.5955  1.0284  1.1033
  311MOL0     H41956  10.091   4.687   7.658 -0.4494 -4.8995 -0.1801
  311MOL0     H41957   9.920   4.543   7.772  0.8192  0.1194 -1.4465
  311MOL0     H41958  10.023   4.511   7.902 -0.8511 -0.1624 -0.7011
  311MOL0     H41959  10.076   4.389   7.630  1.9341 -1.2670  0.4285
  311MOL0     H41960  10.205   4.414   7.735  0.3575  1.0291 -3.4849
  311MOL0     H41961   9.936   4.252   7.776 -1.0926 -0.6253  2.2248
  311MOL0     H41962  10.052   4.269   7.906  0.4756 -0.0138  0.0182
  311MOL0     H41963  10.098   4.168   7.626  0.3990  1.6741 -0.3889
  311MOL0     H41964  10.232   4.180   7.744 -0.3219  1.4178  0.0064
  311MOL0     H41965  10.166   5.221   8.121 -0.2419 -0.8764 -0.8730
  311MOL0     H41966  10.093   5.463   8.069  0.3757 -0.1649  1.4370
  311MOL0     H41967   9.614   5.760   8.074  0.2402  1.4580  0.8992
  311MOL0     H41968   9.565   5.980   8.018  0.4377 -1.3483  1.5362
  311MOL0     H41969  10.336   4.800   7.500  2.8452  1.4796 -0.7500
  311MOL0     H41970  10.290   4.548   7.485 -0.5467  0.1852 -0.6111
  311MOL0     H41971  10.012   4.228   7.427  0.2929 -1.2290  0.8106
  311MOL0     H41972   9.837   4.062   7.331  1.7474  1.1677  3.1357
  311MOL0     H41973   9.924   3.793   7.019 -0.7469 -0.0269  0.3381
  311MOL0     H41974   9.888   3.943   6.913  1.7462  0.6317  0.5775
  311MOL0     H41975   9.703   3.704   7.014 -3.4104 -1.6500 -3.1201
  311MOL0     H41976   9.737   3.737   6.858 -3.1086 -2.5853  1.2822
  311MOL0     H41977   9.513   3.788   6.920 -0.0407 -2.1281 -1.5303
  311MOL0     H41978   9.588   3.910   6.816  2.5336  0.9084  0.1249
  311MOL0     H41979   9.612   4.054   7.038  0.8585  0.0175 -2.1929
  311MOL0     H41980   9.454   3.995   6.984 -1.3525 -2.8550 -1.0087
  311MOL0     H41981   9.499   3.753   7.304  1.2427  0.7944  2.0898
  311MOL0     H41982  10.078   4.028   6.991  1.6853  2.5162 -0.5649
  311MOL0     H41983  10.266   4.117   6.964  0.3176 -2.2682  1.7188
  311MOL0     H41984  10.243   4.292   6.981  1.2556  0.4381  0.4124
  311MOL0     H41985  10.342   4.197   7.103 -0.3814 -1.9771  0.3907
  312MOL0     O41986   9.081   0.485   0.624 -0.4271 -0.2242  0.0306
  312MOL0     C41987   9.035   0.438   0.522  0.9320  0.0634  0.0219
  312MOL0     O41988   9.009   0.520   0.403 -0.0311 -0.0610 -0.3048
  312MOL0     C41989   9.000   0.656   0.421  0.1122 -0.5649 -0.2930
  312MOL0     C41990   9.122   0.724   0.441 -1.1177 -0.3857 -0.8650
  312MOL0     C41991   9.122   0.863   0.478  0.3491 -0.3676 -0.8414
  312MOL0     C41992   9.001   0.934   0.477 -0.4125  0.4863  0.9886
  312MOL0     O41993   8.984   1.067   0.530  0.2336  0.4225 -0.8036
  312MOL0     C41994   9.090   1.112   0.619 -0.3729  0.5670  0.8100
  312MOL0     C41995   9.061   1.260   0.651  0.2031 -0.7501  1.0237
  312MOL0     C41996   9.084   1.349   0.529 -0.0340  0.0543 -0.8525
  312MOL0     C41997   9.236   1.386   0.497  0.3750 -0.3102 -1.2575
  312MOL0     C41998   9.285   1.361   0.354  0.5880 -0.3036 -0.9928
  312MOL0     C41999   9.286   1.211   0.323  1.7598 -0.2420  1.1647
  312MOL0     C42000   9.403   1.148   0.377  0.5306 -0.0814  0.8184
  312MOL0     C42001   9.438   1.029   0.286  0.2143 -0.0327  0.0873
  312MOL0     N42002   9.545   1.058   0.187  0.3027 -0.4833  0.1527
  312MOL0     C42003   9.558   1.166   0.106  1.0332  0.1348  0.3214
  312MOL0     C42004   9.659   1.137   0.025 -0.4206  0.3102  0.2188
  312MOL0     C42005   9.704   1.236  -0.081 -0.2992 -0.4196  0.3743
  312MOL0     C42006   9.698   1.157  -0.222 -0.1822 -0.1965 -0.7714
  312MOL0     C42007   9.723   1.267  -0.333 -0.1137 -0.6930  0.4776
  312MOL0     C42008   9.729   1.212  -0.467 -0.1041  0.4170  0.3062
  312MOL0     O42009   9.614   1.126  -0.484 -0.0316 -0.0586  0.1942
  312MOL0     C42010   9.622   1.033  -0.587  0.4225  0.5029  0.0990
  312MOL0     C42011   9.715   1.048  -0.693 -0.5181  0.4665 -0.0004
  312MOL0     C42012   9.725   0.955  -0.799  0.6111 -1.0050 -0.0811
  312MOL0     C42013   9.654   0.836  -0.793  0.1526 -0.3900  0.1933
  312MOL0     C42014   9.667   0.738  -0.900  0.0205  0.6411 -0.4422
  312MOL0     O42015   9.586   0.631  -0.889  0.8520 -0.9288 -0.2092
  312MOL0     C42016   9.613   0.532  -0.979 -0.1680  0.8146 -0.2879
  312MOL0     C42017   9.717   0.446  -0.961  0.4283  1.0679 -0.2826
  312MOL0     C42018   9.727   0.332  -1.051  0.2385  0.5683 -0.0954
  312MOL0     C42019   9.634   0.308  -1.156  0.3281 -0.5247 -0.4336
  312MOL0     O42020   9.612   0.202  -1.234 -0.5979  0.3892 -1.1965
  312MOL0     C42021   9.679   0.076  -1.217  0.4105  0.0792 -1.2420
  312MOL0     C42022   9.782   0.064  -1.329  0.5877  1.6841 -0.2518
  312MOL0     C42023   9.887  -0.045  -1.337  0.3050 -0.7584 -1.2331
  312MOL0     C42024   9.833  -0.182  -1.371 -0.5144 -0.6695  0.3070
  312MOL0     C42025   9.766  -0.195  -1.511  0.8317 -0.1947  0.3551
  312MOL0     C42026   9.655  -0.301  -1.518 -0.4471  0.0527  0.8243
  312MOL0     C42027   9.523  -0.257  -1.437  0.5041 -0.5294  0.7729
  312MOL0     C42028   9.422  -0.367  -1.425  0.8955  0.7328 -0.5738
  312MOL0    Cl42029   9.371  -0.419  -1.587  0.3798  0.1346  0.2998
  312MOL0     C42030   9.536   0.406  -1.182 -0.0567 -0.2523 -0.2647
  312MOL0     C42031   9.528   0.513  -1.092 -1.4545 -0.7690  0.6310
  312MOL0     O42032   9.745   0.748  -0.994 -0.0997 -0.3156 -0.2027
  312MOL0     C42033   9.553   0.818  -0.691 -0.1175 -0.0936  0.2643
  312MOL0     C42034   9.543   0.916  -0.591  0.9244 -0.0161 -0.3825
  312MOL0     N42035   9.716   1.012   0.059  0.9470 -0.3760 -0.6427
  312MOL0     N42036   9.644   0.970   0.157  0.5066 -0.0321  0.1639
  312MOL0     C42037   8.888   0.861   0.446  0.1700  0.2070 -0.2939
  312MOL0     C42038   8.876   0.728   0.430  0.1813  0.7990  0.6922
  312MOL0     C42039   9.021   0.298   0.491 -0.5792 -0.2519  0.3456
  312MOL0     C42040   8.912   0.252   0.417 -0.4034  0.2824  0.8216
  312MOL0     C42041   8.889   0.122   0.386  0.4943  0.5986  1.2980
  312MOL0     C42042   8.993   0.034   0.405  0.7595 -0.7215  0.1580
  312MOL0     O42043   9.005  -0.104   0.377  0.1366  0.1550  0.1373
  312MOL0     C42044   8.893  -0.164   0.313  0.4733  0.4858 -0.3131
  312MOL0     C42045   8.909  -0.314   0.280  0.2148 -0.1553 -0.3871
  312MOL0     C42046   9.006  -0.329   0.156 -0.1445  0.0406 -0.0362
  312MOL0     C42047   8.930  -0.348   0.024 -0.7441  0.2999 -0.3438
  312MOL0     C42048   8.829  -0.247   0.004 -0.1065  0.0954  0.7926
  312MOL0     C42049   8.745  -0.175  -0.022  0.8173 -0.4302  0.9593
  312MOL0     C42050   9.103   0.076   0.474  0.1077  0.6241 -0.6631
  312MOL0     C42051   9.114   0.203   0.529  0.0784  0.7645 -0.6766
  312MOL0     C42052   9.232   0.240   0.618  0.7866 -0.8581 -0.2294
  312MOL0     H42053   9.216   0.670   0.440 -2.2745 -2.5164 -1.6312
  312MOL0     H42054   9.215   0.899   0.520 -0.1442  0.0163 -0.0396
  312MOL0     H42055   9.073   1.055   0.712 -0.0387 -0.0520  0.4995
  312MOL0     H42056   9.191   1.100   0.580 -0.4557 -1.6503  1.1291
  312MOL0     H42057   9.131   1.280   0.733  0.0173  0.4428  0.9123
  312MOL0     H42058   8.959   1.272   0.688  0.0297  0.6593  0.1555
  312MOL0     H42059   9.029   1.440   0.556 -0.1834 -1.3188  5.0155
  312MOL0     H42060   9.029   1.310   0.443 -0.0622  0.9470 -1.2571
  312MOL0     H42061   9.261   1.491   0.517  4.5079 -1.4299  0.6754
  312MOL0     H42062   9.290   1.332   0.575 -1.6862 -0.6869 -0.0224
  312MOL0     H42063   9.209   1.389   0.281  0.1495 -3.5858 -1.9821
  312MOL0     H42064   9.376   1.417   0.334 -0.5565  2.4853  0.9457
  312MOL0     H42065   9.200   1.158   0.365  1.6551 -1.0161  0.0425
  312MOL0     H42066   9.283   1.194   0.215  1.1917  2.7284  0.6369
  312MOL0     H42067   9.383   1.109   0.478  0.2932  1.3101  1.3361
  312MOL0     H42068   9.482   1.222   0.389 -0.4724  0.6702  3.8165
  312MOL0     H42069   9.471   0.952   0.356  2.9944  1.6718  0.8144
  312MOL0     H42070   9.350   0.992   0.233 -0.2794  1.0899  0.0986
  312MOL0     H42071   9.502   1.259   0.113  0.0281 -0.4409  0.1172
  312MOL0     H42072   9.644   1.327  -0.090  0.2646 -0.1579 -0.9414
  312MOL0     H42073   9.803   1.276  -0.056 -0.2920  0.1092 -0.4421
  312MOL0     H42074   9.769   1.073  -0.228 -0.1844 -0.2808  0.2464
  312MOL0     H42075   9.594   1.125  -0.238 -0.5647 -0.9766  2.6004
  312MOL0     H42076   9.813   1.324  -0.312 -0.5941  1.3524 -2.3676
  312MOL0     H42077   9.644   1.343  -0.334 -1.8603 -2.4087 -0.7270
  312MOL0     H42078   9.825   1.161  -0.472 -0.4315 -0.1229 -0.5910
  312MOL0     H42079   9.739   1.280  -0.552  1.4977 -0.5531 -0.3127
  312MOL0     H42080   9.786   1.130  -0.695 -0.4205  0.3759 -0.3285
  312MOL0     H42081   9.802   0.960  -0.875 -0.9622 -2.6802 -1.9005
  312MOL0     H42082   9.777   0.444  -0.871 -1.8122 -2.2277  1.3675
  312MOL0     H42083   9.808   0.260  -1.042 -1.0013 -0.8182  0.2378
  312MOL0     H42084   9.733   0.064  -1.123  1.0310 -1.6834 -1.7771
  312MOL0     H42085   9.603  -0.003  -1.219  1.6283 -1.1309 -0.9484
  312MOL0     H42086   9.721   0.078  -1.419 -0.4247  0.6548  0.2438
  312MOL0     H42087   9.846   0.152  -1.315  1.8592  0.9333 -1.1836
  312MOL0     H42088   9.966  -0.014  -1.406 -0.5329  0.0724 -1.8561
  312MOL0     H42089   9.935  -0.050  -1.239  1.6715  0.6911 -1.7755
  312MOL0     H42090   9.763  -0.206  -1.290 -2.1337  2.1484 -0.1164
  312MOL0     H42091   9.917  -0.252  -1.373 -0.8571 -1.0978 -2.1621
  312MOL0     H42092   9.839  -0.213  -1.590  1.1323  0.5108  0.4665
  312MOL0     H42093   9.708  -0.103  -1.519 -0.1482 -0.6368  1.8606
  312MOL0     H42094   9.633  -0.319  -1.624 -0.9841 -0.3757  1.0066
  312MOL0     H42095   9.703  -0.391  -1.479 -0.9777 -2.0339 -2.8108
  312MOL0     H42096   9.482  -0.165  -1.479 -0.1259 -0.9685  0.4233
  312MOL0     H42097   9.552  -0.229  -1.335 -0.7226 -0.8952  1.2425
  312MOL0     H42098   9.466  -0.454  -1.374  0.2390  0.5228 -0.3456
  312MOL0     H42099   9.327  -0.340  -1.377  2.0768  1.7991  1.2495
  312MOL0     H42100   9.455   0.399  -1.253  1.1604 -1.7448 -1.5652
  312MOL0     H42101   9.443   0.579  -1.106 -0.9264  0.7690  3.8158
  312MOL0     H42102   9.486   0.732  -0.690  0.3656 -0.4717  1.2578
  312MOL0     H42103   9.467   0.901  -0.514 -1.1404  1.3095 -2.0273
  312MOL0     H42104   8.792   0.913   0.445  0.3737  0.5858 -1.5637
  312MOL0     H42105   8.784   0.673   0.414  0.8589 -0.7708  1.8860
  312MOL0     H42106   8.840   0.327   0.385  1.5809  1.8298 -0.1895
  312MOL0     H42107   8.807   0.087   0.325  0.8248 -1.5933  2.0019
  312MOL0     H42108   8.861  -0.110   0.224 -0.5611  1.6667  0.7409
  312MOL0     H42109   8.804  -0.164   0.378 -0.3222 -1.2013 -1.3265
  312MOL0     H42110   8.810  -0.359   0.273 -2.0477  3.8644  1.8867
  312MOL0     H42111   8.964  -0.363   0.361 -0.5023  1.0048  0.8405
  312MOL0     H42112   9.064  -0.419   0.175 -2.3782 -1.2728  0.9415
  312MOL0     H42113   9.081  -0.249   0.152 -0.0975  0.0361  0.6709
  312MOL0     H42114   9.003  -0.331  -0.056  1.0015  1.2264  1.3510
  312MOL0     H42115   8.871  -0.440   0.022  0.0034 -0.2438  0.9398
  312MOL0     H42116   8.662  -0.115  -0.052  1.8955  0.2326 -0.8678
  312MOL0     H42117   9.189   0.011   0.485 -0.5109  0.1515  2.2133
  312MOL0     H42118   9.199   0.257   0.721  1.7682  0.7376 -0.1432
  312MOL0     H42119   9.306   0.159   0.614  1.3420 -0.4181  0.8099
  312MOL0     H42120   9.283   0.331   0.586  2.3874 -1.1480  1.3352
  313MOL0     O42121   8.574   4.851   9.975 -0.1319 -0.2113  0.4039
  313MOL0     C42122   8.590   4.881  10.091 -1.1133  0.0286 -1.2166
  313MOL0     O42123   8.525   4.982  10.158 -0.7883  0.0310  0.1997
  313MOL0     C42124   8.450   5.089  10.113 -0.0112  0.9963  0.4269
  313MOL0     C42125   8.424   5.124   9.985 -0.1833 -1.1378  0.2284
  313MOL0     C42126   8.337   5.228   9.953  0.0526  0.1269 -0.4563
  313MOL0     C42127   8.286   5.305  10.052  0.4690 -0.1242 -0.0138
  313MOL0     O42128   8.225   5.423  10.043  0.0526 -0.2176  0.3536
  313MOL0     C42129   8.198   5.500   9.930 -0.1017  0.4147 -0.0867
  313MOL0     C42130   8.063   5.456   9.885  0.5090  1.0966  0.1645
  313MOL0     C42131   8.051   5.490   9.735 -0.8347 -0.5158  0.4428
  313MOL0     C42132   8.109   5.378   9.647  0.7174 -1.3283 -0.2268
  313MOL0     C42133   8.087   5.407   9.495  0.3268  0.2529 -0.2032
  313MOL0     C42134   8.193   5.495   9.426 -0.4793 -0.1127  0.7852
  313MOL0     C42135   8.155   5.528   9.280 -0.8050  0.3239  0.0925
  313MOL0     C42136   8.268   5.592   9.204  0.7851 -0.1578  0.1690
  313MOL0     N42137   8.222   5.700   9.113 -0.2976 -0.4470  0.1593
  313MOL0     C42138   8.099   5.713   9.046 -0.3832 -0.6188  0.3309
  313MOL0     C42139   8.088   5.832   8.987  0.1248  0.1111  0.0593
  313MOL0     C42140   7.976   5.879   8.901  0.3907  0.1808  0.2747
  313MOL0     C42141   7.971   6.034   8.889  0.3767  0.9917 -0.0485
  313MOL0     C42142   7.838   6.080   8.835  0.8323  0.0127 -0.3244
  313MOL0     C42143   7.831   6.237   8.827 -1.0359  0.0572 -0.4041
  313MOL0     O42144   7.857   6.286   8.700 -0.8709 -0.2476 -0.4881
  313MOL0     C42145   7.862   6.425   8.687  0.3184 -0.1152  0.7356
  313MOL0     C42146   7.855   6.517   8.796 -0.0158 -0.9901 -0.3251
  313MOL0     C42147   7.840   6.657   8.775 -0.4953  0.1996  0.0675
  313MOL0     C42148   7.842   6.702   8.639  1.1761  0.3699 -0.4636
  313MOL0     C42149   7.809   6.840   8.610 -0.3952 -0.6112  0.7801
  313MOL0     O42150   7.731   6.906   8.695 -0.0046  0.2780 -0.0171
  313MOL0     C42151   7.684   7.034   8.662  1.1687 -0.3115  0.0690
  313MOL0     C42152   7.555   7.047   8.612 -0.3720  0.8183 -0.4153
  313MOL0     C42153   7.494   7.172   8.583 -0.3650  0.6263  0.5168
  313MOL0     C42154   7.579   7.284   8.603  0.7158 -0.4860 -1.0516
  313MOL0     O42155   7.551   7.413   8.582 -0.2809 -0.3436  0.1628
  313MOL0     C42156   7.439   7.438   8.494  0.0080  0.4040  0.0684
  313MOL0     C42157   7.411   7.588   8.486 -0.5769 -0.8338 -1.0481
  313MOL0     C42158   7.366   7.637   8.620  0.0036 -0.0193  0.3652
  313MOL0     C42159   7.329   7.783   8.613 -0.5142  0.2735  0.0563
  313MOL0     C42160   7.308   7.827   8.757 -0.5482 -0.7101  0.6134
  313MOL0     C42161   7.267   7.968   8.764 -0.6593 -0.5268 -0.6058
  313MOL0     C42162   7.286   8.014   8.905  0.1979 -0.3516  0.1145
  313MOL0     C42163   7.255   8.163   8.916 -0.2755  0.4635  0.1057
  313MOL0    Cl42164   7.077   8.182   8.894  0.3123  0.5714  0.3405
  313MOL0     C42165   7.702   7.266   8.667  0.5290  0.3884  0.5854
  313MOL0     C42166   7.750   7.143   8.704 -0.7307  0.0874 -0.8390
  313MOL0     O42167   7.844   6.885   8.504  0.0792  0.5895  0.2836
  313MOL0     C42168   7.879   6.615   8.539  0.3366  0.1736 -0.7069
  313MOL0     C42169   7.883   6.478   8.561  0.3621  0.4639  0.0127
  313MOL0     N42170   8.201   5.901   9.023 -0.3117 -0.6929 -0.2697
  313MOL0     N42171   8.282   5.819   9.098  0.1239 -0.1553  0.0582
  313MOL0     C42172   8.302   5.262  10.181 -0.6785 -0.0785 -0.0142
  313MOL0     C42173   8.390   5.157  10.214 -0.2415  0.5925  0.0197
  313MOL0     C42174   8.667   4.779  10.171 -0.5928 -0.0819 -0.1459
  313MOL0     C42175   8.650   4.641  10.144 -0.1696  0.3583  0.2838
  313MOL0     C42176   8.732   4.540  10.205 -0.0604  0.6593  0.2897
  313MOL0     C42177   8.835   4.568  10.300  0.1679 -0.5007 -0.1972
  313MOL0     O42178   8.924   4.484  10.354  0.3007  0.0635 -0.2054
  313MOL0     C42179   8.911   4.337  10.330 -0.1273 -1.8695 -0.3442
  313MOL0     C42180   8.969   4.268  10.463  0.6042  0.4708  0.6577
  313MOL0     C42181   9.105   4.317  10.505 -0.6862  0.5672  0.0988
  313MOL0     C42182   9.150   4.254  10.640 -0.7736  0.4800  1.0511
  313MOL0     C42183   9.293   4.288  10.652 -0.3922 -0.4482 -0.3469
  313MOL0     C42184   9.407   4.331  10.659 -0.1427 -0.0366  0.4785
  313MOL0     C42185   8.836   4.708  10.334 -0.3074 -0.2790  0.0654
  313MOL0     C42186   8.773   4.816  10.267 -0.4810 -0.3023  1.0545
  313MOL0     C42187   8.809   4.959  10.297 -0.4424 -1.2924  0.1935
  313MOL0     H42188   8.472   5.074   9.902  2.9698 -1.4113  2.0338
  313MOL0     H42189   8.314   5.226   9.847 -0.4797  2.2639 -0.4201
  313MOL0     H42190   8.197   5.603   9.966  1.9100  0.0223  1.2809
  313MOL0     H42191   8.287   5.499   9.866  0.3373  1.9124  0.4639
  313MOL0     H42192   7.987   5.501   9.949  0.5934  2.1656 -0.4656
  313MOL0     H42193   8.048   5.348   9.888  1.7858  0.9009  0.4597
  313MOL0     H42194   8.088   5.585   9.696 -2.3419 -1.1270 -2.7868
  313MOL0     H42195   7.945   5.486   9.709 -0.5926  1.1933 -0.9964
  313MOL0     H42196   8.216   5.370   9.669  0.5517 -3.5623  0.0104
  313MOL0     H42197   8.065   5.283   9.679 -0.6011 -1.0269 -1.0648
  313MOL0     H42198   8.081   5.311   9.442  0.6302  0.1948 -0.1335
  313MOL0     H42199   7.991   5.460   9.495  2.4414  4.4654  1.1330
  313MOL0     H42200   8.193   5.584   9.489  0.6766  0.9689 -0.6813
  313MOL0     H42201   8.293   5.451   9.434  0.6302  1.8725 -1.2308
  313MOL0     H42202   8.071   5.596   9.272 -1.9475 -1.2378 -2.6275
  313MOL0     H42203   8.136   5.428   9.239  0.9273 -0.2324  0.5436
  313MOL0     H42204   8.329   5.646   9.277 -3.0651  1.3917  2.5725
  313MOL0     H42205   8.332   5.526   9.146  1.2403  0.0345  0.4460
  313MOL0     H42206   8.024   5.634   9.045 -2.2198  0.9412  2.9517
  313MOL0     H42207   7.973   5.840   8.799 -0.8122 -1.5255  0.9150
  313MOL0     H42208   7.881   5.846   8.944 -0.0403 -1.1646 -1.5524
  313MOL0     H42209   7.987   6.061   8.993 -1.2620 -1.2605  0.8775
  313MOL0     H42210   8.058   6.057   8.826  1.6191 -1.8748  0.4608
  313MOL0     H42211   7.757   6.053   8.903 -1.5643  3.4767 -1.5376
  313MOL0     H42212   7.812   6.025   8.744 -2.6505 -0.1484  0.6251
  313MOL0     H42213   7.903   6.267   8.904 -1.9678 -1.0185  0.9356
  313MOL0     H42214   7.732   6.277   8.848 -0.0916  2.1078  0.4548
  313MOL0     H42215   7.855   6.488   8.901 -0.8969 -0.8012 -0.2647
  313MOL0     H42216   7.829   6.735   8.850  1.9393  0.8788 -0.2065
  313MOL0     H42217   7.513   6.949   8.595  3.9690 -1.0340 -1.9720
  313MOL0     H42218   7.398   7.172   8.534  1.6423 -1.1286 -3.9512
  313MOL0     H42219   7.460   7.408   8.391  4.0403 -1.3477  1.2295
  313MOL0     H42220   7.349   7.386   8.528 -0.0812  1.7832  2.1438
  313MOL0     H42221   7.501   7.639   8.450  0.4199  0.1027  2.3412
  313MOL0     H42222   7.335   7.586   8.408 -2.6784 -0.1731  0.8749
  313MOL0     H42223   7.286   7.579   8.665  1.7284 -2.1529  0.8817
  313MOL0     H42224   7.455   7.629   8.683  0.5125 -1.8383 -0.5037
  313MOL0     H42225   7.241   7.796   8.549 -1.3791 -0.2485  1.0997
  313MOL0     H42226   7.413   7.837   8.570  0.5381  1.0179  2.8202
  313MOL0     H42227   7.400   7.818   8.816  0.0314  2.4600  0.3965
  313MOL0     H42228   7.228   7.768   8.803 -0.9404 -1.8357 -1.4379
  313MOL0     H42229   7.330   8.030   8.699  2.3164 -0.0904  2.4311
  313MOL0     H42230   7.159   7.970   8.744 -0.9201 -2.5900  0.3220
  313MOL0     H42231   7.387   7.981   8.930  0.9784 -1.5118 -3.8918
  313MOL0     H42232   7.218   7.952   8.964  0.6845 -1.5360 -0.5341
  313MOL0     H42233   7.286   8.201   9.014 -3.1532  1.2150  0.8219
  313MOL0     H42234   7.307   8.225   8.843 -2.4051 -0.3642 -2.2630
  313MOL0     H42235   7.769   7.350   8.688  3.2756 -0.8732 -2.3072
  313MOL0     H42236   7.846   7.124   8.749 -1.3489  0.7121  0.7972
  313MOL0     H42237   7.881   6.647   8.435  1.5197  2.0529 -0.1677
  313MOL0     H42238   7.882   6.407   8.479 -1.4268  1.1888 -0.6383
  313MOL0     H42239   8.258   5.312  10.267 -1.1072  0.6289 -0.6309
  313MOL0     H42240   8.404   5.117  10.314  0.1881 -0.4982 -0.4654
  313MOL0     H42241   8.586   4.616  10.060  0.5217 -2.7197  0.5703
  313MOL0     H42242   8.723   4.438  10.169  0.5439  1.9113 -3.9331
  313MOL0     H42243   8.968   4.308  10.241  0.1702  1.2801 -1.2820
  313MOL0     H42244   8.807   4.305  10.325 -1.4250  1.9984 -1.2933
  313MOL0     H42245   8.979   4.160  10.454  0.9861  0.4376  1.4307
  313MOL0     H42246   8.891   4.283  10.538 -0.9939  0.0315 -0.8562
  313MOL0     H42247   9.097   4.423  10.533  0.4184  1.0612 -1.3622
  313MOL0     H42248   9.178   4.313  10.423 -1.5779 -0.0806 -0.6821
  313MOL0     H42249   9.095   4.294  10.725 -2.8261  1.6827 -0.7461
  313MOL0     H42250   9.154   4.144  10.637  0.5291  0.5256 -1.3211
  313MOL0     H42251   9.509   4.364  10.666 -0.2411  0.0420  1.7978
  313MOL0     H42252   8.914   4.741  10.402 -0.1845  0.8849 -0.6173
  313MOL0     H42253   8.885   4.952  10.375 -0.2026  0.1911  0.1383
  313MOL0     H42254   8.850   5.005  10.206  1.9279 -1.8108  0.9297
  313MOL0     H42255   8.730   5.019  10.344  0.9904 -1.5745  3.1594
  314MOL0     O42256   9.577   9.764   6.989  0.3750 -0.1235  0.5095
  314MOL0     C42257   9.685   9.815   7.005 -0.4968  0.8558  0.0716
  314MOL0     O42258   9.715   9.941   7.026 -0.1383  0.0384 -1.2135
  314MOL0     C42259   9.622  10.044   7.031 -0.9172 -1.4322  0.1814
  314MOL0     C42260   9.632  10.146   7.131 -0.5627  0.4007 -0.5152
  314MOL0     C42261   9.548  10.245   7.135  0.4309 -0.6499  0.4517
  314MOL0     C42262   9.445  10.246   7.040  0.6972 -0.4974  0.4236
  314MOL0     O42263   9.341  10.339   7.038  0.1208  0.1073 -0.1380
  314MOL0     C42264   9.364  10.465   7.095  0.6466 -0.0261 -0.2055
  314MOL0     C42265   9.274  10.576   7.024 -0.0037  0.1961  0.1163
  314MOL0     C42266   9.271  10.713   7.096  0.1345  0.0858  0.2111
  314MOL0     C42267   9.223  10.817   6.991 -0.4670 -0.6460 -1.2018
  314MOL0     C42268   9.135  10.930   7.050  0.2202 -0.5119 -0.3493
  314MOL0     C42269   9.218  11.044   7.118  0.7035  0.0121 -0.6374
  314MOL0     C42270   9.132  11.143   7.203 -0.5877 -0.0674  0.8447
  314MOL0     C42271   9.108  11.088   7.336 -0.6307  1.0363  1.1486
  314MOL0     N42272   9.223  11.069   7.419  0.7187 -0.1566  0.0458
  314MOL0     C42273   9.253  10.954   7.490  0.9193  0.3393  0.5967
  314MOL0     C42274   9.380  10.968   7.536 -0.2729 -0.4505  0.6468
  314MOL0     C42275   9.463  10.863   7.609  0.4023 -0.4153  0.8616
  314MOL0     C42276   9.493  10.903   7.751  0.3826 -0.5861 -0.1034
  314MOL0     C42277   9.574  10.781   7.815 -0.4176 -0.0663  0.6645
  314MOL0     C42278   9.489  10.709   7.913 -0.2347 -0.4422  0.4947
  314MOL0     O42279   9.388  10.620   7.859  0.0005 -0.0106  0.2905
  314MOL0     C42280   9.399  10.488   7.901  0.0126 -0.1357  1.0412
  314MOL0     C42281   9.452  10.448   8.026  1.1849  0.1253  0.2966
  314MOL0     C42282   9.469  10.302   8.048  0.6945  0.0723  0.3425
  314MOL0     C42283   9.429  10.210   7.951 -0.1269  0.5621 -0.0770
  314MOL0     C42284   9.431  10.060   7.976 -0.0759 -0.7690 -0.9793
  314MOL0     O42285   9.506  10.022   8.086 -0.3171  0.4989 -0.2624
  314MOL0     C42286   9.501   9.894   8.132 -0.1687  1.0848 -0.5258
  314MOL0     C42287   9.524   9.777   8.061 -1.0338 -0.0141  0.3645
  314MOL0     C42288   9.529   9.642   8.126 -1.2274  0.0434  0.0191
  314MOL0     C42289   9.501   9.627   8.259  0.7541  1.0081  0.1084
  314MOL0     O42290   9.506   9.501   8.324 -0.1339 -0.8155 -0.0324
  314MOL0     C42291   9.401   9.405   8.307 -0.2818 -0.5412  0.6229
  314MOL0     C42292   9.345   9.378   8.450  0.4521 -1.5524  0.6865
  314MOL0     C42293   9.426   9.277   8.532  0.4568 -0.5301 -1.5282
  314MOL0     C42294   9.550   9.337   8.610  0.2700  0.5801 -0.1613
  314MOL0     C42295   9.494   9.398   8.745  0.6629  0.3886 -0.2485
  314MOL0     C42296   9.613   9.448   8.825 -0.4304  0.3553 -0.5608
  314MOL0     C42297   9.583   9.468   8.970  0.2250 -0.5609 -0.1702
  314MOL0     C42298   9.706   9.522   9.036 -0.5961 -0.5591 -0.0339
  314MOL0    Cl42299   9.677   9.553   9.212  0.5102 -0.3146  0.1531
  314MOL0     C42300   9.471   9.746   8.325  1.2770 -0.1697 -0.4822
  314MOL0     C42301   9.473   9.876   8.275 -0.3328  0.9859  0.8419
  314MOL0     O42302   9.358   9.989   7.915  0.2373  0.2957 -0.0415
  314MOL0     C42303   9.381  10.254   7.824 -0.0323 -0.4615 -0.9751
  314MOL0     C42304   9.364  10.391   7.805 -0.4920 -0.2998 -1.2521
  314MOL0     N42305   9.423  11.093   7.494 -0.0474  0.0901  0.5923
  314MOL0     N42306   9.332  11.157   7.424  0.3989  0.1343  0.0574
  314MOL0     C42307   9.432  10.152   6.944 -0.1137  0.1408 -0.2081
  314MOL0     C42308   9.528  10.047   6.937 -0.5862  0.4644 -0.7647
  314MOL0     C42309   9.797   9.724   6.970 -1.0409  0.5038 -0.8914
  314MOL0     C42310   9.788   9.629   6.864 -0.2686  0.2378 -1.2932
  314MOL0     C42311   9.890   9.541   6.832  0.3412  0.0843  0.2798
  314MOL0     C42312  10.017   9.557   6.881 -0.6437 -0.4972 -0.7983
  314MOL0     O42313  10.117   9.471   6.850 -0.2921  0.0737 -0.8721
  314MOL0     C42314  10.092   9.364   6.755 -0.7010  0.7543 -0.1322
  314MOL0     C42315  10.213   9.291   6.704  0.5517  0.5889 -0.3228
  314MOL0     C42316  10.279   9.216   6.811  0.0813  0.6829 -0.2587
  314MOL0     C42317  10.376   9.299   6.896 -0.2369 -0.4107 -0.1794
  314MOL0     C42318  10.462   9.377   6.808  0.0246  0.4142  0.2758
  314MOL0     C42319  10.538   9.449   6.750 -0.3861 -0.7361  0.7006
  314MOL0     C42320  10.031   9.648   6.982 -0.3756 -0.3342 -0.3702
  314MOL0     C42321   9.925   9.727   7.037 -0.1129 -0.2687  0.7769
  314MOL0     C42322   9.956   9.812   7.153 -0.2636  0.8431  0.1350
  314MOL0     H42323   9.709  10.133   7.208 -2.1798  1.8758  1.4579
  314MOL0     H42324   9.558  10.316   7.217  0.4608 -2.0469  1.7099
  314MOL0     H42325   9.333  10.469   7.200 -2.2879  1.0251 -1.0141
  314MOL0     H42326   9.470  10.488   7.080  0.8975 -1.9172 -1.6858
  314MOL0     H42327   9.174  10.535   7.008 -0.1175  1.6455 -4.0369
  314MOL0     H42328   9.305  10.593   6.921 -1.1682  1.5523 -0.0404
  314MOL0     H42329   9.374  10.736   7.126  0.4666  0.5829 -1.2370
  314MOL0     H42330   9.214  10.716   7.189  1.5477  0.4894  1.0944
  314MOL0     H42331   9.310  10.862   6.943 -1.3253 -0.3447 -2.5092
  314MOL0     H42332   9.159  10.767   6.918 -1.0245 -2.1108  0.2107
  314MOL0     H42333   9.083  10.971   6.963 -1.0436  0.9654  1.0521
  314MOL0     H42334   9.061  10.891   7.121  1.9653  0.2563  2.0185
  314MOL0     H42335   9.300  11.007   7.180 -0.1476 -0.2618  0.3539
  314MOL0     H42336   9.271  11.092   7.035  0.1081  3.1650  0.6485
  314MOL0     H42337   9.041  11.159   7.145 -0.4271 -0.2670  0.5342
  314MOL0     H42338   9.173  11.245   7.206 -1.2785  0.2113  0.9350
  314MOL0     H42339   9.040  11.154   7.390 -2.8530  0.2248 -0.4874
  314MOL0     H42340   9.066  10.988   7.320  2.1710  0.1416 -1.6418
  314MOL0     H42341   9.196  10.862   7.483  0.6929  0.2764  2.7381
  314MOL0     H42342   9.416  10.765   7.595 -1.6108  0.3990  1.5445
  314MOL0     H42343   9.559  10.873   7.559  0.7995 -0.8797  1.5093
  314MOL0     H42344   9.563  10.988   7.754  3.3605 -2.8579 -0.2024
  314MOL0     H42345   9.401  10.915   7.808  0.0552 -2.9934 -0.0311
  314MOL0     H42346   9.661  10.839   7.844 -0.3307 -0.4902  1.2600
  314MOL0     H42347   9.596  10.705   7.739 -3.0928  1.6566 -2.1080
  314MOL0     H42348   9.441  10.782   7.979 -1.6324  0.4236 -1.3863
  314MOL0     H42349   9.553  10.660   7.987 -0.6344  1.0332  1.8744
  314MOL0     H42350   9.485  10.511   8.108  3.6944  1.8783 -1.8997
  314MOL0     H42351   9.501  10.282   8.149  1.6133  0.5957  0.1711
  314MOL0     H42352   9.564   9.780   7.960  2.6974  0.5382  1.7113
  314MOL0     H42353   9.558   9.553   8.071  2.8059  2.6298 -2.5335
  314MOL0     H42354   9.325   9.440   8.236  2.5716 -0.3783 -2.5905
  314MOL0     H42355   9.442   9.313   8.265 -1.3924 -1.0497  0.6126
  314MOL0     H42356   9.334   9.476   8.497 -1.2433  1.1373 -4.4480
  314MOL0     H42357   9.241   9.346   8.442 -1.2593  3.4359 -0.8818
  314MOL0     H42358   9.362   9.226   8.604 -1.7381  1.3906 -2.0080
  314MOL0     H42359   9.471   9.205   8.463  3.5409  1.1762 -1.4573
  314MOL0     H42360   9.598   9.417   8.553  2.3093  0.2122  0.9688
  314MOL0     H42361   9.626   9.261   8.631  0.5388  1.5706  2.9646
  314MOL0     H42362   9.427   9.331   8.800 -1.5426  0.3334 -2.7801
  314MOL0     H42363   9.423   9.478   8.720 -2.1994 -1.6093  0.9585
  314MOL0     H42364   9.688   9.369   8.812 -1.5139 -0.4445 -2.1942
  314MOL0     H42365   9.645   9.542   8.779  0.8656 -1.3408 -3.4238
  314MOL0     H42366   9.557   9.371   9.015  0.6673  1.3521  4.8618
  314MOL0     H42367   9.498   9.536   8.972  1.3346  0.8775 -0.3994
  314MOL0     H42368   9.789   9.451   9.030 -1.5147 -1.6881  0.1935
  314MOL0     H42369   9.729   9.616   8.985 -1.7549 -0.2004  0.0908
  314MOL0     H42370   9.465   9.737   8.433  2.9668  1.3456 -0.2044
  314MOL0     H42371   9.457   9.958   8.345  3.1772  2.5514  0.0415
  314MOL0     H42372   9.350  10.177   7.755 -0.0476 -2.7416  1.4292
  314MOL0     H42373   9.329  10.429   7.710  2.4439 -0.2466 -2.4370
  314MOL0     H42374   9.368  10.146   6.856  1.3822  0.4177 -1.3494
  314MOL0     H42375   9.510   9.970   6.862 -0.8331 -1.2505  0.9685
  314MOL0     H42376   9.694   9.629   6.810 -1.5082 -1.9128  0.6774
  314MOL0     H42377   9.857   9.463   6.765  0.2398  1.1017 -0.8803
  314MOL0     H42378  10.044   9.411   6.669 -1.5890 -0.0886 -0.1139
  314MOL0     H42379  10.027   9.286   6.797 -0.2197  0.5803  0.3047
  314MOL0     H42380  10.277   9.362   6.652 -2.3875  2.2369 -1.9176
  314MOL0     H42381  10.171   9.218   6.634  0.0768  0.0702  0.4867
  314MOL0     H42382  10.339   9.134   6.770 -0.4691 -0.1628  0.5739
  314MOL0     H42383  10.198   9.171   6.869  1.3732 -1.7937 -0.2440
  314MOL0     H42384  10.321   9.361   6.967  2.5932 -0.0778  1.8812
  314MOL0     H42385  10.439   9.228   6.949 -0.1348  0.2129  0.5466
  314MOL0     H42386  10.586   9.518   6.684 -2.9625 -0.3668 -0.9545
  314MOL0     H42387  10.132   9.658   7.021 -0.5749  1.7889 -0.3055
  314MOL0     H42388   9.991   9.911   7.122 -3.1710  1.6640 -0.8255
  314MOL0     H42389   9.865   9.836   7.209 -0.6659  2.0711 -0.9797
  314MOL0     H42390  10.041   9.768   7.206 -1.9783 -1.6745  0.9608
  315MOL0     O42391   6.546   0.096   7.777  0.3396  0.7505  0.3382
  315MOL0     C42392   6.557   0.092   7.656  0.1626  0.1570 -0.3248
  315MOL0     O42393   6.570  -0.029   7.582 -0.2827  0.6541  0.0021
  315MOL0     C42394   6.497  -0.143   7.615 -0.4306 -0.2267 -0.1671
  315MOL0     C42395   6.416  -0.162   7.737 -0.2128 -0.4100  0.2086
  315MOL0     C42396   6.333  -0.279   7.748  0.1411  0.2704 -0.1713
  315MOL0     C42397   6.320  -0.368   7.641 -0.4463 -0.1962  0.1110
  315MOL0     O42398   6.250  -0.483   7.655  0.4817  0.4900 -0.4218
  315MOL0     C42399   6.251  -0.588   7.561  0.0490 -0.7926  0.9171
  315MOL0     C42400   6.175  -0.715   7.606 -0.2361 -0.1653  1.1991
  315MOL0     C42401   6.028  -0.672   7.627 -0.2968  0.6064 -0.4654
  315MOL0     C42402   5.951  -0.612   7.512  0.4068  0.5400 -0.1169
  315MOL0     C42403   5.813  -0.560   7.556  1.5798 -0.6016 -0.1695
  315MOL0     C42404   5.725  -0.663   7.613  0.4785  0.4789  0.4599
  315MOL0     C42405   5.580  -0.629   7.592  0.0029 -0.0682  1.0071
  315MOL0     C42406   5.530  -0.596   7.455 -1.0418 -0.4775  0.6036
  315MOL0     N42407   5.382  -0.577   7.456  0.8450  0.6832  0.3204
  315MOL0     C42408   5.297  -0.491   7.525  0.2722 -0.2206 -0.3836
  315MOL0     C42409   5.179  -0.508   7.472 -0.2553 -0.0224  0.7472
  315MOL0     C42410   5.054  -0.420   7.497 -0.6782  0.5118 -0.4368
  315MOL0     C42411   5.019  -0.383   7.639  0.1453 -0.1232 -0.2549
  315MOL0     C42412   4.981  -0.516   7.718 -0.4762 -0.0767 -0.1021
  315MOL0     C42413   4.922  -0.476   7.854  0.4354  0.5179 -0.9769
  315MOL0     O42414   4.832  -0.584   7.896  0.3211  0.3444 -0.6032
  315MOL0     C42415   4.731  -0.561   7.992  0.5186 -0.9486  0.4671
  315MOL0     C42416   4.609  -0.631   7.990  0.7564 -0.3003  0.6144
  315MOL0     C42417   4.509  -0.612   8.096  0.3751  0.0311  0.0423
  315MOL0     C42418   4.540  -0.531   8.202 -0.0064 -0.1240 -0.0943
  315MOL0     C42419   4.450  -0.521   8.322  0.5859  0.5592 -0.2205
  315MOL0     O42420   4.471  -0.416   8.417 -0.5234  0.6002 -0.4675
  315MOL0     C42421   4.383  -0.392   8.520  0.1625  0.4667 -0.2114
  315MOL0     C42422   4.430  -0.327   8.632 -0.2069  0.1900 -0.4111
  315MOL0     C42423   4.366  -0.287   8.746  0.2618  0.7039  0.1860
  315MOL0     C42424   4.234  -0.330   8.754  0.0291 -0.4643  0.7155
  315MOL0     O42425   4.175  -0.295   8.872 -0.2850 -1.2072 -0.2149
  315MOL0     C42426   4.039  -0.338   8.905 -0.4443  0.5599 -0.2652
  315MOL0     C42427   3.986  -0.238   9.013 -1.2836  0.0419 -0.7635
  315MOL0     C42428   4.062  -0.264   9.139 -0.4197 -0.3037 -0.6820
  315MOL0     C42429   3.999  -0.176   9.245 -0.8908 -0.1341  0.5837
  315MOL0     C42430   4.047  -0.037   9.240 -0.9124  0.4452 -0.1064
  315MOL0     C42431   3.932   0.045   9.302  0.1838  0.8707 -0.6551
  315MOL0     C42432   3.876  -0.011   9.438 -0.2620 -0.5449  0.8092
  315MOL0     C42433   3.822   0.103   9.516 -0.0153  0.4321  0.7243
  315MOL0    Cl42434   3.954   0.177   9.599 -0.1032  0.3734 -0.1398
  315MOL0     C42435   4.167  -0.397   8.642  0.3701 -0.0923  0.8445
  315MOL0     C42436   4.244  -0.417   8.526 -1.0799  0.2872 -0.0299
  315MOL0     O42437   4.360  -0.612   8.337 -0.1332 -0.5700 -0.5686
  315MOL0     C42438   4.661  -0.459   8.196  0.3038  0.1794 -1.3407
  315MOL0     C42439   4.755  -0.465   8.094 -0.1005 -0.0640  0.0900
  315MOL0     N42440   5.187  -0.596   7.369  1.0829  0.2286 -0.2239
  315MOL0     N42441   5.308  -0.629   7.354  0.0097  0.2312  0.2130
  315MOL0     C42442   6.393  -0.335   7.522 -0.7689  0.1840  0.3947
  315MOL0     C42443   6.482  -0.226   7.504  0.7418  0.5323 -1.5937
  315MOL0     C42444   6.608   0.211   7.583 -0.0556  1.2940 -0.5557
  315MOL0     C42445   6.682   0.180   7.462  0.7202 -0.2212 -0.4397
  315MOL0     C42446   6.734   0.284   7.389 -0.3284 -0.8246  0.5076
  315MOL0     C42447   6.699   0.414   7.412  0.6347 -0.4749  1.7858
  315MOL0     O42448   6.735   0.527   7.339 -0.2282  0.4504  0.6744
  315MOL0     C42449   6.744   0.521   7.200  0.1991 -0.0431  0.1114
  315MOL0     C42450   6.895   0.505   7.156 -0.3712 -0.8317 -0.1718
  315MOL0     C42451   6.983   0.630   7.169  0.7818 -0.9898 -0.7671
  315MOL0     C42452   7.025   0.690   7.038  0.3407  0.1015 -0.1273
  315MOL0     C42453   7.108   0.801   7.087 -0.4025 -0.2894  0.6190
  315MOL0     C42454   7.174   0.892   7.117 -0.2549 -0.1356 -0.2519
  315MOL0     C42455   6.604   0.438   7.511 -0.7179 -0.2526 -0.8991
  315MOL0     C42456   6.577   0.342   7.608  0.1291  1.0764 -0.0263
  315MOL0     C42457   6.483   0.391   7.721 -1.1063  1.4119  0.8268
  315MOL0     H42458   6.417  -0.100   7.826 -2.2391 -1.1461  0.7905
  315MOL0     H42459   6.270  -0.298   7.835 -2.2723 -2.1601 -2.2200
  315MOL0     H42460   6.199  -0.544   7.475 -0.8240  0.5727  2.1007
  315MOL0     H42461   6.352  -0.620   7.535  1.1953  2.9153  0.2979
  315MOL0     H42462   6.212  -0.745   7.704 -1.0078  1.8367  2.1472
  315MOL0     H42463   6.188  -0.788   7.525  0.2943  1.9595 -0.7297
  315MOL0     H42464   6.038  -0.598   7.708  2.7300 -2.2821  2.1224
  315MOL0     H42465   5.979  -0.760   7.670  0.9519  0.2743  0.3440
  315MOL0     H42466   6.005  -0.523   7.479  2.7821 -1.5197 -2.2857
  315MOL0     H42467   5.959  -0.692   7.437  3.0098 -1.5727  2.1756
  315MOL0     H42468   5.831  -0.490   7.638 -0.7431  1.1519 -1.0529
  315MOL0     H42469   5.764  -0.498   7.481 -0.6180 -3.8400 -1.6466
  315MOL0     H42470   5.730  -0.753   7.552 -1.2790  0.4809  0.2460
  315MOL0     H42471   5.738  -0.686   7.719 -2.8966 -0.8224  0.7038
  315MOL0     H42472   5.550  -0.547   7.658  1.2369  0.3069  1.1206
  315MOL0     H42473   5.528  -0.719   7.629  0.5354 -0.3578  1.0686
  315MOL0     H42474   5.571  -0.502   7.417 -1.0468  0.8695  3.6857
  315MOL0     H42475   5.560  -0.672   7.382 -1.9745  2.6578 -3.4087
  315MOL0     H42476   5.314  -0.428   7.612 -2.3289  1.6110 -1.0937
  315MOL0     H42477   5.070  -0.325   7.444 -1.3625  0.9014  0.0503
  315MOL0     H42478   4.963  -0.470   7.463 -0.0689 -1.7283  0.9904
  315MOL0     H42479   5.103  -0.332   7.688 -1.5439  0.5741  2.0808
  315MOL0     H42480   4.929  -0.322   7.629  0.0821  0.0145  0.9526
  315MOL0     H42481   5.072  -0.577   7.727  1.1256  2.2967  0.8767
  315MOL0     H42482   4.911  -0.580   7.665  0.3821 -0.1149 -1.2189
  315MOL0     H42483   4.869  -0.380   7.844  2.5511  1.9256  0.4676
  315MOL0     H42484   5.007  -0.468   7.922 -0.0698 -1.9922  0.0545
  315MOL0     H42485   4.610  -0.720   7.928 -3.1316  0.5046 -0.9055
  315MOL0     H42486   4.430  -0.687   8.099 -0.1206  0.5388  3.5838
  315MOL0     H42487   4.536  -0.304   8.630  0.4157 -2.3828 -1.4933
  315MOL0     H42488   4.411  -0.231   8.827  1.5190  1.9540 -1.3126
  315MOL0     H42489   3.976  -0.318   8.817 -2.4299 -0.1025  0.9443
  315MOL0     H42490   4.040  -0.441   8.941 -0.9003  0.1665 -1.3151
  315MOL0     H42491   4.004  -0.135   8.982  1.3122  0.0591  0.4993
  315MOL0     H42492   3.880  -0.257   9.031 -1.3030  1.9361  1.4564
  315MOL0     H42493   4.046  -0.365   9.178 -1.2874  0.4228  0.9380
  315MOL0     H42494   4.170  -0.249   9.126 -0.6289  2.5460  0.1389
  315MOL0     H42495   4.020  -0.224   9.341 -0.0220 -0.9897 -0.0131
  315MOL0     H42496   3.891  -0.182   9.228 -0.7115 -1.6644 -0.2580
  315MOL0     H42497   4.084  -0.010   9.141 -1.0764 -1.0098 -0.5925
  315MOL0     H42498   4.141  -0.030   9.296 -1.2024  0.1494  0.4325
  315MOL0     H42499   3.986   0.139   9.316  2.6615 -0.8132  2.5692
  315MOL0     H42500   3.847   0.045   9.234 -1.9324 -0.3481  1.7959
  315MOL0     H42501   3.950  -0.071   9.492  1.2735 -1.0945 -1.7362
  315MOL0     H42502   3.797  -0.081   9.412  0.3778  0.6113 -5.9159
  315MOL0     H42503   3.774   0.178   9.453  2.3746  1.2066 -0.2901
  315MOL0     H42504   3.765   0.060   9.599 -0.4324 -1.0548 -0.2831
  315MOL0     H42505   4.064  -0.432   8.637  1.4891 -3.6443 -2.3165
  315MOL0     H42506   4.208  -0.463   8.434 -3.3511 -0.7963  1.3409
  315MOL0     H42507   4.672  -0.395   8.283  1.2961 -2.6334  0.7791
  315MOL0     H42508   4.849  -0.412   8.101 -0.0739 -0.1820  0.6765
  315MOL0     H42509   6.413  -0.414   7.451  0.6115 -2.0607  3.1058
  315MOL0     H42510   6.537  -0.202   7.414  2.0716  0.0298 -0.9413
  315MOL0     H42511   6.724   0.083   7.440  2.6670  0.4671  0.0529
  315MOL0     H42512   6.811   0.266   7.315 -1.2949 -1.0040 -0.4810
  315MOL0     H42513   6.711   0.615   7.155  0.7313  0.1780  0.1720
  315MOL0     H42514   6.692   0.440   7.149  2.9866 -0.5444 -2.2354
  315MOL0     H42515   6.893   0.468   7.053 -2.5157 -0.1885 -0.4045
  315MOL0     H42516   6.946   0.436   7.224  0.6321 -1.5232 -1.5705
  315MOL0     H42517   7.074   0.610   7.226  2.1136  0.7240 -2.1839
  315MOL0     H42518   6.917   0.691   7.231 -2.3712 -4.2096 -0.6370
  315MOL0     H42519   7.076   0.619   6.971  1.5685  0.4159  0.4375
  315MOL0     H42520   6.941   0.743   6.992  0.4498  1.6104  1.2941
  315MOL0     H42521   7.239   0.972   7.146 -2.0858  1.5416 -0.5990
  315MOL0     H42522   6.573   0.542   7.515  3.3176  1.0890  0.0516
  315MOL0     H42523   6.454   0.494   7.695 -1.0959  0.7027 -2.3498
  315MOL0     H42524   6.399   0.322   7.718  0.6306 -0.7944  0.0366
  315MOL0     H42525   6.527   0.390   7.822  5.8090  0.0868 -1.6314
  316MOL0     O42526   2.233   8.546   6.677 -0.0876 -0.2125 -0.2334
  316MOL0     C42527   2.348   8.540   6.725  0.4639  0.1212 -0.3388
  316MOL0     O42528   2.449   8.461   6.669 -0.1620  1.2009 -0.6555
  316MOL0     C42529   2.391   8.370   6.581  0.1915  0.2747 -0.5051
  316MOL0     C42530   2.329   8.255   6.632 -0.6404 -0.1953 -0.6515
  316MOL0     C42531   2.271   8.166   6.546 -0.1966  0.2291 -0.2263
  316MOL0     C42532   2.270   8.185   6.402 -0.3366  0.0715 -0.9000
  316MOL0     O42533   2.212   8.109   6.306  0.2210 -0.1410  0.7064
  316MOL0     C42534   2.182   7.975   6.344 -0.0751 -0.0369  0.6206
  316MOL0     C42535   2.190   7.905   6.204  0.4576 -0.1037 -0.8081
  316MOL0     C42536   2.167   7.756   6.234  0.3668  0.3930  0.3942
  316MOL0     C42537   2.126   7.674   6.114  0.2719  0.3182  0.9144
  316MOL0     C42538   2.084   7.537   6.154  0.2782  0.2836  0.1941
  316MOL0     C42539   2.001   7.471   6.037 -0.4767 -0.3844  0.7093
  316MOL0     C42540   2.074   7.396   5.922 -0.3133  0.2210 -0.1264
  316MOL0     C42541   2.150   7.270   5.970  0.1788 -0.3646  0.0153
  316MOL0     N42542   2.063   7.172   6.042  0.4302 -0.5237 -0.1778
  316MOL0     C42543   2.085   7.126   6.170 -0.3056 -0.0076  0.5930
  316MOL0     C42544   2.019   7.002   6.178  0.1647  0.2490  0.6003
  316MOL0     C42545   2.022   6.926   6.300 -0.7002 -0.7416  0.3113
  316MOL0     C42546   2.060   6.782   6.271  0.1849 -0.2718 -1.2183
  316MOL0     C42547   2.053   6.702   6.399  0.0587 -0.7714 -0.1685
  316MOL0     C42548   2.120   6.556   6.390  0.1937  0.1183  0.7816
  316MOL0     O42549   2.027   6.464   6.322 -0.2287 -0.1319 -0.7900
  316MOL0     C42550   2.053   6.323   6.325 -0.6561  0.0489 -0.8241
  316MOL0     C42551   1.977   6.247   6.247  0.4679  0.8531  0.1935
  316MOL0     C42552   2.004   6.113   6.240  0.2401 -0.1388  0.7939
  316MOL0     C42553   2.110   6.049   6.315  0.2631 -0.5695 -0.5723
  316MOL0     C42554   2.135   5.907   6.324  0.2008 -0.9123 -1.3044
  316MOL0     O42555   2.143   5.854   6.454 -0.5927 -0.7241 -0.5077
  316MOL0     C42556   2.176   5.723   6.460 -1.1292  0.9507 -0.2292
  316MOL0     C42557   2.086   5.618   6.433  0.4587 -0.0543 -0.6016
  316MOL0     C42558   2.138   5.493   6.420 -0.1431  0.3429 -0.8695
  316MOL0     C42559   2.279   5.463   6.436 -0.0582 -0.8221  0.8453
  316MOL0     O42560   2.343   5.341   6.443 -0.7453 -0.4198  0.0746
  316MOL0     C42561   2.314   5.232   6.366 -0.5642 -0.0499 -0.4433
  316MOL0     C42562   2.394   5.231   6.237  0.2163  0.6046  0.4288
  316MOL0     C42563   2.349   5.127   6.136  0.0964 -0.4929  0.1902
  316MOL0     C42564   2.395   5.163   5.991 -0.4971 -0.0521 -0.1309
  316MOL0     C42565   2.388   5.046   5.895  0.2224  0.3624  0.0802
  316MOL0     C42566   2.516   4.955   5.918 -0.8454 -0.1694 -0.2955
  316MOL0     C42567   2.508   4.827   5.835  0.0404  0.5099  0.4317
  316MOL0     C42568   2.498   4.852   5.697 -0.9667  0.8873  1.0246
  316MOL0    Cl42569   2.646   4.929   5.642 -0.0663  0.0372  0.2642
  316MOL0     C42570   2.361   5.569   6.466  0.1619 -0.5554  0.6756
  316MOL0     C42571   2.312   5.700   6.472 -0.0223  0.5535 -0.1617
  316MOL0     O42572   2.131   5.841   6.225 -0.1465 -0.0586 -0.5081
  316MOL0     C42573   2.189   6.129   6.388  0.4899  0.1945 -0.0591
  316MOL0     C42574   2.154   6.265   6.403  0.0459 -1.0010 -0.3439
  316MOL0     N42575   1.946   6.990   6.058 -0.3185  0.0701 -0.0562
  316MOL0     N42576   1.981   7.089   5.976  0.6690 -0.2134 -0.1434
  316MOL0     C42577   2.340   8.299   6.358  0.1826 -0.2937  0.2185
  316MOL0     C42578   2.401   8.387   6.439 -0.1463 -0.5533 -1.1454
  316MOL0     C42579   2.388   8.612   6.846 -0.5868 -0.5417 -0.2498
  316MOL0     C42580   2.518   8.657   6.856 -0.2616  0.3171 -0.1778
  316MOL0     C42581   2.550   8.755   6.954  1.0147  0.9709 -0.0199
  316MOL0     C42582   2.456   8.800   7.047  0.2050 -0.1050 -0.7889
  316MOL0     O42583   2.490   8.901   7.144  0.7685 -0.8509  0.0123
  316MOL0     C42584   2.393   8.955   7.232 -0.4530  0.0432 -0.0953
  316MOL0     C42585   2.456   9.053   7.328 -1.1139 -0.3394 -0.1693
  316MOL0     C42586   2.544   9.155   7.262 -0.2851 -0.7038  0.7959
  316MOL0     C42587   2.604   9.251   7.363  0.5561  0.1027  0.6366
  316MOL0     C42588   2.509   9.365   7.384 -0.3137 -0.4243  0.5709
  316MOL0     C42589   2.438   9.454   7.424  0.3242 -0.2184  0.3300
  316MOL0     C42590   2.323   8.747   7.033  0.5351  0.3760 -0.6281
  316MOL0     C42591   2.278   8.660   6.935  0.0168 -0.7636 -1.7327
  316MOL0     C42592   2.131   8.611   6.921  0.5513 -1.0882 -0.1796
  316MOL0     H42593   2.289   8.232   6.730 -2.5955  0.8516 -1.1433
  316MOL0     H42594   2.205   8.089   6.583  1.1290 -1.6320 -1.5379
  316MOL0     H42595   2.256   7.924   6.406 -0.9535 -0.9781  0.9234
  316MOL0     H42596   2.086   7.986   6.394  1.1227  1.2936  2.7681
  316MOL0     H42597   2.286   7.922   6.153  0.6862 -2.3468 -1.2294
  316MOL0     H42598   2.118   7.948   6.133  1.7977  4.3305  0.1951
  316MOL0     H42599   2.086   7.744   6.307  1.7512 -3.3047  1.5133
  316MOL0     H42600   2.254   7.711   6.282  0.9942  1.8151  0.6624
  316MOL0     H42601   2.035   7.724   6.077  0.7852  1.2897  0.9323
  316MOL0     H42602   2.203   7.673   6.036 -0.2036  4.6619  0.1321
  316MOL0     H42603   2.173   7.475   6.166 -0.6429 -1.6994 -2.4189
  316MOL0     H42604   2.029   7.541   6.248 -1.4180 -0.3513 -0.7344
  316MOL0     H42605   1.946   7.386   6.080 -0.7729  0.8339  2.8444
  316MOL0     H42606   1.935   7.544   5.988 -0.7290 -0.7303  0.5237
  316MOL0     H42607   2.138   7.467   5.869  0.1410 -0.3111 -0.3082
  316MOL0     H42608   2.007   7.368   5.840  2.9720  3.9048 -4.6397
  316MOL0     H42609   2.200   7.236   5.879  2.4080  0.9802  0.6547
  316MOL0     H42610   2.229   7.299   6.040 -0.0955  0.5662 -0.0430
  316MOL0     H42611   2.122   7.186   6.253 -1.8740 -0.4444  1.6411
  316MOL0     H42612   2.081   6.976   6.378 -1.5216  3.5605 -1.5585
  316MOL0     H42613   1.919   6.929   6.335 -0.1809  0.4781  1.8845
  316MOL0     H42614   1.990   6.741   6.197 -0.5844 -1.6045  0.1959
  316MOL0     H42615   2.164   6.778   6.237  0.3690  1.2341 -0.9138
  316MOL0     H42616   1.947   6.681   6.417 -0.8342  1.2954 -2.4111
  316MOL0     H42617   2.097   6.764   6.477  0.1065 -0.0949 -0.7274
  316MOL0     H42618   2.142   6.509   6.487 -0.0581 -0.7284  0.4330
  316MOL0     H42619   2.204   6.556   6.320 -1.8058 -5.4187 -2.2340
  316MOL0     H42620   1.897   6.291   6.189  0.6379 -0.4663 -1.1041
  316MOL0     H42621   1.939   6.059   6.173  0.8502  0.2802 -0.1535
  316MOL0     H42622   1.980   5.637   6.415  0.8450  2.7357 -0.4212
  316MOL0     H42623   2.071   5.409   6.403  0.2077  0.0339 -0.7473
  316MOL0     H42624   2.352   5.151   6.429 -0.5821 -0.4811 -0.9840
  316MOL0     H42625   2.207   5.214   6.354 -0.4587 -0.7736 -0.3595
  316MOL0     H42626   2.390   5.335   6.206 -1.2416  1.0721  2.0393
  316MOL0     H42627   2.499   5.206   6.257  1.2420  1.8133 -2.8818
  316MOL0     H42628   2.383   5.027   6.162  0.9341  0.5392  3.4713
  316MOL0     H42629   2.239   5.124   6.131 -0.0324 -0.0110  2.1895
  316MOL0     H42630   2.495   5.206   5.993  0.3239 -1.8253 -1.0367
  316MOL0     H42631   2.320   5.231   5.950  0.0586 -0.3163 -1.6277
  316MOL0     H42632   2.391   5.093   5.797  4.7011 -2.8570 -1.6761
  316MOL0     H42633   2.298   4.984   5.897 -0.2912  0.8533 -3.1642
  316MOL0     H42634   2.602   5.017   5.893 -0.6803  0.0536  0.8068
  316MOL0     H42635   2.523   4.918   6.020 -0.0754 -0.6676 -0.5203
  316MOL0     H42636   2.418   4.777   5.872  0.5299 -0.6162  0.1631
  316MOL0     H42637   2.604   4.778   5.854 -0.8607 -1.9004 -0.8313
  316MOL0     H42638   2.492   4.760   5.638  0.1428  1.6237 -0.2911
  316MOL0     H42639   2.420   4.927   5.682 -1.6146  0.6316  2.9115
  316MOL0     H42640   2.468   5.555   6.477  1.0675  4.9190  1.3436
  316MOL0     H42641   2.380   5.785   6.481 -0.6690  0.9719  1.0958
  316MOL0     H42642   2.279   6.097   6.440  1.7934  2.8497 -0.5186
  316MOL0     H42643   2.220   6.314   6.475 -0.7421  0.4437 -0.5651
  316MOL0     H42644   2.353   8.308   6.251 -0.7245  0.0826  0.1253
  316MOL0     H42645   2.460   8.470   6.401  1.2071 -1.9090 -2.1209
  316MOL0     H42646   2.588   8.632   6.777 -1.7626  1.5174 -1.9779
  316MOL0     H42647   2.655   8.781   6.953  0.9017  1.6131  1.6256
  316MOL0     H42648   2.342   8.882   7.296 -1.8377 -0.5575 -1.7843
  316MOL0     H42649   2.316   9.011   7.178 -0.5319 -1.1104 -1.2486
  316MOL0     H42650   2.503   8.998   7.410 -0.2896  0.0313 -0.3827
  316MOL0     H42651   2.378   9.114   7.375  0.8803  3.3050 -1.1461
  316MOL0     H42652   2.500   9.205   7.175 -0.2536 -0.2162  1.0588
  316MOL0     H42653   2.628   9.101   7.216  0.1208 -0.6657  1.4759
  316MOL0     H42654   2.632   9.208   7.460  1.1044  0.9832  0.8798
  316MOL0     H42655   2.698   9.290   7.323  0.6406  1.2068  1.8479
  316MOL0     H42656   2.369   9.523   7.469  0.2000 -1.1492  1.6180
  316MOL0     H42657   2.246   8.780   7.102  3.6662  0.9127  2.8925
  316MOL0     H42658   2.118   8.506   6.891  0.4217 -2.3335  3.7137
  316MOL0     H42659   2.079   8.635   7.014 -0.8144 -0.4258 -1.0759
  316MOL0     H42660   2.086   8.674   6.844 -0.9305 -1.6967  0.1517
  317MOL0     O42661   9.180   5.357   8.087 -0.1057  0.4766 -0.3353
  317MOL0     C42662   9.277   5.430   8.088 -0.2614  0.5739  0.0728
  317MOL0     O42663   9.393   5.413   8.022 -0.7402  0.7133 -0.2318
  317MOL0     C42664   9.406   5.294   7.953 -0.4504 -0.5497 -0.1542
  317MOL0     C42665   9.338   5.271   7.836  1.2340  1.1924  0.5283
  317MOL0     C42666   9.362   5.152   7.761 -0.2536  0.8981 -0.3920
  317MOL0     C42667   9.460   5.057   7.801 -0.5966  1.3819 -0.2248
  317MOL0     O42668   9.503   4.951   7.730  0.2896 -0.1783  0.1707
  317MOL0     C42669   9.452   4.941   7.600  0.4738  1.2342  0.0694
  317MOL0     C42670   9.528   4.825   7.543 -0.8680  0.7227 -0.1604
  317MOL0     C42671   9.463   4.688   7.577  0.4358  0.4266  0.2729
  317MOL0     C42672   9.346   4.652   7.488 -0.2999 -0.0132  0.5443
  317MOL0     C42673   9.302   4.510   7.509  0.5974  0.4585 -0.0122
  317MOL0     C42674   9.174   4.483   7.414 -0.3494  0.7827  0.4372
  317MOL0     C42675   9.105   4.346   7.434 -0.2448 -0.3748  0.4133
  317MOL0     C42676   8.967   4.330   7.369  0.0093 -0.2492 -0.1665
  317MOL0     N42677   8.969   4.350   7.226 -0.2215 -0.9577 -0.2024
  317MOL0     C42678   8.940   4.469   7.158 -0.2576 -0.3498 -0.4292
  317MOL0     C42679   8.976   4.438   7.031 -0.6786  0.3905 -0.1051
  317MOL0     C42680   8.970   4.533   6.907 -0.5472  0.4794  0.5342
  317MOL0     C42681   8.914   4.486   6.775 -0.2424 -0.2220  0.8966
  317MOL0     C42682   9.008   4.403   6.682 -0.3015  0.5696 -0.1946
  317MOL0     C42683   9.154   4.445   6.658 -0.6007  1.2520 -0.1036
  317MOL0     O42684   9.150   4.580   6.613 -0.3674 -0.7259  0.0083
  317MOL0     C42685   9.253   4.641   6.560  0.3514 -0.7483 -0.0430
  317MOL0     C42686   9.228   4.778   6.528  0.7201  0.3565 -0.4612
  317MOL0     C42687   9.330   4.868   6.484  0.3863  0.5424 -0.0544
  317MOL0     C42688   9.462   4.818   6.473 -0.9772  0.4819  0.0144
  317MOL0     C42689   9.580   4.896   6.425 -0.0676  0.5108  1.4037
  317MOL0     O42690   9.684   4.838   6.369 -0.8473  0.1528 -0.3146
  317MOL0     C42691   9.805   4.904   6.375 -1.0453  0.5999 -0.0254
  317MOL0     C42692   9.884   4.889   6.261 -0.4239 -0.6649 -0.1005
  317MOL0     C42693  10.003   4.958   6.262  0.5593  0.6064  0.2941
  317MOL0     C42694  10.046   5.041   6.366 -0.1488  0.5475  0.7263
  317MOL0     O42695  10.159   5.126   6.376  0.5296 -0.4416 -0.6612
  317MOL0     C42696  10.289   5.083   6.330 -0.2665  0.4336  0.0283
  317MOL0     C42697  10.371   5.199   6.263  0.7394  0.2605  0.8620
  317MOL0     C42698  10.496   5.162   6.191  0.1209  0.0576  0.2665
  317MOL0     C42699  10.466   5.091   6.054  0.0962  0.6718 -0.3843
  317MOL0     C42700  10.588   5.044   5.968 -0.5888 -0.5016 -1.1905
  317MOL0     C42701  10.547   4.946   5.847 -0.6796  1.2381 -0.9296
  317MOL0     C42702  10.480   5.031   5.738 -0.1938 -0.2340 -0.4642
  317MOL0     C42703  10.568   5.156   5.691  0.1242 -1.0802  0.9954
  317MOL0    Cl42704  10.498   5.212   5.542  0.2122  0.0584  0.0735
  317MOL0     C42705   9.970   5.037   6.482 -0.8849  1.3586 -0.7005
  317MOL0     C42706   9.852   4.968   6.487  0.4568 -0.6689  0.1131
  317MOL0     O42707   9.573   5.007   6.465  0.2688 -0.3395 -0.2042
  317MOL0     C42708   9.485   4.676   6.496  0.9557  0.3501  0.4924
  317MOL0     C42709   9.381   4.593   6.546  0.4378 -0.2889 -1.0415
  317MOL0     N42710   9.019   4.307   7.028  0.2333 -0.4636 -0.0222
  317MOL0     N42711   9.021   4.257   7.141 -0.6875  0.1570 -0.0884
  317MOL0     C42712   9.538   5.086   7.916  0.5326  0.2735 -0.1112
  317MOL0     C42713   9.501   5.200   7.990 -0.0303 -0.5603  0.1809
  317MOL0     C42714   9.268   5.557   8.171 -0.1799 -0.7514 -0.6972
  317MOL0     C42715   9.278   5.683   8.107  0.6315  0.4911  0.7370
  317MOL0     C42716   9.283   5.799   8.180 -0.9836 -0.4519 -0.0741
  317MOL0     C42717   9.279   5.797   8.313  0.7189 -0.2600  0.6972
  317MOL0     O42718   9.259   5.927   8.371  0.0683 -0.1593 -0.0591
  317MOL0     C42719   9.279   5.922   8.512 -0.3520 -0.9774  0.8627
  317MOL0     C42720   9.315   6.059   8.574 -1.1085 -0.1233 -0.4278
  317MOL0     C42721   9.217   6.169   8.541  0.1909  0.3386 -0.0453
  317MOL0     C42722   9.217   6.284   8.640  0.4423 -0.6354  0.2089
  317MOL0     C42723   9.343   6.353   8.624  1.2196 -1.0702  0.3127
  317MOL0     C42724   9.445   6.420   8.625  0.8031 -0.0866  0.0037
  317MOL0     C42725   9.274   5.673   8.381  0.0638  0.0609 -0.0568
  317MOL0     C42726   9.269   5.549   8.314 -0.5832 -0.1296 -0.2005
  317MOL0     C42727   9.272   5.418   8.403 -0.3391  0.1266 -0.1211
  317MOL0     H42728   9.260   5.338   7.803  1.8849  0.8287 -1.9299
  317MOL0     H42729   9.303   5.146   7.670 -5.0319 -1.4581  2.5310
  317MOL0     H42730   9.343   4.932   7.592  0.5656 -0.3250  0.1398
  317MOL0     H42731   9.486   5.040   7.569 -0.7612  3.3004  4.5027
  317MOL0     H42732   9.634   4.821   7.568 -0.3454 -2.2638 -2.3190
  317MOL0     H42733   9.529   4.839   7.434  1.4860  0.8324 -0.1671
  317MOL0     H42734   9.444   4.694   7.684 -3.4699  1.5621 -0.3249
  317MOL0     H42735   9.541   4.611   7.569 -0.7650 -0.7139 -0.8550
  317MOL0     H42736   9.268   4.725   7.512  0.8819  1.3772  0.2931
  317MOL0     H42737   9.368   4.673   7.383  0.2271  0.4292  0.7369
  317MOL0     H42738   9.382   4.447   7.469  0.8470 -1.0097  2.5731
  317MOL0     H42739   9.280   4.474   7.610  0.1629  0.4981 -0.0882
  317MOL0     H42740   9.100   4.563   7.419 -0.7186  0.8272 -3.1018
  317MOL0     H42741   9.212   4.492   7.312  2.6312  1.2778  1.4971
  317MOL0     H42742   9.093   4.320   7.540 -0.6862 -0.7925  0.2646
  317MOL0     H42743   9.167   4.265   7.394 -1.0333  0.4973 -2.8203
  317MOL0     H42744   8.943   4.226   7.395 -4.9213  0.9191  0.9382
  317MOL0     H42745   8.887   4.385   7.419 -2.0481 -1.3755 -2.0469
  317MOL0     H42746   8.899   4.557   7.207  2.8370  0.9653  0.0823
  317MOL0     H42747   8.906   4.620   6.927 -3.3939 -1.6380  1.2145
  317MOL0     H42748   9.073   4.564   6.884 -0.9475 -1.6566 -5.8833
  317MOL0     H42749   8.819   4.437   6.795  0.3392 -1.5735  0.4767
  317MOL0     H42750   8.887   4.570   6.709 -0.9879  0.3547  1.9132
  317MOL0     H42751   8.957   4.412   6.586  2.5936  1.2490 -1.7868
  317MOL0     H42752   9.014   4.297   6.706 -0.0571  0.6263  0.0027
  317MOL0     H42753   9.197   4.376   6.586 -0.3364  3.2569 -1.9798
  317MOL0     H42754   9.217   4.440   6.747 -0.8268 -1.1949 -0.0317
  317MOL0     H42755   9.132   4.817   6.560  1.4435  0.6072  1.5911
  317MOL0     H42756   9.310   4.974   6.473  2.7065  0.8031 -2.5644
  317MOL0     H42757   9.832   4.836   6.181  2.0902 -1.1217 -1.5376
  317MOL0     H42758  10.056   4.946   6.168 -0.5989 -0.4730 -0.2549
  317MOL0     H42759  10.339   5.035   6.415 -1.3383 -0.5707  0.1150
  317MOL0     H42760  10.272   5.007   6.254  1.7164  1.1466 -1.1936
  317MOL0     H42761  10.315   5.266   6.197  0.0219 -3.0706 -2.2118
  317MOL0     H42762  10.395   5.259   6.352  0.2797 -0.8914  1.7949
  317MOL0     H42763  10.551   5.251   6.161  0.6115 -0.0673  0.7764
  317MOL0     H42764  10.568   5.097   6.243  2.1861  2.1338  0.1792
  317MOL0     H42765  10.403   5.159   5.996 -1.8884 -1.8725 -1.4236
  317MOL0     H42766  10.393   5.010   6.056  1.4961 -0.6935 -1.7846
  317MOL0     H42767  10.666   5.006   6.035 -0.7649 -0.2951 -0.8664
  317MOL0     H42768  10.626   5.138   5.929 -3.7023  0.7868 -1.4090
  317MOL0     H42769  10.638   4.905   5.802  3.2417  4.1454  3.3791
  317MOL0     H42770  10.492   4.861   5.886  1.3383  1.7319  3.7470
  317MOL0     H42771  10.379   5.059   5.769 -0.3816  0.5847 -1.7336
  317MOL0     H42772  10.468   4.968   5.650 -1.8304  2.2458 -2.1656
  317MOL0     H42773  10.575   5.232   5.770  3.4718 -0.3857  0.1763
  317MOL0     H42774  10.674   5.130   5.687  1.2576  2.9871  0.3059
  317MOL0     H42775   9.992   5.106   6.563 -0.8227  0.8102 -0.2355
  317MOL0     H42776   9.787   4.953   6.573  1.7977 -2.1562  0.9354
  317MOL0     H42777   9.583   4.630   6.484  0.5597 -0.5176  0.5230
  317MOL0     H42778   9.403   4.493   6.584  0.4485 -0.3604 -1.2304
  317MOL0     H42779   9.604   5.007   7.953 -2.0193 -1.2152  1.5673
  317MOL0     H42780   9.557   5.211   8.083 -2.9430  0.7529  1.9259
  317MOL0     H42781   9.278   5.692   7.999 -1.7517 -1.1154  0.5488
  317MOL0     H42782   9.286   5.886   8.116 -1.4827 -0.2737  0.1404
  317MOL0     H42783   9.354   5.846   8.537  3.3833  1.6039 -1.4428
  317MOL0     H42784   9.187   5.896   8.565 -2.7170  1.2730 -1.7961
  317MOL0     H42785   9.418   6.082   8.547 -0.9497  0.2513  0.4663
  317MOL0     H42786   9.318   6.047   8.683  0.3445  2.0023 -0.1787
  317MOL0     H42787   9.112   6.141   8.526  0.1844  0.2696  0.1274
  317MOL0     H42788   9.249   6.211   8.445  2.3095  0.1251  0.5257
  317MOL0     H42789   9.130   6.350   8.634 -1.6499 -3.2760 -0.4271
  317MOL0     H42790   9.217   6.264   8.748  0.5203  1.3806  0.6155
  317MOL0     H42791   9.528   6.488   8.621  0.6646  0.1780  1.2043
  317MOL0     H42792   9.274   5.665   8.489 -0.4451  2.9154  0.2499
  317MOL0     H42793   9.169   5.405   8.439  0.9091 -3.1320  2.8301
  317MOL0     H42794   9.310   5.333   8.346 -1.1409  1.1246 -2.2354
  317MOL0     H42795   9.344   5.430   8.485  0.7224 -0.7161 -0.9069
  318MOL0     O42796   2.344   8.640   8.906 -0.4019  0.1326 -0.1295
  318MOL0     C42797   2.367   8.709   9.007  0.2973 -0.8472 -0.0229
  318MOL0     O42798   2.481   8.767   9.054 -0.6078  0.4985  0.5973
  318MOL0     C42799   2.597   8.762   8.979  0.4535  0.2941  0.0085
  318MOL0     C42800   2.645   8.670   8.879 -0.5742 -0.0748 -0.8598
  318MOL0     C42801   2.762   8.690   8.805  0.0619  1.0537 -0.2295
  318MOL0     C42802   2.846   8.796   8.835  0.4057 -0.8887 -0.8491
  318MOL0     O42803   2.958   8.832   8.768  0.1418  0.3345 -0.2341
  318MOL0     C42804   2.999   8.762   8.660  0.2425 -0.8484  0.6863
  318MOL0     C42805   2.923   8.779   8.526 -0.5522  0.1867  0.4870
  318MOL0     C42806   2.929   8.928   8.479 -0.0023  0.2860  0.4824
  318MOL0     C42807   2.799   9.007   8.526 -1.2920 -0.9117 -0.4036
  318MOL0     C42808   2.798   9.137   8.458 -0.3319 -1.3271 -0.2612
  318MOL0     C42809   2.902   9.234   8.505  0.2525  0.7088  1.2850
  318MOL0     C42810   2.936   9.351   8.414  0.6332 -0.3113  0.7730
  318MOL0     C42811   2.968   9.315   8.264  0.4800 -0.5794 -0.0880
  318MOL0     N42812   3.043   9.194   8.227  0.4891 -0.6304  0.8709
  318MOL0     C42813   3.145   9.137   8.299 -0.3978  1.0289  0.3209
  318MOL0     C42814   3.192   9.043   8.211 -0.0018  0.3104 -0.4997
  318MOL0     C42815   3.311   8.954   8.241  0.5301 -0.1553 -0.7592
  318MOL0     C42816   3.273   8.843   8.328  0.4625 -0.7078 -0.8204
  318MOL0     C42817   3.373   8.794   8.436 -0.3175 -1.1153  0.3573
  318MOL0     C42818   3.425   8.891   8.551 -0.4211 -0.3604 -0.5397
  318MOL0     O42819   3.379   8.857   8.679 -0.1137  0.4465 -0.2761
  318MOL0     C42820   3.433   8.918   8.793 -0.3757 -0.9257  0.1275
  318MOL0     C42821   3.512   9.026   8.787 -0.2970 -0.3609 -1.0015
  318MOL0     C42822   3.559   9.081   8.908  0.0837 -0.3551 -0.3622
  318MOL0     C42823   3.533   9.036   9.035  0.5793 -1.5813 -0.8555
  318MOL0     C42824   3.560   9.111   9.161  0.0281  0.2822 -0.0074
  318MOL0     O42825   3.492   9.059   9.270  0.6367  0.2974 -1.3603
  318MOL0     C42826   3.497   9.118   9.396  0.2090 -0.4454  0.5494
  318MOL0     C42827   3.380   9.127   9.473  0.3169 -0.0227 -0.0260
  318MOL0     C42828   3.387   9.176   9.612 -0.2385 -0.0890  0.4549
  318MOL0     C42829   3.513   9.221   9.664 -0.2456  0.5867  0.8682
  318MOL0     O42830   3.524   9.273   9.794 -0.1940  0.0975  0.2404
  318MOL0     C42831   3.652   9.244   9.862 -0.6529  0.6647 -0.0931
  318MOL0     C42832   3.628   9.265  10.009  0.1838  0.2437  0.0447
  318MOL0     C42833   3.750   9.246  10.098  0.6706 -0.1502 -0.3725
  318MOL0     C42834   3.849   9.367  10.082 -0.6103 -0.3425  0.0111
  318MOL0     C42835   3.955   9.370  10.196 -1.6715  0.6503  1.0687
  318MOL0     C42836   4.096   9.443  10.161 -0.2820  0.6798  0.8236
  318MOL0     C42837   4.162   9.401  10.024 -0.1671  0.0269  0.6777
  318MOL0     C42838   4.283   9.493  10.008  0.4416  0.1793 -0.7960
  318MOL0    Cl42839   4.404   9.400   9.907 -0.1193 -0.2196 -0.0708
  318MOL0     C42840   3.627   9.201   9.580 -0.5239 -0.9603 -0.2086
  318MOL0     C42841   3.619   9.148   9.451  1.2248  0.6007  0.2104
  318MOL0     O42842   3.641   9.202   9.161 -0.3570 -0.1662 -0.1740
  318MOL0     C42843   3.442   8.931   9.032  0.1725  0.4788 -0.3326
  318MOL0     C42844   3.400   8.868   8.916  0.0250  0.8127  0.4168
  318MOL0     N42845   3.117   9.051   8.094 -0.2042 -0.1771  0.6303
  318MOL0     N42846   3.026   9.135   8.107 -0.1785 -0.5500  0.1134
  318MOL0     C42847   2.816   8.881   8.944  0.9400  0.0458  0.3877
  318MOL0     C42848   2.694   8.848   9.018  0.7828 -0.6218  0.0197
  318MOL0     C42849   2.247   8.703   9.102  0.1842  0.8677  0.0129
  318MOL0     C42850   2.121   8.749   9.057  0.2212  0.3753  0.8944
  318MOL0     C42851   2.009   8.745   9.138  0.3873  0.3703 -0.1603
  318MOL0     C42852   2.013   8.687   9.263  1.0111 -0.0090 -0.2310
  318MOL0     O42853   1.895   8.676   9.330 -0.6070  0.2143  0.3724
  318MOL0     C42854   1.887   8.648   9.474 -0.0741 -0.2432  0.3717
  318MOL0     C42855   1.756   8.698   9.523  0.3597  0.3729  0.1236
  318MOL0     C42856   1.763   8.705   9.677 -0.2987  1.0885 -0.6119
  318MOL0     C42857   1.635   8.735   9.754  0.6060 -0.6743 -0.3005
  318MOL0     C42858   1.576   8.868   9.717  0.5141  0.0057  0.4830
  318MOL0     C42859   1.549   8.982   9.713  0.5109  0.5724  0.0257
  318MOL0     C42860   2.133   8.631   9.313  0.3638 -1.0413  0.0673
  318MOL0     C42861   2.251   8.637   9.233 -0.4350  0.3607 -0.1060
  318MOL0     C42862   2.387   8.586   9.296  0.5259 -0.9375  0.3663
  318MOL0     H42863   2.583   8.584   8.856  1.3708 -1.3809 -1.4485
  318MOL0     H42864   2.803   8.617   8.736  0.1965  2.2641 -1.4624
  318MOL0     H42865   3.103   8.790   8.641 -0.2231  1.3737  1.2226
  318MOL0     H42866   3.005   8.654   8.680 -0.3404 -1.0061  0.0687
  318MOL0     H42867   2.825   8.731   8.525 -0.2637 -0.4418  1.5840
  318MOL0     H42868   2.983   8.725   8.451 -1.3938  3.6230 -3.0287
  318MOL0     H42869   2.940   8.927   8.370  4.0849  4.8820  0.5109
  318MOL0     H42870   3.022   8.970   8.519  0.3778 -1.3484  1.4146
  318MOL0     H42871   2.719   8.946   8.483 -1.4924  0.3285 -1.8876
  318MOL0     H42872   2.777   9.012   8.633 -0.3734 -1.7633 -0.1623
  318MOL0     H42873   2.819   9.121   8.351  0.2873 -1.3966 -0.1334
  318MOL0     H42874   2.707   9.193   8.482  0.4299  0.0874 -0.5420
  318MOL0     H42875   2.885   9.282   8.601  0.2494  0.8202  1.2300
  318MOL0     H42876   2.997   9.179   8.508  2.2295  3.8676  2.4047
  318MOL0     H42877   3.018   9.413   8.451  0.0451  1.0068 -0.0859
  318MOL0     H42878   2.849   9.417   8.410  0.1630 -0.9933 -0.9992
  318MOL0     H42879   2.869   9.301   8.218 -1.2858  0.9457  2.9076
  318MOL0     H42880   3.021   9.402   8.224  2.2560  0.6162  4.3154
  318MOL0     H42881   3.191   9.162   8.393  2.9508  2.9799 -1.6363
  318MOL0     H42882   3.348   8.918   8.144 -1.4728  0.7649 -1.9370
  318MOL0     H42883   3.384   9.018   8.291 -0.0555 -0.2792  0.2686
  318MOL0     H42884   3.185   8.866   8.389  0.5960  1.7627 -1.4747
  318MOL0     H42885   3.250   8.753   8.269 -1.4126 -0.4940 -0.4792
  318MOL0     H42886   3.466   8.767   8.387  0.0932 -2.2593  1.6941
  318MOL0     H42887   3.331   8.705   8.484 -0.4999  0.3534  3.1304
  318MOL0     H42888   3.395   8.994   8.529 -0.7411 -0.4388 -0.4755
  318MOL0     H42889   3.534   8.886   8.559 -0.1245  1.1619 -2.5644
  318MOL0     H42890   3.541   9.078   8.696 -2.1127  1.4665 -0.6059
  318MOL0     H42891   3.637   9.153   8.884 -0.2464  0.5902  1.2558
  318MOL0     H42892   3.283   9.098   9.433  0.9643  1.0285 -2.5843
  318MOL0     H42893   3.296   9.186   9.670 -3.2275 -4.1527 -2.9452
  318MOL0     H42894   3.680   9.139   9.854 -1.6950  0.0942  2.6547
  318MOL0     H42895   3.733   9.313   9.836 -0.1635  0.1757  0.0968
  318MOL0     H42896   3.597   9.369  10.024 -0.6155 -0.0529  0.5782
  318MOL0     H42897   3.545   9.210  10.054  0.8340  0.8038  2.0302
  318MOL0     H42898   3.715   9.250  10.201  4.1305 -1.8128  1.0273
  318MOL0     H42899   3.793   9.148  10.074 -0.5930 -0.3512 -1.9532
  318MOL0     H42900   3.797   9.463  10.077  0.8327  0.4325 -0.7095
  318MOL0     H42901   3.904   9.336   9.993  0.2265  0.9407  0.0486
  318MOL0     H42902   3.981   9.268  10.225  1.3308 -0.3441 -3.8766
  318MOL0     H42903   3.916   9.426  10.281 -0.5515 -0.9300  2.6782
  318MOL0     H42904   4.077   9.550  10.157  0.8503  0.8979  1.1001
  318MOL0     H42905   4.165   9.425  10.244 -2.6019 -1.0349  2.5310
  318MOL0     H42906   4.098   9.423   9.938 -1.5997  0.3940  1.7793
  318MOL0     H42907   4.182   9.294  10.029  1.4959  0.2249 -0.8848
  318MOL0     H42908   4.277   9.591   9.960 -2.3445  0.4998  0.0313
  318MOL0     H42909   4.327   9.520  10.104  3.1099 -0.8971 -1.6188
  318MOL0     H42910   3.724   9.240   9.605 -1.3811  0.9694  0.2920
  318MOL0     H42911   3.716   9.143   9.403  1.9323  0.7080  1.5806
  318MOL0     H42912   3.398   8.895   9.125 -0.8740 -2.2702 -1.7671
  318MOL0     H42913   3.331   8.784   8.925  2.1587 -1.2510 -1.0632
  318MOL0     H42914   2.893   8.952   8.974  1.6209  0.5990 -2.3537
  318MOL0     H42915   2.663   8.890   9.113  0.2219  0.3318 -0.5757
  318MOL0     H42916   2.108   8.790   8.957  2.1620  0.2983  0.5688
  318MOL0     H42917   1.909   8.779   9.115 -0.0869 -1.7135 -1.4390
  318MOL0     H42918   1.972   8.686   9.531  0.8296 -1.0329 -0.4060
  318MOL0     H42919   1.879   8.540   9.482 -0.3279 -0.6627 -3.4744
  318MOL0     H42920   1.676   8.631   9.489 -0.1810  1.6652 -1.2416
  318MOL0     H42921   1.727   8.792   9.475 -1.9007  0.5485  1.6854
  318MOL0     H42922   1.835   8.783   9.703 -1.3625  2.4941 -1.6588
  318MOL0     H42923   1.810   8.609   9.699 -2.5789 -0.0178 -0.1805
  318MOL0     H42924   1.550   8.669   9.734 -2.5111  2.8849  0.0831
  318MOL0     H42925   1.653   8.753   9.860 -1.6817 -1.2151  0.2295
  318MOL0     H42926   1.522   9.086   9.706  0.7129  0.6830  0.7944
  318MOL0     H42927   2.139   8.584   9.411  0.1452  2.1144  1.6970
  318MOL0     H42928   2.403   8.624   9.398  2.5234 -1.3511  0.2626
  318MOL0     H42929   2.388   8.477   9.310 -1.9749 -1.0178  0.2150
  318MOL0     H42930   2.475   8.619   9.240  0.1771 -0.4290  0.1167
  319MOL0     O42931   3.002  11.042   8.195 -0.1990  0.1809  0.6451
  319MOL0     C42932   2.917  10.955   8.206  1.0175 -0.4308 -0.0567
  319MOL0     O42933   2.933  10.819   8.239  0.4632 -0.4068  0.2562
  319MOL0     C42934   3.016  10.788   8.341 -0.9936 -0.1917  0.3644
  319MOL0     C42935   3.144  10.836   8.340 -0.6485  0.0945 -0.4872
  319MOL0     C42936   3.222  10.811   8.447 -0.5506  0.2843  0.1543
  319MOL0     C42937   3.181  10.756   8.565 -0.1988  0.1692  0.2069
  319MOL0     O42938   3.260  10.730   8.677 -0.3530  0.4768  0.0764
  319MOL0     C42939   3.386  10.810   8.678  0.0918  0.4467 -0.6775
  319MOL0     C42940   3.429  10.825   8.822  0.0370 -0.7778 -1.0269
  319MOL0     C42941   3.422  10.711   8.918 -0.1052  0.1071 -0.1260
  319MOL0     C42942   3.526  10.601   8.867 -0.3609  0.1658  1.0641
  319MOL0     C42943   3.506  10.481   8.958  0.3061  0.1195  0.5316
  319MOL0     C42944   3.616  10.381   8.959  0.3176  0.0526 -0.2557
  319MOL0     C42945   3.630  10.298   8.828  0.6761 -0.5530  0.0868
  319MOL0     C42946   3.754  10.202   8.829  0.3194 -0.8907  0.7308
  319MOL0     N42947   3.761  10.115   8.722  1.1810 -0.1001  0.6666
  319MOL0     C42948   3.836  10.113   8.613 -0.3474 -0.2577 -0.3267
  319MOL0     C42949   3.833   9.995   8.545  0.9160  0.0419  0.4545
  319MOL0     C42950   3.909   9.954   8.424  0.2195  0.0330  0.8232
  319MOL0     C42951   3.830   9.841   8.361 -0.3314  0.0848 -0.5884
  319MOL0     C42952   3.908   9.775   8.235  0.1925 -0.0874 -0.2071
  319MOL0     C42953   3.803   9.696   8.154  0.1546 -0.0819 -0.0362
  319MOL0     O42954   3.857   9.659   8.027 -0.0446  0.5268  0.0819
  319MOL0     C42955   3.787   9.560   7.958 -0.8134  0.2271  0.1353
  319MOL0     C42956   3.676   9.487   8.011 -0.2597  0.3443  0.0559
  319MOL0     C42957   3.613   9.389   7.927 -0.2968  0.1259 -0.4614
  319MOL0     C42958   3.663   9.371   7.800 -0.3984  0.0371  0.0230
  319MOL0     C42959   3.591   9.264   7.722 -0.4283 -0.7139 -0.4824
  319MOL0     O42960   3.678   9.189   7.636 -0.0750  0.1024 -0.2560
  319MOL0     C42961   3.632   9.071   7.585 -0.9616  0.0272  0.3569
  319MOL0     C42962   3.655   9.033   7.456  0.1363 -0.0187  0.6177
  319MOL0     C42963   3.597   8.925   7.397  0.2752  0.5942 -0.1159
  319MOL0     C42964   3.504   8.841   7.465  0.4816 -0.6641 -1.1771
  319MOL0     O42965   3.442   8.739   7.399 -0.8598  0.4392 -0.6067
  319MOL0     C42966   3.336   8.671   7.457  0.1732  0.1647 -0.4910
  319MOL0     C42967   3.291   8.551   7.380 -0.5507 -0.5976  1.0983
  319MOL0     C42968   3.205   8.562   7.252 -0.5048  1.4527 -0.0088
  319MOL0     C42969   3.236   8.677   7.158 -0.0887 -0.3851 -0.5096
  319MOL0     C42970   3.146   8.667   7.034 -0.0455  0.2109  0.8411
  319MOL0     C42971   3.158   8.795   6.951  0.2723 -0.9874 -0.0344
  319MOL0     C42972   3.228   8.790   6.816 -0.3122 -0.2642 -0.5147
  319MOL0     C42973   3.216   8.931   6.744  0.1588  0.1302 -0.2122
  319MOL0    Cl42974   3.243   8.900   6.570 -0.0020  0.0086 -0.2631
  319MOL0     C42975   3.473   8.876   7.598  0.9030 -0.3031 -0.3303
  319MOL0     C42976   3.542   8.982   7.658 -0.0966 -0.7752  0.4209
  319MOL0     O42977   3.472   9.244   7.736  0.0120  0.3089  0.9948
  319MOL0     C42978   3.759   9.444   7.740 -0.8075 -0.1138 -1.0918
  319MOL0     C42979   3.825   9.534   7.822 -0.2662 -0.0334  1.3984
  319MOL0     N42980   3.751   9.920   8.625  0.4976  0.1897  0.4544
  319MOL0     N42981   3.708   9.988   8.726  0.8062  0.0546 -0.3638
  319MOL0     C42982   3.052  10.716   8.576 -0.7296 -0.9810  0.3668
  319MOL0     C42983   2.969  10.721   8.455 -0.5476  0.7688 -0.3843
  319MOL0     C42984   2.789  11.013   8.150 -0.0230 -0.0948 -0.4798
  319MOL0     C42985   2.773  11.143   8.087  0.0700  0.6137  0.1762
  319MOL0     C42986   2.651  11.183   8.030  0.4887  0.3692 -0.1557
  319MOL0     C42987   2.539  11.104   8.040 -0.2062  0.1655  0.1390
  319MOL0     O42988   2.432  11.162   7.984 -0.1978  0.0066  0.0740
  319MOL0     C42989   2.393  11.104   7.860  0.3456  0.7853 -0.3653
  319MOL0     C42990   2.314  11.190   7.781 -0.2826  0.4517 -0.1708
  319MOL0     C42991   2.194  11.243   7.860  0.3445  0.0696  0.1116
  319MOL0     C42992   2.100  11.326   7.768  0.9513  0.0159 -0.5363
  319MOL0     C42993   1.967  11.351   7.824 -0.0007  0.2318 -0.4989
  319MOL0     C42994   1.851  11.357   7.868 -0.2833  0.1011 -0.0189
  319MOL0     C42995   2.542  10.986   8.103 -0.4242 -0.0346  0.0818
  319MOL0     C42996   2.664  10.935   8.156 -0.0424 -0.5604  0.5750
  319MOL0     C42997   2.651  10.805   8.233  0.2954  0.1081 -0.9209
  319MOL0     H42998   3.180  10.895   8.257 -1.8198  1.6855  0.0805
  319MOL0     H42999   3.327  10.837   8.436 -0.3851 -0.2445  0.4396
  319MOL0     H43000   3.468  10.747   8.643  2.0024  0.2237  3.5805
  319MOL0     H43001   3.385  10.909   8.630 -0.8397  1.9656  2.2147
  319MOL0     H43002   3.356  10.903   8.845 -2.9722 -3.3349 -1.1665
  319MOL0     H43003   3.531  10.864   8.829 -1.0095  1.9335  1.1608
  319MOL0     H43004   3.324  10.663   8.928  1.6684 -3.6598  0.6318
  319MOL0     H43005   3.444  10.744   9.020 -0.8213 -3.4975  1.3219
  319MOL0     H43006   3.506  10.565   8.766 -0.9636  2.7428  0.2205
  319MOL0     H43007   3.629  10.638   8.877 -0.1586 -0.4614  1.3803
  319MOL0     H43008   3.488  10.511   9.062 -1.9377  1.0117 -0.0524
  319MOL0     H43009   3.411  10.435   8.926 -1.0435  1.9351  1.7130
  319MOL0     H43010   3.709  10.438   8.969  0.0620  0.5210 -0.5076
  319MOL0     H43011   3.608  10.307   9.039  2.4749  2.1660  2.0975
  319MOL0     H43012   3.652  10.363   8.743 -1.0622 -0.8952 -0.6721
  319MOL0     H43013   3.534  10.249   8.813 -0.4835  1.1356  1.5679
  319MOL0     H43014   3.846  10.261   8.837 -1.0897  1.4214  0.9104
  319MOL0     H43015   3.745  10.133   8.914 -1.0478 -3.4294 -1.3498
  319MOL0     H43016   3.905  10.188   8.577  1.7451 -1.9616 -0.0441
  319MOL0     H43017   3.922  10.032   8.349 -2.2174 -0.2806 -0.0022
  319MOL0     H43018   4.013   9.928   8.446  0.1385 -1.2100 -0.1446
  319MOL0     H43019   3.818   9.766   8.440  0.1998  2.7116  2.1382
  319MOL0     H43020   3.728   9.873   8.337 -1.0630 -2.8005 -1.8009
  319MOL0     H43021   3.990   9.717   8.278  0.5980  1.5486  1.3483
  319MOL0     H43022   3.949   9.860   8.179  0.2046 -0.2416 -0.4288
  319MOL0     H43023   3.708   9.749   8.144 -1.3898 -2.4392  1.3148
  319MOL0     H43024   3.782   9.604   8.209  1.4728 -1.6849 -2.0726
  319MOL0     H43025   3.640   9.502   8.112 -2.2150 -0.7426 -0.4301
  319MOL0     H43026   3.523   9.341   7.963  0.3127  0.7569  2.1424
  319MOL0     H43027   3.718   9.096   7.394 -2.7028  1.1373 -1.2731
  319MOL0     H43028   3.609   8.906   7.291  0.7576  3.5487 -0.6823
  319MOL0     H43029   3.358   8.631   7.557 -3.7129 -0.8368  0.1423
  319MOL0     H43030   3.261   8.749   7.473  0.0015  0.5231 -2.6942
  319MOL0     H43031   3.387   8.502   7.360  0.1991  0.6961  1.3903
  319MOL0     H43032   3.235   8.481   7.442 -1.1678 -0.3135  0.8643
  319MOL0     H43033   3.202   8.467   7.199  1.1240  1.0028  0.6469
  319MOL0     H43034   3.105   8.588   7.287 -0.2907  0.6084  1.3149
  319MOL0     H43035   3.336   8.653   7.119  0.3212  1.1192 -0.4576
  319MOL0     H43036   3.233   8.776   7.203  4.4220  1.0543 -2.7075
  319MOL0     H43037   3.040   8.658   7.060  0.0128 -0.3801  0.8948
  319MOL0     H43038   3.178   8.577   6.981 -1.4605 -0.4079  0.9954
  319MOL0     H43039   3.062   8.837   6.920  1.9956  2.1923 -1.5359
  319MOL0     H43040   3.204   8.872   7.013  1.0635 -1.2650 -0.2621
  319MOL0     H43041   3.181   8.708   6.761 -4.3767  2.8825 -2.2140
  319MOL0     H43042   3.336   8.771   6.826  0.2647  2.6214 -0.3959
  319MOL0     H43043   3.115   8.973   6.750 -0.9035 -2.4097  1.2947
  319MOL0     H43044   3.279   9.011   6.784 -0.6044  1.3449 -1.3586
  319MOL0     H43045   3.398   8.816   7.648 -0.5232  0.8415 -1.0056
  319MOL0     H43046   3.537   8.997   7.766  0.1638 -2.4712  0.6953
  319MOL0     H43047   3.791   9.407   7.643 -3.1092 -2.4972 -1.0506
  319MOL0     H43048   3.892   9.601   7.769  1.7795 -2.8823  0.1366
  319MOL0     H43049   3.015  10.666   8.664 -2.3330  0.1838  0.3977
  319MOL0     H43050   2.868  10.680   8.457 -0.1297 -0.6674 -3.1919
  319MOL0     H43051   2.862  11.202   8.069 -1.3011  1.7946 -3.8165
  319MOL0     H43052   2.649  11.283   7.988  3.4943  0.2051 -0.9343
  319MOL0     H43053   2.338  11.010   7.865 -0.7387  1.4175  0.0070
  319MOL0     H43054   2.493  11.080   7.822  1.2289 -1.7033  3.0874
  319MOL0     H43055   2.296  11.148   7.682 -1.0006 -2.2083  1.0058
  319MOL0     H43056   2.383  11.273   7.762 -1.7804  1.0952 -3.5919
  319MOL0     H43057   2.224  11.316   7.936 -0.7487 -0.2635  0.9000
  319MOL0     H43058   2.148  11.165   7.922 -0.7002  0.9742  0.5054
  319MOL0     H43059   2.156  11.420   7.758 -0.9204  1.3091  0.6149
  319MOL0     H43060   2.070  11.266   7.682 -0.3798 -3.0596  1.8865
  319MOL0     H43061   1.750  11.343   7.902 -0.4678 -0.4247 -0.7690
  319MOL0     H43062   2.449  10.932   8.120  1.1245 -2.4305  1.4934
  319MOL0     H43063   2.669  10.726   8.160 -0.2133  0.8793 -1.8999
  319MOL0     H43064   2.718  10.797   8.320 -1.0617 -5.0694 -0.0067
  319MOL0     H43065   2.552  10.789   8.278  0.6923 -0.4854 -0.2217
  320MOL0     O43066   8.006   4.268   4.650  0.5697  0.2768  0.4576
  320MOL0     C43067   8.106   4.224   4.707  1.6579 -1.3660  0.0694
  320MOL0     O43068   8.105   4.168   4.827 -0.6858  0.1006  0.5608
  320MOL0     C43069   7.994   4.148   4.894 -1.1388 -0.0157  0.0481
  320MOL0     C43070   7.886   4.079   4.838  0.6806 -0.2335 -0.6637
  320MOL0     C43071   7.775   4.041   4.921  0.1486  0.4019  0.2188
  320MOL0     C43072   7.778   4.067   5.057 -0.4995 -0.1992 -0.2295
  320MOL0     O43073   7.670   4.040   5.146 -0.2174 -0.0171  0.5579
  320MOL0     C43074   7.532   4.026   5.091  0.4613 -0.3231  0.9134
  320MOL0     C43075   7.496   3.877   5.074  0.5739 -0.4504  0.7142
  320MOL0     C43076   7.510   3.796   5.206  0.3215 -0.9308  0.2249
  320MOL0     C43077   7.394   3.817   5.309 -0.2709  0.3954  0.5990
  320MOL0     C43078   7.419   3.781   5.454 -0.5235 -0.1048 -0.3227
  320MOL0     C43079   7.447   3.630   5.472 -0.2511  0.2624 -0.9058
  320MOL0     C43080   7.526   3.596   5.602  0.0279  0.3915 -1.0488
  320MOL0     C43081   7.436   3.619   5.721 -0.8333  0.2050  0.4013
  320MOL0     N43082   7.500   3.627   5.848 -0.2655  0.5785 -0.1997
  320MOL0     C43083   7.531   3.738   5.910 -0.6990 -0.0848 -0.1377
  320MOL0     C43084   7.575   3.707   6.036 -0.6483  0.1977  0.2598
  320MOL0     C43085   7.628   3.797   6.141 -0.3770  0.1900  0.4454
  320MOL0     C43086   7.516   3.837   6.229 -0.2563 -0.9895  0.4348
  320MOL0     C43087   7.503   3.984   6.270 -0.1442  0.7317  0.1292
  320MOL0     C43088   7.409   3.998   6.385 -1.1775  0.0929  0.6161
  320MOL0     O43089   7.474   3.952   6.510 -0.6824 -0.4727 -0.0183
  320MOL0     C43090   7.420   3.991   6.631  1.1677 -0.6433 -0.0967
  320MOL0     C43091   7.278   4.021   6.645 -0.5288  0.3270  0.6330
  320MOL0     C43092   7.216   4.021   6.768  0.0481  0.4278 -0.4925
  320MOL0     C43093   7.304   4.006   6.883 -0.2431 -0.9163  0.2909
  320MOL0     C43094   7.242   4.002   7.020 -0.8716  0.0861 -0.2255
  320MOL0     O43095   7.117   4.069   7.036 -0.0028  0.2464  0.1996
  320MOL0     C43096   7.061   4.085   7.165  0.0595  0.6541  0.1256
  320MOL0     C43097   7.121   4.065   7.297 -0.4950 -0.4673 -0.6905
  320MOL0     C43098   7.035   4.081   7.409  0.0922  0.0400 -0.4369
  320MOL0     C43099   6.912   4.142   7.405  0.1254 -0.1220 -1.0707
  320MOL0     O43100   6.862   4.169   7.530 -0.0297 -0.1235 -0.5517
  320MOL0     C43101   6.733   4.222   7.541 -0.1093 -0.4203 -0.3506
  320MOL0     C43102   6.702   4.242   7.695  0.0254 -0.9024 -0.6575
  320MOL0     C43103   6.667   4.122   7.776  0.9531 -1.0793 -0.5159
  320MOL0     C43104   6.522   4.068   7.750  0.9620 -0.9083 -0.5684
  320MOL0     C43105   6.494   3.945   7.834 -1.4233 -0.6228 -0.2971
  320MOL0     C43106   6.345   3.906   7.828  0.0479  0.1251 -0.8876
  320MOL0     C43107   6.330   3.765   7.887  0.0119 -1.0130 -0.2138
  320MOL0     C43108   6.185   3.735   7.900  0.6415  0.6397 -0.5958
  320MOL0    Cl43109   6.119   3.842   8.027  0.3048  0.2049 -0.3133
  320MOL0     C43110   6.857   4.172   7.276  0.9017  0.6356 -0.4334
  320MOL0     C43111   6.934   4.147   7.168  0.0559 -0.4163 -0.1226
  320MOL0     O43112   7.315   3.957   7.106 -0.2017  0.6078  0.2917
  320MOL0     C43113   7.440   3.980   6.866 -0.3224 -0.3786  0.2332
  320MOL0     C43114   7.498   3.986   6.744  0.5488 -0.4406  0.6293
  320MOL0     N43115   7.565   3.570   6.043  0.4052 -0.2232 -0.5620
  320MOL0     N43116   7.511   3.524   5.940 -0.2718  0.0935  0.4898
  320MOL0     C43117   7.889   4.129   5.116 -0.8092  0.0160  0.3569
  320MOL0     C43118   7.998   4.172   5.032 -0.3571 -0.4830  0.2632
  320MOL0     C43119   8.231   4.251   4.645 -0.4736  0.1435  0.3678
  320MOL0     C43120   8.347   4.286   4.720  1.3267 -0.4290  0.1429
  320MOL0     C43121   8.464   4.316   4.659 -0.4500 -0.1018  0.6648
  320MOL0     C43122   8.478   4.332   4.525 -0.7161  0.4498 -0.8847
  320MOL0     O43123   8.607   4.350   4.485  0.6632  0.9032  0.1027
  320MOL0     C43124   8.611   4.435   4.372  0.1387 -0.6583  0.1355
  320MOL0     C43125   8.679   4.379   4.249 -0.0666  0.4375 -0.7057
  320MOL0     C43126   8.654   4.467   4.130  0.6516  0.3960 -1.1490
  320MOL0     C43127   8.764   4.453   4.022  0.6823 -0.1615  0.2087
  320MOL0     C43128   8.720   4.540   3.906  0.4126  0.6624 -0.6312
  320MOL0     C43129   8.690   4.622   3.816  1.3899 -0.4323  0.0998
  320MOL0     C43130   8.365   4.301   4.447  0.6492  0.3250  0.1519
  320MOL0     C43131   8.244   4.251   4.509 -0.2775  0.4510  0.1656
  320MOL0     C43132   8.134   4.180   4.422  0.2818  0.3605 -0.3700
  320MOL0     H43133   7.891   4.046   4.734  1.5436 -0.5520 -0.5337
  320MOL0     H43134   7.698   3.994   4.862  2.9823 -2.6775 -1.3563
  320MOL0     H43135   7.464   4.070   5.165  2.1680 -1.4023  3.2611
  320MOL0     H43136   7.527   4.081   4.997  0.9853  0.8216  1.5360
  320MOL0     H43137   7.554   3.831   4.993  1.2980 -0.6974  1.3639
  320MOL0     H43138   7.388   3.886   5.054  0.3512  1.0850  2.3078
  320MOL0     H43139   7.611   3.815   5.242  1.3763 -0.2572 -2.7840
  320MOL0     H43140   7.507   3.690   5.181  2.1512 -1.0376  0.3607
  320MOL0     H43141   7.382   3.926   5.318  0.1004  0.6918 -1.7265
  320MOL0     H43142   7.299   3.774   5.274  2.5773 -2.8768 -4.4194
  320MOL0     H43143   7.500   3.830   5.509 -1.1603 -0.5476  1.0274
  320MOL0     H43144   7.333   3.803   5.517 -0.4091 -4.6204  1.7667
  320MOL0     H43145   7.351   3.577   5.469 -0.3896  0.5378 -1.7623
  320MOL0     H43146   7.508   3.581   5.395 -1.5753 -1.6351 -0.8072
  320MOL0     H43147   7.608   3.668   5.605 -2.0838  2.9214  0.8694
  320MOL0     H43148   7.555   3.491   5.608 -1.7253 -0.0861 -0.0520
  320MOL0     H43149   7.379   3.711   5.709 -2.2479 -0.7938 -1.0876
  320MOL0     H43150   7.368   3.533   5.723 -2.2947  1.3253  0.8536
  320MOL0     H43151   7.536   3.842   5.879  1.9545 -0.4891 -1.4324
  320MOL0     H43152   7.715   3.750   6.187  2.3557  0.7697 -3.5834
  320MOL0     H43153   7.656   3.880   6.075 -2.3952 -1.9230 -3.4367
  320MOL0     H43154   7.420   3.819   6.180 -0.2165  2.9513 -1.5026
  320MOL0     H43155   7.535   3.777   6.319 -3.0720  0.0831  1.8747
  320MOL0     H43156   7.464   4.037   6.182  1.2685  2.7111  0.6326
  320MOL0     H43157   7.597   4.035   6.294  0.2729  2.3160 -4.0217
  320MOL0     H43158   7.323   3.940   6.352 -1.0020  0.9321 -1.4617
  320MOL0     H43159   7.383   4.104   6.400  1.9990  0.8287  1.9297
  320MOL0     H43160   7.206   4.019   6.564 -1.1394  2.4562  1.0636
  320MOL0     H43161   7.110   4.037   6.784  0.0603 -2.4135  5.2125
  320MOL0     H43162   7.216   4.016   7.309 -0.2381  0.1951  0.0724
  320MOL0     H43163   7.067   4.045   7.507 -1.0615 -0.2398 -0.1479
  320MOL0     H43164   6.733   4.321   7.496  0.4804 -0.7756 -1.1626
  320MOL0     H43165   6.660   4.155   7.494 -0.4958 -0.1347 -0.1577
  320MOL0     H43166   6.788   4.289   7.742 -0.2602 -1.5935  0.5925
  320MOL0     H43167   6.622   4.315   7.710  2.8943  2.3649  0.0462
  320MOL0     H43168   6.745   4.047   7.759  1.7733  0.0846 -2.2189
  320MOL0     H43169   6.670   4.155   7.881 -0.7937 -0.4821 -0.6249
  320MOL0     H43170   6.511   4.053   7.642  2.6799  3.9303 -1.6706
  320MOL0     H43171   6.442   4.138   7.777  0.1770 -1.5343 -1.2266
  320MOL0     H43172   6.523   3.963   7.938 -0.9887  1.8444 -0.8006
  320MOL0     H43173   6.557   3.861   7.802 -3.8371 -1.2779 -3.8762
  320MOL0     H43174   6.281   3.982   7.875  0.3974  0.3876 -0.8343
  320MOL0     H43175   6.320   3.896   7.722  0.5490  1.3553 -1.1351
  320MOL0     H43176   6.381   3.750   7.982  0.9843  1.8356 -0.1914
  320MOL0     H43177   6.375   3.691   7.820  2.2288  0.0704 -0.0131
  320MOL0     H43178   6.148   3.747   7.798  3.0545 -1.4424 -1.8518
  320MOL0     H43179   6.159   3.636   7.939  0.2879  0.3117 -1.6218
  320MOL0     H43180   6.770   4.235   7.265  0.7230  0.5344  0.3450
  320MOL0     H43181   6.900   4.159   7.065  0.3507  0.0048 -0.1705
  320MOL0     H43182   7.504   3.952   6.949  0.3119 -0.9475 -0.4302
  320MOL0     H43183   7.604   3.971   6.726  0.4449 -2.1931  1.3163
  320MOL0     H43184   7.887   4.150   5.222 -3.7173  3.3013 -0.1579
  320MOL0     H43185   8.088   4.222   5.066  0.3039 -2.3475  1.3782
  320MOL0     H43186   8.338   4.317   4.823  3.9409  1.5003 -0.1171
  320MOL0     H43187   8.539   4.359   4.724  0.9148 -0.5930 -0.5158
  320MOL0     H43188   8.661   4.527   4.402 -0.0462 -0.4342 -0.2257
  320MOL0     H43189   8.516   4.474   4.333  1.8702 -1.2596 -5.6176
  320MOL0     H43190   8.647   4.277   4.228  2.8286 -0.7227  0.1072
  320MOL0     H43191   8.785   4.392   4.271  0.0305  2.8724 -2.2650
  320MOL0     H43192   8.644   4.573   4.154 -2.0651  1.0002 -4.1911
  320MOL0     H43193   8.558   4.441   4.083 -0.6535 -1.1555  2.0826
  320MOL0     H43194   8.860   4.475   4.070  1.1819  0.9507 -1.2459
  320MOL0     H43195   8.768   4.350   3.986  0.6756 -0.3269  0.6680
  320MOL0     H43196   8.685   4.685   3.730 -3.5071 -0.8426 -0.1446
  320MOL0     H43197   8.358   4.296   4.339 -1.7595 -0.6644  0.2942
  320MOL0     H43198   8.183   4.147   4.329  1.6931 -1.3335  0.9117
  320MOL0     H43199   8.100   4.096   4.483  3.8077 -0.5317  0.6430
  320MOL0     H43200   8.044   4.234   4.394 -0.2062 -0.3509 -0.1936
  321MOL0     O43201   1.705   2.216   0.881  0.5782  0.0137  0.1402
  321MOL0     C43202   1.765   2.131   0.944 -0.3202 -0.5392 -0.2946
  321MOL0     O43203   1.731   2.082   1.067  0.4886  0.2103  0.8396
  321MOL0     C43204   1.649   2.144   1.158  0.2577  1.2602 -0.9130
  321MOL0     C43205   1.582   2.271   1.142  0.0197 -0.2037  0.3904
  321MOL0     C43206   1.495   2.320   1.239  0.7583  0.3461  0.0596
  321MOL0     C43207   1.480   2.246   1.354  0.2721  0.4711  0.5369
  321MOL0     O43208   1.401   2.287   1.453 -0.3080  0.1269  0.5001
  321MOL0     C43209   1.292   2.200   1.484 -0.4384  0.3159  0.8460
  321MOL0     C43210   1.259   2.172   1.632 -0.7331  0.4325  0.1793
  321MOL0     C43211   1.214   2.306   1.698 -0.1318 -0.0946 -0.6585
  321MOL0     C43212   1.239   2.285   1.849  1.1318  0.3382  0.4446
  321MOL0     C43213   1.376   2.342   1.897  0.8915 -0.5810 -0.8209
  321MOL0     C43214   1.397   2.498   1.911  0.2172  0.0926  0.8996
  321MOL0     C43215   1.258   2.569   1.954  0.7961 -0.0999  0.6135
  321MOL0     C43216   1.279   2.718   1.956  0.7904 -0.6577  0.1930
  321MOL0     N43217   1.349   2.764   2.072  0.4260 -0.5700 -0.3394
  321MOL0     C43218   1.481   2.802   2.069 -0.5044 -0.0721 -0.0480
  321MOL0     C43219   1.507   2.849   2.190 -0.2133 -0.2296  0.8579
  321MOL0     C43220   1.637   2.924   2.223 -0.2455 -0.3898 -0.6892
  321MOL0     C43221   1.770   2.851   2.204 -0.1383  1.0138  0.7229
  321MOL0     C43222   1.885   2.939   2.243  0.1247 -0.7667  0.9851
  321MOL0     C43223   2.005   2.847   2.278  0.7059 -0.5789 -0.1379
  321MOL0     O43224   2.111   2.934   2.323 -0.1262 -0.3432  0.1184
  321MOL0     C43225   2.226   2.884   2.362  0.2289  0.3198 -0.4213
  321MOL0     C43226   2.262   2.750   2.388  0.2678 -0.4723 -1.0887
  321MOL0     C43227   2.387   2.717   2.423  0.3728 -0.6728  0.8410
  321MOL0     C43228   2.486   2.811   2.445 -0.6794 -0.3085 -0.9002
  321MOL0     C43229   2.626   2.769   2.461 -0.4717  0.1820 -0.1292
  321MOL0     O43230   2.655   2.641   2.420  0.1212  0.5957 -0.2596
  321MOL0     C43231   2.784   2.581   2.446  0.4227  0.5626  0.9583
  321MOL0     C43232   2.901   2.658   2.435 -0.1491  0.4656 -0.0233
  321MOL0     C43233   3.023   2.595   2.472 -0.1989  0.6001  0.0542
  321MOL0     C43234   3.031   2.459   2.506 -0.6755 -0.5634  0.4212
  321MOL0     O43235   3.147   2.418   2.540  0.1494 -0.4359 -0.3068
  321MOL0     C43236   3.208   2.329   2.444 -1.2149  0.9386 -0.4947
  321MOL0     C43237   3.345   2.294   2.503 -0.5051 -0.3027  0.6938
  321MOL0     C43238   3.463   2.394   2.464  0.5865  0.1213  0.1848
  321MOL0     C43239   3.591   2.334   2.517 -0.9187 -1.3890 -0.2067
  321MOL0     C43240   3.701   2.437   2.490 -0.1156  1.0313 -0.3289
  321MOL0     C43241   3.845   2.399   2.537  1.2909 -0.9012  0.4844
  321MOL0     C43242   3.862   2.370   2.685 -0.2029  0.6054  0.0677
  321MOL0     C43243   3.981   2.279   2.713  1.2538 -0.9348 -0.1633
  321MOL0    Cl43244   3.962   2.192   2.866  0.2517 -0.1398 -0.2346
  321MOL0     C43245   2.916   2.381   2.494  0.2216  0.2188 -0.4127
  321MOL0     C43246   2.795   2.444   2.470  0.1047 -0.3631  0.1873
  321MOL0     O43247   2.706   2.852   2.506  0.5415 -0.1513 -0.4095
  321MOL0     C43248   2.458   2.946   2.422 -0.6356  0.2749 -0.6424
  321MOL0     C43249   2.333   2.986   2.379  0.6336  0.6170  0.6277
  321MOL0     N43250   1.402   2.830   2.276 -0.6563 -0.2002  0.0760
  321MOL0     N43251   1.310   2.780   2.202 -0.4810  0.5950  0.4000
  321MOL0     C43252   1.564   2.134   1.376  0.3998  1.2795  0.0424
  321MOL0     C43253   1.647   2.080   1.278  0.3266 -0.3452 -0.1332
  321MOL0     C43254   1.892   2.075   0.881  0.6633  0.4293  0.1957
  321MOL0     C43255   1.949   1.957   0.937  0.1501  0.3142  0.0152
  321MOL0     C43256   2.073   1.906   0.894  0.4533 -0.1991  0.3350
  321MOL0     C43257   2.148   1.969   0.800 -0.4159 -0.2516 -1.2772
  321MOL0     O43258   2.270   1.921   0.752  0.4107  0.7219 -0.3359
  321MOL0     C43259   2.378   2.007   0.793  0.2842 -0.5168 -0.6583
  321MOL0     C43260   2.509   2.004   0.712  0.3141  0.4582 -0.4555
  321MOL0     C43261   2.491   2.070   0.580 -0.7676  0.7020  1.4567
  321MOL0     C43262   2.624   2.047   0.501 -0.6373  0.2034 -0.5837
  321MOL0     C43263   2.602   2.091   0.368 -0.7204 -0.6669  0.0636
  321MOL0     C43264   2.580   2.140   0.262  0.6374  1.4439  0.1582
  321MOL0     C43265   2.097   2.085   0.735  1.4671 -1.3976 -0.2747
  321MOL0     C43266   1.964   2.128   0.769 -0.4776  0.3935 -1.2113
  321MOL0     C43267   1.909   2.255   0.701  0.1104  1.3126  0.1944
  321MOL0     H43268   1.594   2.331   1.052 -2.4268 -0.9079 -0.4694
  321MOL0     H43269   1.435   2.405   1.210 -0.2928 -0.0965  0.8831
  321MOL0     H43270   1.206   2.240   1.430 -2.4965 -2.4821  1.8216
  321MOL0     H43271   1.308   2.104   1.434  1.9504  1.7603 -1.4267
  321MOL0     H43272   1.345   2.123   1.679  0.5774  1.8388 -0.6450
  321MOL0     H43273   1.177   2.100   1.640  1.8385 -2.9604 -1.4235
  321MOL0     H43274   1.106   2.313   1.681 -0.4230 -0.2372  1.0021
  321MOL0     H43275   1.263   2.397   1.662 -0.2260 -0.0769 -0.7433
  321MOL0     H43276   1.162   2.328   1.913 -2.5484 -2.4073 -1.6947
  321MOL0     H43277   1.227   2.179   1.874 -0.0466 -0.2487 -2.2097
  321MOL0     H43278   1.397   2.298   1.995  0.9828  0.4457 -0.3581
  321MOL0     H43279   1.452   2.304   1.828  2.8910  3.2244 -0.9974
  321MOL0     H43280   1.483   2.530   1.970  0.8825  1.7468 -0.8302
  321MOL0     H43281   1.423   2.523   1.807  2.0162 -2.6927  0.5777
  321MOL0     H43282   1.221   2.528   2.048 -3.0942 -1.7506 -1.4500
  321MOL0     H43283   1.175   2.555   1.884  2.1385  3.5803 -2.0357
  321MOL0     H43284   1.336   2.745   1.867 -0.1759 -0.7438 -0.4567
  321MOL0     H43285   1.178   2.760   1.964  1.0803 -0.2947  3.0607
  321MOL0     H43286   1.550   2.807   1.985 -0.8637  1.6176 -0.2702
  321MOL0     H43287   1.644   3.002   2.146 -1.1936 -3.0172 -3.7141
  321MOL0     H43288   1.630   2.952   2.328  2.7091  1.7532 -0.9457
  321MOL0     H43289   1.783   2.749   2.242  2.3804  0.1462 -2.0492
  321MOL0     H43290   1.765   2.837   2.095  2.0713 -3.6539  0.9728
  321MOL0     H43291   1.864   3.013   2.322  0.8521  1.5350 -0.8545
  321MOL0     H43292   1.915   3.006   2.162 -0.1911 -0.9886  0.6844
  321MOL0     H43293   2.044   2.785   2.197  0.1241 -2.5930  1.0518
  321MOL0     H43294   1.972   2.784   2.362  0.7228 -0.5948 -0.1433
  321MOL0     H43295   2.180   2.678   2.390  0.6315 -0.9183  1.8194
  321MOL0     H43296   2.402   2.609   2.428 -2.2796 -1.1374  0.2005
  321MOL0     H43297   2.896   2.761   2.400  3.1610  0.5070 -0.6527
  321MOL0     H43298   3.112   2.656   2.477  1.2363 -0.8501 -4.0556
  321MOL0     H43299   3.153   2.234   2.437 -1.7290  1.1525  0.5572
  321MOL0     H43300   3.232   2.369   2.345  1.6970 -0.9871 -0.7043
  321MOL0     H43301   3.328   2.272   2.609 -4.9952 -0.4270  0.1072
  321MOL0     H43302   3.386   2.196   2.475  2.2932  0.8411  0.4804
  321MOL0     H43303   3.471   2.403   2.356 -0.9489 -0.3450  0.0193
  321MOL0     H43304   3.451   2.488   2.520  0.2478  0.4578 -0.4487
  321MOL0     H43305   3.617   2.243   2.462 -0.2040  0.5219 -3.2427
  321MOL0     H43306   3.579   2.324   2.626  0.6431 -1.1977  0.0040
  321MOL0     H43307   3.673   2.534   2.534 -1.9744 -0.5785  2.3245
  321MOL0     H43308   3.724   2.453   2.384 -0.7402 -0.0213 -0.6314
  321MOL0     H43309   3.864   2.310   2.476 -2.2918  1.2240 -4.3951
  321MOL0     H43310   3.917   2.478   2.515 -1.1462  1.2407 -0.3022
  321MOL0     H43311   3.774   2.306   2.702  0.0927 -0.5892 -2.4649
  321MOL0     H43312   3.871   2.459   2.749  0.3991  1.7233 -1.5058
  321MOL0     H43313   3.997   2.209   2.630 -1.1976 -1.4819 -0.2486
  321MOL0     H43314   4.071   2.340   2.719  0.2996  0.4861  0.3045
  321MOL0     H43315   2.904   2.274   2.509  1.4950  0.3211  1.8179
  321MOL0     H43316   2.706   2.382   2.471  0.5930 -1.1356 -1.3846
  321MOL0     H43317   2.545   3.011   2.418 -0.7506  0.3773 -3.5345
  321MOL0     H43318   2.310   3.086   2.344 -0.4098 -1.0279 -4.2517
  321MOL0     H43319   1.581   2.103   1.478  0.2129 -1.1205 -0.6065
  321MOL0     H43320   1.716   1.998   1.295 -0.2360 -0.6428  0.7795
  321MOL0     H43321   1.889   1.910   1.015  0.9185  2.2243  1.8578
  321MOL0     H43322   2.109   1.808   0.925  0.5703 -0.2418  0.0641
  321MOL0     H43323   2.406   1.980   0.895  1.5339 -0.3386 -0.9367
  321MOL0     H43324   2.347   2.111   0.785 -3.1141 -1.4701 -1.8774
  321MOL0     H43325   2.543   1.900   0.710 -0.8026  0.0826 -0.8339
  321MOL0     H43326   2.586   2.052   0.772 -1.1137  0.5063  1.4560
  321MOL0     H43327   2.461   2.175   0.585  1.3909  1.2996  2.7187
  321MOL0     H43328   2.408   2.019   0.529  0.4684 -1.0131  1.0871
  321MOL0     H43329   2.709   2.092   0.554 -2.5386  0.2617  2.6545
  321MOL0     H43330   2.660   1.944   0.497 -1.6711 -0.2965  1.7972
  321MOL0     H43331   2.551   2.175   0.166  2.4257 -2.3068 -1.9935
  321MOL0     H43332   2.144   2.134   0.650 -1.4807  0.1299 -1.1738
  321MOL0     H43333   1.909   2.334   0.776  0.4159 -0.6221  2.3376
  321MOL0     H43334   1.985   2.271   0.623 -0.1300  0.0427 -0.3368
  321MOL0     H43335   1.808   2.248   0.659 -0.0726  1.6479  0.5736
  322MOL0     O43336   3.175   0.740  11.192  0.1971  0.3466 -0.5230
  322MOL0     C43337   3.099   0.654  11.139  0.5108 -0.7981 -0.3139
  322MOL0     O43338   3.076   0.531  11.197  0.3617 -0.2806  0.4522
  322MOL0     C43339   3.152   0.484  11.299  0.2614  0.1165  0.0660
  322MOL0     C43340   3.100   0.417  11.406 -0.4369  0.1560 -0.1881
  322MOL0     C43341   3.177   0.364  11.509  0.1037 -0.0615  0.1809
  322MOL0     C43342   3.309   0.352  11.490 -0.2732  0.2147 -0.3426
  322MOL0     O43343   3.378   0.286  11.586 -0.3078  1.2984 -0.0215
  322MOL0     C43344   3.461   0.173  11.547 -0.0666 -0.4964  0.7709
  322MOL0     C43345   3.609   0.218  11.563 -0.2351  0.0661 -0.0915
  322MOL0     C43346   3.699   0.096  11.552  0.1399  1.1963  0.1113
  322MOL0     C43347   3.713   0.038  11.407 -0.3952  0.1556 -0.5446
  322MOL0     C43348   3.850  -0.034  11.412  0.1309 -0.1179  0.9006
  322MOL0     C43349   3.868  -0.102  11.278  0.0508 -0.1124 -0.4227
  322MOL0     C43350   3.980  -0.197  11.298 -0.0376  0.4511  0.0062
  322MOL0     C43351   4.125  -0.139  11.310 -0.1222  0.4186  0.3391
  322MOL0     N43352   4.215  -0.256  11.330  0.2137 -0.7393 -1.0453
  322MOL0     C43353   4.235  -0.373  11.260 -0.3664  0.0602  0.7960
  322MOL0     C43354   4.330  -0.442  11.308  0.0976  0.1147  1.0620
  322MOL0     C43355   4.402  -0.575  11.268 -0.2813 -0.3329  0.3612
  322MOL0     C43356   4.300  -0.686  11.245  0.4052 -0.9652  0.0891
  322MOL0     C43357   4.208  -0.706  11.363  0.2803  0.2045  0.6320
  322MOL0     C43358   4.091  -0.780  11.307 -0.1080  0.1566  0.0635
  322MOL0     O43359   4.007  -0.673  11.243 -0.8465 -0.4740  0.5787
  322MOL0     C43360   3.883  -0.711  11.197  0.3114  0.5712 -0.0354
  322MOL0     C43361   3.816  -0.620  11.108 -0.3257  0.7907  0.7992
  322MOL0     C43362   3.691  -0.659  11.054 -0.3014 -0.4953 -0.2079
  322MOL0     C43363   3.628  -0.774  11.096  0.3865  0.3974 -0.0458
  322MOL0     C43364   3.494  -0.794  11.046  0.4849 -0.7491  0.2454
  322MOL0     O43365   3.408  -0.686  11.020  0.0071  0.2768  0.3342
  322MOL0     C43366   3.287  -0.716  10.969  0.5990  0.1723 -0.4104
  322MOL0     C43367   3.286  -0.770  10.837  0.9480  0.2100  0.2447
  322MOL0     C43368   3.166  -0.803  10.782  0.8974 -0.3174  0.5687
  322MOL0     C43369   3.046  -0.785  10.851 -0.9271 -0.0422 -0.7358
  322MOL0     O43370   2.926  -0.819  10.791 -0.2471  0.5288 -0.1633
  322MOL0     C43371   2.813  -0.730  10.799 -0.2381 -1.0422  0.0594
  322MOL0     C43372   2.692  -0.768  10.877 -0.5477 -0.3054 -0.6553
  322MOL0     C43373   2.672  -0.915  10.843 -0.8371 -0.8352 -0.1424
  322MOL0     C43374   2.540  -0.965  10.915 -0.8528  0.0699 -0.4254
  322MOL0     C43375   2.491  -1.099  10.857  1.1082  0.4323 -0.6272
  322MOL0     C43376   2.423  -1.091  10.720  0.1918 -0.1102  0.1702
  322MOL0     C43377   2.375  -1.221  10.661 -0.2966  0.9687 -0.2271
  322MOL0     C43378   2.489  -1.311  10.615  0.4303 -0.5174 -0.1883
  322MOL0    Cl43379   2.577  -1.233  10.472  0.3888  0.2164 -0.2143
  322MOL0     C43380   3.049  -0.718  10.982  0.0467  0.4602 -0.0511
  322MOL0     C43381   3.172  -0.690  11.037 -0.1369 -0.1377  0.3573
  322MOL0     O43382   3.463  -0.913  11.029  0.2238  0.8316 -0.3228
  322MOL0     C43383   3.693  -0.859  11.177  0.7886 -0.8068 -0.3919
  322MOL0     C43384   3.820  -0.836  11.224 -0.9755 -0.0499 -0.0631
  322MOL0     N43385   4.366  -0.380  11.423 -0.5306 -0.4351 -0.2579
  322MOL0     N43386   4.296  -0.267  11.444 -0.4597  0.0626  0.8842
  322MOL0     C43387   3.364   0.387  11.365  0.0585 -0.7362  0.6586
  322MOL0     C43388   3.281   0.448  11.276  0.5296 -0.4904  0.9057
  322MOL0     C43389   3.007   0.712  11.034  1.2753 -0.3765 -0.2869
  322MOL0     C43390   2.974   0.849  11.031 -0.6594  0.0511  0.3584
  322MOL0     C43391   2.891   0.899  10.934  0.6925  0.0316  0.2649
  322MOL0     C43392   2.824   0.821  10.843  0.5346 -0.3126  1.4693
  322MOL0     O43393   2.746   0.885  10.744  0.2422  0.1531 -0.9388
  322MOL0     C43394   2.655   0.799  10.671 -0.2217 -1.5786  0.0729
  322MOL0     C43395   2.583   0.887  10.554 -0.0812 -0.3243 -0.0086
  322MOL0     C43396   2.680   0.983  10.471  0.0923 -0.5500  0.1648
  322MOL0     C43397   2.804   0.916  10.418  0.5598  0.9761  1.6206
  322MOL0     C43398   2.761   0.810  10.329 -0.0468  0.5161 -1.1222
  322MOL0     C43399   2.726   0.720  10.261 -0.7227 -0.5237 -0.7016
  322MOL0     C43400   2.848   0.684  10.844  0.3923 -0.6618 -0.1610
  322MOL0     C43401   2.936   0.636  10.935  0.0175  0.4382 -0.9535
  322MOL0     C43402   2.966   0.486  10.940 -0.6380 -0.7673 -0.3607
  322MOL0     H43403   2.993   0.414  11.421 -0.3630  0.1163  0.3579
  322MOL0     H43404   3.137   0.316  11.598  1.8936 -0.3291  0.8992
  322MOL0     H43405   3.451   0.092  11.619  0.6475  0.3479  1.8450
  322MOL0     H43406   3.429   0.125  11.454 -2.7987  0.0191  1.3721
  322MOL0     H43407   3.620   0.261  11.663 -4.2831  0.7551  0.2485
  322MOL0     H43408   3.636   0.291  11.487  0.2282 -0.2704 -0.2548
  322MOL0     H43409   3.675   0.015  11.621  0.9571 -0.0648 -1.0329
  322MOL0     H43410   3.799   0.137  11.570  2.0095 -2.4694 -0.7118
  322MOL0     H43411   3.632  -0.020  11.363  2.1518 -1.3251 -3.7383
  322MOL0     H43412   3.726   0.128  11.347 -0.8861 -1.2339 -2.8655
  322MOL0     H43413   3.935   0.029  11.439  0.9546 -1.0712  0.5933
  322MOL0     H43414   3.846  -0.102  11.497 -0.5742 -1.1904  0.0417
  322MOL0     H43415   3.779  -0.153  11.241 -2.2234  3.1559  0.0569
  322MOL0     H43416   3.880  -0.031  11.196  0.6022  2.4653  1.7521
  322MOL0     H43417   3.964  -0.277  11.226 -1.2242  0.4505  0.2436
  322MOL0     H43418   3.967  -0.250  11.393 -0.5290 -1.6135 -1.1637
  322MOL0     H43419   4.151  -0.078  11.224  4.5242 -2.3957 -0.5767
  322MOL0     H43420   4.130  -0.071  11.396 -0.2563  1.0121 -0.1218
  322MOL0     H43421   4.182  -0.410  11.173 -1.1804 -1.1876  1.7734
  322MOL0     H43422   4.462  -0.559  11.178  0.4449 -2.3239  0.4275
  322MOL0     H43423   4.469  -0.604  11.350  0.4084  0.8096  0.2295
  322MOL0     H43424   4.247  -0.663  11.152  3.1496 -2.3945 -1.9873
  322MOL0     H43425   4.346  -0.782  11.219  0.6178 -0.3458 -2.0243
  322MOL0     H43426   4.175  -0.607  11.396 -2.4649  0.2497 -1.8356
  322MOL0     H43427   4.256  -0.750  11.451 -0.7539  0.8879  1.5702
  322MOL0     H43428   4.033  -0.823  11.389  1.0673 -0.1057  0.7728
  322MOL0     H43429   4.117  -0.851  11.227  1.4019  1.4051 -0.6086
  322MOL0     H43430   3.865  -0.529  11.075  1.8377 -0.6515 -0.2003
  322MOL0     H43431   3.643  -0.588  10.987 -1.8932 -1.7094 -0.4286
  322MOL0     H43432   3.379  -0.782  10.783  0.0075 -2.5422 -0.9800
  322MOL0     H43433   3.174  -0.852  10.686 -1.0450 -1.6605  1.0265
  322MOL0     H43434   2.855  -0.633  10.828  0.0793 -1.0068 -0.4923
  322MOL0     H43435   2.777  -0.721  10.696  1.5359  0.2243 -0.5073
  322MOL0     H43436   2.731  -0.778  10.979  0.9922  0.3554 -1.1466
  322MOL0     H43437   2.612  -0.699  10.849  0.6815  1.3044 -0.3571
  322MOL0     H43438   2.660  -0.936  10.736  5.2951  1.5724 -1.7137
  322MOL0     H43439   2.751  -0.978  10.886  0.3068 -0.5919 -1.7768
  322MOL0     H43440   2.470  -0.881  10.918 -0.1537  0.6877 -0.9083
  322MOL0     H43441   2.568  -0.989  11.018 -3.5144  0.4111  0.4607
  322MOL0     H43442   2.412  -1.148  10.915  0.5755  1.6671 -0.2812
  322MOL0     H43443   2.570  -1.173  10.873  0.9319  0.9577  4.2179
  322MOL0     H43444   2.337  -1.024  10.734 -0.1706 -0.7664  1.1377
  322MOL0     H43445   2.495  -1.046  10.651 -0.5242  1.5062  0.4205
  322MOL0     H43446   2.328  -1.202  10.564 -0.8903  2.8027  0.3841
  322MOL0     H43447   2.300  -1.265  10.727 -1.2494  1.1542 -1.1673
  322MOL0     H43448   2.564  -1.327  10.693  2.1159 -0.3989 -1.7220
  322MOL0     H43449   2.442  -1.408  10.597 -0.8749  0.6490 -4.0548
  322MOL0     H43450   2.949  -0.717  11.026  0.0060  0.7688 -0.1523
  322MOL0     H43451   3.189  -0.656  11.139 -1.7563 -1.0720  0.9694
  322MOL0     H43452   3.643  -0.950  11.206 -0.2661  0.6882  3.0819
  322MOL0     H43453   3.871  -0.911  11.284  0.4702 -0.2243 -1.4578
  322MOL0     H43454   3.465   0.368  11.331 -0.1877  2.0533 -2.1534
  322MOL0     H43455   3.321   0.464  11.176 -3.4977  0.8177 -0.6812
  322MOL0     H43456   3.022   0.917  11.101 -0.0307 -0.1374  0.1156
  322MOL0     H43457   2.879   1.007  10.931  0.0518  0.0040  1.3794
  322MOL0     H43458   2.578   0.766  10.742 -1.8008  3.2059  0.9085
  322MOL0     H43459   2.708   0.716  10.622  0.1561 -0.9689 -0.5688
  322MOL0     H43460   2.503   0.946  10.601 -0.8225 -0.1843 -1.4114
  322MOL0     H43461   2.532   0.808  10.497  1.2979 -1.4539  0.2538
  322MOL0     H43462   2.718   1.071  10.524  3.5652 -0.3480 -2.3292
  322MOL0     H43463   2.620   1.015  10.385 -3.1283 -0.4839  2.2555
  322MOL0     H43464   2.854   0.978  10.344 -1.4663 -0.9226 -1.5755
  322MOL0     H43465   2.867   0.864  10.491 -2.0453 -0.5594  2.9575
  322MOL0     H43466   2.694   0.642  10.196 -2.1233  0.8308 -1.7032
  322MOL0     H43467   2.808   0.611  10.774 -0.0248  0.8427 -1.5415
  322MOL0     H43468   2.911   0.428  11.015 -0.2350 -0.1520  0.4222
  322MOL0     H43469   2.936   0.443  10.844 -0.3796 -3.4053  0.6512
  322MOL0     H43470   3.074   0.470  10.950 -0.7494 -0.7075  1.3268
  323MOL0     O43471   8.314  10.729   0.011  0.1201  0.0250 -0.0062
  323MOL0     C43472   8.390  10.641  -0.028 -0.4535  1.1117  0.6074
  323MOL0     O43473   8.481  10.565   0.053  0.0383  0.5679  0.3607
  323MOL0     C43474   8.506  10.572   0.184  0.3776  0.1246  0.0933
  323MOL0     C43475   8.519  10.703   0.235  0.6962 -0.7018  0.9442
  323MOL0     C43476   8.536  10.721   0.376 -0.0021  0.5984  0.2609
  323MOL0     C43477   8.542  10.614   0.468 -0.3015  0.8963  0.5973
  323MOL0     O43478   8.566  10.634   0.601 -0.3482 -0.1613  0.5502
  323MOL0     C43479   8.488  10.735   0.658  0.4518 -0.5414 -0.2727
  323MOL0     C43480   8.494  10.713   0.806  0.3750  0.6271  0.5010
  323MOL0     C43481   8.521  10.840   0.876  0.5529 -0.3927  0.9483
  323MOL0     C43482   8.532  10.821   1.028  0.2666  0.0393 -0.0361
  323MOL0     C43483   8.555  10.956   1.089  0.5518 -0.2311 -0.5309
  323MOL0     C43484   8.615  10.937   1.229 -0.0623 -0.2792 -0.2438
  323MOL0     C43485   8.622  11.074   1.302 -0.4698  0.3180  0.5533
  323MOL0     C43486   8.752  11.150   1.249  0.3630 -0.4759  0.3253
  323MOL0     N43487   8.760  11.279   1.318 -0.5309  0.0287  1.1309
  323MOL0     C43488   8.870  11.315   1.391  0.0980  0.0097  0.5386
  323MOL0     C43489   8.855  11.451   1.412  0.6022 -0.5636  1.2716
  323MOL0     C43490   8.935  11.544   1.494 -0.9442 -0.3186  0.5943
  323MOL0     C43491   9.016  11.634   1.401 -0.0432 -0.6006  0.9636
  323MOL0     C43492   9.132  11.681   1.483 -0.0454  0.3055 -0.1709
  323MOL0     C43493   9.190  11.817   1.429  0.9998 -0.6664  0.1488
  323MOL0     O43494   9.132  11.927   1.504 -0.9303  0.1076  1.0862
  323MOL0     C43495   9.213  11.992   1.591  0.2405 -0.1939 -0.4449
  323MOL0     C43496   9.177  12.122   1.627 -0.3256 -0.1219  0.5286
  323MOL0     C43497   9.255  12.196   1.721 -0.3067 -1.1258 -0.1964
  323MOL0     C43498   9.381  12.159   1.757 -0.2851  0.3969 -0.9018
  323MOL0     C43499   9.475  12.244   1.833  0.4009 -0.4300  0.1491
  323MOL0     O43500   9.597  12.206   1.862 -0.6416  1.0735 -1.0694
  323MOL0     C43501   9.658  12.293   1.945  0.5373  0.0508  0.2938
  323MOL0     C43502   9.659  12.274   2.085  0.1255 -0.2398  0.6737
  323MOL0     C43503   9.745  12.354   2.168 -0.0268 -0.5273 -0.0524
  323MOL0     C43504   9.823  12.458   2.115 -0.7968  1.3297  1.2506
  323MOL0     O43505   9.897  12.527   2.203 -0.8553 -0.5517  0.5731
  323MOL0     C43506   9.981  12.629   2.154 -0.3840 -0.6534 -0.3910
  323MOL0     C43507  10.068  12.671   2.270 -0.5140  0.2790 -0.6698
  323MOL0     C43508   9.988  12.739   2.387 -0.2447 -1.3841 -0.5327
  323MOL0     C43509  10.039  12.677   2.524  0.1968 -0.9868  0.1706
  323MOL0     C43510   9.956  12.561   2.572  0.3922  0.8067  0.4025
  323MOL0     C43511  10.049  12.490   2.670  0.5556 -0.5910 -0.1810
  323MOL0     C43512   9.978  12.378   2.742 -0.4168 -0.4483  0.0883
  323MOL0     C43513  10.065  12.278   2.822  0.0196  0.3312 -0.1915
  323MOL0    Cl43514  10.151  12.371   2.956 -0.2795 -0.2423 -0.5116
  323MOL0     C43515   9.806  12.484   1.974  0.5150  0.1762 -0.5842
  323MOL0     C43516   9.726  12.403   1.897  0.3873  0.9990  0.6752
  323MOL0     O43517   9.433  12.361   1.843 -0.0438 -0.6066  0.5388
  323MOL0     C43518   9.417  12.027   1.718 -1.5820 -0.3729  0.2581
  323MOL0     C43519   9.338  11.948   1.640  0.9387 -0.0261 -0.3447
  323MOL0     N43520   8.737  11.492   1.351 -0.5284  0.3867 -0.6511
  323MOL0     N43521   8.685  11.386   1.297 -0.1240 -0.4300  0.7608
  323MOL0     C43522   8.524  10.478   0.413  0.8680  0.2674 -0.2281
  323MOL0     C43523   8.505  10.459   0.268 -0.3097 -0.2337 -0.5130
  323MOL0     C43524   8.389  10.614  -0.177  0.1276  0.4008 -0.7749
  323MOL0     C43525   8.278  10.620  -0.258 -0.6276  1.0006 -0.1535
  323MOL0     C43526   8.272  10.567  -0.391  0.4276  0.9381 -0.8436
  323MOL0     C43527   8.385  10.516  -0.447  0.7228  0.8094 -0.7162
  323MOL0     O43528   8.398  10.439  -0.560  0.5497  0.5389 -0.1463
  323MOL0     C43529   8.267  10.403  -0.621  0.3032 -0.0441  0.2941
  323MOL0     C43530   8.161  10.316  -0.546 -0.4060 -0.7788  0.3342
  323MOL0     C43531   8.205  10.169  -0.507  0.7763 -0.0052  0.3305
  323MOL0     C43532   8.321  10.162  -0.396  0.2317  0.1053  0.0339
  323MOL0     C43533   8.343  10.014  -0.390 -0.2163 -0.3282  0.4291
  323MOL0     C43534   8.371   9.895  -0.396  0.4520  0.1811  0.8372
  323MOL0     C43535   8.500  10.522  -0.372  0.8112 -1.3836 -1.5079
  323MOL0     C43536   8.505  10.578  -0.244 -0.0242 -1.0124  0.0744
  323MOL0     C43537   8.636  10.594  -0.186  0.0570 -0.2747 -0.8145
  323MOL0     H43538   8.521  10.786   0.166  0.2766  2.0496  3.9850
  323MOL0     H43539   8.571  10.819   0.407  2.3577 -0.2801  0.6405
  323MOL0     H43540   8.528  10.834   0.631 -2.4749  0.9882  0.5580
  323MOL0     H43541   8.387  10.727   0.617  1.1611 -2.1095 -1.8164
  323MOL0     H43542   8.572  10.639   0.824 -0.6467 -0.2541  1.4975
  323MOL0     H43543   8.403  10.662   0.841 -0.1226  1.8318  1.0144
  323MOL0     H43544   8.441  10.912   0.857  0.5317  0.0150  2.4338
  323MOL0     H43545   8.613  10.876   0.829 -0.1435 -0.9256 -0.9087
  323MOL0     H43546   8.437  10.784   1.067  0.5040 -0.5539 -0.0024
  323MOL0     H43547   8.604  10.746   1.064  1.0783  0.9629  0.2974
  323MOL0     H43548   8.618  11.022   1.029  1.2137  0.1292  0.5436
  323MOL0     H43549   8.458  11.007   1.095 -0.6541 -1.5008 -4.9669
  323MOL0     H43550   8.564  10.865   1.294 -0.9239  1.3983  1.0365
  323MOL0     H43551   8.715  10.894   1.216  0.2572  1.3820 -5.6471
  323MOL0     H43552   8.644  11.063   1.409 -0.3250 -0.5486  0.4419
  323MOL0     H43553   8.531  11.130   1.281 -1.4852 -1.9052 -1.4018
  323MOL0     H43554   8.838  11.092   1.283  1.3811  1.4316  1.1883
  323MOL0     H43555   8.742  11.163   1.141  1.5719  5.3553  0.5939
  323MOL0     H43556   8.958  11.263   1.425 -0.3901 -0.3485  1.2847
  323MOL0     H43557   8.864  11.604   1.553 -3.6992  0.7291 -3.3791
  323MOL0     H43558   8.993  11.485   1.566  1.7587  0.7186 -0.6354
  323MOL0     H43559   9.055  11.587   1.311 -0.0189 -0.2683  0.7986
  323MOL0     H43560   8.943  11.709   1.369  1.9864  0.8127 -0.5943
  323MOL0     H43561   9.213  11.608   1.482 -0.2403  0.0889 -0.6002
  323MOL0     H43562   9.098  11.696   1.586 -3.3971  0.4598 -1.1795
  323MOL0     H43563   9.171  11.835   1.322 -0.5838  1.2667  0.6935
  323MOL0     H43564   9.298  11.809   1.446  0.8759  0.7305  1.7613
  323MOL0     H43565   9.075  12.145   1.598  0.0291 -0.5360 -1.1170
  323MOL0     H43566   9.219  12.298   1.734  3.4335  0.1691  1.5458
  323MOL0     H43567   9.604  12.193   2.133  1.0690 -1.0872  0.3459
  323MOL0     H43568   9.751  12.321   2.271  0.1929  0.5444  0.2987
  323MOL0     H43569  10.045  12.591   2.073 -0.9494  2.9206 -2.7189
  323MOL0     H43570   9.930  12.717   2.115 -0.5016 -0.5818 -0.0774
  323MOL0     H43571  10.116  12.578   2.302 -1.8974 -0.4822 -0.6810
  323MOL0     H43572  10.148  12.740   2.245 -0.9475  0.8179 -0.6008
  323MOL0     H43573  10.021  12.843   2.393  0.7996 -1.7722  1.2501
  323MOL0     H43574   9.880  12.728   2.385 -0.8495  2.2542  2.0089
  323MOL0     H43575  10.025  12.752   2.602 -0.5573  1.0685 -1.8198
  323MOL0     H43576  10.144  12.655   2.502  0.8482  1.9547 -0.1337
  323MOL0     H43577   9.932  12.493   2.489 -1.2464  0.8415  0.8138
  323MOL0     H43578   9.861  12.593   2.616  0.1169 -0.7145  0.9574
  323MOL0     H43579  10.139  12.452   2.621 -0.3521 -1.7482 -0.9952
  323MOL0     H43580  10.057  12.572   2.742 -3.8318  1.3981 -1.6278
  323MOL0     H43581   9.934  12.325   2.657 -1.1446  2.1381 -1.2581
  323MOL0     H43582   9.898  12.427   2.797  0.0590  0.0325  0.3634
  323MOL0     H43583  10.014  12.199   2.877  1.1492 -0.6293 -0.5043
  323MOL0     H43584  10.138  12.232   2.756  0.1214  0.7135 -0.3485
  323MOL0     H43585   9.848  12.577   1.935  2.1871 -0.2741  0.0671
  323MOL0     H43586   9.718  12.412   1.789 -0.8763 -1.7074  0.4769
  323MOL0     H43587   9.514  12.002   1.760 -1.7017  0.3021  0.9644
  323MOL0     H43588   9.372  11.848   1.618 -0.6238 -1.5990  3.4067
  323MOL0     H43589   8.546  10.396   0.481  2.4314 -0.2251 -1.2571
  323MOL0     H43590   8.504  10.361   0.221  2.1906  0.5171 -2.3488
  323MOL0     H43591   8.198  10.675  -0.209 -0.1407  0.5902  1.1429
  323MOL0     H43592   8.180  10.589  -0.443 -1.4219 -0.3465  1.6757
  323MOL0     H43593   8.295  10.353  -0.714 -1.4369 -1.0594  0.2921
  323MOL0     H43594   8.226  10.501  -0.645 -0.0850  0.9489  4.2784
  323MOL0     H43595   8.076  10.292  -0.612  0.7759 -0.0428 -1.5250
  323MOL0     H43596   8.110  10.359  -0.459 -1.6620 -0.4201 -0.5501
  323MOL0     H43597   8.223  10.129  -0.608 -1.3534  3.6147 -1.7065
  323MOL0     H43598   8.122  10.111  -0.465  1.5072 -0.1884  1.5712
  323MOL0     H43599   8.410  10.210  -0.438  0.6876 -2.1084 -1.7499
  323MOL0     H43600   8.281  10.217  -0.311 -1.9000 -2.3021  0.6949
  323MOL0     H43601   8.389   9.790  -0.407 -0.1835  0.0241  1.3038
  323MOL0     H43602   8.599  10.492  -0.404  1.5616 -0.1617 -0.4335
  323MOL0     H43603   8.705  10.596  -0.271 -0.9972 -1.9108 -1.7791
  323MOL0     H43604   8.660  10.684  -0.129 -1.9312 -1.1847  1.6251
  323MOL0     H43605   8.661  10.507  -0.124 -1.0789 -0.4094 -0.5279
  324MOL0     O43606   4.567   6.875   2.113 -0.8379 -0.2430  0.0204
  324MOL0     C43607   4.530   6.768   2.164  0.4149 -1.1715 -1.0343
  324MOL0     O43608   4.511   6.659   2.093  0.0203 -0.8002 -0.3095
  324MOL0     C43609   4.525   6.657   1.954  0.0683  1.2668  0.1288
  324MOL0     C43610   4.412   6.609   1.894 -0.0745  0.8087  0.5358
  324MOL0     C43611   4.411   6.595   1.751  0.2121  0.4102 -1.5086
  324MOL0     C43612   4.531   6.623   1.675 -0.4229  0.1249  0.5273
  324MOL0     O43613   4.553   6.578   1.547 -0.2235  0.0777  0.5037
  324MOL0     C43614   4.501   6.442   1.519  0.2312 -0.4347 -0.0463
  324MOL0     C43615   4.603   6.371   1.448  0.0421  0.0621  1.0061
  324MOL0     C43616   4.746   6.377   1.502  0.4423  0.0726 -0.6627
  324MOL0     C43617   4.849   6.302   1.426 -1.0815 -0.0790 -0.2230
  324MOL0     C43618   4.926   6.401   1.329 -0.2297  0.2682 -0.4088
  324MOL0     C43619   5.012   6.336   1.225 -0.5262 -0.4112  0.2338
  324MOL0     C43620   5.056   6.443   1.119 -0.5522  0.3913 -0.3963
  324MOL0     C43621   5.160   6.390   1.026 -0.2567  0.5386 -0.4068
  324MOL0     N43622   5.199   6.488   0.927 -0.4977  0.0572  0.0151
  324MOL0     C43623   5.117   6.551   0.840 -0.1265 -0.9077 -1.0548
  324MOL0     C43624   5.196   6.641   0.781 -0.6323 -0.4396  0.1059
  324MOL0     C43625   5.136   6.740   0.682 -0.6573  0.0044 -0.7149
  324MOL0     C43626   5.201   6.875   0.690 -0.1680 -0.2429  0.1076
  324MOL0     C43627   5.106   6.988   0.697 -0.0092 -0.2050  0.1576
  324MOL0     C43628   5.157   7.129   0.724  0.0357 -0.8704 -0.6460
  324MOL0     O43629   5.268   7.178   0.651  0.5224  0.1141  0.2963
  324MOL0     C43630   5.314   7.299   0.654 -1.1881  0.3091 -0.3619
  324MOL0     C43631   5.425   7.321   0.575 -0.3100  0.7024  0.3296
  324MOL0     C43632   5.492   7.443   0.582  0.5617  0.1725  0.8782
  324MOL0     C43633   5.460   7.543   0.668 -0.1893  1.0363  0.4548
  324MOL0     C43634   5.544   7.665   0.672 -0.3174  0.5789 -0.1054
  324MOL0     O43635   5.635   7.686   0.577 -0.8421  0.4023  0.2941
  324MOL0     C43636   5.738   7.778   0.604  0.7759  0.0591 -0.8114
  324MOL0     C43637   5.763   7.881   0.511 -0.1774  0.1265  0.6512
  324MOL0     C43638   5.874   7.964   0.519  0.4992  1.7255  0.1052
  324MOL0     C43639   5.961   7.965   0.628 -0.3112  1.0542 -1.1761
  324MOL0     O43640   6.077   8.040   0.648 -0.7870  0.0323  0.1570
  324MOL0     C43641   6.163   8.052   0.535 -0.0529  0.4625 -0.3194
  324MOL0     C43642   6.279   8.147   0.571 -0.0775 -0.5100 -0.0971
  324MOL0     C43643   6.321   8.164   0.721 -0.8864  0.0661 -1.0140
  324MOL0     C43644   6.433   8.277   0.726  0.6998  0.2478  0.3214
  324MOL0     C43645   6.478   8.314   0.860  0.8926 -0.4308  0.3811
  324MOL0     C43646   6.589   8.417   0.860  0.7509 -0.0471  0.1115
  324MOL0     C43647   6.721   8.356   0.803  0.4707 -1.0612  0.8296
  324MOL0     C43648   6.789   8.437   0.691  0.2767 -0.2272 -0.1621
  324MOL0    Cl43649   6.811   8.606   0.744 -0.4932  0.2989 -0.2048
  324MOL0     C43650   5.919   7.882   0.740  0.3106 -0.2964  0.0687
  324MOL0     C43651   5.810   7.793   0.726 -0.3384  0.1398 -0.8959
  324MOL0     O43652   5.529   7.734   0.770 -0.3968 -0.2997 -0.1294
  324MOL0     C43653   5.346   7.527   0.749 -0.1938  0.2907 -0.0950
  324MOL0     C43654   5.270   7.407   0.733  0.4050 -0.3791  0.6689
  324MOL0     N43655   5.327   6.621   0.827  0.0020  0.2202 -0.8050
  324MOL0     N43656   5.330   6.528   0.914 -0.4203  0.1506 -0.6701
  324MOL0     C43657   4.641   6.683   1.742 -0.5173  0.0114 -0.0501
  324MOL0     C43658   4.633   6.706   1.882 -0.2554 -0.1820 -0.3989
  324MOL0     C43659   4.503   6.746   2.312 -0.4174 -0.6113  0.2292
  324MOL0     C43660   4.432   6.629   2.355  0.2226 -0.0516  0.2415
  324MOL0     C43661   4.399   6.602   2.486  0.4035  0.6470  0.5347
  324MOL0     C43662   4.428   6.702   2.582  0.1816  0.1850  0.2900
  324MOL0     O43663   4.401   6.678   2.712  0.1447  0.2109 -0.0202
  324MOL0     C43664   4.503   6.605   2.776 -0.6485 -0.0115 -0.4859
  324MOL0     C43665   4.452   6.471   2.828  0.4868  0.1688 -0.1402
  324MOL0     C43666   4.312   6.478   2.899 -0.2853  1.2947 -0.2658
  324MOL0     C43667   4.288   6.592   2.998 -0.0549 -0.3270  0.2048
  324MOL0     C43668   4.194   6.536   3.099 -0.4347 -0.2197 -1.2393
  324MOL0     C43669   4.125   6.494   3.190 -0.4531 -0.7096  0.8550
  324MOL0     C43670   4.499   6.815   2.550 -0.4924 -0.5774 -0.8269
  324MOL0     C43671   4.541   6.837   2.416  0.2921  0.8067  0.6734
  324MOL0     C43672   4.599   6.966   2.388  0.1436  0.2042 -0.2853
  324MOL0     H43673   4.329   6.563   1.947  1.0538 -4.4493 -1.6430
  324MOL0     H43674   4.317   6.560   1.710 -1.3375  3.2921 -0.6417
  324MOL0     H43675   4.467   6.395   1.612 -1.4487 -1.1650 -1.0011
  324MOL0     H43676   4.412   6.460   1.458  1.3323 -2.2316 -2.3315
  324MOL0     H43677   4.609   6.417   1.349  0.8189  2.1103  1.9461
  324MOL0     H43678   4.562   6.271   1.432 -1.2103  0.7320 -0.1724
  324MOL0     H43679   4.744   6.325   1.598 -4.4266  1.6465  0.3648
  324MOL0     H43680   4.779   6.479   1.523 -0.6290  0.1038  1.1022
  324MOL0     H43681   4.920   6.261   1.498  1.3116  4.6821  0.4799
  324MOL0     H43682   4.805   6.226   1.360 -1.5403  1.2050 -1.4427
  324MOL0     H43683   4.840   6.449   1.282 -1.7652 -0.9096  1.0608
  324MOL0     H43684   4.973   6.481   1.388 -0.5703 -1.8300  2.9906
  324MOL0     H43685   5.096   6.293   1.282  0.2553  2.3744  1.3659
  324MOL0     H43686   4.957   6.265   1.162  0.4516 -0.3966 -0.6591
  324MOL0     H43687   5.099   6.530   1.169 -0.1237  0.2895 -0.5816
  324MOL0     H43688   4.963   6.467   1.068 -0.7318  1.8075  0.5481
  324MOL0     H43689   5.245   6.363   1.089  1.3468  1.9602 -1.8791
  324MOL0     H43690   5.110   6.296   1.000 -3.6282  1.3687  2.3517
  324MOL0     H43691   5.011   6.530   0.832 -0.2159 -2.1288  1.8865
  324MOL0     H43692   5.150   6.707   0.579 -1.9536 -1.4206 -0.4596
  324MOL0     H43693   5.027   6.747   0.686 -0.5397  1.5603  1.7092
  324MOL0     H43694   5.267   6.886   0.776 -1.2620 -1.7456  1.2131
  324MOL0     H43695   5.268   6.902   0.608  0.0740  2.6892  1.1431
  324MOL0     H43696   5.036   6.966   0.777 -1.3579  1.6801 -0.4321
  324MOL0     H43697   5.058   6.998   0.599 -0.5625  1.0508  0.5375
  324MOL0     H43698   5.185   7.137   0.830  1.3949 -0.0750 -1.0289
  324MOL0     H43699   5.076   7.202   0.718 -0.1104 -0.9475  0.2362
  324MOL0     H43700   5.448   7.241   0.506 -3.5400  0.1821 -0.2847
  324MOL0     H43701   5.582   7.462   0.525  1.6282  1.3376  2.8375
  324MOL0     H43702   5.699   7.890   0.423 -3.3186 -2.2773  2.4727
  324MOL0     H43703   5.888   8.009   0.421  1.0168 -1.8759 -1.6463
  324MOL0     H43704   6.212   7.960   0.503 -0.0545  0.6997 -1.0263
  324MOL0     H43705   6.107   8.094   0.452 -2.1922  2.0011  1.7544
  324MOL0     H43706   6.358   8.103   0.509  1.9644  1.1548  1.1681
  324MOL0     H43707   6.256   8.246   0.531 -0.8493  0.3307  2.2860
  324MOL0     H43708   6.239   8.210   0.778 -0.1993 -2.3499  2.2042
  324MOL0     H43709   6.362   8.071   0.762  0.7253  2.0548  2.3570
  324MOL0     H43710   6.390   8.368   0.683 -0.9535 -1.5412 -2.0778
  324MOL0     H43711   6.524   8.247   0.672 -1.2563 -1.8216 -2.1042
  324MOL0     H43712   6.516   8.227   0.913 -0.9984 -0.9196  1.0162
  324MOL0     H43713   6.392   8.350   0.917  0.5494  0.5362 -0.6922
  324MOL0     H43714   6.556   8.514   0.822 -2.9540  0.3009  3.4943
  324MOL0     H43715   6.600   8.442   0.966 -2.7443 -1.5382  0.9744
  324MOL0     H43716   6.720   8.251   0.773  0.2683 -1.2316  1.4122
  324MOL0     H43717   6.786   8.360   0.891  0.0599  3.1584  1.1438
  324MOL0     H43718   6.885   8.391   0.669  1.3014  1.2045  1.1201
  324MOL0     H43719   6.731   8.439   0.598  1.8428 -3.3679 -1.3407
  324MOL0     H43720   5.964   7.884   0.839 -0.1303  1.1250  0.2643
  324MOL0     H43721   5.782   7.725   0.806 -0.8421  0.6151 -0.6607
  324MOL0     H43722   5.315   7.590   0.831 -1.4847  2.8545 -2.3562
  324MOL0     H43723   5.181   7.392   0.794  0.3459  2.6410  1.5087
  324MOL0     H43724   4.732   6.711   1.691 -0.7598  1.0827  0.0606
  324MOL0     H43725   4.710   6.768   1.925 -2.4257  1.6865  1.0130
  324MOL0     H43726   4.415   6.546   2.287 -1.4049  0.9306 -0.6128
  324MOL0     H43727   4.352   6.509   2.516  3.3101 -2.2878 -2.9544
  324MOL0     H43728   4.531   6.664   2.863  1.0968  1.3565 -1.8905
  324MOL0     H43729   4.589   6.578   2.713 -0.8541  1.2932 -1.3659
  324MOL0     H43730   4.527   6.428   2.895 -1.5070 -1.0335  1.4568
  324MOL0     H43731   4.440   6.398   2.747 -1.3495 -0.1320  0.3439
  324MOL0     H43732   4.296   6.383   2.951 -1.4251  2.7301  2.1645
  324MOL0     H43733   4.235   6.489   2.821  0.5882  0.7567 -1.2275
  324MOL0     H43734   4.385   6.622   3.039  1.0106  0.2632 -2.5069
  324MOL0     H43735   4.262   6.682   2.941  0.1861 -1.0643 -1.1106
  324MOL0     H43736   4.049   6.453   3.253  2.2403 -3.8256  2.3793
  324MOL0     H43737   4.518   6.888   2.628  2.9763 -1.9066 -0.2624
  324MOL0     H43738   4.625   7.012   2.485  1.4639 -0.7106 -0.1729
  324MOL0     H43739   4.693   6.967   2.332  0.4246  4.6523 -0.0892
  324MOL0     H43740   4.528   7.037   2.345 -1.9440 -0.2122  2.2556
  325MOL0     O43741   0.054   2.585   5.800 -0.3186  0.6696 -0.4927
  325MOL0     C43742  -0.063   2.565   5.840 -0.3648  0.2379  0.2623
  325MOL0     O43743  -0.133   2.656   5.909  0.4008 -0.1659  0.5008
  325MOL0     C43744  -0.065   2.772   5.930  0.1649  0.2003 -0.5929
  325MOL0     C43745  -0.095   2.880   5.847  0.3351  0.7824 -0.4021
  325MOL0     C43746  -0.027   2.996   5.857 -0.1346  0.3666  1.3488
  325MOL0     C43747   0.071   3.019   5.954 -0.0679 -0.2402  0.0679
  325MOL0     O43748   0.150   3.129   5.962 -0.0329 -0.2037  0.0364
  325MOL0     C43749   0.152   3.224   5.855  0.1938 -0.1790  1.1768
  325MOL0     C43750   0.211   3.163   5.730 -0.6444 -0.2965 -0.5672
  325MOL0     C43751   0.358   3.128   5.755  0.6061 -0.0274  1.2499
  325MOL0     C43752   0.394   2.978   5.736  0.4696  0.0707 -0.8461
  325MOL0     C43753   0.365   2.919   5.600  0.0922  1.0374 -0.1897
  325MOL0     C43754   0.463   2.973   5.496  0.2139 -1.1667  0.3978
  325MOL0     C43755   0.418   2.922   5.360 -0.0132  0.3143  0.4706
  325MOL0     C43756   0.509   2.972   5.241 -0.0876  0.0116  0.6004
  325MOL0     N43757   0.430   2.938   5.121  0.7168 -0.7726  0.2651
  325MOL0     C43758   0.431   2.819   5.056 -0.1616 -0.5137 -0.2570
  325MOL0     C43759   0.332   2.828   4.960 -0.4127 -0.3585  0.5742
  325MOL0     C43760   0.284   2.726   4.856  0.1044  0.1069  0.3783
  325MOL0     C43761   0.353   2.747   4.722  0.5903 -0.4067  0.7109
  325MOL0     C43762   0.510   2.736   4.736  0.1249 -0.2853 -0.2656
  325MOL0     C43763   0.564   2.646   4.626  0.2650 -0.1063  0.0076
  325MOL0     O43764   0.524   2.690   4.495 -0.5372  0.4611  0.7023
  325MOL0     C43765   0.520   2.602   4.382  0.2271 -0.4561 -0.4076
  325MOL0     C43766   0.505   2.656   4.261 -0.0614 -0.0509  0.0601
  325MOL0     C43767   0.500   2.579   4.144  0.0113  0.1659 -0.9595
  325MOL0     C43768   0.514   2.431   4.159 -0.7824 -0.6213 -0.6470
  325MOL0     C43769   0.517   2.348   4.040 -1.0336 -0.2373 -0.1747
  325MOL0     O43770   0.460   2.400   3.931 -0.8386  0.2582 -0.2381
  325MOL0     C43771   0.479   2.338   3.810  0.4480 -0.1491  0.1205
  325MOL0     C43772   0.610   2.313   3.755  0.2568 -0.7545 -0.9176
  325MOL0     C43773   0.628   2.270   3.617  0.0959  0.5299 -0.4804
  325MOL0     C43774   0.513   2.240   3.541 -0.0870  0.3753  0.3980
  325MOL0     O43775   0.525   2.209   3.403  0.4242  0.0909 -0.1257
  325MOL0     C43776   0.633   2.117   3.364  0.1184 -0.7450  0.0849
  325MOL0     C43777   0.613   1.973   3.398  0.3711  0.0939 -1.2000
  325MOL0     C43778   0.496   1.922   3.312 -0.9538 -0.2600 -0.0408
  325MOL0     C43779   0.544   1.845   3.181 -0.1607 -0.1836  0.3184
  325MOL0     C43780   0.436   1.770   3.097  0.3981  0.4214 -0.6187
  325MOL0     C43781   0.445   1.614   3.098  0.5496  0.6007 -0.4835
  325MOL0     C43782   0.355   1.569   2.977  0.8911  0.1259  0.0340
  325MOL0     C43783   0.435   1.570   2.843  0.8373 -0.1032  0.0703
  325MOL0    Cl43784   0.327   1.559   2.702 -0.0882  0.3170 -0.2118
  325MOL0     C43785   0.386   2.261   3.593 -0.7037  0.7046  0.2873
  325MOL0     C43786   0.373   2.304   3.723 -0.9015 -0.6855 -0.9644
  325MOL0     O43787   0.565   2.236   4.054  0.5843 -0.7465  0.0483
  325MOL0     C43788   0.540   2.376   4.285  1.2781  0.7218  0.3901
  325MOL0     C43789   0.532   2.458   4.397 -0.2631  0.3886 -0.2224
  325MOL0     N43790   0.277   2.957   4.963 -0.5358  0.1626 -0.6280
  325MOL0     N43791   0.335   3.021   5.061  0.3370  0.0895  0.1440
  325MOL0     C43792   0.087   2.916   6.040  0.6766  0.6757  0.2585
  325MOL0     C43793   0.022   2.799   6.036 -0.0191  0.2542 -0.5046
  325MOL0     C43794  -0.116   2.431   5.822  0.0576  0.3249  0.4887
  325MOL0     C43795  -0.078   2.358   5.700 -0.4095 -0.1066 -0.0069
  325MOL0     C43796  -0.135   2.236   5.671 -0.2205  0.1401  0.4319
  325MOL0     C43797  -0.220   2.175   5.763  0.1933  0.5035 -0.8780
  325MOL0     O43798  -0.252   2.036   5.757 -0.4985 -0.4200  0.0589
  325MOL0     C43799  -0.321   2.000   5.641  0.5241  0.2935  0.8506
  325MOL0     C43800  -0.318   1.842   5.632 -0.1676 -0.7128  0.2114
  325MOL0     C43801  -0.183   1.774   5.622  0.2966 -0.2101 -0.9426
  325MOL0     C43802  -0.203   1.624   5.608 -0.2504  0.0160 -0.7232
  325MOL0     C43803  -0.072   1.555   5.623 -0.6579  0.5126  0.2191
  325MOL0     C43804   0.037   1.498   5.629 -0.6110 -0.5414  0.5135
  325MOL0     C43805  -0.273   2.262   5.866  0.3810  0.4143  0.3976
  325MOL0     C43806  -0.224   2.384   5.896 -1.4744  0.0851 -0.8942
  325MOL0     C43807  -0.274   2.437   6.032 -0.3663 -0.5192  0.1728
  325MOL0     H43808  -0.166   2.864   5.766  3.1347  1.8029 -3.2401
  325MOL0     H43809  -0.043   3.064   5.773  0.6297 -1.4193 -0.3335
  325MOL0     H43810   0.052   3.266   5.837  1.1489  1.9062  0.3132
  325MOL0     H43811   0.208   3.314   5.882 -1.4402  0.6760  1.8159
  325MOL0     H43812   0.208   3.236   5.648  0.8180  3.3161  2.3206
  325MOL0     H43813   0.150   3.083   5.687 -1.5605  1.3017 -2.3910
  325MOL0     H43814   0.400   3.171   5.846 -0.3023  4.7598 -0.3372
  325MOL0     H43815   0.421   3.178   5.681 -1.0238 -1.8999 -1.5934
  325MOL0     H43816   0.500   2.958   5.754  1.0089  2.1985 -1.4037
  325MOL0     H43817   0.347   2.924   5.819  1.3240  0.7373  0.0812
  325MOL0     H43818   0.392   2.813   5.595  0.0440  0.9990  0.3672
  325MOL0     H43819   0.261   2.929   5.567  0.7784 -0.3701 -3.1454
  325MOL0     H43820   0.467   3.081   5.480 -1.6301 -1.4124 -2.6537
  325MOL0     H43821   0.566   2.943   5.514  0.9282  0.5611 -0.5198
  325MOL0     H43822   0.320   2.967   5.338 -0.8299  0.0298  3.1700
  325MOL0     H43823   0.394   2.815   5.364  0.8308  0.0936 -0.0951
  325MOL0     H43824   0.539   3.077   5.247  0.6501 -0.1034 -0.8164
  325MOL0     H43825   0.605   2.920   5.235  0.5112  1.2741 -1.8353
  325MOL0     H43826   0.491   2.732   5.080 -0.9874 -1.7320 -2.3959
  325MOL0     H43827   0.307   2.624   4.889  1.6007  0.8113  1.6696
  325MOL0     H43828   0.175   2.741   4.849  0.2527  1.2335  0.2515
  325MOL0     H43829   0.319   2.673   4.649  0.9196  0.1180  0.0130
  325MOL0     H43830   0.328   2.846   4.684 -0.8526 -1.2942 -0.7935
  325MOL0     H43831   0.555   2.709   4.832  1.2307  0.3854 -0.5883
  325MOL0     H43832   0.542   2.840   4.732 -0.5281 -0.1097 -1.8259
  325MOL0     H43833   0.553   2.540   4.650  3.7425 -0.4139  0.8815
  325MOL0     H43834   0.673   2.658   4.625  0.6859 -2.2900 -4.2894
  325MOL0     H43835   0.506   2.764   4.260 -0.4436 -0.0459 -0.1228
  325MOL0     H43836   0.474   2.629   4.051  1.0971  0.6168 -1.0400
  325MOL0     H43837   0.693   2.336   3.820 -0.1300 -0.9452 -0.3504
  325MOL0     H43838   0.732   2.251   3.590  1.5997  0.0863  4.5411
  325MOL0     H43839   0.651   2.124   3.256  2.4581  0.0047  0.4607
  325MOL0     H43840   0.724   2.160   3.406 -0.3126 -1.1726  1.5079
  325MOL0     H43841   0.702   1.915   3.372  0.4243 -0.6330  0.4425
  325MOL0     H43842   0.598   1.956   3.505 -1.1094  1.8852 -1.0689
  325MOL0     H43843   0.431   1.857   3.369 -3.3516  0.7523 -1.4779
  325MOL0     H43844   0.422   1.999   3.287 -0.0497  0.2371 -1.3780
  325MOL0     H43845   0.624   1.777   3.209 -1.3471 -2.7516 -2.0960
  325MOL0     H43846   0.590   1.920   3.117 -1.2894  0.2999  0.0481
  325MOL0     H43847   0.433   1.809   2.995  1.3899  0.7753 -0.5220
  325MOL0     H43848   0.340   1.787   3.147  0.6030 -2.4891  0.9852
  325MOL0     H43849   0.552   1.592   3.089  0.3436 -1.8754  1.7907
  325MOL0     H43850   0.405   1.559   3.183  1.1548 -2.6453 -2.1372
  325MOL0     H43851   0.268   1.632   2.957 -1.7195 -3.1569  0.1802
  325MOL0     H43852   0.312   1.468   2.985 -1.6869  1.0619 -1.0958
  325MOL0     H43853   0.503   1.657   2.843  0.9882 -0.2215  0.2832
  325MOL0     H43854   0.491   1.477   2.857 -0.0766 -0.3100  3.0181
  325MOL0     H43855   0.290   2.266   3.544 -0.7144  4.6258  0.4204
  325MOL0     H43856   0.270   2.325   3.752 -0.8710 -2.1749  0.3931
  325MOL0     H43857   0.559   2.269   4.281 -0.9728  0.2850  0.1956
  325MOL0     H43858   0.566   2.406   4.486 -0.4439  2.2665  0.9783
  325MOL0     H43859   0.154   2.928   6.125  2.5442 -1.4116 -0.7910
  325MOL0     H43860   0.029   2.721   6.111  0.7885  0.6099 -0.1962
  325MOL0     H43861  -0.008   2.398   5.628 -0.7961  1.9117  0.6523
  325MOL0     H43862  -0.106   2.203   5.572 -1.3384 -0.8913  0.4313
  325MOL0     H43863  -0.281   2.050   5.552  0.2548  1.7876  1.5415
  325MOL0     H43864  -0.424   2.037   5.654 -0.7596 -3.0286  1.1140
  325MOL0     H43865  -0.369   1.832   5.536  0.8359  3.1294 -0.8930
  325MOL0     H43866  -0.379   1.809   5.717  0.1229 -0.2088  0.6249
  325MOL0     H43867  -0.124   1.793   5.711  0.2763  0.0340 -0.9814
  325MOL0     H43868  -0.127   1.818   5.540 -1.0194  5.2513  0.7018
  325MOL0     H43869  -0.271   1.601   5.691 -1.9226  0.5099 -1.8910
  325MOL0     H43870  -0.246   1.594   5.512 -0.5884  1.3419 -1.0054
  325MOL0     H43871   0.130   1.452   5.651 -0.5822 -0.2611  0.9989
  325MOL0     H43872  -0.336   2.208   5.936 -1.2568  1.0458 -0.5188
  325MOL0     H43873  -0.367   2.494   6.024 -0.3983 -0.5200  0.5320
  325MOL0     H43874  -0.293   2.351   6.098 -0.6603  0.3605  1.2655
  325MOL0     H43875  -0.208   2.501   6.092 -2.0684 -0.3775  1.9939
  326MOL0     O43876   0.160   1.800   1.353  0.3906  0.7062  0.6403
  326MOL0     C43877   0.081   1.805   1.433  1.1032  1.1239 -0.2705
  326MOL0     O43878   0.087   1.729   1.548 -1.2264  0.8180 -0.5335
  326MOL0     C43879   0.201   1.677   1.613 -0.0074  0.5044 -0.2973
  326MOL0     C43880   0.331   1.697   1.581 -0.2318  0.3746  0.2928
  326MOL0     C43881   0.430   1.623   1.651 -1.0303 -0.0213 -0.5241
  326MOL0     C43882   0.395   1.561   1.776  0.0496  0.5286  0.0048
  326MOL0     O43883   0.485   1.509   1.873  0.4804 -0.1102 -0.0310
  326MOL0     C43884   0.626   1.530   1.862  0.4352  0.5945  0.0760
  326MOL0     C43885   0.659   1.674   1.917 -0.7342  0.5044 -0.7029
  326MOL0     C43886   0.779   1.720   1.834 -0.3712 -0.2228  0.6713
  326MOL0     C43887   0.904   1.637   1.872  0.6699 -0.0846  0.0365
  326MOL0     C43888   1.025   1.726   1.881 -0.1997 -0.1340 -0.0295
  326MOL0     C43889   1.061   1.815   1.764 -0.5115  0.4725  0.0742
  326MOL0     C43890   1.114   1.712   1.653  0.0612 -0.9518 -0.0004
  326MOL0     C43891   1.193   1.780   1.547 -0.1894 -0.4647  0.1673
  326MOL0     N43892   1.097   1.839   1.442  0.2539 -0.3561  0.3514
  326MOL0     C43893   0.994   1.764   1.375 -0.5065 -0.2949 -0.2608
  326MOL0     C43894   0.917   1.866   1.320  0.9338  0.6888  0.1853
  326MOL0     C43895   0.798   1.846   1.228 -0.9199 -0.5038 -0.2695
  326MOL0     C43896   0.658   1.843   1.306  0.6723 -0.0999  0.5334
  326MOL0     C43897   0.582   1.981   1.319  0.9378 -0.3005  0.0366
  326MOL0     C43898   0.625   2.071   1.449 -0.1114  0.3705  0.1582
  326MOL0     O43899   0.599   2.021   1.578 -0.5463  0.5704 -0.4234
  326MOL0     C43900   0.666   2.084   1.687  0.9595  0.0493 -0.0010
  326MOL0     C43901   0.594   2.045   1.811 -0.8392  0.4635  0.3709
  326MOL0     C43902   0.652   2.089   1.928 -0.4334 -0.2078  0.3185
  326MOL0     C43903   0.763   2.166   1.927  1.1905 -0.2049  0.1200
  326MOL0     C43904   0.819   2.212   2.062  0.4115 -1.0670  0.1707
  326MOL0     O43905   0.721   2.222   2.153  0.5048  0.5097 -0.3646
  326MOL0     C43906   0.741   2.287   2.273 -0.1499 -1.1034  0.5227
  326MOL0     C43907   0.773   2.430   2.283  1.1335  0.3745 -0.2854
  326MOL0     C43908   0.754   2.489   2.413  0.6639 -0.0392  0.0379
  326MOL0     C43909   0.710   2.420   2.525 -0.3998  0.9129  0.7726
  326MOL0     O43910   0.678   2.475   2.648 -0.4691 -0.0998  0.6424
  326MOL0     C43911   0.752   2.587   2.694 -0.0167  0.6153 -0.6931
  326MOL0     C43912   0.892   2.542   2.746 -0.4549  0.1459 -0.1430
  326MOL0     C43913   0.988   2.656   2.805 -0.4604 -0.4552  0.6222
  326MOL0     C43914   1.082   2.588   2.908  0.6844 -0.1499  0.6909
  326MOL0     C43915   1.214   2.669   2.918 -0.0991 -0.7736  1.1829
  326MOL0     C43916   1.309   2.630   3.027 -0.3244  0.1053 -0.4458
  326MOL0     C43917   1.327   2.472   3.033 -0.9967 -0.0290 -0.1298
  326MOL0     C43918   1.442   2.437   3.133  0.3743 -0.1773 -0.0777
  326MOL0    Cl43919   1.589   2.402   3.028  0.0833  0.0768 -0.5658
  326MOL0     C43920   0.702   2.277   2.519 -0.0275 -0.0524 -0.4465
  326MOL0     C43921   0.708   2.215   2.394 -0.3583 -0.5296  1.1457
  326MOL0     O43922   0.940   2.233   2.076  0.7297  0.1685 -0.4457
  326MOL0     C43923   0.817   2.219   1.813  0.4075 -0.4216 -1.0332
  326MOL0     C43924   0.771   2.178   1.693  0.2725 -0.6963  0.3281
  326MOL0     N43925   0.965   1.985   1.345 -0.1196  0.1201  0.2628
  326MOL0     N43926   1.065   1.973   1.430  0.6879 -0.4038  0.4060
  326MOL0     C43927   0.267   1.546   1.812  0.3740 -0.6909  0.1256
  326MOL0     C43928   0.165   1.612   1.730 -0.3589 -0.2755  0.2003
  326MOL0     C43929  -0.031   1.897   1.415  0.2764  1.4548  0.9919
  326MOL0     C43930  -0.124   1.891   1.517  0.9362  0.4089  0.1636
  326MOL0     C43931  -0.248   1.954   1.510 -0.1689  0.7321  1.4440
  326MOL0     C43932  -0.286   2.032   1.405  0.1335  0.1816 -0.6516
  326MOL0     O43933  -0.404   2.086   1.429 -0.2009 -0.3267  0.3310
  326MOL0     C43934  -0.449   2.175   1.321 -0.2243  0.4297  1.2855
  326MOL0     C43935  -0.594   2.221   1.345  0.3648 -0.3746 -0.1926
  326MOL0     C43936  -0.628   2.309   1.468 -0.7032  0.4193  0.4252
  326MOL0     C43937  -0.647   2.235   1.598  0.9500 -0.0062 -1.1373
  326MOL0     C43938  -0.712   2.317   1.702 -0.1970 -0.4970  0.0068
  326MOL0     C43939  -0.748   2.368   1.808  0.0918 -0.6206  0.0855
  326MOL0     C43940  -0.186   2.047   1.300  0.0738 -0.0155 -0.2262
  326MOL0     C43941  -0.065   1.978   1.302 -0.0405 -0.1427 -1.0566
  326MOL0     C43942   0.032   1.990   1.194 -0.1849 -0.5655 -0.4299
  326MOL0     H43943   0.361   1.730   1.482  2.1316 -0.4411  0.6679
  326MOL0     H43944   0.535   1.621   1.624 -0.9451  0.5080 -0.2566
  326MOL0     H43945   0.682   1.465   1.930  2.6601  1.5253 -0.7856
  326MOL0     H43946   0.664   1.514   1.761  0.2235  0.6537 -0.0151
  326MOL0     H43947   0.684   1.676   2.024 -2.0325 -0.9667 -0.3391
  326MOL0     H43948   0.573   1.740   1.903 -0.0002  1.1893 -2.2219
  326MOL0     H43949   0.795   1.828   1.846  2.4996 -0.3409 -1.2152
  326MOL0     H43950   0.767   1.716   1.726  1.9456  0.2714  0.3465
  326MOL0     H43951   0.880   1.583   1.963  0.5992 -0.0042  0.0657
  326MOL0     H43952   0.913   1.560   1.794 -0.4432  0.4353 -0.6389
  326MOL0     H43953   1.020   1.786   1.973 -3.2937 -1.0245  0.5047
  326MOL0     H43954   1.113   1.662   1.889 -0.2354 -0.4641 -1.8428
  326MOL0     H43955   0.972   1.868   1.729 -1.1511 -1.0604 -0.7059
  326MOL0     H43956   1.135   1.889   1.797 -0.8431 -0.2774  2.7652
  326MOL0     H43957   1.024   1.669   1.607 -0.4047  1.7007 -1.8835
  326MOL0     H43958   1.177   1.633   1.693 -1.5652 -1.4020  1.7941
  326MOL0     H43959   1.261   1.856   1.588  0.0993 -0.9055  0.5231
  326MOL0     H43960   1.256   1.710   1.492  0.3236 -0.6202  0.9283
  326MOL0     H43961   0.979   1.657   1.373 -1.8080 -0.1534 -3.2620
  326MOL0     H43962   0.803   1.923   1.151 -0.8509 -0.3997 -0.1616
  326MOL0     H43963   0.801   1.747   1.182  2.1460 -1.5057  1.7667
  326MOL0     H43964   0.589   1.781   1.248 -0.7318  2.1657 -0.3437
  326MOL0     H43965   0.679   1.789   1.399  1.2794 -3.0444 -1.1937
  326MOL0     H43966   0.474   1.970   1.306  1.2378 -0.5655 -3.2213
  326MOL0     H43967   0.601   2.049   1.235 -2.0818 -0.2651 -0.7285
  326MOL0     H43968   0.560   2.158   1.440  0.7137  0.8199 -1.8602
  326MOL0     H43969   0.731   2.089   1.432  0.1536 -1.0916  0.0825
  326MOL0     H43970   0.510   1.976   1.816 -0.4638 -0.0090  0.1799
  326MOL0     H43971   0.600   2.080   2.023 -2.2659 -1.0321 -0.7171
  326MOL0     H43972   0.825   2.485   2.205  0.6337  1.2844  0.0121
  326MOL0     H43973   0.757   2.595   2.437 -3.6606  0.1580  0.6319
  326MOL0     H43974   0.759   2.670   2.622 -0.9284  3.0071  1.8146
  326MOL0     H43975   0.699   2.618   2.784  0.5256 -0.0993 -0.1177
  326MOL0     H43976   0.870   2.463   2.818 -1.4390 -1.0620 -1.7144
  326MOL0     H43977   0.943   2.500   2.660  0.9216  2.3060 -0.4612
  326MOL0     H43978   1.044   2.702   2.723 -1.5330  2.7450  1.5520
  326MOL0     H43979   0.925   2.728   2.858 -3.2027 -1.8562 -0.5723
  326MOL0     H43980   1.105   2.492   2.860 -4.0113 -0.2352 -2.0517
  326MOL0     H43981   1.033   2.586   3.006  0.4384  4.1266  0.8631
  326MOL0     H43982   1.179   2.773   2.930 -0.0281 -0.5862 -0.0609
  326MOL0     H43983   1.273   2.660   2.827  0.6885 -3.3596  1.8872
  326MOL0     H43984   1.406   2.669   2.998 -0.6640  0.5022 -1.0746
  326MOL0     H43985   1.273   2.671   3.122  0.4860  0.9430 -0.4833
  326MOL0     H43986   1.341   2.436   2.930  1.3325 -2.8343  1.0404
  326MOL0     H43987   1.233   2.438   3.076  0.2503 -0.8366  2.0872
  326MOL0     H43988   1.457   2.500   3.221  2.9070 -0.4420 -0.2281
  326MOL0     H43989   1.410   2.342   3.176 -0.6892 -0.5248 -1.5689
  326MOL0     H43990   0.692   2.230   2.616 -1.2907 -0.7742 -0.9078
  326MOL0     H43991   0.693   2.108   2.407 -4.0113 -0.0924  1.7529
  326MOL0     H43992   0.908   2.277   1.805  0.5048 -0.8486 -4.6229
  326MOL0     H43993   0.824   2.215   1.607 -1.3652  2.8989  0.6926
  326MOL0     H43994   0.246   1.518   1.915 -2.8403 -0.0769 -0.2512
  326MOL0     H43995   0.061   1.622   1.759 -1.0385 -0.3688 -2.0373
  326MOL0     H43996  -0.103   1.836   1.608 -1.1623  1.4783  1.3750
  326MOL0     H43997  -0.312   1.932   1.595  3.3345 -4.3561  3.2345
  326MOL0     H43998  -0.445   2.122   1.225 -0.3836  0.2656  1.3672
  326MOL0     H43999  -0.373   2.253   1.322  0.0676  0.1657  0.5166
  326MOL0     H44000  -0.667   2.139   1.347 -1.6324  1.3387  0.6413
  326MOL0     H44001  -0.627   2.279   1.258 -0.1974  0.1704  0.3783
  326MOL0     H44002  -0.721   2.362   1.446  0.2507  1.4317 -1.4407
  326MOL0     H44003  -0.558   2.392   1.482 -0.7791  0.4435  0.6740
  326MOL0     H44004  -0.715   2.150   1.589 -2.3970  2.3907 -0.4000
  326MOL0     H44005  -0.558   2.188   1.640 -0.5551 -0.0312  2.3685
  326MOL0     H44006  -0.769   2.405   1.906  1.8737  0.7478  0.0142
  326MOL0     H44007  -0.223   2.108   1.219 -3.6862 -1.0241  0.5435
  326MOL0     H44008   0.013   2.074   1.126 -0.5016  0.8612  1.3485
  326MOL0     H44009   0.130   2.002   1.242 -0.4730 -0.6526  0.1761
  326MOL0     H44010   0.046   1.902   1.131 -0.5397 -2.8070  2.4456
  327MOL0     O44011   0.541   9.160   0.982 -0.5861  0.5739 -0.1527
  327MOL0     C44012   0.511   9.277   0.957 -1.0213 -0.0098  0.7464
  327MOL0     O44013   0.581   9.394   0.997 -0.3191  0.4110 -0.0964
  327MOL0     C44014   0.702   9.372   1.051 -0.3162 -0.3681 -1.1739
  327MOL0     C44015   0.707   9.314   1.179  0.7316 -0.9013 -1.0277
  327MOL0     C44016   0.827   9.271   1.234  0.2823 -0.1309  0.3553
  327MOL0     C44017   0.944   9.313   1.180 -0.4854 -0.3767 -0.8699
  327MOL0     O44018   1.065   9.279   1.233  0.3416 -0.4563 -0.2732
  327MOL0     C44019   1.171   9.249   1.134  0.7764  0.6874 -0.4899
  327MOL0     C44020   1.280   9.162   1.215 -0.8421 -0.4566 -0.2708
  327MOL0     C44021   1.390   9.247   1.278  0.4083 -0.6435  0.2900
  327MOL0     C44022   1.512   9.168   1.329  0.5633  0.1503  0.9710
  327MOL0     C44023   1.482   9.094   1.462  0.0942  1.1674  0.6368
  327MOL0     C44024   1.599   9.059   1.554  1.1836 -0.4634  0.7179
  327MOL0     C44025   1.572   8.985   1.683  0.4261  0.0238  0.2895
  327MOL0     C44026   1.699   8.934   1.763 -0.2469 -0.2838 -0.4393
  327MOL0     N44027   1.660   8.872   1.885  0.1328 -0.3776  0.6275
  327MOL0     C44028   1.624   8.738   1.905  0.8152  0.4926 -0.5922
  327MOL0     C44029   1.604   8.732   2.039 -0.8364 -0.4902 -0.4624
  327MOL0     C44030   1.565   8.608   2.113 -0.0033 -0.7552  0.3098
  327MOL0     C44031   1.676   8.513   2.124  0.4989  0.5672 -0.0542
  327MOL0     C44032   1.768   8.567   2.237  0.2062  0.4010 -0.9293
  327MOL0     C44033   1.891   8.480   2.238  0.0297 -0.2543 -0.4940
  327MOL0     O44034   1.860   8.361   2.305 -0.4006 -0.2326  0.5414
  327MOL0     C44035   1.876   8.344   2.437  0.0859 -0.9583 -0.4676
  327MOL0     C44036   1.884   8.450   2.531 -0.9618  0.3961  0.5790
  327MOL0     C44037   1.881   8.435   2.666  0.1804  0.1735 -0.3957
  327MOL0     C44038   1.860   8.306   2.713  0.7544  0.2152 -0.0702
  327MOL0     C44039   1.855   8.290   2.858  0.4818  0.6497  0.2492
  327MOL0     O44040   1.863   8.392   2.934 -0.2130 -0.3935  0.3583
  327MOL0     C44041   1.847   8.381   3.071 -0.0678 -0.5340  0.3778
  327MOL0     C44042   1.783   8.283   3.150  0.5209 -0.8014  0.0826
  327MOL0     C44043   1.777   8.294   3.292  0.4671  1.0435 -1.0063
  327MOL0     C44044   1.829   8.404   3.366 -0.5098  0.4069  0.1688
  327MOL0     O44045   1.826   8.408   3.496  1.2792  0.1817 -0.6449
  327MOL0     C44046   1.907   8.299   3.553 -0.2532  0.0904  0.8573
  327MOL0     C44047   1.946   8.331   3.702  0.7376 -0.0240  0.1189
  327MOL0     C44048   1.822   8.328   3.795  0.1450  1.3409 -0.6634
  327MOL0     C44049   1.865   8.263   3.931 -0.7408  0.2339 -0.4525
  327MOL0     C44050   1.761   8.286   4.046  0.4710 -0.8916  0.1320
  327MOL0     C44051   1.797   8.230   4.181  0.8401 -0.8947  0.0584
  327MOL0     C44052   1.723   8.310   4.289  0.0622 -1.3135  0.2460
  327MOL0     C44053   1.708   8.223   4.412  0.0234  0.3130  0.4604
  327MOL0    Cl44054   1.635   8.327   4.537 -0.3669 -0.0521  0.2714
  327MOL0     C44055   1.899   8.501   3.280 -0.4987  0.0579 -0.0867
  327MOL0     C44056   1.910   8.488   3.145  0.1166 -0.7954  0.3296
  327MOL0     O44057   1.875   8.171   2.891  0.1075  0.0239  0.2946
  327MOL0     C44058   1.828   8.193   2.625 -0.0572 -0.6601  1.1945
  327MOL0     C44059   1.833   8.220   2.488  0.4002  0.2062 -0.4262
  327MOL0     N44060   1.640   8.861   2.098 -0.9632  0.3652 -0.0444
  327MOL0     N44061   1.680   8.932   2.000 -0.7026  0.7548  0.2424
  327MOL0     C44062   0.937   9.400   1.067 -0.2979  0.8691 -0.1473
  327MOL0     C44063   0.817   9.428   0.998 -0.4594 -0.1562 -0.0318
  327MOL0     C44064   0.376   9.299   0.877  0.5273 -0.2050 -0.0071
  327MOL0     C44065   0.290   9.186   0.866 -0.7189 -0.3177 -0.3988
  327MOL0     C44066   0.166   9.190   0.798 -0.6030 -0.0649 -0.3872
  327MOL0     C44067   0.118   9.311   0.744 -0.3899 -0.3652 -0.5182
  327MOL0     O44068  -0.005   9.340   0.684 -0.0041  0.4075 -0.2395
  327MOL0     C44069  -0.089   9.225   0.662  0.5640 -0.5922  0.2412
  327MOL0     C44070  -0.054   9.132   0.533  0.6236  0.2626  0.0665
  327MOL0     C44071  -0.135   9.002   0.542  0.0613  0.8263 -0.2011
  327MOL0     C44072  -0.068   8.888   0.460 -0.0701  0.7949 -0.0828
  327MOL0     C44073  -0.056   8.925   0.321 -0.0632  0.1430  0.4787
  327MOL0     C44074  -0.023   8.942   0.204  0.0597  0.3751 -0.1183
  327MOL0     C44075   0.212   9.418   0.750  0.9312  0.1081 -0.0677
  327MOL0     C44076   0.343   9.411   0.801  0.6924  0.3734 -0.4418
  327MOL0     C44077   0.433   9.524   0.767  0.3761 -1.3524  0.1412
  327MOL0     H44078   0.614   9.288   1.228  0.1525  2.4290 -0.0827
  327MOL0     H44079   0.831   9.209   1.323  0.9422 -1.3253 -0.4765
  327MOL0     H44080   1.119   9.199   1.052  0.3574  2.1385 -1.1572
  327MOL0     H44081   1.225   9.335   1.093  2.6726 -0.1258  0.1543
  327MOL0     H44082   1.332   9.091   1.151  1.5675  0.5062  0.4985
  327MOL0     H44083   1.235   9.095   1.290 -0.1661 -1.1914 -0.5083
  327MOL0     H44084   1.339   9.304   1.356 -1.3840 -2.6556  0.6715
  327MOL0     H44085   1.425   9.328   1.213  0.8138 -0.6894  0.4440
  327MOL0     H44086   1.539   9.100   1.247  0.8668  1.8841 -0.4276
  327MOL0     H44087   1.606   9.224   1.336  2.3090 -1.9866 -2.3957
  327MOL0     H44088   1.411   9.155   1.518 -3.0914  0.4991 -2.3584
  327MOL0     H44089   1.424   9.003   1.445 -2.3127  2.5280  1.1879
  327MOL0     H44090   1.661   8.994   1.492  2.3945 -0.2728  1.6814
  327MOL0     H44091   1.656   9.147   1.584  2.4559 -1.5034  1.4584
  327MOL0     H44092   1.504   8.902   1.659 -0.4045  1.0441 -1.0213
  327MOL0     H44093   1.509   9.043   1.751 -1.1859 -1.0300 -0.2466
  327MOL0     H44094   1.767   8.873   1.703  1.6483 -0.1562  1.4478
  327MOL0     H44095   1.749   9.028   1.787  0.0213 -0.7386  0.8651
  327MOL0     H44096   1.619   8.660   1.828 -0.6108  1.7787 -1.8613
  327MOL0     H44097   1.523   8.632   2.211 -1.5026 -1.4071 -0.1435
  327MOL0     H44098   1.490   8.555   2.054 -0.4115  1.0685 -0.8964
  327MOL0     H44099   1.626   8.422   2.159  0.1964  0.9150  0.4353
  327MOL0     H44100   1.723   8.489   2.028 -3.5857 -1.0558 -1.8645
  327MOL0     H44101   1.730   8.577   2.339  1.5870  1.6509 -0.4961
  327MOL0     H44102   1.797   8.670   2.214  2.3817  0.1896  0.5286
  327MOL0     H44103   1.978   8.524   2.288 -0.6726  1.8166 -1.0065
  327MOL0     H44104   1.911   8.454   2.134 -3.0911  0.0346 -1.2622
  327MOL0     H44105   1.888   8.552   2.494  2.1364  0.3805  0.6217
  327MOL0     H44106   1.889   8.524   2.727 -4.2358 -0.2022  1.1425
  327MOL0     H44107   1.740   8.193   3.108  1.8851 -1.7726  0.6742
  327MOL0     H44108   1.730   8.220   3.355 -1.5248  2.3116 -0.9396
  327MOL0     H44109   1.841   8.212   3.552  1.2756 -1.1260 -1.2719
  327MOL0     H44110   1.987   8.272   3.484 -0.7932 -0.3846  0.4103
  327MOL0     H44111   2.023   8.262   3.737 -0.4097 -0.5624  1.6729
  327MOL0     H44112   1.982   8.434   3.691 -0.5189  0.3459 -0.7042
  327MOL0     H44113   1.782   8.430   3.804  0.2075  1.1998  1.8994
  327MOL0     H44114   1.744   8.266   3.751  1.3458 -0.3392 -0.4941
  327MOL0     H44115   1.963   8.306   3.956 -1.2394  0.2933  1.5856
  327MOL0     H44116   1.894   8.158   3.929  4.2741  1.0265  4.5478
  327MOL0     H44117   1.666   8.235   4.028 -0.1777  0.0603  0.7990
  327MOL0     H44118   1.756   8.395   4.046  1.1391 -0.7211 -3.5079
  327MOL0     H44119   1.767   8.125   4.185 -0.6817 -0.5536 -1.3250
  327MOL0     H44120   1.906   8.228   4.190  1.2654  2.3757 -2.6122
  327MOL0     H44121   1.631   8.357   4.255 -0.4996 -2.2375  0.4818
  327MOL0     H44122   1.793   8.390   4.317  0.3263 -1.6154  0.4655
  327MOL0     H44123   1.639   8.139   4.396  1.1805 -0.9045  1.5360
  327MOL0     H44124   1.805   8.194   4.454  0.5395  2.0206  0.5211
  327MOL0     H44125   1.936   8.590   3.330 -2.3599  0.7016  0.2247
  327MOL0     H44126   1.959   8.572   3.097  0.2824 -1.2287 -0.2798
  327MOL0     H44127   1.787   8.101   2.666  0.2700 -1.3393  0.0490
  327MOL0     H44128   1.813   8.135   2.424  2.7716 -1.8413  1.3641
  327MOL0     H44129   1.028   9.447   1.033  0.4175  1.9068  2.9050
  327MOL0     H44130   0.807   9.490   0.910 -2.9786 -1.3474 -0.6782
  327MOL0     H44131   0.312   9.091   0.914  0.5307  1.4604  2.8595
  327MOL0     H44132   0.112   9.096   0.789 -0.0924 -0.4035  0.0498
  327MOL0     H44133  -0.189   9.269   0.648  0.3626 -1.0849  0.1178
  327MOL0     H44134  -0.093   9.169   0.755 -0.5925 -2.2604 -0.7493
  327MOL0     H44135   0.049   9.097   0.538 -0.0726 -2.5316 -2.2021
  327MOL0     H44136  -0.079   9.182   0.440 -0.8280 -0.2960  0.1244
  327MOL0     H44137  -0.239   9.024   0.519 -0.0127  1.2112  0.4642
  327MOL0     H44138  -0.129   8.970   0.647 -0.1249 -0.6328 -0.6251
  327MOL0     H44139   0.025   8.861   0.511  0.5375 -3.5668 -2.9132
  327MOL0     H44140  -0.136   8.803   0.472  0.5826  0.0426 -1.4122
  327MOL0     H44141   0.014   8.965   0.107  2.2524 -1.2212  0.2696
  327MOL0     H44142   0.184   9.510   0.700 -3.8097  1.2590  3.9507
  327MOL0     H44143   0.536   9.499   0.795  0.5181 -5.0543 -2.8030
  327MOL0     H44144   0.424   9.541   0.659 -0.3409 -1.0339  0.2470
  327MOL0     H44145   0.404   9.616   0.818  2.4820  1.0963 -2.7157
  328MOL0     O44146   7.984   0.462   1.092  0.5472 -1.2050  0.2935
  328MOL0     C44147   7.985   0.446   1.214 -1.8172  0.3041  0.4624
  328MOL0     O44148   7.926   0.348   1.279 -0.2398  0.2241 -0.2455
  328MOL0     C44149   7.859   0.252   1.210  0.3478  0.1355  0.2539
  328MOL0     C44150   7.917   0.184   1.098  0.3605 -0.9581  0.4842
  328MOL0     C44151   7.849   0.079   1.031  0.0725  0.6586 -0.1166
  328MOL0     C44152   7.726   0.033   1.089 -0.4094 -0.0058  0.0232
  328MOL0     O44153   7.659  -0.079   1.045 -0.4428 -0.3160  0.4181
  328MOL0     C44154   7.602  -0.065   0.913  0.2223  0.4777  0.4696
  328MOL0     C44155   7.558  -0.203   0.862 -0.1708  0.1925 -0.5677
  328MOL0     C44156   7.670  -0.305   0.858 -0.5665 -0.2847  0.1917
  328MOL0     C44157   7.765  -0.279   0.740  0.2140  0.4372 -0.1187
  328MOL0     C44158   7.860  -0.403   0.739 -0.1323 -0.5796  0.0128
  328MOL0     C44159   7.950  -0.416   0.609  0.2189  0.2501  0.3282
  328MOL0     C44160   7.973  -0.276   0.552 -0.6891  0.3564  0.4670
  328MOL0     C44161   8.087  -0.265   0.452 -0.2242  0.6288 -0.1317
  328MOL0     N44162   8.107  -0.136   0.390 -0.3463 -0.9278  0.2263
  328MOL0     C44163   8.218  -0.087   0.329 -0.5948  0.1561  1.3754
  328MOL0     C44164   8.192   0.044   0.314 -0.5415 -0.2340  0.1233
  328MOL0     C44165   8.288   0.153   0.260  0.1060  0.5295 -0.3696
  328MOL0     C44166   8.294   0.137   0.110 -0.2840 -0.2594 -1.0104
  328MOL0     C44167   8.159   0.131   0.037  0.7368 -1.1231 -0.0238
  328MOL0     C44168   8.067   0.257   0.068 -0.3685 -0.2693  0.5973
  328MOL0     O44169   7.922   0.240   0.051  0.1097  0.1347 -0.0314
  328MOL0     C44170   7.856   0.338   0.109  0.2616 -0.1804  1.6458
  328MOL0     C44171   7.834   0.343   0.246 -0.8218 -0.6581 -0.5172
  328MOL0     C44172   7.761   0.446   0.305  0.3212  0.2566  0.8264
  328MOL0     C44173   7.704   0.541   0.217 -0.0116 -0.2424  0.5674
  328MOL0     C44174   7.634   0.660   0.276 -0.0502 -0.4035 -0.9314
  328MOL0     O44175   7.594   0.756   0.195  0.2761  0.3440  0.9973
  328MOL0     C44176   7.540   0.872   0.255  0.0445 -0.5430 -0.4777
  328MOL0     C44177   7.595   0.992   0.208  0.3256 -0.2535  0.4498
  328MOL0     C44178   7.549   1.110   0.259 -0.2453  0.1168  0.2296
  328MOL0     C44179   7.446   1.120   0.356  0.1675 -0.4975  0.3479
  328MOL0     O44180   7.393   1.247   0.393 -0.7012 -0.1061 -0.3231
  328MOL0     C44181   7.474   1.340   0.454  0.1101 -0.4332 -0.4224
  328MOL0     C44182   7.437   1.482   0.406  1.2403 -0.4074 -0.4792
  328MOL0     C44183   7.511   1.539   0.284 -0.1829  0.7246 -0.0948
  328MOL0     C44184   7.437   1.641   0.196 -0.0241 -0.4515 -0.2657
  328MOL0     C44185   7.397   1.765   0.287 -0.2239  0.7839 -0.7827
  328MOL0     C44186   7.511   1.859   0.325  0.2174 -0.3654  0.1553
  328MOL0     C44187   7.468   1.960   0.429  0.4536 -0.7228 -0.3810
  328MOL0     C44188   7.584   2.047   0.477 -0.5504  0.0799  0.6234
  328MOL0    Cl44189   7.650   1.968   0.624 -0.2521  0.1342 -0.0344
  328MOL0     C44190   7.381   1.005   0.387  0.1622  0.4567 -0.8232
  328MOL0     C44191   7.426   0.879   0.343  0.5103 -0.2860 -0.6242
  328MOL0     O44192   7.622   0.668   0.406 -0.5129 -0.7989  0.0524
  328MOL0     C44193   7.715   0.529   0.074  0.0493  0.1485 -0.0399
  328MOL0     C44194   7.797   0.431   0.030 -0.3987 -0.3351  0.5496
  328MOL0     N44195   8.062   0.069   0.343 -0.3473 -0.1306 -0.5167
  328MOL0     N44196   8.009  -0.040   0.392  0.2555  0.0313 -0.2440
  328MOL0     C44197   7.670   0.089   1.206 -0.4782 -0.6713  0.4544
  328MOL0     C44198   7.741   0.202   1.258  0.5488  0.5730  0.4403
  328MOL0     C44199   8.048   0.557   1.300 -0.1206 -0.0592  0.8114
  328MOL0     C44200   7.984   0.584   1.427 -0.6636 -0.9554  0.2031
  328MOL0     C44201   8.033   0.692   1.504 -0.3397 -0.6033  0.5070
  328MOL0     C44202   8.148   0.771   1.466  0.1793  0.8543  0.3933
  328MOL0     O44203   8.180   0.859   1.565 -0.1381  0.1748 -0.5306
  328MOL0     C44204   8.225   0.985   1.534 -0.5193  0.8614 -0.3014
  328MOL0     C44205   8.098   1.063   1.493  1.1228 -0.3780 -0.4639
  328MOL0     C44206   8.140   1.209   1.468  0.1587  0.1670  0.0618
  328MOL0     C44207   8.027   1.311   1.443  0.4054  0.0864 -0.3442
  328MOL0     C44208   8.083   1.434   1.381  0.3712  0.5173 -0.4542
  328MOL0     C44209   8.129   1.538   1.342  0.4068 -0.7406  0.5831
  328MOL0     C44210   8.215   0.736   1.351  0.8645 -0.0536 -0.9141
  328MOL0     C44211   8.166   0.635   1.269  0.3305 -0.0510  0.9008
  328MOL0     C44212   8.247   0.601   1.142 -0.2858  0.3275 -1.1060
  328MOL0     H44213   8.009   0.228   1.060 -0.2826  0.7156  0.7452
  328MOL0     H44214   7.883   0.027   0.942 -1.3147 -1.2940  0.4267
  328MOL0     H44215   7.516   0.002   0.910  1.4302  2.3811  3.2650
  328MOL0     H44216   7.680  -0.040   0.841 -3.4658  3.6979 -2.8988
  328MOL0     H44217   7.511  -0.203   0.763 -0.2842 -3.2143 -0.6291
  328MOL0     H44218   7.476  -0.235   0.928 -1.5660  2.6030 -0.9937
  328MOL0     H44219   7.624  -0.403   0.839  0.6742 -0.7969 -0.3102
  328MOL0     H44220   7.737  -0.305   0.944  2.3355 -3.1544 -1.8011
  328MOL0     H44221   7.716  -0.275   0.642  1.7023  2.0290 -0.8612
  328MOL0     H44222   7.823  -0.190   0.767 -0.7936  1.9815 -2.6515
  328MOL0     H44223   7.917  -0.409   0.832 -1.7286 -1.0522  1.0031
  328MOL0     H44224   7.799  -0.493   0.747 -0.6644 -0.2617 -0.3768
  328MOL0     H44225   8.042  -0.473   0.619  2.0759  3.2909  2.2576
  328MOL0     H44226   7.886  -0.467   0.536  1.5925 -3.2650  1.3859
  328MOL0     H44227   8.001  -0.213   0.636 -2.1439  1.6980 -0.0051
  328MOL0     H44228   7.882  -0.235   0.506 -0.3588  0.5503 -0.0273
  328MOL0     H44229   8.181  -0.279   0.506 -0.7405 -0.3854  0.5460
  328MOL0     H44230   8.078  -0.341   0.374 -4.5199  1.1085 -0.3770
  328MOL0     H44231   8.309  -0.135   0.294 -0.0507  0.9102  1.7400
  328MOL0     H44232   8.247   0.251   0.285  0.5241 -0.1345  3.4474
  328MOL0     H44233   8.380   0.143   0.318 -1.2147  1.1225  1.9359
  328MOL0     H44234   8.356   0.216   0.066 -1.2148  0.4869 -0.9945
  328MOL0     H44235   8.354   0.046   0.100  0.3985  0.1749 -0.9496
  328MOL0     H44236   8.110   0.036   0.061 -1.1873 -0.4839 -1.1876
  328MOL0     H44237   8.183   0.118  -0.070  1.4850  1.1803 -0.1860
  328MOL0     H44238   8.107   0.343   0.014 -1.0099 -0.2998  0.0514
  328MOL0     H44239   8.073   0.292   0.171  0.4799  1.9697 -0.1569
  328MOL0     H44240   7.881   0.278   0.320  2.8424  3.1844  0.9943
  328MOL0     H44241   7.737   0.457   0.410  2.0959 -1.6760  1.4994
  328MOL0     H44242   7.668   0.975   0.129 -1.7273 -0.1153 -1.5596
  328MOL0     H44243   7.598   1.203   0.233  0.1074  0.9323  3.3476
  328MOL0     H44244   7.440   1.348   0.557  0.3834  2.1444 -0.4590
  328MOL0     H44245   7.578   1.310   0.460 -0.3466 -1.8555  0.8209
  328MOL0     H44246   7.330   1.478   0.383  1.1967 -0.6813 -0.2329
  328MOL0     H44247   7.450   1.549   0.492  0.0676 -2.7268  1.6580
  328MOL0     H44248   7.609   1.580   0.308  0.7438 -0.1649 -2.0444
  328MOL0     H44249   7.541   1.449   0.229 -0.8705  0.0869  0.5543
  328MOL0     H44250   7.337   1.602   0.176 -2.0524  4.1534 -0.5158
  328MOL0     H44251   7.484   1.664   0.100 -0.1578 -1.7103 -0.6485
  328MOL0     H44252   7.344   1.723   0.373  2.4304 -1.9306 -0.2900
  328MOL0     H44253   7.329   1.826   0.227 -1.6353 -0.7450 -0.7866
  328MOL0     H44254   7.593   1.803   0.372  0.3214  0.3589  0.8576
  328MOL0     H44255   7.566   1.913   0.248 -0.9272  2.3726  1.1419
  328MOL0     H44256   7.410   1.914   0.509  1.6125 -0.6736  0.5201
  328MOL0     H44257   7.398   2.026   0.379 -0.1351  0.0994  1.4309
  328MOL0     H44258   7.663   2.072   0.405 -1.0216  2.1179  0.7523
  328MOL0     H44259   7.535   2.143   0.495 -1.9386 -0.3216 -0.7392
  328MOL0     H44260   7.294   1.007   0.451  1.7754  0.4547  1.4796
  328MOL0     H44261   7.367   0.792   0.371  0.6581 -0.1554  0.0903
  328MOL0     H44262   7.663   0.594   0.004  3.6585  3.9090  0.3587
  328MOL0     H44263   7.811   0.411  -0.076  0.2836  1.1982  0.3275
  328MOL0     H44264   7.579   0.046   1.246  0.2261 -1.5526  1.1606
  328MOL0     H44265   7.712   0.228   1.360 -2.8897 -0.5276 -0.1408
  328MOL0     H44266   7.900   0.530   1.470  0.2360 -3.1610 -0.6535
  328MOL0     H44267   7.978   0.718   1.594 -4.0326 -2.0455 -1.1220
  328MOL0     H44268   8.301   0.983   1.456 -0.5519  1.2347 -0.3432
  328MOL0     H44269   8.277   1.008   1.627  2.4183 -1.1968 -1.3090
  328MOL0     H44270   8.036   1.061   1.584  1.0052 -0.8800 -0.5545
  328MOL0     H44271   8.045   1.026   1.405  2.5479  1.7608 -2.3234
  328MOL0     H44272   8.208   1.208   1.382  1.8332  2.5965  1.2264
  328MOL0     H44273   8.203   1.242   1.551 -2.1279 -0.7549  2.2912
  328MOL0     H44274   7.956   1.260   1.378  1.8242 -2.0708 -0.2937
  328MOL0     H44275   7.976   1.337   1.536 -0.0047  0.3102 -0.6303
  328MOL0     H44276   8.175   1.625   1.300  2.0368 -0.7709  2.2237
  328MOL0     H44277   8.315   0.777   1.338  1.1855 -1.1200 -1.9383
  328MOL0     H44278   8.238   0.494   1.121  2.4785 -0.3776  0.8886
  328MOL0     H44279   8.221   0.677   1.068 -0.1936  1.2190 -0.2314
  328MOL0     H44280   8.353   0.617   1.162 -0.6541 -0.0908  1.4156
  329MOL0     O44281   5.081   3.096   2.960  0.0873  0.6844  0.0220
  329MOL0     C44282   5.042   3.011   3.039 -0.0528 -0.7768 -0.8559
  329MOL0     O44283   5.054   3.019   3.174  0.1932  0.0976  0.1240
  329MOL0     C44284   5.135   3.122   3.232  0.1837  0.0022  1.9438
  329MOL0     C44285   5.073   3.233   3.279 -0.3947 -0.3420  0.1783
  329MOL0     C44286   5.136   3.331   3.344 -0.4128  0.4864  0.6080
  329MOL0     C44287   5.279   3.317   3.359  0.0151 -1.2204 -0.3172
  329MOL0     O44288   5.326   3.417   3.436 -1.4373  0.2483 -0.2688
  329MOL0     C44289   5.381   3.365   3.563  1.0073 -0.5436 -0.0890
  329MOL0     C44290   5.422   3.500   3.630 -0.2851 -0.1081  0.0714
  329MOL0     C44291   5.468   3.485   3.773 -0.7155 -0.2958  0.0856
  329MOL0     C44292   5.352   3.493   3.872 -0.6439  0.2964  0.0594
  329MOL0     C44293   5.409   3.458   4.009 -0.4763  0.4481 -0.2705
  329MOL0     C44294   5.293   3.419   4.105  0.3388 -0.3003 -0.5584
  329MOL0     C44295   5.362   3.384   4.241  0.2086 -0.0617 -0.1447
  329MOL0     C44296   5.254   3.405   4.356  0.1193 -0.1454  0.1759
  329MOL0     N44297   5.317   3.374   4.486  1.1655 -1.0428  0.4643
  329MOL0     C44298   5.428   3.441   4.531 -0.7120  0.3462 -0.4847
  329MOL0     C44299   5.420   3.412   4.665 -1.3749 -0.2508  0.2054
  329MOL0     C44300   5.528   3.456   4.771  0.1677 -0.4643 -0.5947
  329MOL0     C44301   5.555   3.330   4.854 -0.4507  0.2602 -0.4965
  329MOL0     C44302   5.643   3.361   4.980 -0.3332 -0.1421 -0.9537
  329MOL0     C44303   5.775   3.434   4.949 -0.3990  0.2284 -0.2780
  329MOL0     O44304   5.857   3.422   5.068 -1.1328  0.1183 -0.4995
  329MOL0     C44305   5.921   3.529   5.125  0.3986 -0.6179 -0.5624
  329MOL0     C44306   6.021   3.506   5.220 -0.1309  0.3318 -0.4813
  329MOL0     C44307   6.083   3.609   5.291 -0.8703 -1.5068  0.8031
  329MOL0     C44308   6.050   3.735   5.271 -0.1939  0.5604  0.3222
  329MOL0     C44309   6.124   3.840   5.343 -0.0029  0.3415 -0.6570
  329MOL0     O44310   6.056   3.955   5.375 -0.2179 -0.6560 -0.8637
  329MOL0     C44311   6.133   4.072   5.413  0.4597  1.0191 -0.0666
  329MOL0     C44312   6.098   4.189   5.365  0.3926  0.1445 -0.3403
  329MOL0     C44313   6.165   4.307   5.409  0.2144  0.0707  0.5791
  329MOL0     C44314   6.275   4.297   5.501  0.8570 -0.5298 -0.7134
  329MOL0     O44315   6.370   4.392   5.522 -0.2047 -0.1134 -0.3676
  329MOL0     C44316   6.370   4.493   5.417 -0.5642 -0.3784 -0.6644
  329MOL0     C44317   6.492   4.582   5.455 -0.3581 -0.5177 -0.4905
  329MOL0     C44318   6.503   4.701   5.370 -0.0656 -0.3934  0.4355
  329MOL0     C44319   6.638   4.712   5.300  0.4165 -0.2033  0.0026
  329MOL0     C44320   6.634   4.842   5.227  0.3811  0.0866  0.3093
  329MOL0     C44321   6.767   4.856   5.153  0.2674 -0.5441 -0.1815
  329MOL0     C44322   6.812   5.000   5.111 -1.2822 -0.2821  0.0476
  329MOL0     C44323   6.942   5.007   5.022  0.1164  0.4043  0.0698
  329MOL0    Cl44324   6.976   5.172   4.972 -0.0636  0.0538  0.1666
  329MOL0     C44325   6.283   4.176   5.582  0.3110  0.0893 -0.1962
  329MOL0     C44326   6.211   4.062   5.534  0.1154  0.2603 -0.9685
  329MOL0     O44327   6.245   3.823   5.372  0.4251  0.0511  0.1807
  329MOL0     C44328   5.949   3.765   5.185 -0.0397  0.2174  0.5497
  329MOL0     C44329   5.890   3.670   5.104 -1.4272  0.0733 -0.6470
  329MOL0     N44330   5.310   3.326   4.693 -0.5604  0.1499 -0.0505
  329MOL0     N44331   5.241   3.309   4.587 -0.2793 -0.4045  0.1258
  329MOL0     C44332   5.352   3.213   3.301  0.6381 -0.6547 -0.1021
  329MOL0     C44333   5.278   3.114   3.237 -0.5873  1.2355 -0.8233
  329MOL0     C44334   4.969   2.885   2.998  0.1237  0.3663 -0.3380
  329MOL0     C44335   4.959   2.776   3.091  0.5212  0.6899 -0.6933
  329MOL0     C44336   4.884   2.660   3.058 -0.4825  0.0825 -0.6822
  329MOL0     C44337   4.818   2.653   2.933  0.3944 -0.8796  0.2430
  329MOL0     O44338   4.740   2.550   2.881  0.1973 -0.6367 -0.3367
  329MOL0     C44339   4.748   2.420   2.938  0.4378  0.4172  0.4099
  329MOL0     C44340   4.673   2.329   2.839 -0.2890  0.4267  0.4780
  329MOL0     C44341   4.523   2.359   2.809 -0.1064 -1.0273 -0.8846
  329MOL0     C44342   4.457   2.240   2.740  0.6283  1.0644 -1.2418
  329MOL0     C44343   4.411   2.126   2.823  0.5622 -0.5524  0.0462
  329MOL0     C44344   4.374   2.042   2.899 -0.4136 -0.0715  0.5467
  329MOL0     C44345   4.845   2.755   2.841 -0.4718 -0.4867 -0.2637
  329MOL0     C44346   4.925   2.863   2.866 -0.5096  0.3437  0.1624
  329MOL0     C44347   4.955   2.957   2.758  0.3400 -0.8146  0.2023
  329MOL0     H44348   4.966   3.242   3.267 -0.4574 -2.0822 -0.7391
  329MOL0     H44349   5.079   3.420   3.367  0.3407  1.8803 -2.4480
  329MOL0     H44350   5.297   3.312   3.607 -0.0035  1.9217  1.1667
  329MOL0     H44351   5.464   3.299   3.534  1.0909  0.9570 -3.7574
  329MOL0     H44352   5.340   3.571   3.640  0.1535  0.2662  1.0636
  329MOL0     H44353   5.501   3.542   3.568  0.1819 -0.3916  0.4699
  329MOL0     H44354   5.531   3.569   3.803  1.5817 -1.8993 -0.0072
  329MOL0     H44355   5.522   3.390   3.770  1.4583  0.9068 -1.4540
  329MOL0     H44356   5.303   3.591   3.872 -2.0133 -0.3497  0.8396
  329MOL0     H44357   5.286   3.413   3.838 -0.1613  0.2631 -0.8186
  329MOL0     H44358   5.472   3.370   3.990  0.8914  2.1359 -5.0302
  329MOL0     H44359   5.477   3.537   4.043  0.5310 -0.1270 -0.9018
  329MOL0     H44360   5.243   3.514   4.123  4.8747  1.9528  1.9640
  329MOL0     H44361   5.238   3.331   4.072  0.9373 -1.1060  0.5351
  329MOL0     H44362   5.454   3.440   4.256 -0.6556  0.8348  2.4003
  329MOL0     H44363   5.384   3.277   4.248 -1.8017 -0.4560  1.1883
  329MOL0     H44364   5.226   3.511   4.362  0.1845  0.0073 -1.8283
  329MOL0     H44365   5.164   3.344   4.341 -2.4099  2.5315  2.9178
  329MOL0     H44366   5.498   3.511   4.488 -1.7407  3.9031  3.0467
  329MOL0     H44367   5.621   3.490   4.724  1.7881 -2.7392  0.7594
  329MOL0     H44368   5.482   3.526   4.842 -2.9333 -2.3815 -0.5562
  329MOL0     H44369   5.461   3.287   4.889  0.3497 -1.9940 -0.9728
  329MOL0     H44370   5.596   3.245   4.798  0.0258  2.2505 -3.4545
  329MOL0     H44371   5.658   3.278   5.049  1.6910  1.7417  1.0369
  329MOL0     H44372   5.596   3.443   5.035 -0.6409 -0.2419 -1.0636
  329MOL0     H44373   5.762   3.538   4.920  1.8167  1.1100  1.5670
  329MOL0     H44374   5.819   3.381   4.864 -3.7011 -0.2159 -1.8850
  329MOL0     H44375   6.044   3.401   5.235 -1.7016 -0.1388 -1.0808
  329MOL0     H44376   6.154   3.587   5.370  1.5254  1.4671 -0.3292
  329MOL0     H44377   6.021   4.200   5.289 -0.0294  0.1900  0.0922
  329MOL0     H44378   6.142   4.398   5.353  0.3545  1.3632  2.5078
  329MOL0     H44379   6.372   4.447   5.318 -5.4330  1.4261 -1.8757
  329MOL0     H44380   6.288   4.566   5.419 -0.3733 -0.1328 -1.5906
  329MOL0     H44381   6.469   4.627   5.551 -1.2825 -1.2293 -0.3583
  329MOL0     H44382   6.585   4.525   5.455  0.4881  0.8275  0.1370
  329MOL0     H44383   6.423   4.705   5.295  1.6286  2.6945 -1.4116
  329MOL0     H44384   6.482   4.793   5.426 -3.4604  1.2018 -2.9903
  329MOL0     H44385   6.653   4.631   5.229  0.2788  1.4220 -1.9500
  329MOL0     H44386   6.715   4.707   5.377  0.7324 -0.9236 -0.3550
  329MOL0     H44387   6.627   4.926   5.296  0.9546  0.6960 -0.3535
  329MOL0     H44388   6.549   4.853   5.159  2.4366  1.4974 -2.1877
  329MOL0     H44389   6.849   4.812   5.210  1.0406  0.7076 -0.2928
  329MOL0     H44390   6.772   4.800   5.060 -1.4069  2.5355 -2.3311
  329MOL0     H44391   6.848   5.060   5.196  0.0168 -0.3674 -0.4182
  329MOL0     H44392   6.726   5.050   5.067  1.5189  0.9793 -4.7414
  329MOL0     H44393   7.030   4.973   5.079 -0.3881 -1.9808 -0.4404
  329MOL0     H44394   6.942   4.934   4.941 -2.0367 -1.6595  1.7763
  329MOL0     H44395   6.356   4.171   5.662 -0.9237 -3.7347  0.8985
  329MOL0     H44396   6.232   3.968   5.584 -0.3408  1.3366  1.3654
  329MOL0     H44397   5.925   3.871   5.178  1.8097  0.5741 -2.0300
  329MOL0     H44398   5.803   3.691   5.042 -0.1718  1.6859 -1.9785
  329MOL0     H44399   5.460   3.218   3.306  0.5774 -0.4324  1.4472
  329MOL0     H44400   5.335   3.034   3.192  1.7560  1.4120  1.5732
  329MOL0     H44401   5.013   2.777   3.185  2.4154 -1.3810 -1.6596
  329MOL0     H44402   4.886   2.575   3.127  1.9897 -0.5316 -1.4106
  329MOL0     H44403   4.695   2.416   3.034  0.4210 -1.1253  0.3559
  329MOL0     H44404   4.853   2.396   2.955  1.9860  3.7119 -2.9259
  329MOL0     H44405   4.672   2.225   2.875 -2.7655 -0.3876 -1.5788
  329MOL0     H44406   4.718   2.308   2.741  0.3370 -2.2002  1.2291
  329MOL0     H44407   4.525   2.437   2.733 -1.2668 -2.4895 -2.4905
  329MOL0     H44408   4.465   2.382   2.899  3.8325  2.0405  1.1634
  329MOL0     H44409   4.370   2.276   2.684 -0.7976 -0.6410 -0.2119
  329MOL0     H44410   4.515   2.191   2.661  0.7861 -1.1257  0.1645
  329MOL0     H44411   4.343   1.974   2.976 -2.2676  0.2000  0.0819
  329MOL0     H44412   4.810   2.744   2.739 -0.5867  2.6867 -0.6946
  329MOL0     H44413   4.920   2.899   2.672  2.7488 -3.7027  1.0001
  329MOL0     H44414   4.897   3.049   2.764 -0.2944 -1.2602  1.3015
  329MOL0     H44415   5.063   2.971   2.752  0.7008 -1.7528  2.9492
  330MOL0     O44416   9.051   7.681   0.286  0.6676 -0.1469 -0.2220
  330MOL0     C44417   9.123   7.720   0.195 -0.5139 -0.0207 -0.2891
  330MOL0     O44418   9.146   7.851   0.170  0.0299 -0.3353  0.1842
  330MOL0     C44419   9.155   7.933   0.281  0.7488  1.1637 -0.3595
  330MOL0     C44420   9.257   8.017   0.266  0.5157  0.1274 -0.1470
  330MOL0     C44421   9.283   8.103   0.373 -0.1208 -0.0100 -0.4282
  330MOL0     C44422   9.207   8.103   0.491 -0.4088  0.0488 -0.4256
  330MOL0     O44423   9.234   8.182   0.594  0.2494 -0.1729 -0.4013
  330MOL0     C44424   9.357   8.142   0.661 -0.1159 -0.2298 -0.3109
  330MOL0     C44425   9.343   8.197   0.807  0.2369 -0.4475 -0.1697
  330MOL0     C44426   9.475   8.193   0.891 -0.1313 -0.7492 -0.4172
  330MOL0     C44427   9.516   8.049   0.940 -1.0272 -0.4989 -0.3285
  330MOL0     C44428   9.639   8.059   1.040  0.7026  0.2457  0.1822
  330MOL0     C44429   9.599   8.112   1.184 -0.1721  0.9474  0.1415
  330MOL0     C44430   9.723   8.111   1.274 -0.1804 -0.1735  0.7040
  330MOL0     C44431   9.777   8.244   1.305  0.2437  0.7518  0.2901
  330MOL0     N44432   9.856   8.278   1.188 -0.2006 -1.1370  0.7980
  330MOL0     C44433   9.809   8.334   1.071  0.0459  0.4865 -0.9936
  330MOL0     C44434   9.913   8.312   0.985 -0.4380  1.6848 -0.4132
  330MOL0     C44435   9.913   8.346   0.841 -0.2153 -0.1768  0.1714
  330MOL0     C44436   9.911   8.501   0.814  0.1769 -0.2201  0.0579
  330MOL0     C44437   9.855   8.516   0.668  0.3649 -0.3901  1.1170
  330MOL0     C44438   9.887   8.661   0.630  1.4256 -0.0435  0.5915
  330MOL0     O44439   9.785   8.740   0.690  0.3380  0.1897 -0.2255
  330MOL0     C44440   9.768   8.876   0.660 -0.6041  0.8977 -0.3427
  330MOL0     C44441   9.854   8.951   0.590 -0.5075  0.4752  0.2432
  330MOL0     C44442   9.825   9.092   0.564  0.2439  0.8379 -0.7394
  330MOL0     C44443   9.705   9.145   0.613  0.6352 -0.1299  1.0395
  330MOL0     C44444   9.682   9.291   0.600 -0.4161  0.3125 -0.1035
  330MOL0     O44445   9.562   9.348   0.638  0.1819 -0.8798  0.3521
  330MOL0     C44446   9.550   9.484   0.664  0.4755 -0.0963  0.3023
  330MOL0     C44447   9.584   9.586   0.575 -0.2496 -0.2496 -0.7978
  330MOL0     C44448   9.589   9.718   0.607 -0.8350 -0.5181  0.1991
  330MOL0     C44449   9.561   9.751   0.740 -0.0218 -0.1704  0.3358
  330MOL0     O44450   9.576   9.887   0.764  0.8665 -0.3873  0.1709
  330MOL0     C44451   9.601   9.929   0.904 -0.0813 -0.6140  0.0267
  330MOL0     C44452   9.641  10.078   0.909 -0.0371 -0.3131 -0.1809
  330MOL0     C44453   9.699  10.124   1.048  0.7984 -0.1400  0.6179
  330MOL0     C44454   9.762  10.266   1.031 -0.1897  0.2868  0.3375
  330MOL0     C44455   9.816  10.316   1.163  0.1569 -0.3335 -0.5888
  330MOL0     C44456   9.705  10.369   1.258 -0.7919  0.9040  0.1817
  330MOL0     C44457   9.742  10.367   1.403 -0.6685 -0.2607  0.3551
  330MOL0     C44458   9.695  10.485   1.497 -0.4901 -0.3386 -0.8903
  330MOL0    Cl44459   9.755  10.642   1.423  0.1993 -0.4572 -0.0274
  330MOL0     C44460   9.534   9.651   0.833  0.2618  0.1788  0.1504
  330MOL0     C44461   9.534   9.519   0.798 -0.2165  0.3167  0.3471
  330MOL0     O44462   9.787   9.350   0.564  0.6063 -0.2761 -0.2264
  330MOL0     C44463   9.615   9.065   0.677 -0.2809 -0.5801 -0.4580
  330MOL0     C44464   9.647   8.929   0.698  0.2255  1.0019  0.7563
  330MOL0     N44465  10.023   8.248   1.039 -0.6566 -0.0735  0.4560
  330MOL0     N44466   9.981   8.238   1.163 -0.6223  0.0513 -0.1906
  330MOL0     C44467   9.099   8.014   0.503  0.4005  0.5699  0.2632
  330MOL0     C44468   9.065   7.934   0.393  0.0895 -0.4116 -0.3978
  330MOL0     C44469   9.184   7.628   0.096 -1.2761 -0.3890  0.6497
  330MOL0     C44470   9.240   7.680  -0.029  0.2483 -0.3428 -0.2810
  330MOL0     C44471   9.289   7.605  -0.138 -0.8720  0.1825  0.0487
  330MOL0     C44472   9.266   7.464  -0.131 -0.9687  2.0313  1.3123
  330MOL0     O44473   9.298   7.372  -0.227  0.0236  0.7496  0.0915
  330MOL0     C44474   9.422   7.388  -0.288 -0.0396 -0.4542  0.0679
  330MOL0     C44475   9.448   7.298  -0.402 -0.8321 -0.0828  0.3574
  330MOL0     C44476   9.472   7.152  -0.369  0.2326  0.7092  0.0714
  330MOL0     C44477   9.499   7.086  -0.501 -0.4511 -0.4825  0.5833
  330MOL0     C44478   9.571   6.955  -0.488  0.0890  0.2045 -0.7697
  330MOL0     C44479   9.619   6.844  -0.463  0.6181  0.3849 -0.3007
  330MOL0     C44480   9.200   7.412  -0.018  0.0827 -0.2069 -0.5310
  330MOL0     C44481   9.160   7.485   0.094 -0.1924 -0.1386 -0.6634
  330MOL0     C44482   9.108   7.408   0.206 -0.0730 -0.0756  0.0380
  330MOL0     H44483   9.303   8.014   0.168 -1.9170 -5.2076 -1.5036
  330MOL0     H44484   9.354   8.181   0.349  0.6067 -0.8305 -1.0239
  330MOL0     H44485   9.385   8.037   0.657  3.8239  0.6428  0.4090
  330MOL0     H44486   9.448   8.183   0.617  1.4272  0.2229  2.9906
  330MOL0     H44487   9.260   8.160   0.868  0.4014 -0.8926 -0.2121
  330MOL0     H44488   9.313   8.302   0.804 -1.0058 -0.5956  2.8834
  330MOL0     H44489   9.446   8.256   0.975  0.6251  0.7703 -1.2656
  330MOL0     H44490   9.562   8.229   0.836 -2.0512 -0.4766 -3.4892
  330MOL0     H44491   9.441   7.985   0.987 -0.6550  0.3318  1.4828
  330MOL0     H44492   9.549   7.991   0.853  1.1923 -1.9739  1.3690
  330MOL0     H44493   9.696   7.965   1.037  2.4024  1.2244  0.7303
  330MOL0     H44494   9.726   8.118   1.009 -0.2312  1.3748 -0.3651
  330MOL0     H44495   9.552   8.210   1.173 -2.1233  0.1619  1.1091
  330MOL0     H44496   9.519   8.052   1.228 -2.2870  0.3370 -4.0253
  330MOL0     H44497   9.797   8.055   1.217 -1.7478 -0.2577 -1.3784
  330MOL0     H44498   9.696   8.053   1.362 -1.4031 -1.8267 -0.6919
  330MOL0     H44499   9.702   8.323   1.317  1.5622  2.0892  0.0306
  330MOL0     H44500   9.841   8.240   1.394  0.7812 -1.0880 -0.1386
  330MOL0     H44501   9.714   8.382   1.047 -0.1875  1.7188  1.9711
  330MOL0     H44502  10.000   8.299   0.793 -0.1916 -0.6835  0.6981
  330MOL0     H44503   9.827   8.303   0.789  0.0507 -3.7010  2.2992
  330MOL0     H44504   9.852   8.564   0.882  0.3018 -1.8116  1.7195
  330MOL0     H44505  10.015   8.533   0.817  0.6655 -1.6984 -0.4682
  330MOL0     H44506   9.746   8.505   0.667 -0.2176  3.3201 -2.1190
  330MOL0     H44507   9.906   8.441   0.607  0.0983  0.3969 -0.1003
  330MOL0     H44508   9.879   8.678   0.522  2.3080  0.3515  0.5808
  330MOL0     H44509   9.983   8.694   0.669  0.9512  2.4745 -0.1781
  330MOL0     H44510   9.951   8.925   0.551 -0.2832  1.8254 -0.1734
  330MOL0     H44511   9.902   9.148   0.512  0.4742  0.7326 -0.5137
  330MOL0     H44512   9.609   9.579   0.470  2.1385 -0.9858 -0.2246
  330MOL0     H44513   9.598   9.783   0.521 -0.0694 -1.8555 -0.7605
  330MOL0     H44514   9.524   9.904   0.978  0.9816 -0.9375  1.0399
  330MOL0     H44515   9.684   9.874   0.949  2.1385  2.2605 -0.2941
  330MOL0     H44516   9.707  10.108   0.827  1.0652 -0.4743  0.6239
  330MOL0     H44517   9.549  10.132   0.884  0.4998  1.6505  1.8273
  330MOL0     H44518   9.615  10.104   1.115 -0.9250 -1.8921 -1.8736
  330MOL0     H44519   9.779  10.055   1.076 -0.8707 -2.2664  0.3825
  330MOL0     H44520   9.688  10.337   0.992  1.2324  0.7168 -1.6931
  330MOL0     H44521   9.844  10.264   0.959  1.1820 -1.5787  1.8432
  330MOL0     H44522   9.872  10.410   1.156  1.4564 -1.1088 -0.9126
  330MOL0     H44523   9.888  10.249   1.210  3.1078  3.0746  0.1458
  330MOL0     H44524   9.678  10.466   1.215 -1.0263  0.7823  0.0487
  330MOL0     H44525   9.617  10.305   1.246  0.1766 -0.7627  1.6524
  330MOL0     H44526   9.851  10.371   1.415 -0.7325 -1.0899  1.4082
  330MOL0     H44527   9.699  10.269   1.428 -2.7621 -0.6082 -3.8032
  330MOL0     H44528   9.586  10.479   1.507 -0.3343 -2.6174 -0.1517
  330MOL0     H44529   9.736  10.474   1.598  0.9528 -0.4562 -1.4672
  330MOL0     H44530   9.525   9.692   0.933  1.9107  0.8228  0.0690
  330MOL0     H44531   9.526   9.443   0.874  0.3484 -1.2932 -1.1513
  330MOL0     H44532   9.522   9.104   0.718 -0.7071  0.1766 -2.0818
  330MOL0     H44533   9.572   8.870   0.752  1.8708  0.3993  2.5223
  330MOL0     H44534   9.043   8.008   0.596  2.9557  2.2207  2.0573
  330MOL0     H44535   8.977   7.872   0.407 -0.7936  0.8019 -0.3350
  330MOL0     H44536   9.240   7.787  -0.044 -1.9886 -0.4462 -1.4300
  330MOL0     H44537   9.330   7.654  -0.226 -1.1928 -0.1963 -0.3183
  330MOL0     H44538   9.498   7.375  -0.210 -0.4151 -0.4114  0.4438
  330MOL0     H44539   9.436   7.484  -0.339 -3.8837 -1.0140 -2.4429
  330MOL0     H44540   9.528   7.341  -0.463 -1.3490 -2.4741 -2.2403
  330MOL0     H44541   9.363   7.304  -0.472 -0.8089 -1.4972  0.1748
  330MOL0     H44542   9.385   7.110  -0.318  1.7308 -0.9197  1.4297
  330MOL0     H44543   9.551   7.137  -0.295  1.0396  1.5475 -0.6027
  330MOL0     H44544   9.410   7.067  -0.561 -0.5104  2.0086 -0.2362
  330MOL0     H44545   9.563   7.148  -0.564 -0.4998 -2.0514 -1.1011
  330MOL0     H44546   9.662   6.746  -0.454 -1.3729 -0.5994 -0.8744
  330MOL0     H44547   9.192   7.305  -0.004  0.0736  0.1059  2.6033
  330MOL0     H44548   8.999   7.396   0.205  0.0445 -1.3477  0.2529
  330MOL0     H44549   9.158   7.310   0.204  0.0220 -0.0151 -1.2563
  330MOL0     H44550   9.130   7.452   0.304 -0.6763  1.8942 -0.6809
  331MOL0     O44551   9.189   8.526   5.132  0.5509 -0.4715  0.4674
  331MOL0     C44552   9.140   8.582   5.030  0.3625 -0.7833 -0.4946
  331MOL0     O44553   9.212   8.677   4.958  0.5986  0.8113 -0.3548
  331MOL0     C44554   9.328   8.734   5.001 -0.9515 -0.1764  0.0786
  331MOL0     C44555   9.431   8.770   4.907 -0.3462  0.3002  0.1818
  331MOL0     C44556   9.544   8.839   4.951  0.4218 -0.9004 -1.3056
  331MOL0     C44557   9.563   8.875   5.085 -0.6399 -0.7336 -0.1674
  331MOL0     O44558   9.669   8.953   5.141  0.8067  0.1349 -0.8106
  331MOL0     C44559   9.735   9.047   5.055 -0.9014  0.7503  0.0411
  331MOL0     C44560   9.830   9.118   5.154  0.5757 -0.5543  0.2495
  331MOL0     C44561   9.881   9.252   5.105 -0.0270 -0.6962 -0.1739
  331MOL0     C44562   9.995   9.275   5.004 -0.1094 -0.1141 -0.4177
  331MOL0     C44563  10.128   9.213   5.051 -0.3900 -0.0777 -0.3132
  331MOL0     C44564  10.213   9.190   4.929  0.0582  0.2380  0.0825
  331MOL0     C44565  10.326   9.082   4.946  0.7499  0.4393  0.7523
  331MOL0     C44566  10.386   9.028   4.816 -0.5161  0.3828 -0.4996
  331MOL0     N44567  10.476   9.127   4.762  0.2673 -0.1393  0.0702
  331MOL0     C44568  10.600   9.085   4.721  0.3629  0.5696 -0.4600
  331MOL0     C44569  10.648   9.188   4.653  0.0563 -0.1461  0.3784
  331MOL0     C44570  10.784   9.212   4.595 -0.8154 -0.4229  0.8189
  331MOL0     C44571  10.897   9.246   4.703 -0.3765 -0.0156 -1.2460
  331MOL0     C44572  10.874   9.371   4.794  1.0766 -0.3515 -0.7273
  331MOL0     C44573  10.784   9.335   4.912  0.5299 -0.3228  1.1690
  331MOL0     O44574  10.800   9.444   5.002 -0.5798 -1.0287  0.9268
  331MOL0     C44575  10.700   9.454   5.095  0.5635  0.0660  0.7031
  331MOL0     C44576  10.585   9.525   5.068  0.5423 -0.0239  0.4649
  331MOL0     C44577  10.478   9.523   5.164  0.3472  0.6678  0.8386
  331MOL0     C44578  10.483   9.466   5.291  0.1071  0.7008 -0.3622
  331MOL0     C44579  10.376   9.440   5.383  0.2803 -0.3640 -0.1759
  331MOL0     O44580  10.386   9.334   5.484 -0.2062 -0.1332 -0.0230
  331MOL0     C44581  10.284   9.254   5.513  0.4821 -0.2558  0.2491
  331MOL0     C44582  10.226   9.246   5.641 -0.6686 -0.6445 -0.5632
  331MOL0     C44583  10.108   9.171   5.658  0.8396  0.5668 -0.5801
  331MOL0     C44584  10.049   9.097   5.554 -0.0013 -0.3292  0.4418
  331MOL0     O44585   9.932   9.019   5.564  0.6621  0.2826  0.4458
  331MOL0     C44586   9.892   8.972   5.692 -0.0966  0.5563 -0.3770
  331MOL0     C44587   9.818   8.839   5.665  0.5805 -0.9305  0.1325
  331MOL0     C44588   9.674   8.865   5.604 -0.8600 -0.3946 -0.1787
  331MOL0     C44589   9.578   8.754   5.661  0.4987 -0.9405 -0.7360
  331MOL0     C44590   9.442   8.773   5.595  0.4917 -0.2939  0.5796
  331MOL0     C44591   9.345   8.655   5.648 -0.2025  0.2336  0.1880
  331MOL0     C44592   9.239   8.622   5.540  0.3307  0.7895  0.1440
  331MOL0     C44593   9.160   8.743   5.497 -0.1381 -0.3941  0.0620
  331MOL0    Cl44594   9.092   8.842   5.632 -0.3660  0.3645  0.1144
  331MOL0     C44595  10.109   9.106   5.430 -0.9719  0.1186 -0.4774
  331MOL0     C44596  10.228   9.176   5.408  1.4353  0.2226  0.1071
  331MOL0     O44597  10.277   9.511   5.358  0.0063  0.2678  0.1390
  331MOL0     C44598  10.601   9.396   5.318  0.9404 -1.1654 -0.2357
  331MOL0     C44599  10.709   9.391   5.221  0.3147 -0.2473 -0.7955
  331MOL0     N44600  10.549   9.285   4.641  0.1206  0.5536  0.4677
  331MOL0     N44601  10.445   9.242   4.703 -0.0151 -0.0024  0.0874
  331MOL0     C44602   9.462   8.842   5.178  0.0362  0.1323 -0.7768
  331MOL0     C44603   9.354   8.774   5.132  0.4343  1.0177 -0.3092
  331MOL0     C44604   9.000   8.555   4.999  0.1430 -0.5596  0.1699
  331MOL0     C44605   8.917   8.668   4.978  0.4111 -0.5717 -0.3967
  331MOL0     C44606   8.781   8.656   4.968 -0.0021  0.0376 -0.7853
  331MOL0     C44607   8.732   8.525   4.968  0.2680 -0.3658  0.1041
  331MOL0     O44608   8.597   8.494   4.974 -0.4203 -0.1590 -0.1306
  331MOL0     C44609   8.503   8.596   4.930 -0.7820  0.6828  0.0143
  331MOL0     C44610   8.443   8.680   5.042 -0.2593  0.9912  0.4440
  331MOL0     C44611   8.398   8.809   4.983 -0.3632 -0.1067 -0.6340
  331MOL0     C44612   8.275   8.861   5.053 -0.6675  0.0466 -0.4659
  331MOL0     C44613   8.296   8.918   5.193  0.9184 -0.5326 -0.2401
  331MOL0     C44614   8.311   8.955   5.309  0.4672 -0.4279 -0.4886
  331MOL0     C44615   8.811   8.412   4.975  0.5792  0.4689  0.2896
  331MOL0     C44616   8.947   8.423   4.984 -0.6180 -0.2100  0.9315
  331MOL0     C44617   9.022   8.292   4.994  1.3858  0.4782  0.2760
  331MOL0     H44618   9.431   8.757   4.799  2.2694 -1.5905  0.3235
  331MOL0     H44619   9.622   8.882   4.889 -0.7672  4.2316  0.3478
  331MOL0     H44620   9.793   8.988   4.983 -2.0764  0.6711 -0.8686
  331MOL0     H44621   9.676   9.120   4.999  0.6102  1.2035 -1.0527
  331MOL0     H44622   9.921   9.058   5.151  0.0988 -1.2405 -2.2245
  331MOL0     H44623   9.786   9.126   5.254  1.7809 -3.7198  1.1506
  331MOL0     H44624   9.894   9.319   5.190  1.5395  1.2122 -1.8224
  331MOL0     H44625   9.797   9.310   5.066  0.5826 -0.6237 -1.4072
  331MOL0     H44626   9.972   9.230   4.907 -0.5722 -2.3606  0.6727
  331MOL0     H44627  10.004   9.384   4.995  1.3269  0.1005  2.3434
  331MOL0     H44628  10.176   9.279   5.123  1.1243 -4.7778  3.5182
  331MOL0     H44629  10.116   9.118   5.105 -2.5136  1.3535  1.9409
  331MOL0     H44630  10.150   9.169   4.843  0.3135 -3.8657  0.6707
  331MOL0     H44631  10.276   9.278   4.912  3.5044 -1.9409  0.4428
  331MOL0     H44632  10.280   8.992   4.989  1.7085 -1.9797 -2.8303
  331MOL0     H44633  10.393   9.124   5.021 -1.4298  0.8110  2.6160
  331MOL0     H44634  10.443   8.940   4.848 -1.1738  0.2333  0.2945
  331MOL0     H44635  10.318   8.991   4.739  3.5860 -0.0371 -4.3201
  331MOL0     H44636  10.653   8.997   4.756 -3.3845 -0.5651  2.9807
  331MOL0     H44637  10.820   9.120   4.549  4.7254  0.4933  2.6345
  331MOL0     H44638  10.758   9.285   4.518  0.6036 -0.1354  0.5883
  331MOL0     H44639  10.909   9.159   4.768  0.9163  0.9118 -0.1798
  331MOL0     H44640  10.992   9.259   4.650 -0.9672  0.1056 -2.3086
  331MOL0     H44641  10.819   9.442   4.732  2.6711  0.9483 -0.7182
  331MOL0     H44642  10.966   9.411   4.837 -0.4368  2.7078 -0.0859
  331MOL0     H44643  10.820   9.240   4.951 -2.1336 -1.3530  1.3406
  331MOL0     H44644  10.683   9.312   4.876  0.2409 -3.2801  3.4500
  331MOL0     H44645  10.588   9.586   4.978  0.7047  3.5738  2.7455
  331MOL0     H44646  10.384   9.574   5.144 -0.5913 -0.7633  1.4133
  331MOL0     H44647  10.255   9.303   5.729 -0.7237 -2.7757  0.9080
  331MOL0     H44648  10.059   9.173   5.755 -2.5643  1.2672 -2.1454
  331MOL0     H44649   9.983   8.957   5.752 -0.1639  0.3269 -0.3331
  331MOL0     H44650   9.833   9.051   5.739  0.4110 -0.7470  2.7161
  331MOL0     H44651   9.879   8.801   5.583  2.4020  0.2937  0.8662
  331MOL0     H44652   9.805   8.770   5.748  0.5750  0.6431  1.4957
  331MOL0     H44653   9.647   8.967   5.630 -0.7091  0.4328 -2.9635
  331MOL0     H44654   9.679   8.856   5.495  0.3773  1.6329 -0.3459
  331MOL0     H44655   9.574   8.754   5.771 -0.3092  0.7954 -0.7254
  331MOL0     H44656   9.630   8.669   5.617  2.1771  1.2757 -3.4054
  331MOL0     H44657   9.457   8.768   5.487 -0.1338  0.4677  0.4475
  331MOL0     H44658   9.401   8.873   5.615  1.6274 -0.1436  2.3914
  331MOL0     H44659   9.396   8.561   5.670  1.7079  0.8913 -1.1842
  331MOL0     H44660   9.296   8.685   5.741 -2.1763 -2.5689  0.2044
  331MOL0     H44661   9.159   8.554   5.569  0.5936  0.5350  0.2794
  331MOL0     H44662   9.280   8.586   5.446 -0.0210 -1.5627  0.8317
  331MOL0     H44663   9.215   8.808   5.428 -1.1681 -0.1922 -0.5982
  331MOL0     H44664   9.075   8.695   5.447  1.0627 -2.7030  0.1251
  331MOL0     H44665  10.060   9.069   5.340  0.2901 -0.7310 -0.8509
  331MOL0     H44666  10.267   9.175   5.307 -0.5711 -0.4879 -0.7090
  331MOL0     H44667  10.611   9.336   5.408  3.1447 -4.4325 -2.4140
  331MOL0     H44668  10.804   9.347   5.249 -0.5841 -1.6344  0.2238
  331MOL0     H44669   9.478   8.869   5.282 -2.6387  0.1800 -0.2981
  331MOL0     H44670   9.282   8.757   5.212  0.4413  0.0652 -0.4872
  331MOL0     H44671   8.961   8.765   4.997  0.6925 -0.8067  0.1517
  331MOL0     H44672   8.722   8.747   4.965  2.1744  1.5053 -2.0777
  331MOL0     H44673   8.419   8.543   4.884  1.0048 -2.3447 -0.0105
  331MOL0     H44674   8.552   8.662   4.858  3.0805 -0.0499  1.7095
  331MOL0     H44675   8.516   8.686   5.123  0.5384  1.0871 -0.2652
  331MOL0     H44676   8.358   8.619   5.074  0.9592 -1.2153 -0.2627
  331MOL0     H44677   8.388   8.787   4.876  0.3968 -3.3914 -0.1355
  331MOL0     H44678   8.469   8.891   4.986 -2.4554  1.8651 -1.6483
  331MOL0     H44679   8.231   8.930   4.981 -1.5313 -0.5623 -0.5379
  331MOL0     H44680   8.205   8.779   5.070  0.9758 -1.2371  0.4759
  331MOL0     H44681   8.326   8.990   5.409  0.3613 -0.6714 -0.3863
  331MOL0     H44682   8.768   8.313   4.962 -0.8787  1.0257  0.6956
  331MOL0     H44683   9.017   8.261   5.099 -2.8009 -0.0737  0.0668
  331MOL0     H44684   8.966   8.217   4.938 -3.0362  4.3583 -1.0815
  331MOL0     H44685   9.128   8.297   4.967  1.2605  1.3416 -0.0721
  332MOL0     O44686   3.928  11.397   7.716 -0.4312 -0.1679 -0.3529
  332MOL0     C44687   3.927  11.276   7.745 -0.1498  0.4580 -0.2670
  332MOL0     O44688   3.829  11.204   7.822 -0.5026 -0.7357 -0.0122
  332MOL0     C44689   3.706  11.263   7.813 -0.7487  0.1031  0.7980
  332MOL0     C44690   3.637  11.295   7.925 -0.0947  0.5478 -0.8164
  332MOL0     C44691   3.506  11.346   7.923 -0.4546 -0.1789  0.1782
  332MOL0     C44692   3.450  11.369   7.794  0.6196 -0.2206 -0.4390
  332MOL0     O44693   3.321  11.406   7.772 -0.3751 -0.1751  0.2708
  332MOL0     C44694   3.228  11.395   7.872  0.5401 -0.0998 -0.2461
  332MOL0     C44695   3.082  11.434   7.813  0.4812 -0.8661  0.0043
  332MOL0     C44696   3.035  11.323   7.708  0.0792 -0.4794  1.1012
  332MOL0     C44697   2.882  11.331   7.700  0.3897  0.0331  0.2432
  332MOL0     C44698   2.811  11.194   7.691 -0.5115 -0.2539  0.2911
  332MOL0     C44699   2.856  11.135   7.552 -0.3336 -1.1392  1.0167
  332MOL0     C44700   2.746  11.048   7.486  0.5189 -0.2248 -0.1886
  332MOL0     C44701   2.637  11.119   7.397 -0.8051 -0.0143  0.5219
  332MOL0     N44702   2.562  11.018   7.319  0.0522  0.8607 -0.7567
  332MOL0     C44703   2.614  10.905   7.256  0.0125 -0.9467 -0.2763
  332MOL0     C44704   2.508  10.836   7.206  0.3515  0.4288 -0.6256
  332MOL0     C44705   2.511  10.714   7.132 -0.2971 -0.5440  0.4174
  332MOL0     C44706   2.578  10.607   7.227  0.7783 -0.0617 -0.8685
  332MOL0     C44707   2.588  10.473   7.150  0.8844  0.9818 -0.5981
  332MOL0     C44708   2.666  10.378   7.233  0.6060 -0.0511 -0.0136
  332MOL0     O44709   2.700  10.273   7.145 -0.4421 -0.1769  0.1773
  332MOL0     C44710   2.820  10.284   7.081 -0.1630 -0.2563 -0.1363
  332MOL0     C44711   2.846  10.194   6.982  0.6650  0.3168  0.4328
  332MOL0     C44712   2.969  10.183   6.915  0.1188 -0.1279  0.2452
  332MOL0     C44713   3.073  10.272   6.958 -0.3901  0.2216 -1.6834
  332MOL0     C44714   3.202  10.247   6.894 -0.3057 -0.8794 -0.1350
  332MOL0     O44715   3.291  10.350   6.890 -0.2972 -0.3670 -0.0108
  332MOL0     C44716   3.410  10.323   6.820 -0.4342 -0.8914 -0.5984
  332MOL0     C44717   3.439  10.387   6.697  0.5149  0.4743  0.2599
  332MOL0     C44718   3.551  10.342   6.629 -0.3859  0.8954 -0.1458
  332MOL0     C44719   3.642  10.257   6.688 -1.3775  0.9154  0.4150
  332MOL0     O44720   3.760  10.244   6.621 -1.0283  0.0726  0.3246
  332MOL0     C44721   3.884  10.213   6.687  0.8981 -0.0772 -0.7330
  332MOL0     C44722   3.997  10.184   6.591  0.3694 -0.5061  0.3727
  332MOL0     C44723   3.988  10.062   6.504  0.2726  0.2447  0.1743
  332MOL0     C44724   4.092  10.075   6.398  0.0578  1.0448  0.4977
  332MOL0     C44725   4.113   9.943   6.315  1.3909  0.0429 -0.3345
  332MOL0     C44726   4.236   9.939   6.214  0.4571 -0.5656  1.0331
  332MOL0     C44727   4.217  10.055   6.105  0.5935  0.0430  0.6259
  332MOL0     C44728   4.346  10.072   6.021 -0.6284 -0.7744 -0.1796
  332MOL0    Cl44729   4.353   9.940   5.911  0.1832 -0.3521 -0.1659
  332MOL0     C44730   3.616  10.212   6.816 -0.2264 -0.1330  0.1150
  332MOL0     C44731   3.509  10.254   6.886 -0.8148  0.9874 -0.1501
  332MOL0     O44732   3.217  10.136   6.848  0.9248 -0.0187 -0.1681
  332MOL0     C44733   3.050  10.374   7.050  0.9231 -0.3794  0.0583
  332MOL0     C44734   2.934  10.373   7.119  0.3178  0.1607 -0.2192
  332MOL0     N44735   2.397  10.919   7.228  0.2252 -0.7955 -0.6819
  332MOL0     N44736   2.429  11.026   7.295 -0.4368  0.4176 -0.0450
  332MOL0     C44737   3.514  11.335   7.677  0.3544  1.4578 -0.0639
  332MOL0     C44738   3.643  11.275   7.679  0.3950  0.5697 -0.7649
  332MOL0     C44739   4.050  11.201   7.709 -0.9284  0.1394 -0.2557
  332MOL0     C44740   4.173  11.259   7.724 -0.4415 -0.3797 -0.5981
  332MOL0     C44741   4.288  11.194   7.695  1.1689  1.1218  0.5468
  332MOL0     C44742   4.288  11.057   7.661 -0.5852 -0.1462  0.0921
  332MOL0     O44743   4.398  10.976   7.642 -0.3720 -0.5278  0.0708
  332MOL0     C44744   4.520  11.041   7.641 -0.2829  1.2220  0.3123
  332MOL0     C44745   4.618  10.941   7.555  0.8768  0.0188  0.3071
  332MOL0     C44746   4.574  10.957   7.405 -0.2197  0.0872 -0.1557
  332MOL0     C44747   4.668  10.876   7.318  0.4598 -0.1684  0.5135
  332MOL0     C44748   4.655  10.904   7.178  0.5391  0.3055  0.9033
  332MOL0     C44749   4.638  10.922   7.062  0.3331  0.0147  0.2699
  332MOL0     C44750   4.169  10.992   7.647  0.5668  0.2122  0.7615
  332MOL0     C44751   4.047  11.063   7.666  0.5177 -0.5935 -0.3223
  332MOL0     C44752   3.919  11.001   7.621 -0.9443 -0.5404  0.0141
  332MOL0     H44753   3.675  11.264   8.022 -1.2591 -2.1451 -1.1345
  332MOL0     H44754   3.448  11.366   8.012  2.7685  0.0345  2.4372
  332MOL0     H44755   3.233  11.296   7.919  0.4709  0.5560  1.2065
  332MOL0     H44756   3.251  11.466   7.952 -2.6555 -0.8982  1.5732
  332MOL0     H44757   3.073  11.536   7.774  4.2358 -1.1701 -2.1970
  332MOL0     H44758   3.006  11.427   7.891 -1.4608 -1.3797 -1.8175
  332MOL0     H44759   3.062  11.229   7.755  0.6164  1.1983  4.4267
  332MOL0     H44760   3.079  11.330   7.608 -0.4147  0.6340  0.9424
  332MOL0     H44761   2.840  11.379   7.788  0.3710  0.9064 -0.2345
  332MOL0     H44762   2.850  11.398   7.620 -3.9680 -1.0678  0.7746
  332MOL0     H44763   2.843  11.131   7.775  0.7373 -3.5117 -2.3717
  332MOL0     H44764   2.702  11.200   7.700 -0.8245 -1.8255 -1.5826
  332MOL0     H44765   2.882  11.214   7.481 -1.3712 -1.5008  0.2104
  332MOL0     H44766   2.943  11.068   7.553  0.3423 -0.3499 -0.7144
  332MOL0     H44767   2.697  10.994   7.568 -0.0871  2.7280  1.5315
  332MOL0     H44768   2.806  10.980   7.425 -2.2111 -2.5280 -0.4926
  332MOL0     H44769   2.568  11.184   7.452 -1.2486  1.8372 -2.0430
  332MOL0     H44770   2.685  11.189   7.329 -2.0329 -0.6002 -0.9964
  332MOL0     H44771   2.719  10.878   7.260  0.8537  1.8500 -1.0148
  332MOL0     H44772   2.414  10.673   7.103  0.8639 -1.7838 -1.9497
  332MOL0     H44773   2.570  10.727   7.041 -1.2998 -1.8625 -0.4524
  332MOL0     H44774   2.678  10.633   7.263  0.1014  0.0358  1.0486
  332MOL0     H44775   2.513  10.599   7.314  0.0372  0.5162 -1.3554
  332MOL0     H44776   2.641  10.487   7.055 -3.2300 -0.3051 -3.3540
  332MOL0     H44777   2.496  10.425   7.116  0.7735  0.5055  0.3756
  332MOL0     H44778   2.607  10.337   7.315  2.1236  1.1786  1.7947
  332MOL0     H44779   2.753  10.426   7.280  0.5085  0.7460 -0.6265
  332MOL0     H44780   2.766  10.123   6.964 -0.1163  1.4781 -0.8500
  332MOL0     H44781   2.985  10.119   6.829 -1.7103  0.8437 -0.8706
  332MOL0     H44782   3.373  10.460   6.651  0.9120  1.2464  0.9063
  332MOL0     H44783   3.555  10.376   6.526 -3.4957 -1.6072 -1.2969
  332MOL0     H44784   3.903  10.289   6.763  3.9739 -0.4683 -1.0000
  332MOL0     H44785   3.875  10.125   6.751  2.2563  0.6570  0.5195
  332MOL0     H44786   3.998  10.273   6.527  0.0353 -0.9413 -0.2523
  332MOL0     H44787   4.090  10.180   6.649  0.6943 -0.3940 -0.1277
  332MOL0     H44788   3.996   9.979   6.575 -1.3259  1.0631  1.3713
  332MOL0     H44789   3.887  10.058   6.460  0.2688  2.7386 -0.1966
  332MOL0     H44790   4.186  10.080   6.454  0.9819 -1.4650 -0.6788
  332MOL0     H44791   4.066  10.161   6.336 -1.1384  0.2612 -0.1319
  332MOL0     H44792   4.021   9.920   6.261  0.8862 -2.3005  1.3677
  332MOL0     H44793   4.114   9.856   6.382  0.8258 -0.9761 -1.6176
  332MOL0     H44794   4.325   9.974   6.267 -0.8709  1.3308  2.1614
  332MOL0     H44795   4.245   9.843   6.162 -0.7901 -0.6761  0.9930
  332MOL0     H44796   4.189  10.149   6.154 -0.0204 -0.5757  1.4913
  332MOL0     H44797   4.145  10.022   6.029 -0.7498 -0.7711  2.2047
  332MOL0     H44798   4.356  10.168   5.968  3.6435 -1.1107 -0.3018
  332MOL0     H44799   4.435  10.075   6.084 -0.2373  1.1473 -0.7486
  332MOL0     H44800   3.683  10.136   6.856 -1.2016 -0.6621  0.7758
  332MOL0     H44801   3.499  10.222   6.989  1.2000  2.3578  0.5398
  332MOL0     H44802   3.131  10.437   7.087 -0.7807  1.4109  0.9111
  332MOL0     H44803   2.932  10.425   7.214 -1.8191  0.0950 -0.1778
  332MOL0     H44804   3.462  11.341   7.581  1.7533 -1.0891 -1.0828
  332MOL0     H44805   3.692  11.239   7.588  0.0888  0.7343 -0.9977
  332MOL0     H44806   4.173  11.365   7.747 -1.9547 -0.0426 -1.9330
  332MOL0     H44807   4.379  11.254   7.695  4.1712 -2.8057  4.0486
  332MOL0     H44808   4.562  11.054   7.741  3.2872  1.4305 -1.0675
  332MOL0     H44809   4.512  11.141   7.598  2.1299  2.2299  1.9905
  332MOL0     H44810   4.597  10.837   7.583 -1.2168 -1.4268 -5.3393
  332MOL0     H44811   4.726  10.961   7.553  0.1846  4.9892 -2.0168
  332MOL0     H44812   4.570  11.060   7.370 -1.2723  0.1635  0.1570
  332MOL0     H44813   4.471  10.921   7.394 -0.2409 -0.0541  0.4604
  332MOL0     H44814   4.772  10.903   7.340  0.6391 -0.0697 -0.4191
  332MOL0     H44815   4.664  10.769   7.339 -0.5106  0.1533  2.2091
  332MOL0     H44816   4.637  10.931   6.955 -0.2908  2.1528  0.4037
  332MOL0     H44817   4.158  10.890   7.612 -2.8265  0.5462  0.4826
  332MOL0     H44818   3.840  11.009   7.696 -0.7726 -0.6086  0.2063
  332MOL0     H44819   3.880  11.051   7.532 -0.3462 -0.9358 -0.4813
  332MOL0     H44820   3.929  10.894   7.600 -0.9588 -0.1614 -2.1203
  333MOL0     O44821   5.183   2.678   3.765 -0.0105  0.3091  0.0073
  333MOL0     C44822   5.205   2.797   3.734  0.9190 -0.8858  0.5468
  333MOL0     O44823   5.308   2.839   3.654  0.2225  0.2334 -0.3008
  333MOL0     C44824   5.379   2.744   3.585 -0.5249  1.1647  0.1406
  333MOL0     C44825   5.336   2.714   3.452 -1.2175 -0.1833  0.6094
  333MOL0     C44826   5.407   2.633   3.361 -0.4590 -0.8459 -1.0435
  333MOL0     C44827   5.529   2.573   3.413 -0.7746 -0.0298 -0.1940
  333MOL0     O44828   5.607   2.482   3.342  0.6811 -0.0275  0.5651
  333MOL0     C44829   5.537   2.410   3.236 -0.5176  1.4926 -0.2091
  333MOL0     C44830   5.601   2.263   3.226 -0.3798  0.3959 -0.0177
  333MOL0     C44831   5.748   2.254   3.205 -0.2297  0.3133 -0.7390
  333MOL0     C44832   5.777   2.120   3.133  0.7145 -0.4469 -0.8086
  333MOL0     C44833   5.926   2.109   3.089 -0.1229 -0.9843 -0.1815
  333MOL0     C44834   5.964   1.972   3.020  0.2744 -0.1902 -0.4337
  333MOL0     C44835   5.946   1.995   2.872  0.0297  0.1300 -0.4460
  333MOL0     C44836   5.972   1.865   2.793  0.4389  0.7425  0.1913
  333MOL0     N44837   6.111   1.858   2.749 -0.1136 -0.5590  0.9455
  333MOL0     C44838   6.192   1.760   2.782 -0.1353 -0.5970  0.4549
  333MOL0     C44839   6.312   1.794   2.724  1.0891  0.2345 -0.6140
  333MOL0     C44840   6.432   1.707   2.757 -0.2141  0.3714  0.6977
  333MOL0     C44841   6.411   1.562   2.711  0.2758 -0.4377 -0.5219
  333MOL0     C44842   6.518   1.503   2.645 -0.8081  0.8358 -0.5288
  333MOL0     C44843   6.496   1.347   2.655  0.0768 -1.2792  0.0843
  333MOL0     O44844   6.370   1.296   2.621 -0.5917  0.2337  0.1939
  333MOL0     C44845   6.346   1.161   2.635  0.0907  1.3344 -0.3715
  333MOL0     C44846   6.246   1.107   2.566  0.5310  0.2994  0.3608
  333MOL0     C44847   6.206   0.974   2.577  0.4999  0.2147  0.1962
  333MOL0     C44848   6.275   0.885   2.663  0.4253  0.3291  0.0397
  333MOL0     C44849   6.233   0.741   2.684 -0.2755 -0.5651 -0.5743
  333MOL0     O44850   6.246   0.695   2.813 -0.0678  0.4759  0.2038
  333MOL0     C44851   6.208   0.562   2.831  0.2121 -0.1875  0.6123
  333MOL0     C44852   6.118   0.533   2.935 -0.7408 -0.0910  0.8795
  333MOL0     C44853   6.088   0.394   2.963 -0.1197 -0.3264 -0.0681
  333MOL0     C44854   6.147   0.287   2.883  0.7148 -1.1681  0.3270
  333MOL0     O44855   6.094   0.166   2.917  0.4760 -0.1334  0.5436
  333MOL0     C44856   6.113   0.049   2.831  0.8447  0.4181  0.6394
  333MOL0     C44857   6.016   0.019   2.718  0.3875 -0.3063  0.7298
  333MOL0     C44858   6.066  -0.102   2.647  0.2229  0.1809 -0.0589
  333MOL0     C44859   5.965  -0.152   2.553 -0.3484 -0.4200  0.4833
  333MOL0     C44860   6.055  -0.251   2.460 -0.2395 -1.3198  0.5249
  333MOL0     C44861   6.074  -0.391   2.522 -0.8047  0.2630 -0.4904
  333MOL0     C44862   6.131  -0.497   2.421 -0.2822  0.5154 -0.4610
  333MOL0     C44863   6.211  -0.611   2.480  0.2089  0.5864  0.5268
  333MOL0    Cl44864   6.117  -0.733   2.592  0.2509 -0.0000  0.4823
  333MOL0     C44865   6.230   0.317   2.780  0.2347 -0.0447  0.5976
  333MOL0     C44866   6.266   0.455   2.759 -0.4481  0.9268  0.3144
  333MOL0     O44867   6.187   0.680   2.586 -0.1264  0.0971  0.4824
  333MOL0     C44868   6.381   0.933   2.737 -0.2200  0.6185  0.2472
  333MOL0     C44869   6.420   1.071   2.724  0.3273 -0.4763  0.4188
  333MOL0     N44870   6.296   1.910   2.661 -0.7271 -0.3306  0.2916
  333MOL0     N44871   6.173   1.952   2.664  0.5522  0.0778  1.0002
  333MOL0     C44872   5.568   2.593   3.544  0.7514  0.7855 -0.5461
  333MOL0     C44873   5.490   2.685   3.625  0.4406  1.0546 -0.2940
  333MOL0     C44874   5.108   2.899   3.799  1.2104 -0.2506  0.5801
  333MOL0     C44875   5.050   2.869   3.921  0.8111 -0.1218 -0.7609
  333MOL0     C44876   4.964   2.958   3.991  0.6674  0.5940  0.2773
  333MOL0     C44877   4.932   3.081   3.936 -0.9223 -0.2680 -0.4660
  333MOL0     O44878   4.850   3.161   4.007 -0.0190 -0.5322  0.2334
  333MOL0     C44879   4.916   3.286   4.036 -0.1137  0.4824 -0.7192
  333MOL0     C44880   4.934   3.305   4.186  0.0194  0.5540  0.0219
  333MOL0     C44881   4.809   3.280   4.262 -0.1962  0.1650  0.1108
  333MOL0     C44882   4.826   3.268   4.416 -0.3231  0.3644  0.0949
  333MOL0     C44883   4.935   3.163   4.444  0.3791  0.7530  0.8249
  333MOL0     C44884   5.009   3.083   4.483  0.3751 -0.1099 -0.4764
  333MOL0     C44885   4.977   3.105   3.808  0.3290 -0.2916  0.3057
  333MOL0     C44886   5.069   3.025   3.745  0.3150  0.0702  1.3704
  333MOL0     C44887   5.124   3.086   3.609 -0.0623  0.9323  0.6461
  333MOL0     H44888   5.237   2.757   3.439 -0.9473  0.8926  1.8617
  333MOL0     H44889   5.358   2.612   3.266 -3.0383  2.4044 -0.6468
  333MOL0     H44890   5.429   2.398   3.249 -0.1561 -4.1335  0.0929
  333MOL0     H44891   5.551   2.452   3.136 -3.1719  0.0350 -1.2933
  333MOL0     H44892   5.544   2.197   3.160 -0.0847  0.3727 -0.2516
  333MOL0     H44893   5.601   2.219   3.327  0.3561  1.7228  0.5854
  333MOL0     H44894   5.788   2.259   3.307  1.5240  0.6937 -1.4139
  333MOL0     H44895   5.803   2.331   3.151  3.3461 -1.1538  0.4889
  333MOL0     H44896   5.739   2.036   3.191 -1.3575  2.1391  1.9506
  333MOL0     H44897   5.716   2.127   3.043  0.2290  2.7914 -0.3498
  333MOL0     H44898   5.937   2.192   3.018 -0.0211  0.9793  2.0141
  333MOL0     H44899   5.983   2.128   3.180 -0.8347  1.7171 -0.1991
  333MOL0     H44900   6.070   1.960   3.045  1.0641  5.8968  0.7215
  333MOL0     H44901   5.902   1.888   3.052  0.8070 -0.9165 -1.2462
  333MOL0     H44902   6.004   2.076   2.827  0.5346  1.1940  1.9634
  333MOL0     H44903   5.843   2.028   2.862  0.1192  1.9022  3.0325
  333MOL0     H44904   5.946   1.769   2.840  3.0802 -1.5556 -2.5748
  333MOL0     H44905   5.913   1.884   2.703  1.3767  2.2556 -0.1480
  333MOL0     H44906   6.169   1.678   2.849  1.8823 -0.5299  1.3171
  333MOL0     H44907   6.510   1.757   2.699 -2.8340  0.8157 -2.8281
  333MOL0     H44908   6.421   1.709   2.865 -2.1578 -0.9822  0.5840
  333MOL0     H44909   6.397   1.502   2.801 -0.7549 -0.0251 -0.3855
  333MOL0     H44910   6.334   1.580   2.635 -0.8321  1.6989  1.0007
  333MOL0     H44911   6.605   1.533   2.705 -0.8863 -0.1782  0.1027
  333MOL0     H44912   6.549   1.540   2.546 -0.3804  0.1599 -0.6548
  333MOL0     H44913   6.531   1.321   2.755  1.1542 -0.6725 -0.1203
  333MOL0     H44914   6.573   1.304   2.591 -0.5131 -1.8173 -0.2771
  333MOL0     H44915   6.178   1.168   2.509 -2.0512 -1.4405  1.3739
  333MOL0     H44916   6.131   0.932   2.511  1.0673 -4.2109  2.0057
  333MOL0     H44917   6.085   0.610   3.005  0.0838 -1.0773  2.4202
  333MOL0     H44918   6.012   0.362   3.034  0.3376 -0.0299  0.5600
  333MOL0     H44919   6.216   0.038   2.797  0.9613 -2.4195  1.6042
  333MOL0     H44920   6.099  -0.033   2.902 -3.8758 -0.8203 -1.3409
  333MOL0     H44921   5.917   0.004   2.761  0.0274 -0.8332 -0.2573
  333MOL0     H44922   6.020   0.102   2.646 -1.4001 -2.2100 -1.7183
  333MOL0     H44923   6.164  -0.078   2.604  1.1090  0.2936  1.9032
  333MOL0     H44924   6.095  -0.182   2.717  0.6908 -1.5655 -2.1231
  333MOL0     H44925   5.910  -0.076   2.496 -1.8525 -2.7074 -1.3308
  333MOL0     H44926   5.890  -0.200   2.616  0.0555  0.0596  1.3335
  333MOL0     H44927   6.149  -0.212   2.421  1.5315 -5.9388 -0.4742
  333MOL0     H44928   6.009  -0.280   2.366  3.7029 -1.8222 -1.4554
  333MOL0     H44929   6.155  -0.385   2.596  0.4964  0.1806 -1.8627
  333MOL0     H44930   5.991  -0.436   2.577  1.1013 -0.2777  2.2188
  333MOL0     H44931   6.200  -0.433   2.365  0.9863  0.0959  0.5575
  333MOL0     H44932   6.053  -0.544   2.362  0.7275  0.2542 -1.6181
  333MOL0     H44933   6.263  -0.660   2.397 -2.9644 -3.8528  0.8011
  333MOL0     H44934   6.298  -0.577   2.537  0.7120 -1.0820  0.7886
  333MOL0     H44935   6.260   0.246   2.703 -0.9766 -0.1371  0.2011
  333MOL0     H44936   6.343   0.470   2.684  0.3808  0.2158  1.0036
  333MOL0     H44937   6.418   0.865   2.813 -0.6664 -1.7393 -1.5313
  333MOL0     H44938   6.485   1.118   2.797 -3.2858  3.5039  1.5052
  333MOL0     H44939   5.658   2.545   3.581  0.1543  0.4740  0.5691
  333MOL0     H44940   5.539   2.721   3.715 -1.7995  3.0574  0.2297
  333MOL0     H44941   5.077   2.778   3.974 -1.5109 -1.5631 -1.8711
  333MOL0     H44942   4.927   2.929   4.089 -1.8093  2.1106 -0.1227
  333MOL0     H44943   4.844   3.360   3.999 -0.0373  0.5671 -0.7017
  333MOL0     H44944   5.003   3.299   3.970 -0.6782 -1.4631 -1.9228
  333MOL0     H44945   4.972   3.406   4.207  0.7367  0.7568 -2.0830
  333MOL0     H44946   5.016   3.239   4.215  0.5847  0.1309 -2.3175
  333MOL0     H44947   4.766   3.185   4.229 -2.7074  0.6231  1.7608
  333MOL0     H44948   4.732   3.357   4.250 -0.7610 -0.3303  0.5115
  333MOL0     H44949   4.853   3.364   4.459 -1.3620  1.2408 -1.1244
  333MOL0     H44950   4.733   3.234   4.461 -0.1429 -1.6161 -0.9148
  333MOL0     H44951   5.082   3.006   4.502  1.8622  1.7845  2.1521
  333MOL0     H44952   4.946   3.200   3.766  3.4427  0.9363  0.5196
  333MOL0     H44953   5.091   3.190   3.607 -0.9133  0.8295  3.8068
  333MOL0     H44954   5.233   3.078   3.609  0.0650  2.5018  0.7166
  333MOL0     H44955   5.081   3.034   3.523 -2.2323  0.9467  1.6561
  334MOL0     O44956  11.458   9.847   9.742 -0.5143 -0.7056  0.7083
  334MOL0     C44957  11.442   9.790   9.850  0.3501 -0.0308 -0.2573
  334MOL0     O44958  11.387   9.849   9.961  0.6345  0.2159  0.1980
  334MOL0     C44959  11.377   9.987   9.954 -0.3081  1.0273  0.8396
  334MOL0     C44960  11.253  10.044   9.959 -0.2196 -0.4368 -0.9158
  334MOL0     C44961  11.243  10.181   9.964  0.7947 -0.9266  0.5280
  334MOL0     C44962  11.356  10.264   9.953 -0.4585 -1.0435  0.8793
  334MOL0     O44963  11.332  10.406   9.956 -1.1181 -0.1887 -0.3832
  334MOL0     C44964  11.444  10.501   9.954 -0.1417  0.4280 -0.7179
  334MOL0     C44965  11.407  10.611   9.856 -0.2411 -0.3258  0.4320
  334MOL0     C44966  11.282  10.680   9.888  0.0889  0.2919  0.2639
  334MOL0     C44967  11.247  10.708  10.032 -0.2970 -0.0780 -1.0083
  334MOL0     C44968  11.103  10.778  10.023 -0.1235  0.1249  0.0781
  334MOL0     C44969  11.029  10.806  10.155  0.2617  0.5076  0.8703
  334MOL0     C44970  10.907  10.893  10.121 -0.0938 -0.2684 -0.3731
  334MOL0     C44971  10.800  10.818  10.034  1.3052 -0.2473 -0.5378
  334MOL0     N44972  10.818  10.819   9.890  0.0734  0.2019  0.3415
  334MOL0     C44973  10.794  10.711   9.811  0.2082  0.4149 -0.6031
  334MOL0     C44974  10.825  10.757   9.685  0.6593 -0.0285  1.0960
  334MOL0     C44975  10.791  10.689   9.558  0.3628  0.2604  1.4122
  334MOL0     C44976  10.875  10.562   9.539 -0.5475  0.9111 -0.3610
  334MOL0     C44977  11.033  10.576   9.543 -0.1964 -0.0165  1.3319
  334MOL0     C44978  11.117  10.445   9.569  0.1374 -0.4091 -0.0461
  334MOL0     O44979  11.067  10.352   9.480  0.1217  0.6562  0.2057
  334MOL0     C44980  11.080  10.227   9.525 -0.2219  1.3585 -0.1127
  334MOL0     C44981  11.190  10.170   9.585 -0.5163 -0.1668 -0.9835
  334MOL0     C44982  11.181  10.042   9.631  0.4160 -0.1656  0.0545
  334MOL0     C44983  11.071   9.961   9.611  0.3948  1.0502  1.1408
  334MOL0     C44984  11.065   9.820   9.655  0.6615 -0.4271  0.1489
  334MOL0     O44985  10.996   9.737   9.574 -0.4688 -0.5660 -0.0367
  334MOL0     C44986  10.978   9.616   9.635  0.6008  0.7493  0.0388
  334MOL0     C44987  10.883   9.602   9.736  0.5220  0.4267  0.1531
  334MOL0     C44988  10.858   9.476   9.801 -0.4315 -0.6603  1.1812
  334MOL0     C44989  10.929   9.361   9.755 -0.0846 -0.0874 -0.0445
  334MOL0     O44990  10.913   9.241   9.811  0.3647 -0.4629  0.8711
  334MOL0     C44991  10.785   9.198   9.859 -0.2601  0.4783 -0.0853
  334MOL0     C44992  10.798   9.050   9.892 -0.1530 -0.6729  0.2750
  334MOL0     C44993  10.813   8.952   9.767  0.2870 -0.8705 -0.2873
  334MOL0     C44994  10.941   8.979   9.669  0.7052  1.0594  0.5345
  334MOL0     C44995  10.954   8.858   9.564  0.5369 -0.2005  0.6870
  334MOL0     C44996  10.832   8.847   9.470 -0.1818 -0.1834 -1.0197
  334MOL0     C44997  10.827   8.731   9.362  0.0765 -0.0184 -0.3615
  334MOL0     C44998  10.755   8.761   9.233  0.0555 -0.5884  0.4626
  334MOL0    Cl44999  10.847   8.892   9.174 -0.2255 -0.6947  0.1320
  334MOL0     C45000  11.022   9.381   9.653 -0.4407  0.0782  0.5557
  334MOL0     C45001  11.046   9.503   9.590  0.9500 -0.6484  0.5895
  334MOL0     O45002  11.111   9.789   9.762 -0.2468  0.2834  0.5376
  334MOL0     C45003  10.958  10.015   9.554  0.0923 -0.4289 -0.5868
  334MOL0     C45004  10.970  10.154   9.514  0.6288 -0.3878 -0.6062
  334MOL0     N45005  10.867  10.889   9.686  0.3346  0.3249 -1.0099
  334MOL0     N45006  10.870  10.913   9.818 -0.2638  0.3360  0.2109
  334MOL0     C45007  11.481  10.202   9.950 -0.7091  0.2755  0.5931
  334MOL0     C45008  11.494  10.061   9.954  0.2982 -0.3452  1.0035
  334MOL0     C45009  11.509   9.655   9.876 -0.8279 -0.3081 -0.1414
  334MOL0     C45010  11.504   9.607  10.013 -0.6746 -0.1018  0.1465
  334MOL0     C45011  11.569   9.490  10.047  0.0330  0.2968 -0.0811
  334MOL0     C45012  11.659   9.425   9.969 -0.3202  0.8598 -0.6159
  334MOL0     O45013  11.730   9.323  10.024  0.4633 -0.0385  0.2443
  334MOL0     C45014  11.804   9.235   9.937 -0.3611  0.0221 -0.0195
  334MOL0     C45015  11.867   9.125  10.031  0.5141  0.7245  1.9238
  334MOL0     C45016  11.935   9.180  10.150  0.4668 -0.0237  0.3489
  334MOL0     C45017  12.057   9.110  10.203 -0.4753 -0.0732 -1.0025
  334MOL0     C45018  12.166   9.197  10.242  0.5158  0.2777  0.4461
  334MOL0     C45019  12.245   9.274  10.284 -0.4248 -0.2684 -0.3590
  334MOL0     C45020  11.662   9.470   9.832 -0.0951  1.4050  0.6115
  334MOL0     C45021  11.592   9.581   9.786  0.5324 -1.2221  0.1369
  334MOL0     C45022  11.605   9.634   9.641  0.2554 -0.3668  0.9868
  334MOL0     H45023  11.175   9.971   9.979 -0.8800  0.4808 -0.0423
  334MOL0     H45024  11.150  10.236   9.955 -0.5042 -2.9645  0.8131
  334MOL0     H45025  11.466  10.530  10.057 -2.5823 -0.0123 -0.0115
  334MOL0     H45026  11.529  10.446   9.911  1.4639  2.3739 -0.1727
  334MOL0     H45027  11.388  10.569   9.757 -1.4494  0.5484  0.2687
  334MOL0     H45028  11.480  10.692   9.849 -2.9645  2.1111 -2.2396
  334MOL0     H45029  11.204  10.612   9.853  1.3214 -2.0073  1.6792
  334MOL0     H45030  11.294  10.776   9.836  4.8244  0.5188  1.3133
  334MOL0     H45031  11.227  10.615  10.086 -3.3668  1.1876  0.2919
  334MOL0     H45032  11.330  10.765  10.076 -0.5244 -1.3809  1.2780
  334MOL0     H45033  11.114  10.877   9.976  1.6162  0.3646  0.9047
  334MOL0     H45034  11.038  10.716   9.961  0.0644  0.8416 -0.8599
  334MOL0     H45035  10.996  10.721  10.215  2.5553 -0.6234  0.6265
  334MOL0     H45036  11.095  10.864  10.220  0.3167  2.4159 -0.7857
  334MOL0     H45037  10.940  10.988  10.077 -0.6190 -0.5491 -1.4055
  334MOL0     H45038  10.864  10.935  10.212  3.1567  2.0014  0.3294
  334MOL0     H45039  10.791  10.718  10.077 -1.2601 -1.1636 -2.9458
  334MOL0     H45040  10.698  10.850  10.055  2.3926  1.3158  3.2275
  334MOL0     H45041  10.758  10.612   9.836 -1.7141  1.7364  2.4104
  334MOL0     H45042  10.684  10.665   9.560  1.1073 -4.0518  4.1439
  334MOL0     H45043  10.811  10.750   9.470 -0.0770  0.2533  1.3068
  334MOL0     H45044  10.843  10.497   9.620 -0.4938  1.9506  0.5173
  334MOL0     H45045  10.847  10.504   9.451  2.7034 -0.6535 -0.4941
  334MOL0     H45046  11.064  10.647   9.620 -3.3875 -0.5389  3.2986
  334MOL0     H45047  11.054  10.615   9.444 -1.7743 -0.0378  0.9762
  334MOL0     H45048  11.098  10.417   9.673  0.4110  1.3206  0.5076
  334MOL0     H45049  11.226  10.447   9.563  0.1464  1.6568  0.0430
  334MOL0     H45050  11.280  10.227   9.603  0.5693 -2.1794  0.3354
  334MOL0     H45051  11.266  10.011   9.691 -1.3738  1.4478  3.7689
  334MOL0     H45052  10.823   9.691   9.750  0.3251  0.1524  1.1448
  334MOL0     H45053  10.782   9.454   9.875 -1.3804  2.3408  1.2464
  334MOL0     H45054  10.750   9.246   9.951 -0.1874 -1.6773  1.1391
  334MOL0     H45055  10.706   9.203   9.784 -1.7268 -4.5259  0.7159
  334MOL0     H45056  10.881   9.039   9.961 -1.2639  1.7693  2.1643
  334MOL0     H45057  10.705   9.023   9.944 -0.1074 -2.4788 -0.4965
  334MOL0     H45058  10.833   8.848   9.796  0.8840 -0.3349  1.2752
  334MOL0     H45059  10.717   8.960   9.715  0.7213  1.1758 -0.8310
  334MOL0     H45060  11.035   8.998   9.721  1.5686  0.3426 -0.7006
  334MOL0     H45061  10.920   9.071   9.614  0.3446  1.3909  1.2066
  334MOL0     H45062  10.986   8.769   9.618  2.6972 -0.7903 -1.3712
  334MOL0     H45063  11.043   8.887   9.506 -0.6022  1.9984 -0.0786
  334MOL0     H45064  10.746   8.825   9.534  3.0334 -0.0790  3.8383
  334MOL0     H45065  10.817   8.945   9.424 -0.8535 -0.7579 -2.0617
  334MOL0     H45066  10.775   8.652   9.416 -0.3258 -0.6717 -1.6628
  334MOL0     H45067  10.928   8.701   9.335 -1.2894 -2.8657 -2.8536
  334MOL0     H45068  10.758   8.688   9.151 -2.6803 -0.3626  0.0874
  334MOL0     H45069  10.652   8.790   9.253  0.3095  3.6762 -2.8496
  334MOL0     H45070  11.093   9.301   9.635  1.0340  1.3543  0.4976
  334MOL0     H45071  11.124   9.503   9.514 -2.4036  0.7533 -3.2569
  334MOL0     H45072  10.866   9.958   9.545  0.4101 -1.3847  1.6727
  334MOL0     H45073  10.886  10.192   9.457  0.8759  3.1027  1.1568
  334MOL0     H45074  11.574  10.258   9.955 -0.1794 -0.2941 -1.7294
  334MOL0     H45075  11.590  10.011   9.956  1.9741  2.4105 -2.0343
  334MOL0     H45076  11.439   9.641  10.093 -1.6769 -2.4510  0.3930
  334MOL0     H45077  11.558   9.457  10.150  1.1250 -0.3115 -0.1415
  334MOL0     H45078  11.871   9.284   9.866  2.5704 -2.4215  0.8383
  334MOL0     H45079  11.728   9.183   9.878 -1.9616  0.1626  1.8191
  334MOL0     H45080  11.933   9.058   9.975 -0.5513 -2.2368  3.9603
  334MOL0     H45081  11.796   9.055  10.075 -0.7497  1.2668  0.8183
  334MOL0     H45082  11.870   9.166  10.237 -1.3278 -2.0023 -1.2065
  334MOL0     H45083  11.960   9.283  10.122 -0.9697  0.4446  0.6937
  334MOL0     H45084  12.036   9.058  10.298  1.7215  2.1174  0.8098
  334MOL0     H45085  12.095   9.041  10.127 -0.0304 -0.2602 -0.6200
  334MOL0     H45086  12.313   9.350  10.315 -0.2927  0.7018 -2.8589
  334MOL0     H45087  11.722   9.419   9.757  0.2059  2.1344  0.3441
  334MOL0     H45088  11.504   9.618   9.602 -1.0812  3.6241  2.3842
  334MOL0     H45089  11.628   9.740   9.630  1.6797 -0.7533  0.0056
  334MOL0     H45090  11.673   9.573   9.581 -1.7694 -3.3895  1.5002
  335MOL0     O45091  10.379   1.553   8.422  0.6666 -0.6124  0.0256
  335MOL0     C45092  10.454   1.563   8.527  0.9945 -0.3272  0.1629
  335MOL0     O45093  10.567   1.633   8.520 -0.8527 -0.3603 -0.4140
  335MOL0     C45094  10.595   1.734   8.429  0.6998  0.6904  0.1156
  335MOL0     C45095  10.729   1.783   8.422 -0.1624 -0.3407 -0.1812
  335MOL0     C45096  10.775   1.885   8.335  0.3037 -0.1811  0.0740
  335MOL0     C45097  10.678   1.946   8.257 -0.0683  0.4532 -0.1767
  335MOL0     O45098  10.720   2.043   8.166 -0.6127 -0.5318 -0.3945
  335MOL0     C45099  10.621   2.128   8.102 -0.0170 -0.2932 -0.2396
  335MOL0     C45100  10.577   2.257   8.172 -0.4398  0.2056  0.5014
  335MOL0     C45101  10.484   2.335   8.075  0.1768  0.7329 -0.3189
  335MOL0     C45102  10.446   2.470   8.134  0.3321 -0.0579 -1.4055
  335MOL0     C45103  10.340   2.552   8.057  0.1678  0.1453 -0.3224
  335MOL0     C45104  10.278   2.672   8.146 -0.0968  0.8469 -1.0608
  335MOL0     C45105  10.383   2.779   8.158  0.1286 -0.2500  0.1701
  335MOL0     C45106  10.364   2.887   8.251  0.4633  0.4117 -0.4131
  335MOL0     N45107  10.238   2.961   8.231 -0.0844  0.2068  1.0871
  335MOL0     C45108  10.126   2.973   8.312 -0.0780  0.1159  0.8831
  335MOL0     C45109  10.047   3.063   8.251  0.2644 -0.2397  0.1147
  335MOL0     C45110   9.916   3.111   8.306  0.8647 -0.1404 -0.6022
  335MOL0     C45111   9.782   3.019   8.294  0.0715  0.3195  0.4312
  335MOL0     C45112   9.668   3.112   8.329  0.4119 -0.0589 -0.2097
  335MOL0     C45113   9.540   3.030   8.290 -0.6513  0.4818  1.1113
  335MOL0     O45114   9.429   3.092   8.343  0.7362 -0.4851 -0.0277
  335MOL0     C45115   9.305   3.069   8.281 -0.1165  0.7190 -0.6490
  335MOL0     C45116   9.207   3.174   8.296  0.7255  0.0198  0.3926
  335MOL0     C45117   9.081   3.142   8.258  0.0468 -0.3761 -0.9777
  335MOL0     C45118   9.035   3.021   8.208 -0.0877 -0.5917  0.1280
  335MOL0     C45119   8.895   2.999   8.159  0.2339 -0.6975 -0.8421
  335MOL0     O45120   8.820   3.109   8.134 -0.2249 -0.3842  0.3624
  335MOL0     C45121   8.718   3.108   8.045 -0.6761  0.5213  0.7058
  335MOL0     C45122   8.610   3.188   8.075  0.6287  0.2033 -0.4896
  335MOL0     C45123   8.498   3.189   7.983 -0.1211  0.0104 -0.7426
  335MOL0     C45124   8.505   3.122   7.863 -0.1414 -0.2676  0.5529
  335MOL0     O45125   8.407   3.130   7.772  0.2034 -0.4528  0.4710
  335MOL0     C45126   8.288   3.056   7.807 -0.3782 -0.3235 -0.6227
  335MOL0     C45127   8.163   3.138   7.774 -0.0415 -0.5379  0.3372
  335MOL0     C45128   8.161   3.160   7.615 -0.1048 -0.1194 -0.5642
  335MOL0     C45129   8.111   3.031   7.540 -0.4872 -0.6582 -0.5644
  335MOL0     C45130   8.073   3.066   7.394 -0.6286  0.1403  0.0138
  335MOL0     C45131   8.025   2.930   7.322 -0.6776 -0.5990 -0.1023
  335MOL0     C45132   8.007   2.972   7.176 -0.7434  0.5160 -1.2257
  335MOL0     C45133   8.110   2.886   7.092  0.0669 -0.0292  1.5469
  335MOL0    Cl45134   8.081   2.711   7.138 -0.1395 -0.4254 -0.2690
  335MOL0     C45135   8.615   3.041   7.840 -1.1822  0.1763  0.6683
  335MOL0     C45136   8.718   3.028   7.934  0.1400  0.5440  0.3093
  335MOL0     O45137   8.866   2.881   8.127  0.3427 -0.0774 -0.1778
  335MOL0     C45138   9.130   2.922   8.195  0.1659  0.0366  0.3256
  335MOL0     C45139   9.264   2.936   8.241  0.0042  0.9372  0.2042
  335MOL0     N45140  10.113   3.104   8.143  0.2989  0.5863  0.7880
  335MOL0     N45141  10.214   3.029   8.120  0.1793  0.0678  0.6500
  335MOL0     C45142  10.541   1.906   8.264  0.5286  0.3829  0.5149
  335MOL0     C45143  10.505   1.801   8.346 -0.2518 -0.1275  0.3515
  335MOL0     C45144  10.418   1.497   8.664  0.2220 -0.0966  0.0390
  335MOL0     C45145  10.298   1.426   8.671 -0.2589  0.2108  0.1009
  335MOL0     C45146  10.251   1.379   8.791  0.1335  0.9043  0.1342
  335MOL0     C45147  10.337   1.377   8.905 -0.3042 -0.4098 -0.3300
  335MOL0     O45148  10.299   1.340   9.036 -0.3170 -0.1082  0.7760
  335MOL0     C45149  10.171   1.281   9.057 -0.2879  0.3660 -0.3883
  335MOL0     C45150  10.162   1.133   9.001 -0.4028  0.2537 -0.0592
  335MOL0     C45151  10.031   1.059   9.018 -0.7885 -0.3807  0.7948
  335MOL0     C45152   9.925   1.097   8.904 -0.3075 -0.7503  0.0834
  335MOL0     C45153   9.875   1.235   8.924  0.3434 -0.5604  0.9255
  335MOL0     C45154   9.842   1.349   8.937 -1.1068 -0.3345 -0.9477
  335MOL0     C45155  10.464   1.426   8.890  0.4034  0.0218  0.0573
  335MOL0     C45156  10.499   1.494   8.779  1.0097 -0.0914  0.1691
  335MOL0     C45157  10.634   1.559   8.778  0.0092  0.4406 -0.2930
  335MOL0     H45158  10.794   1.732   8.492 -0.8639  0.0076  0.7478
  335MOL0     H45159  10.876   1.926   8.337  0.0733  0.5965  3.8204
  335MOL0     H45160  10.661   2.155   8.004  0.6204  0.8879  0.3215
  335MOL0     H45161  10.532   2.073   8.072 -2.4441  3.2831 -0.2224
  335MOL0     H45162  10.664   2.311   8.211 -0.3728 -0.4793  1.3608
  335MOL0     H45163  10.522   2.212   8.255  1.5609 -2.7474  0.3855
  335MOL0     H45164  10.396   2.273   8.057 -0.2291  1.9363 -2.7859
  335MOL0     H45165  10.531   2.323   7.977 -2.2753 -3.5018 -1.2566
  335MOL0     H45166  10.410   2.458   8.236  1.0757 -0.0237 -1.1291
  335MOL0     H45167  10.542   2.523   8.143  0.4786 -0.5279  0.0470
  335MOL0     H45168  10.386   2.589   7.965  1.6945 -1.1420 -0.1125
  335MOL0     H45169  10.263   2.480   8.030  2.3197 -1.5795 -2.3244
  335MOL0     H45170  10.184   2.709   8.102 -0.6307 -1.1127 -1.6510
  335MOL0     H45171  10.259   2.634   8.247  0.5707  3.4029  0.1194
  335MOL0     H45172  10.398   2.825   8.060  3.5199  0.9626  1.1279
  335MOL0     H45173  10.477   2.730   8.182  0.5236  0.3463 -0.1515
  335MOL0     H45174  10.353   2.858   8.356  1.5460  0.8029 -0.1786
  335MOL0     H45175  10.453   2.951   8.244  0.1255  0.7714 -1.7452
  335MOL0     H45176  10.115   2.920   8.406  2.1483 -0.8253  0.6516
  335MOL0     H45177   9.925   3.119   8.415 -0.6721 -0.5844 -0.4191
  335MOL0     H45178   9.904   3.210   8.261 -2.0170 -0.3061 -0.3953
  335MOL0     H45179   9.767   2.980   8.193 -2.2495 -1.7695  1.4716
  335MOL0     H45180   9.772   2.936   8.364  0.4314 -0.6686 -0.6471
  335MOL0     H45181   9.676   3.203   8.269 -0.2801 -0.1720 -0.4915
  335MOL0     H45182   9.664   3.142   8.434 -1.2752 -0.6557 -0.0669
  335MOL0     H45183   9.544   2.928   8.329  0.9267  1.3084  3.3119
  335MOL0     H45184   9.518   3.028   8.183 -2.9117 -0.5996  1.5223
  335MOL0     H45185   9.228   3.271   8.338 -1.6494 -0.0413  1.9213
  335MOL0     H45186   9.018   3.230   8.263  0.3785 -0.1026 -1.5266
  335MOL0     H45187   8.610   3.250   8.164 -1.0908 -1.1255  0.5059
  335MOL0     H45188   8.404   3.242   7.998  0.4241  0.9871 -0.7192
  335MOL0     H45189   8.277   2.962   7.753 -2.4657  0.1929 -1.2091
  335MOL0     H45190   8.293   3.029   7.913 -3.6688  1.4447  0.1106
  335MOL0     H45191   8.080   3.075   7.808 -0.6010 -0.9048 -1.5975
  335MOL0     H45192   8.166   3.228   7.836 -2.8159 -1.4546  1.9806
  335MOL0     H45193   8.094   3.237   7.575  0.4749 -1.3719 -4.2730
  335MOL0     H45194   8.258   3.186   7.573  1.0373 -0.3966  1.7398
  335MOL0     H45195   8.030   2.987   7.599 -1.4539  0.8973 -0.6650
  335MOL0     H45196   8.196   2.962   7.547 -0.0129 -0.0869 -0.5715
  335MOL0     H45197   8.154   3.118   7.340 -2.1566  0.7625 -1.7963
  335MOL0     H45198   7.984   3.128   7.379 -0.2452  0.2139 -2.2979
  335MOL0     H45199   8.091   2.847   7.349  1.1237  0.5479 -0.7927
  335MOL0     H45200   7.927   2.899   7.357 -2.4107  2.0674 -2.2097
  335MOL0     H45201   8.018   3.080   7.164  2.5502  0.6356  1.2523
  335MOL0     H45202   7.914   2.934   7.132  0.0160 -1.9397 -0.8945
  335MOL0     H45203   8.086   2.902   6.987 -1.4026  0.5251  1.9405
  335MOL0     H45204   8.213   2.913   7.117  1.7738 -1.9499 -2.6618
  335MOL0     H45205   8.611   2.988   7.746 -0.4126  1.5498 -0.1699
  335MOL0     H45206   8.798   2.963   7.900 -0.8172 -0.2417 -0.5494
  335MOL0     H45207   9.099   2.822   8.167  1.5184 -1.2257  2.9633
  335MOL0     H45208   9.331   2.852   8.255 -0.7079  0.7354  2.9124
  335MOL0     H45209  10.461   1.958   8.213  0.5449  1.1555  1.2437
  335MOL0     H45210  10.397   1.792   8.353 -0.6274  3.1349  0.3682
  335MOL0     H45211  10.257   1.401   8.574  0.0389  0.9072 -0.2108
  335MOL0     H45212  10.160   1.321   8.798  0.9858 -0.6145 -0.7932
  335MOL0     H45213  10.092   1.340   9.009 -0.9149 -1.8174 -2.2366
  335MOL0     H45214  10.146   1.274   9.163 -3.3428 -2.8507 -1.1525
  335MOL0     H45215  10.239   1.079   9.057 -2.5995  0.9468  4.0081
  335MOL0     H45216  10.193   1.127   8.897  1.4851 -0.9869  0.5161
  335MOL0     H45217   9.989   1.092   9.113  0.1995 -3.0439  2.2458
  335MOL0     H45218  10.046   0.951   9.018  1.8039 -0.0900  2.9975
  335MOL0     H45219   9.961   1.090   8.801  2.0847 -0.2985  0.8251
  335MOL0     H45220   9.846   1.022   8.904  0.0164 -1.0977  0.5724
  335MOL0     H45221   9.813   1.451   8.944 -0.0905 -0.0038 -1.3989
  335MOL0     H45222  10.538   1.418   8.969  0.2491 -0.8287  0.1200
  335MOL0     H45223  10.695   1.530   8.864 -0.0068  0.6857 -0.1982
  335MOL0     H45224  10.692   1.514   8.697 -0.9391 -0.6570 -0.3914
  335MOL0     H45225  10.626   1.668   8.771  2.1459  0.6524  0.0910
  336MOL0     O45226   4.983   3.401   8.836  0.1589 -0.5970  0.0465
  336MOL0     C45227   5.092   3.455   8.824 -0.4198 -0.1272 -0.3938
  336MOL0     O45228   5.201   3.395   8.756 -0.7210 -0.8939 -0.1635
  336MOL0     C45229   5.191   3.265   8.713 -0.3163  1.2766 -0.1021
  336MOL0     C45230   5.203   3.160   8.809  0.5361 -0.1452 -0.3287
  336MOL0     C45231   5.188   3.018   8.776 -0.1152 -0.6622  0.0819
  336MOL0     C45232   5.166   2.987   8.641  0.1677 -0.5960  0.4894
  336MOL0     O45233   5.143   2.862   8.599 -0.2045  0.1877  0.1398
  336MOL0     C45234   5.200   2.739   8.652 -0.4714 -0.3689 -0.2891
  336MOL0     C45235   5.099   2.662   8.730 -0.9277 -1.5421 -0.4257
  336MOL0     C45236   5.162   2.549   8.815 -0.1509  0.3100 -0.7734
  336MOL0     C45237   5.158   2.414   8.747  0.5079 -0.7947  0.5808
  336MOL0     C45238   5.265   2.325   8.820  0.3002  0.7309 -1.2455
  336MOL0     C45239   5.253   2.183   8.749 -0.6574 -0.1933  0.6569
  336MOL0     C45240   5.360   2.086   8.802 -0.4787  0.5827 -0.1175
  336MOL0     C45241   5.360   2.059   8.950 -0.2634 -0.6997 -0.6160
  336MOL0     N45242   5.239   1.985   9.005  0.7454 -0.1307  1.2348
  336MOL0     C45243   5.159   1.880   8.946  0.6323 -0.3186 -0.7162
  336MOL0     C45244   5.052   1.856   9.033 -0.8906 -0.1245  0.2864
  336MOL0     C45245   4.942   1.755   9.017 -0.6195 -0.5298  0.5910
  336MOL0     C45246   4.953   1.618   9.074 -0.4508 -0.0433 -0.6891
  336MOL0     C45247   5.017   1.612   9.216 -0.4731 -0.3218 -0.3623
  336MOL0     C45248   4.935   1.695   9.322 -0.4168  1.0494  0.3470
  336MOL0     O45249   4.809   1.627   9.327  0.0325 -0.1718  0.4154
  336MOL0     C45250   4.690   1.695   9.367  0.9078  0.2820  0.0447
  336MOL0     C45251   4.684   1.787   9.474  0.5754  0.0227 -0.2224
  336MOL0     C45252   4.573   1.851   9.516 -0.2862  0.0077 -0.2292
  336MOL0     C45253   4.451   1.828   9.455  0.4420 -0.5695 -0.6676
  336MOL0     C45254   4.336   1.910   9.497 -0.1240  0.4905  0.6129
  336MOL0     O45255   4.219   1.843   9.504 -0.4316  0.0611 -0.1315
  336MOL0     C45256   4.108   1.906   9.551  0.5640 -0.9647 -0.8091
  336MOL0     C45257   3.987   1.861   9.496  0.1266 -0.8645 -0.1789
  336MOL0     C45258   3.872   1.922   9.532  0.2984  0.6872  0.2201
  336MOL0     C45259   3.862   2.025   9.630 -0.5759  1.4481 -0.2125
  336MOL0     O45260   3.750   2.079   9.672  0.7968  0.1628 -0.1632
  336MOL0     C45261   3.618   2.050   9.616 -0.1764  0.4890 -0.4856
  336MOL0     C45262   3.489   2.104   9.658 -0.2020  0.4926 -0.2685
  336MOL0     C45263   3.480   2.063   9.810  0.5587  0.1251 -0.8376
  336MOL0     C45264   3.330   2.101   9.860 -1.9035 -0.0082 -0.2986
  336MOL0     C45265   3.286   2.060  10.000  0.9414  0.0850 -0.8938
  336MOL0     C45266   3.160   2.136  10.043 -0.1631 -0.7406 -0.5727
  336MOL0     C45267   3.193   2.285  10.071  0.2162  0.5926  0.7070
  336MOL0     C45268   3.121   2.323  10.205  0.9278 -0.1832 -0.8999
  336MOL0    Cl45269   3.151   2.494  10.253 -0.2768 -0.0017 -0.3349
  336MOL0     C45270   3.980   2.047   9.702  0.4343 -0.1411  0.6117
  336MOL0     C45271   4.102   2.001   9.659  0.0273 -0.4354  1.4634
  336MOL0     O45272   4.355   2.024   9.541  1.1201 -0.4136 -0.7863
  336MOL0     C45273   4.447   1.731   9.344  0.7968 -0.2634 -0.6348
  336MOL0     C45274   4.563   1.663   9.302 -0.2043 -0.2372  0.9541
  336MOL0     N45275   5.062   1.947   9.138 -0.3535 -0.3101  0.0344
  336MOL0     N45276   5.171   2.008   9.125  0.1444 -0.7024 -1.6525
  336MOL0     C45277   5.145   3.084   8.546  0.4602 -0.1107  0.0636
  336MOL0     C45278   5.165   3.218   8.580  0.7587 -0.0229 -0.2251
  336MOL0     C45279   5.095   3.581   8.897  0.1663  0.0911  1.1275
  336MOL0     C45280   5.073   3.587   9.030 -0.3168 -0.4159 -0.1940
  336MOL0     C45281   5.080   3.707   9.102 -0.4058  0.4838  0.2252
  336MOL0     C45282   5.116   3.824   9.036 -0.2065  0.1371 -0.5201
  336MOL0     O45283   5.133   3.943   9.105 -0.2203 -0.8301  0.3903
  336MOL0     C45284   5.119   4.060   9.020  0.3333 -1.1901 -0.3032
  336MOL0     C45285   5.243   4.144   8.968 -0.7857 -0.5424  0.1350
  336MOL0     C45286   5.186   4.281   8.919  0.0143  1.2154 -0.9089
  336MOL0     C45287   5.114   4.260   8.790  0.3982 -1.4580  0.1832
  336MOL0     C45288   5.211   4.253   8.683 -0.0683  2.4626  0.4812
  336MOL0     C45289   5.298   4.259   8.598 -0.6308  1.2882 -1.2947
  336MOL0     C45290   5.149   3.811   8.903 -0.3468  0.5428  0.0049
  336MOL0     C45291   5.151   3.690   8.827  0.2887 -1.6590 -0.5049
  336MOL0     C45292   5.218   3.687   8.691  0.5109  0.3942  0.1201
  336MOL0     H45293   5.240   3.192   8.907  2.4370  3.6516 -2.0556
  336MOL0     H45294   5.212   2.950   8.857 -0.6208  0.4831  1.2399
  336MOL0     H45295   5.238   2.664   8.582  0.7459 -2.8704  2.8029
  336MOL0     H45296   5.283   2.760   8.719  0.7673  0.2598 -1.9439
  336MOL0     H45297   5.017   2.628   8.666  0.4533 -1.9948 -2.0281
  336MOL0     H45298   5.069   2.733   8.809 -1.5748 -2.9739  0.6700
  336MOL0     H45299   5.102   2.552   8.906  0.7317  2.3146 -0.2014
  336MOL0     H45300   5.266   2.575   8.838 -0.0900  1.7510 -2.4037
  336MOL0     H45301   5.063   2.366   8.771  0.6996 -1.6858 -0.3716
  336MOL0     H45302   5.170   2.413   8.638 -0.4984  0.3523  0.4418
  336MOL0     H45303   5.362   2.376   8.823 -1.0466  3.5024  1.0207
  336MOL0     H45304   5.242   2.320   8.927 -3.6097 -0.3194 -1.9768
  336MOL0     H45305   5.159   2.131   8.771 -1.3253  0.0701 -1.3560
  336MOL0     H45306   5.264   2.203   8.642 -1.3452  0.5859  0.7208
  336MOL0     H45307   5.460   2.122   8.776 -0.8414  1.3298 -0.5103
  336MOL0     H45308   5.366   1.993   8.744 -2.1670  0.4157 -0.0843
  336MOL0     H45309   5.449   2.002   8.979  0.1887  1.0722  1.8687
  336MOL0     H45310   5.372   2.150   9.011 -0.0494 -2.3433  1.9512
  336MOL0     H45311   5.168   1.824   8.854 -0.0811  1.2187 -1.7684
  336MOL0     H45312   4.853   1.799   9.061  0.2441  1.3358  0.5990
  336MOL0     H45313   4.914   1.750   8.911 -1.2139 -0.0096  0.7199
  336MOL0     H45314   4.852   1.576   9.072 -1.1812  1.5016  1.0799
  336MOL0     H45315   5.021   1.561   9.010  0.4599  3.5299 -3.2204
  336MOL0     H45316   5.112   1.667   9.211 -1.8258  2.0446 -1.9087
  336MOL0     H45317   5.030   1.509   9.251  0.1568  0.2017  1.0348
  336MOL0     H45318   4.916   1.798   9.292 -2.8171  0.6349  0.3100
  336MOL0     H45319   4.981   1.694   9.422  1.9622 -0.3188 -0.6866
  336MOL0     H45320   4.774   1.810   9.531 -0.7965 -0.2068  2.1966
  336MOL0     H45321   4.574   1.924   9.596 -1.0485  0.2666 -0.4466
  336MOL0     H45322   3.990   1.781   9.423  0.8456 -0.5001 -0.5621
  336MOL0     H45323   3.775   1.899   9.489  0.9911 -1.4366 -0.2970
  336MOL0     H45324   3.614   2.070   9.509 -0.9561  1.7034 -0.2411
  336MOL0     H45325   3.609   1.941   9.625 -1.5709  0.6610  0.6481
  336MOL0     H45326   3.498   2.213   9.669 -0.0015  0.4198  0.2913
  336MOL0     H45327   3.408   2.060   9.599  0.5061 -1.5435  0.2067
  336MOL0     H45328   3.501   1.957   9.822  1.2345  0.4593  1.2808
  336MOL0     H45329   3.555   2.111   9.873 -0.4389  1.5312 -0.6586
  336MOL0     H45330   3.262   2.070   9.781  0.0674  0.4397 -2.2804
  336MOL0     H45331   3.341   2.210   9.856 -1.3495 -0.0218  0.5741
  336MOL0     H45332   3.364   2.060  10.076 -1.0671  1.2524  1.3168
  336MOL0     H45333   3.260   1.954   9.995 -2.5011  0.8067 -0.6837
  336MOL0     H45334   3.073   2.133   9.977 -1.2652  0.7824  0.7506
  336MOL0     H45335   3.118   2.085  10.130 -0.0616 -0.5194 -0.3913
  336MOL0     H45336   3.155   2.345   9.988 -0.4768 -0.9951 -0.1673
  336MOL0     H45337   3.300   2.302  10.086  0.1598  1.9877 -0.2398
  336MOL0     H45338   3.013   2.306  10.200  0.8362  0.2576 -0.4357
  336MOL0     H45339   3.157   2.256  10.284 -0.1295 -0.8534 -0.9601
  336MOL0     H45340   3.972   2.119   9.783  0.0990 -1.8356  2.1725
  336MOL0     H45341   4.187   2.050   9.707 -2.0303  3.5439  1.5309
  336MOL0     H45342   4.355   1.723   9.288  0.9798 -0.2959 -0.9333
  336MOL0     H45343   4.560   1.596   9.216 -0.0524 -0.5078  1.1543
  336MOL0     H45344   5.100   3.054   8.452 -2.1324 -1.8466  1.7195
  336MOL0     H45345   5.137   3.288   8.502 -4.5394 -2.5558 -1.0349
  336MOL0     H45346   5.047   3.497   9.084 -0.9439  0.3526  0.8161
  336MOL0     H45347   5.083   3.702   9.211 -2.0548  1.3332  0.3377
  336MOL0     H45348   5.070   4.131   9.087  2.4155  0.7062 -0.6570
  336MOL0     H45349   5.058   4.040   8.931  1.4785 -2.2181 -0.8905
  336MOL0     H45350   5.288   4.091   8.883 -1.2842 -0.6192 -0.0830
  336MOL0     H45351   5.315   4.157   9.050  0.9100 -4.4407 -0.5058
  336MOL0     H45352   5.274   4.346   8.919  0.2104  0.9612 -0.5978
  336MOL0     H45353   5.124   4.320   9.001  0.0740  1.8466 -1.1604
  336MOL0     H45354   5.051   4.170   8.791 -2.3132  0.3060  1.0429
  336MOL0     H45355   5.066   4.358   8.774  3.9131  0.9132  2.7215
  336MOL0     H45356   5.367   4.282   8.520 -0.7219 -0.8158 -2.0670
  336MOL0     H45357   5.165   3.905   8.850 -0.0061  0.9842  0.8721
  336MOL0     H45358   5.295   3.610   8.681 -1.2063 -1.0959 -2.8593
  336MOL0     H45359   5.147   3.685   8.607  1.2773  1.0285 -0.5531
  336MOL0     H45360   5.275   3.780   8.685 -0.4823  1.0262  0.2152
  337MOL0     O45361   7.008  11.363   0.008 -0.0491 -0.7340 -0.0121
  337MOL0     C45362   7.075  11.429   0.088 -0.3604 -0.1241 -0.2338
  337MOL0     O45363   7.213  11.418   0.092 -0.7167  0.3536  0.7492
  337MOL0     C45364   7.267  11.293   0.047 -0.3918  0.0543 -0.3155
  337MOL0     C45365   7.215  11.177   0.092  0.8237 -0.2932  0.4778
  337MOL0     C45366   7.261  11.044   0.067 -0.0415 -0.1205 -0.2712
  337MOL0     C45367   7.380  11.036  -0.002  0.4621 -0.0987  0.5531
  337MOL0     O45368   7.435  10.921  -0.028 -0.3167 -0.6925  0.3506
  337MOL0     C45369   7.359  10.795  -0.025 -0.4355  0.4753 -0.4451
  337MOL0     C45370   7.409  10.702  -0.136 -0.5332  0.6485  0.0169
  337MOL0     C45371   7.365  10.745  -0.279  1.2809  0.1524 -0.4199
  337MOL0     C45372   7.433  10.648  -0.371  0.0117 -0.3980 -0.0843
  337MOL0     C45373   7.400  10.704  -0.513  0.3553  0.1846  0.2953
  337MOL0     C45374   7.440  10.607  -0.620  0.8337 -0.2077 -0.3719
  337MOL0     C45375   7.374  10.635  -0.763 -0.3128 -0.2890 -0.0553
  337MOL0     C45376   7.436  10.747  -0.841 -0.0320 -0.1395 -0.0204
  337MOL0     N45377   7.414  10.882  -0.779  0.5258 -0.3257  0.5012
  337MOL0     C45378   7.294  10.948  -0.750  0.3493  0.7303  0.1319
  337MOL0     C45379   7.326  11.074  -0.705 -0.2550  0.6519 -0.2575
  337MOL0     C45380   7.244  11.172  -0.633  0.0644  0.8375  0.7913
  337MOL0     C45381   7.210  11.298  -0.703 -0.0479  0.4368 -0.2163
  337MOL0     C45382   7.165  11.408  -0.603  0.5199  0.2500  0.3301
  337MOL0     C45383   7.133  11.545  -0.677 -0.5152 -0.0670  0.2748
  337MOL0     O45384   7.153  11.533  -0.820  0.3437  0.1678 -0.3544
  337MOL0     C45385   7.031  11.514  -0.889 -0.0463 -0.1892 -0.0098
  337MOL0     C45386   7.035  11.558  -1.017  0.3402  1.2203  1.3658
  337MOL0     C45387   6.932  11.535  -1.115  0.0303 -0.1221 -0.3507
  337MOL0     C45388   6.819  11.467  -1.073 -0.4058  0.1181 -0.1047
  337MOL0     C45389   6.708  11.433  -1.171 -0.0433 -1.2939 -0.2718
  337MOL0     O45390   6.749  11.426  -1.299  0.5405  0.6712 -0.7470
  337MOL0     C45391   6.651  11.385  -1.397  0.0478  0.3969  0.1276
  337MOL0     C45392   6.528  11.449  -1.434  0.4266 -0.3361 -0.7388
  337MOL0     C45393   6.429  11.405  -1.521  0.1805 -0.2552 -0.4799
  337MOL0     C45394   6.461  11.290  -1.601  0.7805  0.1454 -1.1096
  337MOL0     O45395   6.371  11.231  -1.692 -1.5074 -0.2957 -0.2638
  337MOL0     C45396   6.276  11.163  -1.606  0.1125 -0.0735 -0.4289
  337MOL0     C45397   6.199  11.087  -1.714  0.0820 -0.7304  0.1439
  337MOL0     C45398   6.111  10.981  -1.630 -0.8691  0.1487 -0.6347
  337MOL0     C45399   6.027  10.900  -1.728 -0.8207 -0.4155  0.9563
  337MOL0     C45400   5.971  10.777  -1.659  0.3210 -0.1617  0.4961
  337MOL0     C45401   5.937  10.673  -1.761  1.1119 -0.2169 -0.4671
  337MOL0     C45402   5.820  10.576  -1.721 -0.5116 -0.1096  0.4431
  337MOL0     C45403   5.802  10.454  -1.816 -0.3381 -0.5753 -0.2360
  337MOL0    Cl45404   5.947  10.358  -1.812 -0.1863 -0.2492  0.0808
  337MOL0     C45405   6.584  11.222  -1.583  0.3515 -0.2964 -0.5821
  337MOL0     C45406   6.675  11.266  -1.471 -0.7459 -0.3829  0.4933
  337MOL0     O45407   6.598  11.409  -1.126  0.6214  0.0198 -0.1878
  337MOL0     C45408   6.809  11.436  -0.934  0.5790 -0.9742  0.4647
  337MOL0     C45409   6.915  11.454  -0.840  0.6444 -0.1091  0.5009
  337MOL0     N45410   7.464  11.086  -0.701 -0.5757  0.0931  0.2326
  337MOL0     N45411   7.513  10.977  -0.761 -0.2038 -0.4970 -1.1550
  337MOL0     C45412   7.433  11.158  -0.057  0.2787  0.7131 -0.3477
  337MOL0     C45413   7.386  11.279  -0.026 -0.2070  0.4506 -0.9324
  337MOL0     C45414   7.002  11.536   0.159  0.1875 -0.6149 -0.4848
  337MOL0     C45415   7.047  11.665   0.131  0.3425 -1.1213  0.2381
  337MOL0     C45416   6.988  11.778   0.192 -0.4980  0.5563 -0.8030
  337MOL0     C45417   6.890  11.763   0.293 -0.0122  1.1113 -0.2477
  337MOL0     O45418   6.830  11.868   0.362  0.3544  0.2805 -0.2854
  337MOL0     C45419   6.911  11.980   0.375  0.5013 -0.6424  0.0011
  337MOL0     C45420   6.829  12.087   0.454 -0.2469 -0.1920 -0.7465
  337MOL0     C45421   6.692  12.116   0.387  0.3427  0.5968  0.1166
  337MOL0     C45422   6.652  12.258   0.422 -0.3501 -0.0809 -0.6688
  337MOL0     C45423   6.509  12.276   0.403 -0.0314 -0.6116 -1.7902
  337MOL0     C45424   6.388  12.275   0.409 -0.0629  0.2534 -0.1470
  337MOL0     C45425   6.842  11.631   0.317  0.1254  0.0663 -0.2147
  337MOL0     C45426   6.895  11.518   0.255  1.0503  0.0182 -0.3008
  337MOL0     C45427   6.869  11.370   0.292  0.3442  0.0300  0.0010
  337MOL0     H45428   7.129  11.168   0.158  1.2075  1.1558  1.2261
  337MOL0     H45429   7.203  10.974   0.127 -0.3070 -0.8257 -1.3279
  337MOL0     H45430   7.385  10.746   0.070 -1.9980 -1.4671 -0.9719
  337MOL0     H45431   7.251  10.805  -0.029 -0.7297 -0.7138  2.1404
  337MOL0     H45432   7.377  10.601  -0.109  0.4201  0.9655  2.6787
  337MOL0     H45433   7.518  10.700  -0.140 -0.5425 -2.7004 -2.8813
  337MOL0     H45434   7.399  10.849  -0.292 -1.1770  1.1360  0.5194
  337MOL0     H45435   7.257  10.741  -0.293  1.4522  0.3209 -2.0871
  337MOL0     H45436   7.541  10.652  -0.360  0.1395 -2.4090 -0.2827
  337MOL0     H45437   7.382  10.552  -0.360  0.4108 -0.6163 -0.1489
  337MOL0     H45438   7.295  10.729  -0.530 -1.5148 -3.8929  3.7823
  337MOL0     H45439   7.457  10.797  -0.526  1.5716 -0.9339 -3.1843
  337MOL0     H45440   7.548  10.609  -0.603  0.3748  1.1182  3.4007
  337MOL0     H45441   7.403  10.514  -0.578  1.5373 -1.3407 -2.1681
  337MOL0     H45442   7.268  10.653  -0.746 -0.3968  0.5816 -1.4196
  337MOL0     H45443   7.395  10.546  -0.824 -0.4504  0.6280 -1.4804
  337MOL0     H45444   7.545  10.735  -0.848 -0.2583 -3.2570  0.3605
  337MOL0     H45445   7.392  10.748  -0.940  0.0094 -2.6337 -0.1317
  337MOL0     H45446   7.198  10.902  -0.767 -0.6060  1.8822  2.0425
  337MOL0     H45447   7.150  11.116  -0.627  0.8085 -0.5658 -0.0025
  337MOL0     H45448   7.287  11.180  -0.532  2.2236  1.5242 -0.1174
  337MOL0     H45449   7.303  11.331  -0.750 -0.1505  2.9811  1.1942
  337MOL0     H45450   7.147  11.290  -0.792  1.7340 -0.5343 -1.4551
  337MOL0     H45451   7.233  11.430  -0.521 -0.2972  1.8198  0.6247
  337MOL0     H45452   7.066  11.382  -0.564  0.3976  0.9464  0.4916
  337MOL0     H45453   7.202  11.619  -0.637  2.1414 -0.9454 -2.4110
  337MOL0     H45454   7.035  11.586  -0.651  0.0213  0.8592  0.8687
  337MOL0     H45455   7.131  11.596  -1.050  1.9730 -2.0655  1.8603
  337MOL0     H45456   6.960  11.577  -1.211 -1.0949  0.7858 -0.2898
  337MOL0     H45457   6.503  11.536  -1.374  0.2130  0.6565 -2.1980
  337MOL0     H45458   6.334  11.458  -1.519 -0.2241 -0.9841  0.3539
  337MOL0     H45459   6.318  11.095  -1.531 -2.0878 -3.3888 -1.9452
  337MOL0     H45460   6.210  11.235  -1.558  2.3696  1.7146  0.1930
  337MOL0     H45461   6.154  11.161  -1.781  0.1795 -1.2598 -0.5247
  337MOL0     H45462   6.269  11.023  -1.769  0.3717 -0.2647 -0.0301
  337MOL0     H45463   6.176  10.911  -1.577  1.2794  2.0353 -0.6028
  337MOL0     H45464   6.043  11.021  -1.554  1.5130  1.2562  1.0465
  337MOL0     H45465   6.098  10.866  -1.803  0.3813  3.8524 -0.1074
  337MOL0     H45466   5.955  10.957  -1.788  0.5217 -0.2717 -0.5641
  337MOL0     H45467   5.894  10.813  -1.590 -0.8687 -1.3273 -0.1799
  337MOL0     H45468   6.052  10.738  -1.596  0.9149 -3.5887 -2.1329
  337MOL0     H45469   5.918  10.720  -1.858  2.1886 -4.6820 -3.1401
  337MOL0     H45470   6.026  10.612  -1.778 -0.0766 -2.2173  0.1873
  337MOL0     H45471   5.727  10.634  -1.713 -0.1241  0.7840 -1.0364
  337MOL0     H45472   5.850  10.527  -1.628  1.9135  1.4530  0.5698
  337MOL0     H45473   5.716  10.406  -1.768 -2.4332  2.1061 -1.0072
  337MOL0     H45474   5.786  10.482  -1.920  3.8342 -1.5397 -1.3285
  337MOL0     H45475   6.616  11.136  -1.639  0.2012 -0.4150 -0.4841
  337MOL0     H45476   6.771  11.220  -1.455 -0.4334 -0.2900 -1.0131
  337MOL0     H45477   6.727  11.376  -0.895 -1.0213 -0.5249 -2.0311
  337MOL0     H45478   6.910  11.410  -0.741 -1.6112 -0.4036  0.2918
  337MOL0     H45479   7.514  11.159  -0.128  0.4751 -2.0375 -0.2584
  337MOL0     H45480   7.430  11.372  -0.060  1.2574  0.4227  0.7059
  337MOL0     H45481   7.125  11.664   0.055  0.7775  1.5773  0.5521
  337MOL0     H45482   7.030  11.873   0.159  1.0861  0.8538  1.7325
  337MOL0     H45483   6.934  12.028   0.280  0.5440 -0.9862 -0.1654
  337MOL0     H45484   6.996  11.950   0.437 -1.0619 -1.4205  1.8693
  337MOL0     H45485   6.889  12.178   0.441 -1.7778  0.9024 -0.3962
  337MOL0     H45486   6.818  12.058   0.559  2.4066 -0.6361 -0.5213
  337MOL0     H45487   6.618  12.053   0.437  0.4481  0.3949  0.0195
  337MOL0     H45488   6.694  12.096   0.280  0.3873 -0.1423  0.2495
  337MOL0     H45489   6.682  12.259   0.527  1.6613  0.6045 -1.2075
  337MOL0     H45490   6.710  12.332   0.367  2.6412 -1.8353 -0.1070
  337MOL0     H45491   6.283  12.292   0.398 -0.3708 -0.7441  0.9939
  337MOL0     H45492   6.760  11.608   0.384  0.3641 -0.3661 -0.0626
  337MOL0     H45493   6.968  11.334   0.321  1.3764  3.4058  1.0918
  337MOL0     H45494   6.805  11.360   0.380 -0.6098 -2.6673 -0.8968
  337MOL0     H45495   6.830  11.309   0.210  1.7515 -1.0248  0.0892
  338MOL0     O45496  10.003   6.926   2.520  0.0956 -0.1494 -0.2308
  338MOL0     C45497  10.097   6.866   2.468 -0.7162  0.6907  0.5800
  338MOL0     O45498  10.086   6.753   2.385  0.4302 -0.2814 -1.0395
  338MOL0     C45499   9.962   6.708   2.347 -0.2545  0.5029 -0.2846
  338MOL0     C45500   9.936   6.567   2.382 -0.4103 -0.1874 -0.1225
  338MOL0     C45501   9.815   6.517   2.347  0.3933  0.3141  0.2455
  338MOL0     C45502   9.717   6.587   2.281 -1.3939  1.3210 -0.5673
  338MOL0     O45503   9.601   6.516   2.248 -0.9659 -0.2587  0.8175
  338MOL0     C45504   9.486   6.597   2.217  0.2346  0.7552  0.9667
  338MOL0     C45505   9.362   6.518   2.201  0.8668 -0.2756 -0.0299
  338MOL0     C45506   9.363   6.410   2.097  0.0089  0.5944  0.3460
  338MOL0     C45507   9.217   6.367   2.059 -0.4312  0.0918 -0.5144
  338MOL0     C45508   9.136   6.288   2.164  0.2209  0.1096 -1.2863
  338MOL0     C45509   8.992   6.280   2.112 -0.7207 -0.4577 -0.4810
  338MOL0     C45510   8.978   6.149   2.037  0.7255  0.5225 -0.6870
  338MOL0     C45511   8.836   6.119   1.997 -0.6413 -0.8625 -0.1442
  338MOL0     N45512   8.818   5.989   1.944  0.1449  0.3161  0.7357
  338MOL0     C45513   8.771   5.882   2.021  0.5614  0.2098 -0.1334
  338MOL0     C45514   8.798   5.766   1.950 -0.3501 -0.3984  1.1443
  338MOL0     C45515   8.782   5.624   1.976 -0.6413  1.4760  0.2425
  338MOL0     C45516   8.639   5.586   2.033 -0.4733  0.3645  0.1012
  338MOL0     C45517   8.644   5.436   2.077 -0.3118  0.9033  0.1167
  338MOL0     C45518   8.611   5.332   1.971 -0.3640  0.2368 -0.5038
  338MOL0     O45519   8.476   5.362   1.925  0.1396  0.4447 -0.5081
  338MOL0     C45520   8.368   5.298   1.982  0.5975  0.3551 -1.0865
  338MOL0     C45521   8.372   5.225   2.097  1.6370 -0.1775 -0.2770
  338MOL0     C45522   8.261   5.179   2.164  0.3605 -0.6373  0.0863
  338MOL0     C45523   8.136   5.207   2.106  0.0846 -0.2866  0.4557
  338MOL0     C45524   8.011   5.152   2.170  0.6243 -1.4268 -0.9160
  338MOL0     O45525   7.896   5.185   2.100  1.2499 -0.2979  0.3101
  338MOL0     C45526   7.765   5.160   2.152  0.5448  0.3531 -0.1165
  338MOL0     C45527   7.726   5.124   2.289  0.0171 -0.6632 -0.0597
  338MOL0     C45528   7.589   5.106   2.324 -1.0689 -0.3687 -0.0758
  338MOL0     C45529   7.493   5.126   2.228 -0.4922  0.0152 -0.7221
  338MOL0     O45530   7.356   5.118   2.246  0.1377 -0.6352 -1.4881
  338MOL0     C45531   7.316   5.086   2.377 -0.5580 -0.5738  0.0275
  338MOL0     C45532   7.167   5.124   2.385 -0.9442 -0.1404  0.0224
  338MOL0     C45533   7.128   5.274   2.353 -1.0863  0.0516  0.1598
  338MOL0     C45534   7.003   5.319   2.424 -1.0509 -0.0742 -0.1806
  338MOL0     C45535   6.881   5.246   2.357  0.1817 -0.9735 -0.7287
  338MOL0     C45536   6.744   5.310   2.403 -1.0796 -0.3456 -0.8927
  338MOL0     C45537   6.705   5.439   2.312 -0.5729  0.3077  0.1224
  338MOL0     C45538   6.567   5.492   2.342 -1.2625 -0.0817  0.7660
  338MOL0    Cl45539   6.431   5.394   2.279  0.5973 -0.0191  0.0141
  338MOL0     C45540   7.530   5.169   2.098  0.2360 -0.4160  0.8024
  338MOL0     C45541   7.660   5.176   2.061 -0.7614 -0.4817  0.1159
  338MOL0     O45542   8.017   5.099   2.278  0.5696 -0.5345 -0.6971
  338MOL0     C45543   8.130   5.269   1.982  0.4117 -0.7811  0.7978
  338MOL0     C45544   8.243   5.319   1.924 -1.0515  0.3635  0.6618
  338MOL0     N45545   8.862   5.807   1.835  0.8712  0.5198  0.2861
  338MOL0     N45546   8.868   5.934   1.832 -0.0717 -0.1348 -0.5010
  338MOL0     C45547   9.741   6.717   2.241 -0.9938  0.3052 -0.0467
  338MOL0     C45548   9.869   6.780   2.273 -0.2009 -0.5468 -0.1553
  338MOL0     C45549  10.238   6.915   2.497 -0.3239  0.1433  0.1134
  338MOL0     C45550  10.341   6.819   2.499  0.7434 -0.7053 -0.3619
  338MOL0     C45551  10.474   6.853   2.519  0.4351  0.5707  0.4658
  338MOL0     C45552  10.503   6.993   2.544  0.4409  0.2665  0.2558
  338MOL0     O45553  10.633   7.039   2.568 -0.2045  0.1206 -0.4786
  338MOL0     C45554  10.748   6.953   2.592  0.1856  0.7135 -0.1509
  338MOL0     C45555  10.836   7.032   2.681 -0.1371 -0.5765 -0.2619
  338MOL0     C45556  10.982   6.965   2.714 -0.0353  0.1015  0.5405
  338MOL0     C45557  11.069   7.069   2.792 -0.0391 -0.3317  0.9309
  338MOL0     C45558  11.205   7.013   2.803 -1.1299 -1.1072 -0.4468
  338MOL0     C45559  11.311   6.942   2.801  0.1862  0.1012 -1.1932
  338MOL0     C45560  10.398   7.084   2.537  0.2932 -0.5673 -0.3314
  338MOL0     C45561  10.270   7.055   2.504 -0.3771  0.6211 -0.5868
  338MOL0     C45562  10.169   7.154   2.489 -0.7629 -0.0818 -0.7850
  338MOL0     H45563  10.020   6.516   2.428 -1.3690  1.3174  3.6790
  338MOL0     H45564   9.806   6.410   2.360 -0.1927  0.3201 -0.0848
  338MOL0     H45565   9.456   6.662   2.300 -3.0570 -0.1822  0.6588
  338MOL0     H45566   9.492   6.653   2.124  2.6555 -3.0089 -1.4133
  338MOL0     H45567   9.289   6.594   2.171  0.5423 -1.6731 -3.2000
  338MOL0     H45568   9.331   6.474   2.296 -1.4985  0.3151 -0.4832
  338MOL0     H45569   9.431   6.329   2.125 -0.7903 -0.0681  0.4217
  338MOL0     H45570   9.411   6.450   2.007 -0.4795  0.9004  0.2200
  338MOL0     H45571   9.168   6.464   2.047  0.5650  1.0138  2.0576
  338MOL0     H45572   9.214   6.318   1.962 -0.3825  1.8773 -1.4683
  338MOL0     H45573   9.173   6.188   2.184 -5.6363 -1.8468  2.4221
  338MOL0     H45574   9.141   6.334   2.263 -1.0680 -1.2817 -0.5230
  338MOL0     H45575   8.927   6.290   2.199 -0.3171  0.8433 -0.3089
  338MOL0     H45576   8.973   6.361   2.041  1.4120 -0.6891 -1.3839
  338MOL0     H45577   9.021   6.061   2.086 -0.8585 -0.2742 -0.6708
  338MOL0     H45578   9.037   6.153   1.944 -1.4461  0.9059 -2.1259
  338MOL0     H45579   8.772   6.125   2.086 -0.2938  0.9013  0.0266
  338MOL0     H45580   8.801   6.198   1.929 -0.3312 -0.8198 -0.2566
  338MOL0     H45581   8.732   5.875   2.122  2.7293 -0.9046  0.6998
  338MOL0     H45582   8.807   5.563   1.889  0.5887  3.3582 -0.8095
  338MOL0     H45583   8.862   5.594   2.045  0.4264  1.9613 -0.7436
  338MOL0     H45584   8.597   5.653   2.109 -5.1429 -1.5709 -0.4033
  338MOL0     H45585   8.563   5.604   1.956 -1.6692  2.6543  1.6808
  338MOL0     H45586   8.569   5.416   2.154 -0.7106  1.4969 -0.1116
  338MOL0     H45587   8.741   5.420   2.125 -1.1174 -2.0572  0.9547
  338MOL0     H45588   8.633   5.226   1.986  0.9034 -0.0051 -3.3851
  338MOL0     H45589   8.670   5.350   1.881 -0.6701  2.8099 -0.2801
  338MOL0     H45590   8.466   5.200   2.147  0.3117 -1.4608  1.7375
  338MOL0     H45591   8.275   5.124   2.256  1.2278 -1.4690 -0.5193
  338MOL0     H45592   7.796   5.097   2.367  1.8108  2.3231 -0.4789
  338MOL0     H45593   7.566   5.086   2.428  2.0070  1.4510  1.1092
  338MOL0     H45594   7.315   4.978   2.398 -0.4811 -0.9995 -1.9758
  338MOL0     H45595   7.375   5.144   2.448 -2.8071  2.9173 -0.7333
  338MOL0     H45596   7.121   5.059   2.310 -4.3754  1.1944  0.7921
  338MOL0     H45597   7.134   5.104   2.488 -0.9615  0.7078  0.1946
  338MOL0     H45598   7.218   5.331   2.378 -1.0484  0.4832 -0.9325
  338MOL0     H45599   7.114   5.299   2.248  0.6784 -0.7611 -0.2994
  338MOL0     H45600   7.009   5.428   2.419  0.9943 -0.2052 -2.7285
  338MOL0     H45601   7.018   5.293   2.530  0.2746  2.1075  0.2262
  338MOL0     H45602   6.882   5.144   2.395 -1.2377 -0.2194  1.5498
  338MOL0     H45603   6.879   5.255   2.248 -1.1398  1.2533 -0.5832
  338MOL0     H45604   6.665   5.234   2.406 -1.2461 -0.1592 -0.4534
  338MOL0     H45605   6.766   5.341   2.506  0.5310 -1.5423 -0.8450
  338MOL0     H45606   6.714   5.409   2.208 -2.8986 -0.8880  0.2091
  338MOL0     H45607   6.789   5.509   2.323  0.2682 -0.0616 -3.0031
  338MOL0     H45608   6.547   5.500   2.449 -1.4633  3.1326  0.5889
  338MOL0     H45609   6.553   5.596   2.311 -0.7829  0.3231  1.8470
  338MOL0     H45610   7.460   5.196   2.020 -1.1804  0.7317  2.3948
  338MOL0     H45611   7.688   5.188   1.956  0.3447 -3.0447  0.0378
  338MOL0     H45612   8.036   5.267   1.927  0.9890 -2.2524 -0.1894
  338MOL0     H45613   8.238   5.367   1.827 -3.3120  0.7962  0.9370
  338MOL0     H45614   9.674   6.770   2.175  2.6923  1.8033 -2.9548
  338MOL0     H45615   9.889   6.883   2.242  0.6891 -0.3801  0.8917
  338MOL0     H45616  10.317   6.714   2.510  0.2968 -0.4341  1.8174
  338MOL0     H45617  10.549   6.775   2.508  0.9430  1.3830 -3.0578
  338MOL0     H45618  10.805   6.924   2.503  0.0555 -3.9608  1.0029
  338MOL0     H45619  10.709   6.866   2.646  1.4552 -0.7414 -1.4875
  338MOL0     H45620  10.796   7.051   2.780  2.0878 -0.1933  0.6234
  338MOL0     H45621  10.840   7.132   2.636 -2.4834 -0.7198 -0.9326
  338MOL0     H45622  11.029   6.943   2.618 -3.7222  1.6894 -1.8580
  338MOL0     H45623  10.974   6.867   2.762 -1.9402  0.8638  1.9332
  338MOL0     H45624  11.065   7.159   2.730 -0.3700 -0.7714  0.3020
  338MOL0     H45625  11.032   7.090   2.893 -2.0805 -1.7896  0.5522
  338MOL0     H45626  11.408   6.896   2.801  0.0968 -0.3075  1.8080
  338MOL0     H45627  10.431   7.185   2.557  1.6305 -1.6533  4.4267
  338MOL0     H45628  10.114   7.164   2.582 -1.4240  0.6356 -1.2330
  338MOL0     H45629  10.226   7.248   2.483  1.3506 -1.2004  0.3990
  338MOL0     H45630  10.106   7.123   2.405 -0.3785 -2.1431 -0.3603
  339MOL0     O45631   6.412   2.425   2.559 -0.2160  0.0844  0.1619
  339MOL0     C45632   6.305   2.470   2.517  0.2546  0.5482 -0.2404
  339MOL0     O45633   6.219   2.536   2.602  0.6488 -0.0340 -0.1375
  339MOL0     C45634   6.260   2.577   2.722 -0.8658 -0.6147 -0.9826
  339MOL0     C45635   6.179   2.533   2.832  0.7160 -0.3639  0.0914
  339MOL0     C45636   6.207   2.599   2.962  0.0354  0.7945 -0.1639
  339MOL0     C45637   6.310   2.687   2.981 -0.1786  0.7548  0.1262
  339MOL0     O45638   6.352   2.744   3.094  0.2280 -0.5060 -0.4590
  339MOL0     C45639   6.285   2.708   3.218 -0.0446 -1.0120 -0.2231
  339MOL0     C45640   6.349   2.772   3.335 -0.3750  0.0646  0.3903
  339MOL0     C45641   6.302   2.914   3.361 -0.4975  0.4465  0.1065
  339MOL0     C45642   6.370   2.979   3.484  0.0609 -0.6043  1.0355
  339MOL0     C45643   6.314   3.117   3.502  0.3168  0.3238 -0.1354
  339MOL0     C45644   6.345   3.194   3.629 -0.0081 -0.1346 -0.5517
  339MOL0     C45645   6.256   3.322   3.638  0.5225 -1.5581 -0.2904
  339MOL0     C45646   6.238   3.412   3.505  1.0325 -0.3817  0.2925
  339MOL0     N45647   6.122   3.503   3.518  0.2004 -0.8431  0.4556
  339MOL0     C45648   5.996   3.498   3.459 -0.5332  0.8062  0.0529
  339MOL0     C45649   5.920   3.552   3.551  0.2343 -1.1480  0.8531
  339MOL0     C45650   5.767   3.546   3.555  0.5681  0.2669 -0.6331
  339MOL0     C45651   5.725   3.699   3.539 -0.6617 -0.6877 -0.4812
  339MOL0     C45652   5.688   3.734   3.400  0.0277  0.1875  0.1037
  339MOL0     C45653   5.674   3.882   3.355 -0.3541 -0.2188 -0.0400
  339MOL0     O45654   5.604   3.975   3.451  0.6623 -0.1631 -0.2544
  339MOL0     C45655   5.465   3.966   3.483 -0.0163  1.1271 -0.9606
  339MOL0     C45656   5.372   3.898   3.402 -0.4208  0.3129 -0.1474
  339MOL0     C45657   5.240   3.879   3.455 -0.6816 -0.4323 -0.5738
  339MOL0     C45658   5.206   3.935   3.579 -0.3133 -0.9842 -0.1537
  339MOL0     C45659   5.071   3.918   3.619  0.6238  0.1356 -0.3205
  339MOL0     O45660   5.022   4.004   3.713 -0.4542 -0.7281 -0.0707
  339MOL0     C45661   4.898   3.991   3.763  0.5467  0.9796 -0.1693
  339MOL0     C45662   4.851   3.882   3.851  0.3331  0.0421  0.1257
  339MOL0     C45663   4.734   3.887   3.916  0.8279  0.4443  0.1829
  339MOL0     C45664   4.649   4.000   3.899  0.3216  1.0044  0.5064
  339MOL0     O45665   4.524   4.008   3.947 -0.4534 -0.0849  0.1057
  339MOL0     C45666   4.426   4.108   3.923 -0.3303 -0.5532  0.1859
  339MOL0     C45667   4.288   4.054   3.966  1.0850 -0.3586 -0.1475
  339MOL0     C45668   4.229   3.958   3.865 -0.3974 -0.1523  0.2916
  339MOL0     C45669   4.155   4.018   3.741  0.3396 -0.6212 -0.8228
  339MOL0     C45670   4.035   3.942   3.680  0.2808 -0.6059  0.0334
  339MOL0     C45671   3.962   4.038   3.576 -0.2616 -0.0782  0.2262
  339MOL0     C45672   3.844   3.963   3.507 -0.0666  0.4669  0.2178
  339MOL0     C45673   3.855   3.818   3.489  1.4073  0.3213 -0.1626
  339MOL0    Cl45674   3.985   3.774   3.375 -0.0315  0.0408 -0.3007
  339MOL0     C45675   4.704   4.111   3.839  0.9570 -0.4712  0.0341
  339MOL0     C45676   4.824   4.107   3.769  0.1822  1.7309 -0.3580
  339MOL0     O45677   5.004   3.838   3.558 -0.1579  1.0358  0.3875
  339MOL0     C45678   5.298   4.011   3.656 -0.0554  0.1991  0.1630
  339MOL0     C45679   5.420   4.029   3.601 -0.0961  0.5934  0.8922
  339MOL0     N45680   5.999   3.615   3.651  0.0332 -0.0148 -0.2617
  339MOL0     N45681   6.115   3.583   3.631 -0.1317 -0.4065  0.7985
  339MOL0     C45682   6.373   2.740   2.866 -0.0987  0.5405 -0.1817
  339MOL0     C45683   6.349   2.685   2.745  0.4227 -0.5150  0.3543
  339MOL0     C45684   6.247   2.412   2.391  0.9726 -0.4815  0.0022
  339MOL0     C45685   6.280   2.279   2.353  0.2808 -0.1963 -0.0702
  339MOL0     C45686   6.261   2.229   2.220 -1.6072 -0.2154 -0.2134
  339MOL0     C45687   6.190   2.310   2.130 -0.4045  0.5453  0.0333
  339MOL0     O45688   6.174   2.278   1.993 -0.2017  0.4709 -0.7703
  339MOL0     C45689   6.255   2.173   1.936 -0.0103 -0.4918 -0.0347
  339MOL0     C45690   6.197   2.027   1.962  0.5011 -0.0617  0.1801
  339MOL0     C45691   6.092   1.982   1.860  0.7414 -1.1811 -0.1921
  339MOL0     C45692   5.956   2.044   1.894  0.1480 -1.0653 -0.1687
  339MOL0     C45693   5.860   1.994   1.790 -1.1044 -0.2872 -1.1806
  339MOL0     C45694   5.783   1.965   1.700  0.3905 -0.3216 -0.0892
  339MOL0     C45695   6.135   2.433   2.170  0.0412  0.1759 -1.0165
  339MOL0     C45696   6.152   2.474   2.303 -0.9398 -0.6899 -0.7165
  339MOL0     C45697   6.098   2.612   2.346  0.0296  0.8547  0.0634
  339MOL0     H45698   6.101   2.461   2.808 -1.1637  0.7701  2.3391
  339MOL0     H45699   6.141   2.562   3.040  0.3500  2.4408  0.9426
  339MOL0     H45700   6.181   2.740   3.222 -0.0934 -1.3408  1.6932
  339MOL0     H45701   6.298   2.599   3.222 -0.0248 -0.9772  0.7039
  339MOL0     H45702   6.458   2.779   3.328 -0.4192  2.0734  1.1040
  339MOL0     H45703   6.323   2.712   3.422  0.1075 -1.3591 -0.4112
  339MOL0     H45704   6.195   2.905   3.385 -1.0647  1.6506 -1.6950
  339MOL0     H45705   6.319   2.975   3.271  0.8287 -0.2519 -0.1402
  339MOL0     H45706   6.346   2.914   3.568  1.7830 -2.2926  0.2836
  339MOL0     H45707   6.478   2.987   3.470  0.7098 -0.4744  5.0407
  339MOL0     H45708   6.337   3.180   3.415  0.5173  2.0821  1.1457
  339MOL0     H45709   6.207   3.103   3.515  0.3419  0.0036 -0.2702
  339MOL0     H45710   6.332   3.135   3.721 -1.7203  0.7021 -0.2196
  339MOL0     H45711   6.450   3.225   3.623  0.0178 -0.0943  0.0499
  339MOL0     H45712   6.304   3.383   3.715 -0.9543 -0.9624  0.1943
  339MOL0     H45713   6.155   3.291   3.665 -0.1377  1.1212  0.6394
  339MOL0     H45714   6.325   3.476   3.484  1.2456 -0.2152  1.6308
  339MOL0     H45715   6.222   3.343   3.421  1.2798  0.5011 -0.5041
  339MOL0     H45716   5.966   3.430   3.381  2.9219 -0.0312 -0.7435
  339MOL0     H45717   5.718   3.478   3.485 -1.9913 -0.0823  1.3861
  339MOL0     H45718   5.738   3.518   3.656 -0.6199  0.9118 -0.7693
  339MOL0     H45719   5.646   3.722   3.611  0.2903 -0.5747  0.5671
  339MOL0     H45720   5.806   3.768   3.564  0.4335 -1.8882 -0.6174
  339MOL0     H45721   5.588   3.690   3.388 -1.4909  2.6635  2.5310
  339MOL0     H45722   5.763   3.692   3.332  0.2144 -0.8586  0.9392
  339MOL0     H45723   5.622   3.891   3.259  0.2596  4.7620 -0.1552
  339MOL0     H45724   5.771   3.931   3.343 -0.0451 -0.9721 -0.7046
  339MOL0     H45725   5.402   3.849   3.309 -0.7518 -0.6019  0.2115
  339MOL0     H45726   5.160   3.830   3.399 -0.5565 -3.5303  1.6648
  339MOL0     H45727   4.920   3.799   3.858 -1.1379 -1.1047  2.1357
  339MOL0     H45728   4.700   3.797   3.967  0.5640 -0.5908 -1.7393
  339MOL0     H45729   4.463   4.196   3.976  2.1472 -1.9378  0.8982
  339MOL0     H45730   4.415   4.128   3.816  2.7289 -1.7703 -0.4457
  339MOL0     H45731   4.307   3.995   4.056  2.3106  3.0349  1.9898
  339MOL0     H45732   4.221   4.135   3.994  2.2176  0.4798  0.1981
  339MOL0     H45733   4.308   3.894   3.826 -0.9289 -0.6651  0.0515
  339MOL0     H45734   4.168   3.881   3.911 -0.0953 -1.6868 -1.7174
  339MOL0     H45735   4.235   4.013   3.667  2.6125  1.1479  1.3529
  339MOL0     H45736   4.109   4.115   3.764 -3.5485 -2.3640 -0.4285
  339MOL0     H45737   3.959   3.902   3.748 -1.0693 -0.7643 -1.5161
  339MOL0     H45738   4.065   3.846   3.637 -1.1783  0.2805 -3.2003
  339MOL0     H45739   3.913   4.129   3.612 -2.1524 -1.1172  0.4388
  339MOL0     H45740   4.042   4.062   3.506  0.2386  2.1843  1.5051
  339MOL0     H45741   3.811   4.006   3.412  0.6647 -0.2467 -0.3741
  339MOL0     H45742   3.756   3.973   3.571  1.6785  0.7036  2.7306
  339MOL0     H45743   3.870   3.761   3.581  0.6763 -2.0638 -1.4395
  339MOL0     H45744   3.762   3.772   3.452 -0.0950  2.5519  0.6349
  339MOL0     H45745   4.646   4.201   3.819 -0.5469 -1.7251 -1.6162
  339MOL0     H45746   4.857   4.189   3.706 -0.8899  1.3680 -1.4274
  339MOL0     H45747   5.283   4.050   3.756 -1.6710 -0.9693  0.4177
  339MOL0     H45748   5.491   4.095   3.647  0.8920 -0.9487  1.6611
  339MOL0     H45749   6.451   2.814   2.879  1.1429 -0.8751  0.8671
  339MOL0     H45750   6.404   2.722   2.660  1.3463  2.3950  2.0836
  339MOL0     H45751   6.340   2.215   2.417 -0.6180  0.1695  1.1795
  339MOL0     H45752   6.307   2.135   2.193 -0.8363  0.0741  0.0546
  339MOL0     H45753   6.356   2.177   1.977 -0.0388  0.0789 -0.0158
  339MOL0     H45754   6.245   2.194   1.829  0.5741  0.4389  0.0887
  339MOL0     H45755   6.145   2.022   2.058  1.2605 -0.9943  0.5510
  339MOL0     H45756   6.285   1.963   1.969 -1.0521 -2.1514  2.3087
  339MOL0     H45757   6.078   1.874   1.872 -2.7870 -0.8697 -0.6295
  339MOL0     H45758   6.133   2.013   1.764  0.6456  1.8540  0.6415
  339MOL0     H45759   5.918   2.031   1.996 -1.8417  1.9073 -0.4172
  339MOL0     H45760   5.957   2.153   1.892 -1.8892 -1.0027 -1.9156
  339MOL0     H45761   5.730   1.932   1.613  1.0523 -0.4569 -0.4504
  339MOL0     H45762   6.072   2.481   2.095 -2.3516  1.2829  1.5231
  339MOL0     H45763   6.046   2.653   2.259 -1.4031 -0.6402  0.1575
  339MOL0     H45764   6.024   2.606   2.426 -0.0047 -1.4060 -0.0511
  339MOL0     H45765   6.182   2.675   2.375 -0.3894  1.3611  0.1833
  340MOL0     O45766   9.303   0.882   6.250 -0.2482 -0.4148 -0.4762
  340MOL0     C45767   9.240   0.796   6.194  0.2451 -0.8323  0.7245
  340MOL0     O45768   9.122   0.823   6.126  0.4377  0.0196 -0.0738
  340MOL0     C45769   9.103   0.946   6.063 -0.1960 -0.0154  0.3298
  340MOL0     C45770   9.062   0.930   5.931 -0.9650  0.6364 -0.6954
  340MOL0     C45771   9.042   1.042   5.851 -0.0700  0.2644  0.6383
  340MOL0     C45772   9.051   1.167   5.909  0.2846  0.4595  0.9273
  340MOL0     O45773   9.006   1.279   5.835 -0.2407  0.3095 -0.6403
  340MOL0     C45774   9.077   1.311   5.719  0.0590  0.2008  0.1018
  340MOL0     C45775   9.001   1.420   5.639  0.7968 -1.2442 -0.6956
  340MOL0     C45776   9.072   1.470   5.520 -0.5811 -0.1881  0.2126
  340MOL0     C45777   9.129   1.612   5.534  0.7582 -0.2256  0.0130
  340MOL0     C45778   9.048   1.690   5.426 -1.0108  0.1313  0.2396
  340MOL0     C45779   9.114   1.826   5.413 -0.4184 -0.2366 -0.0023
  340MOL0     C45780   9.051   1.904   5.301  0.3637  0.2129 -0.2612
  340MOL0     C45781   9.147   1.921   5.182  0.2769  0.2520 -0.3835
  340MOL0     N45782   9.100   2.011   5.075  0.3117  0.2846  0.0695
  340MOL0     C45783   8.996   2.104   5.051 -0.3650 -0.3243  0.3344
  340MOL0     C45784   9.016   2.153   4.927 -1.1918 -0.4439 -0.9321
  340MOL0     C45785   8.919   2.246   4.874  0.7721 -0.0578 -0.4783
  340MOL0     C45786   8.862   2.191   4.743 -0.4242  0.2464  0.7139
  340MOL0     C45787   8.767   2.298   4.682 -0.0908  0.0420  0.0389
  340MOL0     C45788   8.848   2.405   4.604  0.9069 -0.5718  0.8395
  340MOL0     O45789   8.774   2.487   4.509  0.0980 -0.0237 -0.0606
  340MOL0     C45790   8.654   2.543   4.554 -0.6365 -0.1799  0.3009
  340MOL0     C45791   8.645   2.625   4.666 -0.4874  0.4197  0.0642
  340MOL0     C45792   8.536   2.702   4.700  0.5779 -0.2043 -0.3751
  340MOL0     C45793   8.416   2.686   4.628 -0.6604 -0.3349 -0.2296
  340MOL0     C45794   8.297   2.762   4.678 -0.7592  0.5171  0.7047
  340MOL0     O45795   8.188   2.752   4.608 -0.5866 -0.2250 -0.5800
  340MOL0     C45796   8.098   2.844   4.651 -1.0344  0.2699  0.1056
  340MOL0     C45797   8.005   2.825   4.752  0.7873 -0.6989 -1.2299
  340MOL0     C45798   7.906   2.916   4.780 -0.3535 -0.2926 -0.5719
  340MOL0     C45799   7.907   3.040   4.717  0.2298 -0.6618  0.4649
  340MOL0     O45800   7.812   3.138   4.747  0.3766 -0.4048  0.4984
  340MOL0     C45801   7.769   3.158   4.881 -0.5892 -0.3089 -0.7078
  340MOL0     C45802   7.672   3.276   4.881 -0.4111  0.6767 -0.6412
  340MOL0     C45803   7.730   3.408   4.822  0.7832 -0.6968  0.9973
  340MOL0     C45804   7.683   3.543   4.884  0.0322  0.4379 -0.0038
  340MOL0     C45805   7.771   3.650   4.821  0.5872 -0.2148  0.0846
  340MOL0     C45806   7.743   3.665   4.667 -0.2679  1.2793 -0.2335
  340MOL0     C45807   7.828   3.783   4.601  0.0724  0.2173 -0.8283
  340MOL0     C45808   7.835   3.780   4.457 -0.0924  0.7575 -0.4670
  340MOL0    Cl45809   7.901   3.945   4.409  0.4132 -0.0834 -0.0151
  340MOL0     C45810   8.005   3.073   4.631  0.2247 -0.8856 -0.6189
  340MOL0     C45811   8.095   2.971   4.593  0.3140  0.2636 -0.0268
  340MOL0     O45812   8.314   2.835   4.770 -0.4851  0.6884 -0.9180
  340MOL0     C45813   8.420   2.595   4.518 -0.9309 -0.8077 -0.0286
  340MOL0     C45814   8.537   2.529   4.481  0.0976  0.4464  1.4470
  340MOL0     N45815   9.126   2.093   4.871  0.3174 -0.6775  0.5760
  340MOL0     N45816   9.167   2.001   4.954  0.3650 -0.4603  0.4850
  340MOL0     C45817   9.088   1.181   6.038 -0.6537  0.4887  0.1599
  340MOL0     C45818   9.124   1.070   6.116 -0.0606  0.0405 -0.9416
  340MOL0     C45819   9.292   0.651   6.211 -0.5935 -0.9982  0.2801
  340MOL0     C45820   9.231   0.553   6.135  0.4259 -0.2806  0.4577
  340MOL0     C45821   9.271   0.422   6.137 -0.4742 -0.1603  0.2327
  340MOL0     C45822   9.373   0.382   6.217  0.5712  0.5141  0.2077
  340MOL0     O45823   9.427   0.247   6.235  0.9457  0.4712 -0.4340
  340MOL0     C45824   9.517   0.203   6.137 -0.6896 -0.3264  0.8866
  340MOL0     C45825   9.450   0.110   6.036 -0.0255 -0.3461 -0.5096
  340MOL0     C45826   9.561   0.079   5.941 -0.8052  0.6770 -0.3576
  340MOL0     C45827   9.509   0.000   5.817 -0.0713  0.0345  0.2117
  340MOL0     C45828   9.602   0.044   5.701 -0.2362  0.1072 -0.2914
  340MOL0     C45829   9.655   0.067   5.592  0.1264  0.6462  0.5596
  340MOL0     C45830   9.435   0.485   6.290 -0.0600  0.6114  0.1775
  340MOL0     C45831   9.393   0.616   6.298 -0.0703  0.3790 -0.4567
  340MOL0     C45832   9.478   0.710   6.376 -0.1539 -0.6196  0.0064
  340MOL0     H45833   9.046   0.833   5.884 -3.3846  0.8610 -0.4439
  340MOL0     H45834   9.013   1.035   5.747  3.6381  3.5478 -0.8302
  340MOL0     H45835   9.183   1.336   5.731  0.6889 -2.0886 -0.2909
  340MOL0     H45836   9.084   1.220   5.659  0.9968 -0.0662  0.5998
  340MOL0     H45837   9.003   1.502   5.711 -1.0931 -0.2767 -1.6935
  340MOL0     H45838   8.895   1.404   5.616  0.4490  0.7135 -0.5714
  340MOL0     H45839   9.011   1.458   5.431  2.3142 -0.1974 -1.9304
  340MOL0     H45840   9.159   1.405   5.508 -0.6560 -0.3675  0.6246
  340MOL0     H45841   9.096   1.663   5.625 -3.5137 -0.6082 -1.0993
  340MOL0     H45842   9.238   1.612   5.529  0.9309 -0.6679  2.4082
  340MOL0     H45843   9.075   1.639   5.333 -1.9467  2.7927 -1.5830
  340MOL0     H45844   8.942   1.705   5.447 -1.1260 -0.2552 -0.0591
  340MOL0     H45845   9.089   1.888   5.499  1.6918  3.0859 -1.5827
  340MOL0     H45846   9.223   1.822   5.405  0.0898  4.9750  1.0628
  340MOL0     H45847   9.031   2.000   5.349 -1.3673  0.6059 -1.6658
  340MOL0     H45848   8.958   1.853   5.272  0.5495  0.0266 -0.5365
  340MOL0     H45849   9.245   1.944   5.226 -0.8699 -0.0962  2.5975
  340MOL0     H45850   9.153   1.824   5.131  1.6729  1.0673 -1.8462
  340MOL0     H45851   8.922   2.134   5.125 -0.2101  1.8550 -0.3131
  340MOL0     H45852   8.828   2.251   4.935  2.1540 -0.1801  1.7221
  340MOL0     H45853   8.964   2.346   4.863 -0.4885  0.9616  2.4832
  340MOL0     H45854   8.951   2.162   4.687 -1.0187  0.2845 -0.2855
  340MOL0     H45855   8.811   2.100   4.775  0.5290 -0.4354  0.3353
  340MOL0     H45856   8.705   2.351   4.754 -2.3228 -1.2832 -0.8076
  340MOL0     H45857   8.691   2.248   4.621  1.7287 -1.5729 -1.0491
  340MOL0     H45858   8.921   2.340   4.556 -0.4377  0.1712 -2.4577
  340MOL0     H45859   8.888   2.480   4.673 -4.3640  0.1589  3.5963
  340MOL0     H45860   8.736   2.629   4.726 -0.4983 -0.3452  0.1407
  340MOL0     H45861   8.541   2.765   4.788 -1.6457  0.2647 -0.5330
  340MOL0     H45862   7.990   2.725   4.791 -1.4035 -0.4979 -1.4545
  340MOL0     H45863   7.824   2.882   4.843  0.2637 -4.1895 -1.6151
  340MOL0     H45864   7.710   3.076   4.924 -0.6655  0.0066 -0.1994
  340MOL0     H45865   7.855   3.181   4.945  0.1389 -0.8845 -1.4649
  340MOL0     H45866   7.576   3.252   4.835 -1.7244  1.7156  1.3912
  340MOL0     H45867   7.652   3.294   4.987  1.6062 -0.4647  0.0001
  340MOL0     H45868   7.838   3.409   4.835  0.7950  1.8750  1.2541
  340MOL0     H45869   7.690   3.415   4.720 -0.8988  1.6120  1.7131
  340MOL0     H45870   7.700   3.540   4.992 -2.5398 -0.8505  0.4442
  340MOL0     H45871   7.578   3.565   4.864  0.0525  0.4251 -0.1218
  340MOL0     H45872   7.874   3.617   4.835  0.7219 -1.0356 -2.2578
  340MOL0     H45873   7.752   3.746   4.869  3.7685 -0.5712  2.3799
  340MOL0     H45874   7.769   3.581   4.601  0.7973  1.3468  0.0816
  340MOL0     H45875   7.636   3.678   4.651 -0.0405  0.1534 -3.4091
  340MOL0     H45876   7.926   3.799   4.647  0.7113  0.4753 -2.2398
  340MOL0     H45877   7.779   3.873   4.639  0.7681  0.2918 -0.0732
  340MOL0     H45878   7.898   3.701   4.414 -1.1651  1.9445 -4.7876
  340MOL0     H45879   7.740   3.743   4.419 -0.0149 -0.8384  0.7868
  340MOL0     H45880   8.017   3.175   4.595 -0.8457  0.6081  2.8610
  340MOL0     H45881   8.152   2.992   4.503  3.0961 -1.6971  1.1530
  340MOL0     H45882   8.324   2.582   4.467 -0.4638 -0.8912 -0.9015
  340MOL0     H45883   8.552   2.462   4.397 -3.1187 -0.1630  1.2327
  340MOL0     H45884   9.104   1.283   6.072  2.6396  0.1971 -0.2529
  340MOL0     H45885   9.166   1.095   6.213  2.3963 -1.1994 -1.5930
  340MOL0     H45886   9.156   0.581   6.062  1.3793  0.0342 -0.4080
  340MOL0     H45887   9.230   0.354   6.063  1.4185  1.1517 -2.1846
  340MOL0     H45888   9.584   0.144   6.201 -2.0914 -0.9216  1.8400
  340MOL0     H45889   9.566   0.286   6.084 -1.7608  1.1142  2.0679
  340MOL0     H45890   9.356   0.152   6.000 -0.2691 -0.5551 -0.1209
  340MOL0     H45891   9.424   0.013   6.079  3.6839 -0.0795  2.9667
  340MOL0     H45892   9.641   0.022   5.988  0.7717  2.9815 -0.0405
  340MOL0     H45893   9.610   0.171   5.907 -0.9729  0.3082 -1.6562
  340MOL0     H45894   9.519  -0.108   5.828 -2.8770 -0.0744  3.1509
  340MOL0     H45895   9.405   0.027   5.799  0.2652  0.3111 -1.4940
  340MOL0     H45896   9.717   0.100   5.512 -1.6237  0.6485 -0.8740
  340MOL0     H45897   9.511   0.436   6.351 -1.6787 -1.9177  0.3282
  340MOL0     H45898   9.533   0.779   6.311  2.2709  0.5524  3.0605
  340MOL0     H45899   9.414   0.758   6.451 -0.8590 -0.5782 -0.6172
  340MOL0     H45900   9.550   0.657   6.439  0.0778  0.3985  0.6196
  341MOL0     O45901   2.875   4.168   9.361 -0.6134 -0.3700 -0.0413
  341MOL0     C45902   2.883   4.126   9.474 -0.4621  0.4699  0.0569
  341MOL0     O45903   2.807   4.022   9.517  0.5316  0.5172 -0.3472
  341MOL0     C45904   2.786   4.025   9.649  0.6421 -0.9553 -0.7765
  341MOL0     C45905   2.730   4.141   9.710 -0.0916 -0.0734  0.5149
  341MOL0     C45906   2.708   4.141   9.848 -0.4565  0.6120 -0.1868
  341MOL0     C45907   2.745   4.037   9.929  0.5479  0.6314  0.6367
  341MOL0     O45908   2.733   4.069  10.066 -0.2283  0.7593 -0.5911
  341MOL0     C45909   2.823   4.009  10.163  0.3545  0.2032 -0.7043
  341MOL0     C45910   2.747   3.936  10.276  0.3114  0.0379  0.9878
  341MOL0     C45911   2.676   4.037  10.367  0.2048  0.1740  0.0340
  341MOL0     C45912   2.609   3.959  10.474  0.8800  0.3376  0.0286
  341MOL0     C45913   2.534   4.037  10.585 -0.4322 -0.0895  0.8556
  341MOL0     C45914   2.600   4.171  10.625  0.8508  0.4613 -0.3508
  341MOL0     C45915   2.530   4.236  10.739  1.2106 -0.8951  0.0671
  341MOL0     C45916   2.569   4.388  10.758  0.4980  0.6093 -0.8820
  341MOL0     N45917   2.702   4.398  10.823  0.2429  0.0751 -1.3288
  341MOL0     C45918   2.737   4.324  10.939 -0.2408 -1.5135  0.5694
  341MOL0     C45919   2.871   4.335  10.945 -0.0445 -0.0424 -0.4512
  341MOL0     C45920   2.955   4.256  11.035  0.6909 -0.0190  0.3437
  341MOL0     C45921   2.890   4.127  11.083  0.2006  0.2796 -0.3797
  341MOL0     C45922   2.983   4.020  11.151 -0.3743  0.1042 -0.4228
  341MOL0     C45923   2.944   3.874  11.184  0.4020  0.3959 -0.1816
  341MOL0     O45924   2.808   3.876  11.234  0.3784 -0.7768  0.7330
  341MOL0     C45925   2.707   3.908  11.152 -0.0137 -0.5514 -0.3607
  341MOL0     C45926   2.601   3.963  11.220  0.0202 -0.3219  0.3457
  341MOL0     C45927   2.478   3.982  11.153  0.1618 -0.1219 -0.1925
  341MOL0     C45928   2.445   3.926  11.030 -0.6621 -1.0449  0.7019
  341MOL0     C45929   2.301   3.933  10.983 -0.1918  0.1550 -0.5778
  341MOL0     O45930   2.214   4.011  11.054  0.4600  0.1765 -0.7119
  341MOL0     C45931   2.089   4.034  11.006 -0.8869 -0.4776  0.0962
  341MOL0     C45932   1.994   3.940  11.046 -0.7284  1.1294  0.5130
  341MOL0     C45933   1.866   3.935  10.988  0.5937 -0.8736 -0.2453
  341MOL0     C45934   1.830   4.047  10.908  0.1094  0.2250  0.0523
  341MOL0     O45935   1.696   4.063  10.882  0.5868  0.2166  0.4151
  341MOL0     C45936   1.665   4.108  10.746 -0.1650  0.0568 -0.4475
  341MOL0     C45937   1.511   4.095  10.755 -0.3897 -1.0739 -0.0204
  341MOL0     C45938   1.444   4.159  10.632  0.4774 -0.1507 -0.1357
  341MOL0     C45939   1.464   4.307  10.596  0.9668 -0.8532  0.7710
  341MOL0     C45940   1.343   4.345  10.499  0.1054 -0.5200 -0.2222
  341MOL0     C45941   1.340   4.486  10.457  1.3034  0.1078 -0.3174
  341MOL0     C45942   1.445   4.507  10.352  0.2407 -0.1860 -0.4617
  341MOL0     C45943   1.439   4.644  10.273  0.7117  0.5932  0.0520
  341MOL0    Cl45944   1.472   4.788  10.367  0.3999  0.1373 -0.0420
  341MOL0     C45945   1.915   4.158  10.891  0.2360  0.1788  0.4647
  341MOL0     C45946   2.044   4.145  10.930 -0.2167 -0.3043  0.9161
  341MOL0     O45947   2.267   3.876  10.882  0.1800 -0.1587  0.7575
  341MOL0     C45948   2.565   3.871  10.962 -0.3339  0.5931  0.3932
  341MOL0     C45949   2.691   3.853  11.022 -2.0088 -0.2207  0.4516
  341MOL0     N45950   2.922   4.410  10.838  0.7056 -0.3445 -0.1943
  341MOL0     N45951   2.818   4.438  10.762 -0.6258  0.2220 -0.2514
  341MOL0     C45952   2.809   3.920   9.867  0.0242 -0.3415 -1.2746
  341MOL0     C45953   2.824   3.916   9.730 -0.0128  0.0782 -0.8865
  341MOL0     C45954   3.008   4.171   9.560 -0.6203  0.4980 -0.5010
  341MOL0     C45955   3.013   4.297   9.621 -0.1695  0.0034  0.8231
  341MOL0     C45956   3.121   4.343   9.678  0.2496  0.4852  0.3770
  341MOL0     C45957   3.238   4.265   9.684  0.6057 -0.7720  0.2611
  341MOL0     O45958   3.348   4.322   9.732 -0.0760 -0.1656 -0.3687
  341MOL0     C45959   3.424   4.226   9.813  0.1570  0.3035 -0.1415
  341MOL0     C45960   3.525   4.297   9.900  0.0425  0.7664 -0.7445
  341MOL0     C45961   3.444   4.395   9.993  0.3522  0.5271  1.0839
  341MOL0     C45962   3.535   4.458  10.093  0.2913 -0.5926 -0.0317
  341MOL0     C45963   3.477   4.583  10.141  1.5616  0.3181 -0.5556
  341MOL0     C45964   3.442   4.699  10.162  1.1172  0.0066  0.4669
  341MOL0     C45965   3.237   4.128   9.637 -0.0747 -0.1498  0.1165
  341MOL0     C45966   3.123   4.092   9.563  0.3477  0.4883  0.4467
  341MOL0     C45967   3.113   3.954   9.497  0.6842 -1.4273 -0.0920
  341MOL0     H45968   2.700   4.231   9.656 -0.0039  1.0030  2.1876
  341MOL0     H45969   2.653   4.223   9.894  0.2766  1.4617 -0.7847
  341MOL0     H45970   2.880   3.926  10.120  1.5259  0.7899 -0.3342
  341MOL0     H45971   2.881   4.091  10.206 -1.4856  1.5643 -0.6874
  341MOL0     H45972   2.818   3.869  10.324  1.9516  0.9964 -0.0056
  341MOL0     H45973   2.668   3.891  10.215 -1.3616  0.2196  2.9007
  341MOL0     H45974   2.601   4.094  10.311 -2.0276 -0.5259  2.1835
  341MOL0     H45975   2.736   4.113  10.419 -0.7314  0.9961 -0.0612
  341MOL0     H45976   2.540   3.887  10.430 -1.4031  1.1417  2.0513
  341MOL0     H45977   2.669   3.899  10.543 -2.9726  0.0718  3.5942
  341MOL0     H45978   2.437   4.065  10.542 -0.3984 -4.7043 -3.0455
  341MOL0     H45979   2.528   3.993  10.684 -0.8929 -1.9383  0.0393
  341MOL0     H45980   2.704   4.152  10.651  1.3418  1.0384 -1.7764
  341MOL0     H45981   2.603   4.246  10.545  1.9110  1.9091  0.9812
  341MOL0     H45982   2.557   4.169  10.822 -0.0568 -0.7742  0.6023
  341MOL0     H45983   2.425   4.246  10.712  2.0511  1.3065 -2.8372
  341MOL0     H45984   2.579   4.451  10.669 -0.6271  1.3750 -0.4807
  341MOL0     H45985   2.493   4.428  10.825  0.3533  0.3010 -0.8590
  341MOL0     H45986   2.667   4.261  10.993 -1.8530 -1.4034 -1.2701
  341MOL0     H45987   3.055   4.235  10.994  0.5252  1.5683 -0.9633
  341MOL0     H45988   2.964   4.305  11.132  0.5865 -1.3355  1.0486
  341MOL0     H45989   2.817   4.153  11.160  0.7046  1.7764 -0.3701
  341MOL0     H45990   2.843   4.076  10.998 -0.6380 -1.7439  1.2179
  341MOL0     H45991   3.023   4.058  11.245 -1.8390  2.2163 -0.5977
  341MOL0     H45992   3.062   4.016  11.075 -0.0071  2.6793 -0.2476
  341MOL0     H45993   3.008   3.839  11.266 -0.2961 -0.4963 -0.0004
  341MOL0     H45994   2.942   3.811  11.095  2.6103  0.8396 -0.5915
  341MOL0     H45995   2.615   3.995  11.323 -2.5751 -1.6844  1.2409
  341MOL0     H45996   2.391   4.020  11.206  0.0541  2.9429 -2.2976
  341MOL0     H45997   2.039   3.864  11.110  1.5984 -1.1568 -3.4049
  341MOL0     H45998   1.788   3.869  11.024 -1.7463  1.3953 -0.8141
  341MOL0     H45999   1.700   4.211  10.739  1.3169 -0.3335  0.7253
  341MOL0     H46000   1.716   4.050  10.668  0.6938 -1.5426  1.2281
  341MOL0     H46001   1.497   3.987  10.755  3.1723 -1.6579 -0.9251
  341MOL0     H46002   1.475   4.134  10.851  2.4555 -2.4324  1.7232
  341MOL0     H46003   1.485   4.113  10.541 -0.8305 -1.2845 -0.1843
  341MOL0     H46004   1.335   4.152  10.635  0.2330  2.3802 -0.8045
  341MOL0     H46005   1.560   4.323  10.546 -0.2056  1.0460 -1.0432
  341MOL0     H46006   1.448   4.371  10.683 -2.1397  1.8846 -1.5456
  341MOL0     H46007   1.243   4.323  10.537 -1.4360 -2.9918 -4.9072
  341MOL0     H46008   1.340   4.279  10.412 -0.7457  1.3140 -1.6576
  341MOL0     H46009   1.236   4.512  10.437  1.1008  0.0977  0.6504
  341MOL0     H46010   1.369   4.547  10.543  0.9203 -0.0541 -0.0652
  341MOL0     H46011   1.437   4.427  10.277 -3.4079  1.2004 -1.7957
  341MOL0     H46012   1.537   4.498  10.409 -0.3216 -2.0966  0.2471
  341MOL0     H46013   1.520   4.643  10.199  2.7843 -0.1833  2.1843
  341MOL0     H46014   1.338   4.656  10.234 -0.6872  0.2070  3.2450
  341MOL0     H46015   1.879   4.247  10.839  0.0912 -0.2316 -0.1465
  341MOL0     H46016   2.116   4.219  10.896  1.4799 -1.7150  1.2811
  341MOL0     H46017   2.550   3.826  10.864  0.8816 -0.6748  0.7597
  341MOL0     H46018   2.768   3.802  10.965  0.2072  2.5965  0.6892
  341MOL0     H46019   2.840   3.843   9.936 -1.7868  2.5088  3.1509
  341MOL0     H46020   2.875   3.834   9.680 -0.4681 -1.3643  0.8937
  341MOL0     H46021   2.923   4.354   9.605  1.1328  1.3691 -2.4506
  341MOL0     H46022   3.130   4.451   9.682 -0.5712  0.8086 -2.9834
  341MOL0     H46023   3.476   4.152   9.752  0.9073  0.8518 -0.1865
  341MOL0     H46024   3.356   4.166   9.874 -0.3384 -1.3529 -2.2034
  341MOL0     H46025   3.594   4.353   9.837  0.6945 -3.3396 -4.1187
  341MOL0     H46026   3.569   4.224   9.969  0.2391  0.5960 -1.0485
  341MOL0     H46027   3.363   4.338  10.039  1.6082 -0.3616  2.2543
  341MOL0     H46028   3.390   4.470   9.934 -1.7830 -1.0163  0.9534
  341MOL0     H46029   3.548   4.382  10.171 -1.7647 -1.5670 -0.5715
  341MOL0     H46030   3.626   4.485  10.039 -0.0428 -0.9812 -0.8068
  341MOL0     H46031   3.396   4.793  10.187 -1.7367 -0.8053 -1.1632
  341MOL0     H46032   3.316   4.056   9.652 -0.4694 -0.9037 -1.2155
  341MOL0     H46033   3.207   3.899   9.496  2.0106  0.6950  1.4601
  341MOL0     H46034   3.035   3.891   9.540 -0.7702 -0.9165 -1.8285
  341MOL0     H46035   3.089   3.984   9.394 -2.2271 -2.7178  0.1067
  342MOL0     O46036   4.484   5.276   9.880 -0.9108  0.4472  0.2890
  342MOL0     C46037   4.434   5.381   9.901  0.9010 -0.0574 -0.3359
  342MOL0     O46038   4.498   5.495   9.893 -0.1269 -0.0420  0.3146
  342MOL0     C46039   4.614   5.499   9.811  1.0993  1.0954 -0.2759
  342MOL0     C46040   4.715   5.578   9.861 -0.4809 -0.1875 -0.0378
  342MOL0     C46041   4.833   5.617   9.790  0.2250  0.4915  0.1075
  342MOL0     C46042   4.846   5.562   9.665  1.0170  0.5025  1.5334
  342MOL0     O46043   4.965   5.566   9.583  0.3258 -0.8428  0.4139
  342MOL0     C46044   5.082   5.630   9.634 -0.1324  0.5199  0.5545
  342MOL0     C46045   5.162   5.684   9.516  0.6317 -0.1282  0.6370
  342MOL0     C46046   5.287   5.763   9.544  0.1796 -0.3346 -0.5753
  342MOL0     C46047   5.338   5.834   9.413  0.0034  0.6272 -0.5244
  342MOL0     C46048   5.404   5.732   9.319  0.0559  0.0246 -0.3832
  342MOL0     C46049   5.463   5.793   9.185 -0.3519  0.1387  0.2376
  342MOL0     C46050   5.536   5.679   9.102 -0.0590  0.2866 -0.8418
  342MOL0     C46051   5.685   5.669   9.128 -0.1041 -0.5927  0.7051
  342MOL0     N46052   5.756   5.586   9.037 -0.0115  0.4202  1.4949
  342MOL0     C46053   5.799   5.460   9.074 -1.2571  0.5758  0.2269
  342MOL0     C46054   5.822   5.394   8.953  0.1275 -0.4194 -0.5862
  342MOL0     C46055   5.856   5.248   8.942 -0.2888 -0.2443  0.6757
  342MOL0     C46056   5.992   5.219   8.882 -0.0742  0.9442  0.7622
  342MOL0     C46057   5.987   5.183   8.727  0.4467 -0.6638 -0.1043
  342MOL0     C46058   5.973   5.036   8.696 -1.1612  0.7708 -0.4168
  342MOL0     O46059   5.837   4.986   8.701  0.5060 -0.3016 -0.4333
  342MOL0     C46060   5.745   5.032   8.602 -0.5509  0.3298  0.6716
  342MOL0     C46061   5.778   5.112   8.492  0.1438 -0.9382 -0.6580
  342MOL0     C46062   5.678   5.156   8.402 -0.1780 -1.0225 -0.0001
  342MOL0     C46063   5.550   5.121   8.418 -0.3246  0.3822 -0.7972
  342MOL0     C46064   5.438   5.180   8.337 -0.8742  0.7692 -0.1882
  342MOL0     O46065   5.330   5.100   8.325 -0.1578 -0.0155 -0.1196
  342MOL0     C46066   5.226   5.130   8.234 -1.6303 -0.0493  0.5283
  342MOL0     C46067   5.107   5.055   8.244 -0.2920  0.0082 -0.3151
  342MOL0     C46068   5.007   5.071   8.154 -0.2563 -0.2156 -0.3524
  342MOL0     C46069   5.020   5.155   8.048  1.3452  0.3560  0.2028
  342MOL0     O46070   4.905   5.171   7.975 -0.3302 -0.0118 -0.7174
  342MOL0     C46071   4.910   5.258   7.862  0.0440 -0.8646 -0.7977
  342MOL0     C46072   4.970   5.211   7.728 -0.4370  0.4666 -0.3037
  342MOL0     C46073   4.868   5.114   7.671 -1.2286  0.1898 -0.1672
  342MOL0     C46074   4.932   5.005   7.578  0.5033 -0.1773 -0.2081
  342MOL0     C46075   4.837   4.895   7.535 -0.6444 -0.1663 -0.4236
  342MOL0     C46076   4.912   4.789   7.451  0.0698 -0.4807  0.1493
  342MOL0     C46077   4.803   4.679   7.412 -0.1559 -0.5015 -0.0745
  342MOL0     C46078   4.819   4.626   7.272 -0.3382  0.8140 -0.1497
  342MOL0    Cl46079   4.982   4.557   7.236 -0.0194 -0.3454 -0.0473
  342MOL0     C46080   5.139   5.218   8.023 -0.3338 -0.3679 -0.3881
  342MOL0     C46081   5.245   5.207   8.117 -0.8173 -0.4038 -0.1896
  342MOL0     O46082   5.458   5.291   8.283  0.5114  0.1453 -0.9513
  342MOL0     C46083   5.519   5.020   8.508  0.3918  0.0719 -0.0208
  342MOL0     C46084   5.622   4.982   8.599 -0.5270 -0.5225 -0.8216
  342MOL0     N46085   5.794   5.486   8.850  0.9120 -0.0483 -0.0041
  342MOL0     N46086   5.747   5.593   8.897 -0.3572 -0.4811  0.6115
  342MOL0     C46087   4.746   5.474   9.622 -0.0802 -0.4001  0.5232
  342MOL0     C46088   4.629   5.443   9.691  0.2354 -0.0084 -0.0807
  342MOL0     C46089   4.299   5.394   9.974 -0.4578 -0.9261 -0.0914
  342MOL0     C46090   4.279   5.493  10.071  1.1574 -0.5527 -0.4896
  342MOL0     C46091   4.155   5.523  10.129 -1.0086 -0.4425 -0.6398
  342MOL0     C46092   4.046   5.446  10.095 -0.5733  0.6956  0.6600
  342MOL0     O46093   3.916   5.458  10.135  0.2937  0.0035 -0.0116
  342MOL0     C46094   3.888   5.532  10.253 -0.0226 -0.3539 -0.1500
  342MOL0     C46095   3.800   5.660  10.238 -0.0750  0.0145  0.4472
  342MOL0     C46096   3.670   5.632  10.166 -0.1308 -0.9061  0.0795
  342MOL0     C46097   3.600   5.759  10.144  0.6359 -0.0730  0.3263
  342MOL0     C46098   3.512   5.787  10.254  0.3368 -0.3764  0.1093
  342MOL0     C46099   3.450   5.815  10.349 -0.0870  0.1261  0.4449
  342MOL0     C46100   4.061   5.353   9.995  0.3891 -0.9883  0.0679
  342MOL0     C46101   4.185   5.319   9.935  0.4875  0.1180  0.3903
  342MOL0     C46102   4.199   5.213   9.832  0.9544 -1.0433  0.4419
  342MOL0     H46103   4.693   5.625   9.956  1.2715  1.8006 -0.5483
  342MOL0     H46104   4.911   5.659   9.852  0.9694  0.2174 -0.6343
  342MOL0     H46105   5.052   5.700   9.713 -0.4594 -1.7257  2.5496
  342MOL0     H46106   5.138   5.552   9.687 -1.5914  0.9251  2.8361
  342MOL0     H46107   5.078   5.742   9.476 -0.7088 -2.5702 -0.2563
  342MOL0     H46108   5.195   5.607   9.446  3.8902  0.7296  1.0420
  342MOL0     H46109   5.353   5.683   9.580 -1.5506 -1.4367  0.2396
  342MOL0     H46110   5.270   5.827   9.631  0.3107 -2.7181  1.3135
  342MOL0     H46111   5.262   5.888   9.357  0.3737 -0.6309 -2.3265
  342MOL0     H46112   5.414   5.908   9.439  0.4353  0.2921 -0.7988
  342MOL0     H46113   5.496   5.692   9.364 -0.8457 -2.5369 -0.6505
  342MOL0     H46114   5.354   5.639   9.290  0.5516 -1.7261  3.7008
  342MOL0     H46115   5.382   5.829   9.121  1.3380  0.3402 -1.9152
  342MOL0     H46116   5.525   5.877   9.216 -1.1595  1.1524 -0.7942
  342MOL0     H46117   5.511   5.683   8.996 -0.0636 -0.3729 -0.8636
  342MOL0     H46118   5.491   5.584   9.129 -0.2997  0.7260  0.3971
  342MOL0     H46119   5.739   5.764   9.124  0.8173 -0.9679  2.7942
  342MOL0     H46120   5.703   5.629   9.228  3.0302 -0.8467  0.1353
  342MOL0     H46121   5.812   5.427   9.176  1.0034 -3.1097 -1.0514
  342MOL0     H46122   5.859   5.190   9.035  0.2920 -2.3313 -0.5906
  342MOL0     H46123   5.775   5.211   8.879  1.1686  0.6942 -1.8828
  342MOL0     H46124   6.058   5.306   8.893 -0.1628  1.1524 -0.2404
  342MOL0     H46125   6.036   5.135   8.936 -0.5746  0.7506  0.8754
  342MOL0     H46126   6.081   5.225   8.689  0.1874  2.3270  2.1777
  342MOL0     H46127   5.913   5.245   8.677  0.4631  2.3434  3.1942
  342MOL0     H46128   6.021   4.968   8.766 -3.5702 -1.8400 -1.1108
  342MOL0     H46129   6.022   5.018   8.600 -3.0245 -1.9843 -0.9801
  342MOL0     H46130   5.879   5.144   8.465 -0.7148  1.6684 -1.0685
  342MOL0     H46131   5.711   5.222   8.323 -2.0556 -0.4059 -0.3189
  342MOL0     H46132   5.095   4.996   8.334  1.2727 -1.3068 -0.9090
  342MOL0     H46133   4.905   5.040   8.175  0.6099 -2.3464  1.1064
  342MOL0     H46134   4.809   5.290   7.836  0.2855 -0.7403 -1.6222
  342MOL0     H46135   4.954   5.352   7.899 -2.3198 -0.2339  0.6060
  342MOL0     H46136   4.985   5.295   7.660 -3.3456  2.4722  1.2989
  342MOL0     H46137   5.066   5.162   7.744 -0.5376 -0.5444 -2.5113
  342MOL0     H46138   4.808   5.059   7.743  1.5241 -3.3754 -0.2908
  342MOL0     H46139   4.804   5.181   7.613 -0.4663  0.8743 -0.2395
  342MOL0     H46140   5.013   4.951   7.627 -1.5435 -1.2643  2.1995
  342MOL0     H46141   4.982   5.054   7.494  0.9555 -0.3748 -0.0590
  342MOL0     H46142   4.748   4.936   7.487 -0.7305 -0.3348 -0.4102
  342MOL0     H46143   4.795   4.844   7.622 -0.5035 -1.0708 -0.8766
  342MOL0     H46144   4.943   4.835   7.356 -0.7941 -2.9437 -1.4295
  342MOL0     H46145   4.998   4.748   7.504  0.4427  1.3201  1.0128
  342MOL0     H46146   4.706   4.728   7.427  0.9597  0.8804  3.9922
  342MOL0     H46147   4.804   4.606   7.494  3.0596  1.5817  1.9810
  342MOL0     H46148   4.736   4.557   7.253  0.9251 -0.5513 -0.9573
  342MOL0     H46149   4.806   4.710   7.203  0.9221  0.8614 -0.3552
  342MOL0     H46150   5.154   5.268   7.928 -1.2095  0.0101 -0.3376
  342MOL0     H46151   5.338   5.258   8.094 -0.1795 -1.4590  0.0124
  342MOL0     H46152   5.425   4.968   8.519  0.4232  0.0920  0.3447
  342MOL0     H46153   5.591   4.927   8.687 -0.9707  0.9084 -0.0556
  342MOL0     H46154   4.764   5.425   9.527  2.8107 -2.8973  2.1651
  342MOL0     H46155   4.547   5.379   9.661 -1.0996  1.2813  0.6556
  342MOL0     H46156   4.364   5.549  10.110  0.5110 -0.6118  1.0559
  342MOL0     H46157   4.142   5.599  10.204  2.2012 -0.4133  0.0192
  342MOL0     H46158   3.972   5.567  10.314 -0.3054 -0.7479  0.4702
  342MOL0     H46159   3.815   5.467  10.301 -4.5186  0.5839 -4.8264
  342MOL0     H46160   3.859   5.727  10.174 -3.9187 -0.0274 -3.6376
  342MOL0     H46161   3.782   5.707  10.335  0.1190  1.9636 -0.3979
  342MOL0     H46162   3.608   5.556  10.214 -0.3040  0.0825  1.4728
  342MOL0     H46163   3.688   5.602  10.062 -2.1372  2.4996 -1.4146
  342MOL0     H46164   3.658   5.849  10.122  0.5364  0.0275  0.4741
  342MOL0     H46165   3.527   5.749  10.063  1.9859  1.0778 -1.0864
  342MOL0     H46166   3.393   5.850  10.433  0.3008  1.2427  0.2517
  342MOL0     H46167   3.970   5.296   9.979 -1.6173  1.0759  3.0321
  342MOL0     H46168   4.262   5.238   9.746  2.9728 -1.0260  1.8489
  342MOL0     H46169   4.235   5.123   9.883 -0.2999 -1.2618  0.9864
  342MOL0     H46170   4.103   5.186   9.787  1.6107 -1.7671 -0.5814
  343MOL0     O46171  10.243   8.447   0.111  0.4122  0.8839 -0.0959
  343MOL0     C46172  10.181   8.491   0.209 -0.2925 -1.1459 -1.0938
  343MOL0     O46173  10.095   8.422   0.287 -0.1768  0.7871  0.0036
  343MOL0     C46174  10.114   8.284   0.290 -0.1784  0.1002 -0.6039
  343MOL0     C46175  10.075   8.207   0.182 -0.4250  0.0885  0.6100
  343MOL0     C46176  10.089   8.064   0.179 -0.4991 -0.1955 -0.4874
  343MOL0     C46177  10.136   8.001   0.298 -1.4548  0.2626  0.2365
  343MOL0     O46178  10.154   7.865   0.312  0.1674 -0.0168  0.4729
  343MOL0     C46179  10.120   7.770   0.208  0.3521  0.0539 -0.8948
  343MOL0     C46180  10.172   7.632   0.249 -0.5625 -1.1034 -0.8147
  343MOL0     C46181  10.326   7.634   0.278 -0.2421 -0.5414  0.9380
  343MOL0     C46182  10.373   7.496   0.325 -0.0576 -0.2052 -0.1268
  343MOL0     C46183  10.512   7.492   0.387 -0.1996  0.1622  0.5434
  343MOL0     C46184  10.536   7.346   0.440  0.6529  0.2913  0.0727
  343MOL0     C46185  10.678   7.307   0.475 -0.2824 -0.0483 -0.9364
  343MOL0     C46186  10.785   7.318   0.360  0.3262  0.5719  0.2729
  343MOL0     N46187  10.767   7.227   0.248 -0.3964 -0.1072  0.6286
  343MOL0     C46188  10.850   7.112   0.223  0.8057 -0.1465  0.5492
  343MOL0     C46189  10.806   7.062   0.102  0.3907 -0.0594 -0.8377
  343MOL0     C46190  10.841   6.932   0.040  0.8890 -0.5895 -0.2946
  343MOL0     C46191  10.940   6.923  -0.081 -0.1108 -0.0888 -0.2361
  343MOL0     C46192  10.951   7.028  -0.188 -0.4378  0.4462  0.2993
  343MOL0     C46193  11.012   6.996  -0.321 -0.7645 -0.1274 -0.1885
  343MOL0     O46194  11.157   6.999  -0.298 -0.7324  0.6175  0.5432
  343MOL0     C46195  11.244   7.021  -0.407 -0.3703  0.4572  0.1061
  343MOL0     C46196  11.211   7.072  -0.532  0.0902  0.3932 -0.2219
  343MOL0     C46197  11.309   7.080  -0.634 -0.0735 -0.9967  0.1017
  343MOL0     C46198  11.447   7.039  -0.607  0.3729 -0.3727  0.0808
  343MOL0     C46199  11.552   7.053  -0.713 -0.2228  0.3267 -0.4520
  343MOL0     O46200  11.677   7.028  -0.669 -0.4596  0.1278 -0.2640
  343MOL0     C46201  11.796   7.056  -0.744  0.4846  1.1045  0.1717
  343MOL0     C46202  11.796   7.048  -0.882 -0.0586 -0.0735 -0.3078
  343MOL0     C46203  11.917   7.062  -0.952 -0.0370  0.1729  0.0175
  343MOL0     C46204  12.044   7.089  -0.887 -0.4884 -0.1339 -0.1646
  343MOL0     O46205  12.154   7.110  -0.963  0.2080 -0.1801  0.7132
  343MOL0     C46206  12.273   7.151  -0.893  0.6689 -0.8011  0.2559
  343MOL0     C46207  12.374   7.190  -0.991 -1.1099 -0.6273  0.3388
  343MOL0     C46208  12.437   7.068  -1.053  0.6427  1.1759 -0.0534
  343MOL0     C46209  12.527   7.116  -1.169 -0.6141 -0.4550 -0.0845
  343MOL0     C46210  12.608   6.997  -1.224  0.3920 -0.9496  0.1645
  343MOL0     C46211  12.715   7.050  -1.328  0.1504  0.6086 -0.2518
  343MOL0     C46212  12.796   6.927  -1.366 -0.1966 -1.0054  0.0594
  343MOL0     C46213  12.895   6.959  -1.475  0.4069 -0.1437  1.1568
  343MOL0    Cl46214  12.819   7.020  -1.626 -0.0164 -0.6508 -0.0232
  343MOL0     C46215  12.036   7.108  -0.742  0.1127 -0.1414 -0.8792
  343MOL0     C46216  11.911   7.097  -0.677  1.4940 -0.0755  0.5361
  343MOL0     O46217  11.530   7.102  -0.821  0.1966  0.5256  0.2675
  343MOL0     C46218  11.476   6.986  -0.482 -0.0497  0.2313 -0.2826
  343MOL0     C46219  11.379   6.990  -0.381 -0.3931  0.6187 -0.8252
  343MOL0     N46220  10.721   7.158   0.046 -0.1385  1.1124 -0.0964
  343MOL0     N46221  10.696   7.249   0.140 -0.2946 -0.7545  0.5394
  343MOL0     C46222  10.191   8.081   0.397 -0.4437 -0.3475  0.1734
  343MOL0     C46223  10.171   8.215   0.403  1.0009 -1.0717  0.4468
  343MOL0     C46224  10.197   8.635   0.235 -0.8439 -0.1100 -0.6791
  343MOL0     C46225  10.226   8.723   0.133 -0.1614  0.1592  0.4168
  343MOL0     C46226  10.255   8.863   0.165 -0.5347  0.0375 -0.8722
  343MOL0     C46227  10.243   8.915   0.295  0.0315 -0.2522 -0.1533
  343MOL0     O46228  10.263   9.051   0.300  0.0358  0.8074 -0.5814
  343MOL0     C46229  10.179   9.115   0.400 -0.3287  0.4756  0.6086
  343MOL0     C46230  10.187   9.265   0.352  0.4811  0.7099 -0.7515
  343MOL0     C46231  10.093   9.348   0.441  0.5305 -0.3626 -0.4805
  343MOL0     C46232  10.140   9.494   0.434  0.6702  0.2074 -0.1849
  343MOL0     C46233  10.032   9.575   0.487 -1.3079 -0.3313 -0.3189
  343MOL0     C46234   9.947   9.646   0.523 -0.6283  0.4151 -0.7156
  343MOL0     C46235  10.216   8.825   0.396  1.2162 -0.6139 -0.1093
  343MOL0     C46236  10.186   8.687   0.368 -0.1462  0.5995 -1.2208
  343MOL0     C46237  10.195   8.591   0.483  0.3669  0.9435  1.1667
  343MOL0     H46238  10.037   8.274   0.105 -1.6966  2.1108  2.8651
  343MOL0     H46239  10.067   8.008   0.089 -0.7415 -0.1706 -0.4466
  343MOL0     H46240  10.011   7.765   0.202  0.0957  1.2553  1.4852
  343MOL0     H46241  10.167   7.813   0.119  0.5974 -1.1664 -1.3793
  343MOL0     H46242  10.136   7.549   0.187 -4.0230 -0.7217  0.4444
  343MOL0     H46243  10.130   7.607   0.347 -0.6274 -0.6823 -0.7323
  343MOL0     H46244  10.357   7.702   0.358 -0.9372 -1.0422  1.6528
  343MOL0     H46245  10.380   7.662   0.187 -0.6407 -2.7569 -0.0565
  343MOL0     H46246  10.310   7.453   0.403  0.4060 -0.9729 -0.1650
  343MOL0     H46247  10.362   7.416   0.252 -1.8873  0.4047 -0.5739
  343MOL0     H46248  10.585   7.505   0.306 -0.9886 -1.3242 -0.4514
  343MOL0     H46249  10.520   7.571   0.462 -3.4681  1.2762 -0.1112
  343MOL0     H46250  10.480   7.336   0.533  0.7217 -0.4471  0.0347
  343MOL0     H46251  10.508   7.268   0.369 -2.5297  1.8223 -0.5095
  343MOL0     H46252  10.677   7.204   0.511 -2.0061 -0.1130 -1.0643
  343MOL0     H46253  10.702   7.370   0.561 -1.6761  1.0445 -1.3167
  343MOL0     H46254  10.789   7.420   0.320 -1.5215  0.0179 -1.4419
  343MOL0     H46255  10.883   7.299   0.405  0.5821 -0.0595 -0.5298
  343MOL0     H46256  10.929   7.064   0.281  0.4096 -1.1970  0.2305
  343MOL0     H46257  10.861   6.863   0.123 -0.9647 -0.5764  0.2087
  343MOL0     H46258  10.742   6.896   0.009  1.5746 -3.6428  0.6735
  343MOL0     H46259  11.040   6.903  -0.041 -0.1829  0.2094  0.1027
  343MOL0     H46260  10.926   6.824  -0.125  1.0966 -1.0006  1.3149
  343MOL0     H46261  11.000   7.121  -0.159  2.1875 -0.6466 -0.3572
  343MOL0     H46262  10.844   7.043  -0.207 -0.2739 -0.1650 -1.2874
  343MOL0     H46263  10.985   7.068  -0.399 -1.9021  0.1493  0.4353
  343MOL0     H46264  10.982   6.899  -0.360 -2.9026 -0.2660  1.6266
  343MOL0     H46265  11.114   7.115  -0.555  0.2445  1.0847  0.3881
  343MOL0     H46266  11.279   7.131  -0.725 -0.9227 -3.1565 -0.8868
  343MOL0     H46267  11.704   7.036  -0.938 -0.1254  1.7453 -0.6465
  343MOL0     H46268  11.928   7.051  -1.060  0.7001 -1.6687  0.2361
  343MOL0     H46269  12.261   7.239  -0.830  2.7998 -0.5946  0.4753
  343MOL0     H46270  12.298   7.064  -0.831  0.6289 -1.2280 -0.3113
  343MOL0     H46271  12.328   7.252  -1.068  0.5695  0.8196  0.4219
  343MOL0     H46272  12.456   7.244  -0.943 -0.4930 -0.1679 -1.1878
  343MOL0     H46273  12.496   7.007  -0.983  0.1102 -2.2234 -2.2978
  343MOL0     H46274  12.362   6.995  -1.083  2.2889 -0.4063 -0.5134
  343MOL0     H46275  12.598   7.189  -1.131 -1.4498  0.8224 -0.9060
  343MOL0     H46276  12.464   7.170  -1.240  1.2618  0.0599 -1.4320
  343MOL0     H46277  12.539   6.921  -1.262 -2.2881  2.7151 -3.0084
  343MOL0     H46278  12.660   6.946  -1.142  1.5887 -0.7519 -0.4350
  343MOL0     H46279  12.658   7.083  -1.416 -1.3825 -1.3853 -0.0818
  343MOL0     H46280  12.783   7.117  -1.276  1.7242 -1.3324  0.2757
  343MOL0     H46281  12.713   6.864  -1.401 -0.1942 -1.8240  1.4282
  343MOL0     H46282  12.858   6.882  -1.287  2.2853  0.3082 -1.0348
  343MOL0     H46283  12.974   7.021  -1.432 -2.2913  0.9319  5.1994
  343MOL0     H46284  12.955   6.880  -1.520  2.9427  2.7081 -0.8390
  343MOL0     H46285  12.126   7.124  -0.685 -0.3442  2.4342 -0.7564
  343MOL0     H46286  11.903   7.091  -0.569  0.0182 -1.1564  0.3901
  343MOL0     H46287  11.577   6.958  -0.453 -0.5052  0.3619  1.5545
  343MOL0     H46288  11.405   6.954  -0.282 -1.0608  3.2686  0.3868
  343MOL0     H46289  10.240   8.026   0.477  0.1875  0.1786  0.1647
  343MOL0     H46290  10.207   8.267   0.491 -0.4567 -0.4012  0.6773
  343MOL0     H46291  10.237   8.678   0.035  1.8731  2.0777 -0.3220
  343MOL0     H46292  10.282   8.927   0.081  1.8889 -3.1160 -2.7228
  343MOL0     H46293  10.224   9.098   0.498  2.4286 -0.2578 -0.6856
  343MOL0     H46294  10.076   9.080   0.399 -0.7419  0.8763 -5.4436
  343MOL0     H46295  10.139   9.258   0.254 -1.7442 -2.1752  0.3928
  343MOL0     H46296  10.292   9.297   0.352  1.0805 -1.0510  1.2327
  343MOL0     H46297  10.081   9.320   0.546  0.9989  3.2562  0.7045
  343MOL0     H46298   9.995   9.336   0.394 -0.6968 -1.7923  2.2176
  343MOL0     H46299  10.231   9.508   0.494  1.5414 -0.4934 -1.3107
  343MOL0     H46300  10.156   9.524   0.330 -0.2209 -1.3564 -0.7925
  343MOL0     H46301   9.881   9.729   0.538 -0.5003  0.5002 -0.6168
  343MOL0     H46302  10.211   8.856   0.500  0.2060  0.1494 -0.3747
  343MOL0     H46303  10.281   8.525   0.470 -0.4233 -0.1193  1.2129
  343MOL0     H46304  10.230   8.644   0.572  3.2127  3.2275 -1.0884
  343MOL0     H46305  10.104   8.535   0.507  1.7945 -1.8922  0.3468
  344MOL0     O46306   3.780   7.757   8.828 -0.8906 -1.0114 -0.1373
  344MOL0     C46307   3.871   7.739   8.914 -0.0523  0.3919 -0.0560
  344MOL0     O46308   3.987   7.689   8.882 -0.6172  0.0231 -0.0342
  344MOL0     C46309   4.019   7.649   8.752  0.3980 -0.7771 -0.3144
  344MOL0     C46310   4.045   7.516   8.724 -0.2349 -0.1943 -0.0331
  344MOL0     C46311   4.080   7.467   8.598  1.0972  0.0953  0.3462
  344MOL0     C46312   4.107   7.555   8.498  0.5321 -0.8120 -0.1590
  344MOL0     O46313   4.130   7.501   8.370 -0.1613  0.0398 -0.4076
  344MOL0     C46314   4.010   7.501   8.296  0.3877  0.3076  0.2676
  344MOL0     C46315   4.043   7.435   8.160  0.4457  0.5711 -0.6731
  344MOL0     C46316   4.061   7.280   8.178  0.1520  0.0589 -0.8391
  344MOL0     C46317   4.082   7.209   8.048 -1.5870 -0.2292 -0.0137
  344MOL0     C46318   4.074   7.059   8.043  0.5771 -0.7306  0.1839
  344MOL0     C46319   4.116   6.991   7.917 -0.7081  0.5567  0.7327
  344MOL0     C46320   4.091   6.833   7.910 -1.5028 -0.4904  0.1742
  344MOL0     C46321   3.944   6.817   7.873 -0.1023  0.0815  0.3111
  344MOL0     N46322   3.893   6.677   7.896 -0.2492 -0.6275  0.7960
  344MOL0     C46323   3.941   6.569   7.815  0.2794  0.5344  0.0985
  344MOL0     C46324   3.877   6.456   7.850  0.4462  0.0198 -0.2640
  344MOL0     C46325   3.900   6.324   7.795  0.5699 -0.3136 -0.2176
  344MOL0     C46326   3.978   6.236   7.900 -0.1479 -0.2066 -0.3413
  344MOL0     C46327   3.913   6.228   8.045 -0.4153 -0.0602  0.0913
  344MOL0     C46328   3.769   6.171   8.030 -0.1442 -0.0576  0.6426
  344MOL0     O46329   3.725   6.123   8.156  0.0805 -0.4139 -0.1861
  344MOL0     C46330   3.638   6.017   8.151  0.4525 -0.2256 -0.9414
  344MOL0     C46331   3.514   6.025   8.218 -0.5417  0.2300 -0.1039
  344MOL0     C46332   3.440   5.914   8.238 -0.8037  0.1753 -0.5163
  344MOL0     C46333   3.473   5.786   8.192  0.5810 -0.8425  0.2093
  344MOL0     C46334   3.379   5.673   8.195 -0.1500 -0.1625  0.0988
  344MOL0     O46335   3.331   5.624   8.314  0.1917  1.0856  0.2363
  344MOL0     C46336   3.374   5.663   8.438  0.5333 -0.7523  0.3094
  344MOL0     C46337   3.275   5.701   8.532  0.2330  0.2710  0.0504
  344MOL0     C46338   3.306   5.732   8.667 -0.5895 -0.2996 -0.0318
  344MOL0     C46339   3.440   5.754   8.696 -1.0947 -0.4569 -0.4472
  344MOL0     O46340   3.486   5.818   8.809  0.0364  0.6296 -0.4807
  344MOL0     C46341   3.392   5.844   8.916 -0.6854  0.0211  0.1712
  344MOL0     C46342   3.462   5.875   9.036  0.0717 -0.8256 -0.2070
  344MOL0     C46343   3.548   6.002   9.024  0.1172 -0.2188  0.2755
  344MOL0     C46344   3.610   6.039   9.154 -0.3901  0.9423 -0.0964
  344MOL0     C46345   3.673   6.173   9.150 -0.5883 -0.1411  0.1932
  344MOL0     C46346   3.733   6.219   9.288 -0.3922  0.4973  1.3024
  344MOL0     C46347   3.809   6.353   9.272  0.3523  0.2858  0.9017
  344MOL0     C46348   3.718   6.467   9.241 -0.3083  0.1359 -0.4689
  344MOL0    Cl46349   3.809   6.612   9.287  0.2333  0.0899  0.3511
  344MOL0     C46350   3.542   5.741   8.595  0.3620  0.0528 -0.8966
  344MOL0     C46351   3.510   5.690   8.471 -0.0063  0.5070  0.4283
  344MOL0     O46352   3.340   5.644   8.080 -0.1838 -0.6735  0.6126
  344MOL0     C46353   3.591   5.782   8.126  0.7039 -0.3360  0.0557
  344MOL0     C46354   3.677   5.891   8.110 -0.0969  0.5946  0.0501
  344MOL0     N46355   3.784   6.509   7.943  0.1059 -0.0037 -0.2260
  344MOL0     N46356   3.794   6.636   7.969  0.4574  0.3023  0.1834
  344MOL0     C46357   4.074   7.694   8.516 -0.2137  0.2112 -0.3409
  344MOL0     C46358   4.034   7.739   8.644 -0.0777 -0.9281  0.5145
  344MOL0     C46359   3.853   7.765   9.051  0.8290  0.7998  0.0463
  344MOL0     C46360   3.731   7.731   9.113  0.5463  0.2486  0.4971
  344MOL0     C46361   3.714   7.736   9.252 -0.5122 -0.7225 -0.1958
  344MOL0     C46362   3.817   7.804   9.325 -0.7241  0.4136  0.7500
  344MOL0     O46363   3.794   7.815   9.462 -0.1200  0.4977  0.1443
  344MOL0     C46364   3.844   7.937   9.524  0.0989  0.2853 -0.0692
  344MOL0     C46365   3.788   7.985   9.658  0.9290  0.7486  0.5662
  344MOL0     C46366   3.637   8.029   9.648  0.7864  0.4794  0.3151
  344MOL0     C46367   3.590   8.101   9.784  0.0961  0.8566 -0.1095
  344MOL0     C46368   3.680   8.202   9.843  0.4667  0.6392  0.8820
  344MOL0     C46369   3.755   8.288   9.886 -0.9098  0.7869 -0.0911
  344MOL0     C46370   3.938   7.835   9.265  0.3037 -0.8398  0.6951
  344MOL0     C46371   3.952   7.825   9.128 -0.3075 -0.5951 -0.0691
  344MOL0     C46372   4.089   7.871   9.067  0.5120  0.7782 -0.4415
  344MOL0     H46373   4.020   7.450   8.807 -0.3810  0.2042  0.2412
  344MOL0     H46374   4.098   7.361   8.579 -0.2712  0.0992 -1.1293
  344MOL0     H46375   3.929   7.442   8.340 -0.4230 -0.1305 -1.7146
  344MOL0     H46376   3.974   7.602   8.274  0.0138  1.0517  3.7784
  344MOL0     H46377   4.129   7.490   8.120 -0.8763  2.6199 -0.8520
  344MOL0     H46378   3.961   7.457   8.090  1.5514  3.6493 -1.1559
  344MOL0     H46379   3.979   7.230   8.231  2.1558 -3.5093 -0.7352
  344MOL0     H46380   4.154   7.270   8.235  0.0821 -0.8251 -0.8551
  344MOL0     H46381   4.003   7.244   7.981 -1.6095 -5.4390 -3.1876
  344MOL0     H46382   4.185   7.230   8.016 -0.4263 -3.6323  1.0314
  344MOL0     H46383   4.149   7.032   8.118  1.0491  1.8778  0.7698
  344MOL0     H46384   3.972   7.037   8.075 -0.2363 -1.4289 -2.6475
  344MOL0     H46385   4.078   7.039   7.826  1.9027 -2.2988 -2.1048
  344MOL0     H46386   4.225   6.995   7.910 -0.7575  1.9829  0.5667
  344MOL0     H46387   4.117   6.792   8.008  1.7469  0.0460 -0.3619
  344MOL0     H46388   4.150   6.787   7.830  0.5968 -4.6827  3.6960
  344MOL0     H46389   3.884   6.886   7.934 -0.2558  2.1668 -2.0531
  344MOL0     H46390   3.940   6.842   7.767  0.1696 -0.7048  0.1072
  344MOL0     H46391   4.020   6.588   7.743  3.7828 -1.8887  2.9239
  344MOL0     H46392   3.805   6.276   7.771 -0.1071  1.3935 -1.1235
  344MOL0     H46393   3.960   6.341   7.705 -0.3671  1.3626 -0.5610
  344MOL0     H46394   3.998   6.140   7.851  1.6669  1.8094 -3.9400
  344MOL0     H46395   4.075   6.284   7.914 -0.4373  0.5212 -0.7827
  344MOL0     H46396   3.914   6.323   8.099  2.1769 -0.0027  0.0308
  344MOL0     H46397   3.988   6.174   8.104  1.9073  1.7713 -1.0251
  344MOL0     H46398   3.767   6.092   7.954  0.3859  2.8312 -2.6499
  344MOL0     H46399   3.697   6.250   8.006 -0.7359 -0.4376  1.1140
  344MOL0     H46400   3.471   6.116   8.260  1.2258 -0.4635  3.5446
  344MOL0     H46401   3.343   5.922   8.287  0.6654 -3.0973  3.5310
  344MOL0     H46402   3.174   5.690   8.495  0.2980  0.7372 -0.2604
  344MOL0     H46403   3.221   5.770   8.724  0.9699  1.2296  1.3968
  344MOL0     H46404   3.331   5.926   8.875  2.5755  1.6090 -1.9274
  344MOL0     H46405   3.338   5.754   8.944  2.7815 -1.9049  1.2211
  344MOL0     H46406   3.387   5.901   9.112  1.0206 -2.6075  1.4326
  344MOL0     H46407   3.534   5.796   9.059  3.0826  1.7610  0.0263
  344MOL0     H46408   3.624   5.988   8.946  0.4459 -1.1425  0.7405
  344MOL0     H46409   3.484   6.085   8.994 -0.2240  1.3943  4.7922
  344MOL0     H46410   3.694   5.974   9.183 -2.2217 -1.3807  0.2841
  344MOL0     H46411   3.551   6.035   9.246  0.1785 -0.3553  0.2414
  344MOL0     H46412   3.605   6.237   9.093  0.6094  0.8422 -0.1903
  344MOL0     H46413   3.758   6.168   9.081 -0.8789  1.9822 -0.4069
  344MOL0     H46414   3.652   6.230   9.361  0.0193 -1.4265  2.1129
  344MOL0     H46415   3.799   6.141   9.326  0.5094  0.5874 -0.0058
  344MOL0     H46416   3.885   6.344   9.195 -0.9959 -1.1293 -0.3188
  344MOL0     H46417   3.861   6.372   9.367  0.1885 -0.4945  1.1554
  344MOL0     H46418   3.685   6.474   9.137  0.1101 -1.2477 -0.7027
  344MOL0     H46419   3.632   6.452   9.308 -0.0398 -1.8955 -0.5429
  344MOL0     H46420   3.643   5.779   8.611  0.3267 -0.5224  0.8829
  344MOL0     H46421   3.588   5.687   8.395 -0.8674  3.3243 -0.6903
  344MOL0     H46422   3.626   5.686   8.088  2.6257  0.2031  0.3687
  344MOL0     H46423   3.780   5.879   8.079  0.0159 -0.8258  0.9033
  344MOL0     H46424   4.066   7.766   8.435 -1.2844  2.5563  1.7066
  344MOL0     H46425   4.025   7.845   8.665  0.9034 -1.0471  1.6324
  344MOL0     H46426   3.667   7.676   9.045  3.1410 -2.2524 -0.1652
  344MOL0     H46427   3.633   7.693   9.310  1.7492 -3.1671  1.4331
  344MOL0     H46428   3.837   8.021   9.454 -0.1171  0.9060  0.6849
  344MOL0     H46429   3.952   7.923   9.530  0.0563 -2.2096 -2.8264
  344MOL0     H46430   3.852   8.066   9.693  0.8135  1.8369 -1.5733
  344MOL0     H46431   3.806   7.904   9.730 -1.1136 -2.0915 -1.8459
  344MOL0     H46432   3.567   7.945   9.647  2.6225 -1.1420  0.1933
  344MOL0     H46433   3.627   8.102   9.567  1.7240 -1.3120 -1.5140
  344MOL0     H46434   3.492   8.140   9.753 -0.5916 -1.8855 -1.7689
  344MOL0     H46435   3.578   8.037   9.871  0.3005  1.9320  0.7320
  344MOL0     H46436   3.829   8.357   9.921 -2.9657  3.1094 -0.0349
  344MOL0     H46437   4.027   7.865   9.319 -1.2440  2.1332  1.8300
  344MOL0     H46438   4.075   7.938   8.982 -0.0929  0.0262 -0.9468
  344MOL0     H46439   4.145   7.934   9.137  1.2840  1.2985 -1.5001
  344MOL0     H46440   4.154   7.790   9.033 -0.1169  1.2529 -2.9204
  345MOL0     O46441   0.336   3.036   7.969  0.1958  0.3006 -0.0186
  345MOL0     C46442   0.438   2.980   8.006  0.4211 -0.0362 -0.5160
  345MOL0     O46443   0.455   2.841   8.049 -0.0816 -1.2807  0.4554
  345MOL0     C46444   0.346   2.765   8.095 -0.6615  0.0063  0.9464
  345MOL0     C46445   0.237   2.815   8.161  1.1149  0.3392 -0.3649
  345MOL0     C46446   0.134   2.734   8.199 -0.4449  0.0695 -0.1887
  345MOL0     C46447   0.133   2.602   8.157  0.1867  0.1248  0.2152
  345MOL0     O46448   0.021   2.524   8.182 -0.3356 -1.0125  0.6609
  345MOL0     C46449  -0.055   2.543   8.297  1.1826 -0.0149 -1.0229
  345MOL0     C46450  -0.194   2.595   8.268  0.2060 -0.2076  0.2004
  345MOL0     C46451  -0.302   2.587   8.379  0.2810  0.3178 -0.7854
  345MOL0     C46452  -0.327   2.449   8.434  0.2674  0.2296 -0.6627
  345MOL0     C46453  -0.447   2.430   8.527 -0.0917  0.1586  0.3805
  345MOL0     C46454  -0.587   2.459   8.460 -0.3444 -0.8656 -0.7110
  345MOL0     C46455  -0.655   2.596   8.503 -0.1484  0.0986  0.1437
  345MOL0     C46456  -0.809   2.589   8.474 -0.5726 -0.9431  0.3770
  345MOL0     N46457  -0.867   2.723   8.480 -0.6010 -0.0171  0.5319
  345MOL0     C46458  -0.799   2.834   8.435  0.8341  0.1914  0.2545
  345MOL0     C46459  -0.877   2.941   8.466  0.2863 -0.1219  0.0790
  345MOL0     C46460  -0.863   3.092   8.448  1.0429 -1.0253  0.6737
  345MOL0     C46461  -0.784   3.170   8.557 -0.3459  0.6977  0.3790
  345MOL0     C46462  -0.783   3.319   8.516  0.5656 -0.5506 -0.4719
  345MOL0     C46463  -0.930   3.379   8.507  0.4099  0.3087  0.3906
  345MOL0     O46464  -0.979   3.360   8.647 -0.0593  0.7297 -0.0930
  345MOL0     C46465  -1.109   3.357   8.662  0.4686  1.0583 -1.6165
  345MOL0     C46466  -1.201   3.294   8.578  0.1098 -0.1653  0.3982
  345MOL0     C46467  -1.339   3.322   8.586 -0.8311  0.0997 -0.5238
  345MOL0     C46468  -1.387   3.388   8.699 -0.1155 -0.0222  0.4092
  345MOL0     C46469  -1.536   3.381   8.721  0.8855  0.4122 -0.3899
  345MOL0     O46470  -1.624   3.381   8.619  0.0148 -0.0567 -0.0070
  345MOL0     C46471  -1.761   3.397   8.623 -0.2624 -0.6784  0.1315
  345MOL0     C46472  -1.838   3.414   8.738 -0.0980  0.2929 -0.0914
  345MOL0     C46473  -1.979   3.424   8.727 -0.3621 -0.1193  0.3744
  345MOL0     C46474  -2.045   3.423   8.603 -0.0565 -0.9108 -0.4524
  345MOL0     O46475  -2.179   3.439   8.569 -0.1616 -0.0817  0.6345
  345MOL0     C46476  -2.277   3.434   8.671  0.8034 -0.0444 -1.2993
  345MOL0     C46477  -2.420   3.422   8.611 -0.4757  0.1743 -0.0335
  345MOL0     C46478  -2.467   3.557   8.544 -0.3299  0.0479 -0.1553
  345MOL0     C46479  -2.625   3.553   8.534  0.2113  0.1143  0.1385
  345MOL0     C46480  -2.679   3.661   8.426 -0.7911 -0.3078 -0.1224
  345MOL0     C46481  -2.636   3.794   8.487 -0.0467  0.1072  0.1753
  345MOL0     C46482  -2.659   3.908   8.392 -1.1757 -0.1910  0.7103
  345MOL0     C46483  -2.613   4.048   8.432 -0.2565  0.2254 -1.6238
  345MOL0    Cl46484  -2.720   4.090   8.576  0.2102 -0.0637  0.3531
  345MOL0     C46485  -1.960   3.411   8.492  0.3617 -0.2947 -0.3370
  345MOL0     C46486  -1.825   3.396   8.499 -0.4331 -0.8441  0.0790
  345MOL0     O46487  -1.570   3.383   8.836 -0.9242  0.3016 -0.0094
  345MOL0     C46488  -1.294   3.457   8.782  0.4364  0.0628 -0.2834
  345MOL0     C46489  -1.155   3.449   8.763 -0.2650 -0.0877  0.2564
  345MOL0     N46490  -0.964   2.891   8.553  0.1132  0.4421 -0.1939
  345MOL0     N46491  -0.974   2.765   8.546 -0.2174 -0.1104  0.1362
  345MOL0     C46492   0.241   2.554   8.085  0.2310  1.0305  0.3711
  345MOL0     C46493   0.345   2.629   8.059 -0.0614 -0.6852  0.9235
  345MOL0     C46494   0.545   3.071   8.003  0.1941 -0.7595  0.1542
  345MOL0     C46495   0.637   3.052   7.894 -0.1038  0.5937  0.2627
  345MOL0     C46496   0.751   3.128   7.888  0.2592 -0.7114  0.4961
  345MOL0     C46497   0.783   3.226   7.983  1.1633  0.8971 -0.2168
  345MOL0     O46498   0.901   3.296   7.961 -0.2821 -0.3314 -0.8101
  345MOL0     C46499   0.883   3.441   7.985 -0.2311  0.3127 -0.0544
  345MOL0     C46500   1.000   3.496   7.915  0.3754 -0.4214  0.2251
  345MOL0     C46501   1.128   3.504   8.002 -0.1103  0.5033  0.1042
  345MOL0     C46502   1.265   3.565   7.945 -0.7156  1.0715  0.7260
  345MOL0     C46503   1.256   3.711   7.932 -0.3378 -0.1319  0.4760
  345MOL0     C46504   1.236   3.833   7.925  0.4171  0.0933  0.2325
  345MOL0     C46505   0.689   3.253   8.086 -0.3342 -0.2698 -0.7523
  345MOL0     C46506   0.572   3.173   8.098  0.1973 -0.0950 -0.1756
  345MOL0     C46507   0.474   3.182   8.209  0.0952 -0.3173 -0.2200
  345MOL0     H46508   0.227   2.922   8.174 -1.4359 -0.1337  3.1987
  345MOL0     H46509   0.060   2.784   8.260  1.8588  1.3682  1.7269
  345MOL0     H46510  -0.055   2.453   8.359  1.5398  2.2231  2.4879
  345MOL0     H46511  -0.023   2.619   8.369 -1.4564  1.9444 -1.7797
  345MOL0     H46512  -0.214   2.555   8.168 -2.7766  2.1885 -0.3127
  345MOL0     H46513  -0.179   2.701   8.247 -1.4330 -0.3168 -1.8947
  345MOL0     H46514  -0.396   2.628   8.337 -0.6133 -1.5889 -0.7277
  345MOL0     H46515  -0.276   2.647   8.466  1.6822 -2.4398  0.8120
  345MOL0     H46516  -0.342   2.385   8.347 -1.3135  0.6060 -0.6945
  345MOL0     H46517  -0.234   2.414   8.480 -0.4384 -0.1743  0.4927
  345MOL0     H46518  -0.444   2.325   8.555 -0.3217 -0.2630 -1.0906
  345MOL0     H46519  -0.438   2.502   8.609  1.0529  1.4806 -0.8337
  345MOL0     H46520  -0.573   2.462   8.352  3.1952 -0.2801 -0.3317
  345MOL0     H46521  -0.657   2.375   8.474 -3.5315  1.3088 -2.3408
  345MOL0     H46522  -0.608   2.673   8.440 -0.2102 -0.2281 -0.3059
  345MOL0     H46523  -0.635   2.622   8.607 -2.8418  1.8513  0.3121
  345MOL0     H46524  -0.837   2.536   8.383 -1.6813  1.0975 -0.5282
  345MOL0     H46525  -0.835   2.519   8.554  0.4995 -2.8577 -0.8861
  345MOL0     H46526  -0.716   2.845   8.366 -0.5175  0.6727 -1.3581
  345MOL0     H46527  -0.810   3.115   8.356 -0.9175 -0.1029 -0.2810
  345MOL0     H46528  -0.966   3.127   8.441  1.6146  0.4673 -0.7879
  345MOL0     H46529  -0.822   3.148   8.657 -1.6661 -0.5080 -0.3557
  345MOL0     H46530  -0.681   3.138   8.572 -1.4067 -3.6211 -0.3132
  345MOL0     H46531  -0.716   3.337   8.431  2.0137 -0.6335  0.6047
  345MOL0     H46532  -0.731   3.375   8.595 -1.3197  0.1527  0.3330
  345MOL0     H46533  -0.992   3.325   8.435  2.3884  1.8588 -2.6696
  345MOL0     H46534  -0.938   3.485   8.480 -1.5547  0.4879  1.4537
  345MOL0     H46535  -1.168   3.226   8.500  2.0871  1.3114 -0.1356
  345MOL0     H46536  -1.401   3.282   8.507  0.0556 -1.3686 -0.5157
  345MOL0     H46537  -1.805   3.406   8.841 -0.9585  4.6135  0.7066
  345MOL0     H46538  -2.032   3.444   8.820  0.2935  1.5082  0.4311
  345MOL0     H46539  -2.254   3.360   8.748 -0.1306  0.5650 -0.4016
  345MOL0     H46540  -2.271   3.528   8.727 -1.8676  0.5487 -1.8540
  345MOL0     H46541  -2.429   3.340   8.540  1.7518 -2.6718  2.6788
  345MOL0     H46542  -2.490   3.391   8.689  0.5079 -1.6996  0.1688
  345MOL0     H46543  -2.444   3.644   8.607 -1.3207  1.4219 -1.6476
  345MOL0     H46544  -2.417   3.569   8.448 -0.6970 -1.1772 -0.5151
  345MOL0     H46545  -2.673   3.574   8.630 -1.9157  1.7679 -1.1855
  345MOL0     H46546  -2.658   3.455   8.500  0.2478  0.5617 -1.2626
  345MOL0     H46547  -2.788   3.657   8.417 -1.1521 -0.2264  3.0905
  345MOL0     H46548  -2.630   3.643   8.330 -0.9252  1.2778 -0.5112
  345MOL0     H46549  -2.689   3.817   8.580  2.8520  1.8596  1.5393
  345MOL0     H46550  -2.530   3.806   8.512  0.4602  0.0501 -1.7580
  345MOL0     H46551  -2.765   3.909   8.365 -1.5361 -0.5749  2.0566
  345MOL0     H46552  -2.592   3.888   8.307 -2.6055  2.4709 -1.2051
  345MOL0     H46553  -2.506   4.045   8.458 -0.4398 -3.4187 -0.6853
  345MOL0     H46554  -2.631   4.118   8.350 -4.8735  3.4243  1.6505
  345MOL0     H46555  -2.004   3.416   8.393 -2.2341  0.0986  0.7427
  345MOL0     H46556  -1.757   3.381   8.416  0.9200  0.5582  0.8734
  345MOL0     H46557  -1.338   3.504   8.870 -1.7521  0.7263 -1.6297
  345MOL0     H46558  -1.093   3.495   8.839 -2.4436  3.7317 -0.0309
  345MOL0     H46559   0.249   2.453   8.045  0.7412  0.6448  1.4144
  345MOL0     H46560   0.432   2.598   8.002  0.7125  1.6666  0.7177
  345MOL0     H46561   0.619   2.969   7.827  4.0938 -1.3103  1.1916
  345MOL0     H46562   0.813   3.130   7.799  1.6151  0.1624  1.4321
  345MOL0     H46563   0.878   3.456   8.093 -0.1514 -1.3552  0.2037
  345MOL0     H46564   0.795   3.473   7.928  0.7340 -1.4188 -2.7038
  345MOL0     H46565   0.979   3.598   7.882  2.4809  0.0536  0.2069
  345MOL0     H46566   1.016   3.442   7.821  0.9973  4.3615 -2.8137
  345MOL0     H46567   1.150   3.401   8.029 -2.1313 -0.2906 -1.0959
  345MOL0     H46568   1.098   3.571   8.083 -0.2565 -0.9335  1.2761
  345MOL0     H46569   1.345   3.526   8.009  0.8899  0.7808 -1.3296
  345MOL0     H46570   1.285   3.532   7.842 -3.4831  1.5343 -0.0228
  345MOL0     H46571   1.223   3.939   7.916 -0.9349 -0.2275 -3.0136
  345MOL0     H46572   0.724   3.333   8.150 -0.9274 -1.5340  1.2748
  345MOL0     H46573   0.516   3.247   8.286  0.1413 -2.3237  1.5433
  345MOL0     H46574   0.383   3.236   8.184  0.5871  0.4524 -0.3878
  345MOL0     H46575   0.462   3.088   8.264 -3.8424  1.9520  3.3520
  346MOL0     O46576   0.816   0.763   1.748 -0.0617  0.6446  0.0778
  346MOL0     C46577   0.715   0.827   1.762 -0.8634 -1.5357  0.5760
  346MOL0     O46578   0.600   0.787   1.814 -0.2400 -0.5392  0.1495
  346MOL0     C46579   0.595   0.688   1.912 -0.1783 -0.4393  0.3032
  346MOL0     C46580   0.655   0.562   1.916 -0.3117 -0.2699 -0.0782
  346MOL0     C46581   0.624   0.471   2.019 -0.4570  0.3554  1.0946
  346MOL0     C46582   0.549   0.499   2.125  0.7923 -0.3152  1.3227
  346MOL0     O46583   0.536   0.403   2.223  0.3136 -0.2470 -0.2091
  346MOL0     C46584   0.426   0.411   2.316  0.6223 -0.3568  0.0715
  346MOL0     C46585   0.382   0.261   2.344  1.0008 -0.2180  0.1781
  346MOL0     C46586   0.274   0.252   2.457 -0.3424 -0.3162 -0.8352
  346MOL0     C46587   0.322   0.168   2.571  0.1519  0.4902 -0.2729
  346MOL0     C46588   0.201   0.124   2.656 -0.4562 -0.4965 -0.5920
  346MOL0     C46589   0.249   0.058   2.791  0.9114 -0.5570 -0.2255
  346MOL0     C46590   0.136  -0.003   2.880 -0.2843  0.1528  0.2920
  346MOL0     C46591   0.186  -0.087   2.997  0.6312  0.2626 -0.0639
  346MOL0     N46592   0.086  -0.172   3.062  0.2692  0.2388 -0.2194
  346MOL0     C46593   0.009  -0.256   2.987 -0.3845 -0.1294  0.7352
  346MOL0     C46594  -0.091  -0.292   3.063 -1.0890 -0.2011 -0.8070
  346MOL0     C46595  -0.200  -0.386   3.045 -0.0397  0.4870 -0.1081
  346MOL0     C46596  -0.332  -0.324   3.021 -0.7888 -0.4135 -0.0116
  346MOL0     C46597  -0.363  -0.289   2.868  0.5101  0.0070 -0.6530
  346MOL0     C46598  -0.373  -0.144   2.832  0.5491 -0.4069  0.0865
  346MOL0     O46599  -0.428  -0.138   2.697 -0.3238  0.4333 -0.1203
  346MOL0     C46600  -0.415  -0.032   2.623  0.3629 -0.3911  0.2453
  346MOL0     C46601  -0.355  -0.044   2.497  0.3210 -0.0670 -0.0074
  346MOL0     C46602  -0.320   0.066   2.425  0.4593 -0.0877  0.4352
  346MOL0     C46603  -0.344   0.196   2.473 -0.2663 -0.1793 -0.0764
  346MOL0     C46604  -0.290   0.310   2.394 -0.9262  0.1835 -0.5986
  346MOL0     O46605  -0.238   0.289   2.267  0.2500  0.1498 -0.3611
  346MOL0     C46606  -0.181   0.402   2.222 -1.4661 -0.3723  0.2626
  346MOL0     C46607  -0.248   0.480   2.143  0.5153 -0.0136  0.9801
  346MOL0     C46608  -0.190   0.575   2.056  0.8604 -0.0487 -0.1944
  346MOL0     C46609  -0.053   0.605   2.066  0.1074  0.0301  0.1235
  346MOL0     O46610  -0.004   0.688   1.973 -0.7447  0.1158  0.0211
  346MOL0     C46611   0.084   0.605   1.887  0.2123 -0.7562 -0.8812
  346MOL0     C46612   0.111   0.666   1.750  1.1367 -0.0465 -0.4761
  346MOL0     C46613   0.173   0.805   1.750  0.6413  0.0561 -0.5657
  346MOL0     C46614   0.229   0.846   1.617  0.4324 -0.1277  0.1449
  346MOL0     C46615   0.302   0.986   1.601 -0.6159 -0.2628  0.0493
  346MOL0     C46616   0.367   0.987   1.463  0.3376 -0.0625  0.1668
  346MOL0     C46617   0.276   1.044   1.355 -0.3734 -0.1322  0.8307
  346MOL0     C46618   0.346   0.984   1.221 -0.1299  0.2753 -0.2336
  346MOL0    Cl46619   0.298   0.820   1.203  0.0466  0.5771  0.0038
  346MOL0     C46620   0.022   0.528   2.153 -0.6972  0.5686 -0.5144
  346MOL0     C46621  -0.039   0.429   2.236 -0.3672  0.1838  0.1153
  346MOL0     O46622  -0.308   0.417   2.443  0.2213 -0.5052 -0.6176
  346MOL0     C46623  -0.417   0.211   2.585  1.3534 -0.8969 -0.4655
  346MOL0     C46624  -0.449   0.098   2.658  0.3825  0.7966  0.0977
  346MOL0     N46625  -0.090  -0.217   3.177  0.4315  0.2931 -0.2257
  346MOL0     N46626   0.005  -0.138   3.163  0.4916 -0.6751 -0.5018
  346MOL0     C46627   0.492   0.627   2.133 -0.5703 -0.3691 -0.5409
  346MOL0     C46628   0.517   0.725   2.032  0.4892  0.0160  0.2740
  346MOL0     C46629   0.708   0.951   1.683 -0.3116  0.3967  0.2357
  346MOL0     C46630   0.768   0.962   1.557 -0.0139 -0.2771 -0.5926
  346MOL0     C46631   0.769   1.080   1.489  0.2886  0.0125  0.7093
  346MOL0     C46632   0.697   1.195   1.536  0.3035 -0.2184  0.0814
  346MOL0     O46633   0.682   1.317   1.475  0.2078 -0.8166 -0.0918
  346MOL0     C46634   0.675   1.328   1.336 -0.6315  0.7213  0.1267
  346MOL0     C46635   0.582   1.441   1.295  0.1123  0.6561 -0.7269
  346MOL0     C46636   0.430   1.416   1.317 -0.8774  0.5199  1.0993
  346MOL0     C46637   0.336   1.522   1.276  0.1225 -0.0057  0.8871
  346MOL0     C46638   0.297   1.501   1.142  0.2668  0.2989  1.2285
  346MOL0     C46639   0.252   1.484   1.034  0.1037 -0.4196  1.5086
  346MOL0     C46640   0.628   1.183   1.651  0.6782 -0.1055 -1.5221
  346MOL0     C46641   0.646   1.070   1.735 -0.3804 -0.8192 -0.6489
  346MOL0     C46642   0.567   1.083   1.867  0.1379 -0.2612  0.4303
  346MOL0     H46643   0.727   0.538   1.839 -0.0968 -0.1754  0.0908
  346MOL0     H46644   0.675   0.375   2.013  0.3970  0.8660 -0.0912
  346MOL0     H46645   0.449   0.469   2.406 -1.5641 -0.3264  0.6532
  346MOL0     H46646   0.331   0.443   2.274  0.5425 -2.4510 -1.4826
  346MOL0     H46647   0.469   0.197   2.357  1.0914 -0.4930 -1.4892
  346MOL0     H46648   0.324   0.233   2.255  1.0836 -1.4104  0.4876
  346MOL0     H46649   0.180   0.211   2.420 -0.2147 -1.8547  0.4080
  346MOL0     H46650   0.258   0.353   2.495 -0.8230 -0.0512 -1.7295
  346MOL0     H46651   0.372   0.075   2.542 -2.6062 -1.2088 -0.0192
  346MOL0     H46652   0.380   0.226   2.643 -0.0871 -2.9784  3.0520
  346MOL0     H46653   0.146   0.212   2.691 -1.0448 -1.7490  1.9399
  346MOL0     H46654   0.131   0.056   2.607 -1.0106  0.1318 -0.6900
  346MOL0     H46655   0.331  -0.009   2.764 -0.0414 -2.0884  0.5025
  346MOL0     H46656   0.301   0.130   2.854  0.5070  1.6825 -2.3245
  346MOL0     H46657   0.076  -0.060   2.808 -0.7330  0.4963  0.3920
  346MOL0     H46658   0.073   0.073   2.926  0.1923 -0.2347  1.6328
  346MOL0     H46659   0.263  -0.159   2.965  1.4494  0.5851  1.1032
  346MOL0     H46660   0.242  -0.025   3.067 -0.4604 -1.2409  2.2776
  346MOL0     H46661   0.035  -0.286   2.886  0.4665  2.8429 -0.0251
  346MOL0     H46662  -0.177  -0.454   2.962 -0.9072  0.8563 -0.6670
  346MOL0     H46663  -0.205  -0.446   3.136 -0.5619  0.0440 -0.4296
  346MOL0     H46664  -0.401  -0.407   3.036 -2.5335  1.1702  1.1263
  346MOL0     H46665  -0.348  -0.243   3.093  1.6053  1.7714 -1.7383
  346MOL0     H46666  -0.463  -0.331   2.860  0.5290  0.2834 -3.1702
  346MOL0     H46667  -0.299  -0.345   2.799  1.8351  0.9306 -0.2137
  346MOL0     H46668  -0.269  -0.110   2.833  0.1435  0.8743 -0.0474
  346MOL0     H46669  -0.431  -0.085   2.902  0.4188  0.8978 -1.0857
  346MOL0     H46670  -0.341  -0.145   2.461 -0.5851 -0.5578  0.9762
  346MOL0     H46671  -0.267   0.046   2.333  0.3841  3.9968 -0.6848
  346MOL0     H46672  -0.355   0.465   2.135  0.3157  1.5389  0.3798
  346MOL0     H46673  -0.257   0.633   1.994  0.9989  0.4639  0.1343
  346MOL0     H46674   0.183   0.599   1.935 -0.3189 -1.5600  0.1636
  346MOL0     H46675   0.043   0.507   1.865  2.4754 -1.6643 -1.3111
  346MOL0     H46676   0.182   0.606   1.692  1.0690  0.1594 -0.7732
  346MOL0     H46677   0.021   0.666   1.688  0.2457  0.0360  0.7824
  346MOL0     H46678   0.098   0.877   1.786  0.5289  0.4858 -1.6337
  346MOL0     H46679   0.256   0.807   1.821  0.1269  0.0383  0.0466
  346MOL0     H46680   0.146   0.855   1.546  1.7715  1.5088 -1.3376
  346MOL0     H46681   0.298   0.772   1.575 -0.3810 -0.7513 -0.1025
  346MOL0     H46682   0.375   0.983   1.682  3.4457 -2.5233 -3.2938
  346MOL0     H46683   0.232   1.069   1.615  2.6055  2.7760 -0.5627
  346MOL0     H46684   0.458   1.049   1.469  0.8057 -0.8166  1.1310
  346MOL0     H46685   0.395   0.885   1.437 -2.4892 -0.8813  0.0321
  346MOL0     H46686   0.287   1.153   1.360 -0.0830 -0.0664 -0.9001
  346MOL0     H46687   0.175   1.005   1.368  0.4372 -2.3597  0.7536
  346MOL0     H46688   0.306   1.039   1.135 -1.2083 -1.8181 -1.1433
  346MOL0     H46689   0.455   0.976   1.224  0.1342  2.5650 -1.5076
  346MOL0     H46690   0.130   0.540   2.164 -0.5867  0.3021 -1.2161
  346MOL0     H46691   0.010   0.377   2.318  0.0437  2.5432  1.4594
  346MOL0     H46692  -0.446   0.307   2.626  1.9842 -1.8890  2.6572
  346MOL0     H46693  -0.489   0.129   2.753  0.7906  2.3880 -0.2311
  346MOL0     H46694   0.433   0.651   2.221 -0.5061 -0.2713 -0.5234
  346MOL0     H46695   0.463   0.818   2.048 -3.3140 -2.1056  1.0902
  346MOL0     H46696   0.831   0.882   1.521 -0.7338 -0.1981 -2.1082
  346MOL0     H46697   0.832   1.104   1.404 -0.9791  1.3597  0.0938
  346MOL0     H46698   0.637   1.243   1.278 -0.5977  0.1092  0.9766
  346MOL0     H46699   0.774   1.355   1.297 -1.4796  3.0046 -0.6033
  346MOL0     H46700   0.598   1.467   1.189  0.2207  0.1974 -0.8271
  346MOL0     H46701   0.600   1.533   1.351  1.8495  0.0040 -0.1545
  346MOL0     H46702   0.418   1.401   1.424 -2.2865 -1.5038  0.7343
  346MOL0     H46703   0.400   1.317   1.279  0.9571  0.9868 -1.8919
  346MOL0     H46704   0.242   1.495   1.326 -0.3068 -4.7700 -1.8472
  346MOL0     H46705   0.374   1.623   1.291 -1.3417  0.9246 -1.1443
  346MOL0     H46706   0.215   1.458   0.937 -2.3609 -1.1629  2.5739
  346MOL0     H46707   0.561   1.266   1.668 -0.2642 -0.7715 -1.8958
  346MOL0     H46708   0.527   0.989   1.907  1.4754 -0.6921  0.7918
  346MOL0     H46709   0.623   1.142   1.940  1.0525  2.1872 -2.0809
  346MOL0     H46710   0.478   1.146   1.855 -0.2533 -0.3959  2.3651
  347MOL0     O46711   1.801   6.591   7.836  0.4259 -0.6373  0.1052
  347MOL0     C46712   1.719   6.511   7.882 -0.2125  0.9894  1.4389
  347MOL0     O46713   1.701   6.384   7.832  0.6355  0.3243  0.4586
  347MOL0     C46714   1.755   6.358   7.703  0.6457 -0.3960 -0.5138
  347MOL0     C46715   1.892   6.389   7.662  0.6158  0.2321 -0.7516
  347MOL0     C46716   1.941   6.364   7.535 -0.8605 -0.2998 -0.3108
  347MOL0     C46717   1.859   6.313   7.437 -0.7718 -0.1954  0.2537
  347MOL0     O46718   1.916   6.284   7.316 -0.2896 -0.5580 -0.7416
  347MOL0     C46719   1.848   6.215   7.206 -0.0951 -0.8219  0.3675
  347MOL0     C46720   1.951   6.217   7.089  0.4251 -0.2407 -0.4856
  347MOL0     C46721   1.892   6.228   6.948  0.0350  0.4980 -0.9345
  347MOL0     C46722   1.988   6.183   6.836 -0.6016  0.1120 -0.2886
  347MOL0     C46723   2.002   6.026   6.832  0.1884  0.0589 -0.2135
  347MOL0     C46724   1.877   5.946   6.837 -0.5274 -0.5355 -0.2197
  347MOL0     C46725   1.920   5.804   6.812  0.0163 -0.4078 -0.2588
  347MOL0     C46726   1.841   5.690   6.861 -0.1815 -0.5944 -0.6706
  347MOL0     N46727   1.848   5.571   6.775 -0.4724 -0.3320 -0.3698
  347MOL0     C46728   1.905   5.453   6.804  0.4489  0.1101  0.6820
  347MOL0     C46729   1.885   5.377   6.695 -0.9642 -0.1671 -0.0076
  347MOL0     C46730   1.940   5.242   6.655  0.3740 -0.0793 -0.0245
  347MOL0     C46731   1.975   5.148   6.769  0.2232  0.4579 -0.0911
  347MOL0     C46732   2.126   5.144   6.795  0.3875  1.1956  1.0800
  347MOL0     C46733   2.202   5.030   6.714  0.8706 -0.6467 -0.5004
  347MOL0     O46734   2.185   5.041   6.579  0.3587 -0.2551  0.8715
  347MOL0     C46735   2.218   4.949   6.486 -0.2326  0.0888  0.4394
  347MOL0     C46736   2.337   4.872   6.501 -0.8755  0.6080 -0.1948
  347MOL0     C46737   2.381   4.774   6.407  0.7696 -0.0705 -0.5032
  347MOL0     C46738   2.299   4.745   6.292 -0.2481 -0.8286 -0.4277
  347MOL0     C46739   2.349   4.644   6.206  0.4131 -0.4339 -0.3662
  347MOL0     O46740   2.467   4.591   6.236  0.1134  0.1305  0.5636
  347MOL0     C46741   2.533   4.515   6.139  0.5793  0.1014 -0.4800
  347MOL0     C46742   2.637   4.565   6.065 -0.9211  0.3639 -0.2976
  347MOL0     C46743   2.690   4.491   5.961  0.5077  0.2619  0.2225
  347MOL0     C46744   2.644   4.363   5.933  0.0477 -0.3877 -0.1102
  347MOL0     O46745   2.723   4.288   5.846 -0.1969 -0.9360 -0.0717
  347MOL0     C46746   2.648   4.192   5.778  0.5968  0.2193  0.4788
  347MOL0     C46747   2.732   4.135   5.652  0.0021 -0.2493  0.4517
  347MOL0     C46748   2.683   4.025   5.568  0.9037  0.1893  0.8835
  347MOL0     C46749   2.535   4.029   5.536 -0.8072  0.4952 -0.4239
  347MOL0     C46750   2.477   3.884   5.530 -0.6307  0.2636 -0.9110
  347MOL0     C46751   2.339   3.866   5.476 -0.4818  0.1283  0.4584
  347MOL0     C46752   2.330   3.903   5.330  0.9395  0.7963  0.4627
  347MOL0     C46753   2.186   3.866   5.287  0.2589 -0.9751  0.1946
  347MOL0    Cl46754   2.160   3.692   5.292 -0.0013 -0.0599 -0.3310
  347MOL0     C46755   2.533   4.310   6.005  0.2443 -0.0495  0.2590
  347MOL0     C46756   2.469   4.394   6.097  0.1186 -0.0398 -0.3200
  347MOL0     O46757   2.275   4.618   6.114  0.7640  0.1408 -0.2756
  347MOL0     C46758   2.183   4.837   6.278  0.0063  0.8471  0.3684
  347MOL0     C46759   2.142   4.937   6.372  0.8018 -0.3412 -0.5238
  347MOL0     N46760   1.823   5.440   6.601  0.4567  0.1392  0.0519
  347MOL0     N46761   1.794   5.559   6.651 -0.2303 -0.4272  0.3341
  347MOL0     C46762   1.723   6.291   7.468 -0.3236 -0.1165 -0.4406
  347MOL0     C46763   1.673   6.313   7.602 -0.0421 -1.2332  0.4888
  347MOL0     C46764   1.679   6.561   8.014  0.5854 -0.0287  0.0780
  347MOL0     C46765   1.762   6.557   8.124 -0.5678  0.0167  1.1481
  347MOL0     C46766   1.730   6.593   8.253  0.9950 -0.2331 -0.5096
  347MOL0     C46767   1.596   6.645   8.272 -0.1743 -0.3375  0.7315
  347MOL0     O46768   1.563   6.715   8.380 -0.1922  0.4249 -0.4641
  347MOL0     C46769   1.606   6.673   8.515  0.4685  0.2851 -1.0561
  347MOL0     C46770   1.660   6.792   8.590 -0.2968 -0.3720 -0.7583
  347MOL0     C46771   1.755   6.885   8.511  0.4361 -1.0915 -0.5115
  347MOL0     C46772   1.788   6.997   8.608  0.3205  0.0664 -0.1699
  347MOL0     C46773   1.845   7.121   8.556  0.5000 -0.3895 -0.8882
  347MOL0     C46774   1.883   7.225   8.503 -0.6148  1.0195  1.2156
  347MOL0     C46775   1.512   6.642   8.161 -0.2711  0.6855 -0.4561
  347MOL0     C46776   1.552   6.612   8.034  0.3226  0.0780  0.2191
  347MOL0     C46777   1.457   6.614   7.912  0.1655 -1.0027  0.1573
  347MOL0     H46778   1.951   6.430   7.743  0.5508 -1.1902  0.0465
  347MOL0     H46779   2.043   6.399   7.525 -1.1958  1.4414  1.6991
  347MOL0     H46780   1.826   6.108   7.211  2.2028 -1.3357  0.8766
  347MOL0     H46781   1.761   6.276   7.183  1.3663  1.5244  0.7040
  347MOL0     H46782   2.009   6.125   7.098  1.5521  0.5953  1.6599
  347MOL0     H46783   2.023   6.299   7.097  2.6933 -2.1613 -0.2210
  347MOL0     H46784   1.890   6.335   6.927 -0.4469  0.4519 -1.1490
  347MOL0     H46785   1.794   6.180   6.959  1.1497 -1.7831 -0.3716
  347MOL0     H46786   1.939   6.215   6.744  0.1965 -1.2991 -1.2465
  347MOL0     H46787   2.083   6.237   6.844 -2.4787  3.8547 -1.0357
  347MOL0     H46788   2.052   6.014   6.735  1.2718  0.9385  0.2257
  347MOL0     H46789   2.064   6.003   6.918  0.5431  1.2815 -0.1302
  347MOL0     H46790   1.831   5.956   6.936 -2.1947 -0.3396 -0.9723
  347MOL0     H46791   1.806   5.982   6.761  0.4390  2.4695  0.1915
  347MOL0     H46792   2.019   5.792   6.859 -0.7620 -0.3476  1.4788
  347MOL0     H46793   1.925   5.795   6.703 -0.9891  2.0931 -0.5739
  347MOL0     H46794   1.882   5.667   6.960 -0.0956 -1.0742 -0.8142
  347MOL0     H46795   1.736   5.720   6.871 -0.9001 -3.3753  1.7488
  347MOL0     H46796   1.966   5.444   6.893  0.3192  0.2903  0.7879
  347MOL0     H46797   1.870   5.197   6.584  1.8021 -0.9015 -0.9559
  347MOL0     H46798   2.029   5.246   6.591 -1.2288  0.9471 -2.3665
  347MOL0     H46799   1.914   5.169   6.857 -0.9920  3.6854 -1.5621
  347MOL0     H46800   1.938   5.046   6.755  1.6313  0.1387 -1.7433
  347MOL0     H46801   2.142   5.114   6.899  2.1313 -4.0195 -0.3881
  347MOL0     H46802   2.184   5.236   6.789  2.5151 -0.1919 -1.5293
  347MOL0     H46803   2.169   4.933   6.754  2.7905 -1.8662 -1.7043
  347MOL0     H46804   2.309   5.038   6.735  0.8448 -3.8613  1.4527
  347MOL0     H46805   2.389   4.885   6.595 -1.5079  1.5222  0.0545
  347MOL0     H46806   2.461   4.703   6.427  0.5316  0.7342  4.4606
  347MOL0     H46807   2.680   4.663   6.084  1.6952 -1.0562  1.9768
  347MOL0     H46808   2.765   4.529   5.892  0.0016 -1.1697 -1.1631
  347MOL0     H46809   2.610   4.121   5.852 -2.1005  3.7541  2.8337
  347MOL0     H46810   2.562   4.236   5.727  1.4239  0.2861 -0.9272
  347MOL0     H46811   2.761   4.219   5.589  3.3064 -0.6252  1.2469
  347MOL0     H46812   2.826   4.096   5.695  1.1237  0.2557 -1.4456
  347MOL0     H46813   2.730   4.037   5.470  0.7219  1.3869  0.9260
  347MOL0     H46814   2.710   3.933   5.620  0.6227 -1.6627 -2.0034
  347MOL0     H46815   2.525   4.071   5.435 -2.3138  1.7523  0.1933
  347MOL0     H46816   2.480   4.095   5.604  3.2025  2.4478  1.1932
  347MOL0     H46817   2.483   3.848   5.632  0.3807 -1.9912 -1.7079
  347MOL0     H46818   2.543   3.819   5.471  0.6943 -0.5145  1.3314
  347MOL0     H46819   2.332   3.756   5.479  2.5134 -0.2059 -0.6396
  347MOL0     H46820   2.259   3.916   5.530 -0.2484 -2.1560  3.1577
  347MOL0     H46821   2.404   3.849   5.270 -1.0684  0.7950 -2.2080
  347MOL0     H46822   2.343   4.011   5.315  0.7881  0.4514 -2.8603
  347MOL0     H46823   2.123   3.922   5.357  2.5404  0.8649  0.9338
  347MOL0     H46824   2.170   3.903   5.185  2.0161  1.4732  0.7023
  347MOL0     H46825   2.497   4.208   5.993  0.5743 -0.6031  3.2575
  347MOL0     H46826   2.375   4.358   6.137 -0.3751  0.3240 -1.1326
  347MOL0     H46827   2.106   4.811   6.205 -0.3049  0.1358  0.9375
  347MOL0     H46828   2.053   4.996   6.354  2.9947  2.8310 -1.7844
  347MOL0     H46829   1.664   6.241   7.393  0.8647 -1.3609 -0.5710
  347MOL0     H46830   1.570   6.291   7.629 -0.1791 -0.7860  0.3315
  347MOL0     H46831   1.867   6.532   8.122 -0.1051  1.8105 -1.1081
  347MOL0     H46832   1.785   6.612   8.345  0.4622 -1.5215  0.0893
  347MOL0     H46833   1.685   6.597   8.511  0.5112  0.3882 -2.4812
  347MOL0     H46834   1.519   6.628   8.564  2.4428 -1.1557  1.3589
  347MOL0     H46835   1.719   6.745   8.669  0.6296  2.6256  0.4767
  347MOL0     H46836   1.582   6.850   8.639  0.6141  0.2921 -0.0499
  347MOL0     H46837   1.703   6.921   8.422 -1.4569 -0.0330  0.9445
  347MOL0     H46838   1.855   6.848   8.486  1.2602  1.7796 -1.8778
  347MOL0     H46839   1.700   7.020   8.669 -1.8028 -3.4764 -1.5530
  347MOL0     H46840   1.864   6.957   8.675  0.0203  0.0549  0.1660
  347MOL0     H46841   1.912   7.307   8.440 -2.0774  0.5642 -0.0853
  347MOL0     H46842   1.406   6.665   8.172 -0.2820  1.3198 -1.7362
  347MOL0     H46843   1.358   6.653   7.938  1.1846 -0.4197  3.6778
  347MOL0     H46844   1.512   6.676   7.840 -2.3710 -0.7216 -1.6692
  347MOL0     H46845   1.436   6.516   7.868 -1.7157  0.8166 -3.4886
  348MOL0     O46846   2.964   9.976   6.644 -0.4763  0.1009  0.0659
  348MOL0     C46847   2.949   9.944   6.528  0.3909  0.1260  0.8725
  348MOL0     O46848   3.038   9.900   6.428  0.6872 -0.5269 -1.2961
  348MOL0     C46849   3.176   9.905   6.447 -1.0716 -0.0302  0.0415
  348MOL0     C46850   3.245  10.005   6.527 -0.1610 -0.5253 -0.0128
  348MOL0     C46851   3.390   9.997   6.528  0.0316 -0.2288 -0.1059
  348MOL0     C46852   3.455   9.900   6.447 -0.1184  0.0137  0.3394
  348MOL0     O46853   3.596   9.910   6.446  0.4618  0.9148 -0.1765
  348MOL0     C46854   3.673   9.794   6.472 -0.3195 -0.3614  0.2501
  348MOL0     C46855   3.665   9.769   6.624 -0.7218 -0.0623 -0.1603
  348MOL0     C46856   3.748   9.866   6.717  0.6632 -0.5549  0.4290
  348MOL0     C46857   3.745   9.834   6.870 -0.8914  0.6258 -0.7049
  348MOL0     C46858   3.607   9.778   6.923 -0.2874  0.1069  0.3568
  348MOL0     C46859   3.502   9.890   6.943  0.1961  0.7818 -0.6776
  348MOL0     C46860   3.363   9.842   6.983  0.1189  0.3381 -0.1557
  348MOL0     C46861   3.283   9.775   6.863 -0.0728  0.2249 -0.3430
  348MOL0     N46862   3.168   9.705   6.916 -0.0468 -0.2470  1.1461
  348MOL0     C46863   3.037   9.767   6.920 -0.3206  0.5009  0.1115
  348MOL0     C46864   2.956   9.671   6.975  0.0521 -0.2973 -0.0514
  348MOL0     C46865   2.810   9.674   7.019 -0.0251 -0.8737  0.0011
  348MOL0     C46866   2.738   9.722   6.883  0.1711  0.1163  0.0480
  348MOL0     C46867   2.588   9.733   6.896 -0.4258 -0.2397 -0.0631
  348MOL0     C46868   2.535   9.848   6.988  0.5817 -0.1746 -0.3006
  348MOL0     O46869   2.576   9.970   6.937 -0.1550  0.1949  0.8404
  348MOL0     C46870   2.492  10.075   6.971 -0.3286 -0.0926  0.0214
  348MOL0     C46871   2.466  10.180   6.883  0.1312 -0.3075 -0.3981
  348MOL0     C46872   2.372  10.283   6.907  0.3206 -0.3834 -0.3029
  348MOL0     C46873   2.307  10.289   7.031 -0.4128 -0.6256 -0.6435
  348MOL0     C46874   2.232  10.411   7.067  0.0977  0.4038  0.0700
  348MOL0     O46875   2.230  10.453   7.200  0.2448  0.2407 -0.8074
  348MOL0     C46876   2.148  10.556   7.236 -0.1990  0.9563 -0.9797
  348MOL0     C46877   2.008  10.543   7.216  0.8453  0.2393  0.1973
  348MOL0     C46878   1.917  10.637   7.269  0.0978  0.0247 -0.2665
  348MOL0     C46879   1.960  10.736   7.355  0.4052  0.3190  0.2785
  348MOL0     O46880   1.867  10.819   7.416 -1.1102  0.3010 -0.2648
  348MOL0     C46881   1.903  10.945   7.472  0.5058 -0.2279 -0.4286
  348MOL0     C46882   1.787  11.034   7.452  0.0005  1.1568 -0.5283
  348MOL0     C46883   1.802  11.169   7.533  0.4582  0.2353  0.3814
  348MOL0     C46884   1.682  11.258   7.529 -0.7996 -0.2828 -0.1665
  348MOL0     C46885   1.656  11.324   7.392 -0.3806 -0.9970  0.6976
  348MOL0     C46886   1.569  11.454   7.395  0.3498 -0.4169  0.0226
  348MOL0     C46887   1.513  11.490   7.262  0.3228 -0.5672  0.9873
  348MOL0     C46888   1.436  11.371   7.196 -0.7106  0.7382 -0.1932
  348MOL0    Cl46889   1.316  11.427   7.079 -0.3380 -0.5894 -0.1053
  348MOL0     C46890   2.098  10.759   7.375 -0.4829  1.1970 -0.2437
  348MOL0     C46891   2.184  10.674   7.303 -0.0955  1.0231 -0.6386
  348MOL0     O46892   2.166  10.464   6.969  0.4938  0.8049  0.0798
  348MOL0     C46893   2.314  10.175   7.111 -0.8621 -0.4090  0.9365
  348MOL0     C46894   2.412  10.072   7.091  0.4425 -0.4710  0.0801
  348MOL0     N46895   3.043   9.553   6.996  0.2350  0.1247 -0.5446
  348MOL0     N46896   3.168   9.578   6.971  0.1701  0.1638  0.1525
  348MOL0     C46897   3.380   9.802   6.379 -0.7133 -0.9814 -0.6704
  348MOL0     C46898   3.241   9.801   6.385 -0.1023  1.2180  0.0880
  348MOL0     C46899   2.808   9.954   6.494  0.6969 -0.3021  0.1282
  348MOL0     C46900   2.729  10.062   6.550 -1.1719  0.4614 -0.7042
  348MOL0     C46901   2.598  10.094   6.516  0.4235  0.8733 -0.5428
  348MOL0     C46902   2.529  10.016   6.422 -0.2306 -0.4572 -0.2167
  348MOL0     O46903   2.396  10.031   6.423  0.2481  0.4000  0.6376
  348MOL0     C46904   2.301   9.927   6.416 -0.3317  0.4239  0.2121
  348MOL0     C46905   2.313   9.823   6.528 -0.0339 -0.8179 -0.4361
  348MOL0     C46906   2.279   9.882   6.670 -0.3433 -0.7807  0.3257
  348MOL0     C46907   2.131   9.882   6.696  0.1526 -1.1255 -0.6064
  348MOL0     C46908   2.092   9.803   6.812 -0.4410 -0.4638  0.0595
  348MOL0     C46909   2.046   9.719   6.892  0.1832 -0.4337  0.1177
  348MOL0     C46910   2.600   9.908   6.364  0.1241  0.6009 -0.8252
  348MOL0     C46911   2.733   9.869   6.407  0.0607 -0.2454 -0.3839
  348MOL0     C46912   2.789   9.734   6.378 -0.3134  0.7480 -0.1335
  348MOL0     H46913   3.195  10.086   6.578  2.0246  2.5349 -2.2977
  348MOL0     H46914   3.430  10.070   6.598 -2.7787  3.9121 -2.3803
  348MOL0     H46915   3.638   9.705   6.419  2.6312 -0.8417 -1.0777
  348MOL0     H46916   3.777   9.800   6.441  0.1331 -2.5969  1.1540
  348MOL0     H46917   3.709   9.672   6.651  0.1505  0.4337  0.2565
  348MOL0     H46918   3.560   9.781   6.652 -0.8747  0.2290 -0.8477
  348MOL0     H46919   3.708   9.967   6.703 -0.0859 -0.6849  1.5086
  348MOL0     H46920   3.853   9.856   6.689  1.0336  1.5420  0.9141
  348MOL0     H46921   3.807   9.746   6.892 -2.6192  0.1391  3.0608
  348MOL0     H46922   3.786   9.921   6.922  1.0744  2.4801 -4.8983
  348MOL0     H46923   3.577   9.699   6.854  2.6781 -1.1956  0.3968
  348MOL0     H46924   3.631   9.748   7.026  0.6395 -1.0118 -0.1678
  348MOL0     H46925   3.552   9.937   7.027 -1.4631 -0.4236  1.0823
  348MOL0     H46926   3.488   9.948   6.852 -5.0878  3.4663  1.4565
  348MOL0     H46927   3.306   9.924   7.028  0.6834  0.4450  0.3876
  348MOL0     H46928   3.381   9.762   7.054  0.6468 -0.4761 -1.1751
  348MOL0     H46929   3.242   9.855   6.801 -0.6932  1.1908  1.2375
  348MOL0     H46930   3.344   9.710   6.799 -0.2933  0.4877 -0.8250
  348MOL0     H46931   3.033   9.875   6.908  2.5373  0.7528  0.6126
  348MOL0     H46932   2.794   9.567   7.038 -0.8174 -0.9262 -0.8752
  348MOL0     H46933   2.779   9.736   7.103 -0.1208  0.5587 -1.0627
  348MOL0     H46934   2.777   9.821   6.859 -1.8421  1.4702  1.8965
  348MOL0     H46935   2.769   9.651   6.806  1.6615  3.0386 -2.2539
  348MOL0     H46936   2.557   9.635   6.933  1.2718 -0.8506 -0.1573
  348MOL0     H46937   2.541   9.746   6.798 -3.4250 -1.7062  1.0714
  348MOL0     H46938   2.571   9.839   7.091  1.0488 -0.8952 -0.5193
  348MOL0     H46939   2.429   9.822   6.992  0.7732 -0.9848 -0.3181
  348MOL0     H46940   2.526  10.184   6.793  1.9159 -0.8745  0.7234
  348MOL0     H46941   2.369  10.371   6.843  0.7285 -1.6084 -2.0997
  348MOL0     H46942   1.965  10.449   7.183  1.6172  0.3137 -1.0459
  348MOL0     H46943   1.812  10.630   7.244  0.1534  0.5854 -0.6540
  348MOL0     H46944   1.930  10.939   7.578 -1.2319  0.9073  0.1309
  348MOL0     H46945   1.980  10.989   7.409 -1.4422  1.1763 -1.9406
  348MOL0     H46946   1.754  11.038   7.348 -0.7919  1.0272 -0.2945
  348MOL0     H46947   1.707  10.977   7.500  1.4069  0.8654  1.6077
  348MOL0     H46948   1.805  11.143   7.639 -2.2401 -1.5689  0.1401
  348MOL0     H46949   1.886  11.223   7.490  1.9196 -2.5637 -0.5134
  348MOL0     H46950   1.692  11.330   7.611  2.2867 -0.8766  0.1020
  348MOL0     H46951   1.607  11.189   7.567  2.2519 -3.6046  0.3797
  348MOL0     H46952   1.611  11.252   7.323 -1.0047  1.2223 -1.3526
  348MOL0     H46953   1.748  11.367   7.352 -2.8436  1.6112 -2.7785
  348MOL0     H46954   1.490  11.419   7.461  0.6973 -2.8653 -0.7397
  348MOL0     H46955   1.609  11.543   7.444 -1.4764  0.0600  0.6793
  348MOL0     H46956   1.592  11.528   7.196 -0.4007 -0.7084  0.0097
  348MOL0     H46957   1.441  11.570   7.283  0.4936 -0.1990  0.2165
  348MOL0     H46958   1.501  11.298   7.147 -1.1460  0.9128 -1.0714
  348MOL0     H46959   1.392  11.324   7.284  2.3068 -1.2175  0.4187
  348MOL0     H46960   2.133  10.843   7.435 -2.9540  1.5976  0.7390
  348MOL0     H46961   2.290  10.677   7.324 -0.4888 -0.8075  2.0815
  348MOL0     H46962   2.250  10.188   7.198  1.0834  1.3240  2.1781
  348MOL0     H46963   2.423  10.002   7.173  0.4869 -0.0276  0.4519
  348MOL0     H46964   3.432   9.718   6.334 -1.2893 -3.5791  2.9722
  348MOL0     H46965   3.182   9.723   6.337  1.6758  1.1308 -2.1527
  348MOL0     H46966   2.791  10.125   6.613  1.8244 -0.4953 -2.4902
  348MOL0     H46967   2.545  10.183   6.546 -1.4804  0.0985 -1.4221
  348MOL0     H46968   2.301   9.879   6.318  1.3516 -0.6668  0.7132
  348MOL0     H46969   2.207   9.983   6.426 -0.2878  1.1334 -2.4976
  348MOL0     H46970   2.412   9.778   6.521 -0.3732 -1.5112 -0.8968
  348MOL0     H46971   2.248   9.736   6.514  0.6291 -0.9398 -3.5884
  348MOL0     H46972   2.318   9.983   6.683  1.3438 -1.3701  0.0802
  348MOL0     H46973   2.311   9.808   6.744 -4.5820 -2.4426  0.7705
  348MOL0     H46974   2.112   9.987   6.719  0.8549 -0.4243 -2.9931
  348MOL0     H46975   2.078   9.855   6.604 -3.3593  3.2017 -0.1521
  348MOL0     H46976   2.022   9.640   6.961  0.7824  0.7604  1.7609
  348MOL0     H46977   2.547   9.844   6.294 -2.0389 -0.8035  1.9041
  348MOL0     H46978   2.863   9.746   6.298 -0.2821  0.0390 -0.2185
  348MOL0     H46979   2.831   9.695   6.471 -0.8732 -1.6032 -0.7871
  348MOL0     H46980   2.722   9.653   6.346  1.1719 -0.5113 -0.1830
  349MOL0     O46981   3.650   2.563  10.821  0.2072 -0.0427  0.4643
  349MOL0     C46982   3.762   2.545  10.855 -0.2739 -0.1343 -0.3640
  349MOL0     O46983   3.816   2.431  10.899 -0.2890 -0.4314 -0.2267
  349MOL0     C46984   3.736   2.339  10.965 -1.0181  0.0236 -0.3501
  349MOL0     C46985   3.721   2.375  11.104 -0.5596  1.1034 -0.4898
  349MOL0     C46986   3.652   2.297  11.194  0.7196 -0.1644  0.0335
  349MOL0     C46987   3.581   2.179  11.142 -0.4094 -0.0105  0.4943
  349MOL0     O46988   3.518   2.085  11.217  0.3062  0.2332  0.4465
  349MOL0     C46989   3.444   2.136  11.330 -0.1548  0.3584 -0.4853
  349MOL0     C46990   3.538   2.120  11.456 -0.3606  0.2734  0.1361
  349MOL0     C46991   3.490   2.186  11.581 -0.5394 -0.4599  0.0111
  349MOL0     C46992   3.349   2.151  11.615 -0.0663  0.2077  1.0800
  349MOL0     C46993   3.317   2.217  11.753  0.1048  0.5896  0.2492
  349MOL0     C46994   3.175   2.194  11.781  0.0047  0.8275  0.2090
  349MOL0     C46995   3.151   2.250  11.922 -0.2737  0.1970 -0.2053
  349MOL0     C46996   2.992   2.262  11.950  0.0668  0.1774 -0.3909
  349MOL0     N46997   2.961   2.334  12.077 -0.5114 -0.5746  0.3232
  349MOL0     C46998   2.847   2.386  12.126  0.2145 -0.0326 -0.5792
  349MOL0     C46999   2.874   2.406  12.255  0.7768  0.0432 -0.7496
  349MOL0     C47000   2.782   2.482  12.346 -0.1615  0.1894 -0.3517
  349MOL0     C47001   2.646   2.424  12.373  0.3315  1.1732 -0.7634
  349MOL0     C47002   2.578   2.476  12.509 -0.4882  1.2989  0.0643
  349MOL0     C47003   2.543   2.619  12.491  0.3058  0.3653  0.4883
  349MOL0     O47004   2.652   2.713  12.474 -0.4193  0.8883  0.3721
  349MOL0     C47005   2.626   2.844  12.451 -0.5175  0.2661  0.0100
  349MOL0     C47006   2.726   2.919  12.399  0.2513 -0.2315 -0.3161
  349MOL0     C47007   2.706   3.052  12.387 -1.0332  0.0856  0.3296
  349MOL0     C47008   2.598   3.119  12.439  0.1320 -0.1250  0.2430
  349MOL0     C47009   2.589   3.264  12.442  0.3783  0.4756  0.7317
  349MOL0     O47010   2.481   3.335  12.496 -1.1336  0.2773  0.2599
  349MOL0     C47011   2.495   3.466  12.525 -0.1946  1.5311  0.3215
  349MOL0     C47012   2.439   3.567  12.433 -0.4203  1.1494 -0.1706
  349MOL0     C47013   2.445   3.699  12.470  0.0715  0.6866 -1.2661
  349MOL0     C47014   2.528   3.737  12.568 -0.0407 -0.6475 -0.6962
  349MOL0     O47015   2.546   3.869  12.593  0.4863  0.2900  0.2562
  349MOL0     C47016   2.673   3.917  12.624  0.1714  0.8196  0.4177
  349MOL0     C47017   2.686   4.062  12.574 -0.1627  0.2714 -0.9076
  349MOL0     C47018   2.831   4.110  12.547 -0.3653  0.5407 -0.7537
  349MOL0     C47019   2.825   4.271  12.532  0.8493  0.0397 -0.0485
  349MOL0     C47020   2.953   4.334  12.483  0.0484  0.0047 -0.1943
  349MOL0     C47021   3.062   4.332  12.595 -0.7234  0.3873  0.5672
  349MOL0     C47022   3.186   4.407  12.557 -0.0591 -0.3883  0.0598
  349MOL0     C47023   3.285   4.423  12.672 -0.7350  0.7808  0.7736
  349MOL0    Cl47024   3.407   4.536  12.626  0.3374  0.0428  0.3649
  349MOL0     C47025   2.589   3.648  12.646 -0.2078  1.0059 -0.1213
  349MOL0     C47026   2.577   3.514  12.628  0.6074  0.6321 -0.2261
  349MOL0     O47027   2.689   3.318  12.392 -0.4538 -0.0974  0.1645
  349MOL0     C47028   2.486   3.047  12.480  0.7506  0.0741  0.5987
  349MOL0     C47029   2.505   2.907  12.494 -0.5958 -0.4583 -0.7394
  349MOL0     N47030   3.004   2.383  12.288  0.2079  0.4897 -0.6069
  349MOL0     N47031   3.056   2.336  12.179  0.0596  0.5720 -0.0282
  349MOL0     C47032   3.600   2.146  11.000  0.4355  0.9042 -0.0036
  349MOL0     C47033   3.668   2.234  10.911  0.4658  0.4505  0.4721
  349MOL0     C47034   3.845   2.673  10.845 -0.3318  0.1453  0.5776
  349MOL0     C47035   3.820   2.761  10.734 -0.3304 -0.2248 -0.3247
  349MOL0     C47036   3.888   2.879  10.713  0.0073 -0.2699 -1.0417
  349MOL0     C47037   3.983   2.930  10.800  0.7388 -0.3300  0.0186
  349MOL0     O47038   4.054   3.044  10.783  0.2656  0.5123  0.4162
  349MOL0     C47039   4.136   3.039  10.670 -0.5706 -0.0184 -0.9095
  349MOL0     C47040   4.252   3.142  10.667 -0.3578  0.5137 -0.7788
  349MOL0     C47041   4.329   3.153  10.530  0.3333 -0.3497  0.0648
  349MOL0     C47042   4.451   3.247  10.551  1.0921  0.5247  0.3790
  349MOL0     C47043   4.539   3.226  10.445  0.3208 -0.5438  0.9622
  349MOL0     C47044   4.611   3.215  10.347 -1.3159  0.1616  0.4608
  349MOL0     C47045   3.997   2.858  10.919  0.0594  0.3109 -0.9854
  349MOL0     C47046   3.933   2.730  10.946  0.5634 -0.3703 -0.4624
  349MOL0     C47047   3.984   2.646  11.065  0.1527 -0.0074  0.8372
  349MOL0     H47048   3.777   2.459  11.144  0.2797  0.8341 -1.0737
  349MOL0     H47049   3.650   2.315  11.301 -1.0158 -2.4973  0.4730
  349MOL0     H47050   3.417   2.242  11.325  0.0122  0.4526  0.4288
  349MOL0     H47051   3.358   2.069  11.341 -3.2381  3.8675 -1.0317
  349MOL0     H47052   3.641   2.150  11.435 -0.6748  1.1980 -0.1600
  349MOL0     H47053   3.547   2.012  11.464  3.7027  0.5684  2.7427
  349MOL0     H47054   3.502   2.295  11.585  1.4554 -0.6698  0.8526
  349MOL0     H47055   3.564   2.156  11.656 -0.7580  0.9963  0.8497
  349MOL0     H47056   3.282   2.195  11.541 -0.6169 -1.2061  0.6983
  349MOL0     H47057   3.343   2.042  11.605  1.2272  0.0632  1.5967
  349MOL0     H47058   3.373   2.159  11.828  1.7257  0.4278 -1.0177
  349MOL0     H47059   3.341   2.323  11.753 -2.5968  1.2578  1.5229
  349MOL0     H47060   3.101   2.235  11.712  0.1939  1.9803  0.6683
  349MOL0     H47061   3.164   2.086  11.769  2.0034  0.5228  0.7656
  349MOL0     H47062   3.196   2.350  11.929  2.2246 -0.9463  5.0625
  349MOL0     H47063   3.199   2.189  11.999 -0.0278  0.9715  0.2614
  349MOL0     H47064   2.941   2.321  11.873 -2.1528 -0.3461  0.5879
  349MOL0     H47065   2.950   2.162  11.965  2.8053 -0.6825  2.8260
  349MOL0     H47066   2.745   2.398  12.092 -0.1345 -0.2391  0.3512
  349MOL0     H47067   2.835   2.495  12.441 -0.3119  0.0022 -0.2410
  349MOL0     H47068   2.769   2.581  12.303  0.7863  0.1569 -0.7169
  349MOL0     H47069   2.588   2.448  12.283  0.3321 -2.9782 -2.0781
  349MOL0     H47070   2.656   2.316  12.382 -3.4857  0.6929 -0.5252
  349MOL0     H47071   2.652   2.469  12.590  1.9259  1.4982 -2.0239
  349MOL0     H47072   2.493   2.412  12.537  0.0109  2.4271  5.3343
  349MOL0     H47073   2.494   2.641  12.587  0.2331  0.1952  0.4906
  349MOL0     H47074   2.467   2.625  12.413 -1.8152 -1.4988  2.2701
  349MOL0     H47075   2.817   2.872  12.362  1.4212  0.7095  1.2602
  349MOL0     H47076   2.777   3.111  12.330  1.5115 -2.2042  0.9006
  349MOL0     H47077   2.385   3.555  12.339 -2.0156 -0.4376  0.8858
  349MOL0     H47078   2.408   3.770  12.396  0.1424  0.2556 -1.7206
  349MOL0     H47079   2.689   3.904  12.731 -1.0924 -3.9631  0.2373
  349MOL0     H47080   2.746   3.850  12.577 -0.0517 -0.2712  1.5742
  349MOL0     H47081   2.633   4.088  12.482  0.0658  4.6165 -0.0298
  349MOL0     H47082   2.645   4.120  12.657 -1.6361 -2.2739  0.2241
  349MOL0     H47083   2.877   4.095  12.645 -0.1104  1.8036 -0.6633
  349MOL0     H47084   2.893   4.058  12.474 -0.3608 -1.4965  0.6301
  349MOL0     H47085   2.782   4.317  12.622  0.8081  1.6664 -0.8594
  349MOL0     H47086   2.756   4.292  12.450  2.3277 -1.5917 -1.7875
  349MOL0     H47087   2.930   4.435  12.450  0.6027 -0.1508 -1.0914
  349MOL0     H47088   2.992   4.288  12.392  1.3340  1.3763 -0.3684
  349MOL0     H47089   3.007   4.373  12.680 -3.6279 -0.2009 -0.8982
  349MOL0     H47090   3.092   4.231  12.623 -0.0288  0.5502  0.4194
  349MOL0     H47091   3.156   4.512  12.543 -3.1162 -1.4855 -3.1786
  349MOL0     H47092   3.223   4.375  12.459 -2.3658 -0.0425 -1.0119
  349MOL0     H47093   3.218   4.446  12.755 -3.0432  0.3782 -0.8762
  349MOL0     H47094   3.329   4.325  12.692 -1.5364  0.2388 -0.0049
  349MOL0     H47095   2.659   3.682  12.721  0.8175  0.1986 -0.6943
  349MOL0     H47096   2.609   3.441  12.701 -4.2952 -2.3757 -0.6498
  349MOL0     H47097   2.388   3.088  12.503  0.2610  1.0702 -2.6970
  349MOL0     H47098   2.420   2.850  12.529 -0.0038 -2.1494 -1.9088
  349MOL0     H47099   3.558   2.051  10.968 -0.1228  0.9444  0.5940
  349MOL0     H47100   3.688   2.215  10.806 -0.8838 -3.6246  0.7576
  349MOL0     H47101   3.763   2.718  10.652  0.6400 -1.5747 -0.3391
  349MOL0     H47102   3.859   2.939  10.627 -2.2804 -1.2891 -1.0689
  349MOL0     H47103   4.062   3.075  10.598 -2.0958  0.3014  0.7556
  349MOL0     H47104   4.168   2.940  10.636 -1.8111 -0.0575 -2.0699
  349MOL0     H47105   4.321   3.090  10.734 -1.3604  0.0969 -0.0384
  349MOL0     H47106   4.223   3.238  10.709 -1.3018 -0.4256  0.8394
  349MOL0     H47107   4.268   3.199  10.452  0.3238 -0.2237  0.1475
  349MOL0     H47108   4.373   3.064  10.483 -1.0470  1.5517 -5.6416
  349MOL0     H47109   4.413   3.350  10.548  0.6204  0.3825  1.0154
  349MOL0     H47110   4.517   3.226  10.636  0.1170 -1.3505  0.7252
  349MOL0     H47111   4.687   3.216  10.273 -0.7547  0.6751  1.0332
  349MOL0     H47112   4.071   2.885  10.994 -2.1574  0.7103  1.1578
  349MOL0     H47113   3.900   2.631  11.133 -0.4432 -1.6317 -0.2154
  349MOL0     H47114   4.008   2.545  11.032  2.2215  0.5204  0.6096
  349MOL0     H47115   4.064   2.698  11.119 -0.2178  2.4724 -0.8282
  350MOL0     O47116   2.084  10.558  11.278 -0.4017  1.3059 -0.7478
  350MOL0     C47117   2.116  10.643  11.356  0.6513  0.5167 -0.8226
  350MOL0     O47118   2.062  10.773  11.342 -0.2663  0.0074  0.5299
  350MOL0     C47119   2.006  10.813  11.226  0.3293  0.0139  0.8251
  350MOL0     C47120   2.075  10.907  11.155 -0.5756 -0.5706  0.1310
  350MOL0     C47121   2.004  10.962  11.045 -0.4945 -0.3895 -0.7623
  350MOL0     C47122   1.882  10.920  11.004 -0.2143 -0.2573 -0.1198
  350MOL0     O47123   1.839  10.980  10.886  0.1676 -0.3267 -0.4170
  350MOL0     C47124   1.741  10.909  10.801  0.1776 -0.3960  0.1393
  350MOL0     C47125   1.783  10.963  10.661  0.2156 -0.7712  0.1506
  350MOL0     C47126   1.802  11.123  10.654  0.2209  0.1887 -0.8033
  350MOL0     C47127   1.837  11.159  10.508 -0.3914 -0.2011  0.5866
  350MOL0     C47128   1.890  11.307  10.513 -0.8283  0.1368 -0.2056
  350MOL0     C47129   1.787  11.420  10.546 -0.1283 -0.9555  0.6835
  350MOL0     C47130   1.658  11.408  10.458  0.4692  0.1509 -0.9843
  350MOL0     C47131   1.692  11.460  10.316  0.1422 -0.4843  0.8422
  350MOL0     N47132   1.588  11.545  10.260  0.1755  0.1557 -0.1128
  350MOL0     C47133   1.599  11.679  10.235  0.3405 -0.6743  0.8884
  350MOL0     C47134   1.478  11.711  10.191 -0.3263  0.4193  0.0662
  350MOL0     C47135   1.443  11.849  10.149  0.3007  0.3475  0.2459
  350MOL0     C47136   1.403  11.854  10.004  0.6078 -0.3891  0.6965
  350MOL0     C47137   1.354  12.000   9.974  0.0301  0.1178  0.2479
  350MOL0     C47138   1.262  12.013   9.856 -0.6832 -0.9821  0.6396
  350MOL0     O47139   1.329  12.091   9.752 -0.5367 -0.6498  0.3966
  350MOL0     C47140   1.347  12.226   9.766 -0.7721 -0.4363  0.2976
  350MOL0     C47141   1.260  12.316   9.830  1.0403  0.1051  0.0956
  350MOL0     C47142   1.273  12.460   9.835  0.3349  0.5555 -0.1840
  350MOL0     C47143   1.384  12.512   9.767  0.1136 -0.2507  0.0710
  350MOL0     C47144   1.416  12.658   9.784  0.8432  0.3734 -0.9832
  350MOL0     O47145   1.543  12.693   9.733  0.3030 -0.6467 -0.6240
  350MOL0     C47146   1.566  12.833   9.735 -0.0302 -0.5056  0.2281
  350MOL0     C47147   1.485  12.933   9.675  0.2979  0.2559 -1.4438
  350MOL0     C47148   1.517  13.071   9.674  0.6276 -0.2336  1.4164
  350MOL0     C47149   1.647  13.112   9.709  0.0040 -0.3478 -0.3236
  350MOL0     O47150   1.688  13.240   9.681  0.2275 -0.2756 -1.1492
  350MOL0     C47151   1.754  13.312   9.791  0.4790  0.3202 -0.6115
  350MOL0     C47152   1.809  13.459   9.760  0.0661 -0.5874  1.2819
  350MOL0     C47153   1.701  13.551   9.707  0.1603  0.3261 -0.7190
  350MOL0     C47154   1.596  13.584   9.811 -0.4367 -0.2220  0.0626
  350MOL0     C47155   1.490  13.674   9.760  0.3843  0.3066  0.5174
  350MOL0     C47156   1.380  13.701   9.862  0.6289 -0.1807  0.7546
  350MOL0     C47157   1.306  13.836   9.840 -0.2773  0.2257  0.7907
  350MOL0     C47158   1.185  13.856   9.926 -1.0108 -0.7718  0.5009
  350MOL0    Cl47159   1.056  13.731   9.900  0.4359 -0.1547  0.1895
  350MOL0     C47160   1.736  13.009   9.762  0.5149 -0.0445  0.6800
  350MOL0     C47161   1.694  12.876   9.775 -0.3115 -1.0422 -0.3446
  350MOL0     O47162   1.332  12.732   9.839  0.1119 -0.4118 -0.2799
  350MOL0     C47163   1.470  12.433   9.694  0.7668  0.9287 -0.1010
  350MOL0     C47164   1.452  12.291   9.697 -1.0300 -0.3479 -0.0020
  350MOL0     N47165   1.393  11.597  10.198  0.1353  0.0295 -0.1614
  350MOL0     N47166   1.461  11.499  10.235  0.1375 -0.3854  0.4418
  350MOL0     C47167   1.810  10.824  11.069  0.4248  0.7777 -0.6764
  350MOL0     C47168   1.874  10.777  11.188 -0.3195  1.2579 -0.1014
  350MOL0     C47169   2.179  10.611  11.488  0.0631  0.7011 -0.0529
  350MOL0     C47170   2.192  10.716  11.585 -0.5011  0.2416  1.5021
  350MOL0     C47171   2.271  10.705  11.697 -0.1968 -0.1129 -0.6072
  350MOL0     C47172   2.328  10.579  11.727  1.5649 -0.3836 -0.1312
  350MOL0     O47173   2.395  10.558  11.844  0.1125 -0.7867  1.0047
  350MOL0     C47174   2.308  10.544  11.952 -0.6239  0.6777  0.6836
  350MOL0     C47175   2.235  10.410  11.962  0.7647  0.7480  0.3749
  350MOL0     C47176   2.195  10.381  12.104 -1.0462 -0.1681 -0.2185
  350MOL0     C47177   2.066  10.298  12.107 -0.2634 -0.1002  0.4486
  350MOL0     C47178   2.006  10.305  12.241  0.4623  0.1973  0.4381
  350MOL0     C47179   1.968  10.336  12.356 -0.1931 -0.7223 -0.2944
  350MOL0     C47180   2.302  10.470  11.647 -0.7251 -1.0720 -1.2004
  350MOL0     C47181   2.230  10.487  11.530 -0.2792 -0.9248 -0.3566
  350MOL0     C47182   2.198  10.366  11.440 -0.6537 -0.5716  0.1404
  350MOL0     H47183   2.170  10.933  11.201 -2.2387 -0.3332  3.8219
  350MOL0     H47184   2.051  11.032  10.976  0.3743 -0.0079  0.1960
  350MOL0     H47185   1.743  10.800  10.805 -1.0482 -0.4680 -0.6206
  350MOL0     H47186   1.639  10.944  10.823 -0.7693 -2.7627 -0.2477
  350MOL0     H47187   1.709  10.930  10.587  1.2746 -1.1484 -0.7627
  350MOL0     H47188   1.880  10.918  10.640  0.5731 -0.9084  1.9705
  350MOL0     H47189   1.880  11.158  10.722  2.0421 -1.5930 -1.8613
  350MOL0     H47190   1.708  11.176  10.674  1.5461  2.2105  0.5037
  350MOL0     H47191   1.921  11.090  10.493  0.8329  1.1381  1.0862
  350MOL0     H47192   1.757  11.139  10.436  1.3804 -2.9026 -0.8147
  350MOL0     H47193   1.975  11.316  10.581 -1.5319 -1.6129  0.9935
  350MOL0     H47194   1.932  11.341  10.418 -0.8077  1.7542  0.3556
  350MOL0     H47195   1.764  11.427  10.653 -0.9644  0.3986  0.4408
  350MOL0     H47196   1.837  11.514  10.521  0.8088 -1.8045 -0.7833
  350MOL0     H47197   1.588  11.480  10.501  1.1529 -0.5849  1.5458
  350MOL0     H47198   1.613  11.309  10.459  2.0912 -0.6503 -2.3758
  350MOL0     H47199   1.789  11.511  10.318 -0.2879  0.3631  2.6103
  350MOL0     H47200   1.700  11.376  10.246 -0.9258 -0.9272  1.2294
  350MOL0     H47201   1.693  11.734  10.231  0.9967 -1.8709 -1.4413
  350MOL0     H47202   1.358  11.876  10.212 -0.0079 -4.5978  2.4109
  350MOL0     H47203   1.531  11.912  10.169  0.6372  0.1112 -0.4528
  350MOL0     H47204   1.492  11.822   9.950  1.3155 -2.2261  2.8063
  350MOL0     H47205   1.328  11.778   9.982 -0.5114  1.0406 -0.7136
  350MOL0     H47206   1.443  12.062   9.966 -0.1508  0.4185  0.5315
  350MOL0     H47207   1.307  12.047  10.061 -0.9878 -2.0385  0.9457
  350MOL0     H47208   1.167  12.058   9.886  0.0369  1.0331 -0.0050
  350MOL0     H47209   1.244  11.917   9.806  2.8770 -0.8284 -1.2777
  350MOL0     H47210   1.165  12.293   9.877 -0.6067  4.0861 -0.8421
  350MOL0     H47211   1.209  12.516   9.902 -0.0921  0.2563 -0.3377
  350MOL0     H47212   1.385  12.898   9.649 -0.5543 -0.0849  1.7986
  350MOL0     H47213   1.453  13.156   9.654  1.9314  0.1858 -1.4123
  350MOL0     H47214   1.686  13.325   9.875  0.6013  1.1402 -0.6299
  350MOL0     H47215   1.840  13.263   9.836 -0.0761  1.2564  1.5916
  350MOL0     H47216   1.854  13.499   9.851 -1.2259  0.1010  1.6306
  350MOL0     H47217   1.890  13.452   9.687 -1.8377  0.0943 -1.0161
  350MOL0     H47218   1.749  13.640   9.668  0.2242  1.0841  1.0101
  350MOL0     H47219   1.648  13.498   9.627 -0.1384  1.1827 -1.0919
  350MOL0     H47220   1.645  13.626   9.900  2.9080  0.6834 -2.0192
  350MOL0     H47221   1.550  13.488   9.837 -1.0454  0.7800  3.0692
  350MOL0     H47222   1.449  13.625   9.671  2.2871 -0.8807  0.2171
  350MOL0     H47223   1.534  13.765   9.720 -0.3188 -0.3004 -1.8328
  350MOL0     H47224   1.312  13.616   9.875 -1.3431  0.7513 -2.4203
  350MOL0     H47225   1.434  13.717   9.956  3.7059 -1.3851 -0.6719
  350MOL0     H47226   1.259  13.842   9.742 -1.5543 -1.2846  1.2707
  350MOL0     H47227   1.379  13.918   9.839  1.3842 -0.9557 -4.5385
  350MOL0     H47228   1.233  13.843  10.024  0.4762 -0.5902 -0.1830
  350MOL0     H47229   1.139  13.954   9.915  2.6716  0.9926 -0.5706
  350MOL0     H47230   1.843  13.027   9.763  0.9996 -2.5885  0.9389
  350MOL0     H47231   1.778  12.814   9.804  4.7538  4.8238 -0.4279
  350MOL0     H47232   1.559  12.478   9.650  1.5197 -1.2121 -0.8914
  350MOL0     H47233   1.525  12.231   9.644 -0.8760 -2.2197  2.1489
  350MOL0     H47234   1.708  10.796  11.043 -0.3859  0.3301  2.5092
  350MOL0     H47235   1.810  10.712  11.247 -0.4869 -0.2495 -1.8670
  350MOL0     H47236   2.142  10.810  11.567  2.5744  1.7139  0.0172
  350MOL0     H47237   2.265  10.793  11.760 -1.5601 -0.2084 -0.5640
  350MOL0     H47238   2.229  10.619  11.962  0.0062  1.2119  1.9393
  350MOL0     H47239   2.371  10.561  12.040 -1.6051  1.3329  1.2819
  350MOL0     H47240   2.301  10.338  11.912 -1.2315  0.6400 -2.3141
  350MOL0     H47241   2.143  10.416  11.903  2.8271 -1.5756 -3.5728
  350MOL0     H47242   2.178  10.472  12.162  0.9106 -0.4649  0.9226
  350MOL0     H47243   2.280  10.332  12.152 -1.8282 -1.1541  0.2069
  350MOL0     H47244   2.010  10.321  12.016  3.8218 -0.8974 -2.5753
  350MOL0     H47245   2.102  10.196  12.092 -1.8491 -0.7446  0.7772
  350MOL0     H47246   1.928  10.359  12.453 -1.6015  0.4471 -1.1097
  350MOL0     H47247   2.331  10.369  11.672  0.9674  0.1310  2.4700
  350MOL0     H47248   2.240  10.396  11.344 -3.2725  1.6993 -0.3900
  350MOL0     H47249   2.243  10.276  11.484 -1.0267  0.0855  1.9391
  350MOL0     H47250   2.090  10.352  11.447 -0.5193 -0.8985  3.1645
  351MOL0     O47251   4.664  11.303   4.754  0.0015  0.3846 -0.0800
  351MOL0     C47252   4.634  11.348   4.864  0.3077 -0.1262  0.5643
  351MOL0     O47253   4.551  11.281   4.951  0.7343 -0.1478  0.4237
  351MOL0     C47254   4.464  11.177   4.919  0.2339 -0.5306 -1.4472
  351MOL0     C47255   4.497  11.048   4.952  0.7884  0.2194 -0.0588
  351MOL0     C47256   4.400  10.952   4.931 -0.2601  0.7787  0.8125
  351MOL0     C47257   4.279  10.976   4.874  0.4450 -0.2762  0.9634
  351MOL0     O47258   4.198  10.878   4.820  0.2588  0.1327 -0.5099
  351MOL0     C47259   4.253  10.746   4.787 -0.5108 -0.4509 -1.1466
  351MOL0     C47260   4.173  10.676   4.680 -0.1120 -0.4989  0.1160
  351MOL0     C47261   4.213  10.715   4.539 -0.7922  1.0758 -0.2061
  351MOL0     C47262   4.106  10.662   4.443 -0.0038  0.2231 -0.5651
  351MOL0     C47263   4.147  10.666   4.300 -0.0927  0.4128  0.6070
  351MOL0     C47264   4.158  10.812   4.248 -0.8248  0.4820  0.2615
  351MOL0     C47265   4.173  10.803   4.100  0.1335 -0.7536  0.5983
  351MOL0     C47266   4.159  10.950   4.043 -0.5603  0.4487 -0.4273
  351MOL0     N47267   4.020  10.999   4.055  0.3880  0.4030 -0.3039
  351MOL0     C47268   3.915  10.951   3.994 -0.0050  0.1118  0.3497
  351MOL0     C47269   3.828  11.062   3.993  0.5366 -0.0357  0.9287
  351MOL0     C47270   3.703  11.063   3.921  0.3064  0.6080  0.8055
  351MOL0     C47271   3.699  11.023   3.772 -0.2317 -0.4723 -0.3428
  351MOL0     C47272   3.797  11.104   3.681 -0.0857 -0.2427  0.6214
  351MOL0     C47273   3.778  11.260   3.694  0.7954 -0.3204  0.3455
  351MOL0     O47274   3.892  11.309   3.618 -0.3690 -0.0881  0.3036
  351MOL0     C47275   3.985  11.380   3.679  0.2543  0.3111 -0.1999
  351MOL0     C47276   4.032  11.351   3.806  0.3869 -0.3395  0.2570
  351MOL0     C47277   4.138  11.411   3.865 -1.0906  0.2275  0.1058
  351MOL0     C47278   4.211  11.513   3.789  0.5746 -0.3059  0.5595
  351MOL0     C47279   4.309  11.591   3.865  0.5901  0.3215  0.6782
  351MOL0     O47280   4.360  11.525   3.974  1.2423 -0.1410  0.5022
  351MOL0     C47281   4.469  11.586   4.037  0.1095 -0.7002 -0.6489
  351MOL0     C47282   4.600  11.593   3.986 -0.3637 -0.0645 -0.2562
  351MOL0     C47283   4.704  11.654   4.049  0.0972  0.1370 -0.1761
  351MOL0     C47284   4.687  11.703   4.181 -0.5428 -0.0635  0.3951
  351MOL0     O47285   4.798  11.765   4.238  0.9609 -0.1260  0.2958
  351MOL0     C47286   4.926  11.694   4.231  1.2472 -0.1295  0.6685
  351MOL0     C47287   5.042  11.771   4.306 -0.6729  0.5965  0.4514
  351MOL0     C47288   5.017  11.759   4.459 -0.0671  0.3477 -0.2511
  351MOL0     C47289   5.059  11.890   4.534  0.5841 -0.4991  0.1328
  351MOL0     C47290   5.214  11.878   4.564  0.2736  0.0993  0.9365
  351MOL0     C47291   5.260  12.011   4.619 -0.1617 -0.6168 -0.4931
  351MOL0     C47292   5.173  12.094   4.721 -0.3696  0.1360  0.1314
  351MOL0     C47293   5.178  12.048   4.863  0.2005 -0.6491 -0.1900
  351MOL0    Cl47294   5.032  12.117   4.948 -0.0092 -0.1612  0.1604
  351MOL0     C47295   4.560  11.702   4.234 -0.6789  1.8920  0.4547
  351MOL0     C47296   4.453  11.634   4.171 -0.4039 -0.3856 -0.1133
  351MOL0     O47297   4.332  11.707   3.833 -0.3133 -0.0350 -0.1274
  351MOL0     C47298   4.166  11.548   3.671  0.4634  0.4337 -0.5036
  351MOL0     C47299   4.056  11.481   3.618  0.3062 -0.2133 -0.3070
  351MOL0     N47300   3.875  11.151   4.081 -0.7222  0.2296 -0.7703
  351MOL0     N47301   3.989  11.114   4.114  0.8828  0.0534 -1.1557
  351MOL0     C47302   4.237  11.110   4.861  0.1455  1.4613  0.4509
  351MOL0     C47303   4.330  11.210   4.880 -0.1330 -0.2032 -0.4279
  351MOL0     C47304   4.674  11.477   4.899 -1.2922 -0.6688 -0.0515
  351MOL0     C47305   4.729  11.557   4.789  0.1391 -0.0416  0.2594
  351MOL0     C47306   4.752  11.691   4.803 -1.0166 -0.4390 -0.0829
  351MOL0     C47307   4.740  11.747   4.927 -0.3423 -0.3643 -0.6812
  351MOL0     O47308   4.772  11.883   4.926 -0.1367 -0.0519 -0.4384
  351MOL0     C47309   4.695  11.973   4.846 -0.7150 -0.6937 -0.0659
  351MOL0     C47310   4.545  11.992   4.867  0.6620  0.4650 -0.3845
  351MOL0     C47311   4.503  12.079   4.990  0.2125 -0.8653 -0.0639
  351MOL0     C47312   4.347  12.089   5.013 -0.0055 -0.4512 -0.1536
  351MOL0     C47313   4.310  12.146   5.144  0.2033 -0.4871 -0.7284
  351MOL0     C47314   4.299  12.196   5.259  0.9325  0.6229 -0.1729
  351MOL0     C47315   4.691  11.681   5.034 -0.1021 -1.2039 -0.2051
  351MOL0     C47316   4.646  11.545   5.023 -0.1774 -0.4933  0.0179
  351MOL0     C47317   4.602  11.480   5.153 -0.4231 -0.6601  0.8210
  351MOL0     H47318   4.593  11.019   4.996  0.7180  0.4314  0.2408
  351MOL0     H47319   4.431  10.850   4.952  1.3031  0.9474 -0.5033
  351MOL0     H47320   4.354  10.760   4.747 -0.5297  1.9317 -0.4658
  351MOL0     H47321   4.258  10.691   4.882 -1.1493  3.5073  1.3980
  351MOL0     H47322   4.069  10.703   4.703 -0.0521 -0.4982  0.3901
  351MOL0     H47323   4.179  10.567   4.691  0.4164 -0.2770  2.8412
  351MOL0     H47324   4.305  10.662   4.512 -0.5200 -0.3164  3.0186
  351MOL0     H47325   4.220  10.824   4.539 -1.6968  1.2061  2.6170
  351MOL0     H47326   4.080  10.558   4.461 -1.6234  0.9448  1.7418
  351MOL0     H47327   4.012  10.715   4.461  1.2164  1.7111  2.0983
  351MOL0     H47328   4.240  10.613   4.276 -0.1844  1.2094 -1.7296
  351MOL0     H47329   4.069  10.615   4.243  0.2165  0.4157  0.1731
  351MOL0     H47330   4.072  10.874   4.276  0.0159  1.4852  0.6955
  351MOL0     H47331   4.248  10.865   4.281  0.1104  0.0559 -1.4904
  351MOL0     H47332   4.100  10.740   4.048 -0.4526  0.5397 -0.2008
  351MOL0     H47333   4.279  10.784   4.080  0.5757  2.0614 -0.1937
  351MOL0     H47334   4.222  11.024   4.093  0.2972 -0.1324 -0.6284
  351MOL0     H47335   4.196  10.956   3.940  3.2250 -0.5371  0.7029
  351MOL0     H47336   3.914  10.853   3.949 -0.1582  1.3082 -2.4597
  351MOL0     H47337   3.638  11.004   3.986 -2.6306  3.0219  0.2815
  351MOL0     H47338   3.656  11.161   3.926 -0.3929  0.2995  0.4017
  351MOL0     H47339   3.738  10.922   3.758  1.3449 -0.1716  1.6040
  351MOL0     H47340   3.602  11.035   3.722  0.0505 -0.4056 -0.8869
  351MOL0     H47341   3.779  11.076   3.577  0.4433  2.1556 -0.1713
  351MOL0     H47342   3.900  11.074   3.703 -0.5178 -3.2196 -0.9069
  351MOL0     H47343   3.782  11.294   3.798 -0.9745 -0.2021  0.4085
  351MOL0     H47344   3.683  11.288   3.648  1.0474 -1.1942 -0.7521
  351MOL0     H47345   3.982  11.278   3.868 -1.3637 -0.2893 -1.0046
  351MOL0     H47346   4.174  11.380   3.963 -3.1684 -1.3157  0.4689
  351MOL0     H47347   4.610  11.549   3.887 -0.3232 -4.3111  1.4664
  351MOL0     H47348   4.796  11.639   3.994 -1.3270 -1.4906 -2.2679
  351MOL0     H47349   4.912  11.594   4.273  0.1411  1.0394  3.3793
  351MOL0     H47350   4.951  11.683   4.125 -1.3790  1.0672 -0.1584
  351MOL0     H47351   5.133  11.719   4.275 -1.5097 -1.4623  1.2162
  351MOL0     H47352   5.053  11.872   4.268  0.7584  0.6983  1.0879
  351MOL0     H47353   4.910  11.744   4.478  0.5628 -5.5922  0.6905
  351MOL0     H47354   5.079  11.679   4.501 -0.9245  0.5240  1.4397
  351MOL0     H47355   5.011  11.886   4.632 -2.5768 -0.9478 -1.3197
  351MOL0     H47356   5.028  11.981   4.483 -1.3152 -0.3544  1.4391
  351MOL0     H47357   5.275  11.854   4.476  0.1400 -1.9234  1.3511
  351MOL0     H47358   5.244  11.799   4.632  0.7866  0.4775  1.1538
  351MOL0     H47359   5.358  11.988   4.662 -0.9444 -1.3813  0.9835
  351MOL0     H47360   5.276  12.074   4.532  1.2266 -1.3217 -0.7736
  351MOL0     H47361   5.069  12.089   4.687 -0.7325 -1.1171  1.3402
  351MOL0     H47362   5.217  12.194   4.718  0.1269 -0.0508 -3.8303
  351MOL0     H47363   5.179  11.938   4.861 -1.5952 -0.7183  0.9712
  351MOL0     H47364   5.276  12.079   4.899  0.2217  2.3437 -2.4129
  351MOL0     H47365   4.535  11.752   4.327  0.9861  3.2344  0.2167
  351MOL0     H47366   4.366  11.640   4.235  2.6111 -2.8786  4.8600
  351MOL0     H47367   4.207  11.636   3.623 -1.7060  0.3543 -2.7674
  351MOL0     H47368   4.030  11.490   3.513 -2.4955 -0.0889  0.3250
  351MOL0     H47369   4.139  11.122   4.817  0.5402  2.5179 -0.1955
  351MOL0     H47370   4.298  11.312   4.862  0.0709  0.5434  2.7911
  351MOL0     H47371   4.740  11.511   4.691  1.9510 -1.9277  1.2752
  351MOL0     H47372   4.807  11.755   4.735  0.6878  2.0241  3.3225
  351MOL0     H47373   4.710  11.964   4.739 -1.0289  2.2717 -0.4531
  351MOL0     H47374   4.753  12.064   4.867  0.0573 -1.6748  2.5720
  351MOL0     H47375   4.496  11.895   4.860  2.1376 -0.2323 -1.8244
  351MOL0     H47376   4.519  12.056   4.782  1.2010  1.6844  0.3321
  351MOL0     H47377   4.552  12.177   4.990  0.7304 -0.9825  4.0231
  351MOL0     H47378   4.541  12.025   5.077  1.9106 -0.2369 -0.3623
  351MOL0     H47379   4.301  12.156   4.939  0.3494 -1.7314 -1.5793
  351MOL0     H47380   4.308  11.987   5.009  1.5034 -1.0327 -0.5561
  351MOL0     H47381   4.285  12.223   5.361  0.9890 -1.2908  0.3829
  351MOL0     H47382   4.683  11.738   5.126  0.1561  0.9487 -1.4589
  351MOL0     H47383   4.651  11.532   5.235 -4.7254  0.2681  3.1255
  351MOL0     H47384   4.501  11.513   5.177  0.2343  1.1020  1.2781
  351MOL0     H47385   4.624  11.373   5.159  1.2992 -0.3143  1.1958
  352MOL0     O47386   1.548   0.173   4.314 -0.2451 -0.2206 -0.1178
  352MOL0     C47387   1.573   0.281   4.353 -0.4535 -0.4570 -0.4515
  352MOL0     O47388   1.511   0.396   4.305  0.3427  0.5272 -0.0022
  352MOL0     C47389   1.530   0.418   4.164  1.2188 -0.6796 -0.0824
  352MOL0     C47390   1.487   0.339   4.063  0.3069 -0.0041  0.7028
  352MOL0     C47391   1.502   0.366   3.919 -0.4330  0.2489  0.3053
  352MOL0     C47392   1.564   0.491   3.890 -0.1959  0.0428 -0.0347
  352MOL0     O47393   1.572   0.539   3.761  0.8381 -0.0592 -1.1677
  352MOL0     C47394   1.691   0.611   3.712 -0.3747  0.0697 -0.0374
  352MOL0     C47395   1.646   0.762   3.705 -0.1471  0.4644  0.4232
  352MOL0     C47396   1.714   0.838   3.589 -0.0588 -0.1493  0.0588
  352MOL0     C47397   1.670   0.985   3.577  1.3405  0.1729 -0.4761
  352MOL0     C47398   1.740   1.079   3.474 -0.1501  0.5061  0.4375
  352MOL0     C47399   1.732   1.023   3.332  0.8466 -0.3571  0.6083
  352MOL0     C47400   1.784   1.104   3.218 -0.3472  0.9031  0.4224
  352MOL0     C47401   1.777   1.021   3.098 -0.5351 -0.7760  0.1751
  352MOL0     N47402   1.803   1.100   2.977  0.8970  0.9036 -0.7082
  352MOL0     C47403   1.721   1.112   2.861  0.7061 -0.4309  0.2526
  352MOL0     C47404   1.801   1.188   2.776 -0.1719 -0.1399  0.5056
  352MOL0     C47405   1.760   1.241   2.636  0.7437 -0.4175  1.0936
  352MOL0     C47406   1.752   1.128   2.525  0.9261 -0.7663  0.3243
  352MOL0     C47407   1.897   1.109   2.473  0.9560  0.3623 -0.3233
  352MOL0     C47408   1.899   1.027   2.355 -0.4620  0.2067  0.3557
  352MOL0     O47409   1.864   1.095   2.233  0.4964  0.6900 -0.8379
  352MOL0     C47410   1.933   1.068   2.120 -0.6280 -0.4175  1.0326
  352MOL0     C47411   1.877   1.124   2.000  0.6285 -0.7394  0.2662
  352MOL0     C47412   1.932   1.108   1.877 -0.3587  0.4490  0.0415
  352MOL0     C47413   2.060   1.043   1.875 -0.0955 -0.4929  0.0648
  352MOL0     C47414   2.124   1.014   1.748 -0.1695 -0.1340  0.2705
  352MOL0     O47415   2.102   1.105   1.648  0.3675 -0.2923  0.4532
  352MOL0     C47416   2.172   1.091   1.528  0.6679 -0.1662 -1.1771
  352MOL0     C47417   2.185   0.968   1.462  0.8095  0.7421  0.9366
  352MOL0     C47418   2.262   0.966   1.339 -0.0349 -0.0738 -1.6989
  352MOL0     C47419   2.317   1.080   1.293 -0.7122 -1.1437  0.3065
  352MOL0     O47420   2.403   1.073   1.183  0.1006 -0.4857  0.0212
  352MOL0     C47421   2.343   1.121   1.054 -0.4205  0.9603  0.3370
  352MOL0     C47422   2.348   1.007   0.952  0.9391 -0.1833  0.1743
  352MOL0     C47423   2.282   0.877   0.993  0.5235  0.0208  0.0868
  352MOL0     C47424   2.269   0.776   0.882  0.0047 -0.2060  0.5201
  352MOL0     C47425   2.151   0.814   0.791 -1.0515 -0.5658 -0.1171
  352MOL0     C47426   2.177   0.777   0.646 -0.2612  1.1243 -0.5337
  352MOL0     C47427   2.197   0.632   0.618 -0.3957  0.5624 -0.9167
  352MOL0     C47428   2.245   0.613   0.475 -0.3717  0.0140  0.2847
  352MOL0    Cl47429   2.181   0.437   0.429 -0.4988 -0.4587 -0.3486
  352MOL0     C47430   2.303   1.196   1.362 -0.5879 -0.2164 -0.9720
  352MOL0     C47431   2.232   1.204   1.480  0.6358  0.3506  0.5817
  352MOL0     O47432   2.218   0.927   1.755 -0.1353 -0.0227  0.1892
  352MOL0     C47433   2.116   0.987   1.991  0.0023  0.4934 -0.2749
  352MOL0     C47434   2.048   0.995   2.110 -0.8385 -0.4078 -0.3227
  352MOL0     N47435   1.914   1.231   2.842 -0.1439  0.1738 -0.2319
  352MOL0     N47436   1.913   1.164   2.951 -0.6252 -0.8545 -0.5965
  352MOL0     C47437   1.614   0.573   3.991  0.4239  0.5840 -0.3592
  352MOL0     C47438   1.589   0.543   4.123 -0.9282  0.5759 -0.4340
  352MOL0     C47439   1.666   0.299   4.474 -0.1368 -0.3480 -0.1579
  352MOL0     C47440   1.775   0.210   4.474 -0.2380 -1.6541 -0.4350
  352MOL0     C47441   1.867   0.205   4.582  0.8062  0.3173 -0.5573
  352MOL0     C47442   1.861   0.296   4.687  0.5279 -0.0387 -0.4894
  352MOL0     O47443   1.963   0.287   4.772 -0.7878  1.1409  0.4851
  352MOL0     C47444   1.953   0.368   4.887 -0.1550 -0.4563 -0.2526
  352MOL0     C47445   1.993   0.510   4.859  0.1304  0.3583 -0.2647
  352MOL0     C47446   1.950   0.605   4.971 -0.4923  0.7503  0.6498
  352MOL0     C47447   1.920   0.750   4.923  1.3944  0.2016 -0.7725
  352MOL0     C47448   1.923   0.849   5.035  0.4301 -0.8224 -0.4641
  352MOL0     C47449   1.950   0.926   5.123 -0.1298 -0.3151  0.3772
  352MOL0     C47450   1.747   0.377   4.689 -0.4164 -0.7446  0.0543
  352MOL0     C47451   1.647   0.379   4.588  0.5684 -0.3012  0.3228
  352MOL0     C47452   1.538   0.481   4.595  0.0620 -0.0873 -0.9473
  352MOL0     H47453   1.426   0.253   4.089  0.9667 -1.4090 -2.0533
  352MOL0     H47454   1.455   0.309   3.840 -0.0544  1.9955 -1.2667
  352MOL0     H47455   1.783   0.592   3.769  1.5309 -0.6274 -3.1103
  352MOL0     H47456   1.714   0.572   3.612  0.4250  1.5641 -0.4596
  352MOL0     H47457   1.684   0.795   3.802  4.3601  1.9482 -1.5683
  352MOL0     H47458   1.539   0.781   3.701 -0.2804 -0.3969 -1.8427
  352MOL0     H47459   1.701   0.796   3.489 -0.0259  0.4612 -0.2061
  352MOL0     H47460   1.818   0.839   3.623 -0.6160 -1.8715  2.0381
  352MOL0     H47461   1.570   0.983   3.535  0.3764  1.6321  1.5585
  352MOL0     H47462   1.678   1.023   3.679 -0.3752 -0.3748 -0.1109
  352MOL0     H47463   1.689   1.175   3.472  1.2357  1.2460 -0.3926
  352MOL0     H47464   1.844   1.091   3.506 -0.1280 -0.5218  0.8150
  352MOL0     H47465   1.789   0.930   3.332 -0.4648 -1.2982 -2.2574
  352MOL0     H47466   1.627   1.005   3.306  0.2621 -5.0691  4.6512
  352MOL0     H47467   1.888   1.136   3.232  0.8963 -3.0638  1.3988
  352MOL0     H47468   1.722   1.193   3.202 -0.2231  0.6866 -1.5065
  352MOL0     H47469   1.843   0.934   3.099  0.4835 -0.0780 -2.0020
  352MOL0     H47470   1.675   0.986   3.076 -0.1478 -1.9786  0.2213
  352MOL0     H47471   1.618   1.086   2.840  1.0718 -2.9431  1.2558
  352MOL0     H47472   1.656   1.273   2.641 -0.8301 -4.7512  0.1476
  352MOL0     H47473   1.836   1.314   2.604  0.9314 -0.2937  1.8143
  352MOL0     H47474   1.722   1.032   2.568 -0.8744 -0.1390  0.5174
  352MOL0     H47475   1.690   1.158   2.440 -1.3585 -2.5937  1.2279
  352MOL0     H47476   1.954   1.057   2.551 -3.2570 -1.5357  1.8364
  352MOL0     H47477   1.940   1.207   2.451  1.0410  0.8008  1.5781
  352MOL0     H47478   1.835   0.943   2.384 -0.9940 -0.0384 -1.3946
  352MOL0     H47479   2.004   0.993   2.354 -0.3663  0.4861  0.8510
  352MOL0     H47480   1.789   1.187   2.008  0.4909 -1.1522  2.6719
  352MOL0     H47481   1.888   1.133   1.781  1.9121 -1.8840 -1.7328
  352MOL0     H47482   2.132   0.880   1.499  1.9697 -0.0943  0.6605
  352MOL0     H47483   2.265   0.880   1.273  0.2464 -0.8460 -0.7096
  352MOL0     H47484   2.241   1.159   1.067 -0.8464  0.8279 -2.2203
  352MOL0     H47485   2.398   1.207   1.016 -0.5809  0.6808 -0.5311
  352MOL0     H47486   2.301   1.040   0.859 -0.5452  1.0937  1.3174
  352MOL0     H47487   2.455   0.995   0.932  1.3515 -0.3229  2.2123
  352MOL0     H47488   2.342   0.821   1.066 -1.1928 -1.2230  0.5969
  352MOL0     H47489   2.180   0.895   1.026  1.2862  3.2602  1.0165
  352MOL0     H47490   2.239   0.682   0.929 -0.9443  0.8753  2.1793
  352MOL0     H47491   2.365   0.762   0.831 -0.3953 -0.4544 -0.1674
  352MOL0     H47492   2.132   0.922   0.795  1.4825 -0.0144 -0.8288
  352MOL0     H47493   2.064   0.761   0.829 -1.6750 -0.0131 -0.7370
  352MOL0     H47494   2.086   0.797   0.589  0.5118 -0.1990 -2.3303
  352MOL0     H47495   2.259   0.833   0.600  0.1255  0.0410 -1.2146
  352MOL0     H47496   2.099   0.586   0.633 -1.4572  1.8069 -3.3671
  352MOL0     H47497   2.273   0.580   0.677  1.5296  1.8307 -2.1454
  352MOL0     H47498   2.195   0.685   0.409  0.6134 -0.1356 -0.6497
  352MOL0     H47499   2.352   0.629   0.464 -0.1398 -0.0837  2.0733
  352MOL0     H47500   2.357   1.287   1.339  0.5936  0.7867  4.4116
  352MOL0     H47501   2.236   1.295   1.539 -1.8542  1.6407 -1.0356
  352MOL0     H47502   2.213   0.940   1.985  0.2298  1.1173 -3.3165
  352MOL0     H47503   2.104   0.953   2.193  1.1661  1.7531 -0.4777
  352MOL0     H47504   1.655   0.672   3.969 -0.0348  0.3856 -2.3521
  352MOL0     H47505   1.636   0.600   4.203  1.9494 -0.6454 -1.1090
  352MOL0     H47506   1.791   0.150   4.385  0.9234  0.1860 -1.5463
  352MOL0     H47507   1.949   0.135   4.573 -0.5655 -2.1712  3.3495
  352MOL0     H47508   2.006   0.330   4.975  0.0032 -1.2018 -0.6555
  352MOL0     H47509   1.851   0.358   4.925 -0.3602  0.6425 -0.4991
  352MOL0     H47510   1.954   0.543   4.763  0.5753 -0.3540 -0.7014
  352MOL0     H47511   2.101   0.520   4.843  0.0382  3.3187  0.3367
  352MOL0     H47512   2.031   0.597   5.043  2.0319  1.5630 -1.8902
  352MOL0     H47513   1.854   0.578   5.016 -0.4409  2.9537  2.2109
  352MOL0     H47514   2.002   0.782   4.858  2.0585  0.9667  0.4160
  352MOL0     H47515   1.821   0.760   4.877  0.9448 -2.1118 -0.4527
  352MOL0     H47516   1.977   0.990   5.205  1.1081 -0.2598 -0.0516
  352MOL0     H47517   1.734   0.447   4.771 -1.1270 -0.9881  0.1569
  352MOL0     H47518   1.565   0.574   4.546 -2.4738  2.6956  2.3472
  352MOL0     H47519   1.442   0.444   4.559  0.6005 -1.3651 -1.1216
  352MOL0     H47520   1.527   0.516   4.699  2.6406 -0.1347 -0.5993
  353MOL0     O47521   1.042   4.440   0.617  0.7266 -0.6539  0.4721
  353MOL0     C47522   1.013   4.366   0.716 -0.9626 -0.1431  0.3605
  353MOL0     O47523   1.106   4.304   0.789  0.8723 -0.3667 -0.3511
  353MOL0     C47524   1.238   4.304   0.769  0.2992 -0.0723 -0.8504
  353MOL0     C47525   1.300   4.207   0.847 -0.5336 -0.4718  0.3602
  353MOL0     C47526   1.436   4.194   0.854  0.4612 -0.7736 -0.2531
  353MOL0     C47527   1.515   4.283   0.780 -0.3310  1.0594  0.2247
  353MOL0     O47528   1.650   4.262   0.760  0.3115  0.1914  0.7125
  353MOL0     C47529   1.689   4.125   0.737 -0.3976  0.3688  0.0780
  353MOL0     C47530   1.826   4.130   0.661 -0.7599 -0.5144 -0.1324
  353MOL0     C47531   1.829   4.189   0.520  0.6290  0.3899 -0.2386
  353MOL0     C47532   1.967   4.190   0.460 -0.8496 -0.5562 -0.3091
  353MOL0     C47533   1.953   4.273   0.326 -0.0027 -0.5925 -0.3079
  353MOL0     C47534   2.085   4.317   0.258 -0.3882 -0.1146 -0.7909
  353MOL0     C47535   2.182   4.205   0.225 -0.7335  0.4664 -0.2687
  353MOL0     C47536   2.275   4.238   0.106  0.2790 -0.7155 -0.1710
  353MOL0     N47537   2.366   4.129   0.076  0.0865  0.2680  0.7248
  353MOL0     C47538   2.466   4.079   0.162  0.7698  0.6731  0.0707
  353MOL0     C47539   2.499   3.962   0.109  0.0336 -0.4338  0.0031
  353MOL0     C47540   2.599   3.867   0.176 -0.0882 -1.1864  0.3706
  353MOL0     C47541   2.727   3.869   0.091  0.4721  0.1807  0.7755
  353MOL0     C47542   2.838   3.779   0.142  0.0916 -0.0866 -0.4072
  353MOL0     C47543   2.969   3.846   0.100 -0.7261  0.2589 -1.4984
  353MOL0     O47544   3.081   3.774   0.160  0.2571 -0.2944 -0.0462
  353MOL0     C47545   3.100   3.648   0.122 -0.5746  0.9156  0.6641
  353MOL0     C47546   3.152   3.556   0.212  0.2405  0.2637  0.2600
  353MOL0     C47547   3.190   3.422   0.182  0.2716  0.3643  1.4536
  353MOL0     C47548   3.180   3.380   0.049  0.1324 -0.4334  0.1022
  353MOL0     C47549   3.223   3.244   0.003  0.3836  1.8077  0.0037
  353MOL0     O47550   3.221   3.219  -0.128  0.6475 -0.4816 -0.0159
  353MOL0     C47551   3.229   3.107  -0.196  0.1260  0.6876  0.4538
  353MOL0     C47552   3.223   3.117  -0.334 -0.0770  0.2726 -0.1205
  353MOL0     C47553   3.225   2.994  -0.414  0.5768 -1.8756 -0.5813
  353MOL0     C47554   3.219   2.872  -0.357 -0.7466  0.3301 -0.5317
  353MOL0     O47555   3.221   2.766  -0.436  0.3627 -0.2332  0.1426
  353MOL0     C47556   3.156   2.772  -0.566 -0.3528  0.6659  0.3700
  353MOL0     C47557   3.101   2.626  -0.598 -0.4807 -1.1074  0.7267
  353MOL0     C47558   2.989   2.623  -0.698  0.1054  0.2905 -0.8838
  353MOL0     C47559   2.948   2.480  -0.726  0.1466  0.0615 -1.3662
  353MOL0     C47560   2.881   2.459  -0.861 -0.7854  0.2680 -0.4681
  353MOL0     C47561   2.843   2.313  -0.886 -0.3776  0.1543 -0.5378
  353MOL0     C47562   2.744   2.256  -0.787 -0.0459  0.2570  0.2152
  353MOL0     C47563   2.716   2.104  -0.841 -0.2369 -0.3930 -0.8346
  353MOL0    Cl47564   2.835   1.990  -0.803  0.6101 -0.0420  0.2765
  353MOL0     C47565   3.211   2.857  -0.215  0.0445 -1.5416 -0.4845
  353MOL0     C47566   3.221   2.979  -0.136  0.1574  0.3112 -1.2483
  353MOL0     O47567   3.250   3.165   0.088  0.3039 -0.2307  0.7208
  353MOL0     C47568   3.133   3.475  -0.041 -0.2574 -0.4879 -0.0597
  353MOL0     C47569   3.089   3.601  -0.007  0.1563  0.4633 -0.2287
  353MOL0     N47570   2.419   3.948  -0.002 -0.7757 -0.5636  0.6433
  353MOL0     N47571   2.344   4.043  -0.022  0.1899 -0.7644 -0.1352
  353MOL0     C47572   1.455   4.372   0.697  0.4588 -0.0543 -0.6412
  353MOL0     C47573   1.313   4.391   0.694 -1.1535 -0.0451  0.7916
  353MOL0     C47574   0.876   4.344   0.740 -0.3727  1.3576  0.7870
  353MOL0     C47575   0.789   4.322   0.622 -1.0968 -0.2111  0.9934
  353MOL0     C47576   0.661   4.283   0.635 -0.9359 -0.5793 -1.0006
  353MOL0     C47577   0.609   4.287   0.764  0.7888 -0.2269  0.3056
  353MOL0     O47578   0.476   4.290   0.791  0.3603 -0.1676 -0.0731
  353MOL0     C47579   0.383   4.254   0.691 -0.1769  1.2016  0.0665
  353MOL0     C47580   0.245   4.275   0.747  0.2135  0.4770  0.1516
  353MOL0     C47581   0.124   4.277   0.652  0.1505 -0.2777 -0.0141
  353MOL0     C47582  -0.008   4.304   0.726 -0.2198  0.8976 -0.0380
  353MOL0     C47583  -0.012   4.433   0.799  0.9947  0.6727 -0.1977
  353MOL0     C47584  -0.032   4.552   0.810 -0.8840 -0.3670 -0.4803
  353MOL0     C47585   0.683   4.313   0.875  0.5267  1.2462  0.5578
  353MOL0     C47586   0.822   4.327   0.873  0.6734  0.0338 -0.0390
  353MOL0     C47587   0.900   4.350   1.002  0.2327  0.2423 -0.1205
  353MOL0     H47588   1.251   4.137   0.914  0.6287 -1.2123  0.4647
  353MOL0     H47589   1.476   4.115   0.917 -1.0984 -0.6970  0.8868
  353MOL0     H47590   1.682   4.068   0.830 -0.4587  1.4952  0.7949
  353MOL0     H47591   1.612   4.088   0.669 -0.4063  0.8845 -0.1975
  353MOL0     H47592   1.866   4.029   0.658 -2.1383 -1.0733 -0.3277
  353MOL0     H47593   1.883   4.193   0.730 -0.0984 -1.1897 -0.0575
  353MOL0     H47594   1.790   4.291   0.534  0.5490  0.3189  0.0472
  353MOL0     H47595   1.766   4.125   0.458 -1.3981  0.0510  2.0509
  353MOL0     H47596   2.041   4.231   0.530 -0.8380 -2.4151  0.8522
  353MOL0     H47597   2.014   4.097   0.424 -0.9589 -0.8714  0.3403
  353MOL0     H47598   1.886   4.219   0.258 -0.8736 -0.8874  0.7608
  353MOL0     H47599   1.900   4.367   0.345  1.4177  0.5345 -1.6353
  353MOL0     H47600   2.062   4.357   0.159  0.6191 -0.3608 -1.1310
  353MOL0     H47601   2.135   4.392   0.319  1.3031 -2.3169  0.6752
  353MOL0     H47602   2.132   4.111   0.201  1.2676 -0.2817 -1.7356
  353MOL0     H47603   2.241   4.189   0.316 -1.1837 -2.0953 -0.3584
  353MOL0     H47604   2.225   4.258   0.011  1.6780  4.0655 -0.1961
  353MOL0     H47605   2.332   4.328   0.134 -1.4051 -0.0205  1.2054
  353MOL0     H47606   2.501   4.125   0.254 -2.3639  1.2488  1.1054
  353MOL0     H47607   2.621   3.885   0.282 -1.3264 -3.4951  1.0934
  353MOL0     H47608   2.539   3.775   0.174 -1.1379 -0.4983 -0.8989
  353MOL0     H47609   2.705   3.836  -0.011  1.1081 -3.0350  1.5595
  353MOL0     H47610   2.758   3.974   0.086 -2.3749  1.0569 -1.5418
  353MOL0     H47611   2.826   3.681   0.095 -0.5031  0.1250 -0.7159
  353MOL0     H47612   2.839   3.765   0.250 -0.5152  1.1205 -0.2295
  353MOL0     H47613   2.971   3.942   0.153 -1.0018 -1.6258  2.2304
  353MOL0     H47614   2.979   3.858  -0.008 -1.0979 -1.5217 -1.7536
  353MOL0     H47615   3.177   3.596   0.309  1.5573 -1.4650  0.6846
  353MOL0     H47616   3.233   3.346   0.246 -0.5537 -2.1168 -0.7640
  353MOL0     H47617   3.242   3.215  -0.377  0.9525  0.0502 -0.2159
  353MOL0     H47618   3.240   3.015  -0.520 -2.7586 -1.4899 -1.0839
  353MOL0     H47619   3.076   2.847  -0.569 -0.3627  0.6231 -1.2072
  353MOL0     H47620   3.221   2.795  -0.651 -1.2964  1.4141 -0.1590
  353MOL0     H47621   3.190   2.571  -0.630  0.8269  1.4023 -0.2448
  353MOL0     H47622   3.062   2.582  -0.506  0.1902  3.8933  3.7357
  353MOL0     H47623   2.913   2.694  -0.663  0.3564 -0.8276  2.2644
  353MOL0     H47624   3.020   2.664  -0.794 -0.1129 -2.6172 -2.3040
  353MOL0     H47625   2.873   2.460  -0.649 -0.2874  2.6378 -1.0348
  353MOL0     H47626   3.026   2.403  -0.722  1.2833  1.1947  2.4433
  353MOL0     H47627   2.948   2.489  -0.942  1.3906 -0.8768  0.7919
  353MOL0     H47628   2.788   2.515  -0.869 -1.4133 -0.3572  1.7103
  353MOL0     H47629   2.799   2.294  -0.984 -1.4964 -0.9265  0.1533
  353MOL0     H47630   2.933   2.250  -0.884 -0.5838 -0.1310 -0.2349
  353MOL0     H47631   2.652   2.315  -0.782 -0.1735  0.0039  0.9827
  353MOL0     H47632   2.764   2.235  -0.682 -2.2190 -0.7669  0.4982
  353MOL0     H47633   2.624   2.075  -0.789  1.1960  0.8803  2.7279
  353MOL0     H47634   2.694   2.103  -0.949 -1.0235  2.7538 -0.8129
  353MOL0     H47635   3.216   2.756  -0.176 -0.2199 -1.9117 -1.3720
  353MOL0     H47636   3.220   2.954  -0.030 -1.6540 -3.8616 -2.0117
  353MOL0     H47637   3.129   3.453  -0.148 -2.0135  2.4355 -0.7071
  353MOL0     H47638   3.038   3.668  -0.076 -2.5343 -0.0509  1.1015
  353MOL0     H47639   1.518   4.432   0.632  1.1944  0.6331  0.6690
  353MOL0     H47640   1.268   4.469   0.634 -1.2080 -0.6125  0.0805
  353MOL0     H47641   0.821   4.334   0.519 -1.6584 -0.6610  0.7554
  353MOL0     H47642   0.608   4.252   0.546 -2.2859  2.1900 -1.2883
  353MOL0     H47643   0.408   4.154   0.655 -0.1973  1.7855 -1.6137
  353MOL0     H47644   0.405   4.318   0.605  1.1703  0.9267  0.1824
  353MOL0     H47645   0.252   4.375   0.793  1.7051  0.1937  0.6048
  353MOL0     H47646   0.218   4.198   0.820  2.5602  0.0583  0.6820
  353MOL0     H47647   0.111   4.177   0.609  0.2630 -0.0674 -0.5538
  353MOL0     H47648   0.147   4.353   0.577  1.7208 -0.0525  0.6625
  353MOL0     H47649  -0.091   4.291   0.656  1.2131 -2.7851 -1.3240
  353MOL0     H47650  -0.023   4.224   0.800  0.0868  0.3806 -0.5314
  353MOL0     H47651  -0.051   4.657   0.815 -0.1106 -0.2940  1.7132
  353MOL0     H47652   0.630   4.305   0.969  2.2416  1.5273  1.5900
  353MOL0     H47653   0.960   4.262   1.029  1.9368  0.2866 -3.3555
  353MOL0     H47654   0.958   4.442   0.990  1.8412 -0.9573 -2.2091
  353MOL0     H47655   0.833   4.359   1.089 -1.3185 -1.2821 -1.0785
  354MOL0     O47656   8.637  11.049   9.949  0.3172 -1.1113 -0.8392
  354MOL0     C47657   8.634  11.131  10.048  0.6288 -0.1246 -0.4145
  354MOL0     O47658   8.516  11.202  10.084 -0.4786  0.3974  0.0882
  354MOL0     C47659   8.414  11.179  10.003  0.5464 -0.6522  0.0712
  354MOL0     C47660   8.330  11.069  10.026  0.2225  0.0364 -0.3505
  354MOL0     C47661   8.230  11.042   9.929  0.0268  0.5334 -0.1022
  354MOL0     C47662   8.209  11.113   9.812  0.2399  0.4825 -0.1058
  354MOL0     O47663   8.128  11.082   9.704  0.1875 -0.0554  0.8772
  354MOL0     C47664   8.067  10.952   9.696 -0.1192 -0.8734  0.1902
  354MOL0     C47665   7.934  10.970   9.644 -0.0332  0.3215  0.5906
  354MOL0     C47666   7.832  11.016   9.754  0.0300 -1.0782  0.3895
  354MOL0     C47667   7.699  11.045   9.675  0.7425 -0.0404 -0.1259
  354MOL0     C47668   7.625  10.913   9.627 -0.4673  0.1005 -0.3894
  354MOL0     C47669   7.529  10.933   9.513  0.7731 -0.3006  0.2189
  354MOL0     C47670   7.411  11.020   9.546 -0.3341 -0.2741  0.7103
  354MOL0     C47671   7.291  10.995   9.452  0.4497 -1.4292  0.8872
  354MOL0     N47672   7.332  10.991   9.310  0.1760 -0.0942  0.6098
  354MOL0     C47673   7.322  11.104   9.227 -0.8254 -0.3662 -0.2202
  354MOL0     C47674   7.352  11.057   9.105 -0.7507  0.3230  0.7817
  354MOL0     C47675   7.374  11.131   8.967 -0.2675 -0.4782 -0.0444
  354MOL0     C47676   7.294  11.260   8.957 -0.4114 -0.6489 -0.5715
  354MOL0     C47677   7.252  11.299   8.825  0.3241  1.0827 -0.0482
  354MOL0     C47678   7.165  11.427   8.816  0.5851 -0.3241 -0.4181
  354MOL0     O47679   7.247  11.542   8.810  1.0709 -0.2215  0.1300
  354MOL0     C47680   7.193  11.667   8.792 -1.4034 -0.0961  0.6389
  354MOL0     C47681   7.062  11.702   8.827  0.2189 -1.5354 -0.3529
  354MOL0     C47682   7.019  11.834   8.828  0.0322 -0.4730 -0.5252
  354MOL0     C47683   7.108  11.941   8.799  0.0741 -0.9372 -0.2258
  354MOL0     C47684   7.071  12.081   8.825  1.7010  0.1839  0.4155
  354MOL0     O47685   6.973  12.104   8.905 -0.1686  0.5037 -0.4278
  354MOL0     C47686   6.924  12.231   8.928  0.2702 -0.3251 -0.2340
  354MOL0     C47687   7.008  12.324   8.984  0.1020  0.3911 -0.1394
  354MOL0     C47688   6.949  12.440   9.028  0.2183 -0.1092  0.5829
  354MOL0     C47689   6.820  12.472   9.007  0.3164  0.4498 -0.0893
  354MOL0     O47690   6.770  12.589   9.064 -0.7805 -0.5465 -0.1384
  354MOL0     C47691   6.851  12.701   9.089  0.5247  0.7799  1.0955
  354MOL0     C47692   6.792  12.809   9.008 -0.0370  0.6498  0.4383
  354MOL0     C47693   6.667  12.875   9.065  0.7077  0.0396 -0.8440
  354MOL0     C47694   6.688  12.946   9.195 -0.1010  1.3813 -1.2196
  354MOL0     C47695   6.559  13.010   9.244 -0.2932  0.1024  0.9838
  354MOL0     C47696   6.572  13.103   9.369  0.5285  0.7297 -0.0496
  354MOL0     C47697   6.443  13.176   9.395  0.3265  0.0266 -0.3985
  354MOL0     C47698   6.439  13.256   9.531  0.7848 -0.2808  0.6796
  354MOL0    Cl47699   6.298  13.353   9.536 -0.2052 -0.0022  0.0643
  354MOL0     C47700   6.738  12.388   8.936 -0.3675 -0.7361  0.6422
  354MOL0     C47701   6.794  12.262   8.897 -0.5200  1.2227 -0.8726
  354MOL0     O47702   7.140  12.167   8.775 -0.1637 -0.0124 -0.3442
  354MOL0     C47703   7.233  11.904   8.756  0.4235 -0.3780  1.3200
  354MOL0     C47704   7.278  11.775   8.760  0.2292  0.5335  0.0719
  354MOL0     N47705   7.353  10.918   9.110 -1.1977  1.1186 -0.2239
  354MOL0     N47706   7.332  10.883   9.232 -0.1243  0.0841 -0.2654
  354MOL0     C47707   8.291  11.227   9.799 -0.3656 -0.2026  0.5975
  354MOL0     C47708   8.386  11.257   9.890  0.5818 -0.2373 -0.7546
  354MOL0     C47709   8.765  11.153  10.121  0.6153 -0.7176 -0.2057
  354MOL0     C47710   8.879  11.130  10.063 -0.6120 -0.9075  0.9319
  354MOL0     C47711   9.004  11.156  10.114 -0.3450  0.2594 -0.0257
  354MOL0     C47712   9.017  11.230  10.236  0.2272 -0.7105 -0.1708
  354MOL0     O47713   9.142  11.272  10.276  0.3930 -0.0092  0.2702
  354MOL0     C47714   9.141  11.385  10.365 -0.9595  0.0347  0.3297
  354MOL0     C47715   9.263  11.471  10.325  0.9752 -0.5650 -0.4675
  354MOL0     C47716   9.268  11.595  10.407 -0.7166 -0.2320 -0.3442
  354MOL0     C47717   9.368  11.591  10.523 -0.6332 -0.0502  0.6937
  354MOL0     C47718   9.308  11.517  10.635 -0.1626 -0.5529 -1.1326
  354MOL0     C47719   9.247  11.460  10.723  0.0455  0.4119 -0.6251
  354MOL0     C47720   8.892  11.251  10.303  0.1017 -0.5372  0.1763
  354MOL0     C47721   8.769  11.209  10.249 -0.2012 -0.0660 -0.0412
  354MOL0     C47722   8.651  11.217  10.332  0.5297  0.2518  0.0732
  354MOL0     H47723   8.339  10.996  10.105 -3.9018 -1.7857 -1.3140
  354MOL0     H47724   8.168  10.955   9.948 -0.6240  1.4026  2.0536
  354MOL0     H47725   8.131  10.897   9.627  0.3001 -1.5276  1.0783
  354MOL0     H47726   8.058  10.908   9.796  1.1376  0.4725  0.9248
  354MOL0     H47727   7.907  10.877   9.593  1.1512 -0.5034  1.4298
  354MOL0     H47728   7.952  11.037   9.560  2.7803  0.3072  1.1078
  354MOL0     H47729   7.876  11.107   9.796  0.3831 -1.0605 -0.0191
  354MOL0     H47730   7.812  10.945   9.834 -1.0765 -2.8712 -1.3904
  354MOL0     H47731   7.630  11.094   9.745 -0.0440  1.1331 -1.6760
  354MOL0     H47732   7.716  11.121   9.599 -0.0147  1.8675  1.5167
  354MOL0     H47733   7.702  10.847   9.587 -0.2463  1.5153 -2.4573
  354MOL0     H47734   7.598  10.857   9.718  1.8858  0.2099  0.4404
  354MOL0     H47735   7.578  10.989   9.433 -2.9130  2.8660 -0.1053
  354MOL0     H47736   7.491  10.835   9.483 -3.2223  0.8518  1.0141
  354MOL0     H47737   7.454  11.120   9.538 -0.2505 -0.3526  0.1773
  354MOL0     H47738   7.386  10.993   9.650 -2.0706  1.1869  0.6989
  354MOL0     H47739   7.246  10.897   9.468 -0.0239 -1.5037 -0.6721
  354MOL0     H47740   7.214  11.072   9.463 -0.4477 -2.2673  0.6055
  354MOL0     H47741   7.308  11.207   9.258 -0.9952 -0.4485 -0.0218
  354MOL0     H47742   7.476  11.165   8.947 -0.6821  2.0961  1.7160
  354MOL0     H47743   7.332  11.060   8.895  1.4319 -2.1546  0.5304
  354MOL0     H47744   7.203  11.253   9.018 -1.7276 -0.1182 -2.4101
  354MOL0     H47745   7.359  11.339   8.995 -0.0166 -0.3116 -1.8937
  354MOL0     H47746   7.192  11.218   8.782  3.1578 -1.3343  0.2371
  354MOL0     H47747   7.348  11.312   8.775  1.3646  2.5199  2.1869
  354MOL0     H47748   7.106  11.430   8.908 -1.0641 -0.2865 -1.4398
  354MOL0     H47749   7.105  11.420   8.724 -0.1841  1.4768 -0.0860
  354MOL0     H47750   6.986  11.637   8.869  0.1647 -1.2887 -0.0662
  354MOL0     H47751   6.922  11.848   8.874  0.3237 -0.8516  0.2078
  354MOL0     H47752   7.114  12.311   9.001 -0.0710  0.3319  0.9910
  354MOL0     H47753   7.006  12.501   9.098 -1.6163  0.1782  1.9156
  354MOL0     H47754   6.855  12.723   9.197 -3.3299  3.4765  0.8901
  354MOL0     H47755   6.956  12.691   9.058  0.4334 -0.2634  1.1060
  354MOL0     H47756   6.852  12.899   8.992 -1.3234  1.3620 -0.5905
  354MOL0     H47757   6.775  12.769   8.907  1.7915 -3.0540  1.4345
  354MOL0     H47758   6.638  12.955   8.996  2.8392  1.9029  0.2967
  354MOL0     H47759   6.588  12.799   9.074 -3.5339  3.9106 -1.6970
  354MOL0     H47760   6.760  13.028   9.187 -0.2884  1.4836 -1.9108
  354MOL0     H47761   6.720  12.874   9.271 -0.1558  1.0738 -1.4827
  354MOL0     H47762   6.482  12.938   9.273 -1.1489  1.3391  1.9296
  354MOL0     H47763   6.515  13.063   9.159  0.2706 -3.2262 -1.5625
  354MOL0     H47764   6.589  13.048   9.463  0.3221  1.8341  0.6566
  354MOL0     H47765   6.653  13.176   9.365  0.2450  0.9854 -1.8682
  354MOL0     H47766   6.354  13.113   9.403  0.8318 -0.6683 -0.1483
  354MOL0     H47767   6.437  13.252   9.317  4.1512 -0.9022 -1.8389
  354MOL0     H47768   6.443  13.187   9.615 -0.2099  1.7155  2.4712
  354MOL0     H47769   6.523  13.325   9.537  0.7551 -0.3514  2.7832
  354MOL0     H47770   6.645  12.430   8.901  0.9267  2.9861  1.1929
  354MOL0     H47771   6.740  12.178   8.853  1.4848 -0.9107  0.5112
  354MOL0     H47772   7.288  11.992   8.722 -2.2945  1.5277  1.5434
  354MOL0     H47773   7.379  11.761   8.722 -0.6483  0.8918 -2.6029
  354MOL0     H47774   8.270  11.289   9.712  2.2271  0.8515  0.6614
  354MOL0     H47775   8.453  11.341   9.876 -1.7960  1.8211 -0.5956
  354MOL0     H47776   8.894  11.084   9.966 -4.4660 -0.4335 -0.0676
  354MOL0     H47777   9.095  11.139  10.057  1.5404  1.7790  2.3158
  354MOL0     H47778   9.149  11.342  10.465  2.0568  0.8058  0.5399
  354MOL0     H47779   9.049  11.442  10.351  0.4389  2.5836  0.9321
  354MOL0     H47780   9.256  11.515  10.225 -0.5760  2.6860  0.9266
  354MOL0     H47781   9.355  11.411  10.333  1.6719  0.5687  0.2991
  354MOL0     H47782   9.175  11.628  10.454 -0.3909 -0.0263  0.1566
  354MOL0     H47783   9.301  11.671  10.335  0.9529  0.1090  0.7270
  354MOL0     H47784   9.449  11.529  10.484 -2.2930 -2.5660  0.9733
  354MOL0     H47785   9.401  11.688  10.560  3.9913 -1.0224 -0.2463
  354MOL0     H47786   9.190  11.390  10.781  2.6779 -1.6433 -0.3285
  354MOL0     H47787   8.887  11.302  10.398 -0.0614  1.1669 -0.7073
  354MOL0     H47788   8.590  11.127  10.321  0.7722 -0.0908  1.3728
  354MOL0     H47789   8.669  11.242  10.437 -2.6728  3.0964  0.1243
  354MOL0     H47790   8.603  11.314  10.312 -3.3395 -1.4365  0.2065
  355MOL0     O47791   3.620   4.883   8.115 -0.0392 -0.1069  0.4092
  355MOL0     C47792   3.584   4.969   8.043  0.7444  0.4392  0.9444
  355MOL0     O47793   3.571   5.097   8.081  0.1448 -0.4286 -0.5614
  355MOL0     C47794   3.645   5.159   8.180  0.3187 -0.6301 -0.5654
  355MOL0     C47795   3.586   5.269   8.247  0.1578  0.0284  0.2541
  355MOL0     C47796   3.642   5.329   8.363  0.1643  1.0567 -0.3028
  355MOL0     C47797   3.756   5.278   8.422  0.2849  0.6121 -0.8190
  355MOL0     O47798   3.806   5.335   8.539 -0.6744  0.3863 -0.4137
  355MOL0     C47799   3.875   5.233   8.630 -0.5722 -0.5521 -0.2109
  355MOL0     C47800   3.922   5.311   8.763 -0.2093 -0.2320  1.2767
  355MOL0     C47801   3.990   5.206   8.848  0.2153  0.2668 -0.2367
  355MOL0     C47802   4.087   5.268   8.950  0.3848 -0.0876 -0.0194
  355MOL0     C47803   4.149   5.154   9.032  0.8977 -0.3342 -0.3279
  355MOL0     C47804   4.244   5.180   9.140  0.0390  0.9523  0.1820
  355MOL0     C47805   4.177   5.199   9.271  0.0650  0.4739 -0.4135
  355MOL0     C47806   4.267   5.288   9.355  0.4927 -0.6029  0.0279
  355MOL0     N47807   4.393   5.232   9.402 -0.0224 -0.4744 -0.2154
  355MOL0     C47808   4.423   5.103   9.441  0.2188  0.5170  0.1873
  355MOL0     C47809   4.558   5.098   9.452  0.0514 -0.6941  0.0588
  355MOL0     C47810   4.632   4.966   9.481  0.0641  0.6960 -0.7582
  355MOL0     C47811   4.585   4.897   9.616  0.4334 -1.7872  0.4542
  355MOL0     C47812   4.588   4.975   9.754  0.1988  0.6145 -0.6796
  355MOL0     C47813   4.710   5.070   9.760  1.0631 -0.4055 -0.1260
  355MOL0     O47814   4.824   4.998   9.722  0.1829 -0.4826  0.3886
  355MOL0     C47815   4.941   5.072   9.739  0.3596  0.0487 -0.0775
  355MOL0     C47816   4.985   5.166   9.640  0.4290 -0.8101 -0.1079
  355MOL0     C47817   5.127   5.209   9.643  0.0793 -0.2169  0.4694
  355MOL0     C47818   5.212   5.157   9.737  0.3849 -0.1194 -0.7604
  355MOL0     C47819   5.346   5.205   9.747  0.2505  0.2756  0.4227
  355MOL0     O47820   5.426   5.145   9.839  0.4277 -0.8060 -0.2528
  355MOL0     C47821   5.562   5.149   9.842  0.4983 -1.6213  0.4120
  355MOL0     C47822   5.643   5.184   9.730  1.0522 -0.2058 -0.7181
  355MOL0     C47823   5.781   5.190   9.738  0.9446  0.0402  0.5634
  355MOL0     C47824   5.846   5.158   9.854  0.3699  0.5979  0.9948
  355MOL0     O47825   5.972   5.175   9.882 -0.4765 -0.8502  0.0535
  355MOL0     C47826   6.045   5.281   9.821 -0.0303 -0.5852  0.1481
  355MOL0     C47827   6.109   5.351   9.926  0.4521  0.5154 -0.6722
  355MOL0     C47828   6.223   5.444   9.879  0.5542 -0.7118 -0.4078
  355MOL0     C47829   6.358   5.376   9.847  0.2244 -1.5886  0.1740
  355MOL0     C47830   6.468   5.452   9.771  0.7171  0.5019 -0.0485
  355MOL0     C47831   6.475   5.582   9.830 -0.4964 -0.2009 -0.4808
  355MOL0     C47832   6.596   5.661   9.775  1.5148  0.4438 -0.5980
  355MOL0     C47833   6.578   5.805   9.806 -0.0061  0.4350  0.2305
  355MOL0    Cl47834   6.493   5.883   9.676 -0.4231 -0.2451 -0.4131
  355MOL0     C47835   5.775   5.132   9.966  0.2362  0.4380  0.4254
  355MOL0     C47836   5.633   5.130   9.961  0.7703 -0.2372  0.4191
  355MOL0     O47837   5.375   5.304   9.682 -0.0427 -0.7456 -0.0184
  355MOL0     C47838   5.164   5.064   9.834 -0.1909  0.6063 -0.9241
  355MOL0     C47839   5.030   5.021   9.834  0.3280  0.2905  0.4784
  355MOL0     N47840   4.612   5.218   9.419  0.1584  0.2254 -0.4594
  355MOL0     N47841   4.518   5.299   9.394  0.0349  0.3192  0.3902
  355MOL0     C47842   3.815   5.166   8.356  0.9845  0.1624  0.0015
  355MOL0     C47843   3.758   5.105   8.244 -0.4059 -0.6557  0.0304
  355MOL0     C47844   3.548   4.918   7.900 -0.1938  0.1486  0.2815
  355MOL0     C47845   3.624   4.806   7.845  0.0723 -0.9230 -0.1015
  355MOL0     C47846   3.603   4.756   7.722 -0.1328  0.7613  1.1509
  355MOL0     C47847   3.509   4.823   7.637  0.2230 -0.3055 -0.0687
  355MOL0     O47848   3.485   4.794   7.505  0.5204 -0.1526 -0.1149
  355MOL0     C47849   3.544   4.687   7.425 -0.3789  0.3694 -0.9235
  355MOL0     C47850   3.545   4.727   7.272 -0.3995 -0.2365  0.8614
  355MOL0     C47851   3.588   4.604   7.187 -0.0395 -0.4043 -0.7774
  355MOL0     C47852   3.603   4.626   7.037  0.0770  0.1892  0.1645
  355MOL0     C47853   3.479   4.661   6.972 -0.2591 -0.2552  0.3189
  355MOL0     C47854   3.376   4.681   6.913  0.3646 -0.5631 -0.1366
  355MOL0     C47855   3.436   4.933   7.682 -0.7225 -0.6348 -0.2740
  355MOL0     C47856   3.462   4.983   7.815  0.2092 -0.0603  0.5486
  355MOL0     C47857   3.408   5.114   7.852 -0.2505  0.0304  0.3597
  355MOL0     H47858   3.493   5.306   8.206 -0.7287 -0.7038  1.5248
  355MOL0     H47859   3.583   5.412   8.402 -5.1640 -2.1772 -0.4357
  355MOL0     H47860   3.809   5.157   8.671  1.4613 -0.8563  2.8249
  355MOL0     H47861   3.964   5.183   8.590 -0.2712 -3.2580  3.3949
  355MOL0     H47862   3.842   5.368   8.810 -2.7445 -1.0123 -1.7567
  355MOL0     H47863   3.991   5.388   8.728 -0.0325 -1.4016 -1.1570
  355MOL0     H47864   4.036   5.138   8.776  0.2050 -1.4233  1.2931
  355MOL0     H47865   3.911   5.147   8.896 -0.7841  2.3231  0.7641
  355MOL0     H47866   4.163   5.325   8.895  0.3624 -2.0031 -2.2037
  355MOL0     H47867   4.030   5.340   9.010 -1.0363 -1.8324  0.7996
  355MOL0     H47868   4.078   5.089   9.085  1.5938 -0.1676  0.8474
  355MOL0     H47869   4.199   5.097   8.953 -1.2241  1.2314 -2.9413
  355MOL0     H47870   4.308   5.093   9.156  0.8569  1.3715 -0.6455
  355MOL0     H47871   4.311   5.262   9.110 -1.1106  1.2264 -1.8647
  355MOL0     H47872   4.163   5.099   9.313  1.0321  1.6721  3.0940
  355MOL0     H47873   4.083   5.254   9.261  1.0309  2.7572  1.7661
  355MOL0     H47874   4.279   5.373   9.287  1.2933  0.1311  1.0564
  355MOL0     H47875   4.208   5.327   9.439  0.8205  3.1668 -1.3267
  355MOL0     H47876   4.363   5.013   9.430  0.0509  0.9447 -3.5960
  355MOL0     H47877   4.609   4.890   9.406  1.6686 -1.7215  1.0743
  355MOL0     H47878   4.737   4.964   9.451 -0.1684  0.0564 -1.5796
  355MOL0     H47879   4.478   4.878   9.602 -0.2482  0.5968  1.9335
  355MOL0     H47880   4.638   4.802   9.632 -0.5863 -2.3731  0.4488
  355MOL0     H47881   4.583   4.899   9.832 -0.1664  1.3547  0.0374
  355MOL0     H47882   4.500   5.039   9.767 -0.0565  1.1176 -3.9836
  355MOL0     H47883   4.718   5.111   9.861 -0.7648  1.5578 -0.6821
  355MOL0     H47884   4.699   5.152   9.688  2.1585 -1.4293 -1.5269
  355MOL0     H47885   4.908   5.202   9.573  0.3159  1.1258  0.9933
  355MOL0     H47886   5.158   5.283   9.569  0.0974 -0.7816 -0.0939
  355MOL0     H47887   5.601   5.212   9.634  0.5942  0.3830 -0.3543
  355MOL0     H47888   5.818   5.226   9.643 -2.4873 -0.8064 -1.2819
  355MOL0     H47889   6.120   5.233   9.757  2.5699 -0.7293  3.0760
  355MOL0     H47890   5.983   5.345   9.757  1.1477  1.0779  0.5855
  355MOL0     H47891   6.029   5.409   9.972  0.6956 -0.7701  1.4894
  355MOL0     H47892   6.151   5.291  10.007 -0.3612 -0.3845 -0.8919
  355MOL0     H47893   6.186   5.501   9.793 -1.2602 -0.2956  0.5842
  355MOL0     H47894   6.227   5.527   9.950 -2.6683  2.7917 -3.8105
  355MOL0     H47895   6.341   5.291   9.780 -1.3606 -0.0863 -1.4750
  355MOL0     H47896   6.401   5.335   9.938  2.4474  0.2194  0.0313
  355MOL0     H47897   6.444   5.468   9.666 -0.5161  0.4524  0.2106
  355MOL0     H47898   6.559   5.391   9.770 -0.2473 -1.0025 -1.9974
  355MOL0     H47899   6.386   5.642   9.813  1.1488  2.4067 -0.4638
  355MOL0     H47900   6.490   5.575   9.938 -1.7383  2.2095 -0.0852
  355MOL0     H47901   6.609   5.641   9.668 -2.3567  0.1187 -1.1557
  355MOL0     H47902   6.676   5.612   9.831 -2.5517 -3.9859  2.0325
  355MOL0     H47903   6.522   5.811   9.899 -0.0113 -1.2548  0.3697
  355MOL0     H47904   6.669   5.863   9.823 -1.2145  2.5570 -0.1536
  355MOL0     H47905   5.826   5.128  10.062  0.5103 -1.5362  0.2422
  355MOL0     H47906   5.585   5.110  10.056  0.5524 -3.3977 -0.2341
  355MOL0     H47907   5.227   5.041   9.919 -1.2974 -0.8905 -0.4575
  355MOL0     H47908   4.995   4.940   9.897  0.9104 -0.6012 -0.3142
  355MOL0     H47909   3.902   5.118   8.400  2.8412  1.3326 -2.1904
  355MOL0     H47910   3.800   5.010   8.214 -0.8899 -1.6502  2.2775
  355MOL0     H47911   3.704   4.764   7.906  3.1328  4.4528  0.1471
  355MOL0     H47912   3.651   4.669   7.679 -1.6049  0.0713  0.8448
  355MOL0     H47913   3.497   4.594   7.455 -0.6433  0.5563 -0.7516
  355MOL0     H47914   3.649   4.675   7.452 -0.4659 -2.8787 -1.6399
  355MOL0     H47915   3.613   4.811   7.255 -1.5150  0.4251 -0.5829
  355MOL0     H47916   3.448   4.755   7.231  0.1119  0.5799  0.1749
  355MOL0     H47917   3.508   4.529   7.197  0.1266 -0.2724  2.4432
  355MOL0     H47918   3.679   4.563   7.231 -1.1722  0.6935  2.9741
  355MOL0     H47919   3.673   4.708   7.021  1.6749 -1.4027 -1.3003
  355MOL0     H47920   3.652   4.539   6.993  1.6230 -0.5265  3.0439
  355MOL0     H47921   3.286   4.662   6.858  0.8256 -3.6785  0.0044
  355MOL0     H47922   3.380   4.983   7.603 -0.3037  0.8917  0.3523
  355MOL0     H47923   3.486   5.191   7.861  0.1919 -0.5797  2.3181
  355MOL0     H47924   3.325   5.149   7.790  0.2898  0.1014 -0.3410
  355MOL0     H47925   3.358   5.103   7.949  1.2483 -0.8944  1.0635
  356MOL0     O47926   4.607   2.686   2.072  0.0774  0.6083  0.9579
  356MOL0     C47927   4.676   2.742   1.986 -0.1081 -0.6017 -0.1217
  356MOL0     O47928   4.729   2.867   1.998  0.4680 -0.4882  0.3690
  356MOL0     C47929   4.726   2.945   2.112  0.4553 -0.5525  0.8283
  356MOL0     C47930   4.628   2.934   2.209 -0.4709  0.4927 -0.0465
  356MOL0     C47931   4.638   3.014   2.324 -0.6646  0.9315 -0.1247
  356MOL0     C47932   4.743   3.103   2.347  0.0229  0.7070  0.4856
  356MOL0     O47933   4.729   3.175   2.464  0.2457  0.0198  0.5463
  356MOL0     C47934   4.855   3.225   2.523 -0.1333 -0.0202 -0.3090
  356MOL0     C47935   4.836   3.329   2.633  1.2051 -0.0021 -0.1988
  356MOL0     C47936   4.755   3.457   2.589 -1.4149  0.0027  0.0456
  356MOL0     C47937   4.715   3.557   2.696 -0.3920  1.0730  0.9392
  356MOL0     C47938   4.632   3.657   2.627  0.8707  0.1511  0.0679
  356MOL0     C47939   4.605   3.758   2.735  0.2016  0.3827  0.4219
  356MOL0     C47940   4.548   3.879   2.669 -1.0084 -1.5731  0.2733
  356MOL0     C47941   4.557   4.004   2.759 -0.0811  0.1235 -0.4121
  356MOL0     N47942   4.486   3.994   2.890  0.0766  0.6352 -0.5658
  356MOL0     C47943   4.382   4.073   2.920 -0.1765  0.9146 -0.1974
  356MOL0     C47944   4.353   4.041   3.054  0.2150  0.1150  0.2325
  356MOL0     C47945   4.243   4.078   3.139  0.1653 -0.1718 -0.3305
  356MOL0     C47946   4.289   4.177   3.247 -0.1414  0.7242  0.3505
  356MOL0     C47947   4.174   4.225   3.329  0.4896  0.4522 -0.4446
  356MOL0     C47948   4.232   4.279   3.460  0.1773  0.1440  0.1863
  356MOL0     O47949   4.320   4.386   3.427  0.0278  0.5744  0.9312
  356MOL0     C47950   4.426   4.405   3.506 -0.4938 -0.4374 -0.3223
  356MOL0     C47951   4.554   4.422   3.456 -1.4032  0.0092 -0.6178
  356MOL0     C47952   4.665   4.454   3.544  0.5564  0.6416  0.4315
  356MOL0     C47953   4.648   4.466   3.682  0.6870 -0.4317 -0.5812
  356MOL0     C47954   4.765   4.499   3.775 -0.0433 -1.4502  0.4507
  356MOL0     O47955   4.740   4.565   3.886 -0.3675 -1.1486 -0.0581
  356MOL0     C47956   4.844   4.633   3.951 -1.3302  0.3714  0.3088
  356MOL0     C47957   4.837   4.637   4.097  0.2282  0.4932 -0.8463
  356MOL0     C47958   4.926   4.724   4.168 -0.6162  0.7147  0.3701
  356MOL0     C47959   5.036   4.780   4.107 -0.5052 -0.4586  0.0168
  356MOL0     O47960   5.137   4.851   4.176 -0.0675  0.9992  0.5113
  356MOL0     C47961   5.188   4.791   4.289  0.2926  0.9044 -0.5021
  356MOL0     C47962   5.317   4.856   4.344  0.5204 -1.3580  0.1105
  356MOL0     C47963   5.438   4.846   4.233  0.3084  0.0463  0.2660
  356MOL0     C47964   5.482   4.700   4.213  0.8318 -0.4195  0.0253
  356MOL0     C47965   5.616   4.695   4.134  0.3399 -0.0125 -0.1548
  356MOL0     C47966   5.661   4.553   4.087  0.2905  0.0824 -0.6129
  356MOL0     C47967   5.723   4.468   4.213  0.3771  0.7789 -0.3894
  356MOL0     C47968   5.745   4.321   4.177  0.9378 -0.0258 -0.8266
  356MOL0    Cl47969   5.746   4.190   4.293 -0.3374 -0.0158  0.1741
  356MOL0     C47970   5.039   4.765   3.967 -0.7463  0.4883  0.8980
  356MOL0     C47971   4.939   4.707   3.891  0.4790 -0.2659 -0.6127
  356MOL0     O47972   4.879   4.465   3.736  0.2439  0.4759 -1.0048
  356MOL0     C47973   4.513   4.451   3.727  0.6216 -0.3357 -0.0091
  356MOL0     C47974   4.404   4.427   3.640  0.0936 -0.9825 -0.9429
  356MOL0     N47975   4.453   3.955   3.100  0.0768 -0.3269 -0.5813
  356MOL0     N47976   4.525   3.920   2.994  0.0112 -0.9757  0.1703
  356MOL0     C47977   4.851   3.097   2.249 -0.2019 -0.2039 -0.2104
  356MOL0     C47978   4.835   3.030   2.125 -0.6672 -0.4984  0.5433
  356MOL0     C47979   4.708   2.666   1.862  0.2525 -1.1069  0.1009
  356MOL0     C47980   4.719   2.752   1.750 -0.6272 -0.7933 -0.4745
  356MOL0     C47981   4.761   2.698   1.624 -0.0964 -0.6017  0.3624
  356MOL0     C47982   4.795   2.561   1.611  0.8608 -0.5277 -0.1850
  356MOL0     O47983   4.828   2.532   1.480  0.8001 -0.2438  0.1329
  356MOL0     C47984   4.871   2.398   1.448  0.1902 -0.0093 -0.1437
  356MOL0     C47985   4.887   2.376   1.297 -0.1883  1.0081  0.2865
  356MOL0     C47986   4.984   2.473   1.234 -0.2396  0.2571 -0.5153
  356MOL0     C47987   4.916   2.580   1.160  0.3135 -0.5127  0.9636
  356MOL0     C47988   5.012   2.685   1.123 -0.0368  0.5701 -0.0230
  356MOL0     C47989   5.086   2.775   1.110 -0.5396 -0.5468  0.2032
  356MOL0     C47990   4.779   2.471   1.720 -0.8255 -0.5772 -0.8986
  356MOL0     C47991   4.742   2.527   1.845  0.1553 -0.1043 -0.5460
  356MOL0     C47992   4.740   2.448   1.973  0.0276 -0.3770 -0.6227
  356MOL0     H47993   4.540   2.878   2.177 -0.4214 -1.0715  2.2901
  356MOL0     H47994   4.549   3.015   2.387  0.4885 -2.5295  1.8569
  356MOL0     H47995   4.903   3.141   2.576 -0.2482  1.1101  1.6998
  356MOL0     H47996   4.921   3.261   2.444 -2.8775  0.5177 -2.5036
  356MOL0     H47997   4.936   3.359   2.666 -0.5976  4.3317  2.1461
  356MOL0     H47998   4.780   3.274   2.710  0.6211  0.7436 -0.0766
  356MOL0     H47999   4.659   3.414   2.558 -2.6614  3.2781 -1.0892
  356MOL0     H48000   4.791   3.506   2.498  1.3655 -1.7204  0.1126
  356MOL0     H48001   4.664   3.504   2.777  0.0682  0.0552  0.5724
  356MOL0     H48002   4.808   3.603   2.732  1.2812 -1.5574  0.2508
  356MOL0     H48003   4.691   3.706   2.549  1.3453  0.4675  0.6106
  356MOL0     H48004   4.534   3.615   2.604 -0.6550  2.5683  1.6649
  356MOL0     H48005   4.539   3.706   2.806 -0.0208 -1.0092 -0.7698
  356MOL0     H48006   4.702   3.784   2.778  0.4993 -0.2722  0.1488
  356MOL0     H48007   4.447   3.860   2.630  0.7875 -3.1163 -4.3903
  356MOL0     H48008   4.606   3.901   2.579 -2.4100 -1.2157 -0.5755
  356MOL0     H48009   4.659   4.037   2.781 -0.3497 -0.8812  2.8821
  356MOL0     H48010   4.514   4.094   2.716  1.4898  0.0518 -2.2506
  356MOL0     H48011   4.325   4.123   2.842 -0.3447 -1.5810 -1.8202
  356MOL0     H48012   4.169   4.125   3.074  1.4203  0.8979 -1.0403
  356MOL0     H48013   4.201   3.993   3.193  3.0337 -0.7691  1.1490
  356MOL0     H48014   4.369   4.149   3.315 -2.2892 -1.0323  2.3446
  356MOL0     H48015   4.318   4.269   3.196  0.3553 -0.3445 -1.3657
  356MOL0     H48016   4.099   4.147   3.342 -1.6530  2.7520  2.0644
  356MOL0     H48017   4.121   4.301   3.270  0.2646 -2.1266 -3.8939
  356MOL0     H48018   4.284   4.190   3.498  0.9981 -0.2855 -1.8188
  356MOL0     H48019   4.148   4.320   3.518 -0.6340  0.2406 -1.0237
  356MOL0     H48020   4.586   4.402   3.354  1.7639  1.3366 -0.0073
  356MOL0     H48021   4.760   4.477   3.496  0.9429 -2.6663 -0.6606
  356MOL0     H48022   4.759   4.576   4.142  2.4827 -1.8087  0.1623
  356MOL0     H48023   4.923   4.722   4.276  2.1516  0.0596  0.4992
  356MOL0     H48024   5.112   4.787   4.367  0.3198 -0.3200 -0.5121
  356MOL0     H48025   5.217   4.686   4.280 -0.1852  0.8527 -1.4940
  356MOL0     H48026   5.299   4.952   4.394 -0.2633 -0.4070 -1.8871
  356MOL0     H48027   5.353   4.789   4.423  1.6089 -0.2287  0.6063
  356MOL0     H48028   5.410   4.905   4.146  0.1930  2.9007  2.1189
  356MOL0     H48029   5.523   4.891   4.286  0.8521 -2.4359  1.6796
  356MOL0     H48030   5.408   4.642   4.157  2.0880 -1.1900 -0.9052
  356MOL0     H48031   5.501   4.654   4.310 -1.6348  3.8245  2.8684
  356MOL0     H48032   5.696   4.741   4.192  0.9347 -0.2416 -0.7754
  356MOL0     H48033   5.605   4.758   4.045  0.0827  0.0997 -0.0437
  356MOL0     H48034   5.580   4.500   4.036  0.5427 -2.0345  1.0328
  356MOL0     H48035   5.743   4.565   4.016  2.6270 -0.2380  1.8587
  356MOL0     H48036   5.640   4.461   4.283  1.7778 -1.0688  1.1745
  356MOL0     H48037   5.807   4.512   4.268  1.1869  0.3052 -1.2056
  356MOL0     H48038   5.656   4.290   4.120  0.2455  2.3556 -1.1426
  356MOL0     H48039   5.837   4.315   4.118  2.8139  1.4068  1.7888
  356MOL0     H48040   5.126   4.812   3.922  0.9048 -0.4588  2.9553
  356MOL0     H48041   4.913   4.727   3.788  1.3896  0.3986 -0.7239
  356MOL0     H48042   4.485   4.466   3.830  0.1689 -1.3578  0.0330
  356MOL0     H48043   4.301   4.435   3.671  0.3542 -0.1005 -0.2584
  356MOL0     H48044   4.932   3.169   2.256 -0.2656 -0.1019 -0.4901
  356MOL0     H48045   4.919   3.039   2.057 -1.5900 -0.0153 -0.5656
  356MOL0     H48046   4.686   2.855   1.754  1.6743 -0.0065  0.0296
  356MOL0     H48047   4.767   2.751   1.529  0.9177  0.8116  1.1698
  356MOL0     H48048   4.792   2.335   1.490  0.5727 -1.6629 -1.7809
  356MOL0     H48049   4.966   2.377   1.497  0.4442  0.9190 -0.2226
  356MOL0     H48050   4.788   2.364   1.251 -1.0304  1.8534  1.7877
  356MOL0     H48051   4.934   2.278   1.305 -0.9936  0.7373  5.5810
  356MOL0     H48052   5.053   2.419   1.169 -0.2579 -1.3384  0.7518
  356MOL0     H48053   5.039   2.514   1.319 -0.5869 -0.3503  0.0096
  356MOL0     H48054   4.861   2.542   1.072 -0.6676 -1.5592  1.9919
  356MOL0     H48055   4.851   2.633   1.230  0.4420  1.8546 -0.6106
  356MOL0     H48056   5.151   2.859   1.103 -2.3547  0.9405  0.2948
  356MOL0     H48057   4.818   2.370   1.709  3.9621  1.0940 -1.6797
  356MOL0     H48058   4.789   2.506   2.051 -3.1402  1.1830  0.3777
  356MOL0     H48059   4.638   2.433   2.009 -0.2772 -1.5145 -1.8827
  356MOL0     H48060   4.773   2.345   1.959 -2.6653 -1.1593 -1.9882
  357MOL0     O48061   9.824   4.331  10.470 -0.7815  0.4187 -0.2817
  357MOL0     C48062   9.836   4.405  10.376  0.2821 -0.3419  0.4128
  357MOL0     O48063   9.819   4.539  10.384  0.8790 -0.2707 -0.4290
  357MOL0     C48064   9.766   4.596  10.494  0.8695 -0.1230 -0.1053
  357MOL0     C48065   9.839   4.632  10.609 -0.5081  1.0586  0.1055
  357MOL0     C48066   9.773   4.696  10.718 -0.1220  0.0002  1.2272
  357MOL0     C48067   9.641   4.730  10.712  0.7690 -0.8345  0.2346
  357MOL0     O48068   9.581   4.808  10.815  0.4229  0.7024  0.0380
  357MOL0     C48069   9.435   4.828  10.825 -0.5878  0.0262 -0.9886
  357MOL0     C48070   9.396   4.897  10.955  0.8395  0.2856 -0.5411
  357MOL0     C48071   9.452   4.836  11.083  0.0346 -0.0224 -0.2546
  357MOL0     C48072   9.433   4.687  11.079 -0.7995 -0.3850 -0.5181
  357MOL0     C48073   9.517   4.607  11.191 -0.3882 -0.5345  0.7853
  357MOL0     C48074   9.652   4.568  11.126 -0.3009  0.0870 -0.7825
  357MOL0     C48075   9.651   4.437  11.048  0.4360  0.4599  0.2339
  357MOL0     C48076   9.790   4.404  11.009 -0.9089  0.8393  1.0014
  357MOL0     N48077   9.787   4.264  10.969 -1.2852 -0.2893  0.9304
  357MOL0     C48078   9.699   4.205  10.879 -0.8280 -0.3947  0.5140
  357MOL0     C48079   9.715   4.074  10.906 -0.2835 -0.0013  1.3327
  357MOL0     C48080   9.632   3.970  10.816 -0.7365  0.1472 -0.7591
  357MOL0     C48081   9.488   4.010  10.810  0.7678  0.2542 -0.0774
  357MOL0     C48082   9.425   3.975  10.944  0.1861 -0.0400  0.4778
  357MOL0     C48083   9.278   4.005  10.946  0.7380  0.0691 -0.5440
  357MOL0     O48084   9.248   4.151  10.929 -0.1755 -0.0727  0.2699
  357MOL0     C48085   9.252   4.236  11.035 -0.7262  0.3484 -0.7167
  357MOL0     C48086   9.308   4.208  11.167  1.2415  0.2499 -0.1177
  357MOL0     C48087   9.281   4.290  11.272 -0.2306 -0.2672 -0.3397
  357MOL0     C48088   9.206   4.410  11.250 -0.0018 -0.7440 -0.1973
  357MOL0     C48089   9.192   4.502  11.366  1.0844  1.1910  0.4347
  357MOL0     O48090   9.147   4.629  11.335 -0.4251 -0.1837  0.2468
  357MOL0     C48091   9.105   4.722  11.432  0.4556  0.7754  0.4089
  357MOL0     C48092   8.988   4.797  11.398  0.2140  0.7458 -0.1860
  357MOL0     C48093   8.920   4.877  11.491  0.3875 -0.1573 -0.2804
  357MOL0     C48094   8.974   4.904  11.616 -0.2570 -0.1660  0.5395
  357MOL0     O48095   8.902   4.986  11.698  0.6273 -0.7935  0.5193
  357MOL0     C48096   8.953   5.041  11.826 -0.4131  0.4658  0.4952
  357MOL0     C48097   8.865   5.150  11.891  0.0144  0.5006  0.1140
  357MOL0     C48098   8.932   5.229  12.003  0.5304 -0.1259  0.0433
  357MOL0     C48099   8.971   5.152  12.130 -0.0564 -0.5240 -0.3941
  357MOL0     C48100   9.094   5.212  12.197  0.3594 -0.4506  0.5868
  357MOL0     C48101   9.227   5.158  12.126 -0.3559  0.4957 -0.7037
  357MOL0     C48102   9.357   5.176  12.213  0.4439  0.2905 -0.2817
  357MOL0     C48103   9.485   5.147  12.130 -0.7096  0.6388 -0.0182
  357MOL0    Cl48104   9.618   5.246  12.196 -0.2030 -0.8249  0.6399
  357MOL0     C48105   9.092   4.839  11.649 -0.0052  0.0667 -0.2936
  357MOL0     C48106   9.155   4.749  11.556  0.5868  0.6092  0.4298
  357MOL0     O48107   9.218   4.456  11.476  0.2454  0.1294 -0.8795
  357MOL0     C48108   9.158   4.437  11.126 -0.4571 -0.2979  0.4304
  357MOL0     C48109   9.176   4.353  11.017 -0.1468  0.3771  0.7712
  357MOL0     N48110   9.807   4.060  10.999  0.8772 -0.0070 -0.1271
  357MOL0     N48111   9.845   4.172  11.044 -0.4588  0.4107 -0.3301
  357MOL0     C48112   9.568   4.685  10.601  0.0319 -0.1340 -0.2121
  357MOL0     C48113   9.627   4.620  10.494 -0.7167 -0.1487  0.2812
  357MOL0     C48114   9.883   4.349  10.247  0.2794  0.9316 -0.7942
  357MOL0     C48115   9.831   4.403  10.124  0.4515 -0.2268  0.1211
  357MOL0     C48116   9.843   4.330  10.000  0.6794  0.8666 -0.0819
  357MOL0     C48117   9.902   4.202  10.000  0.4028  0.1054  0.1739
  357MOL0     O48118   9.911   4.130   9.879 -0.1238  0.3349 -0.8630
  357MOL0     C48119   9.823   4.019   9.877 -0.1858 -0.1358 -0.1581
  357MOL0     C48120   9.681   4.070   9.843  0.5719  0.2047 -0.5024
  357MOL0     C48121   9.681   4.129   9.698  0.6160 -0.1760 -0.6421
  357MOL0     C48122   9.549   4.182   9.669 -0.5937  0.1569 -0.9201
  357MOL0     C48123   9.539   4.271   9.550 -0.2370 -0.2135 -0.4068
  357MOL0     C48124   9.553   4.355   9.455  0.5198  0.6479 -0.3037
  357MOL0     C48125   9.963   4.154  10.120  0.0665 -0.1494  0.6807
  357MOL0     C48126   9.947   4.225  10.233 -0.4734  0.5604 -0.1644
  357MOL0     C48127  10.008   4.159  10.354 -0.0183  0.7885  0.3829
  357MOL0     H48128   9.945   4.613  10.602 -0.7421 -1.5625  2.1141
  357MOL0     H48129   9.833   4.709  10.807  3.7026 -2.2857 -0.7801
  357MOL0     H48130   9.410   4.889  10.737 -0.4859  0.6793 -0.5767
  357MOL0     H48131   9.390   4.729  10.823  5.8116 -3.5496  2.1003
  357MOL0     H48132   9.287   4.891  10.963  0.9561 -0.2167  0.8641
  357MOL0     H48133   9.432   5.000  10.945  1.6883 -0.0682 -1.2825
  357MOL0     H48134   9.426   4.887  11.176  3.1896  0.6330  0.4128
  357MOL0     H48135   9.560   4.856  11.080 -0.3562  2.6335  0.6665
  357MOL0     H48136   9.327   4.677  11.103 -0.2694  1.9657  3.9519
  357MOL0     H48137   9.457   4.639  10.984  0.5377 -1.7748  0.4754
  357MOL0     H48138   9.535   4.672  11.278  1.4978  1.4920 -0.9934
  357MOL0     H48139   9.472   4.514  11.227  0.6716 -0.5912  2.0490
  357MOL0     H48140   9.685   4.641  11.051  2.2299  0.3018  0.4413
  357MOL0     H48141   9.723   4.569  11.208 -1.0250 -0.4362 -0.1352
  357MOL0     H48142   9.590   4.437  10.957  0.1995 -1.6572  0.3400
  357MOL0     H48143   9.616   4.360  11.117  2.4797 -1.9483 -1.2306
  357MOL0     H48144   9.830   4.467  10.928 -0.3307 -0.5742  0.1406
  357MOL0     H48145   9.863   4.415  11.090  3.3289  2.0988 -2.5748
  357MOL0     H48146   9.637   4.256  10.806  1.4294  3.0311  0.7150
  357MOL0     H48147   9.663   3.964  10.711 -1.3724  1.8801 -1.0849
  357MOL0     H48148   9.646   3.870  10.858 -1.4855  1.0827  1.9605
  357MOL0     H48149   9.478   4.117  10.790 -2.0555  0.2636  0.9032
  357MOL0     H48150   9.441   3.948  10.733  2.4458 -2.0025  0.6296
  357MOL0     H48151   9.472   4.025  11.029 -3.7530  2.4158  1.4455
  357MOL0     H48152   9.446   3.869  10.961 -2.3349 -0.3748  1.8756
  357MOL0     H48153   9.222   3.972  11.034 -1.0953  2.9562 -0.4666
  357MOL0     H48154   9.230   3.956  10.861 -2.4591  4.0809 -1.4238
  357MOL0     H48155   9.381   4.130  11.186  2.1356  0.6436 -1.7288
  357MOL0     H48156   9.338   4.267  11.361 -2.4092  3.1351  2.2269
  357MOL0     H48157   8.954   4.775  11.297  3.7235 -0.9814 -1.1802
  357MOL0     H48158   8.827   4.921  11.458  1.3041  2.8655  0.8611
  357MOL0     H48159   8.957   4.958  11.898  1.2615  3.2071  3.8576
  357MOL0     H48160   9.057   5.074  11.834 -0.3695  0.2784  0.7232
  357MOL0     H48161   8.831   5.199  11.799  1.3764 -1.4344 -1.5264
  357MOL0     H48162   8.778   5.094  11.925 -0.2830  0.6553 -0.3714
  357MOL0     H48163   9.023   5.275  11.963 -0.5875  0.2550 -2.2532
  357MOL0     H48164   8.865   5.307  12.042  0.1802  0.7765 -2.2107
  357MOL0     H48165   8.971   5.043  12.124 -0.2593 -0.6736  1.6496
  357MOL0     H48166   8.896   5.170  12.207 -1.6407 -1.1798 -1.7282
  357MOL0     H48167   9.093   5.188  12.304  1.9272 -2.2571  0.2593
  357MOL0     H48168   9.088   5.320  12.181 -2.8351 -0.3810  1.5123
  357MOL0     H48169   9.220   5.052  12.102 -2.1270  0.8759 -2.1012
  357MOL0     H48170   9.233   5.214  12.033  0.3031  4.6669  1.5754
  357MOL0     H48171   9.343   5.118  12.305 -0.5327  1.8745  0.6168
  357MOL0     H48172   9.364   5.278  12.251 -2.4352  0.6251 -0.4164
  357MOL0     H48173   9.505   5.039  12.131  0.2030  0.7880  1.6595
  357MOL0     H48174   9.474   5.169  12.024  1.2009  2.5998  0.1184
  357MOL0     H48175   9.128   4.844  11.751 -0.9535 -2.1324  0.2260
  357MOL0     H48176   9.243   4.691  11.583  0.2614 -0.2848 -0.3636
  357MOL0     H48177   9.092   4.524  11.120 -0.8285 -0.6667 -2.6462
  357MOL0     H48178   9.118   4.358  10.925  1.5049  0.5746 -0.2879
  357MOL0     H48179   9.463   4.701  10.579 -0.0035  0.0937  0.1120
  357MOL0     H48180   9.587   4.576  10.404  0.4694  2.1524 -1.4572
  357MOL0     H48181   9.773   4.494  10.131 -0.5997 -0.9444  1.0153
  357MOL0     H48182   9.807   4.370   9.906  2.1863 -0.6580 -1.3678
  357MOL0     H48183   9.814   3.963   9.970  0.2055 -2.5691 -1.5146
  357MOL0     H48184   9.855   3.954   9.795 -1.1204  1.6918 -2.0743
  357MOL0     H48185   9.658   4.147   9.917 -0.8721  0.7866 -1.5322
  357MOL0     H48186   9.613   3.985   9.850 -0.4741  0.7873 -2.8618
  357MOL0     H48187   9.716   4.067   9.615 -2.4612  1.2331 -3.2459
  357MOL0     H48188   9.749   4.214   9.709  1.3579 -0.4244 -2.9449
  357MOL0     H48189   9.476   4.100   9.663 -1.9737  1.1106  1.4036
  357MOL0     H48190   9.515   4.245   9.752  1.9789 -0.9221  1.0642
  357MOL0     H48191   9.578   4.429   9.382 -1.5563  2.7400  0.9352
  357MOL0     H48192  10.021   4.063  10.112  0.8052  0.4837 -1.8819
  357MOL0     H48193  10.063   4.067  10.336 -0.9795 -0.3137  2.5876
  357MOL0     H48194  10.080   4.227  10.402  0.5349  1.2599 -1.0776
  357MOL0     H48195   9.933   4.138  10.431  1.5006  4.1612  3.0966
  358MOL0     O48196   0.784  11.321   5.356 -0.4843 -0.4767 -0.4537
  358MOL0     C48197   0.730  11.245   5.276 -0.1638 -0.0425  0.9444
  358MOL0     O48198   0.748  11.107   5.276  0.7059 -0.1229 -0.2533
  358MOL0     C48199   0.857  11.063   5.353 -0.1710  0.2568  0.4096
  358MOL0     C48200   0.991  11.105   5.319 -0.3347 -0.0803 -0.5879
  358MOL0     C48201   1.100  11.032   5.370 -0.4903  0.3245  0.0329
  358MOL0     C48202   1.086  10.931   5.465  0.5182  0.3808 -0.4152
  358MOL0     O48203   1.183  10.848   5.509 -0.0042 -0.7213  0.6813
  358MOL0     C48204   1.308  10.911   5.546 -0.2945 -0.4318 -0.4962
  358MOL0     C48205   1.363  10.797   5.631  0.4621  0.3501 -0.0346
  358MOL0     C48206   1.487  10.846   5.703 -1.4981 -0.8388  0.6568
  358MOL0     C48207   1.603  10.886   5.604  0.3408  0.0776  0.3844
  358MOL0     C48208   1.753  10.864   5.640 -0.8774  0.9592 -0.2527
  358MOL0     C48209   1.794  10.717   5.598  0.4014  0.7933  0.6067
  358MOL0     C48210   1.913  10.649   5.676 -0.5805  0.1809  0.8690
  358MOL0     C48211   1.954  10.506   5.625 -0.2525 -0.3144 -0.8451
  358MOL0     N48212   2.029  10.403   5.698 -0.6052  0.3028 -0.7795
  358MOL0     C48213   2.122  10.400   5.796  0.2743 -0.9096 -0.4759
  358MOL0     C48214   2.189  10.289   5.786 -0.0993 -0.2207  0.1460
  358MOL0     C48215   2.295  10.254   5.882 -0.1808  0.2117  0.3746
  358MOL0     C48216   2.427  10.334   5.855 -1.2412 -0.9116  0.2249
  358MOL0     C48217   2.539  10.278   5.941 -0.4305 -0.0292  0.4185
  358MOL0     C48218   2.628  10.390   6.001 -0.1014 -0.6056 -0.6719
  358MOL0     O48219   2.700  10.325   6.111  1.3402  0.1617 -0.2748
  358MOL0     C48220   2.792  10.231   6.083 -1.6961  0.8482  0.6593
  358MOL0     C48221   2.871  10.239   5.969  0.1272  0.2731  0.4365
  358MOL0     C48222   2.965  10.144   5.935 -0.6708  0.5605 -0.2843
  358MOL0     C48223   2.983  10.027   6.015 -0.6394 -1.1475  0.7685
  358MOL0     C48224   3.056   9.924   5.965 -0.4967 -0.1328  0.8097
  358MOL0     O48225   3.140   9.952   5.855  0.2928  0.0177 -0.8264
  358MOL0     C48226   3.170   9.849   5.775 -0.6578  0.0859  0.3736
  358MOL0     C48227   3.077   9.775   5.710  0.5869  0.4236 -0.2017
  358MOL0     C48228   3.097   9.673   5.622  0.1017  0.2982  0.5108
  358MOL0     C48229   3.229   9.640   5.580  0.3679 -0.0246  0.3562
  358MOL0     O48230   3.249   9.517   5.516 -0.2337 -0.2388  0.6654
  358MOL0     C48231   3.381   9.454   5.518  0.4690 -0.0313 -0.8059
  358MOL0     C48232   3.378   9.322   5.438  0.1238  0.5781  0.6793
  358MOL0     C48233   3.507   9.296   5.357  0.6451  0.1507  1.0343
  358MOL0     C48234   3.478   9.172   5.263  0.1706 -0.5537  0.1872
  358MOL0     C48235   3.569   9.138   5.155  0.5620 -0.2192 -0.7716
  358MOL0     C48236   3.650   9.252   5.085  1.0116  0.4603  0.2226
  358MOL0     C48237   3.748   9.190   4.972 -0.5257  0.2236  0.0100
  358MOL0     C48238   3.808   9.292   4.879  0.3641 -0.5787 -0.5959
  358MOL0    Cl48239   3.920   9.196   4.772  0.5306  0.2373 -0.2712
  358MOL0     C48240   3.334   9.716   5.637 -0.6020 -1.3816 -0.2272
  358MOL0     C48241   3.298   9.817   5.733 -0.7347  0.5574 -0.5405
  358MOL0     O48242   3.053   9.820   6.032  0.3264  0.6674 -0.2785
  358MOL0     C48243   2.904  10.022   6.131  0.3455 -1.3981 -0.3847
  358MOL0     C48244   2.807  10.118   6.163  0.8324 -0.7610  0.8720
  358MOL0     N48245   2.136  10.218   5.683  0.2917  0.3146  0.6434
  358MOL0     N48246   2.046  10.285   5.630  0.7783  0.2671 -0.3455
  358MOL0     C48247   0.951  10.912   5.520 -0.0643 -0.2039  0.6803
  358MOL0     C48248   0.839  10.973   5.456  0.7670  0.6075 -0.0283
  358MOL0     C48249   0.664  11.307   5.153 -0.3744  0.6365 -0.4980
  358MOL0     C48250   0.585  11.233   5.065  0.2630  1.0135  0.0918
  358MOL0     C48251   0.517  11.289   4.964  0.4059 -0.1253 -0.7754
  358MOL0     C48252   0.532  11.423   4.939  1.4703 -0.9204  0.5662
  358MOL0     O48253   0.481  11.461   4.818 -0.0262 -0.1280 -0.0118
  358MOL0     C48254   0.495  11.376   4.702  0.3903  0.6226 -0.1848
  358MOL0     C48255   0.629  11.316   4.671 -0.9038  0.4002  0.1079
  358MOL0     C48256   0.718  11.417   4.599  0.6188  0.9714  0.2737
  358MOL0     C48257   0.856  11.369   4.550  1.1679  0.3975 -0.5035
  358MOL0     C48258   0.955  11.335   4.659  0.0268 -0.4049  0.0279
  358MOL0     C48259   1.036  11.341   4.749  0.1228 -0.8572 -0.9476
  358MOL0     C48260   0.614  11.510   5.019 -0.9394 -0.1703  0.6676
  358MOL0     C48261   0.682  11.441   5.122  0.8354  0.0012  0.2617
  358MOL0     C48262   0.776  11.538   5.191 -0.3129 -0.0220  0.3073
  358MOL0     H48263   1.009  11.177   5.239  2.6096 -0.7876 -0.6710
  358MOL0     H48264   1.205  11.043   5.342 -0.4827  1.1497  0.3618
  358MOL0     H48265   1.367  10.929   5.455  0.3225  0.4331  0.0573
  358MOL0     H48266   1.302  11.007   5.599 -1.4289 -0.4569 -0.5708
  358MOL0     H48267   1.384  10.719   5.557 -0.1329  1.9322 -1.9959
  358MOL0     H48268   1.288  10.760   5.700 -0.5218  0.6391 -0.9233
  358MOL0     H48269   1.521  10.760   5.761 -0.7566  0.5492  2.3538
  358MOL0     H48270   1.463  10.926   5.773  0.1466  1.2122 -0.9651
  358MOL0     H48271   1.597  10.830   5.511 -2.0732 -0.5244  0.8305
  358MOL0     H48272   1.596  10.991   5.575  2.0145  0.0675 -0.1568
  358MOL0     H48273   1.825  10.936   5.600  5.3029 -3.3415  1.7340
  358MOL0     H48274   1.755  10.881   5.748 -1.4848 -3.3394  0.6006
  358MOL0     H48275   1.712  10.646   5.611  0.9167 -0.3683 -1.9305
  358MOL0     H48276   1.815  10.723   5.491 -0.3401  3.3184  0.5245
  358MOL0     H48277   1.886  10.643   5.782  0.7572 -1.5520  1.1539
  358MOL0     H48278   2.003  10.711   5.679 -0.0570 -0.5578  3.7626
  358MOL0     H48279   1.858  10.458   5.604  1.0486 -2.5540 -2.0588
  358MOL0     H48280   2.004  10.532   5.531 -0.2758  4.2072  0.1787
  358MOL0     H48281   2.132  10.474   5.875  0.7387 -0.3216 -1.0689
  358MOL0     H48282   2.270  10.281   5.985  2.9548 -0.3166  1.3637
  358MOL0     H48283   2.317  10.147   5.878 -0.0598  0.2732 -1.6273
  358MOL0     H48284   2.459  10.322   5.751  0.2555 -0.2517  0.5939
  358MOL0     H48285   2.411  10.441   5.868  2.2865 -0.2211 -0.1731
  358MOL0     H48286   2.591  10.208   5.875 -0.9154 -0.0503  0.0629
  358MOL0     H48287   2.497  10.224   6.026 -1.3937  0.7154  0.4321
  358MOL0     H48288   2.560  10.464   6.045  0.3092  0.6788 -2.1069
  358MOL0     H48289   2.680  10.461   5.935 -2.0663 -0.7632 -2.5026
  358MOL0     H48290   2.865  10.327   5.906 -0.9663 -0.8419 -1.0800
  358MOL0     H48291   3.027  10.175   5.852 -0.8686 -2.4913 -1.6824
  358MOL0     H48292   2.975   9.799   5.740  1.1369  1.2118  1.1425
  358MOL0     H48293   3.016   9.621   5.573  1.0954  0.9916 -2.0037
  358MOL0     H48294   3.458   9.517   5.473 -2.1244  4.1367 -0.0417
  358MOL0     H48295   3.405   9.440   5.624 -1.5850  0.0900 -0.2785
  358MOL0     H48296   3.357   9.237   5.504  2.3410 -1.3447 -0.9091
  358MOL0     H48297   3.299   9.330   5.363  0.3349 -3.0436 -0.1222
  358MOL0     H48298   3.537   9.381   5.295 -0.2897 -1.2902 -1.5316
  358MOL0     H48299   3.593   9.280   5.423  0.9614 -0.2714  0.5301
  358MOL0     H48300   3.383   9.194   5.214  0.8774  0.9496 -0.5883
  358MOL0     H48301   3.471   9.087   5.331 -2.5857 -0.1598  0.5257
  358MOL0     H48302   3.521   9.074   5.080 -1.1047  0.7646 -0.5931
  358MOL0     H48303   3.651   9.077   5.195 -0.4378 -0.6492  0.6966
  358MOL0     H48304   3.572   9.310   5.036 -1.1331 -3.6035 -1.6967
  358MOL0     H48305   3.714   9.308   5.153 -1.5049  2.3056  1.1956
  358MOL0     H48306   3.692   9.114   4.917  0.6868  1.1987 -2.7723
  358MOL0     H48307   3.825   9.128   5.018 -1.8319  0.0326  2.0886
  358MOL0     H48308   3.734   9.354   4.828  1.3427  0.6774 -0.5430
  358MOL0     H48309   3.857   9.365   4.944  0.1290 -1.5294  0.6736
  358MOL0     H48310   3.441   9.705   5.627  0.1191 -0.6155  4.2697
  358MOL0     H48311   3.372   9.881   5.778  1.8687 -1.7137 -1.3004
  358MOL0     H48312   2.916   9.942   6.204  1.5540 -1.4761 -0.6441
  358MOL0     H48313   2.749  10.114   6.255 -0.3331  0.6439  0.2505
  358MOL0     H48314   0.937  10.838   5.598  1.8744  0.6025  1.8559
  358MOL0     H48315   0.739  10.948   5.487  1.0342  3.0259  3.3059
  358MOL0     H48316   0.589  11.125   5.074  3.1006  0.5814 -3.7816
  358MOL0     H48317   0.465  11.222   4.896 -2.8485  1.0147  0.3668
  358MOL0     H48318   0.468  11.427   4.608 -0.2398 -3.6563 -2.5971
  358MOL0     H48319   0.413  11.304   4.710  0.1758  0.7644 -1.0027
  358MOL0     H48320   0.633  11.222   4.614  0.8991  0.9158 -0.6733
  358MOL0     H48321   0.679  11.294   4.766 -0.8646 -0.2283 -0.0546
  358MOL0     H48322   0.726  11.510   4.656 -3.5319  2.5496 -1.3606
  358MOL0     H48323   0.662  11.446   4.510  4.7367  0.3238 -2.8214
  358MOL0     H48324   0.850  11.287   4.477 -1.8053 -0.6238  0.7295
  358MOL0     H48325   0.895  11.449   4.486  0.6133  2.0166  1.0852
  358MOL0     H48326   1.111  11.346   4.826  2.3147 -0.2773 -2.9903
  358MOL0     H48327   0.638  11.613   4.995 -0.0771 -0.4025  0.4857
  358MOL0     H48328   0.877  11.499   5.209  0.3928  1.6168  0.0979
  358MOL0     H48329   0.787  11.634   5.141 -1.3580 -1.4939 -3.0643
  358MOL0     H48330   0.736  11.552   5.292 -0.4183 -1.6923  0.5230
  359MOL0     O48331   2.251   4.857   3.350 -0.1787  0.0811 -0.2669
  359MOL0     C48332   2.371   4.826   3.330  0.2394  0.5546 -0.4444
  359MOL0     O48333   2.468   4.922   3.330 -0.3656 -0.7271 -0.1964
  359MOL0     C48334   2.430   5.043   3.372 -0.3074  0.5270  0.2378
  359MOL0     C48335   2.482   5.099   3.493  0.2699  0.1064  0.1656
  359MOL0     C48336   2.456   5.233   3.526 -0.3386 -0.3289  0.1270
  359MOL0     C48337   2.392   5.320   3.429 -0.0452  0.0132 -0.7238
  359MOL0     O48338   2.358   5.448   3.475 -0.1444  0.0087 -0.5454
  359MOL0     C48339   2.287   5.540   3.388  0.1222  0.9270  0.5479
  359MOL0     C48340   2.241   5.658   3.467  0.2719 -0.4289 -0.3510
  359MOL0     C48341   2.201   5.778   3.383  0.3298  0.2614  0.3001
  359MOL0     C48342   2.124   5.874   3.484 -0.6771 -0.1553 -0.4150
  359MOL0     C48343   2.054   5.996   3.423  0.1970  0.6466 -0.2747
  359MOL0     C48344   1.924   5.953   3.355 -0.6429  0.0125 -0.3463
  359MOL0     C48345   1.831   6.054   3.280 -0.2853 -0.1159 -0.1430
  359MOL0     C48346   1.884   6.069   3.139  0.0489 -0.9261  0.0980
  359MOL0     N48347   1.799   6.174   3.064 -0.5907 -0.3292 -0.1740
  359MOL0     C48348   1.848   6.296   3.008  0.0845  0.7971 -0.4452
  359MOL0     C48349   1.766   6.330   2.910  0.7007 -0.5970  1.0180
  359MOL0     C48350   1.790   6.448   2.818  0.1403  0.0235  0.0756
  359MOL0     C48351   1.688   6.557   2.837  0.1374  0.2068  0.0468
  359MOL0     C48352   1.724   6.622   2.975 -0.4958 -0.3212 -0.4428
  359MOL0     C48353   1.635   6.756   2.985 -0.5652 -0.5412 -0.4228
  359MOL0     O48354   1.507   6.711   3.029 -0.2866 -0.3216 -0.4226
  359MOL0     C48355   1.408   6.800   3.026 -0.0569  0.3040  0.3974
  359MOL0     C48356   1.308   6.790   2.935 -0.3870 -0.2189 -1.1441
  359MOL0     C48357   1.216   6.890   2.920  0.9328  0.0632  0.2751
  359MOL0     C48358   1.232   7.013   2.995  0.1064 -1.2677 -0.0672
  359MOL0     C48359   1.135   7.127   2.958  0.2873 -0.9716  0.3112
  359MOL0     O48360   1.033   7.113   2.857 -0.3473  0.0504  0.8263
  359MOL0     C48361   0.952   7.210   2.808 -1.2989  0.6536 -0.3664
  359MOL0     C48362   0.935   7.343   2.857 -0.0815  0.3454  1.1029
  359MOL0     C48363   0.856   7.439   2.793  0.3875  0.1659  0.2624
  359MOL0     C48364   0.774   7.409   2.675 -0.0637  0.4116  0.1440
  359MOL0     O48365   0.675   7.488   2.613  0.0271 -0.0214 -0.6773
  359MOL0     C48366   0.641   7.593   2.699 -0.4090  0.5495  0.2517
  359MOL0     C48367   0.522   7.669   2.653  0.1431  0.9307  0.1187
  359MOL0     C48368   0.532   7.747   2.524 -0.4074  0.0238 -0.0397
  359MOL0     C48369   0.389   7.803   2.488  0.3709  0.9283 -0.2174
  359MOL0     C48370   0.390   7.845   2.339  0.0481 -0.1751  0.1321
  359MOL0     C48371   0.255   7.902   2.306 -0.1206 -0.7107  0.0072
  359MOL0     C48372   0.252   7.948   2.158  0.0079 -0.2582  0.0728
  359MOL0     C48373   0.141   8.057   2.129  0.0953 -0.0053  0.4619
  359MOL0    Cl48374   0.188   8.233   2.162  0.2264 -0.4978 -0.1807
  359MOL0     C48375   0.789   7.274   2.637  0.0808 -0.4752  0.4589
  359MOL0     C48376   0.884   7.178   2.686 -0.5130  0.2785 -0.8026
  359MOL0     O48377   1.139   7.219   3.037 -0.7970  1.0157 -0.0228
  359MOL0     C48378   1.338   7.027   3.090  0.1488  0.3214  0.1200
  359MOL0     C48379   1.422   6.917   3.097  0.7601  0.0795  0.1724
  359MOL0     N48380   1.655   6.237   2.902  0.0568 -0.0452 -0.0539
  359MOL0     N48381   1.675   6.149   3.000  0.4643  0.3402 -0.0028
  359MOL0     C48382   2.346   5.268   3.313  0.7540  0.2599 -0.0235
  359MOL0     C48383   2.371   5.134   3.284  0.0877  0.0161 -0.1490
  359MOL0     C48384   2.411   4.676   3.305  0.1551  0.0927  1.0827
  359MOL0     C48385   2.533   4.657   3.236 -0.0309 -0.4643  0.4436
  359MOL0     C48386   2.567   4.529   3.191 -1.1377  1.0939 -0.5665
  359MOL0     C48387   2.485   4.420   3.223  0.2184 -0.1589 -0.7192
  359MOL0     O48388   2.527   4.297   3.189 -0.0713  0.3523  0.0010
  359MOL0     C48389   2.500   4.191   3.282 -0.0807 -0.2890 -0.9038
  359MOL0     C48390   2.589   4.068   3.264 -0.1515 -0.1547 -0.2490
  359MOL0     C48391   2.580   4.013   3.128  0.4089 -0.6001  0.3441
  359MOL0     C48392   2.608   3.865   3.132 -0.3660  0.5875  0.1485
  359MOL0     C48393   2.545   3.805   3.014 -0.0266 -0.1008 -0.0573
  359MOL0     C48394   2.512   3.750   2.915 -0.9472  0.4880  1.0524
  359MOL0     C48395   2.372   4.437   3.308  0.6168 -0.0651 -0.0427
  359MOL0     C48396   2.329   4.564   3.340  0.3474 -0.0674  0.6970
  359MOL0     C48397   2.198   4.570   3.408  0.0659  0.1297  0.0349
  359MOL0     H48398   2.554   5.041   3.550  0.6470 -1.2326 -1.5747
  359MOL0     H48399   2.490   5.262   3.625 -0.7524 -0.4491  0.3061
  359MOL0     H48400   2.353   5.570   3.306 -0.9049 -0.5565 -0.8747
  359MOL0     H48401   2.194   5.493   3.355  0.8110  0.5863 -0.9723
  359MOL0     H48402   2.323   5.694   3.529 -0.6580  0.5629  0.3279
  359MOL0     H48403   2.157   5.618   3.523  1.1477 -1.9122 -0.0340
  359MOL0     H48404   2.118   5.754   3.315  0.0931  1.9335 -0.0304
  359MOL0     H48405   2.277   5.843   3.339 -0.4504  1.3459  0.5168
  359MOL0     H48406   2.048   5.827   3.548 -1.8652  0.2333 -1.5022
  359MOL0     H48407   2.203   5.917   3.546 -0.0363 -1.7367 -0.0771
  359MOL0     H48408   2.033   6.058   3.511  4.0397 -0.0571  1.3406
  359MOL0     H48409   2.117   6.053   3.354  0.4897  0.9212  0.2125
  359MOL0     H48410   1.944   5.867   3.290 -0.6722 -1.6413  1.7251
  359MOL0     H48411   1.862   5.904   3.430 -1.2122  1.3946  0.1197
  359MOL0     H48412   1.823   6.141   3.345 -1.6080  0.2559 -0.7671
  359MOL0     H48413   1.727   6.020   3.273 -0.5710  0.2963  1.7463
  359MOL0     H48414   1.989   6.098   3.145 -0.6193  2.1113 -1.1484
  359MOL0     H48415   1.874   5.968   3.097  1.6418 -3.3054  4.6809
  359MOL0     H48416   1.927   6.356   3.052 -2.0837  2.5039  1.3601
  359MOL0     H48417   1.889   6.490   2.836 -0.2857  1.3681 -0.5884
  359MOL0     H48418   1.812   6.405   2.720  6.9504  1.4146  0.5213
  359MOL0     H48419   1.702   6.633   2.760  1.4935  1.4598  1.4733
  359MOL0     H48420   1.589   6.510   2.828 -0.2716  1.1096 -0.2098
  359MOL0     H48421   1.830   6.646   2.981 -0.4074 -1.0764  1.8352
  359MOL0     H48422   1.700   6.547   3.050 -0.8337  0.8321  0.6416
  359MOL0     H48423   1.634   6.817   2.894  2.2788  1.3309  0.6389
  359MOL0     H48424   1.675   6.817   3.066 -2.0358  0.3854 -0.3667
  359MOL0     H48425   1.315   6.696   2.882  1.6469 -2.1642  2.1624
  359MOL0     H48426   1.127   6.895   2.860  1.0257  3.6670  0.2061
  359MOL0     H48427   0.983   7.372   2.950  0.1853 -1.7688  1.6730
  359MOL0     H48428   0.848   7.539   2.835 -2.3415  0.6805 -1.2378
  359MOL0     H48429   0.623   7.553   2.800  2.2611 -1.4807  0.0591
  359MOL0     H48430   0.725   7.663   2.701  0.1024 -0.0308 -0.3314
  359MOL0     H48431   0.442   7.594   2.650  3.0882 -2.5221 -0.1170
  359MOL0     H48432   0.507   7.745   2.730  0.4534  1.1435 -0.0314
  359MOL0     H48433   0.610   7.823   2.538 -0.7539  0.2864  0.5066
  359MOL0     H48434   0.565   7.690   2.437 -0.4298  2.8685 -2.0501
  359MOL0     H48435   0.371   7.875   2.568 -1.4480  0.6747 -0.3538
  359MOL0     H48436   0.317   7.722   2.504  2.0413 -0.5890 -0.0320
  359MOL0     H48437   0.420   7.761   2.276 -2.0304 -0.9935  0.1711
  359MOL0     H48438   0.472   7.918   2.328  1.2379 -1.2547  1.4605
  359MOL0     H48439   0.176   7.826   2.312 -0.6401 -0.1800 -0.0813
  359MOL0     H48440   0.225   7.986   2.369  0.1854  0.6309 -1.5649
  359MOL0     H48441   0.222   7.858   2.103  2.8312 -0.8491 -0.6424
  359MOL0     H48442   0.353   7.974   2.125  0.1728 -0.4839  0.3868
  359MOL0     H48443   0.115   8.050   2.023  0.7391 -1.1828  0.3786
  359MOL0     H48444   0.047   8.046   2.185  0.6585  0.7028  1.5714
  359MOL0     H48445   0.748   7.262   2.536  0.4530  1.0081  0.1195
  359MOL0     H48446   0.900   7.085   2.632  0.0444  0.8851 -1.7136
  359MOL0     H48447   1.349   7.114   3.154 -1.9069  1.1362 -0.5294
  359MOL0     H48448   1.511   6.935   3.157  0.7889  1.9078 -0.3652
  359MOL0     H48449   2.312   5.322   3.225  0.2743  1.9241  1.1480
  359MOL0     H48450   2.332   5.106   3.187 -1.6635 -1.0254  0.8032
  359MOL0     H48451   2.587   4.744   3.200 -1.0753  0.6758  1.5411
  359MOL0     H48452   2.655   4.498   3.137 -1.4538 -0.0835 -0.4280
  359MOL0     H48453   2.394   4.161   3.279 -0.4834  1.1324 -3.5056
  359MOL0     H48454   2.508   4.236   3.381 -0.8697 -0.2238 -0.8583
  359MOL0     H48455   2.547   3.992   3.331  0.5041 -0.5137 -0.2379
  359MOL0     H48456   2.694   4.076   3.293  0.1047 -4.2710  0.6591
  359MOL0     H48457   2.650   4.063   3.060 -0.5478 -1.5395 -1.4090
  359MOL0     H48458   2.480   4.031   3.089 -0.2221  1.2665  2.5755
  359MOL0     H48459   2.716   3.850   3.126 -0.5902 -1.5113  0.4582
  359MOL0     H48460   2.561   3.811   3.215 -1.2172 -2.5528 -2.1731
  359MOL0     H48461   2.488   3.703   2.822  1.1092  1.8259 -0.2222
  359MOL0     H48462   2.323   4.347   3.342  4.7112 -3.2173 -1.5396
  359MOL0     H48463   2.119   4.574   3.332 -1.1535  2.3506  1.3179
  359MOL0     H48464   2.194   4.478   3.467  1.8797 -0.1419 -0.1982
  359MOL0     H48465   2.194   4.658   3.472 -0.1359  0.6669 -0.6949
  360MOL0     O48466   3.333   5.939   0.476  0.0353 -0.7466  0.0520
  360MOL0     C48467   3.236   5.943   0.548  0.2443  0.6720 -0.3550
  360MOL0     O48468   3.216   5.868   0.658  0.0373 -1.1144 -0.2325
  360MOL0     C48469   3.307   5.771   0.698  1.5541 -0.1199 -0.6007
  360MOL0     C48470   3.295   5.643   0.638 -0.4466  0.5852  0.0944
  360MOL0     C48471   3.382   5.540   0.661  0.1457  0.3655 -0.7082
  360MOL0     C48472   3.486   5.558   0.752  0.2340 -0.7203 -0.0420
  360MOL0     O48473   3.586   5.459   0.766  0.8275 -0.4575 -0.0722
  360MOL0     C48474   3.532   5.343   0.822 -1.1538  0.7327 -0.1660
  360MOL0     C48475   3.601   5.328   0.963 -0.1952 -0.4683  0.4311
  360MOL0     C48476   3.534   5.420   1.065 -0.1549 -0.5526 -0.2341
  360MOL0     C48477   3.390   5.387   1.113 -0.2308 -0.8889 -0.7249
  360MOL0     C48478   3.291   5.492   1.070  0.2353  0.1978 -0.2371
  360MOL0     C48479   3.294   5.634   1.154  0.3486  0.5640  0.9016
  360MOL0     C48480   3.192   5.738   1.097 -0.9487 -0.3671  0.0715
  360MOL0     C48481   3.043   5.727   1.133  0.2525  0.8546  0.2577
  360MOL0     N48482   2.979   5.627   1.042 -0.3886  0.7807 -0.0222
  360MOL0     C48483   2.924   5.653   0.919  0.5905  0.0722 -1.0964
  360MOL0     C48484   2.841   5.549   0.904 -1.2645  0.5875 -0.3639
  360MOL0     C48485   2.746   5.522   0.793  0.3926 -0.3597 -0.0998
  360MOL0     C48486   2.599   5.538   0.839  0.3530 -0.8676  0.5226
  360MOL0     C48487   2.518   5.468   0.723  0.3194  0.1142 -0.1167
  360MOL0     C48488   2.371   5.498   0.743  0.3560  0.4055  0.2899
  360MOL0     O48489   2.346   5.635   0.710 -0.3172 -0.4211  0.4373
  360MOL0     C48490   2.218   5.670   0.715  1.1833  0.1693 -0.3006
  360MOL0     C48491   2.191   5.795   0.671 -0.0883  0.0648 -0.1243
  360MOL0     C48492   2.061   5.856   0.686  0.5696  0.6160 -0.1557
  360MOL0     C48493   1.952   5.778   0.731 -0.2435  0.7421  0.2184
  360MOL0     C48494   1.810   5.837   0.733  1.1328  1.1189  0.1064
  360MOL0     O48495   1.698   5.759   0.746  0.4116  0.9029  0.4210
  360MOL0     C48496   1.589   5.825   0.792 -0.1166  0.6580 -0.3235
  360MOL0     C48497   1.548   5.824   0.930  0.2593 -0.5530  0.5137
  360MOL0     C48498   1.438   5.892   0.980 -0.3784 -0.0954  0.0333
  360MOL0     C48499   1.373   5.975   0.888 -0.0074  0.3329  0.2116
  360MOL0     O48500   1.258   6.025   0.950  0.0568  0.2811 -0.2939
  360MOL0     C48501   1.161   6.090   0.868 -0.4859 -0.0634  0.5959
  360MOL0     C48502   1.049   6.144   0.948  1.4290  0.8960  0.2404
  360MOL0     C48503   0.942   6.190   0.845  0.1595 -0.6224  0.2165
  360MOL0     C48504   0.837   6.080   0.814 -0.3854  0.1665 -0.5216
  360MOL0     C48505   0.770   6.112   0.689 -0.5040 -0.5419  0.1523
  360MOL0     C48506   0.716   5.984   0.627 -0.1828  0.0989  0.2140
  360MOL0     C48507   0.633   6.004   0.499 -0.0487 -0.2278 -0.2854
  360MOL0     C48508   0.713   6.063   0.378  0.5177 -0.3722 -0.2471
  360MOL0    Cl48509   0.627   6.217   0.318 -0.4255  0.3380  0.4574
  360MOL0     C48510   1.400   5.975   0.753 -0.0233 -0.5777  0.2258
  360MOL0     C48511   1.511   5.902   0.706  0.7474  0.4440 -0.1914
  360MOL0     O48512   1.812   5.959   0.733 -0.8497 -0.4398  0.7849
  360MOL0     C48513   1.973   5.637   0.751 -0.3840 -0.0789 -0.1384
  360MOL0     C48514   2.103   5.590   0.749 -0.2085  0.0082  0.6036
  360MOL0     N48515   2.850   5.462   1.020 -0.0424 -0.5309 -0.2330
  360MOL0     N48516   2.940   5.508   1.098 -0.6249 -0.9385  0.3444
  360MOL0     C48517   3.498   5.683   0.823  0.4214  0.4283  0.1180
  360MOL0     C48518   3.410   5.787   0.796  0.6128 -0.9530  0.4248
  360MOL0     C48519   3.133   6.042   0.514 -0.3470 -0.0824  0.9084
  360MOL0     C48520   3.162   6.172   0.458 -0.3808  1.0188 -0.9514
  360MOL0     C48521   3.063   6.240   0.390 -0.1909  0.1521 -0.0891
  360MOL0     C48522   2.933   6.201   0.381 -0.2705 -0.0500 -0.7220
  360MOL0     O48523   2.844   6.282   0.307  0.1639 -0.7072 -0.2359
  360MOL0     C48524   2.831   6.419   0.349  0.6994 -0.4333 -0.6723
  360MOL0     C48525   2.683   6.452   0.344  0.2251  0.3047 -0.2559
  360MOL0     C48526   2.586   6.363   0.428  0.8358  0.4637 -0.4997
  360MOL0     C48527   2.603   6.373   0.592  1.2487 -0.3440  0.3669
  360MOL0     C48528   2.613   6.514   0.632 -0.2762 -0.9855  0.4750
  360MOL0     C48529   2.615   6.626   0.670  0.2919  0.4103 -0.3011
  360MOL0     C48530   2.893   6.090   0.459 -0.4445 -1.1529  0.1879
  360MOL0     C48531   2.989   6.007   0.515  0.3129  0.6012 -0.0899
  360MOL0     C48532   2.937   5.865   0.558 -0.4387 -0.1234  0.0934
  360MOL0     H48533   3.227   5.629   0.555 -0.4720  0.0825  0.1955
  360MOL0     H48534   3.383   5.442   0.614 -1.2681  0.4592 -0.9873
  360MOL0     H48535   3.423   5.335   0.822 -1.0542 -1.1903 -0.5794
  360MOL0     H48536   3.567   5.259   0.761  0.4624  2.3250 -1.5445
  360MOL0     H48537   3.707   5.347   0.945 -0.5003  0.8085 -0.1001
  360MOL0     H48538   3.596   5.229   1.010  0.8650  0.1735  1.9519
  360MOL0     H48539   3.539   5.518   1.017 -1.9532 -0.3508 -0.0813
  360MOL0     H48540   3.597   5.425   1.155  0.2348 -2.3381 -0.3675
  360MOL0     H48541   3.362   5.284   1.089 -0.7404 -0.6275 -1.2717
  360MOL0     H48542   3.388   5.396   1.222 -0.1199  1.0938 -0.8641
  360MOL0     H48543   3.292   5.504   0.961 -0.2236  2.3149 -0.0410
  360MOL0     H48544   3.197   5.457   1.115  0.8420 -0.3047  0.6789
  360MOL0     H48545   3.284   5.614   1.261  0.0229 -0.5704  0.6668
  360MOL0     H48546   3.397   5.670   1.142  0.6821 -1.1295 -2.1569
  360MOL0     H48547   3.202   5.743   0.988 -1.3801 -1.0477 -0.0066
  360MOL0     H48548   3.214   5.841   1.127  0.0507 -1.0065  1.6569
  360MOL0     H48549   3.018   5.701   1.236  2.3842 -3.1175  0.0032
  360MOL0     H48550   2.993   5.821   1.110 -0.4120 -0.1561 -2.9852
  360MOL0     H48551   2.915   5.743   0.858 -0.4021  0.9129  0.2310
  360MOL0     H48552   2.766   5.587   0.707 -2.9024  0.0148 -0.6977
  360MOL0     H48553   2.761   5.415   0.773  1.1541 -0.3148  0.1983
  360MOL0     H48554   2.579   5.493   0.936  2.4151  0.2802  1.5565
  360MOL0     H48555   2.576   5.645   0.845  1.5010 -0.5704 -0.0708
  360MOL0     H48556   2.534   5.360   0.729 -1.3672 -0.2354 -1.1949
  360MOL0     H48557   2.545   5.501   0.622 -2.9671 -0.3385 -1.2724
  360MOL0     H48558   2.335   5.475   0.844  1.0142  1.0298  0.6769
  360MOL0     H48559   2.309   5.428   0.687 -3.1597  1.8239  2.0660
  360MOL0     H48560   2.275   5.852   0.632  0.1519 -1.7319 -2.5005
  360MOL0     H48561   2.039   5.955   0.648 -3.1941  0.7196  1.8093
  360MOL0     H48562   1.607   5.773   1.005  1.5338 -2.3848 -1.6026
  360MOL0     H48563   1.411   5.878   1.084 -2.1639 -1.7167 -0.5787
  360MOL0     H48564   1.212   6.177   0.826 -1.4231 -0.3570 -1.2535
  360MOL0     H48565   1.137   6.027   0.781  2.6379 -2.1804  1.0907
  360MOL0     H48566   0.999   6.079   1.020 -0.2330  1.6403 -0.2020
  360MOL0     H48567   1.091   6.231   1.000  1.1955  0.4088  1.2687
  360MOL0     H48568   0.880   6.270   0.884 -0.8734 -0.9505 -0.7115
  360MOL0     H48569   0.993   6.222   0.754 -0.2968  0.6241  0.3840
  360MOL0     H48570   0.768   6.059   0.896 -0.5123  3.9792  0.5334
  360MOL0     H48571   0.898   5.990   0.799  2.2136  1.6260  0.6551
  360MOL0     H48572   0.842   6.166   0.627 -2.7778  1.4404 -0.9192
  360MOL0     H48573   0.684   6.179   0.698 -1.2625 -0.8661 -3.3066
  360MOL0     H48574   0.800   5.918   0.601  0.2215  0.1795  1.2944
  360MOL0     H48575   0.655   5.926   0.697 -2.1205  0.9522 -0.7062
  360MOL0     H48576   0.552   6.073   0.526  2.3501  1.8308  2.1710
  360MOL0     H48577   0.589   5.907   0.473  0.0197 -1.2414  2.9386
  360MOL0     H48578   0.815   6.097   0.401 -0.2611  3.2612 -1.6253
  360MOL0     H48579   0.710   6.003   0.287 -0.3903  0.2572 -0.6351
  360MOL0     H48580   1.342   6.037   0.686  1.1619  1.8073  1.2597
  360MOL0     H48581   1.552   5.925   0.608  1.0839  1.6924  0.2263
  360MOL0     H48582   1.887   5.577   0.779  2.6341 -2.9116  4.4691
  360MOL0     H48583   2.111   5.484   0.773  2.8161  0.1565  0.6858
  360MOL0     H48584   3.588   5.689   0.883  1.9611 -1.0596 -1.9232
  360MOL0     H48585   3.410   5.881   0.851  0.0059  1.1579 -2.9159
  360MOL0     H48586   3.267   6.190   0.440  0.9055 -2.0586  2.2596
  360MOL0     H48587   3.086   6.334   0.342 -4.4129  1.4976  0.1572
  360MOL0     H48588   2.888   6.487   0.285  0.2662 -1.2122 -1.9041
  360MOL0     H48589   2.862   6.436   0.453 -5.2994  1.3059  1.2040
  360MOL0     H48590   2.653   6.443   0.239 -1.0902 -1.0914  0.2025
  360MOL0     H48591   2.656   6.551   0.381 -0.2849  0.4149 -0.8892
  360MOL0     H48592   2.594   6.256   0.404  0.7337  0.2812  0.2417
  360MOL0     H48593   2.485   6.391   0.397 -0.1898 -3.1394 -0.8786
  360MOL0     H48594   2.524   6.329   0.653  0.0513 -0.1632 -1.0004
  360MOL0     H48595   2.698   6.322   0.612  2.1197  0.8704 -0.5245
  360MOL0     H48596   2.594   6.724   0.706  0.9701  0.3886  0.1714
  360MOL0     H48597   2.790   6.058   0.472 -2.0381  2.6438 -1.5077
  360MOL0     H48598   2.977   5.797   0.483 -0.2260  0.7702 -0.6183
  360MOL0     H48599   2.968   5.842   0.661 -0.7127 -0.4725  0.1006
  360MOL0     H48600   2.829   5.862   0.540 -0.7233  4.0387  0.1622
  361MOL0     O48601  10.793   8.365   2.037  0.0088 -0.7922 -0.3062
  361MOL0     C48602  10.714   8.288   1.984 -0.3171 -0.8150  0.6418
  361MOL0     O48603  10.583   8.313   1.957  0.2959  0.1327 -0.5882
  361MOL0     C48604  10.521   8.436   1.959 -0.2134 -0.2795  0.4232
  361MOL0     C48605  10.575   8.546   1.901 -0.0847 -0.5870 -0.0035
  361MOL0     C48606  10.502   8.661   1.902  0.4582  0.1776  0.0878
  361MOL0     C48607  10.378   8.674   1.961 -0.4818  0.1914  0.1890
  361MOL0     O48608  10.323   8.795   1.981  0.1171  0.1542 -0.4071
  361MOL0     C48609  10.406   8.904   2.025  0.9279 -0.3691 -0.3239
  361MOL0     C48610  10.487   8.869   2.155  0.6026  0.6727  0.1311
  361MOL0     C48611  10.537   9.001   2.213 -0.2936  0.7350  0.5828
  361MOL0     C48612  10.631   8.972   2.328 -0.1121 -0.1357  0.0026
  361MOL0     C48613  10.683   9.103   2.374  0.1611  0.9792 -0.2211
  361MOL0     C48614  10.585   9.191   2.460 -0.6709 -1.4335 -0.1889
  361MOL0     C48615  10.670   9.325   2.472  0.1046  0.9242 -0.4847
  361MOL0     C48616  10.604   9.422   2.575 -0.7905 -0.2320  0.1979
  361MOL0     N48617  10.626   9.553   2.519 -0.4515  0.0664 -0.7119
  361MOL0     C48618  10.547   9.611   2.421 -0.0045 -1.0314  0.4593
  361MOL0     C48619  10.608   9.729   2.399 -0.0827  0.7688  0.7991
  361MOL0     C48620  10.569   9.847   2.310  0.3995 -0.6249  0.9798
  361MOL0     C48621  10.628   9.835   2.162  0.1562  0.1977 -0.5651
  361MOL0     C48622  10.564   9.720   2.070 -0.2839 -0.4001  0.0017
  361MOL0     C48623  10.624   9.730   1.924 -0.4226 -0.5977 -1.3791
  361MOL0     O48624  10.555   9.643   1.838  1.3141 -0.0225  0.1532
  361MOL0     C48625  10.596   9.516   1.821 -0.0494 -0.2106  0.5206
  361MOL0     C48626  10.656   9.441   1.922  0.4072 -0.2752 -0.1428
  361MOL0     C48627  10.687   9.308   1.909  0.4512  0.9306  0.1851
  361MOL0     C48628  10.657   9.242   1.793  0.3015 -0.4831  0.0999
  361MOL0     C48629  10.681   9.100   1.773  0.2214  1.1720  0.2136
  361MOL0     O48630  10.631   9.042   1.656  0.8047  0.2519  0.4734
  361MOL0     C48631  10.648   8.906   1.640  0.4853 -0.6434  0.7814
  361MOL0     C48632  10.764   8.837   1.675 -0.7329  0.1007 -0.2870
  361MOL0     C48633  10.764   8.700   1.655 -0.8816  0.4167 -0.4458
  361MOL0     C48634  10.666   8.630   1.581  0.8021 -0.2039 -0.1125
  361MOL0     O48635  10.681   8.500   1.571 -0.4877 -0.0223 -0.5114
  361MOL0     C48636  10.565   8.414   1.556  0.4463  0.2095 -0.4133
  361MOL0     C48637  10.611   8.268   1.563 -0.1574 -0.3977 -0.4580
  361MOL0     C48638  10.671   8.223   1.435 -0.8648 -0.2656 -0.7447
  361MOL0     C48639  10.723   8.077   1.440 -0.1683  0.1165 -0.3632
  361MOL0     C48640  10.734   8.014   1.304  0.9765  0.2168 -0.7136
  361MOL0     C48641  10.832   8.085   1.216 -0.2065  0.1877 -0.5152
  361MOL0     C48642  10.915   7.988   1.131  0.9735 -0.0951 -0.4705
  361MOL0     C48643  10.837   7.951   1.006 -0.3495 -0.3970 -0.3017
  361MOL0    Cl48644  10.933   7.841   0.907 -0.2062 -0.1277 -0.0210
  361MOL0     C48645  10.551   8.703   1.551  0.3274  0.0872 -0.6332
  361MOL0     C48646  10.534   8.842   1.582  0.3821  0.1493  0.6325
  361MOL0     O48647  10.732   9.038   1.867 -0.0865 -0.1369  0.0618
  361MOL0     C48648  10.597   9.320   1.684  0.3645  0.0963  0.8884
  361MOL0     C48649  10.568   9.459   1.698 -0.3016 -0.2067 -0.0420
  361MOL0     N48650  10.723   9.738   2.472  0.0043  0.0044  0.4035
  361MOL0     N48651  10.732   9.630   2.543 -0.3205  0.5547 -0.3937
  361MOL0     C48652  10.327   8.568   2.034 -0.3756  0.8802  1.4149
  361MOL0     C48653  10.401   8.446   2.026  0.6415  0.2931  0.5802
  361MOL0     C48654  10.779   8.160   1.932  0.9634  0.1983  0.2402
  361MOL0     C48655  10.693   8.082   1.843  0.2564  0.2417 -0.1607
  361MOL0     C48656  10.754   7.980   1.769  0.2887 -0.6203 -0.2051
  361MOL0     C48657  10.884   7.938   1.772 -0.4360 -0.4228 -1.1667
  361MOL0     O48658  10.929   7.833   1.697 -0.0496 -0.6572  0.0984
  361MOL0     C48659  11.067   7.825   1.671  0.1280 -0.4997  0.2873
  361MOL0     C48660  11.129   7.943   1.607 -0.3283  0.2438  0.0479
  361MOL0     C48661  11.285   7.926   1.600  0.0987 -0.2065  0.4935
  361MOL0     C48662  11.353   7.921   1.740  0.0128 -0.1260 -0.5704
  361MOL0     C48663  11.489   7.973   1.739 -0.2244 -0.0576  0.7155
  361MOL0     C48664  11.599   8.022   1.732 -0.0734 -0.6954 -0.9859
  361MOL0     C48665  10.956   8.007   1.872  0.8831  0.9629 -0.1212
  361MOL0     C48666  10.913   8.119   1.942 -0.2165  0.4884  0.1608
  361MOL0     C48667  11.021   8.197   2.026 -0.0087 -0.1934 -1.3687
  361MOL0     H48668  10.674   8.539   1.855  0.2738  1.6457  0.3211
  361MOL0     H48669  10.554   8.750   1.869 -1.4656  1.7353  1.0727
  361MOL0     H48670  10.473   8.937   1.946  1.1025 -0.2164 -0.1115
  361MOL0     H48671  10.338   8.984   2.057 -0.8626 -1.7747 -0.4573
  361MOL0     H48672  10.578   8.814   2.129  1.0691  1.6380 -0.2992
  361MOL0     H48673  10.416   8.833   2.231 -0.0479  2.3258  0.3500
  361MOL0     H48674  10.460   9.074   2.238  0.1662  1.2196  0.5899
  361MOL0     H48675  10.588   9.064   2.140 -1.1792 -1.0799 -1.7406
  361MOL0     H48676  10.579   8.920   2.408  0.7895 -1.4133 -0.2178
  361MOL0     H48677  10.718   8.916   2.291 -2.4334 -2.2596 -2.7097
  361MOL0     H48678  10.774   9.086   2.433 -1.7124 -1.6184  2.2129
  361MOL0     H48679  10.717   9.152   2.283  1.9037 -1.0301 -0.7485
  361MOL0     H48680  10.484   9.211   2.424 -1.4719 -1.8788  1.6979
  361MOL0     H48681  10.575   9.142   2.557 -0.2361  0.4166  0.8429
  361MOL0     H48682  10.682   9.371   2.373 -2.1398  1.6863 -0.4536
  361MOL0     H48683  10.774   9.302   2.498 -0.1277 -2.6863 -2.2551
  361MOL0     H48684  10.495   9.417   2.575 -1.1576  3.8189  0.4882
  361MOL0     H48685  10.648   9.415   2.675 -1.5722 -1.3739  0.4715
  361MOL0     H48686  10.459   9.565   2.377  0.5320 -1.0699 -0.6066
  361MOL0     H48687  10.461   9.843   2.294  0.5579 -2.9086  0.1610
  361MOL0     H48688  10.597   9.947   2.346  3.0994 -1.1419  0.5471
  361MOL0     H48689  10.627   9.931   2.111 -2.6312  1.7881  2.1288
  361MOL0     H48690  10.734   9.813   2.177 -0.0072  0.8224  1.8237
  361MOL0     H48691  10.459   9.747   2.058  0.2041  1.5807 -0.2395
  361MOL0     H48692  10.566   9.622   2.117 -2.0593 -0.9694 -1.0048
  361MOL0     H48693  10.731   9.712   1.925  0.1533  2.1640 -2.5531
  361MOL0     H48694  10.605   9.835   1.897  0.2157  0.1362  0.8236
  361MOL0     H48695  10.686   9.486   2.016 -0.3538  0.3179 -0.1774
  361MOL0     H48696  10.730   9.256   1.994  0.0707  0.8083  0.3057
  361MOL0     H48697  10.852   8.895   1.701 -1.3055  0.6791  0.3917
  361MOL0     H48698  10.839   8.628   1.686 -2.8093 -1.2031  0.7017
  361MOL0     H48699  10.498   8.418   1.642  0.6976 -1.1537 -0.1376
  361MOL0     H48700  10.516   8.445   1.463 -0.0977  3.1068  0.7211
  361MOL0     H48701  10.688   8.264   1.641 -0.2515 -4.4014 -0.3612
  361MOL0     H48702  10.524   8.206   1.588  0.5229 -0.6460  1.4602
  361MOL0     H48703  10.598   8.228   1.353 -0.9013 -1.8784 -0.8341
  361MOL0     H48704  10.751   8.290   1.403 -1.6117  0.3812 -1.3224
  361MOL0     H48705  10.663   8.014   1.505  1.4696 -0.2689  0.8449
  361MOL0     H48706  10.820   8.075   1.492  0.2785  0.9946 -1.1279
  361MOL0     H48707  10.634   7.999   1.263  1.1622 -0.4031 -0.9458
  361MOL0     H48708  10.769   7.912   1.321  1.5228  0.7388  1.7194
  361MOL0     H48709  10.785   8.165   1.159 -1.1388 -0.8481 -1.2442
  361MOL0     H48710  10.911   8.126   1.279  0.8901  0.0942 -1.7886
  361MOL0     H48711  10.964   7.909   1.188  0.1089 -1.9720 -2.2127
  361MOL0     H48712  11.009   8.028   1.091  2.0526 -1.3023  0.7846
  361MOL0     H48713  10.736   7.913   1.025  0.4645 -1.7035  1.6614
  361MOL0     H48714  10.826   8.039   0.942 -1.1049  0.1029  0.4877
  361MOL0     H48715  10.462   8.647   1.524 -0.3909  0.1219  1.5045
  361MOL0     H48716  10.450   8.904   1.552  0.7149  0.5121  0.4400
  361MOL0     H48717  10.574   9.290   1.583 -0.4037  1.3625  0.6749
  361MOL0     H48718  10.521   9.517   1.619  1.2059 -0.4865 -1.2014
  361MOL0     H48719  10.245   8.570   2.106  0.4644 -1.0786  2.4824
  361MOL0     H48720  10.358   8.357   2.070  2.9404 -0.1045  2.1816
  361MOL0     H48721  10.586   8.101   1.834  0.6590  1.6285 -3.6844
  361MOL0     H48722  10.688   7.927   1.700  0.3153 -1.8341  0.6683
  361MOL0     H48723  11.086   7.740   1.604 -4.2972  0.6021 -2.7899
  361MOL0     H48724  11.116   7.803   1.767  0.4474  0.8496  0.4493
  361MOL0     H48725  11.110   8.032   1.667  1.7012  0.9721 -0.2902
  361MOL0     H48726  11.099   7.960   1.504 -0.5273 -0.4623 -0.0151
  361MOL0     H48727  11.326   8.007   1.538 -3.0352  1.2887  0.1455
  361MOL0     H48728  11.313   7.837   1.543  0.7145  2.0468 -3.1164
  361MOL0     H48729  11.300   7.973   1.820  3.4712 -0.3471  2.0816
  361MOL0     H48730  11.353   7.817   1.775  1.2410 -0.8066 -2.4097
  361MOL0     H48731  11.697   8.059   1.711  0.0494 -0.9049 -0.7908
  361MOL0     H48732  11.049   7.960   1.904  0.4808  0.5075  0.4024
  361MOL0     H48733  11.024   8.302   1.997 -0.9737  0.1920 -0.1623
  361MOL0     H48734  11.005   8.193   2.134 -3.0853  0.1018 -1.7129
  361MOL0     H48735  11.119   8.155   2.003 -1.2933 -3.4293 -1.5594
  362MOL0     O48736   0.071   1.584   2.194  0.3670  0.6978 -0.9873
  362MOL0     C48737  -0.049   1.598   2.152  0.3455  0.1265 -0.0612
  362MOL0     O48738  -0.073   1.654   2.030 -0.1151 -0.2174  0.2266
  362MOL0     C48739  -0.199   1.707   2.023 -1.0459  1.0014  0.0772
  362MOL0     C48740  -0.287   1.661   1.924 -0.4766 -0.2477  0.1327
  362MOL0     C48741  -0.410   1.722   1.908 -0.0041  0.6295  0.6734
  362MOL0     C48742  -0.466   1.806   2.006 -0.7062  0.0758 -0.6446
  362MOL0     O48743  -0.599   1.847   1.988  0.1582 -0.6933  0.1680
  362MOL0     C48744  -0.676   1.817   2.101 -0.2948  0.0088  0.7185
  362MOL0     C48745  -0.816   1.872   2.077 -0.0424 -0.8343 -0.7037
  362MOL0     C48746  -0.834   2.003   2.003 -0.2183  0.0015  0.5685
  362MOL0     C48747  -0.983   2.046   1.998  1.2451  0.0500  0.3350
  362MOL0     C48748  -1.025   2.157   1.901  0.1712 -0.0902 -0.8392
  362MOL0     C48749  -1.164   2.155   1.854  0.5824  0.5071 -0.3460
  362MOL0     C48750  -1.195   2.267   1.752 -0.0632  0.5160 -0.4438
  362MOL0     C48751  -1.336   2.262   1.698  0.7105 -0.4545 -0.2125
  362MOL0     N48752  -1.350   2.169   1.590 -0.0600  0.4184 -0.1494
  362MOL0     C48753  -1.312   2.197   1.459  1.2795 -0.5297 -0.5583
  362MOL0     C48754  -1.347   2.075   1.399 -0.0529 -0.4010  0.2138
  362MOL0     C48755  -1.349   2.042   1.253 -0.1984 -0.2697  0.9059
  362MOL0     C48756  -1.442   1.924   1.224 -0.2933 -0.0690 -0.0654
  362MOL0     C48757  -1.581   1.957   1.279  0.0649  0.4292 -1.0448
  362MOL0     C48758  -1.693   1.899   1.196  0.6366  0.0493  0.1764
  362MOL0     O48759  -1.703   1.981   1.081 -0.6597  0.0635  0.3771
  362MOL0     C48760  -1.788   1.925   0.983  0.5010 -1.4455  0.7718
  362MOL0     C48761  -1.906   1.847   0.998 -0.3018  1.0541 -0.4134
  362MOL0     C48762  -1.976   1.784   0.892  0.7906 -0.5808 -0.3745
  362MOL0     C48763  -1.930   1.812   0.755 -0.7148  0.0158 -0.0494
  362MOL0     C48764  -1.992   1.738   0.641  0.8449 -0.2753  0.4915
  362MOL0     O48765  -1.963   1.766   0.511 -0.0373 -0.5167 -0.2050
  362MOL0     C48766  -2.056   1.727   0.406 -0.0677  0.4867  0.1986
  362MOL0     C48767  -1.998   1.693   0.281 -0.2617  0.8563 -0.2896
  362MOL0     C48768  -2.075   1.662   0.167 -0.7400  0.6220  0.1723
  362MOL0     C48769  -2.215   1.677   0.166 -0.3653  0.3640  0.6471
  362MOL0     O48770  -2.290   1.650   0.057  0.1415  0.3282 -0.0416
  362MOL0     C48771  -2.237   1.621  -0.072 -0.7740  0.0883  0.5760
  362MOL0     C48772  -2.338   1.677  -0.166 -0.3554  0.2477  0.0356
  362MOL0     C48773  -2.300   1.684  -0.315  0.1500  0.1168  0.5567
  362MOL0     C48774  -2.214   1.566  -0.368 -0.8148 -0.0511  0.5105
  362MOL0     C48775  -2.202   1.580  -0.519 -0.4096 -0.3991  0.0901
  362MOL0     C48776  -2.136   1.468  -0.587 -0.6571  0.0281  0.9690
  362MOL0     C48777  -2.124   1.500  -0.744  1.1444  0.0646 -0.3952
  362MOL0     C48778  -2.248   1.461  -0.820  0.1529 -0.1037  0.2374
  362MOL0    Cl48779  -2.231   1.531  -0.974 -0.1934  0.3895 -0.1558
  362MOL0     C48780  -2.272   1.712   0.288 -1.2786 -0.8388 -0.0546
  362MOL0     C48781  -2.193   1.733   0.405 -0.1859 -0.1118 -0.6250
  362MOL0     O48782  -2.087   1.670   0.672  0.6533 -0.1146 -0.2790
  362MOL0     C48783  -1.819   1.896   0.737 -0.2512  0.1949  0.3542
  362MOL0     C48784  -1.749   1.951   0.853 -0.3812 -0.3281  0.7418
  362MOL0     N48785  -1.355   1.981   1.499  0.8474  0.1861 -0.6091
  362MOL0     N48786  -1.366   2.037   1.610 -0.0429  0.7929 -0.9949
  362MOL0     C48787  -0.381   1.845   2.112 -0.7468 -0.1956 -0.4148
  362MOL0     C48788  -0.246   1.799   2.119  0.0439 -0.0147  0.7063
  362MOL0     C48789  -0.143   1.520   2.226 -0.2069  0.0849  0.0836
  362MOL0     C48790  -0.201   1.410   2.155 -0.1338 -0.2687 -0.8077
  362MOL0     C48791  -0.304   1.337   2.218  0.7751  0.5946 -0.2103
  362MOL0     C48792  -0.333   1.341   2.350  0.0908  0.0077  0.7725
  362MOL0     O48793  -0.435   1.261   2.387  0.4632  1.1580  0.5742
  362MOL0     C48794  -0.461   1.240   2.530  0.1603 -0.3972  0.2102
  362MOL0     C48795  -0.567   1.327   2.577 -0.8174  0.3932 -0.1000
  362MOL0     C48796  -0.560   1.334   2.734 -0.0458  0.3445  0.0853
  362MOL0     C48797  -0.668   1.424   2.801 -0.0532 -0.8662  0.3889
  362MOL0     C48798  -0.806   1.394   2.754  0.1300 -0.1305  0.9220
  362MOL0     C48799  -0.926   1.380   2.723 -0.5561 -0.1745  0.4065
  362MOL0     C48800  -0.251   1.435   2.420  0.5942  0.3233 -0.1886
  362MOL0     C48801  -0.150   1.522   2.369 -0.5532 -0.4999 -0.5300
  362MOL0     C48802  -0.068   1.621   2.453  0.3056  0.4596  0.4280
  362MOL0     H48803  -0.254   1.578   1.862  0.4758  0.2023  0.0222
  362MOL0     H48804  -0.474   1.712   1.821 -0.4366 -1.5574  1.1662
  362MOL0     H48805  -0.682   1.709   2.113  0.9539 -0.2925 -1.0282
  362MOL0     H48806  -0.623   1.862   2.186 -0.1667 -1.2406  1.3140
  362MOL0     H48807  -0.870   1.884   2.171  0.9635 -0.9745 -0.0895
  362MOL0     H48808  -0.884   1.803   2.027 -0.5468 -0.1859 -0.9292
  362MOL0     H48809  -0.798   1.989   1.900 -0.5813  2.5952  0.0310
  362MOL0     H48810  -0.766   2.080   2.039 -0.8077  0.5681  0.4836
  362MOL0     H48811  -1.044   1.959   1.972 -0.5579  1.2681  0.3018
  362MOL0     H48812  -1.020   2.070   2.098 -3.7043 -1.5522 -0.8159
  362MOL0     H48813  -1.019   2.259   1.940 -0.5596 -0.3579  0.0088
  362MOL0     H48814  -0.969   2.147   1.807  0.6702  1.6742 -0.7691
  362MOL0     H48815  -1.198   2.059   1.816 -0.5511  0.1386  1.4768
  362MOL0     H48816  -1.223   2.176   1.944  1.4705 -0.5137  0.4911
  362MOL0     H48817  -1.121   2.252   1.672  0.5203 -2.8693  0.5660
  362MOL0     H48818  -1.196   2.369   1.792 -1.5670 -1.0421  4.0152
  362MOL0     H48819  -1.404   2.249   1.783 -0.0050  2.4810 -0.2423
  362MOL0     H48820  -1.368   2.361   1.664  0.0001 -0.2619  0.9480
  362MOL0     H48821  -1.272   2.280   1.402 -1.1973 -1.4783 -4.0189
  362MOL0     H48822  -1.371   2.117   1.177  0.7196 -2.6797 -1.9532
  362MOL0     H48823  -1.249   2.011   1.219 -0.4639  0.4780 -0.6234
  362MOL0     H48824  -1.440   1.917   1.115 -0.6765  1.4884 -0.1921
  362MOL0     H48825  -1.390   1.837   1.266  1.1021  0.4815 -0.6092
  362MOL0     H48826  -1.608   2.060   1.305  2.5097  1.0457 -0.6844
  362MOL0     H48827  -1.580   1.918   1.381 -1.6655  3.4875  0.2950
  362MOL0     H48828  -1.781   1.884   1.259  0.1350 -1.4022 -0.8008
  362MOL0     H48829  -1.657   1.800   1.166  1.8352  0.1091  1.3573
  362MOL0     H48830  -1.950   1.839   1.097 -0.6780  0.1278 -0.6452
  362MOL0     H48831  -2.045   1.702   0.904  1.7732 -1.3782 -0.0429
  362MOL0     H48832  -1.892   1.670   0.277 -0.2242 -0.3359  3.6548
  362MOL0     H48833  -2.021   1.622   0.081 -1.1284  0.7092 -0.1178
  362MOL0     H48834  -2.138   1.661  -0.094 -1.0435  0.9461  0.8848
  362MOL0     H48835  -2.231   1.514  -0.093  0.4531  0.1461  0.5621
  362MOL0     H48836  -2.437   1.634  -0.154 -0.5955  1.0281  1.0181
  362MOL0     H48837  -2.348   1.785  -0.149 -3.0523  0.2859 -1.2684
  362MOL0     H48838  -2.395   1.692  -0.368 -0.9785 -2.1042  2.0746
  362MOL0     H48839  -2.249   1.777  -0.341  0.7875 -0.6268 -0.9483
  362MOL0     H48840  -2.265   1.470  -0.360 -1.7575  0.6043  3.4477
  362MOL0     H48841  -2.111   1.556  -0.332 -0.0819 -2.0942 -1.8556
  362MOL0     H48842  -2.142   1.670  -0.538 -3.2355  1.2125 -2.0971
  362MOL0     H48843  -2.304   1.598  -0.557 -0.6177  0.5836  1.0828
  362MOL0     H48844  -2.041   1.451  -0.537 -0.3489  1.5012  0.9322
  362MOL0     H48845  -2.190   1.373  -0.577 -0.6641  0.1536  2.3139
  362MOL0     H48846  -2.039   1.455  -0.797  3.8889  2.7425  1.3528
  362MOL0     H48847  -2.108   1.608  -0.754 -2.1706  0.5650 -1.3553
  362MOL0     H48848  -2.258   1.352  -0.829  2.4194 -0.4372  1.0000
  362MOL0     H48849  -2.342   1.498  -0.779 -0.4242 -0.4672 -0.7291
  362MOL0     H48850  -2.380   1.715   0.298 -1.3885 -2.9297 -0.1827
  362MOL0     H48851  -2.249   1.772   0.489  0.9449  1.7449 -0.6872
  362MOL0     H48852  -1.784   1.916   0.635  1.1391  2.0710  1.1261
  362MOL0     H48853  -1.660   2.013   0.853 -0.9699  0.5462  0.9986
  362MOL0     H48854  -0.414   1.913   2.190 -1.9044 -2.0958  0.8557
  362MOL0     H48855  -0.176   1.828   2.196  0.2271 -0.0343  0.5501
  362MOL0     H48856  -0.170   1.374   2.058  1.6960  0.1029 -0.4016
  362MOL0     H48857  -0.348   1.252   2.166  1.9538 -0.9273  1.1827
  362MOL0     H48858  -0.367   1.252   2.586  2.8792  1.1491 -4.1257
  362MOL0     H48859  -0.487   1.135   2.550 -0.3760 -0.0770  1.2621
  362MOL0     H48860  -0.666   1.292   2.546 -2.6349  0.8411  4.3300
  362MOL0     H48861  -0.564   1.430   2.540 -2.3349  0.2367 -0.7434
  362MOL0     H48862  -0.461   1.365   2.770 -0.3798 -0.5216  1.8666
  362MOL0     H48863  -0.568   1.231   2.771  2.3794  0.5994  1.5360
  362MOL0     H48864  -0.669   1.410   2.910 -1.4319  1.1786  0.6826
  362MOL0     H48865  -0.646   1.529   2.781 -0.1667 -1.0647 -0.8550
  362MOL0     H48866  -1.033   1.383   2.723 -1.0259 -4.1164 -3.9995
  362MOL0     H48867  -0.257   1.433   2.528  2.0866 -1.0951 -0.0933
  362MOL0     H48868  -0.048   1.710   2.392  1.9905 -0.1195  0.0809
  362MOL0     H48869  -0.116   1.640   2.550  2.1606  2.9926  0.9604
  362MOL0     H48870   0.032   1.582   2.476  0.8891 -0.9716 -3.6521
  363MOL0     O48871   5.212   0.574   2.927  0.3969 -0.2929  0.0364
  363MOL0     C48872   5.327   0.610   2.938  2.0109  0.2285  0.0799
  363MOL0     O48873   5.410   0.553   3.025 -0.5834 -0.0123  0.2780
  363MOL0     C48874   5.361   0.458   3.117  0.0248  0.0543  0.3930
  363MOL0     C48875   5.280   0.498   3.228 -0.0204 -0.0576 -0.1697
  363MOL0     C48876   5.249   0.411   3.328 -0.3656 -0.0093  0.4132
  363MOL0     C48877   5.310   0.281   3.341  0.1715 -0.2033  0.4270
  363MOL0     O48878   5.284   0.201   3.448 -0.4463 -0.0556 -0.3513
  363MOL0     C48879   5.227   0.258   3.576  1.3435 -0.1419 -0.2967
  363MOL0     C48880   5.226   0.128   3.666 -0.6512 -0.0165  0.4418
  363MOL0     C48881   5.149   0.159   3.797 -0.3173  0.5781  0.1890
  363MOL0     C48882   5.235   0.224   3.911 -0.4128 -0.2521 -0.7179
  363MOL0     C48883   5.156   0.334   3.983 -0.0947 -0.3822  0.1289
  363MOL0     C48884   5.163   0.462   3.905  0.8588 -0.4819  0.3728
  363MOL0     C48885   5.091   0.581   3.972 -1.0494  0.0355 -0.0829
  363MOL0     C48886   4.932   0.561   3.983 -1.2538 -1.0628 -0.8579
  363MOL0     N48887   4.871   0.530   3.855  1.3842 -0.5244  0.1056
  363MOL0     C48888   4.803   0.411   3.833  0.0434  0.1100  0.2956
  363MOL0     C48889   4.778   0.418   3.697 -0.3238  0.4068 -0.1899
  363MOL0     C48890   4.689   0.334   3.619  1.0617  0.4484 -0.1162
  363MOL0     C48891   4.548   0.378   3.601  0.1864 -0.2081 -0.8460
  363MOL0     C48892   4.464   0.277   3.534 -0.3444 -0.2305  0.4310
  363MOL0     C48893   4.500   0.258   3.390 -0.2488 -0.1649  0.3444
  363MOL0     O48894   4.543   0.118   3.360  0.5212 -0.4504  0.0530
  363MOL0     C48895   4.554   0.092   3.232  0.0134  0.3997  1.6458
  363MOL0     C48896   4.655   0.001   3.184 -0.0054  0.6696 -0.1357
  363MOL0     C48897   4.683  -0.020   3.049 -0.4829 -0.3705  0.2776
  363MOL0     C48898   4.604   0.041   2.952 -0.0592 -0.4560  0.5270
  363MOL0     C48899   4.631   0.008   2.804  0.3364  0.1973 -0.6528
  363MOL0     O48900   4.574   0.099   2.708 -0.3626  0.6273  0.5469
  363MOL0     C48901   4.595   0.075   2.579  0.1213 -0.7290 -0.4757
  363MOL0     C48902   4.570  -0.045   2.526 -0.6802 -0.8758  1.1129
  363MOL0     C48903   4.609  -0.075   2.392 -0.0285  1.1819 -0.1008
  363MOL0     C48904   4.678   0.018   2.320 -0.5974  0.6324  0.4023
  363MOL0     O48905   4.717  -0.004   2.188  0.7060 -0.1419 -0.4542
  363MOL0     C48906   4.765  -0.134   2.142  0.8632 -1.5885  0.3318
  363MOL0     C48907   4.880  -0.120   2.037  0.2023  0.0723  0.1619
  363MOL0     C48908   4.841  -0.045   1.907 -0.8818  0.2406  0.6417
  363MOL0     C48909   4.958  -0.035   1.804  0.5135  0.1683 -0.4093
  363MOL0     C48910   4.964   0.089   1.712  0.1127  0.1593  0.8488
  363MOL0     C48911   4.875   0.092   1.589  0.0184  0.7059  0.9272
  363MOL0     C48912   4.851   0.224   1.542  0.8482 -0.4362 -0.1515
  363MOL0     C48913   4.824   0.215   1.388  0.0038  1.2354 -0.3470
  363MOL0    Cl48914   4.967   0.164   1.292 -0.1524 -0.1472 -0.0301
  363MOL0     C48915   4.707   0.140   2.373  1.1406  1.1295  0.1696
  363MOL0     C48916   4.668   0.173   2.503 -0.0400  0.6154  0.8723
  363MOL0     O48917   4.707  -0.084   2.781  0.2186  0.0952  0.6397
  363MOL0     C48918   4.507   0.126   2.993  0.0099 -0.8533  0.1291
  363MOL0     C48919   4.486   0.159   3.127 -0.1021  0.9699 -0.7630
  363MOL0     N48920   4.835   0.526   3.636 -0.3848  0.6375 -0.5601
  363MOL0     N48921   4.897   0.596   3.732 -0.5662 -0.1596  0.5867
  363MOL0     C48922   5.386   0.251   3.230 -1.0847  0.3637  0.9931
  363MOL0     C48923   5.418   0.336   3.127 -0.9803  0.2545 -0.2648
  363MOL0     C48924   5.373   0.723   2.859  0.6287 -0.4456 -0.2658
  363MOL0     C48925   5.486   0.792   2.904  0.4201  0.5435 -0.4123
  363MOL0     C48926   5.546   0.889   2.822  0.0461  0.9052 -0.6890
  363MOL0     C48927   5.501   0.923   2.693  0.9621  0.5428  0.0364
  363MOL0     O48928   5.560   1.030   2.631 -0.3382 -0.1940 -0.0226
  363MOL0     C48929   5.491   1.154   2.664  0.5966  0.7185  0.0527
  363MOL0     C48930   5.334   1.155   2.647 -0.5039 -0.2136 -0.2372
  363MOL0     C48931   5.289   1.304   2.665  0.6418  0.8210  0.5593
  363MOL0     C48932   5.131   1.325   2.654 -0.4021 -0.5588 -0.8167
  363MOL0     C48933   5.063   1.257   2.552  0.0974  0.3395  0.1893
  363MOL0     C48934   5.010   1.205   2.461 -0.0035  0.4640 -0.1808
  363MOL0     C48935   5.391   0.845   2.649 -0.4003  0.0879 -0.0050
  363MOL0     C48936   5.323   0.754   2.728 -0.5786 -0.3976 -0.2249
  363MOL0     C48937   5.225   0.659   2.662  0.2360  1.3749  0.1460
  363MOL0     H48938   5.241   0.599   3.234  1.9504  0.7679 -0.3463
  363MOL0     H48939   5.183   0.450   3.405 -1.0986 -0.1758 -0.1269
  363MOL0     H48940   5.291   0.336   3.619  3.0700 -1.0152 -1.1814
  363MOL0     H48941   5.125   0.295   3.561  1.9308  1.1514 -1.2752
  363MOL0     H48942   5.329   0.096   3.684 -1.6276 -2.3268  2.5326
  363MOL0     H48943   5.172   0.045   3.619 -1.5168  1.2897 -0.9846
  363MOL0     H48944   5.101   0.068   3.833  1.9390 -2.2297 -3.2208
  363MOL0     H48945   5.064   0.222   3.769 -0.9536  1.4378  3.5438
  363MOL0     H48946   5.274   0.154   3.985  2.0241  2.7842  1.0823
  363MOL0     H48947   5.327   0.270   3.875 -1.3088  2.7719  0.5823
  363MOL0     H48948   5.056   0.304   4.015  0.3530 -1.5858  0.4400
  363MOL0     H48949   5.218   0.347   4.072  1.5508 -1.4033 -0.8279
  363MOL0     H48950   5.265   0.498   3.887  1.3161 -0.4088  2.7560
  363MOL0     H48951   5.126   0.427   3.808  3.4224 -2.1643 -0.0863
  363MOL0     H48952   5.110   0.669   3.910  2.1188  0.0428  0.7496
  363MOL0     H48953   5.129   0.595   4.074 -0.7807  1.0855 -0.3251
  363MOL0     H48954   4.903   0.492   4.063 -0.7577 -0.2877  0.0201
  363MOL0     H48955   4.880   0.650   4.019  1.7739  1.0606 -1.2977
  363MOL0     H48956   4.787   0.323   3.894 -4.0134 -0.8665 -1.7678
  363MOL0     H48957   4.729   0.333   3.517 -1.9108  0.8022 -1.3726
  363MOL0     H48958   4.681   0.232   3.658 -2.9336  0.0412 -1.5622
  363MOL0     H48959   4.509   0.400   3.701 -1.5208 -3.3339 -0.6929
  363MOL0     H48960   4.552   0.473   3.545  0.6331 -0.2070 -0.8140
  363MOL0     H48961   4.362   0.317   3.543 -0.7073 -0.9759 -0.1850
  363MOL0     H48962   4.463   0.180   3.583 -3.4603  0.7837  2.6746
  363MOL0     H48963   4.580   0.323   3.353  0.9586 -0.9444  1.4929
  363MOL0     H48964   4.410   0.285   3.333  2.0017  0.8707 -3.0095
  363MOL0     H48965   4.709  -0.046   3.266 -2.4487  2.1908  2.5450
  363MOL0     H48966   4.771  -0.080   3.033 -1.7079 -2.0791 -0.3005
  363MOL0     H48967   4.527  -0.128   2.582 -0.3602 -2.5326 -0.9697
  363MOL0     H48968   4.582  -0.171   2.348  3.0213  0.3717 -0.4294
  363MOL0     H48969   4.796  -0.179   2.237  3.7460  1.5416  1.0862
  363MOL0     H48970   4.685  -0.189   2.091  1.8933 -2.8967  0.0649
  363MOL0     H48971   4.965  -0.063   2.074 -2.1304  2.7524  1.7571
  363MOL0     H48972   4.896  -0.227   2.017 -0.8415 -0.4342  1.8247
  363MOL0     H48973   4.751  -0.087   1.861 -0.2065 -1.1293  0.5188
  363MOL0     H48974   4.813   0.058   1.933 -3.0814 -0.4024  1.0201
  363MOL0     H48975   4.944  -0.118   1.735 -3.9243  0.1470  0.2444
  363MOL0     H48976   5.053  -0.047   1.856  0.4718  3.5545  0.7115
  363MOL0     H48977   5.067   0.105   1.677  0.4722 -4.9374 -1.1856
  363MOL0     H48978   4.944   0.174   1.778 -2.3191 -0.2648  0.7532
  363MOL0     H48979   4.912   0.031   1.506 -1.1790  0.6920  0.3858
  363MOL0     H48980   4.784   0.041   1.622  0.9011 -0.2322  2.0216
  363MOL0     H48981   4.943   0.283   1.549  1.4277 -0.4780 -4.4224
  363MOL0     H48982   4.769   0.274   1.595  1.4397  1.9535 -1.3172
  363MOL0     H48983   4.754   0.132   1.372 -0.5145  1.5046  0.4624
  363MOL0     H48984   4.778   0.306   1.347  0.1737  0.4434 -2.4080
  363MOL0     H48985   4.767   0.205   2.309  0.8795 -1.3953 -2.8821
  363MOL0     H48986   4.694   0.262   2.559  3.6020 -0.0330  0.4358
  363MOL0     H48987   4.442   0.166   2.915  0.1745  2.1544  1.4371
  363MOL0     H48988   4.404   0.227   3.146 -0.5241  0.3752 -0.4240
  363MOL0     H48989   5.427   0.151   3.236  1.7126  1.3717  0.0105
  363MOL0     H48990   5.496   0.316   3.055  0.4948 -0.1956  1.3937
  363MOL0     H48991   5.522   0.790   3.007  1.1278 -1.2499 -0.6641
  363MOL0     H48992   5.621   0.948   2.873 -0.1311  0.6014 -0.0682
  363MOL0     H48993   5.539   1.236   2.609 -2.7954  0.8353 -3.1047
  363MOL0     H48994   5.504   1.176   2.770  2.2980 -0.6567  0.1730
  363MOL0     H48995   5.281   1.101   2.726  0.7246  0.5755  1.1625
  363MOL0     H48996   5.313   1.120   2.545  2.7518  0.8920 -1.4054
  363MOL0     H48997   5.334   1.363   2.584  2.0102  2.8949  2.6655
  363MOL0     H48998   5.335   1.355   2.750  0.7368  3.7652 -1.1123
  363MOL0     H48999   5.087   1.314   2.753 -1.1281 -0.2836 -1.1061
  363MOL0     H49000   5.118   1.433   2.638  5.2764  0.8609  1.6437
  363MOL0     H49001   4.971   1.139   2.386  2.2349 -2.8159  1.2860
  363MOL0     H49002   5.351   0.867   2.551 -1.3608  1.8421  0.7435
  363MOL0     H49003   5.216   0.678   2.555 -2.3646  1.6012  0.3528
  363MOL0     H49004   5.251   0.554   2.675  0.6377  1.5062  0.4484
  363MOL0     H49005   5.126   0.663   2.708  0.7740  0.0437  1.4911
  364MOL0     O49006   7.405   3.740   3.162  0.7565  0.2637 -0.0065
  364MOL0     C49007   7.327   3.723   3.254  0.4688  0.0963 -0.1410
  364MOL0     O49008   7.200   3.676   3.241 -0.0713 -0.0678 -0.3983
  364MOL0     C49009   7.142   3.648   3.122  0.9463  0.5401 -0.4690
  364MOL0     C49010   7.099   3.519   3.096  0.0158 -0.0349 -0.2443
  364MOL0     C49011   7.037   3.485   2.972  0.1064 -0.4334  1.1005
  364MOL0     C49012   7.021   3.583   2.871 -0.8702  0.0559 -0.1042
  364MOL0     O49013   6.950   3.571   2.755  0.5619 -0.8384 -0.2230
  364MOL0     C49014   6.938   3.441   2.710  0.0197  0.6964  0.1106
  364MOL0     C49015   6.844   3.446   2.579  0.0635  0.6571 -0.4036
  364MOL0     C49016   6.896   3.542   2.474 -0.8849  0.2754 -0.3604
  364MOL0     C49017   7.032   3.479   2.424 -0.1189 -0.2977 -0.2852
  364MOL0     C49018   7.065   3.475   2.274 -0.3956  0.1786 -0.5207
  364MOL0     C49019   7.199   3.417   2.231 -0.7972  0.2080 -0.1494
  364MOL0     C49020   7.200   3.422   2.081  0.5257 -0.0325 -0.0391
  364MOL0     C49021   7.330   3.397   2.017 -0.5497  0.8575 -1.1534
  364MOL0     N49022   7.330   3.336   1.888 -0.2686 -0.5273  0.2238
  364MOL0     C49023   7.347   3.393   1.765  0.1907 -0.1141 -0.1862
  364MOL0     C49024   7.353   3.290   1.677  0.6193 -0.8317  0.2796
  364MOL0     C49025   7.354   3.315   1.523  0.1776  0.8192 -0.7378
  364MOL0     C49026   7.212   3.300   1.459 -0.4903 -0.5631 -0.5282
  364MOL0     C49027   7.215   3.188   1.351 -0.4709  0.4307 -0.7064
  364MOL0     C49028   7.072   3.151   1.305  0.5283 -0.4637  0.8079
  364MOL0     O49029   7.082   3.019   1.268 -0.2802  0.6415  0.1514
  364MOL0     C49030   6.999   2.965   1.170  0.4748  0.2295 -0.3883
  364MOL0     C49031   7.024   2.835   1.121  0.2009 -0.0599 -0.3935
  364MOL0     C49032   6.948   2.780   1.019 -0.0763  1.0716  0.7216
  364MOL0     C49033   6.828   2.843   0.969  0.0319  0.1588 -0.3396
  364MOL0     C49034   6.735   2.766   0.880 -0.5507 -0.2595 -0.2910
  364MOL0     O49035   6.634   2.844   0.826  0.6775  0.2447 -0.3960
  364MOL0     C49036   6.535   2.781   0.755 -0.1303 -0.3676 -0.2468
  364MOL0     C49037   6.418   2.739   0.815 -0.2089 -0.2949 -0.1374
  364MOL0     C49038   6.314   2.681   0.736 -0.1548 -0.5593 -0.9977
  364MOL0     C49039   6.331   2.659   0.601  0.0083  0.2987  0.2873
  364MOL0     O49040   6.232   2.629   0.514  0.3554  0.2734  0.1239
  364MOL0     C49041   6.112   2.563   0.565  1.0119 -0.2490  0.0421
  364MOL0     C49042   6.069   2.452   0.464 -0.0569 -1.0094  0.1207
  364MOL0     C49043   5.997   2.519   0.343 -0.4409 -0.4559  0.3816
  364MOL0     C49044   5.883   2.414   0.309  0.1021  0.4087 -0.2497
  364MOL0     C49045   5.763   2.486   0.243 -0.8874  0.8250 -0.4941
  364MOL0     C49046   5.798   2.535   0.100  0.6666  0.2891  0.3481
  364MOL0     C49047   5.873   2.442   0.008 -0.6214 -0.0148  0.3994
  364MOL0     C49048   5.805   2.312  -0.025  0.2687  0.2648 -0.8720
  364MOL0    Cl49049   5.639   2.328  -0.108 -0.2014  0.1935  0.0242
  364MOL0     C49050   6.455   2.685   0.547 -0.1307 -0.3144 -0.0939
  364MOL0     C49051   6.553   2.746   0.625 -0.1943  0.3648 -0.2228
  364MOL0     O49052   6.767   2.651   0.847 -0.3411 -0.3256  0.4789
  364MOL0     C49053   6.808   2.973   1.012 -0.2557  1.1243 -0.9580
  364MOL0     C49054   6.882   3.028   1.122 -0.0874 -0.1147 -0.0661
  364MOL0     N49055   7.346   3.170   1.744 -1.0561  0.4179  0.0772
  364MOL0     N49056   7.325   3.200   1.868 -0.0954 -0.2504  0.5543
  364MOL0     C49057   7.071   3.707   2.899 -0.0968 -0.2993 -0.3994
  364MOL0     C49058   7.129   3.742   3.024 -0.3292  1.2294  0.3976
  364MOL0     C49059   7.373   3.751   3.396 -0.4542 -0.3671 -0.5218
  364MOL0     C49060   7.284   3.726   3.500  0.8119 -0.0235 -0.4634
  364MOL0     C49061   7.316   3.752   3.639 -0.4352  0.2372  0.8609
  364MOL0     C49062   7.443   3.810   3.673 -0.1994 -0.4922 -0.0854
  364MOL0     O49063   7.487   3.840   3.805 -0.5405 -1.3801  0.0482
  364MOL0     C49064   7.398   3.856   3.919  0.4994 -0.8893 -0.0978
  364MOL0     C49065   7.310   3.981   3.895 -0.6435  0.2413 -0.2675
  364MOL0     C49066   7.185   3.987   3.979  0.0411  0.5518 -0.8555
  364MOL0     C49067   7.071   3.903   3.922 -0.1135 -0.2662 -0.9177
  364MOL0     C49068   6.941   3.961   3.959 -0.5586  0.1336  0.0708
  364MOL0     C49069   6.834   4.011   3.982 -0.5130 -0.7159  0.2539
  364MOL0     C49070   7.535   3.826   3.563 -0.5617  1.1563 -0.7021
  364MOL0     C49071   7.501   3.803   3.428 -0.6296  0.6562  0.1870
  364MOL0     C49072   7.623   3.806   3.332  0.4759  0.2723 -0.1504
  364MOL0     H49073   7.101   3.445   3.175  1.0446  0.7860  0.5147
  364MOL0     H49074   7.012   3.382   2.951  2.4963 -0.5008 -2.2998
  364MOL0     H49075   7.035   3.401   2.680 -1.0665 -2.0630 -0.0051
  364MOL0     H49076   6.893   3.375   2.785  1.7180 -0.5918  0.0500
  364MOL0     H49077   6.746   3.479   2.616 -0.7387 -0.1619 -1.7099
  364MOL0     H49078   6.824   3.343   2.549  1.6170 -0.5209  2.2714
  364MOL0     H49079   6.898   3.643   2.517 -3.5131  0.5036 -0.5877
  364MOL0     H49080   6.841   3.540   2.379  0.3181 -1.2075 -1.0646
  364MOL0     H49081   7.112   3.531   2.478 -0.8735  0.5486  0.0498
  364MOL0     H49082   7.039   3.375   2.458 -0.2936  0.0917  1.0155
  364MOL0     H49083   6.984   3.416   2.232 -1.1497 -0.4828  1.7183
  364MOL0     H49084   7.071   3.575   2.230 -0.9935  0.3844 -0.1463
  364MOL0     H49085   7.275   3.489   2.262 -0.8666  0.7179 -1.1252
  364MOL0     H49086   7.229   3.320   2.273  0.7847  0.5603 -0.4126
  364MOL0     H49087   7.171   3.519   2.039  2.6857  1.0134  0.7685
  364MOL0     H49088   7.127   3.354   2.035 -0.4044 -0.6832  2.2795
  364MOL0     H49089   7.389   3.488   2.028 -2.8912  2.2806  0.4707
  364MOL0     H49090   7.382   3.332   2.088 -0.5084  0.8349 -1.2038
  364MOL0     H49091   7.339   3.495   1.731 -0.2042  0.1801  0.7645
  364MOL0     H49092   7.392   3.416   1.504 -1.3452  2.4167  3.4761
  364MOL0     H49093   7.421   3.235   1.491 -3.6546 -3.0462 -0.0388
  364MOL0     H49094   7.133   3.282   1.533 -0.1184 -2.0531 -0.4483
  364MOL0     H49095   7.177   3.390   1.409  3.2735  1.0128 -0.6404
  364MOL0     H49096   7.270   3.104   1.394  0.6363  0.3727 -2.1534
  364MOL0     H49097   7.272   3.227   1.267  0.7856 -1.2812 -0.7010
  364MOL0     H49098   7.033   3.215   1.226 -4.3525 -4.2315 -0.2962
  364MOL0     H49099   7.003   3.158   1.389 -0.0695  1.6980  0.2031
  364MOL0     H49100   7.094   2.771   1.175  0.3428  0.8660  0.5494
  364MOL0     H49101   6.979   2.691   0.966  0.6187  2.0372 -0.5418
  364MOL0     H49102   6.396   2.772   0.916 -1.1457 -0.3447 -0.3151
  364MOL0     H49103   6.221   2.664   0.788 -0.4041 -0.9677 -1.5618
  364MOL0     H49104   6.133   2.508   0.657 -0.3151  0.6525  0.9051
  364MOL0     H49105   6.032   2.631   0.592 -0.2462 -2.5563  2.5329
  364MOL0     H49106   6.157   2.400   0.426 -0.0251 -0.5552 -0.4335
  364MOL0     H49107   6.018   2.375   0.523 -3.3621  0.9914  0.1016
  364MOL0     H49108   5.967   2.620   0.374  1.3223  0.0499  0.5369
  364MOL0     H49109   6.061   2.530   0.256 -0.0472  1.7701  0.8746
  364MOL0     H49110   5.838   2.381   0.403  0.7902  2.2799  0.7822
  364MOL0     H49111   5.917   2.332   0.246 -0.0251 -0.0918  0.3232
  364MOL0     H49112   5.737   2.577   0.298 -1.2070 -0.7947  2.2273
  364MOL0     H49113   5.686   2.409   0.229 -1.4245  1.8510 -4.1069
  364MOL0     H49114   5.712   2.569   0.041  1.1703  3.4650  1.2478
  364MOL0     H49115   5.858   2.626   0.112  1.1700  0.7666 -3.9317
  364MOL0     H49116   5.974   2.419   0.041 -0.7504 -1.5447 -0.1860
  364MOL0     H49117   5.888   2.489  -0.090  1.5980 -0.5406  0.4335
  364MOL0     H49118   5.880   2.240  -0.059  2.8384  1.9044  0.8918
  364MOL0     H49119   5.770   2.266   0.068 -4.2777  2.5016 -1.2153
  364MOL0     H49120   6.472   2.661   0.443  0.8799 -0.1955  0.0318
  364MOL0     H49121   6.649   2.779   0.585  0.4890 -0.6993  0.4553
  364MOL0     H49122   6.715   3.022   0.984 -0.9377  1.1662  1.1847
  364MOL0     H49123   6.847   3.123   1.160  0.0037 -0.1348  0.0654
  364MOL0     H49124   7.047   3.780   2.823  0.0153  0.6325  0.4290
  364MOL0     H49125   7.167   3.844   3.029  2.6453  0.3882 -2.0379
  364MOL0     H49126   7.183   3.686   3.495  0.0165  1.7870  0.0877
  364MOL0     H49127   7.251   3.725   3.722 -1.2528  0.2992  0.2523
  364MOL0     H49128   7.455   3.869   4.012 -1.3938 -2.4479  1.3533
  364MOL0     H49129   7.343   3.766   3.947  0.5739 -2.1883 -3.6818
  364MOL0     H49130   7.285   3.985   3.788  2.2187  4.4547 -1.0383
  364MOL0     H49131   7.366   4.075   3.906 -1.9625  0.9517  0.6834
  364MOL0     H49132   7.147   4.089   3.990 -0.0309  0.4821 -0.4468
  364MOL0     H49133   7.210   3.960   4.081  6.2815 -1.9905 -2.5735
  364MOL0     H49134   7.081   3.894   3.813 -1.6475  0.8686 -1.1915
  364MOL0     H49135   7.071   3.808   3.975  1.7895  0.9390  1.4518
  364MOL0     H49136   6.738   4.053   4.006 -0.1853 -0.0456  0.4106
  364MOL0     H49137   7.629   3.876   3.582 -1.2676  1.9262  0.9463
  364MOL0     H49138   7.622   3.719   3.265 -1.2606  0.2256 -0.1083
  364MOL0     H49139   7.611   3.896   3.271  1.2104  0.7254  0.3675
  364MOL0     H49140   7.721   3.813   3.379  1.2084  0.8554 -1.6858
  365MOL0     O49141  10.468   8.044  10.398  0.2423  0.5169 -0.2698
  365MOL0     C49142  10.554   8.129  10.405  0.2822  0.2655  0.0818
  365MOL0     O49143  10.613   8.166  10.516 -0.1098 -0.0160 -0.3829
  365MOL0     C49144  10.606   8.090  10.635 -0.1309 -1.2403 -0.2250
  365MOL0     C49145  10.601   8.152  10.759  0.2333 -0.1671 -1.0928
  365MOL0     C49146  10.592   8.076  10.880  0.2079 -0.4806 -0.8765
  365MOL0     C49147  10.614   7.941  10.877  0.8071  0.9382  0.6399
  365MOL0     O49148  10.626   7.852  10.991  0.7765  0.3719  0.3818
  365MOL0     C49149  10.706   7.738  10.984  0.3024  0.3138 -0.8511
  365MOL0     C49150  10.742   7.664  11.105 -0.0717  0.0121  0.1528
  365MOL0     C49151  10.828   7.543  11.080 -0.2745 -0.2546  0.0624
  365MOL0     C49152  10.804   7.454  11.203  0.2071 -0.7800 -0.6291
  365MOL0     C49153  10.849   7.511  11.338  0.4052  0.6573 -0.4221
  365MOL0     C49154  11.004   7.535  11.341 -0.9075 -0.3263 -0.1314
  365MOL0     C49155  11.059   7.550  11.484 -0.6441 -0.9940  0.8024
  365MOL0     C49156  11.049   7.436  11.588 -0.3286 -0.2763  0.1384
  365MOL0     N49157  11.088   7.473  11.725  0.1655 -0.2528  0.4072
  365MOL0     C49158  11.030   7.575  11.802  0.5016 -0.0808  0.7371
  365MOL0     C49159  11.113   7.595  11.906 -0.9339 -0.1104  0.1208
  365MOL0     C49160  11.109   7.689  12.038  0.7540 -0.5975  0.5498
  365MOL0     C49161  11.227   7.723  12.122 -0.0689 -0.0278  0.2148
  365MOL0     C49162  11.242   7.620  12.243  0.7303  0.1974  0.4015
  365MOL0     C49163  11.381   7.622  12.312  0.0276 -0.5424 -0.2085
  365MOL0     O49164  11.488   7.616  12.223 -0.1828 -0.3274 -0.0154
  365MOL0     C49165  11.600   7.670  12.271 -0.8844  0.1346 -0.5390
  365MOL0     C49166  11.671   7.753  12.185 -0.7941 -0.0716 -0.0586
  365MOL0     C49167  11.793   7.801  12.229 -0.2337  0.2738  0.2779
  365MOL0     C49168  11.849   7.773  12.358  0.0744  0.6089 -0.5748
  365MOL0     C49169  11.960   7.856  12.414 -0.3841  0.3136  0.1082
  365MOL0     O49170  11.973   7.853  12.553 -0.1776 -0.4050 -0.3593
  365MOL0     C49171  12.095   7.898  12.608 -0.1904  1.5623 -0.2663
  365MOL0     C49172  12.197   7.801  12.622  0.0579  0.2886 -0.4861
  365MOL0     C49173  12.318   7.837  12.667  0.3445 -0.2849  0.6354
  365MOL0     C49174  12.339   7.971  12.704  0.7457 -0.5473 -0.1511
  365MOL0     O49175  12.455   8.013  12.761  0.1938  0.1922 -0.1599
  365MOL0     C49176  12.570   7.982  12.677  0.2323 -0.5945 -0.4358
  365MOL0     C49177  12.695   8.024  12.746  0.5110 -0.4807 -1.1306
  365MOL0     C49178  12.824   7.972  12.676 -0.8205 -0.5384 -0.1228
  365MOL0     C49179  12.943   8.047  12.725  0.4202 -0.7295 -0.4586
  365MOL0     C49180  13.068   7.985  12.672 -0.4358 -0.5365  0.1461
  365MOL0     C49181  13.204   8.058  12.692 -0.1435 -0.8475 -0.2117
  365MOL0     C49182  13.254   8.060  12.839 -0.4050  0.1557  1.3612
  365MOL0     C49183  13.339   8.186  12.858  0.4373  0.9384 -0.3214
  365MOL0    Cl49184  13.257   8.336  12.823  0.1794 -0.0306 -0.1782
  365MOL0     C49185  12.240   8.062  12.706 -0.1900  0.1301 -1.0081
  365MOL0     C49186  12.119   8.022  12.662  0.4095  0.1600  0.2358
  365MOL0     O49187  12.041   7.909  12.337  0.3844 -0.3366  0.1264
  365MOL0     C49188  11.785   7.679  12.443  0.8168  0.8533  0.5878
  365MOL0     C49189  11.655   7.631  12.396  0.2105  0.2480 -0.8117
  365MOL0     N49190  11.221   7.502  11.901 -0.1873 -0.1006 -0.1008
  365MOL0     N49191  11.202   7.438  11.791 -0.4497  0.9201  0.4765
  365MOL0     C49192  10.623   7.877  10.750 -1.0273 -0.2266 -0.1173
  365MOL0     C49193  10.614   7.947  10.631  0.3615  0.2096 -0.2683
  365MOL0     C49194  10.610   8.182  10.279  0.5255 -0.1896  0.1632
  365MOL0     C49195  10.514   8.214  10.178 -0.8747 -0.7401 -0.1167
  365MOL0     C49196  10.545   8.242  10.050  0.4417  1.1761 -0.0809
  365MOL0     C49197  10.685   8.247  10.013  0.6888  0.3802  0.4672
  365MOL0     O49198  10.732   8.278   9.892  0.2768  0.3201 -0.0423
  365MOL0     C49199  10.668   8.258   9.769 -0.4604  0.1953  0.4014
  365MOL0     C49200  10.741   8.340   9.663  0.6776 -0.1034 -0.8474
  365MOL0     C49201  10.692   8.324   9.524 -0.1914  0.0747 -1.2029
  365MOL0     C49202  10.806   8.274   9.433  0.1475  0.6345  0.1892
  365MOL0     C49203  10.768   8.297   9.295  0.2350  0.4421  0.8798
  365MOL0     C49204  10.736   8.312   9.169  0.6405  0.7719  0.7739
  365MOL0     C49205  10.780   8.230  10.114  0.6945 -0.4845  1.1206
  365MOL0     C49206  10.744   8.193  10.244  1.2497 -0.0118 -0.7238
  365MOL0     C49207  10.853   8.148  10.341 -0.3411  1.0577 -0.1772
  365MOL0     H49208  10.584   8.258  10.778 -2.4806 -0.9057  1.2971
  365MOL0     H49209  10.574   8.123  10.976  1.4820 -2.8207  0.5817
  365MOL0     H49210  10.671   7.659  10.918  3.2991 -2.7275  0.8499
  365MOL0     H49211  10.803   7.776  10.949  1.5206 -1.0776  0.8202
  365MOL0     H49212  10.648   7.626  11.147 -0.2146 -0.5823 -0.6818
  365MOL0     H49213  10.789   7.733  11.175 -1.6261 -1.4796  2.8356
  365MOL0     H49214  10.932   7.576  11.073 -0.1054 -0.5892  0.9498
  365MOL0     H49215  10.808   7.484  10.990  0.0557 -0.5355  0.1659
  365MOL0     H49216  10.696   7.439  11.206 -0.0366  0.8516 -0.5536
  365MOL0     H49217  10.859   7.361  11.181 -0.5910 -1.2246 -0.7604
  365MOL0     H49218  10.791   7.597  11.375 -2.4863 -1.9393  1.6196
  365MOL0     H49219  10.822   7.446  11.421  0.3725  4.4422  2.8339
  365MOL0     H49220  11.060   7.453  11.295 -1.2546 -0.2551 -0.6884
  365MOL0     H49221  11.020   7.630  11.289 -1.2352  0.2853  0.8502
  365MOL0     H49222  11.014   7.639  11.528  0.3692  0.3566 -0.7866
  365MOL0     H49223  11.165   7.575  11.474 -1.1056  0.3517 -1.1459
  365MOL0     H49224  10.946   7.401  11.589 -0.7549  0.9046 -0.9337
  365MOL0     H49225  11.112   7.353  11.554 -1.2044 -0.5997 -0.7176
  365MOL0     H49226  10.931   7.616  11.785  0.4665 -0.0744  0.9539
  365MOL0     H49227  11.067   7.784  12.005 -0.2556 -1.1581  0.1820
  365MOL0     H49228  11.035   7.632  12.097 -0.2598 -1.5430 -1.5358
  365MOL0     H49229  11.317   7.728  12.060  0.8575  0.1275  1.5364
  365MOL0     H49230  11.218   7.823  12.165  1.2836 -0.3777  1.3734
  365MOL0     H49231  11.238   7.515  12.213  1.1071  0.2624  0.1130
  365MOL0     H49232  11.159   7.635  12.313  1.2763  0.5708  0.9779
  365MOL0     H49233  11.389   7.549  12.393 -1.1212  0.9580  1.3349
  365MOL0     H49234  11.390   7.715  12.368  2.7954 -1.0566  0.3648
  365MOL0     H49235  11.638   7.775  12.084  0.8852  0.2865 -0.5624
  365MOL0     H49236  11.841   7.869  12.159 -0.8708  0.0268 -0.4194
  365MOL0     H49237  12.179   7.698  12.591 -0.4618  0.2281  0.0007
  365MOL0     H49238  12.391   7.758  12.681  1.2411  0.7164  1.8730
  365MOL0     H49239  12.583   7.875  12.660 -2.2640 -1.0873  0.4973
  365MOL0     H49240  12.559   8.043  12.586  0.5781  0.0934 -0.0295
  365MOL0     H49241  12.694   8.133  12.756 -0.5239 -0.6226  0.6716
  365MOL0     H49242  12.697   7.998  12.852  3.1482  3.2208 -0.0395
  365MOL0     H49243  12.829   7.865  12.699  2.6993  0.0799  2.7481
  365MOL0     H49244  12.823   7.993  12.568  0.6862 -0.8335 -0.2133
  365MOL0     H49245  12.944   8.023  12.832 -0.3827  1.8832  0.2095
  365MOL0     H49246  12.933   8.155  12.709  4.7601 -0.1288 -0.2768
  365MOL0     H49247  13.060   7.965  12.565  1.3896 -2.3262  0.2859
  365MOL0     H49248  13.080   7.885  12.715  5.7617  0.1801  1.0399
  365MOL0     H49249  13.284   8.005  12.638 -1.2200  0.1897 -2.9753
  365MOL0     H49250  13.186   8.157  12.651  0.5600 -0.2729  0.7936
  365MOL0     H49251  13.328   7.980  12.852  3.3646  3.2663  0.7190
  365MOL0     H49252  13.169   8.065  12.907 -0.8764  2.2862  0.6722
  365MOL0     H49253  13.369   8.193  12.963 -0.9167  2.8662 -0.0092
  365MOL0     H49254  13.429   8.167  12.799 -1.0898 -3.0022 -1.7204
  365MOL0     H49255  12.265   8.161  12.745  1.6653 -0.4932 -0.5166
  365MOL0     H49256  12.041   8.098  12.671 -0.9231 -1.3730  3.9924
  365MOL0     H49257  11.827   7.652  12.539 -0.1712 -2.9552  0.0883
  365MOL0     H49258  11.607   7.559  12.462 -0.1837  0.1171 -1.2381
  365MOL0     H49259  10.622   7.768  10.749 -1.3277 -0.2344  0.7539
  365MOL0     H49260  10.604   7.884  10.543 -1.4130 -3.0073  2.0265
  365MOL0     H49261  10.408   8.211  10.203 -1.5654 -2.0911 -2.8856
  365MOL0     H49262  10.456   8.251   9.989 -1.8329 -3.6290  2.0050
  365MOL0     H49263  10.563   8.285   9.780 -0.7867 -1.2337  0.9912
  365MOL0     H49264  10.683   8.153   9.741  2.0453  1.2258 -2.7719
  365MOL0     H49265  10.849   8.325   9.670  0.3216 -2.1480  1.9412
  365MOL0     H49266  10.715   8.443   9.690  1.1561  0.1685 -1.4191
  365MOL0     H49267  10.641   8.418   9.503  0.0907  0.9514  1.5732
  365MOL0     H49268  10.625   8.237   9.518 -2.7309  1.7702  0.4837
  365MOL0     H49269  10.895   8.332   9.460  0.1913  0.6357  0.0415
  365MOL0     H49270  10.816   8.169   9.460 -0.2537  0.6205  0.2921
  365MOL0     H49271  10.711   8.342   9.069  1.5167 -3.3424 -0.8695
  365MOL0     H49272  10.886   8.241  10.091 -0.0524  0.3456 -2.6147
  365MOL0     H49273  10.838   8.043  10.368  1.1612  1.4268  2.5095
  365MOL0     H49274  10.953   8.172  10.304  0.0801 -0.9593 -0.4770
  365MOL0     H49275  10.843   8.210  10.431  3.5064  1.4553  0.1529
  366MOL0     O49276   6.640  10.701   4.899 -1.0131  0.7980 -0.0337
  366MOL0     C49277   6.684  10.588   4.935  0.6608  0.2567  0.3263
  366MOL0     O49278   6.802  10.558   4.992 -0.0584 -0.2149 -0.0844
  366MOL0     C49279   6.881  10.666   5.025 -0.0001 -0.1903  0.0891
  366MOL0     C49280   6.837  10.766   5.108  0.5386  0.2258  0.0428
  366MOL0     C49281   6.918  10.871   5.141 -0.7344  1.1162 -0.4248
  366MOL0     C49282   7.051  10.869   5.106  0.5003  0.0977 -0.0261
  366MOL0     O49283   7.128  10.978   5.159 -0.2994 -0.4597  0.3267
  366MOL0     C49284   7.250  10.991   5.089  0.0136 -0.3416 -0.1869
  366MOL0     C49285   7.366  10.970   5.181  0.5978 -0.8886 -1.4536
  366MOL0     C49286   7.500  10.967   5.114 -0.4253 -0.6037 -0.5356
  366MOL0     C49287   7.576  11.097   5.102 -0.0840 -1.3733  0.0794
  366MOL0     C49288   7.581  11.190   5.224  0.1821 -0.3838  0.8788
  366MOL0     C49289   7.711  11.266   5.207  0.1206 -0.0606  0.2332
  366MOL0     C49290   7.721  11.382   5.308 -0.1984  0.4924 -0.1417
  366MOL0     C49291   7.779  11.323   5.434 -0.2163 -0.1613  0.0258
  366MOL0     N49292   7.825  11.429   5.524  0.1527 -0.5468  0.1537
  366MOL0     C49293   7.945  11.489   5.512  0.3504 -0.4371  1.1271
  366MOL0     C49294   7.949  11.591   5.600 -0.1823  0.8477 -0.4396
  366MOL0     C49295   8.068  11.673   5.636 -1.2671  0.0386 -0.9849
  366MOL0     C49296   8.185  11.672   5.528  0.5691 -0.5674  0.4930
  366MOL0     C49297   8.139  11.758   5.417  0.1212 -0.0715  0.2149
  366MOL0     C49298   8.180  11.704   5.281 -1.4953  0.3421 -1.1216
  366MOL0     O49299   8.090  11.593   5.253  0.3191  0.3477  0.1431
  366MOL0     C49300   8.112  11.497   5.161 -1.0308  0.6923 -0.7448
  366MOL0     C49301   8.080  11.364   5.194  0.8425  0.9542  0.4716
  366MOL0     C49302   8.096  11.261   5.102 -0.1123  1.0402  1.0080
  366MOL0     C49303   8.145  11.293   4.967  0.3570  0.2268 -0.6522
  366MOL0     C49304   8.174  11.186   4.871  1.0604  0.3746  0.8225
  366MOL0     O49305   8.140  11.056   4.897 -0.4667  0.5636  0.2906
  366MOL0     C49306   8.149  10.953   4.813  0.4424  0.3025  0.4660
  366MOL0     C49307   8.187  10.823   4.857 -0.5556  1.0433 -0.0302
  366MOL0     C49308   8.189  10.715   4.767 -0.4555 -0.6970 -0.5788
  366MOL0     C49309   8.160  10.738   4.631  1.4777 -0.3784 -0.4121
  366MOL0     O49310   8.147  10.641   4.530 -0.1098 -0.5461 -0.4771
  366MOL0     C49311   8.165  10.502   4.551  0.2248 -1.2170  0.1203
  366MOL0     C49312   8.314  10.454   4.579  0.7302 -0.4596  0.4732
  366MOL0     C49313   8.308  10.307   4.640 -0.1803 -0.8432 -0.4452
  366MOL0     C49314   8.429  10.227   4.589 -0.2220 -0.2206  0.0375
  366MOL0     C49315   8.452  10.121   4.691 -0.4187  0.2940 -0.3074
  366MOL0     C49316   8.545  10.020   4.630 -0.5371 -0.2691  0.3290
  366MOL0     C49317   8.617   9.933   4.738  0.8734 -1.1018 -0.6908
  366MOL0     C49318   8.523   9.824   4.788 -0.0168 -0.5205 -0.0052
  366MOL0    Cl49319   8.406   9.894   4.913 -0.1708 -0.1703  0.0452
  366MOL0     C49320   8.136  10.865   4.585 -0.0024 -0.8640 -0.9203
  366MOL0     C49321   8.128  10.972   4.678  0.4793 -0.0495  0.4809
  366MOL0     O49322   8.245  11.220   4.774  0.0376 -0.5109  0.4637
  366MOL0     C49323   8.175  11.427   4.940  0.3990 -1.0618 -0.1057
  366MOL0     C49324   8.170  11.522   5.041 -0.3438 -0.1765 -0.6028
  366MOL0     N49325   7.826  11.597   5.670 -0.3493 -0.2917 -0.0371
  366MOL0     N49326   7.762  11.495   5.623 -0.4114 -0.0318 -0.5117
  366MOL0     C49327   7.101  10.748   5.053  0.3681 -0.0589 -1.0329
  366MOL0     C49328   7.019  10.651   5.008  0.8434  0.0055 -0.8223
  366MOL0     C49329   6.584  10.474   4.936 -0.3630 -0.1961  0.4526
  366MOL0     C49330   6.603  10.375   5.029 -0.3157 -0.0829 -0.4849
  366MOL0     C49331   6.514  10.275   5.056 -0.3739  0.7476  0.0764
  366MOL0     C49332   6.387  10.266   4.992  0.3202 -1.1467  0.1744
  366MOL0     O49333   6.303  10.167   5.027  0.9424  0.2895 -0.1099
  366MOL0     C49334   6.163  10.157   4.986 -0.6103 -0.3692  0.3045
  366MOL0     C49335   6.075  10.264   5.053  0.0487  0.7054  0.6848
  366MOL0     C49336   5.934  10.205   5.079 -0.2470  0.3828  0.1583
  366MOL0     C49337   5.843  10.324   5.115  0.5267  0.0966  0.5386
  366MOL0     C49338   5.710  10.263   5.154 -0.3228  0.3785 -0.1699
  366MOL0     C49339   5.616  10.201   5.193  0.3279  0.3031 -0.4868
  366MOL0     C49340   6.368  10.370   4.895  1.1720 -0.1910 -0.2581
  366MOL0     C49341   6.452  10.474   4.860  0.4359  0.8931  0.0742
  366MOL0     C49342   6.415  10.560   4.736 -0.3752  0.1413 -1.0050
  366MOL0     H49343   6.733  10.768   5.139  0.3167 -1.4789 -0.4804
  366MOL0     H49344   6.890  10.962   5.193 -0.5309  1.2704 -0.5862
  366MOL0     H49345   7.263  10.937   4.995  1.8422  0.7836 -0.6386
  366MOL0     H49346   7.247  11.096   5.058  0.3430  0.3728  1.9973
  366MOL0     H49347   7.349  10.873   5.230 -0.2905  0.1764  0.4510
  366MOL0     H49348   7.356  11.047   5.258 -2.3157 -1.7706 -0.8333
  366MOL0     H49349   7.487  10.933   5.011  0.1478 -0.7522 -0.5608
  366MOL0     H49350   7.560  10.894   5.170 -0.0741 -0.0836 -0.2292
  366MOL0     H49351   7.677  11.066   5.075  0.9729  0.6117  1.5399
  366MOL0     H49352   7.529  11.149   5.019  2.8813  2.6877  0.6472
  366MOL0     H49353   7.492  11.254   5.229  0.6350  0.2032  1.6331
  366MOL0     H49354   7.577  11.146   5.324 -0.0081 -1.8008  0.2709
  366MOL0     H49355   7.789  11.190   5.216 -0.0476 -0.0937  1.6295
  366MOL0     H49356   7.705  11.303   5.104  0.9940  0.6538  0.4281
  366MOL0     H49357   7.626  11.433   5.329  0.1849  0.4547  1.9025
  366MOL0     H49358   7.787  11.464   5.280 -1.7902  1.7045 -0.5386
  366MOL0     H49359   7.691  11.278   5.481 -0.7689  0.3025 -0.5518
  366MOL0     H49360   7.859  11.249   5.431  0.0410 -0.2159  3.5775
  366MOL0     H49361   8.024  11.453   5.447 -0.6586 -2.3060  0.8718
  366MOL0     H49362   8.026  11.773   5.647  1.2938  1.3605 -2.3147
  366MOL0     H49363   8.108  11.632   5.729 -3.2458 -4.5379 -1.8518
  366MOL0     H49364   8.272  11.720   5.575 -0.3965  0.7359  1.0148
  366MOL0     H49365   8.231  11.579   5.495  3.4627  1.8580 -3.0763
  366MOL0     H49366   8.197  11.850   5.428  2.4662 -1.7395  3.0794
  366MOL0     H49367   8.035  11.792   5.427  1.0776  2.9048  0.8704
  366MOL0     H49368   8.285  11.677   5.266 -1.4814  0.6040 -1.5202
  366MOL0     H49369   8.160  11.783   5.209 -2.0098  2.2769  1.0226
  366MOL0     H49370   8.032  11.336   5.288 -1.3588  1.1995 -0.5293
  366MOL0     H49371   8.067  11.159   5.125  1.2461 -0.2419 -2.3501
  366MOL0     H49372   8.211  10.804   4.961 -1.7571  3.5110  0.7788
  366MOL0     H49373   8.222  10.615   4.792 -0.0817 -0.3484  0.3887
  366MOL0     H49374   8.113  10.461   4.638 -0.3375 -2.0394 -0.5779
  366MOL0     H49375   8.135  10.450   4.459  0.7266 -0.9219 -0.2155
  366MOL0     H49376   8.361  10.447   4.481 -2.8573  0.0210 -1.4870
  366MOL0     H49377   8.365  10.528   4.640 -2.0403  2.4832 -0.4620
  366MOL0     H49378   8.324  10.325   4.747  0.0018 -1.8649 -0.2883
  366MOL0     H49379   8.213  10.260   4.612 -0.3339 -1.5491  1.1315
  366MOL0     H49380   8.513  10.297   4.588 -0.2028 -0.2417 -0.7241
  366MOL0     H49381   8.397  10.192   4.490  0.0287  1.7771 -0.7991
  366MOL0     H49382   8.356  10.072   4.711  0.8096 -1.5076  1.5363
  366MOL0     H49383   8.486  10.170   4.782 -2.1148  0.2030  0.4192
  366MOL0     H49384   8.500   9.958   4.552 -1.4569 -1.2016  1.5687
  366MOL0     H49385   8.617  10.083   4.576 -2.7247  0.0085 -2.4609
  366MOL0     H49386   8.666   9.994   4.815  2.7506 -1.3278 -1.6453
  366MOL0     H49387   8.703   9.875   4.704  1.1128 -0.7320 -0.7266
  366MOL0     H49388   8.460   9.784   4.708 -3.5774  0.5345  2.0543
  366MOL0     H49389   8.568   9.743   4.847  1.1581  0.3341  0.3076
  366MOL0     H49390   8.134  10.877   4.478  1.7479  3.2006 -0.6779
  366MOL0     H49391   8.090  11.062   4.632 -1.0480 -2.4592 -3.4371
  366MOL0     H49392   8.196  11.446   4.835  1.8125 -2.8562 -0.1994
  366MOL0     H49393   8.219  11.617   5.025 -0.8728  0.0725 -0.7849
  366MOL0     H49394   7.207  10.727   5.052  0.4582  0.3854 -1.2365
  366MOL0     H49395   7.055  10.555   4.973 -0.4773 -0.6986 -0.3319
  366MOL0     H49396   6.707  10.382   5.060 -0.3109  2.4570 -0.8947
  366MOL0     H49397   6.545  10.199   5.126 -1.5369  1.9290  1.9632
  366MOL0     H49398   6.128  10.059   5.019 -1.3351  0.6013  2.6025
  366MOL0     H49399   6.159  10.171   4.877  0.5009  1.5185  0.4555
  366MOL0     H49400   6.082  10.353   4.989 -0.6527  0.9080  0.8812
  366MOL0     H49401   6.109  10.301   5.150 -3.3405  0.9264  1.9326
  366MOL0     H49402   5.922  10.132   5.159 -1.7764 -1.3192 -1.5322
  366MOL0     H49403   5.916  10.149   4.987 -0.9706 -0.9430  1.0821
  366MOL0     H49404   5.882  10.383   5.199  0.3417  0.3579  0.4431
  366MOL0     H49405   5.827  10.388   5.028 -1.5336 -0.7532  0.2407
  366MOL0     H49406   5.525  10.173   5.242 -0.3579  4.0350  0.7134
  366MOL0     H49407   6.280  10.361   4.833 -0.1005  0.5103  1.3794
  366MOL0     H49408   6.498  10.615   4.691  0.0074  1.8059  1.5341
  366MOL0     H49409   6.375  10.489   4.663  0.6597 -2.2389  0.6140
  366MOL0     H49410   6.338  10.632   4.766  1.0233  0.8066  1.2003
  367MOL0     O49411   5.008   4.134   2.774 -0.1365 -0.3802 -0.1155
  367MOL0     C49412   4.900   4.148   2.715  0.3889 -0.3820 -0.0576
  367MOL0     O49413   4.807   4.246   2.745 -0.8930 -0.6060  0.1540
  367MOL0     C49414   4.811   4.332   2.862  0.1093  0.1994 -0.0078
  367MOL0     C49415   4.725   4.301   2.970 -0.4872  0.2760 -0.3481
  367MOL0     C49416   4.728   4.379   3.082  0.3584 -0.4514  0.1528
  367MOL0     C49417   4.823   4.486   3.087 -0.8055  0.6241  0.7039
  367MOL0     O49418   4.818   4.544   3.209  0.2947 -0.2777  0.2845
  367MOL0     C49419   4.900   4.656   3.232  0.2694  0.1448 -0.2368
  367MOL0     C49420   4.840   4.751   3.346 -0.1006  0.2457  0.2891
  367MOL0     C49421   4.952   4.830   3.402  0.6115  0.4213 -0.6949
  367MOL0     C49422   4.913   4.913   3.528 -0.0084  0.5544  0.1663
  367MOL0     C49423   5.028   5.003   3.575 -0.2042 -0.5308  0.9759
  367MOL0     C49424   5.037   5.125   3.482  0.5655 -0.4069 -1.1354
  367MOL0     C49425   5.136   5.229   3.548  1.4308  0.5282 -0.1932
  367MOL0     C49426   5.070   5.328   3.649  1.5519 -0.5716  0.0723
  367MOL0     N49427   5.169   5.413   3.714 -0.2314  0.4485  0.1803
  367MOL0     C49428   5.221   5.407   3.842  0.0445  0.5020  0.7710
  367MOL0     C49429   5.285   5.524   3.868  0.1043 -0.2857  1.0616
  367MOL0     C49430   5.348   5.573   3.992  1.4549 -0.3836  0.0803
  367MOL0     C49431   5.262   5.553   4.119 -0.0786  0.6077 -0.2144
  367MOL0     C49432   5.171   5.670   4.163  0.0724  0.1529 -0.7098
  367MOL0     C49433   5.030   5.649   4.089  0.5706  0.0989 -0.3654
  367MOL0     O49434   4.952   5.540   4.143 -0.4316 -0.0613  0.4341
  367MOL0     C49435   4.839   5.529   4.066  0.9256 -0.4245 -0.1533
  367MOL0     C49436   4.723   5.516   4.132  0.0016 -0.2393  0.5092
  367MOL0     C49437   4.606   5.486   4.068 -0.6160 -0.1151  0.4290
  367MOL0     C49438   4.595   5.485   3.930 -0.2510 -0.1765  0.1368
  367MOL0     C49439   4.462   5.477   3.860  0.4770  0.0080 -0.0596
  367MOL0     O49440   4.349   5.454   3.939  0.0301  0.5040 -0.7913
  367MOL0     C49441   4.243   5.409   3.868 -0.2754 -0.4404 -0.5037
  367MOL0     C49442   4.174   5.307   3.929  0.4425 -0.5459  0.0911
  367MOL0     C49443   4.060   5.248   3.876  0.2571 -0.5506  1.0376
  367MOL0     C49444   4.004   5.296   3.756  0.6995  0.4319  0.2051
  367MOL0     O49445   3.886   5.237   3.716  0.1623  0.1245 -0.4623
  367MOL0     C49446   3.782   5.331   3.670 -0.5096  0.4040 -0.1508
  367MOL0     C49447   3.653   5.258   3.662 -0.2456  0.9805 -0.0039
  367MOL0     C49448   3.559   5.304   3.552  0.3225 -0.0713 -0.6900
  367MOL0     C49449   3.520   5.448   3.568 -0.7122 -0.5450 -0.2797
  367MOL0     C49450   3.393   5.499   3.495  1.0117 -0.4920  0.1638
  367MOL0     C49451   3.385   5.647   3.503 -0.8479 -0.0960 -0.2887
  367MOL0     C49452   3.455   5.708   3.385 -0.3151  0.6130 -0.7151
  367MOL0     C49453   3.531   5.838   3.411 -0.3965 -0.3572  0.1522
  367MOL0    Cl49454   3.589   5.911   3.257 -0.1051  0.6215 -0.1412
  367MOL0     C49455   4.068   5.404   3.698  0.6958  0.1598  0.0283
  367MOL0     C49456   4.181   5.463   3.752  0.5755 -0.3370 -1.1179
  367MOL0     O49457   4.458   5.492   3.735 -0.2766 -0.0017 -0.3600
  367MOL0     C49458   4.721   5.490   3.863  0.1091 -0.2714 -0.1701
  367MOL0     C49459   4.834   5.504   3.923 -0.8603 -0.3239 -0.6265
  367MOL0     N49460   5.270   5.603   3.754 -0.3470 -0.2480 -0.0135
  367MOL0     N49461   5.204   5.533   3.666  0.3305 -0.1247 -0.2121
  367MOL0     C49462   4.905   4.513   2.976  0.5261  0.6179  0.0302
  367MOL0     C49463   4.888   4.435   2.856 -0.5586 -0.2457 -0.1624
  367MOL0     C49464   4.880   4.058   2.602  0.6710 -0.9289 -0.1505
  367MOL0     C49465   4.798   4.119   2.507  0.2057  1.3049 -0.9224
  367MOL0     C49466   4.784   4.050   2.388  0.7785  0.2298 -0.0292
  367MOL0     C49467   4.844   3.934   2.359  0.0912  1.3727  0.1565
  367MOL0     O49468   4.820   3.885   2.238  0.3748  0.0221 -0.3974
  367MOL0     C49469   4.787   3.749   2.219 -0.2178  0.6512  0.2356
  367MOL0     C49470   4.898   3.643   2.192  0.2419  1.0506  0.5435
  367MOL0     C49471   4.997   3.679   2.087 -0.6969 -0.2713  0.0999
  367MOL0     C49472   5.061   3.566   2.003  0.4727  0.3652  0.5861
  367MOL0     C49473   5.104   3.617   1.875 -0.1603 -0.7385  0.4453
  367MOL0     C49474   5.129   3.686   1.781 -0.1775 -0.3108 -0.2436
  367MOL0     C49475   4.919   3.873   2.465 -0.1821 -0.5892 -0.2504
  367MOL0     C49476   4.941   3.936   2.581 -0.0356  0.6524  0.3009
  367MOL0     C49477   5.021   3.864   2.689 -0.9966 -0.1655 -0.2310
  367MOL0     H49478   4.657   4.217   2.967  1.4493 -1.5242  1.9706
  367MOL0     H49479   4.651   4.373   3.158 -2.5566  0.3487 -2.5131
  367MOL0     H49480   4.996   4.614   3.266  0.3825 -0.1353 -0.8866
  367MOL0     H49481   4.919   4.713   3.141 -0.4615 -0.1915 -0.6124
  367MOL0     H49482   4.793   4.689   3.423  0.0843  2.0438  1.9212
  367MOL0     H49483   4.766   4.814   3.295  0.0146  0.1606  0.0166
  367MOL0     H49484   4.995   4.897   3.326  2.1051  1.6478  1.1298
  367MOL0     H49485   5.036   4.765   3.430 -1.1562 -1.8060 -0.3180
  367MOL0     H49486   4.835   4.989   3.514  0.9843  2.4513  3.7592
  367MOL0     H49487   4.887   4.840   3.605  0.7142  0.7502  0.6051
  367MOL0     H49488   5.011   5.028   3.680  0.1886 -0.4850  1.0297
  367MOL0     H49489   5.129   4.963   3.571  1.6868  3.3874  3.3048
  367MOL0     H49490   5.077   5.080   3.390 -0.4524 -2.0070 -0.8274
  367MOL0     H49491   4.939   5.172   3.467  1.6835  2.2152 -0.7346
  367MOL0     H49492   5.189   5.284   3.471  1.6485 -1.3963 -1.4988
  367MOL0     H49493   5.193   5.165   3.616 -0.2661 -2.3886 -1.3039
  367MOL0     H49494   4.989   5.384   3.601  0.1637 -1.9344  0.7270
  367MOL0     H49495   5.014   5.276   3.728  1.5525 -0.0837  0.3954
  367MOL0     H49496   5.212   5.328   3.917  0.0548  0.9005  1.1952
  367MOL0     H49497   5.450   5.532   4.001  0.6650 -3.0186 -1.5974
  367MOL0     H49498   5.368   5.679   3.978 -1.1272  0.5841  2.7409
  367MOL0     H49499   5.202   5.461   4.110  1.6367 -0.4791 -0.9715
  367MOL0     H49500   5.323   5.540   4.209 -0.4491 -2.3625 -0.2756
  367MOL0     H49501   5.219   5.766   4.142  0.9199 -0.6145 -2.5403
  367MOL0     H49502   5.151   5.657   4.269  2.7325 -2.5588 -0.4178
  367MOL0     H49503   5.044   5.640   3.981  1.4455 -4.4344 -0.0523
  367MOL0     H49504   4.983   5.748   4.091 -0.2434 -0.2176 -1.9930
  367MOL0     H49505   4.717   5.536   4.238 -3.4011  3.5729 -0.1402
  367MOL0     H49506   4.517   5.495   4.130 -0.2813  1.6349  0.6873
  367MOL0     H49507   4.231   5.270   4.014  0.8499 -0.8260 -0.2964
  367MOL0     H49508   3.997   5.178   3.931  2.9047 -2.2794  2.0437
  367MOL0     H49509   3.767   5.411   3.744 -2.1983 -1.4989  1.7055
  367MOL0     H49510   3.816   5.373   3.575  0.8373 -1.4021 -0.5185
  367MOL0     H49511   3.667   5.149   3.664  0.8825  1.0989 -0.7221
  367MOL0     H49512   3.590   5.281   3.749 -0.9533  1.7997 -0.7170
  367MOL0     H49513   3.607   5.296   3.454 -2.0984 -1.7033 -1.8778
  367MOL0     H49514   3.466   5.246   3.545 -1.7105  2.8307  0.3944
  367MOL0     H49515   3.604   5.515   3.550  0.9065 -3.1575 -3.7399
  367MOL0     H49516   3.488   5.456   3.672  0.0532  0.6003 -0.1215
  367MOL0     H49517   3.308   5.451   3.545 -0.6891  1.5510 -0.6107
  367MOL0     H49518   3.381   5.473   3.389 -0.4404 -0.8880  0.4033
  367MOL0     H49519   3.278   5.662   3.485 -0.4148  0.8928 -2.2510
  367MOL0     H49520   3.420   5.691   3.597 -0.8368 -0.2363 -0.2268
  367MOL0     H49521   3.379   5.716   3.307  0.2003 -1.5731 -1.5178
  367MOL0     H49522   3.520   5.637   3.335  0.7433  2.3134 -1.8793
  367MOL0     H49523   3.461   5.908   3.458  0.4868  0.9565 -0.4334
  367MOL0     H49524   3.617   5.807   3.472 -0.3569 -1.3269 -0.3794
  367MOL0     H49525   4.039   5.430   3.597  0.5854 -1.6621 -0.4412
  367MOL0     H49526   4.227   5.543   3.694  0.3075  2.1576  1.8109
  367MOL0     H49527   4.729   5.483   3.755  2.3681 -0.4425 -0.0433
  367MOL0     H49528   4.920   5.515   3.857 -0.5704  0.6101 -0.1141
  367MOL0     H49529   4.987   4.584   2.977  1.6442 -0.5940 -1.2050
  367MOL0     H49530   4.945   4.457   2.766  0.4041 -0.4039  0.3957
  367MOL0     H49531   4.740   4.209   2.519 -4.9578 -1.9475  2.9449
  367MOL0     H49532   4.727   4.101   2.311  3.1378  5.4488  1.2423
  367MOL0     H49533   4.719   3.753   2.133  2.1820  1.0056 -1.7697
  367MOL0     H49534   4.730   3.722   2.308 -0.7312 -0.0075 -0.2821
  367MOL0     H49535   4.859   3.546   2.160  0.4115 -0.9282  5.4759
  367MOL0     H49536   4.946   3.616   2.286 -0.7259 -1.0813  0.4743
  367MOL0     H49537   5.073   3.740   2.136 -1.9650  0.0178  1.7928
  367MOL0     H49538   4.939   3.753   2.030 -1.4433  0.1053  1.2980
  367MOL0     H49539   5.149   3.534   2.058  0.1105 -0.4118  0.7308
  367MOL0     H49540   4.996   3.479   1.989 -0.9714  1.7515 -2.2627
  367MOL0     H49541   5.137   3.731   1.684 -0.5915 -0.6899 -0.4597
  367MOL0     H49542   4.984   3.787   2.453  1.3448  0.1646  1.8051
  367MOL0     H49543   5.037   3.762   2.653  1.6925 -0.8499  2.5341
  367MOL0     H49544   5.118   3.910   2.707  0.4948 -3.1607 -0.1852
  367MOL0     H49545   4.962   3.860   2.781 -0.8047  1.0003 -0.0452
  368MOL0     O49546   1.000   3.022   9.094  0.1244  0.2589 -0.1139
  368MOL0     C49547   0.985   3.025   8.972  0.2778 -0.4110 -0.8485
  368MOL0     O49548   0.927   3.129   8.901 -0.1294  0.0265  0.2373
  368MOL0     C49549   0.898   3.245   8.970  0.3733 -0.0085  0.4744
  368MOL0     C49550   0.778   3.271   9.050 -0.0277  1.5900 -0.6087
  368MOL0     C49551   0.740   3.397   9.100 -0.3917 -1.0662  0.3875
  368MOL0     C49552   0.830   3.502   9.075 -0.1651 -0.0854 -0.8142
  368MOL0     O49553   0.788   3.628   9.115  0.0792 -0.2577 -0.6650
  368MOL0     C49554   0.881   3.741   9.126 -0.3302  0.3224  0.0184
  368MOL0     C49555   0.773   3.844   9.149  0.0818 -0.0277  0.3359
  368MOL0     C49556   0.816   3.985   9.181  0.0908 -0.4793 -0.1966
  368MOL0     C49557   0.694   4.081   9.199  0.3883 -0.8556 -0.2901
  368MOL0     C49558   0.735   4.229   9.248 -0.9530  0.1778 -0.0986
  368MOL0     C49559   0.846   4.299   9.156  0.1056 -0.3346  0.4023
  368MOL0     C49560   0.817   4.296   9.004 -0.1547  0.2827 -0.3303
  368MOL0     C49561   0.689   4.363   8.982 -1.1512  0.1191  0.3586
  368MOL0     N49562   0.685   4.507   9.011  0.1262  0.2001 -0.2975
  368MOL0     C49563   0.612   4.560   9.113 -0.7184  0.3918 -0.5856
  368MOL0     C49564   0.603   4.692   9.100 -0.3224 -1.4600 -0.7103
  368MOL0     C49565   0.519   4.785   9.184  0.1857 -0.9184  0.3645
  368MOL0     C49566   0.610   4.850   9.288 -0.8253 -0.6547 -0.4969
  368MOL0     C49567   0.531   4.938   9.398 -0.4790  0.1482 -0.1847
  368MOL0     C49568   0.471   4.846   9.506 -0.2838  0.3947 -0.1027
  368MOL0     O49569   0.390   4.921   9.595  0.0646 -0.1539 -0.6446
  368MOL0     C49570   0.437   5.008   9.700  0.6834  0.4240 -0.0453
  368MOL0     C49571   0.563   5.020   9.744  0.0276 -0.1288  0.8371
  368MOL0     C49572   0.604   5.107   9.844  0.4129  1.3508 -0.1025
  368MOL0     C49573   0.510   5.183   9.907  0.6847  0.8227 -0.3616
  368MOL0     C49574   0.542   5.267  10.023 -0.0974 -0.5917 -0.4963
  368MOL0     O49575   0.430   5.324  10.081 -0.3263  0.3934 -0.1684
  368MOL0     C49576   0.453   5.374  10.199  0.0825 -0.4007 -0.3323
  368MOL0     C49577   0.436   5.512  10.212  0.6675 -1.4868  0.0997
  368MOL0     C49578   0.437   5.575  10.340 -0.5105 -0.2796  0.4935
  368MOL0     C49579   0.458   5.505  10.456 -1.0133  0.9152 -0.1975
  368MOL0     O49580   0.451   5.542  10.586  0.1418  0.1382  0.9727
  368MOL0     C49581   0.454   5.683  10.609  0.0797 -0.3656  0.7690
  368MOL0     C49582   0.474   5.708  10.755  0.1996  0.3914  0.3116
  368MOL0     C49583   0.626   5.741  10.775  0.6501  0.9177 -0.5026
  368MOL0     C49584   0.650   5.823  10.900 -0.1585 -0.7725  0.3240
  368MOL0     C49585   0.806   5.832  10.924 -0.2137 -0.0040 -0.1523
  368MOL0     C49586   0.842   5.809  11.071 -0.4401  0.1456  0.0976
  368MOL0     C49587   0.787   5.916  11.163  0.4294 -0.1033 -0.3190
  368MOL0     C49588   0.842   5.890  11.307 -0.3555 -1.1949 -0.7797
  368MOL0    Cl49589   0.812   6.015  11.429  0.2564  0.0867 -0.4262
  368MOL0     C49590   0.475   5.368  10.445 -0.5112  0.4559  0.1908
  368MOL0     C49591   0.467   5.309  10.324 -0.4296  0.1542  0.0781
  368MOL0     O49592   0.662   5.274  10.065  0.4891 -0.1459 -0.2720
  368MOL0     C49593   0.378   5.164   9.866  0.1944 -0.5272  0.2797
  368MOL0     C49594   0.339   5.080   9.757  0.3958 -0.0596 -0.5561
  368MOL0     N49595   0.662   4.720   8.983 -0.0740  0.9761 -0.8387
  368MOL0     N49596   0.714   4.614   8.927 -0.2685 -0.0481 -0.8714
  368MOL0     C49597   0.949   3.485   9.006 -0.1265 -0.6056  1.0237
  368MOL0     C49598   0.986   3.359   8.954  0.0001 -0.0554 -0.4330
  368MOL0     C49599   1.030   2.917   8.880  0.3825  0.3728 -0.0751
  368MOL0     C49600   0.974   2.913   8.753 -0.2614  0.6035  0.3628
  368MOL0     C49601   1.029   2.823   8.659 -0.4654  0.1830 -0.1818
  368MOL0     C49602   1.127   2.724   8.693  0.7084  0.4512 -0.6208
  368MOL0     O49603   1.151   2.613   8.613  0.5138 -0.6482 -0.6938
  368MOL0     C49604   1.130   2.615   8.472 -0.2098 -0.4788 -0.1353
  368MOL0     C49605   1.249   2.684   8.399  0.9550 -0.0288 -0.4202
  368MOL0     C49606   1.222   2.700   8.245  0.2675 -0.2571  0.1610
  368MOL0     C49607   1.346   2.709   8.158  0.1906 -0.8947 -0.9568
  368MOL0     C49608   1.452   2.798   8.219  0.1325 -1.0350  0.6425
  368MOL0     C49609   1.534   2.862   8.279  1.5272  0.1616 -0.4071
  368MOL0     C49610   1.175   2.729   8.825 -0.5170 -0.1968  0.9182
  368MOL0     C49611   1.133   2.823   8.918 -0.4240 -0.0568 -0.5396
  368MOL0     C49612   1.223   2.836   9.040 -0.4943 -0.3828 -0.5540
  368MOL0     H49613   0.711   3.188   9.069  1.0888  1.3716  3.3998
  368MOL0     H49614   0.647   3.411   9.155  0.1079 -0.2285  1.0485
  368MOL0     H49615   0.943   3.717   9.213 -0.9775 -1.3023  0.0844
  368MOL0     H49616   0.941   3.762   9.037 -1.2533  3.3806  0.0303
  368MOL0     H49617   0.707   3.819   9.233 -0.4316  0.5748  0.1190
  368MOL0     H49618   0.699   3.851   9.069 -1.6211 -0.8485  1.7748
  368MOL0     H49619   0.881   4.040   9.112  0.4103  1.2227  1.3755
  368MOL0     H49620   0.859   3.986   9.281 -1.2425  1.1477  0.3973
  368MOL0     H49621   0.642   4.090   9.104  0.0534  2.2376  0.0786
  368MOL0     H49622   0.622   4.031   9.265 -0.9139 -0.2644 -1.2221
  368MOL0     H49623   0.638   4.279   9.253 -0.2478  2.0237 -2.8473
  368MOL0     H49624   0.784   4.223   9.346  0.2101 -0.8981 -0.7146
  368MOL0     H49625   0.856   4.405   9.181 -1.0934 -0.7352  2.8960
  368MOL0     H49626   0.942   4.248   9.170  0.8710  0.0332 -2.6818
  368MOL0     H49627   0.818   4.201   8.951 -0.0890  0.7344 -1.1538
  368MOL0     H49628   0.885   4.360   8.947  1.5977 -0.7333  0.5308
  368MOL0     H49629   0.658   4.350   8.878  1.3747 -1.7176 -0.2702
  368MOL0     H49630   0.609   4.312   9.037 -0.6210 -2.1388 -0.8313
  368MOL0     H49631   0.572   4.506   9.198  0.4372 -1.4656 -1.1659
  368MOL0     H49632   0.477   4.864   9.120 -2.8279 -2.0339  0.7906
  368MOL0     H49633   0.439   4.726   9.229 -2.6883 -1.9647 -5.1292
  368MOL0     H49634   0.648   4.770   9.353 -4.6869 -0.5021  2.2677
  368MOL0     H49635   0.678   4.920   9.238  1.5578 -1.7892  0.9603
  368MOL0     H49636   0.452   4.995   9.349  0.4703  0.4970 -1.3816
  368MOL0     H49637   0.594   5.007   9.454  2.9435 -2.4101 -0.5625
  368MOL0     H49638   0.544   4.792   9.565 -1.0602  1.7319  2.1985
  368MOL0     H49639   0.399   4.780   9.457 -0.0441 -1.1159  1.4875
  368MOL0     H49640   0.644   4.972   9.690 -0.3398  2.1960 -2.0254
  368MOL0     H49641   0.710   5.104   9.864  0.6637  2.2949 -1.1695
  368MOL0     H49642   0.428   5.559  10.114  1.3991 -1.4773  0.0407
  368MOL0     H49643   0.434   5.684  10.346 -0.2388 -0.0765 -2.0024
  368MOL0     H49644   0.528   5.731  10.545  0.3105 -3.4706 -1.4976
  368MOL0     H49645   0.353   5.715  10.582  1.0478  0.9007 -1.6450
  368MOL0     H49646   0.412   5.795  10.782 -1.4445 -0.5192 -0.3443
  368MOL0     H49647   0.440   5.627  10.820 -0.0614  0.8917  0.8053
  368MOL0     H49648   0.677   5.644  10.784 -0.2821  0.5181  0.7240
  368MOL0     H49649   0.652   5.801  10.687 -2.9047 -1.1236 -3.2203
  368MOL0     H49650   0.594   5.772  10.980 -0.4704 -3.9745 -1.7324
  368MOL0     H49651   0.610   5.924  10.890  1.0058 -0.3683 -0.3295
  368MOL0     H49652   0.833   5.937  10.910  0.0172 -0.2339 -1.6012
  368MOL0     H49653   0.865   5.769  10.857  0.5121  0.1182  0.3642
  368MOL0     H49654   0.825   5.707  11.105  2.9482 -0.8755 -0.9192
  368MOL0     H49655   0.950   5.806  11.053 -0.7978 -0.1451 -2.2342
  368MOL0     H49656   0.678   5.903  11.167  0.0102  1.0082 -4.1529
  368MOL0     H49657   0.828   6.011  11.127  5.1751 -0.2993  3.5349
  368MOL0     H49658   0.790   5.798  11.335 -1.6324 -1.8191 -4.5467
  368MOL0     H49659   0.950   5.875  11.299 -0.1724  0.4708 -1.9580
  368MOL0     H49660   0.492   5.302  10.530  3.6208  0.7727 -0.1741
  368MOL0     H49661   0.483   5.202  10.330  1.2684  0.3982  0.3952
  368MOL0     H49662   0.298   5.231   9.899 -0.4982  0.3499 -2.8270
  368MOL0     H49663   0.239   5.060   9.722  0.5896 -0.0998 -1.0891
  368MOL0     H49664   1.014   3.567   8.979  1.9128 -2.7431 -1.1568
  368MOL0     H49665   1.077   3.350   8.895  0.4407  0.1572  0.2098
  368MOL0     H49666   0.902   2.982   8.710  1.5630  2.1274 -0.4005
  368MOL0     H49667   1.000   2.841   8.555 -2.0739  1.6716  0.4534
  368MOL0     H49668   1.035   2.663   8.447  0.0859  0.0265 -0.3047
  368MOL0     H49669   1.125   2.509   8.447 -1.1494 -0.4626 -0.0760
  368MOL0     H49670   1.338   2.629   8.428  1.6101  0.7042 -0.9926
  368MOL0     H49671   1.256   2.784   8.443 -0.1699  2.1082 -4.5933
  368MOL0     H49672   1.167   2.793   8.229 -1.1928 -0.7846  1.8333
  368MOL0     H49673   1.162   2.618   8.206  0.5726  0.6165 -2.3193
  368MOL0     H49674   1.402   2.615   8.162  0.5516 -0.7875 -2.7597
  368MOL0     H49675   1.313   2.746   8.060 -0.1029 -0.1513 -0.5927
  368MOL0     H49676   1.603   2.921   8.335  0.5510  2.7904 -1.7940
  368MOL0     H49677   1.257   2.664   8.855  0.4286 -0.2704 -1.6003
  368MOL0     H49678   1.314   2.776   9.027  1.5391  2.9439 -3.2303
  368MOL0     H49679   1.248   2.942   9.052 -1.9711 -0.1046  0.3005
  368MOL0     H49680   1.173   2.797   9.129 -1.8556  0.4527 -0.9190
  369MOL0     O49681   6.070   6.950   4.188  0.6087 -0.2884 -0.6260
  369MOL0     C49682   6.018   6.841   4.157  0.2462 -1.0582  0.0741
  369MOL0     O49683   5.896   6.830   4.110 -0.2003 -0.5359  0.9148
  369MOL0     C49684   5.799   6.925   4.125 -0.2519  0.2396  0.0431
  369MOL0     C49685   5.743   6.942   4.251  0.3198 -0.6138 -0.2453
  369MOL0     C49686   5.639   7.030   4.272 -0.0683 -1.1119 -0.4130
  369MOL0     C49687   5.590   7.108   4.165  0.3183 -0.8676  0.3616
  369MOL0     O49688   5.485   7.187   4.196  0.0334 -0.8551 -0.5636
  369MOL0     C49689   5.464   7.325   4.143  1.2202 -0.3240  1.2196
  369MOL0     C49690   5.310   7.359   4.163 -0.3662  0.4786 -0.2138
  369MOL0     C49691   5.255   7.369   4.303  0.2763 -0.0974  0.3211
  369MOL0     C49692   5.218   7.512   4.345  1.0981  1.0702 -0.1457
  369MOL0     C49693   5.135   7.506   4.473 -0.1645  0.0742 -0.1686
  369MOL0     C49694   5.029   7.624   4.481  0.3933 -0.7109 -0.0928
  369MOL0     C49695   4.924   7.601   4.591 -0.6580  0.5810  0.2213
  369MOL0     C49696   4.820   7.716   4.583  0.2664  0.2777  0.2061
  369MOL0     N49697   4.767   7.746   4.723 -0.2708 -0.0853 -0.5698
  369MOL0     C49698   4.839   7.814   4.821  0.2846  0.2427 -0.0064
  369MOL0     C49699   4.761   7.818   4.927 -0.4366  1.1073 -0.9183
  369MOL0     C49700   4.784   7.880   5.059 -0.0272 -0.2985 -0.4590
  369MOL0     C49701   4.670   7.877   5.164 -0.4471 -0.1051  0.2732
  369MOL0     C49702   4.711   7.968   5.281 -0.2927  0.6771  0.7523
  369MOL0     C49703   4.598   7.980   5.377 -0.1271  0.4228  0.0251
  369MOL0     O49704   4.498   8.065   5.324 -0.0329 -0.4128 -0.3478
  369MOL0     C49705   4.394   8.093   5.410 -0.3305  0.2470 -0.2548
  369MOL0     C49706   4.412   8.188   5.515 -0.1293  0.5483  0.5591
  369MOL0     C49707   4.316   8.204   5.613 -0.3672  0.8953  0.3652
  369MOL0     C49708   4.202   8.121   5.613  0.5926  0.2078  0.4718
  369MOL0     C49709   4.109   8.128   5.725 -0.4602 -0.2228 -0.3120
  369MOL0     O49710   4.123   8.238   5.808  0.2615  0.3528 -0.4016
  369MOL0     C49711   4.044   8.265   5.920  0.9893 -0.1670 -0.3818
  369MOL0     C49712   3.903   8.245   5.922 -0.1902 -0.7973  0.2057
  369MOL0     C49713   3.823   8.297   6.019 -0.2934  0.7173 -0.1322
  369MOL0     C49714   3.873   8.379   6.123  0.5170 -0.9763  0.0424
  369MOL0     O49715   3.805   8.427   6.234  0.0190  0.0627  0.7248
  369MOL0     C49716   3.686   8.363   6.249 -0.8613 -0.0308  0.3397
  369MOL0     C49717   3.607   8.416   6.369 -0.4343 -0.3480 -0.7884
  369MOL0     C49718   3.676   8.361   6.493 -0.0335 -0.2148  0.2025
  369MOL0     C49719   3.663   8.212   6.526  0.6055 -0.5900  0.2099
  369MOL0     C49720   3.715   8.174   6.665  0.6568  0.1410 -0.7123
  369MOL0     C49721   3.635   8.250   6.777 -0.2236 -0.3487  0.0188
  369MOL0     C49722   3.692   8.205   6.914  0.3300  0.5702  0.0235
  369MOL0     C49723   3.604   8.272   7.022 -0.1792  0.1583  0.4323
  369MOL0    Cl49724   3.449   8.177   7.021 -0.3969  0.3207  0.4244
  369MOL0     C49725   4.006   8.391   6.124 -0.2657  0.2314  0.4227
  369MOL0     C49726   4.092   8.337   6.026  1.3599 -0.2641  0.1268
  369MOL0     O49727   4.012   8.057   5.736  1.0092 -1.0442 -0.0670
  369MOL0     C49728   4.183   8.033   5.508  0.5282  0.5900 -0.6934
  369MOL0     C49729   4.279   8.020   5.406 -0.3203 -0.4234 -0.2255
  369MOL0     N49730   4.647   7.745   4.887 -0.3632 -0.7730 -0.2170
  369MOL0     N49731   4.643   7.713   4.764 -0.5254 -0.2456 -0.1368
  369MOL0     C49732   5.642   7.089   4.035 -0.4227  0.4882 -0.2700
  369MOL0     C49733   5.749   6.997   4.014 -0.4120 -0.3523 -0.8846
  369MOL0     C49734   6.095   6.719   4.178  0.2413 -0.8269  0.0311
  369MOL0     C49735   6.031   6.597   4.200  0.6199  0.3359 -0.9776
  369MOL0     C49736   6.098   6.476   4.223  1.2911  0.3461  0.5696
  369MOL0     C49737   6.236   6.474   4.206  0.0861  0.2461 -0.2210
  369MOL0     O49738   6.296   6.351   4.204  0.3914 -0.1390 -0.6684
  369MOL0     C49739   6.432   6.340   4.180 -0.4841 -0.2366  0.6891
  369MOL0     C49740   6.475   6.199   4.180 -0.1420  0.7169 -0.7342
  369MOL0     C49741   6.623   6.173   4.145 -0.5652  0.1426 -0.9340
  369MOL0     C49742   6.719   6.216   4.260 -0.4194 -0.0119 -0.0465
  369MOL0     C49743   6.768   6.109   4.351  0.0933  0.4479  0.1795
  369MOL0     C49744   6.814   6.010   4.409 -0.4620 -0.6815 -0.1544
  369MOL0     C49745   6.309   6.593   4.191 -0.2403  0.3217 -0.5434
  369MOL0     C49746   6.241   6.709   4.166 -0.0021 -0.2552 -0.2093
  369MOL0     C49747   6.330   6.827   4.125  0.1617  0.9251  0.5076
  369MOL0     H49748   5.780   6.879   4.331  2.6110  0.7848 -0.1128
  369MOL0     H49749   5.592   7.039   4.369 -1.6796  3.8580 -1.3523
  369MOL0     H49750   5.510   7.408   4.198 -1.0817  0.8502  1.4865
  369MOL0     H49751   5.489   7.333   4.037  2.2764  0.1340  1.4795
  369MOL0     H49752   5.259   7.284   4.102 -1.8298 -3.8918  5.4654
  369MOL0     H49753   5.286   7.452   4.109  1.0850  2.1398  1.8340
  369MOL0     H49754   5.325   7.318   4.370  0.4820 -1.8006 -1.1093
  369MOL0     H49755   5.161   7.313   4.292  1.0523 -1.7500  1.6016
  369MOL0     H49756   5.311   7.569   4.345  0.9048  1.4201  0.9768
  369MOL0     H49757   5.146   7.549   4.271 -0.2207  0.3457  0.7157
  369MOL0     H49758   5.064   7.423   4.478 -2.4909  1.9968  2.6880
  369MOL0     H49759   5.195   7.506   4.564 -0.8150 -0.2986  0.2687
  369MOL0     H49760   5.069   7.725   4.490 -0.9740 -0.2954  1.8087
  369MOL0     H49761   4.976   7.615   4.386  0.3825  0.6962 -0.2455
  369MOL0     H49762   4.981   7.603   4.684  0.0531  0.6977 -0.2103
  369MOL0     H49763   4.870   7.506   4.580  1.6164 -0.4898 -3.6562
  369MOL0     H49764   4.852   7.811   4.541 -0.6776  0.4617 -0.1197
  369MOL0     H49765   4.740   7.682   4.517  1.9724 -0.4392 -1.5912
  369MOL0     H49766   4.945   7.835   4.818  0.7750 -2.0962 -2.1740
  369MOL0     H49767   4.865   7.819   5.099 -0.5266 -0.7384 -0.1022
  369MOL0     H49768   4.825   7.981   5.051  2.6448 -1.4132 -2.5035
  369MOL0     H49769   4.589   7.920   5.106 -0.7325 -0.9196  0.0481
  369MOL0     H49770   4.654   7.773   5.194 -3.7620  0.1238 -0.3690
  369MOL0     H49771   4.732   8.066   5.237  0.1723 -0.3202 -1.3970
  369MOL0     H49772   4.798   7.919   5.327 -2.4014 -1.5741  2.6312
  369MOL0     H49773   4.642   8.016   5.470 -2.4517 -1.2082  1.8812
  369MOL0     H49774   4.565   7.879   5.401  1.7527 -0.5554 -1.3125
  369MOL0     H49775   4.505   8.244   5.511  0.5046 -0.4682 -3.2502
  369MOL0     H49776   4.328   8.272   5.696 -1.6611  2.0038 -0.3203
  369MOL0     H49777   3.856   8.182   5.847  2.0741 -1.0616 -1.1133
  369MOL0     H49778   3.719   8.272   6.005 -0.6383  0.9485  1.7732
  369MOL0     H49779   3.625   8.387   6.161  0.3694 -1.6246 -1.0228
  369MOL0     H49780   3.706   8.256   6.261  1.6430  0.6278  3.4910
  369MOL0     H49781   3.604   8.524   6.388 -4.9844 -0.1990 -1.2710
  369MOL0     H49782   3.504   8.382   6.353 -0.1037 -1.6307 -0.3286
  369MOL0     H49783   3.783   8.383   6.485 -0.1476  0.1294 -0.4355
  369MOL0     H49784   3.639   8.420   6.578 -1.8962 -0.5313 -0.3439
  369MOL0     H49785   3.728   8.160   6.455  0.8300  0.9520 -0.7652
  369MOL0     H49786   3.556   8.191   6.512  1.0181 -2.3546 -0.6031
  369MOL0     H49787   3.821   8.201   6.671  0.6732 -0.2081  2.2739
  369MOL0     H49788   3.720   8.065   6.681  1.3749 -0.4659 -4.2872
  369MOL0     H49789   3.624   8.359   6.765 -0.6865 -0.6134 -2.7061
  369MOL0     H49790   3.530   8.223   6.770 -1.3273  2.4133  3.0138
  369MOL0     H49791   3.793   8.248   6.914  0.6434  0.0024 -2.8226
  369MOL0     H49792   3.697   8.097   6.933 -0.6600  0.5013 -0.0625
  369MOL0     H49793   3.659   8.261   7.116  0.9966 -1.9109 -0.4258
  369MOL0     H49794   3.578   8.376   7.003 -1.4306 -0.2672 -0.3304
  369MOL0     H49795   4.047   8.452   6.204  0.9955 -0.9589  0.7181
  369MOL0     H49796   4.197   8.362   6.036  0.9696  1.6717 -0.3368
  369MOL0     H49797   4.089   7.979   5.505  0.5885  0.3282  1.1483
  369MOL0     H49798   4.273   7.949   5.324  1.0973 -2.1285  1.0767
  369MOL0     H49799   5.619   7.133   3.939  1.8876 -3.3921 -2.9109
  369MOL0     H49800   5.785   6.990   3.912  0.5995 -1.5521 -0.4704
  369MOL0     H49801   5.923   6.588   4.205  0.8083 -1.5978  0.9414
  369MOL0     H49802   6.040   6.385   4.232 -0.1745  1.3082  1.2442
  369MOL0     H49803   6.489   6.407   4.246 -3.0830  1.0713  1.7566
  369MOL0     H49804   6.446   6.368   4.075  2.7571 -0.6485  0.9283
  369MOL0     H49805   6.407   6.134   4.124 -0.2835 -1.3539  1.6511
  369MOL0     H49806   6.478   6.154   4.280  1.7442 -5.0144 -2.9222
  369MOL0     H49807   6.647   6.226   4.052  2.6429 -1.0038 -0.8717
  369MOL0     H49808   6.639   6.068   4.122 -1.7378 -0.1439 -0.4937
  369MOL0     H49809   6.803   6.266   4.210 -0.6380  1.4750  1.0229
  369MOL0     H49810   6.657   6.283   4.320 -0.1298 -1.3516  1.8247
  369MOL0     H49811   6.848   5.929   4.471  0.0961  0.2833  0.8419
  369MOL0     H49812   6.418   6.592   4.183 -0.1981 -1.2179 -0.0567
  369MOL0     H49813   6.290   6.871   4.032  1.3206  0.9626  0.0070
  369MOL0     H49814   6.327   6.907   4.200 -2.7779  1.1516  0.2749
  369MOL0     H49815   6.418   6.787   4.073 -0.5837 -0.5697  0.3500
  370MOL0     O49816   1.638   0.944   4.054 -0.2258 -0.8318 -0.2118
  370MOL0     C49817   1.588   1.032   4.124 -0.1106  0.6622 -0.7232
  370MOL0     O49818   1.473   1.098   4.101  0.0560  0.1611 -0.4451
  370MOL0     C49819   1.394   1.039   4.016  0.1551  0.0676 -0.9834
  370MOL0     C49820   1.419   1.059   3.878 -0.2469  0.3721 -0.4544
  370MOL0     C49821   1.339   1.004   3.781  0.2648  0.6176  1.0553
  370MOL0     C49822   1.224   0.929   3.817  1.0468 -0.3319  0.0356
  370MOL0     O49823   1.129   0.878   3.732  0.6515  0.5093 -0.1293
  370MOL0     C49824   1.161   0.748   3.666  1.3679 -1.3305 -0.9311
  370MOL0     C49825   1.161   0.638   3.785  0.1979  0.3340  0.8397
  370MOL0     C49826   1.163   0.490   3.716  0.2854 -0.2713 -0.2628
  370MOL0     C49827   1.096   0.396   3.822  0.2696  0.4377 -0.0345
  370MOL0     C49828   1.122   0.245   3.792  1.4596 -0.6001  0.0313
  370MOL0     C49829   1.031   0.162   3.899 -0.8559  0.3712  0.3689
  370MOL0     C49830   0.993   0.215   4.035  0.4966  0.7738  0.5205
  370MOL0     C49831   1.110   0.199   4.136  0.9761  0.5824 -0.4217
  370MOL0     N49832   1.152   0.056   4.160  0.3339  0.1388  0.6453
  370MOL0     C49833   1.110  -0.015   4.270  0.4263  0.8746  0.4879
  370MOL0     C49834   1.187  -0.129   4.261 -0.9044 -0.4652  0.4165
  370MOL0     C49835   1.178  -0.241   4.361 -0.1079  1.2261 -0.7455
  370MOL0     C49836   1.311  -0.294   4.409 -0.9723 -0.5364 -0.3296
  370MOL0     C49837   1.438  -0.203   4.406  0.2425  0.4979 -0.4806
  370MOL0     C49838   1.571  -0.259   4.474  0.1483 -0.1952  0.4945
  370MOL0     O49839   1.548  -0.293   4.612 -0.4660 -0.3360  0.1315
  370MOL0     C49840   1.554  -0.191   4.704  0.4994 -0.6507  0.2198
  370MOL0     C49841   1.445  -0.155   4.780  0.1553  0.0897  0.2812
  370MOL0     C49842   1.460  -0.065   4.888  0.2388  0.4493  0.1286
  370MOL0     C49843   1.579  -0.001   4.915  0.1954 -0.8179  0.2868
  370MOL0     C49844   1.594   0.092   5.035 -0.0086  1.2332  0.4997
  370MOL0     O49845   1.712   0.158   5.039  0.2404 -0.3483  0.0812
  370MOL0     C49846   1.735   0.238   5.144 -0.5016 -0.3488  0.7633
  370MOL0     C49847   1.856   0.232   5.208 -0.1750 -0.0415  1.0072
  370MOL0     C49848   1.894   0.314   5.313  0.8439 -1.4437 -0.2633
  370MOL0     C49849   1.818   0.434   5.336  0.8831  0.0566 -0.2228
  370MOL0     O49850   1.869   0.521   5.430  0.1163 -0.1140  0.4215
  370MOL0     C49851   1.921   0.651   5.374 -0.4614 -0.0714 -0.2203
  370MOL0     C49852   1.932   0.756   5.478 -0.9845  0.2821  0.8857
  370MOL0     C49853   2.042   0.741   5.579  0.6695 -0.4320 -0.6278
  370MOL0     C49854   2.125   0.867   5.577 -0.1786 -0.4417  0.0547
  370MOL0     C49855   2.270   0.838   5.636 -0.3141  0.4614  0.5058
  370MOL0     C49856   2.385   0.903   5.546  0.4607 -0.8478  0.6402
  370MOL0     C49857   2.371   1.058   5.529 -0.6596 -0.2017 -0.2741
  370MOL0     C49858   2.508   1.119   5.496  1.1388 -0.0855  0.0031
  370MOL0    Cl49859   2.570   1.054   5.346 -0.1806 -0.1144 -0.0386
  370MOL0     C49860   1.698   0.446   5.267 -0.3412  0.2758 -0.2981
  370MOL0     C49861   1.661   0.349   5.168 -0.2049 -0.4817  0.0241
  370MOL0     O49862   1.493   0.115   5.100 -0.2870 -0.4238  0.7273
  370MOL0     C49863   1.678  -0.019   4.826 -0.3506 -0.2865 -0.0735
  370MOL0     C49864   1.673  -0.118   4.730 -0.4720  0.1266 -0.6875
  370MOL0     N49865   1.283  -0.115   4.160  0.4726 -0.3475  0.5946
  370MOL0     N49866   1.261   0.000   4.107 -0.3686  0.4942 -0.1238
  370MOL0     C49867   1.195   0.919   3.954  0.4297  0.2552  1.6189
  370MOL0     C49868   1.283   0.970   4.057 -0.2292  1.4923  0.9882
  370MOL0     C49869   1.690   1.096   4.213 -0.7283 -1.0099 -0.6421
  370MOL0     C49870   1.642   1.190   4.306 -0.4376  0.1105 -0.2818
  370MOL0     C49871   1.710   1.256   4.401 -0.4203 -0.4242  0.4332
  370MOL0     C49872   1.844   1.214   4.425  0.3414 -0.1549 -0.4258
  370MOL0     O49873   1.919   1.251   4.534  0.3541  0.0475 -0.1225
  370MOL0     C49874   1.865   1.371   4.614  0.0553  0.3062 -0.3509
  370MOL0     C49875   1.882   1.498   4.539  1.0390 -0.6836  0.2135
  370MOL0     C49876   2.026   1.546   4.499 -0.3921 -0.1352  0.4501
  370MOL0     C49877   2.081   1.467   4.386 -0.2750  0.4795  1.2452
  370MOL0     C49878   2.173   1.546   4.307 -0.1194  0.7084 -0.4270
  370MOL0     C49879   2.247   1.602   4.231 -0.2123  0.9334 -0.5040
  370MOL0     C49880   1.903   1.120   4.341 -0.2549 -0.2415  0.3332
  370MOL0     C49881   1.828   1.061   4.235  0.3467  0.1313 -0.5481
  370MOL0     C49882   1.899   0.953   4.150 -0.6905 -0.1116 -0.4302
  370MOL0     H49883   1.508   1.113   3.850 -1.0469  3.8979  2.9640
  370MOL0     H49884   1.364   1.000   3.676 -0.5600 -2.0210  0.8932
  370MOL0     H49885   1.096   0.717   3.584  2.9588 -1.8537 -2.0233
  370MOL0     H49886   1.262   0.749   3.625  1.9121  3.9498 -0.1774
  370MOL0     H49887   1.081   0.641   3.859  1.4532  1.4723  2.2104
  370MOL0     H49888   1.251   0.657   3.844 -0.0699 -2.2389  2.1813
  370MOL0     H49889   1.269   0.467   3.702  0.0688 -0.7202 -1.2545
  370MOL0     H49890   1.106   0.491   3.623  0.4612 -0.3995 -0.3738
  370MOL0     H49891   1.125   0.433   3.921  0.7600  3.5087 -1.2250
  370MOL0     H49892   0.989   0.415   3.809  0.2160  0.3114  0.2228
  370MOL0     H49893   1.091   0.221   3.690  1.1400  1.5805 -0.4466
  370MOL0     H49894   1.226   0.215   3.804  1.8035  1.0321  1.8537
  370MOL0     H49895   0.943   0.131   3.841 -1.4889  0.2231  1.3848
  370MOL0     H49896   1.076   0.064   3.919 -3.1134 -0.5383  1.3075
  370MOL0     H49897   0.905   0.160   4.068  0.2790  1.2539  0.7638
  370MOL0     H49898   0.945   0.310   4.011 -0.7328  0.3014  1.0646
  370MOL0     H49899   1.200   0.252   4.104  2.6328 -1.1685  1.0398
  370MOL0     H49900   1.075   0.232   4.234  1.5819 -2.0593  0.7951
  370MOL0     H49901   1.051   0.020   4.354 -0.0022 -0.8721  0.9685
  370MOL0     H49902   1.114  -0.217   4.446  1.2988  0.2209  0.6325
  370MOL0     H49903   1.125  -0.325   4.314  1.6322  0.1802 -0.9089
  370MOL0     H49904   1.298  -0.314   4.516  1.5696  1.8945  0.5344
  370MOL0     H49905   1.341  -0.378   4.346  1.9374 -0.9138  1.3435
  370MOL0     H49906   1.425  -0.101   4.442  2.5452  0.8303 -0.4530
  370MOL0     H49907   1.468  -0.190   4.302 -1.1148  2.5661 -0.6617
  370MOL0     H49908   1.647  -0.180   4.465 -3.2299  3.3849  0.7573
  370MOL0     H49909   1.603  -0.343   4.411 -2.0958 -1.6000  1.1160
  370MOL0     H49910   1.359  -0.203   4.735  0.6831  1.9153 -3.0565
  370MOL0     H49911   1.374  -0.059   4.953 -0.9750 -0.1547 -1.3726
  370MOL0     H49912   1.921   0.150   5.181  0.7127  0.8030  0.5100
  370MOL0     H49913   1.989   0.280   5.353  0.6030 -4.0661 -1.7442
  370MOL0     H49914   2.025   0.632   5.345 -0.5119 -0.6375 -0.0580
  370MOL0     H49915   1.861   0.689   5.291 -0.6422 -0.2987 -0.1976
  370MOL0     H49916   1.940   0.850   5.424 -0.0417  1.3628  2.8083
  370MOL0     H49917   1.836   0.756   5.531 -0.1474 -0.6322  2.4869
  370MOL0     H49918   2.000   0.728   5.679  1.2565 -0.5944 -0.4027
  370MOL0     H49919   2.107   0.654   5.565  1.1006 -0.0998 -0.6818
  370MOL0     H49920   2.092   0.956   5.631  0.1770 -1.0585  1.3304
  370MOL0     H49921   2.139   0.905   5.476  0.6219 -0.9719 -0.0382
  370MOL0     H49922   2.283   0.731   5.653 -1.6757  0.3612  1.0700
  370MOL0     H49923   2.281   0.872   5.739  1.0392  0.3215  0.4269
  370MOL0     H49924   2.468   0.875   5.612  0.4682 -2.0075  0.1562
  370MOL0     H49925   2.406   0.862   5.447  1.4887 -0.6570  0.7706
  370MOL0     H49926   2.364   1.114   5.622 -0.3577 -0.6812  0.0431
  370MOL0     H49927   2.290   1.080   5.458 -0.8548 -0.2006 -0.0513
  370MOL0     H49928   2.493   1.226   5.480 -1.8947 -0.4182  0.0401
  370MOL0     H49929   2.587   1.096   5.568  0.6434  5.0761  2.6506
  370MOL0     H49930   1.648   0.543   5.261  0.0637  0.4158 -1.7775
  370MOL0     H49931   1.565   0.363   5.120 -1.1380 -1.3501  1.5514
  370MOL0     H49932   1.773   0.033   4.834  0.0887 -1.0086 -0.4992
  370MOL0     H49933   1.750  -0.155   4.662 -2.2993 -5.6809 -0.1681
  370MOL0     H49934   1.095   0.887   3.982 -0.3163 -0.1780 -1.2176
  370MOL0     H49935   1.244   0.936   4.152 -2.7080 -2.0658 -1.0358
  370MOL0     H49936   1.538   1.222   4.314  0.4668  3.1693  0.6566
  370MOL0     H49937   1.654   1.327   4.462  0.7446 -0.7951  1.9877
  370MOL0     H49938   1.911   1.383   4.712 -3.3281  0.7379  1.3512
  370MOL0     H49939   1.764   1.342   4.645  1.3121 -2.5076  1.5684
  370MOL0     H49940   1.845   1.575   4.608  4.1218 -1.7069  3.3516
  370MOL0     H49941   1.817   1.495   4.451  2.1373 -0.1566 -0.6331
  370MOL0     H49942   2.100   1.543   4.579 -2.1660 -1.0472  2.1223
  370MOL0     H49943   2.020   1.653   4.474 -0.3434 -1.0411 -4.4036
  370MOL0     H49944   2.118   1.371   4.424 -3.1865 -0.8506  0.9968
  370MOL0     H49945   2.006   1.430   4.315  2.1587 -0.9146 -0.7472
  370MOL0     H49946   2.308   1.632   4.149 -1.0005  3.0615 -0.3595
  370MOL0     H49947   2.004   1.081   4.356 -0.6847 -1.5141  0.0917
  370MOL0     H49948   1.840   0.863   4.129 -1.8683  0.6106 -0.2295
  370MOL0     H49949   1.927   1.001   4.057 -0.1485  0.9876  0.2818
  370MOL0     H49950   1.989   0.916   4.202 -0.6846  0.0464 -0.3254
  371MOL0     O49951   4.865   3.144   5.380 -0.2546  0.1392 -0.1068
  371MOL0     C49952   4.916   3.060   5.312 -0.5348  0.6282  0.3625
  371MOL0     O49953   5.037   3.058   5.272 -0.3927 -0.2402  0.1542
  371MOL0     C49954   5.114   3.176   5.285  0.2180 -0.1157 -0.5965
  371MOL0     C49955   5.191   3.223   5.179 -0.7573 -0.3933  0.0298
  371MOL0     C49956   5.270   3.339   5.187 -0.5148  0.6496  0.3838
  371MOL0     C49957   5.293   3.408   5.304 -0.3035 -0.4874  0.3413
  371MOL0     O49958   5.357   3.525   5.298  0.1371 -0.2598 -0.2635
  371MOL0     C49959   5.430   3.546   5.416  0.0908  0.5178 -0.0659
  371MOL0     C49960   5.552   3.624   5.373  0.0606 -0.4163  0.8886
  371MOL0     C49961   5.517   3.746   5.284 -1.0293 -0.1617  0.2915
  371MOL0     C49962   5.421   3.849   5.341 -0.2275 -0.6460  0.3701
  371MOL0     C49963   5.468   3.903   5.479  0.1147  0.0489 -0.1073
  371MOL0     C49964   5.604   3.963   5.474  0.7130 -0.5716 -0.0752
  371MOL0     C49965   5.640   4.021   5.621 -0.1006  0.2894  0.5669
  371MOL0     C49966   5.790   4.044   5.626  0.3289 -1.1075  0.7441
  371MOL0     N49967   5.821   4.154   5.712 -0.3702 -0.1235 -0.2740
  371MOL0     C49968   5.803   4.286   5.676 -0.1247  0.0272 -0.7707
  371MOL0     C49969   5.832   4.360   5.782  0.0402  0.0816  0.3153
  371MOL0     C49970   5.796   4.499   5.797  0.2291 -0.6611 -0.3502
  371MOL0     C49971   5.647   4.542   5.765  0.1325 -0.1397  0.0882
  371MOL0     C49972   5.544   4.447   5.828 -1.2903 -0.7103 -0.0428
  371MOL0     C49973   5.414   4.459   5.752 -0.0581 -0.0976 -0.7531
  371MOL0     O49974   5.315   4.405   5.837 -0.0307  0.5128  0.2234
  371MOL0     C49975   5.308   4.273   5.861  0.7273 -0.3968 -0.5494
  371MOL0     C49976   5.259   4.235   5.983 -0.0186 -0.2511 -0.2550
  371MOL0     C49977   5.247   4.094   6.015 -0.4672 -1.3684  0.7300
  371MOL0     C49978   5.251   3.998   5.911  0.1751  0.4175 -0.2328
  371MOL0     C49979   5.216   3.860   5.923  0.5160  0.0500 -0.7889
  371MOL0     O49980   5.124   3.831   6.018 -0.4674 -0.9439  0.1240
  371MOL0     C49981   5.069   3.710   6.048  0.1947 -0.7847  0.9348
  371MOL0     C49982   5.108   3.586   5.997  0.7665  0.5790 -0.6682
  371MOL0     C49983   5.045   3.466   6.030 -0.3850 -0.9109  0.2040
  371MOL0     C49984   4.920   3.478   6.091  0.7064 -0.1113 -0.3675
  371MOL0     O49985   4.839   3.367   6.113 -0.4639  0.0268  0.0783
  371MOL0     C49986   4.880   3.255   6.044 -0.6378 -0.0098  0.0532
  371MOL0     C49987   4.773   3.143   6.035  0.6644  0.1374  0.1162
  371MOL0     C49988   4.753   3.075   6.177 -0.1985  0.8133  0.4865
  371MOL0     C49989   4.676   3.152   6.285 -0.6317 -0.3354  0.4383
  371MOL0     C49990   4.624   3.050   6.386 -0.4332 -2.2253  0.7928
  371MOL0     C49991   4.580   3.117   6.517  0.5814  0.3843  0.6541
  371MOL0     C49992   4.436   3.177   6.511  0.7299  0.5119  0.7872
  371MOL0     C49993   4.339   3.062   6.545  0.6215 -0.0025 -1.0957
  371MOL0    Cl49994   4.174   3.127   6.602 -0.0617 -0.0510  0.0644
  371MOL0     C49995   4.864   3.599   6.122  0.4693  0.5957  0.0248
  371MOL0     C49996   4.948   3.713   6.111 -0.2691  0.5235  0.0419
  371MOL0     O49997   5.259   3.778   5.844  0.4236  0.0365  0.0515
  371MOL0     C49998   5.274   4.049   5.782  0.7953 -0.0912  0.1696
  371MOL0     C49999   5.300   4.183   5.763 -0.1887  0.5192 -0.6047
  371MOL0     N50000   5.867   4.273   5.895  1.1402 -0.2325  0.5978
  371MOL0     N50001   5.858   4.155   5.841  0.1782  0.0520 -0.4177
  371MOL0     C50002   5.212   3.371   5.411  1.2104 -0.4144  0.8343
  371MOL0     C50003   5.131   3.255   5.398 -0.2634  0.5039  0.0915
  371MOL0     C50004   4.833   2.945   5.272  0.3640 -0.5688 -0.0686
  371MOL0     C50005   4.896   2.846   5.192  0.9225 -0.6340 -0.4667
  371MOL0     C50006   4.829   2.731   5.148 -0.6400 -0.4462 -0.6248
  371MOL0     C50007   4.689   2.725   5.169  0.3110  0.5177  0.1701
  371MOL0     O50008   4.632   2.624   5.101 -0.0445  0.3435 -0.8484
  371MOL0     C50009   4.493   2.608   5.102  0.5179  1.0862  0.5624
  371MOL0     C50010   4.432   2.683   4.989 -0.3399 -0.0002 -0.3443
  371MOL0     C50011   4.278   2.665   4.986  0.1598  0.1492  0.3455
  371MOL0     C50012   4.230   2.525   4.930  1.1701 -0.2140  0.3462
  371MOL0     C50013   4.085   2.517   4.954 -0.7479  0.0648  0.9056
  371MOL0     C50014   3.973   2.493   4.976  0.4254  0.4680 -0.2023
  371MOL0     C50015   4.628   2.809   5.251 -0.4847  0.3277  0.8736
  371MOL0     C50016   4.690   2.933   5.291 -0.8014  0.8138 -0.2346
  371MOL0     C50017   4.601   3.025   5.365  0.2204 -0.2462  1.1106
  371MOL0     H50018   5.175   3.167   5.087 -2.5574  0.4737 -0.2363
  371MOL0     H50019   5.327   3.381   5.105  0.0757  0.6393  0.7861
  371MOL0     H50020   5.378   3.592   5.501  1.4532  1.1110  0.4842
  371MOL0     H50021   5.471   3.450   5.449 -0.4317 -0.3900 -1.9450
  371MOL0     H50022   5.615   3.559   5.311  0.7617  1.5992 -0.6387
  371MOL0     H50023   5.606   3.646   5.465  0.8187  2.1861 -0.1114
  371MOL0     H50024   5.482   3.709   5.187  1.2113  1.4134 -1.2331
  371MOL0     H50025   5.609   3.792   5.245  0.3909 -1.6954  1.6459
  371MOL0     H50026   5.414   3.931   5.270  4.3746 -2.2772 -2.4755
  371MOL0     H50027   5.326   3.799   5.363 -0.1708 -0.4400  1.1315
  371MOL0     H50028   5.401   3.978   5.522 -0.7945 -0.9255  0.2109
  371MOL0     H50029   5.479   3.817   5.545  2.7513 -1.1877 -1.9635
  371MOL0     H50030   5.682   3.892   5.445 -0.3928 -2.3545  1.1550
  371MOL0     H50031   5.610   4.048   5.405  0.9978  1.0264  1.8141
  371MOL0     H50032   5.619   3.949   5.700  3.9616 -0.8595  0.8284
  371MOL0     H50033   5.586   4.115   5.635 -2.5661 -1.0872  0.9458
  371MOL0     H50034   5.838   3.954   5.664  0.5935 -1.4412 -0.3514
  371MOL0     H50035   5.828   4.068   5.526 -0.1638 -2.5482  0.1855
  371MOL0     H50036   5.781   4.332   5.580 -0.5320  2.7279  0.5213
  371MOL0     H50037   5.813   4.532   5.899 -0.0751  0.5703 -0.6779
  371MOL0     H50038   5.859   4.559   5.731 -2.6524  0.8453 -1.9842
  371MOL0     H50039   5.633   4.645   5.799 -0.8713 -0.8660  2.0077
  371MOL0     H50040   5.650   4.529   5.656 -0.4824  0.1144  0.0379
  371MOL0     H50041   5.536   4.485   5.930 -0.8904  0.6948 -0.5150
  371MOL0     H50042   5.569   4.340   5.821 -0.2387 -0.5058  0.4043
  371MOL0     H50043   5.427   4.395   5.664 -1.3500 -2.1852  0.4618
  371MOL0     H50044   5.394   4.564   5.733 -0.9378 -0.2655 -0.8064
  371MOL0     H50045   5.242   4.306   6.063 -0.1206  0.4510 -0.8916
  371MOL0     H50046   5.224   4.057   6.115 -1.1203 -2.3681  0.2354
  371MOL0     H50047   5.199   3.577   5.938 -0.4886 -0.0713 -2.5943
  371MOL0     H50048   5.101   3.379   5.994 -1.7357 -1.6401 -0.2054
  371MOL0     H50049   4.901   3.277   5.939 -3.5101  2.7762 -0.0857
  371MOL0     H50050   4.972   3.215   6.089 -1.1098 -1.1153  0.0703
  371MOL0     H50051   4.672   3.164   6.000  0.4487 -0.5398  0.3174
  371MOL0     H50052   4.800   3.061   5.967 -1.0267 -0.1252 -0.2646
  371MOL0     H50053   4.706   2.981   6.147  0.7451  1.0051 -1.7545
  371MOL0     H50054   4.852   3.053   6.217  0.1131  1.5367  0.1401
  371MOL0     H50055   4.590   3.206   6.245  1.0408  1.5096 -0.8784
  371MOL0     H50056   4.742   3.229   6.326 -0.5796 -0.5693  0.7934
  371MOL0     H50057   4.704   2.983   6.419  0.8142  0.6192  4.3424
  371MOL0     H50058   4.541   2.995   6.341  0.7268 -4.2202  1.0049
  371MOL0     H50059   4.580   3.047   6.601 -0.5352  1.1849  1.3570
  371MOL0     H50060   4.648   3.199   6.544 -2.6019  2.1241  4.6379
  371MOL0     H50061   4.419   3.205   6.406  2.1900 -1.1153  0.0626
  371MOL0     H50062   4.432   3.269   6.569 -0.6654  1.1662 -0.2778
  371MOL0     H50063   4.318   3.013   6.450 -1.7661  3.7772 -2.7639
  371MOL0     H50064   4.376   3.006   6.631 -3.7326 -1.5349  0.0410
  371MOL0     H50065   4.769   3.618   6.170  0.2895  0.2578 -0.1982
  371MOL0     H50066   4.898   3.805   6.138 -1.2289 -0.0478  0.2535
  371MOL0     H50067   5.265   3.973   5.706 -0.5743 -2.0459  2.1600
  371MOL0     H50068   5.308   4.222   5.663 -1.7886  2.1669 -0.1450
  371MOL0     H50069   5.220   3.429   5.502  0.0914  0.6087  0.3143
  371MOL0     H50070   5.078   3.224   5.488  1.7651 -3.2410  0.2029
  371MOL0     H50071   5.002   2.850   5.171  0.8199 -1.3417 -1.1447
  371MOL0     H50072   4.882   2.649   5.100  0.3018 -1.9535  2.7079
  371MOL0     H50073   4.452   2.627   5.202 -2.2768  3.7234 -0.9040
  371MOL0     H50074   4.472   2.503   5.080  1.4301  1.4525 -2.5624
  371MOL0     H50075   4.484   2.654   4.898 -1.1069  1.9304 -1.4681
  371MOL0     H50076   4.453   2.790   4.999 -1.6356  0.1328  1.5474
  371MOL0     H50077   4.242   2.741   4.916  2.8875 -1.2943 -2.8373
  371MOL0     H50078   4.239   2.677   5.088  2.8049 -3.8256  2.0531
  371MOL0     H50079   4.229   2.506   4.823  1.6800 -2.2883  0.6674
  371MOL0     H50080   4.291   2.444   4.971  3.7661  0.6795 -1.4859
  371MOL0     H50081   3.878   2.461   5.013  1.7484 -0.1173  3.0000
  371MOL0     H50082   4.527   2.792   5.287 -0.8440  0.5010 -0.0260
  371MOL0     H50083   4.587   2.989   5.468  0.2306 -1.8700  0.5740
  371MOL0     H50084   4.624   3.131   5.359 -0.5761 -0.0997  0.5021
  371MOL0     H50085   4.502   3.028   5.318  0.7506  0.1645  0.0018
  372MOL0     O50086   7.281   6.514   3.917 -0.3477  0.3484 -0.4133
  372MOL0     C50087   7.378   6.595   3.886  0.0897  0.6159 -0.5663
  372MOL0     O50088   7.454   6.582   3.776  0.1816 -1.2474  0.3100
  372MOL0     C50089   7.444   6.468   3.690  0.0702  0.1021 -0.4291
  372MOL0     C50090   7.321   6.425   3.641  0.8340  0.0067  0.1232
  372MOL0     C50091   7.311   6.313   3.567  0.2032  0.4278  0.8448
  372MOL0     C50092   7.422   6.231   3.531 -0.7345  0.2664 -0.2330
  372MOL0     O50093   7.402   6.109   3.472 -0.3177 -0.0965  0.2443
  372MOL0     C50094   7.514   6.033   3.437  0.1498  0.0605 -0.2525
  372MOL0     C50095   7.557   6.073   3.298  0.3389 -0.0496 -0.5713
  372MOL0     C50096   7.437   6.044   3.191  0.3575 -0.5201 -0.1766
  372MOL0     C50097   7.481   6.075   3.049 -0.2419 -0.1488 -0.2140
  372MOL0     C50098   7.358   6.057   2.962  0.0951 -0.3606 -0.1582
  372MOL0     C50099   7.312   6.164   2.875  0.9619 -0.7583  0.8206
  372MOL0     C50100   7.169   6.153   2.822 -0.6846 -0.8709 -0.5195
  372MOL0     C50101   7.059   6.189   2.922  0.6655  0.3025 -0.4404
  372MOL0     N50102   7.013   6.326   2.939 -0.0852 -0.4615  0.1819
  372MOL0     C50103   6.916   6.384   2.858 -0.6791 -0.0620  0.1797
  372MOL0     C50104   6.918   6.516   2.897  0.4438  0.5465  0.5150
  372MOL0     C50105   6.832   6.624   2.852  0.1961 -0.0295  0.3061
  372MOL0     C50106   6.915   6.711   2.762 -0.2975  0.0691 -0.2745
  372MOL0     C50107   6.859   6.834   2.706  0.0976  0.7626  0.4476
  372MOL0     C50108   6.965   6.934   2.639 -0.3067  0.9816 -0.1540
  372MOL0     O50109   7.037   6.856   2.554 -0.5532  0.5593 -0.0935
  372MOL0     C50110   7.017   6.858   2.417  0.2749  0.0447 -0.2239
  372MOL0     C50111   7.090   6.757   2.347 -0.2640 -0.2642 -0.2187
  372MOL0     C50112   7.060   6.727   2.215 -0.4077  0.5939 -0.8388
  372MOL0     C50113   6.969   6.814   2.141 -0.5080  0.4670 -0.5264
  372MOL0     C50114   6.947   6.806   1.999 -0.1848  0.3275  0.0909
  372MOL0     O50115   6.876   6.902   1.942 -0.3965  0.2357 -0.2900
  372MOL0     C50116   6.803   6.901   1.828 -0.3274  0.0269 -0.1273
  372MOL0     C50117   6.793   6.788   1.749  0.7436 -0.5307  0.0055
  372MOL0     C50118   6.728   6.795   1.626 -0.3756  0.1996  0.0140
  372MOL0     C50119   6.686   6.920   1.584 -1.1536 -0.7208  0.8040
  372MOL0     O50120   6.614   6.936   1.470 -0.4901 -0.0046 -0.4509
  372MOL0     C50121   6.637   7.049   1.375 -0.3344  0.8178 -0.6286
  372MOL0     C50122   6.578   7.003   1.251 -0.7692 -0.5373  0.1518
  372MOL0     C50123   6.431   6.962   1.266  0.0646 -0.2951 -0.9062
  372MOL0     C50124   6.333   7.068   1.263  0.3165 -0.5809  0.0797
  372MOL0     C50125   6.185   7.011   1.292 -0.7538  0.9645 -0.4139
  372MOL0     C50126   6.075   7.089   1.234  0.3541  0.3085 -0.2481
  372MOL0     C50127   6.054   7.229   1.299 -0.9210  0.0369  0.2694
  372MOL0     C50128   6.080   7.342   1.209 -1.1036  0.1815 -0.1062
  372MOL0    Cl50129   6.051   7.506   1.284  0.2559 -0.2456  0.3518
  372MOL0     C50130   6.701   7.037   1.664  0.1023  0.2313  0.3405
  372MOL0     C50131   6.763   7.028   1.786 -0.8746 -0.8308 -0.1720
  372MOL0     O50132   6.997   6.708   1.943  0.0860  0.1467 -0.3407
  372MOL0     C50133   6.902   6.907   2.220 -0.6597 -0.8626  0.2402
  372MOL0     C50134   6.914   6.925   2.358 -0.1199  0.0377  0.1395
  372MOL0     N50135   7.009   6.524   3.000 -0.1644  0.3917  0.2024
  372MOL0     N50136   7.072   6.416   3.015  0.1765 -0.0568 -0.2123
  372MOL0     C50137   7.547   6.285   3.585 -0.6213  0.4805  0.9741
  372MOL0     C50138   7.561   6.397   3.667  0.7621 -0.0702 -0.0236
  372MOL0     C50139   7.397   6.705   3.986 -0.8069 -0.1921 -0.0289
  372MOL0     C50140   7.309   6.717   4.096 -0.2498  0.5191  0.3699
  372MOL0     C50141   7.309   6.833   4.176  0.0967  0.9194  0.2322
  372MOL0     C50142   7.406   6.927   4.163  0.1067 -0.4544 -0.0745
  372MOL0     O50143   7.407   7.028   4.254  0.0727 -0.0822 -0.0806
  372MOL0     C50144   7.521   7.117   4.254 -0.6404 -0.5252 -0.1196
  372MOL0     C50145   7.515   7.211   4.363 -0.6220  0.1241  0.0835
  372MOL0     C50146   7.634   7.317   4.357 -0.3081  0.0381 -0.3222
  372MOL0     C50147   7.611   7.449   4.437 -0.1631  0.0470 -0.2836
  372MOL0     C50148   7.598   7.426   4.586  1.6930 -0.3143 -0.1659
  372MOL0     C50149   7.597   7.407   4.703  0.0925 -0.2041 -0.0071
  372MOL0     C50150   7.507   6.914   4.068  0.3390 -0.1259  1.1350
  372MOL0     C50151   7.501   6.807   3.972  0.6828 -0.2595 -0.5561
  372MOL0     C50152   7.611   6.796   3.868  0.3985  0.7034 -1.2692
  372MOL0     H50153   7.233   6.484   3.664  1.9174  1.5730  0.3547
  372MOL0     H50154   7.216   6.274   3.531  1.0475  0.2485 -1.3331
  372MOL0     H50155   7.585   6.029   3.520 -0.4855 -2.1046  0.2441
  372MOL0     H50156   7.480   5.929   3.432 -1.1054  0.5002 -4.4833
  372MOL0     H50157   7.644   6.012   3.273 -0.3666 -0.3121 -2.5961
  372MOL0     H50158   7.589   6.178   3.291 -0.1273  0.0507 -1.4066
  372MOL0     H50159   7.341   6.083   3.227 -0.6796 -2.0249 -1.1659
  372MOL0     H50160   7.419   5.936   3.200  2.0241 -0.7808  0.4427
  372MOL0     H50161   7.525   6.175   3.045 -1.6595  0.6284  1.6817
  372MOL0     H50162   7.560   6.009   3.012 -3.1144 -3.9722 -0.1407
  372MOL0     H50163   7.387   5.979   2.892  1.8821  1.0285 -1.0616
  372MOL0     H50164   7.277   6.026   3.028 -0.7927  1.7198 -0.1933
  372MOL0     H50165   7.316   6.270   2.899 -1.7486 -0.4180  0.1039
  372MOL0     H50166   7.377   6.151   2.787  0.6119 -1.7018  0.6906
  372MOL0     H50167   7.153   6.058   2.770 -0.0839 -0.4827 -1.4296
  372MOL0     H50168   7.164   6.237   2.751  0.7159 -1.1899 -1.0216
  372MOL0     H50169   6.972   6.139   2.877 -0.1336  1.5283 -0.2843
  372MOL0     H50170   7.086   6.148   3.020  3.9962  1.9726 -0.5392
  372MOL0     H50171   6.848   6.327   2.797  1.0405 -3.0563  0.8524
  372MOL0     H50172   6.748   6.602   2.785 -0.2963  4.0307 -0.6900
  372MOL0     H50173   6.790   6.680   2.935 -0.0836 -2.3427  1.8020
  372MOL0     H50174   7.001   6.747   2.819  0.0653 -1.5917  0.3042
  372MOL0     H50175   6.950   6.646   2.680 -1.1251 -0.5358 -0.1568
  372MOL0     H50176   6.805   6.890   2.784 -0.2764  1.1281 -0.0660
  372MOL0     H50177   6.780   6.800   2.638  0.1549  1.0573  0.2329
  372MOL0     H50178   7.025   6.983   2.717  1.5704  0.2472 -1.0625
  372MOL0     H50179   6.907   7.016   2.598  0.2807  0.5954 -1.8083
  372MOL0     H50180   7.157   6.691   2.402 -0.5059 -0.3525 -0.0252
  372MOL0     H50181   7.104   6.651   2.152  1.2673  2.8535 -2.5604
  372MOL0     H50182   6.832   6.690   1.776  2.0084  0.0226  0.2892
  372MOL0     H50183   6.708   6.700   1.577  2.9503 -0.3115 -0.5948
  372MOL0     H50184   6.601   7.146   1.409  1.0978  2.1278 -2.6709
  372MOL0     H50185   6.744   7.070   1.371 -0.7178  4.1939  2.1963
  372MOL0     H50186   6.597   7.074   1.170 -0.8712 -0.1973  0.4217
  372MOL0     H50187   6.636   6.918   1.215  1.5341  0.3160  1.6459
  372MOL0     H50188   6.411   6.898   1.179 -0.1409  0.0733 -1.1299
  372MOL0     H50189   6.420   6.894   1.351  1.7308  0.0426 -0.3807
  372MOL0     H50190   6.340   7.112   1.163 -1.0840 -0.5600 -0.0320
  372MOL0     H50191   6.356   7.149   1.333  1.9568 -1.1320  0.2212
  372MOL0     H50192   6.170   7.021   1.400  0.4184 -1.2003 -0.0072
  372MOL0     H50193   6.182   6.904   1.272 -2.9009  0.8288  0.3577
  372MOL0     H50194   6.081   7.087   1.125 -1.0145 -0.2636 -0.3271
  372MOL0     H50195   5.982   7.038   1.258 -1.3965  1.2613 -4.2194
  372MOL0     H50196   6.103   7.232   1.397 -1.1129 -0.0412  0.3677
  372MOL0     H50197   5.946   7.230   1.312 -1.2832 -2.3213 -1.7714
  372MOL0     H50198   6.188   7.343   1.189 -0.5026  1.0755  2.7703
  372MOL0     H50199   6.033   7.330   1.111  1.6806 -0.1429 -1.4867
  372MOL0     H50200   6.689   7.134   1.617 -0.3755  1.2630  2.4850
  372MOL0     H50201   6.790   7.111   1.850  1.8530 -1.2038 -0.6826
  372MOL0     H50202   6.833   6.974   2.169  1.7186  0.2033 -1.7926
  372MOL0     H50203   6.853   7.001   2.406 -0.9459 -1.3678  1.4314
  372MOL0     H50204   7.643   6.244   3.553 -1.6817  0.9832 -3.6123
  372MOL0     H50205   7.651   6.439   3.712  0.6456 -0.8493  0.9834
  372MOL0     H50206   7.230   6.644   4.106  0.3950 -0.5540 -1.7872
  372MOL0     H50207   7.235   6.848   4.254  1.6855  1.1332  1.7463
  372MOL0     H50208   7.521   7.171   4.159  0.7928 -0.9500 -0.3754
  372MOL0     H50209   7.619   7.068   4.249  0.7128  2.0535 -0.4843
  372MOL0     H50210   7.525   7.158   4.458  3.5222  2.7659  1.3873
  372MOL0     H50211   7.418   7.262   4.373 -1.7856 -2.2388  1.9753
  372MOL0     H50212   7.642   7.351   4.253 -0.0275  2.2854  0.3959
  372MOL0     H50213   7.729   7.272   4.387  0.9710  0.2750 -3.5744
  372MOL0     H50214   7.700   7.511   4.417 -0.6802  0.5143 -1.2310
  372MOL0     H50215   7.525   7.500   4.393  0.6254 -1.1632 -3.4842
  372MOL0     H50216   7.600   7.388   4.809 -0.8085  0.7174  0.2006
  372MOL0     H50217   7.583   6.989   4.051 -0.8680  0.8055 -0.4605
  372MOL0     H50218   7.578   6.821   3.767 -0.6593  0.8547 -0.8914
  372MOL0     H50219   7.688   6.870   3.891  1.2967 -0.1865 -1.3005
  372MOL0     H50220   7.658   6.697   3.870  0.6215  0.8120 -0.5307
  373MOL0     O50221   0.384   3.325   6.837 -0.3256  0.1557 -0.0430
  373MOL0     C50222   0.454   3.293   6.733  0.1566  0.1948 -0.4696
  373MOL0     O50223   0.540   3.187   6.733 -0.2993  0.5554  0.8500
  373MOL0     C50224   0.530   3.087   6.822  0.9873 -0.3958  0.4861
  373MOL0     C50225   0.480   2.959   6.787 -0.3493  0.0797 -1.2442
  373MOL0     C50226   0.496   2.847   6.874 -0.0666  0.4545 -0.3986
  373MOL0     C50227   0.552   2.867   7.006 -0.1564 -0.1527 -0.5128
  373MOL0     O50228   0.570   2.763   7.093 -0.2455 -0.3152 -0.3867
  373MOL0     C50229   0.675   2.667   7.066  0.8665  0.1498  0.7640
  373MOL0     C50230   0.702   2.608   7.208 -0.1057 -0.0227  1.3133
  373MOL0     C50231   0.805   2.485   7.190  0.9162 -1.4741  1.2765
  373MOL0     C50232   0.822   2.431   7.325  0.3105 -0.8724 -0.1729
  373MOL0     C50233   0.920   2.316   7.331  0.5564  0.7959 -0.0279
  373MOL0     C50234   0.920   2.240   7.459 -0.5147  0.1719 -0.9151
  373MOL0     C50235   0.999   2.304   7.574 -0.0784  0.0496 -0.4618
  373MOL0     C50236   1.091   2.220   7.655 -0.4641  0.2800 -0.4433
  373MOL0     N50237   1.012   2.146   7.763  0.3287 -0.0825  0.4310
  373MOL0     C50238   0.989   2.162   7.907  0.2695 -0.1029  0.5318
  373MOL0     C50239   0.885   2.077   7.937  0.1118  1.1651  1.0643
  373MOL0     C50240   0.817   2.046   8.062  0.3209  0.2410  0.9506
  373MOL0     C50241   0.845   1.906   8.108 -0.2437 -0.6228 -0.1603
  373MOL0     C50242   0.984   1.875   8.143 -0.6334  0.5361 -0.0546
  373MOL0     C50243   0.997   1.725   8.196  0.2460  0.0984 -0.4814
  373MOL0     O50244   1.129   1.688   8.233 -0.2214  0.0414 -0.6356
  373MOL0     C50245   1.218   1.647   8.143 -0.5471 -0.3033  0.3999
  373MOL0     C50246   1.343   1.670   8.203 -0.0305  0.8747  0.3513
  373MOL0     C50247   1.458   1.647   8.138 -0.5143  0.3228  0.3943
  373MOL0     C50248   1.452   1.583   8.010 -0.5725 -0.1049  0.2149
  373MOL0     C50249   1.576   1.539   7.931  1.1237  0.2161 -0.6293
  373MOL0     O50250   1.566   1.434   7.856  0.7876  0.3484 -0.1586
  373MOL0     C50251   1.676   1.350   7.833  0.5736  0.0078 -0.2208
  373MOL0     C50252   1.747   1.301   7.936  0.9058  0.4743 -0.0768
  373MOL0     C50253   1.843   1.210   7.907 -0.1920 -0.5756  0.1195
  373MOL0     C50254   1.865   1.159   7.779  0.4379 -0.9771 -0.0772
  373MOL0     O50255   1.960   1.063   7.765 -0.3483 -0.0994  0.3310
  373MOL0     C50256   1.921   0.926   7.730 -0.4070 -0.7602 -0.6846
  373MOL0     C50257   2.031   0.818   7.712 -0.4749  0.2123  1.5695
  373MOL0     C50258   2.131   0.851   7.601  0.3459 -0.1820 -0.0599
  373MOL0     C50259   2.181   0.724   7.536  0.9485 -0.2546 -0.3181
  373MOL0     C50260   2.305   0.751   7.463 -0.5423 -0.1331 -0.8466
  373MOL0     C50261   2.346   0.628   7.382  0.6595 -0.7832 -0.9154
  373MOL0     C50262   2.446   0.664   7.286  0.3196 -0.3664  0.4508
  373MOL0     C50263   2.493   0.560   7.194  0.4905  0.3197  0.4612
  373MOL0    Cl50264   2.548   0.416   7.287 -0.0154  0.0844 -0.1060
  373MOL0     C50265   1.778   1.209   7.677 -0.8806  1.0346 -0.2785
  373MOL0     C50266   1.684   1.299   7.705  0.9537  1.5993  0.5746
  373MOL0     O50267   1.679   1.591   7.973 -0.1059  0.1880 -0.0022
  373MOL0     C50268   1.326   1.538   7.959 -0.0610 -0.4823  0.0775
  373MOL0     C50269   1.204   1.571   8.025 -0.3696 -0.3800  0.6327
  373MOL0     N50270   0.850   2.004   7.825  0.5602 -0.4275 -0.2857
  373MOL0     N50271   0.927   2.045   7.732  0.4966 -0.1762 -0.0182
  373MOL0     C50272   0.596   3.001   7.039  0.5098 -0.5247  0.0736
  373MOL0     C50273   0.590   3.115   6.947 -0.1915  0.9293 -1.0541
  373MOL0     C50274   0.458   3.388   6.622 -0.7560 -0.8247  0.8498
  373MOL0     C50275   0.537   3.504   6.629 -0.9099  0.3652  1.1247
  373MOL0     C50276   0.516   3.609   6.540 -0.5278  0.1338  0.6058
  373MOL0     C50277   0.414   3.592   6.445  0.7045  1.1821  0.3669
  373MOL0     O50278   0.374   3.696   6.354 -0.3036  0.1217 -0.0337
  373MOL0     C50279   0.467   3.734   6.248 -1.2503 -0.1758  0.6449
  373MOL0     C50280   0.413   3.809   6.124 -0.0898 -0.6827  0.5522
  373MOL0     C50281   0.381   3.952   6.164  0.7529 -0.1161  0.3322
  373MOL0     C50282   0.511   4.036   6.188 -0.3131 -0.0286  0.5333
  373MOL0     C50283   0.489   4.179   6.216  0.0762 -0.4577  0.1146
  373MOL0     C50284   0.462   4.298   6.230 -1.1382  1.3207  0.4186
  373MOL0     C50285   0.353   3.466   6.420  0.4635 -0.1567  0.2030
  373MOL0     C50286   0.368   3.368   6.514  0.0769  0.2192 -0.3063
  373MOL0     C50287   0.289   3.235   6.504  0.1409 -0.0694  0.4775
  373MOL0     H50288   0.439   2.953   6.687  0.2477  0.9983 -1.5509
  373MOL0     H50289   0.489   2.744   6.840  3.5894  1.1126 -3.9669
  373MOL0     H50290   0.648   2.587   6.996 -0.8758  1.2248  0.1441
  373MOL0     H50291   0.762   2.713   7.019 -0.1748 -0.8278 -2.4055
  373MOL0     H50292   0.610   2.566   7.250 -0.4242 -1.1265 -0.4033
  373MOL0     H50293   0.751   2.684   7.270 -2.5248  2.4601  0.3678
  373MOL0     H50294   0.896   2.518   7.139 -0.2639 -0.2628 -0.1487
  373MOL0     H50295   0.763   2.402   7.132 -1.2154  0.0316  0.5195
  373MOL0     H50296   0.851   2.515   7.389  3.0307 -0.7554 -1.4143
  373MOL0     H50297   0.726   2.386   7.351  0.3266 -0.6955  0.2007
  373MOL0     H50298   0.892   2.252   7.248  2.3067 -0.3912  0.2337
  373MOL0     H50299   1.017   2.362   7.309  0.9644 -0.5547 -1.1520
  373MOL0     H50300   0.814   2.225   7.481 -0.5207  0.5609 -0.6710
  373MOL0     H50301   0.965   2.144   7.430 -0.9327 -0.7567  1.3086
  373MOL0     H50302   0.938   2.350   7.652  0.9533  0.3381  0.1849
  373MOL0     H50303   1.047   2.390   7.527 -0.5587 -0.9261 -2.9193
  373MOL0     H50304   1.146   2.153   7.588 -1.1922  0.7368 -1.5170
  373MOL0     H50305   1.163   2.284   7.708  1.0395 -0.9892 -0.8741
  373MOL0     H50306   1.024   2.229   7.985 -1.9170 -1.2103  2.6024
  373MOL0     H50307   0.849   2.117   8.139 -0.5312  1.4759  0.2023
  373MOL0     H50308   0.711   2.051   8.035  0.9836  2.2369 -1.7212
  373MOL0     H50309   0.790   1.893   8.202  2.6393 -0.1514  1.7153
  373MOL0     H50310   0.811   1.849   8.021 -1.7064  3.1896 -2.2954
  373MOL0     H50311   1.032   1.932   8.223 -0.8201 -0.7077  0.9756
  373MOL0     H50312   1.047   1.890   8.055 -0.0276  3.1358  0.7531
  373MOL0     H50313   0.965   1.664   8.111  2.4437  2.2020 -2.9896
  373MOL0     H50314   0.925   1.707   8.277  1.5255 -0.3284  0.5828
  373MOL0     H50315   1.340   1.707   8.305  1.8088 -1.6975  1.4504
  373MOL0     H50316   1.560   1.658   8.176  1.5084 -3.3392 -3.1719
  373MOL0     H50317   1.717   1.337   8.034 -0.7761 -1.3026  0.1138
  373MOL0     H50318   1.892   1.169   7.995  0.1413  1.6862  1.0526
  373MOL0     H50319   1.837   0.898   7.796 -0.0544  1.5493  0.8806
  373MOL0     H50320   1.876   0.928   7.630  1.4025  0.1706 -1.5149
  373MOL0     H50321   2.080   0.787   7.805  0.4646 -3.0124  0.1526
  373MOL0     H50322   1.984   0.726   7.677  0.6211 -0.8524  2.7455
  373MOL0     H50323   2.074   0.916   7.535  2.0254  4.4531  2.5611
  373MOL0     H50324   2.214   0.914   7.636 -0.3581  1.8886 -1.9464
  373MOL0     H50325   2.110   0.673   7.469  2.9704 -2.8747 -0.6531
  373MOL0     H50326   2.206   0.655   7.617  1.6384 -1.3910 -1.4569
  373MOL0     H50327   2.378   0.784   7.537 -0.9027  2.6341 -1.6174
  373MOL0     H50328   2.295   0.835   7.393  0.7677  0.7192 -0.0556
  373MOL0     H50329   2.382   0.545   7.443 -0.9881 -0.3185  0.7945
  373MOL0     H50330   2.257   0.591   7.330 -0.4613  1.3819 -0.6515
  373MOL0     H50331   2.527   0.716   7.338 -1.5759  3.2803  0.1143
  373MOL0     H50332   2.407   0.744   7.223  2.9296 -0.0282 -0.8373
  373MOL0     H50333   2.404   0.528   7.140  0.8607 -0.2065  0.1463
  373MOL0     H50334   2.570   0.592   7.123  1.3421  0.1760  1.3046
  373MOL0     H50335   1.798   1.157   7.584 -1.7453 -1.0373  0.6444
  373MOL0     H50336   1.613   1.333   7.629 -0.7356 -1.1685  0.7748
  373MOL0     H50337   1.315   1.473   7.872  1.0558 -1.2968  0.5177
  373MOL0     H50338   1.109   1.562   7.972  0.6757  2.5534 -2.0448
  373MOL0     H50339   0.644   3.014   7.136  0.5539 -2.0626  0.2790
  373MOL0     H50340   0.638   3.209   6.973 -1.5212  1.6961 -1.2916
  373MOL0     H50341   0.604   3.526   6.711  0.4353  0.3762  0.0439
  373MOL0     H50342   0.565   3.704   6.558  0.3833 -0.7477  3.3255
  373MOL0     H50343   0.520   3.647   6.209 -1.8848 -1.9731  3.5328
  373MOL0     H50344   0.544   3.796   6.295  2.0713 -1.4463 -2.6550
  373MOL0     H50345   0.316   3.779   6.082 -1.0790  1.2511  1.3197
  373MOL0     H50346   0.496   3.806   6.053 -0.0556 -1.3654  0.6167
  373MOL0     H50347   0.333   3.954   6.263  1.4046 -1.5205  0.6948
  373MOL0     H50348   0.318   4.007   6.094 -0.9378  1.7582  3.1037
  373MOL0     H50349   0.554   4.011   6.286  2.4280 -0.1618 -0.6412
  373MOL0     H50350   0.582   4.027   6.106 -2.8675 -1.5777 -1.6848
  373MOL0     H50351   0.441   4.400   6.257 -1.2146  0.9350  1.8655
  373MOL0     H50352   0.287   3.452   6.335 -3.2085  0.5198  2.7074
  373MOL0     H50353   0.254   3.217   6.402 -1.6562  1.1173  0.8317
  373MOL0     H50354   0.363   3.163   6.539  0.1013  1.2765  3.7367
  373MOL0     H50355   0.213   3.239   6.583 -0.6327  3.0232 -0.2792
  374MOL0     O50356  10.797   2.679   6.787  1.4348 -0.4998 -0.2345
  374MOL0     C50357  10.703   2.661   6.870  0.2129 -1.1148 -0.6048
  374MOL0     O50358  10.613   2.757   6.911 -0.2449  0.0643 -0.4277
  374MOL0     C50359  10.599   2.880   6.849 -0.2565 -0.4854 -0.0325
  374MOL0     C50360  10.561   2.980   6.938  0.2212 -1.0908 -0.2059
  374MOL0     C50361  10.534   3.110   6.887 -0.3558 -0.8831 -1.1914
  374MOL0     C50362  10.543   3.143   6.751  0.3545 -0.7112 -0.2153
  374MOL0     O50363  10.538   3.271   6.695 -0.3312 -0.5515 -0.7997
  374MOL0     C50364  10.598   3.360   6.783  0.9230 -0.3884  0.3570
  374MOL0     C50365  10.617   3.495   6.704 -0.5422  1.0209 -0.6087
  374MOL0     C50366  10.710   3.481   6.579  0.4069  0.0882 -0.1275
  374MOL0     C50367  10.679   3.613   6.504 -0.0199  0.1036  1.3699
  374MOL0     C50368  10.716   3.597   6.355  0.7471 -1.1269  0.8003
  374MOL0     C50369  10.646   3.703   6.255 -0.1374  0.1288  0.1379
  374MOL0     C50370  10.611   3.668   6.111  1.1311 -0.6273  0.2991
  374MOL0     C50371  10.737   3.673   6.037 -0.9276 -1.0112  0.5779
  374MOL0     N50372  10.718   3.647   5.895  0.0854  0.1131  1.2420
  374MOL0     C50373  10.725   3.728   5.793  0.4046 -0.4855 -0.2726
  374MOL0     C50374  10.729   3.658   5.677 -0.4288 -0.5169 -0.1370
  374MOL0     C50375  10.744   3.706   5.534  0.2231 -0.0079  0.3759
  374MOL0     C50376  10.857   3.809   5.532 -0.2162  0.2110 -0.0585
  374MOL0     C50377  10.952   3.801   5.403  0.7238  1.1408 -0.0035
  374MOL0     C50378  11.059   3.686   5.411  0.5881 -0.4280 -0.5320
  374MOL0     O50379  11.002   3.558   5.382  0.4242 -0.3079 -0.7737
  374MOL0     C50380  11.092   3.448   5.407  0.4659 -0.6573  0.5156
  374MOL0     C50381  11.223   3.439   5.362  0.6045 -0.4374  0.3740
  374MOL0     C50382  11.293   3.327   5.398 -1.1805 -0.4853  0.0545
  374MOL0     C50383  11.233   3.215   5.449  0.3235 -0.6963  1.0088
  374MOL0     C50384  11.313   3.092   5.463  0.8121  0.3269 -1.1316
  374MOL0     O50385  11.416   3.069   5.378 -0.2373 -0.2209 -0.8063
  374MOL0     C50386  11.474   2.948   5.362  0.7021 -0.0260  0.6256
  374MOL0     C50387  11.545   2.934   5.242  1.2829  0.6057 -0.5249
  374MOL0     C50388  11.610   2.814   5.219  0.1408  0.6570  0.3854
  374MOL0     C50389  11.630   2.707   5.306 -1.0535  0.1082  0.6847
  374MOL0     O50390  11.705   2.598   5.268  0.1680  0.5125 -0.6076
  374MOL0     C50391  11.697   2.482   5.348  0.3899  0.0960 -0.3685
  374MOL0     C50392  11.748   2.356   5.289  0.5081  0.5665  0.1064
  374MOL0     C50393  11.894   2.347   5.268  0.4192  0.1817 -0.8616
  374MOL0     C50394  11.932   2.377   5.129  0.5821  0.1410 -0.3554
  374MOL0     C50395  12.080   2.362   5.103 -0.1158 -0.4606  0.3893
  374MOL0     C50396  12.115   2.422   4.964 -0.4304  0.6479  0.0882
  374MOL0     C50397  12.226   2.331   4.891  0.5245 -0.6635 -0.3259
  374MOL0     C50398  12.360   2.345   4.952 -0.5028  0.3042 -0.1657
  374MOL0    Cl50399  12.478   2.279   4.823  0.0429 -0.1477  0.9383
  374MOL0     C50400  11.547   2.722   5.426 -0.6766  0.4315 -0.2589
  374MOL0     C50401  11.476   2.837   5.456 -0.4576 -0.6537  1.0071
  374MOL0     O50402  11.275   3.014   5.550  0.4409  0.2702 -0.1513
  374MOL0     C50403  11.095   3.224   5.474 -0.1298  0.0834 -0.5437
  374MOL0     C50404  11.032   3.343   5.457  0.1201 -0.5518 -0.9261
  374MOL0     N50405  10.729   3.524   5.716 -0.8488  0.0246 -0.3239
  374MOL0     N50406  10.720   3.520   5.844  0.0267  0.0833  0.2899
  374MOL0     C50407  10.583   3.044   6.665  0.0350 -0.1477  0.2632
  374MOL0     C50408  10.624   2.915   6.716  0.3640  0.2607  0.1204
  374MOL0     C50409  10.691   2.536   6.940  0.4557  0.2137 -0.1376
  374MOL0     C50410  10.581   2.450   6.905 -1.1008  0.4281  0.2081
  374MOL0     C50411  10.573   2.328   6.971  0.4409 -0.5093 -0.4849
  374MOL0     C50412  10.654   2.291   7.077 -0.3366  0.5470  0.1610
  374MOL0     O50413  10.624   2.166   7.133  1.1556  0.0907  0.3526
  374MOL0     C50414  10.706   2.111   7.237  0.5178 -0.3144 -0.3748
  374MOL0     C50415  10.659   1.969   7.252 -1.0968  0.7015 -0.7577
  374MOL0     C50416  10.514   1.946   7.272  0.4408  0.6364 -0.2458
  374MOL0     C50417  10.475   1.803   7.248  0.8250  0.0570 -0.5971
  374MOL0     C50418  10.519   1.726   7.363  0.6155  0.0821  0.3753
  374MOL0     C50419  10.563   1.670   7.460 -0.4170  0.2384  1.1155
  374MOL0     C50420  10.764   2.374   7.111  0.7010 -0.6763 -1.0380
  374MOL0     C50421  10.789   2.498   7.040 -0.0847  0.0245 -0.4475
  374MOL0     C50422  10.923   2.569   7.084  0.3314 -0.4498  0.4468
  374MOL0     H50423  10.552   2.968   7.046  0.6512  1.5613  0.2035
  374MOL0     H50424  10.502   3.184   6.959  0.6825  1.0749 -2.6482
  374MOL0     H50425  10.540   3.371   6.874 -4.7013  0.2867 -2.8411
  374MOL0     H50426  10.696   3.311   6.792 -0.8344 -5.1042 -2.3129
  374MOL0     H50427  10.656   3.559   6.784 -0.6007 -0.2996  0.5032
  374MOL0     H50428  10.516   3.529   6.681 -1.2571 -0.3459  0.3877
  374MOL0     H50429  10.684   3.389   6.526 -1.1767 -0.5906  1.6970
  374MOL0     H50430  10.816   3.469   6.604  0.9443  0.2950 -2.1062
  374MOL0     H50431  10.572   3.636   6.506  0.2786  2.9695 -2.7692
  374MOL0     H50432  10.705   3.705   6.556  0.5401 -0.1258  1.4943
  374MOL0     H50433  10.824   3.607   6.337  0.1946  1.3685 -1.8569
  374MOL0     H50434  10.693   3.493   6.330  3.7671 -2.0922  1.6023
  374MOL0     H50435  10.547   3.727   6.294 -1.4773 -0.0470 -2.8482
  374MOL0     H50436  10.706   3.794   6.265 -0.8047  0.3361  3.0354
  374MOL0     H50437  10.538   3.737   6.070  2.8206  1.0599 -0.0194
  374MOL0     H50438  10.574   3.565   6.116 -2.0856  0.4840  3.0497
  374MOL0     H50439  10.800   3.761   6.052  0.4189 -1.4659 -1.9150
  374MOL0     H50440  10.792   3.589   6.080 -2.6153 -2.3813  0.1533
  374MOL0     H50441  10.722   3.836   5.801  0.4927 -0.2729 -2.5497
  374MOL0     H50442  10.772   3.625   5.465  1.2454  2.1111 -1.8595
  374MOL0     H50443  10.651   3.753   5.501  1.3643  2.5470  0.5178
  374MOL0     H50444  10.801   3.903   5.537 -1.2611 -0.4391  1.8847
  374MOL0     H50445  10.925   3.807   5.618 -1.7540 -0.5167  1.2150
  374MOL0     H50446  11.014   3.891   5.413 -0.7328  2.1634  0.1192
  374MOL0     H50447  10.900   3.784   5.309  0.7646 -1.3559  0.3608
  374MOL0     H50448  11.100   3.692   5.512 -0.5338  0.0849 -0.0934
  374MOL0     H50449  11.133   3.691   5.330  0.0618  0.3158 -0.9841
  374MOL0     H50450  11.270   3.529   5.326 -2.8604  0.8544 -1.2631
  374MOL0     H50451  11.399   3.313   5.379 -1.2838  1.2633 -2.2211
  374MOL0     H50452  11.543   3.020   5.176  2.2694  2.6742  1.9960
  374MOL0     H50453  11.642   2.794   5.117 -1.4136  1.2186 -0.2511
  374MOL0     H50454  11.739   2.493   5.448  0.5926  2.5023 -0.6557
  374MOL0     H50455  11.589   2.464   5.357  0.5191 -0.0743  1.1083
  374MOL0     H50456  11.724   2.284   5.368 -1.3512  4.2109  3.1629
  374MOL0     H50457  11.686   2.341   5.200  1.1970  0.2045 -0.3197
  374MOL0     H50458  11.936   2.418   5.340 -0.9979  1.4714 -1.2417
  374MOL0     H50459  11.934   2.252   5.303 -3.4855 -0.4733  2.5848
  374MOL0     H50460  11.901   2.481   5.112  0.5425 -0.0505 -1.5078
  374MOL0     H50461  11.880   2.313   5.058 -0.1104  0.7690 -0.4332
  374MOL0     H50462  12.113   2.258   5.102  1.0334 -0.1067  0.0984
  374MOL0     H50463  12.132   2.419   5.180 -0.3555 -1.4737  1.3360
  374MOL0     H50464  12.027   2.420   4.900 -2.8815  1.1368  3.2129
  374MOL0     H50465  12.140   2.527   4.980 -0.6800  0.6727  0.3250
  374MOL0     H50466  12.237   2.366   4.788 -2.0258  1.7359  0.1019
  374MOL0     H50467  12.189   2.227   4.892  0.2237 -0.6267  2.8661
  374MOL0     H50468  12.385   2.448   4.979  1.1465 -0.6142  2.1515
  374MOL0     H50469  12.356   2.288   5.045 -4.6294 -0.7000 -0.7935
  374MOL0     H50470  11.540   2.654   5.511 -0.0265  0.7695  0.0739
  374MOL0     H50471  11.436   2.854   5.556 -0.5183  1.7374  0.6366
  374MOL0     H50472  11.040   3.144   5.521 -1.3937 -0.1322 -2.3139
  374MOL0     H50473  10.934   3.355   5.501  1.3598 -0.5611  2.0873
  374MOL0     H50474  10.600   3.070   6.561 -1.4183  0.1542  0.0778
  374MOL0     H50475  10.664   2.855   6.635  1.6478 -0.8342  1.5100
  374MOL0     H50476  10.511   2.490   6.832 -0.3227  2.5891  0.5538
  374MOL0     H50477  10.497   2.257   6.939 -1.8569  1.0139  1.2566
  374MOL0     H50478  10.694   2.164   7.333 -2.0256 -1.2194 -0.1272
  374MOL0     H50479  10.809   2.127   7.204  0.6612 -0.6636 -0.1022
  374MOL0     H50480  10.707   1.941   7.346 -2.1752 -0.0822 -0.4258
  374MOL0     H50481  10.695   1.897   7.178 -0.9574 -2.0168  1.7984
  374MOL0     H50482  10.445   2.004   7.209 -1.0094  0.2536  0.9171
  374MOL0     H50483  10.493   1.979   7.375  1.0399  2.1653 -0.5797
  374MOL0     H50484  10.367   1.786   7.247  0.7947  0.1173  0.4699
  374MOL0     H50485  10.503   1.766   7.149  2.2904 -4.0760  1.1814
  374MOL0     H50486  10.601   1.612   7.542 -1.2159  1.2177  2.2104
  374MOL0     H50487  10.837   2.346   7.186  1.2264 -5.2213 -2.8909
  374MOL0     H50488  10.977   2.595   6.992 -2.1684  0.0466 -0.9697
  374MOL0     H50489  10.896   2.657   7.142  0.3714 -0.1047 -0.0472
  374MOL0     H50490  10.981   2.495   7.139 -0.2790 -0.8362  0.5765
  375MOL0     O50491   1.124   3.698   0.943 -0.2347 -0.1261 -0.2139
  375MOL0     C50492   1.179   3.782   0.866  0.2311 -0.3555 -0.8324
  375MOL0     O50493   1.108   3.870   0.797 -0.3635  0.6870 -0.2365
  375MOL0     C50494   0.971   3.873   0.802 -0.3674  0.7716  0.3552
  375MOL0     C50495   0.886   3.938   0.895 -0.7603  0.1794  0.1905
  375MOL0     C50496   0.745   3.917   0.884 -0.1260 -0.7893 -0.6761
  375MOL0     C50497   0.685   3.858   0.768 -0.0531  0.8370 -0.3363
  375MOL0     O50498   0.548   3.857   0.762  0.1940 -0.3162  0.0472
  375MOL0     C50499   0.482   3.865   0.641 -0.0699  0.0676 -0.0149
  375MOL0     C50500   0.339   3.895   0.669 -0.3352 -1.3710  0.0522
  375MOL0     C50501   0.244   3.777   0.695  0.7792  0.4509  0.0298
  375MOL0     C50502   0.290   3.696   0.817  0.0670  0.0918  0.8127
  375MOL0     C50503   0.173   3.597   0.845 -0.5841  0.6915 -0.3157
  375MOL0     C50504   0.214   3.452   0.847  0.5237  1.1482 -0.5267
  375MOL0     C50505   0.210   3.391   0.705  0.6249  0.1852 -0.4439
  375MOL0     C50506   0.236   3.236   0.711  0.7302 -0.5085 -0.2649
  375MOL0     N50507   0.251   3.183   0.576  0.4419 -0.1383  0.6263
  375MOL0     C50508   0.150   3.143   0.490  1.2528  0.2178 -0.3971
  375MOL0     C50509   0.216   3.103   0.376  0.4403 -0.1098  0.5693
  375MOL0     C50510   0.160   3.052   0.242  1.2190  0.2948 -0.1396
  375MOL0     C50511   0.077   2.932   0.248  0.5519  0.1964 -0.3417
  375MOL0     C50512  -0.009   2.922   0.123 -0.5106  0.0505  0.0640
  375MOL0     C50513  -0.119   3.030   0.104 -0.0341 -0.4150 -0.9206
  375MOL0     O50514  -0.152   3.084   0.231  0.8224 -0.1776  0.1536
  375MOL0     C50515  -0.290   3.114   0.245 -0.2468  0.6569  0.7861
  375MOL0     C50516  -0.343   3.227   0.176  1.3036 -0.4172 -0.0666
  375MOL0     C50517  -0.483   3.247   0.186  0.6620 -1.0771  0.0380
  375MOL0     C50518  -0.573   3.165   0.260 -0.9887  0.5020 -1.6237
  375MOL0     C50519  -0.719   3.194   0.269  0.9871 -0.2595 -0.3646
  375MOL0     O50520  -0.800   3.093   0.310 -0.1959 -0.0145 -0.1817
  375MOL0     C50521  -0.925   3.134   0.351 -0.2180 -0.1443 -0.2958
  375MOL0     C50522  -1.032   3.102   0.264 -0.1434 -1.2615 -0.2079
  375MOL0     C50523  -1.161   3.131   0.301 -0.2489 -0.1969 -0.1130
  375MOL0     C50524  -1.184   3.194   0.425  0.7138  0.1619  0.1414
  375MOL0     O50525  -1.307   3.232   0.477 -0.3526  0.2383 -0.8685
  375MOL0     C50526  -1.434   3.214   0.413  1.0051  0.6903  0.2172
  375MOL0     C50527  -1.517   3.337   0.462 -0.1228 -0.4694  0.2111
  375MOL0     C50528  -1.663   3.329   0.434  0.7048 -0.0728 -0.0016
  375MOL0     C50529  -1.724   3.471   0.459 -0.9505  1.7200  0.4206
  375MOL0     C50530  -1.719   3.562   0.336 -0.2516  0.2440 -0.5026
  375MOL0     C50531  -1.783   3.696   0.366  0.9662 -1.1099  0.0399
  375MOL0     C50532  -1.719   3.791   0.478 -0.0745  0.6626 -0.6442
  375MOL0     C50533  -1.567   3.806   0.475 -0.1784 -0.8740 -0.1148
  375MOL0    Cl50534  -1.512   3.889   0.332  0.2806 -0.4839 -1.0468
  375MOL0     C50535  -1.074   3.224   0.509 -0.4973 -0.4137  0.5039
  375MOL0     C50536  -0.945   3.197   0.470 -0.3432 -0.0896 -0.3963
  375MOL0     O50537  -0.756   3.312   0.232  0.2011 -0.2326 -0.0750
  375MOL0     C50538  -0.517   3.053   0.319  0.3555  0.1689 -0.4980
  375MOL0     C50539  -0.376   3.024   0.315 -0.2644  0.3713  0.0903
  375MOL0     N50540   0.350   3.106   0.394 -0.1302  0.4689  0.1756
  375MOL0     N50541   0.372   3.166   0.505  0.1217 -0.4083  0.2786
  375MOL0     C50542   0.774   3.809   0.674 -1.0747  0.6029  0.0472
  375MOL0     C50543   0.912   3.814   0.689 -0.2693  0.4262 -0.0956
  375MOL0     C50544   1.321   3.753   0.838 -0.1549 -0.7243 -0.8549
  375MOL0     C50545   1.369   3.807   0.716  0.7063  0.5243  1.2495
  375MOL0     C50546   1.503   3.804   0.682  0.2401  0.3858 -0.1987
  375MOL0     C50547   1.602   3.750   0.770 -0.2165  0.4458  1.1314
  375MOL0     O50548   1.727   3.750   0.716 -0.0373 -0.3963 -0.3711
  375MOL0     C50549   1.848   3.733   0.788  0.1506 -0.0997 -0.4830
  375MOL0     C50550   1.882   3.581   0.802  0.6187  0.6568 -0.5304
  375MOL0     C50551   1.878   3.499   0.678  0.2305 -0.6027 -0.0356
  375MOL0     C50552   1.884   3.356   0.710  0.4847  0.4046 -0.4959
  375MOL0     C50553   2.020   3.324   0.761  0.3750 -0.0160 -0.1864
  375MOL0     C50554   2.131   3.304   0.808  0.0903  0.3435 -0.9734
  375MOL0     C50555   1.558   3.690   0.885 -0.2657 -0.3290 -1.1137
  375MOL0     C50556   1.425   3.692   0.919  0.4241 -0.4076  0.1155
  375MOL0     C50557   1.393   3.638   1.052 -0.4976  0.3602  0.4589
  375MOL0     H50558   0.929   4.008   0.967 -1.5987 -0.5556  1.4437
  375MOL0     H50559   0.676   3.958   0.956  0.6358  3.7759 -2.2571
  375MOL0     H50560   0.535   3.944   0.586  0.8954 -0.0677  0.6881
  375MOL0     H50561   0.491   3.770   0.587 -1.0110  0.7946 -1.5346
  375MOL0     H50562   0.305   3.958   0.587  2.8676 -0.6452 -0.8356
  375MOL0     H50563   0.343   3.960   0.758  0.4961  1.0748 -1.6636
  375MOL0     H50564   0.243   3.714   0.606  1.5589 -0.6776  0.8001
  375MOL0     H50565   0.140   3.810   0.701  1.3838  2.8008 -1.1547
  375MOL0     H50566   0.370   3.627   0.791 -1.3025 -1.4223  0.4193
  375MOL0     H50567   0.322   3.750   0.907 -3.9929  0.4930  2.2375
  375MOL0     H50568   0.135   3.611   0.946  0.9222 -0.6843  0.5016
  375MOL0     H50569   0.088   3.614   0.780 -0.6433 -0.4859 -0.5731
  375MOL0     H50570   0.321   3.452   0.868  1.2440  3.2964 -3.3878
  375MOL0     H50571   0.152   3.391   0.913  3.1023  1.1001  2.0432
  375MOL0     H50572   0.265   3.443   0.627  0.3537  0.7952 -0.2314
  375MOL0     H50573   0.105   3.398   0.676  0.3924 -2.0588 -0.3891
  375MOL0     H50574   0.313   3.222   0.788 -0.5286  0.1662  1.1831
  375MOL0     H50575   0.142   3.195   0.750 -2.5368  3.0119 -3.5608
  375MOL0     H50576   0.043   3.139   0.509  1.3746  0.0283  0.2803
  375MOL0     H50577   0.100   3.137   0.208 -1.2637 -0.4091  2.1585
  375MOL0     H50578   0.232   3.042   0.160 -2.2769  1.5390 -3.7045
  375MOL0     H50579   0.137   2.841   0.257  1.1979  0.8208  2.4136
  375MOL0     H50580   0.018   2.947   0.338  0.5267  1.2462 -0.5158
  375MOL0     H50581  -0.052   2.821   0.125  0.7014 -0.5351  3.5179
  375MOL0     H50582   0.059   2.917   0.037 -1.1668 -2.8084 -0.3974
  375MOL0     H50583  -0.209   3.011   0.045 -1.7855  2.9727  0.4180
  375MOL0     H50584  -0.084   3.114   0.044  0.4607  0.8930  1.1250
  375MOL0     H50585  -0.279   3.297   0.123 -0.4869  1.3031 -0.1025
  375MOL0     H50586  -0.521   3.329   0.126 -1.4187 -1.4248  0.8011
  375MOL0     H50587  -1.002   3.057   0.169 -2.5739 -1.3389 -1.0034
  375MOL0     H50588  -1.242   3.085   0.245  1.1390 -0.7129 -1.8099
  375MOL0     H50589  -1.427   3.223   0.304 -1.9566  0.6254 -0.0488
  375MOL0     H50590  -1.470   3.114   0.436 -0.0386  0.3532 -2.4928
  375MOL0     H50591  -1.499   3.357   0.569  0.4243  2.4757 -0.3275
  375MOL0     H50592  -1.474   3.430   0.424 -0.7133 -0.6968 -1.0451
  375MOL0     H50593  -1.681   3.277   0.339  2.7673 -0.4925 -0.2024
  375MOL0     H50594  -1.698   3.259   0.511  0.2357  0.8988  0.6961
  375MOL0     H50595  -1.662   3.512   0.540  0.0575 -0.8491  1.0641
  375MOL0     H50596  -1.827   3.451   0.491 -0.0795 -1.7918  1.3836
  375MOL0     H50597  -1.770   3.507   0.256  0.3283 -0.5133 -0.3568
  375MOL0     H50598  -1.618   3.584   0.301  0.7609 -1.5738  1.1328
  375MOL0     H50599  -1.800   3.753   0.274 -0.9749 -1.7952 -0.0583
  375MOL0     H50600  -1.889   3.677   0.385  0.9792 -0.3999  0.8619
  375MOL0     H50601  -1.742   3.751   0.577  0.7463 -0.6187 -0.9422
  375MOL0     H50602  -1.751   3.894   0.465  1.2927  1.0764 -0.9666
  375MOL0     H50603  -1.537   3.859   0.566  1.0425  2.4837 -2.3059
  375MOL0     H50604  -1.519   3.708   0.483 -3.8231 -2.7705  1.2938
  375MOL0     H50605  -1.095   3.270   0.604  0.6845  0.9433  0.1482
  375MOL0     H50606  -0.860   3.209   0.537  0.8337 -2.9130 -1.2486
  375MOL0     H50607  -0.585   2.985   0.369  2.4226 -0.3730  1.7581
  375MOL0     H50608  -0.352   2.935   0.373 -1.7525 -1.3111 -1.7362
  375MOL0     H50609   0.731   3.768   0.584 -0.0299 -0.3272 -0.0427
  375MOL0     H50610   0.978   3.762   0.620 -2.7006 -2.3741 -0.5053
  375MOL0     H50611   1.301   3.862   0.653  1.0642  2.6357  2.5918
  375MOL0     H50612   1.538   3.857   0.594  3.9706  1.5170  1.7467
  375MOL0     H50613   1.861   3.779   0.887  2.5002  1.1207 -1.2788
  375MOL0     H50614   1.925   3.789   0.734 -0.2449 -0.9557 -1.9757
  375MOL0     H50615   1.806   3.555   0.876  4.1983  2.5753  4.3932
  375MOL0     H50616   1.969   3.559   0.864  0.2259  0.0044 -0.1949
  375MOL0     H50617   1.957   3.535   0.612 -0.5341  0.7589 -0.2326
  375MOL0     H50618   1.786   3.525   0.626 -0.0342 -0.0981  0.6815
  375MOL0     H50619   1.798   3.335   0.775 -0.5773 -0.8855 -2.2236
  375MOL0     H50620   1.879   3.306   0.613  1.9024  1.4555 -1.1500
  375MOL0     H50621   2.222   3.272   0.854  0.4332  2.0507 -0.3741
  375MOL0     H50622   1.640   3.658   0.949 -2.3144 -1.4546  1.1073
  375MOL0     H50623   1.311   3.567   1.039  1.6442 -1.9201 -1.7607
  375MOL0     H50624   1.479   3.585   1.094  0.1121  1.5898  0.8230
  375MOL0     H50625   1.370   3.724   1.116 -0.8778 -0.5507  1.5667
  376MOL0     O50626   5.303   5.755   7.114  0.7747 -0.5370  0.4659
  376MOL0     C50627   5.391   5.802   7.183  0.2878 -0.6599  0.0861
  376MOL0     O50628   5.448   5.741   7.295 -0.2322  0.0523 -0.2499
  376MOL0     C50629   5.460   5.608   7.318  0.2792  0.8658 -0.0381
  376MOL0     C50630   5.367   5.545   7.397  0.7053  0.4064 -0.8633
  376MOL0     C50631   5.361   5.402   7.403  0.7276  0.0370  0.2307
  376MOL0     C50632   5.455   5.322   7.327 -0.1625  0.6773  0.5898
  376MOL0     O50633   5.464   5.181   7.356  0.2838  0.1230  1.1169
  376MOL0     C50634   5.351   5.110   7.412 -0.2215  0.0519 -0.7801
  376MOL0     C50635   5.359   4.959   7.393  0.4702  0.9299  0.6421
  376MOL0     C50636   5.365   4.925   7.245  0.0169  0.4099 -0.2359
  376MOL0     C50637   5.309   4.795   7.207  0.0765 -0.1845 -0.4862
  376MOL0     C50638   5.416   4.683   7.237 -0.3747 -0.2839 -0.1477
  376MOL0     C50639   5.372   4.533   7.227 -0.0192 -0.3085  0.1205
  376MOL0     C50640   5.291   4.503   7.357  0.4282 -0.9665 -0.6181
  376MOL0     C50641   5.245   4.355   7.354 -0.4684  0.4196  0.3166
  376MOL0     N50642   5.157   4.308   7.468  0.6588  0.2199  0.2389
  376MOL0     C50643   5.085   4.374   7.559 -0.2036  0.0066  0.0089
  376MOL0     C50644   5.040   4.274   7.646  0.6808  0.8061 -0.9899
  376MOL0     C50645   4.954   4.292   7.778  0.6369  0.4524  0.3272
  376MOL0     C50646   5.048   4.235   7.889 -0.5151  0.1492  0.1124
  376MOL0     C50647   5.167   4.329   7.892  0.5945  0.4055  0.2684
  376MOL0     C50648   5.137   4.478   7.916 -0.1027 -0.8667 -0.3020
  376MOL0     O50649   5.038   4.493   8.016  0.4220  0.9368 -0.3397
  376MOL0     C50650   5.098   4.531   8.134  0.2723  0.5314 -0.2273
  376MOL0     C50651   5.138   4.666   8.158  1.1968  0.7036 -0.2255
  376MOL0     C50652   5.190   4.705   8.280 -0.5224 -0.5279  0.2785
  376MOL0     C50653   5.198   4.615   8.390  0.6817  0.3470  0.7874
  376MOL0     C50654   5.252   4.660   8.521 -0.0596  0.1878 -0.3201
  376MOL0     O50655   5.261   4.567   8.620  0.3810 -0.4873 -0.8523
  376MOL0     C50656   5.350   4.599   8.723  0.0133  0.2005 -0.0269
  376MOL0     C50657   5.299   4.672   8.830 -0.2142 -0.4621  0.3729
  376MOL0     C50658   5.384   4.735   8.924  0.3258 -0.3607 -0.5524
  376MOL0     C50659   5.519   4.711   8.906 -1.2400  0.4309  0.1824
  376MOL0     O50660   5.601   4.784   9.000 -0.1746  0.5678  0.5302
  376MOL0     C50661   5.746   4.794   8.972  0.1638  0.3685 -0.3612
  376MOL0     C50662   5.788   4.917   9.044 -1.0326 -0.1231 -0.4885
  376MOL0     C50663   5.757   4.932   9.192  0.0348  1.0545 -0.3701
  376MOL0     C50664   5.853   4.848   9.284 -0.0979  0.5733 -0.0437
  376MOL0     C50665   5.992   4.901   9.302 -0.4915 -0.1131 -0.8479
  376MOL0     C50666   5.992   5.054   9.358  0.6165  0.0168  0.2594
  376MOL0     C50667   6.124   5.078   9.421  0.4202  0.9034 -0.9358
  376MOL0     C50668   6.245   5.087   9.322  1.0132 -0.2830  0.0162
  376MOL0    Cl50669   6.230   5.236   9.235 -0.1233 -0.6610 -0.3206
  376MOL0     C50670   5.577   4.629   8.804  0.0209 -0.5683  0.0754
  376MOL0     C50671   5.491   4.587   8.708  0.6028  0.9163  0.2804
  376MOL0     O50672   5.300   4.772   8.520  0.8439  0.0992 -0.0289
  376MOL0     C50673   5.167   4.480   8.363 -0.7204  0.0080  0.3418
  376MOL0     C50674   5.111   4.440   8.236 -1.1184  0.4621  0.8327
  376MOL0     N50675   5.080   4.156   7.602 -0.0788  0.1221  1.1360
  376MOL0     N50676   5.155   4.176   7.493 -0.1625  0.6741  0.9378
  376MOL0     C50677   5.532   5.388   7.228 -0.0328 -0.6807 -0.7914
  376MOL0     C50678   5.537   5.529   7.229  0.5699  0.5531  0.5495
  376MOL0     C50679   5.443   5.939   7.143 -0.3257  0.5869 -0.3518
  376MOL0     C50680   5.449   6.042   7.243  0.5680  0.9375  0.0414
  376MOL0     C50681   5.494   6.171   7.213  0.0621  0.7050 -0.5161
  376MOL0     C50682   5.541   6.201   7.087  0.0792 -0.0480 -0.0737
  376MOL0     O50683   5.597   6.327   7.059 -0.6919  1.6934 -0.1046
  376MOL0     C50684   5.500   6.411   6.999 -0.3973  0.1834  0.2226
  376MOL0     C50685   5.579   6.534   6.943 -0.7401 -0.1704  0.3118
  376MOL0     C50686   5.704   6.522   6.846  0.6551  0.3498  0.2419
  376MOL0     C50687   5.748   6.654   6.784 -0.6875 -0.1925 -0.3838
  376MOL0     C50688   5.795   6.638   6.640  0.5451  0.1165 -0.5539
  376MOL0     C50689   5.816   6.613   6.521 -0.8665  0.4481 -0.5072
  376MOL0     C50690   5.526   6.102   6.991 -0.3176  0.1372  0.7349
  376MOL0     C50691   5.479   5.972   7.015 -0.1014 -0.6630 -0.0177
  376MOL0     C50692   5.494   5.876   6.908  0.0011 -0.7236  0.0016
  376MOL0     H50693   5.301   5.603   7.461 -0.2399 -0.3838 -1.0959
  376MOL0     H50694   5.284   5.361   7.467 -0.1154  2.5215  0.8785
  376MOL0     H50695   5.357   5.130   7.519 -1.8920  2.5357 -1.0780
  376MOL0     H50696   5.261   5.151   7.366  0.6097  2.3575 -0.4477
  376MOL0     H50697   5.267   4.924   7.440  1.5808 -1.3160  1.2462
  376MOL0     H50698   5.445   4.913   7.441  2.2446  1.0364 -2.2387
  376MOL0     H50699   5.466   4.949   7.210 -0.7971  6.4897  0.4457
  376MOL0     H50700   5.300   4.997   7.193  0.2853  0.8569  0.0421
  376MOL0     H50701   5.219   4.766   7.262 -0.7972 -0.2915 -1.9516
  376MOL0     H50702   5.273   4.799   7.104 -1.1766  2.1424 -0.0238
  376MOL0     H50703   5.500   4.696   7.168 -1.2285 -3.4012 -1.9975
  376MOL0     H50704   5.449   4.699   7.340  0.3026 -2.9219  0.1306
  376MOL0     H50705   5.304   4.514   7.143 -0.2992 -2.7994  0.8186
  376MOL0     H50706   5.458   4.466   7.223 -1.0087 -1.7813  1.7969
  376MOL0     H50707   5.204   4.569   7.356 -0.3011 -1.7240 -4.8111
  376MOL0     H50708   5.352   4.531   7.443 -0.0410  1.8351 -1.0939
  376MOL0     H50709   5.189   4.343   7.261 -0.4654  0.3933  0.3180
  376MOL0     H50710   5.321   4.278   7.334 -0.6768  0.4286 -0.5574
  376MOL0     H50711   5.073   4.480   7.581  5.8497  0.7660  1.3604
  376MOL0     H50712   4.903   4.387   7.798 -1.2391 -0.6347  1.0215
  376MOL0     H50713   4.868   4.224   7.771  1.8059 -0.9172 -1.5140
  376MOL0     H50714   5.008   4.232   7.991 -1.8609  0.2227 -0.3910
  376MOL0     H50715   5.081   4.133   7.868  0.3252  0.2981  0.6554
  376MOL0     H50716   5.213   4.333   7.793 -2.2834  2.2087 -1.1307
  376MOL0     H50717   5.239   4.302   7.970  1.8760  0.0557 -1.0068
  376MOL0     H50718   5.098   4.529   7.828 -0.4088 -1.4884 -0.5245
  376MOL0     H50719   5.232   4.528   7.940 -0.0145 -0.9021 -0.5826
  376MOL0     H50720   5.138   4.732   8.072  0.2081  1.1798  0.1227
  376MOL0     H50721   5.229   4.804   8.300 -1.5879  0.2104 -1.1025
  376MOL0     H50722   5.191   4.688   8.824 -0.1612  0.5818  1.6747
  376MOL0     H50723   5.353   4.805   9.001  0.8707  0.7132 -1.2758
  376MOL0     H50724   5.782   4.703   9.022 -2.3385 -0.7100 -0.3467
  376MOL0     H50725   5.763   4.804   8.865 -1.7271  3.0785 -0.5077
  376MOL0     H50726   5.896   4.937   9.036  0.0499 -4.1387  1.1738
  376MOL0     H50727   5.739   4.998   8.990 -0.5403 -0.0942 -0.9006
  376MOL0     H50728   5.765   5.040   9.211 -0.6629  0.9961  0.2751
  376MOL0     H50729   5.658   4.896   9.222  1.4680 -0.2258  3.3514
  376MOL0     H50730   5.861   4.746   9.247  0.9601  0.0357  1.5856
  376MOL0     H50731   5.805   4.851   9.383 -3.7287  3.3586 -1.6408
  376MOL0     H50732   6.045   4.892   9.207  0.1813 -2.1776 -0.3241
  376MOL0     H50733   6.047   4.839   9.372  1.7872  1.9241 -0.7104
  376MOL0     H50734   5.957   5.116   9.276 -1.8676 -1.5948 -0.0176
  376MOL0     H50735   5.921   5.052   9.442  2.7362 -1.1344  2.1557
  376MOL0     H50736   6.133   5.000   9.497 -3.4159  1.6556  0.5127
  376MOL0     H50737   6.119   5.174   9.474  1.6090  0.7029 -0.4382
  376MOL0     H50738   6.342   5.079   9.372  0.9143 -0.2265  0.2214
  376MOL0     H50739   6.257   5.009   9.246  3.3514  0.4706 -0.4950
  376MOL0     H50740   5.681   4.599   8.793  0.2641  0.2391  0.1042
  376MOL0     H50741   5.523   4.541   8.616 -0.0336  1.2247 -0.1072
  376MOL0     H50742   5.173   4.404   8.440  2.9165 -0.1780  0.0608
  376MOL0     H50743   5.071   4.340   8.220  1.3006 -0.2259 -1.6079
  376MOL0     H50744   5.610   5.342   7.169  4.6762  3.5756  1.3788
  376MOL0     H50745   5.605   5.584   7.164  0.1080 -1.4185 -1.7601
  376MOL0     H50746   5.412   6.028   7.344 -0.0931  1.6946 -0.0883
  376MOL0     H50747   5.498   6.246   7.292  0.2643 -0.5013  0.6719
  376MOL0     H50748   5.440   6.446   7.083  0.1427 -1.1275  1.2026
  376MOL0     H50749   5.450   6.360   6.917  5.6718 -1.3307 -3.1468
  376MOL0     H50750   5.608   6.595   7.028  3.1983 -1.0791 -0.1745
  376MOL0     H50751   5.498   6.581   6.887 -1.3382 -1.1629  0.3143
  376MOL0     H50752   5.686   6.447   6.769  0.8246  1.4677 -0.9215
  376MOL0     H50753   5.787   6.488   6.908 -0.2539  0.1244  1.3909
  376MOL0     H50754   5.667   6.727   6.793 -0.7948 -0.5900  3.0035
  376MOL0     H50755   5.832   6.693   6.841 -0.1941  1.4659 -2.1421
  376MOL0     H50756   5.827   6.611   6.415  1.1766  0.4719 -0.3310
  376MOL0     H50757   5.571   6.120   6.894 -2.7663  0.8595 -0.3400
  376MOL0     H50758   5.539   5.926   6.821 -1.9022  1.4322  0.1649
  376MOL0     H50759   5.564   5.796   6.932  1.3771  0.4753  0.1150
  376MOL0     H50760   5.396   5.837   6.879  0.2489 -0.7280 -0.8764
  377MOL0     O50761   8.986   4.719   4.078 -0.7534 -0.6832  0.1777
  377MOL0     C50762   8.989   4.723   4.201  0.2568  0.7226 -0.6357
  377MOL0     O50763   8.895   4.768   4.280  0.1117  0.0938  0.1215
  377MOL0     C50764   8.773   4.813   4.233 -0.2016 -0.2996  1.3969
  377MOL0     C50765   8.750   4.869   4.102 -0.6832 -0.7840  0.2956
  377MOL0     C50766   8.625   4.903   4.064  1.2688  0.3207 -0.9188
  377MOL0     C50767   8.511   4.865   4.139 -1.1466 -0.6635 -0.2958
  377MOL0     O50768   8.393   4.899   4.084  0.5825  0.2089  0.1171
  377MOL0     C50769   8.273   4.828   4.132  0.0197  0.5943 -0.2828
  377MOL0     C50770   8.156   4.863   4.036 -1.0495  0.5273  1.1333
  377MOL0     C50771   8.103   5.005   4.064  0.1259  0.8781  0.0684
  377MOL0     C50772   7.981   5.025   3.981  0.2102  0.0636 -0.2950
  377MOL0     C50773   7.935   5.165   3.995 -0.7537  0.3299 -0.0923
  377MOL0     C50774   7.834   5.205   3.882 -0.2016 -0.0473  0.4646
  377MOL0     C50775   7.690   5.177   3.899  0.4721  0.7858 -0.4326
  377MOL0     C50776   7.612   5.240   3.782  0.8487  0.7542 -0.0676
  377MOL0     N50777   7.567   5.386   3.791 -0.8499  0.1742  0.4383
  377MOL0     C50778   7.483   5.447   3.879  0.6042 -0.1065  0.8745
  377MOL0     C50779   7.469   5.571   3.834 -0.0634 -0.3389  0.8435
  377MOL0     C50780   7.402   5.689   3.898 -0.3517  0.0987  0.4383
  377MOL0     C50781   7.466   5.827   3.881  0.0996  0.0093  0.0691
  377MOL0     C50782   7.578   5.865   3.977 -0.8755  0.1650 -0.9477
  377MOL0     C50783   7.579   6.023   3.979 -0.1470  0.6862 -0.3194
  377MOL0     O50784   7.667   6.065   4.085  0.4677  0.7303  0.5429
  377MOL0     C50785   7.672   6.197   4.109  0.6310  0.4697  0.0963
  377MOL0     C50786   7.769   6.226   4.202  0.5038  0.2583  0.3022
  377MOL0     C50787   7.786   6.362   4.249  0.5671  0.0445  0.9306
  377MOL0     C50788   7.721   6.474   4.187 -0.3594 -0.7073  1.0222
  377MOL0     C50789   7.752   6.612   4.244  1.0198 -0.5007  0.1533
  377MOL0     O50790   7.828   6.612   4.351 -0.8769  0.2829  0.2475
  377MOL0     C50791   7.856   6.729   4.430  0.3254  0.3418  0.1805
  377MOL0     C50792   7.768   6.837   4.442  0.6950  0.5988  0.1635
  377MOL0     C50793   7.811   6.950   4.515 -0.0989 -0.6171  0.0305
  377MOL0     C50794   7.935   6.960   4.580 -0.7994 -0.5773 -0.1041
  377MOL0     O50795   7.971   7.075   4.646 -0.5076  0.1972  0.5069
  377MOL0     C50796   8.079   7.059   4.746  0.1887 -0.6030  0.3382
  377MOL0     C50797   8.214   7.060   4.680 -1.1228  0.8248  0.0630
  377MOL0     C50798   8.310   6.973   4.764  0.0858  0.4264 -0.4745
  377MOL0     C50799   8.453   7.008   4.741  0.4864 -0.1460  0.7994
  377MOL0     C50800   8.568   6.963   4.822  0.4595  1.0143  0.1847
  377MOL0     C50801   8.709   6.984   4.766 -0.3259  1.0537 -0.2036
  377MOL0     C50802   8.825   6.979   4.862 -0.0337  0.3831  0.9528
  377MOL0     C50803   8.949   7.000   4.785 -1.2564  0.2380  0.5667
  377MOL0    Cl50804   8.968   7.154   4.697 -0.2918  0.0892 -0.1725
  377MOL0     C50805   8.018   6.844   4.575 -0.7463  0.8874  0.3223
  377MOL0     C50806   7.976   6.734   4.503  0.3197  0.4355 -0.1145
  377MOL0     O50807   7.725   6.707   4.171 -0.0340 -0.4662  0.7932
  377MOL0     C50808   7.622   6.439   4.087  0.3685  0.4981 -0.5947
  377MOL0     C50809   7.602   6.297   4.040  0.8066 -0.3991  0.0771
  377MOL0     N50810   7.526   5.578   3.704 -0.0487  0.3440  0.7501
  377MOL0     N50811   7.597   5.468   3.683 -0.9055  1.0734 -0.4853
  377MOL0     C50812   8.538   4.818   4.264 -0.1668  0.7228  0.4869
  377MOL0     C50813   8.666   4.797   4.315 -0.2181 -0.0490  0.7841
  377MOL0     C50814   9.100   4.644   4.255  1.0081 -0.1209  0.8426
  377MOL0     C50815   9.202   4.604   4.165 -1.0365  0.3937  0.4878
  377MOL0     C50816   9.312   4.532   4.205 -0.7186  0.3492  0.7146
  377MOL0     C50817   9.331   4.493   4.337  0.8869 -0.0487  0.4334
  377MOL0     O50818   9.435   4.418   4.370 -0.2953 -0.0148 -0.5394
  377MOL0     C50819   9.465   4.360   4.501 -0.1450  0.7257 -0.2181
  377MOL0     C50820   9.537   4.472   4.584  0.0189 -0.0240  0.3820
  377MOL0     C50821   9.689   4.477   4.557 -0.5172  1.3612 -0.2845
  377MOL0     C50822   9.762   4.580   4.635  0.1260 -1.0047  0.1041
  377MOL0     C50823   9.880   4.598   4.558 -0.1613 -0.3349  0.4171
  377MOL0     C50824   9.980   4.619   4.488 -0.4231 -0.0291 -0.8328
  377MOL0     C50825   9.237   4.535   4.433  0.0665  0.8479 -0.3939
  377MOL0     C50826   9.124   4.612   4.391 -0.1389  0.2567 -0.2458
  377MOL0     C50827   9.027   4.662   4.496  0.9578 -0.2152 -0.3228
  377MOL0     H50828   8.838   4.886   4.039 -1.8354 -2.6242 -1.9900
  377MOL0     H50829   8.618   4.944   3.964  0.5120 -0.4950 -1.2114
  377MOL0     H50830   8.281   4.721   4.112 -3.5372  0.2998 -0.8670
  377MOL0     H50831   8.240   4.848   4.234 -2.3744 -1.1903 -0.6114
  377MOL0     H50832   8.074   4.793   4.053 -0.7239 -1.0575 -2.7409
  377MOL0     H50833   8.188   4.850   3.932  2.5191  1.4450  1.9642
  377MOL0     H50834   8.177   5.083   4.041  1.6886 -0.0972  1.5611
  377MOL0     H50835   8.067   5.017   4.167 -0.6931 -1.2465  0.0855
  377MOL0     H50836   7.994   5.001   3.875  0.1449 -0.6786 -0.1435
  377MOL0     H50837   7.905   4.959   4.026 -0.3361  0.7568 -0.1735
  377MOL0     H50838   7.875   5.182   4.085 -0.4646  1.0047 -0.0178
  377MOL0     H50839   8.030   5.219   3.994 -0.2678 -0.5237 -0.4655
  377MOL0     H50840   7.837   5.314   3.873 -1.9520  0.5453  4.5978
  377MOL0     H50841   7.856   5.148   3.791 -1.5138 -0.4766  0.3961
  377MOL0     H50842   7.662   5.222   3.995 -0.8070 -2.3854  0.8321
  377MOL0     H50843   7.670   5.070   3.905  1.3127  0.3995 -3.1338
  377MOL0     H50844   7.681   5.229   3.697  1.6580 -1.5584  0.8130
  377MOL0     H50845   7.526   5.176   3.761  0.9182  1.5796 -3.6022
  377MOL0     H50846   7.458   5.412   3.978 -0.2840 -0.6239  0.4758
  377MOL0     H50847   7.296   5.698   3.871 -0.8079  1.1060  2.4077
  377MOL0     H50848   7.414   5.657   4.002 -1.8933  0.9379  0.9002
  377MOL0     H50849   7.499   5.836   3.777  1.0579 -0.6146  0.2979
  377MOL0     H50850   7.392   5.905   3.896  0.7609  0.7728 -0.5084
  377MOL0     H50851   7.677   5.820   3.963  0.4038  2.1124  1.1098
  377MOL0     H50852   7.545   5.833   4.077 -0.4305 -1.6937 -1.3551
  377MOL0     H50853   7.478   6.064   3.973 -1.4990 -2.5843 -3.0121
  377MOL0     H50854   7.623   6.063   3.887  1.2362  2.4452  1.0269
  377MOL0     H50855   7.814   6.142   4.254  0.8014  1.2214  1.6759
  377MOL0     H50856   7.867   6.398   4.312 -0.3552  1.5964  1.2837
  377MOL0     H50857   7.669   6.840   4.397 -0.1721 -1.4376  1.7734
  377MOL0     H50858   7.753   7.040   4.536 -1.4113 -1.4682  0.1575
  377MOL0     H50859   8.066   7.147   4.809  1.8599  1.3769 -1.8899
  377MOL0     H50860   8.057   6.966   4.800  0.8463 -0.1428  1.4145
  377MOL0     H50861   8.209   7.025   4.577 -1.5375  3.6040 -0.9412
  377MOL0     H50862   8.247   7.163   4.664 -1.6511  0.7075 -2.0759
  377MOL0     H50863   8.301   6.985   4.873  4.3426  1.4852 -0.0757
  377MOL0     H50864   8.292   6.865   4.752 -1.8194  0.6026  0.3099
  377MOL0     H50865   8.452   7.117   4.744  1.9611 -0.0958  0.1458
  377MOL0     H50866   8.470   6.985   4.635  3.5441  1.4979  0.8239
  377MOL0     H50867   8.563   6.859   4.858  0.5769  0.5549 -1.0893
  377MOL0     H50868   8.566   7.018   4.917  0.9056  0.7854  0.3288
  377MOL0     H50869   8.715   6.901   4.695  0.6405 -1.1796  2.3317
  377MOL0     H50870   8.699   7.074   4.705 -0.4143  0.0153 -1.7704
  377MOL0     H50871   8.832   6.873   4.888 -1.7601 -0.9712 -3.2334
  377MOL0     H50872   8.829   7.043   4.951 -0.1447  0.6584  0.7610
  377MOL0     H50873   9.032   6.995   4.857  1.2002  1.8233 -1.9457
  377MOL0     H50874   8.958   6.922   4.708 -0.6286  0.4663  0.4031
  377MOL0     H50875   8.111   6.821   4.626 -0.5329 -2.5055 -1.3428
  377MOL0     H50876   8.017   6.634   4.494 -2.4124 -0.7465 -0.4546
  377MOL0     H50877   7.572   6.519   4.033  0.1647  1.1141  0.4752
  377MOL0     H50878   7.532   6.266   3.963  2.7584 -2.8073 -0.8811
  377MOL0     H50879   8.454   4.795   4.330  0.1372 -2.1557 -0.0334
  377MOL0     H50880   8.677   4.758   4.415 -1.4966  1.5956  1.6001
  377MOL0     H50881   9.193   4.623   4.059  1.3375  0.3573  0.2137
  377MOL0     H50882   9.390   4.513   4.132  2.2024  0.0313  3.6422
  377MOL0     H50883   9.523   4.269   4.484 -2.7259 -1.5945  2.2797
  377MOL0     H50884   9.376   4.328   4.555  0.2693 -0.2803 -0.1132
  377MOL0     H50885   9.505   4.445   4.685 -2.6114 -1.3856 -0.7294
  377MOL0     H50886   9.490   4.569   4.568  1.3006  0.4285 -0.9192
  377MOL0     H50887   9.702   4.503   4.451 -1.9052  1.1258 -0.5275
  377MOL0     H50888   9.746   4.386   4.580  0.5912  2.1313  0.0894
  377MOL0     H50889   9.715   4.677   4.648  0.3267 -0.8290 -0.4831
  377MOL0     H50890   9.789   4.539   4.733 -1.6850 -0.9265  0.6661
  377MOL0     H50891  10.067   4.646   4.432 -0.2779  1.8003  0.2104
  377MOL0     H50892   9.243   4.517   4.540 -1.1276  4.5461  0.4420
  377MOL0     H50893   9.059   4.619   4.591 -0.5589 -2.8073 -0.8990
  377MOL0     H50894   9.022   4.771   4.507 -3.7318 -0.1958 -0.7993
  377MOL0     H50895   8.925   4.625   4.482  0.3762  0.9572  0.6077
  378MOL0     O50896   3.821   2.085   7.715 -0.2964 -0.4926  0.0719
  378MOL0     C50897   3.703   2.107   7.701  0.5108 -1.1824 -0.1857
  378MOL0     O50898   3.606   2.008   7.684 -0.6573 -1.3602 -0.5665
  378MOL0     C50899   3.617   1.870   7.706  0.6028 -0.5034 -0.1755
  378MOL0     C50900   3.526   1.813   7.793 -0.2872  0.8297 -0.3136
  378MOL0     C50901   3.537   1.672   7.823  0.1045 -1.9784 -0.0128
  378MOL0     C50902   3.638   1.603   7.764  0.7323  0.1846  0.0665
  378MOL0     O50903   3.654   1.469   7.784  0.5522  0.1559  0.2364
  378MOL0     C50904   3.638   1.421   7.916 -0.1430 -0.1210  0.0491
  378MOL0     C50905   3.636   1.270   7.912  0.1308 -0.4843 -0.0131
  378MOL0     C50906   3.773   1.197   7.874 -0.0562  0.3104 -0.7357
  378MOL0     C50907   3.880   1.214   7.987  0.8466  0.2626 -0.0717
  378MOL0     C50908   4.002   1.115   7.998 -0.0019  0.4590 -0.7358
  378MOL0     C50909   4.078   1.110   7.864 -0.1009 -0.4134 -0.4321
  378MOL0     C50910   4.183   1.000   7.872  0.2644  0.4274  1.1666
  378MOL0     C50911   4.255   0.997   8.002  0.2155  0.9466  0.9402
  378MOL0     N50912   4.345   0.884   8.014 -0.4526  0.1456  0.1959
  378MOL0     C50913   4.486   0.880   8.003  0.1310 -0.3717 -1.0890
  378MOL0     C50914   4.526   0.750   8.020  0.2719  0.8821  0.8600
  378MOL0     C50915   4.662   0.682   8.000 -0.3104  0.1721  0.5769
  378MOL0     C50916   4.678   0.621   7.868 -0.7525 -0.2121  0.2863
  378MOL0     C50917   4.578   0.505   7.839 -0.5115  0.5961  0.1380
  378MOL0     C50918   4.629   0.418   7.719 -0.3292 -0.2367  0.1683
  378MOL0     O50919   4.756   0.359   7.741 -0.6257  0.8033 -0.0409
  378MOL0     C50920   4.853   0.384   7.649 -0.5215 -0.1381 -0.7520
  378MOL0     C50921   4.945   0.275   7.634  1.2347 -0.2936  0.4056
  378MOL0     C50922   5.052   0.283   7.545  0.8169 -0.3336 -0.4789
  378MOL0     C50923   5.081   0.407   7.482 -0.6254 -0.8076 -0.2270
  378MOL0     C50924   5.202   0.421   7.397  0.4936 -1.0577  0.2550
  378MOL0     O50925   5.278   0.316   7.363 -0.1536  0.6124 -0.1375
  378MOL0     C50926   5.350   0.332   7.249 -0.7376 -0.0726 -0.1426
  378MOL0     C50927   5.474   0.392   7.262  0.0261  0.6124 -0.1692
  378MOL0     C50928   5.563   0.401   7.164  0.0632 -0.5371  0.8772
  378MOL0     C50929   5.540   0.335   7.043 -1.0495 -0.3683 -0.3743
  378MOL0     O50930   5.641   0.327   6.940  0.3039 -0.3082  0.0294
  378MOL0     C50931   5.753   0.421   6.947 -0.2564  0.9718  0.1465
  378MOL0     C50932   5.856   0.365   6.854 -0.9943 -0.1368  0.5528
  378MOL0     C50933   5.923   0.239   6.896 -0.6925 -0.0831  0.6912
  378MOL0     C50934   6.032   0.187   6.803  0.7528 -0.4052  0.2829
  378MOL0     C50935   6.175   0.247   6.827 -0.0065  0.2214  1.1596
  378MOL0     C50936   6.288   0.169   6.754 -0.2269 -0.1382 -0.1581
  378MOL0     C50937   6.315   0.184   6.599  1.1513 -0.0589 -0.7305
  378MOL0     C50938   6.467   0.194   6.562 -0.1349 -0.2410 -1.1032
  378MOL0    Cl50939   6.545   0.042   6.628  0.2295  0.7188  0.0829
  378MOL0     C50940   5.417   0.269   7.026  0.2635  0.7849  0.6699
  378MOL0     C50941   5.316   0.276   7.125 -0.4139  0.3120  0.6078
  378MOL0     O50942   5.222   0.534   7.361 -0.5742 -0.6126  0.1767
  378MOL0     C50943   4.991   0.514   7.507  0.4082 -0.8041 -0.3244
  378MOL0     C50944   4.881   0.503   7.597 -0.1327 -0.4763 -0.8251
  378MOL0     N50945   4.410   0.680   8.037  0.1220  0.2582 -0.7096
  378MOL0     N50946   4.302   0.759   8.033  0.0567  0.8413  1.0696
  378MOL0     C50947   3.732   1.664   7.685  0.2729  0.5196 -0.2433
  378MOL0     C50948   3.720   1.795   7.659  0.4135  0.1084 -0.6347
  378MOL0     C50949   3.670   2.246   7.741  0.8762 -0.5993 -0.2801
  378MOL0     C50950   3.775   2.339   7.734 -0.3909  0.7775  0.0901
  378MOL0     C50951   3.757   2.471   7.770 -0.6974 -0.1890 -0.7578
  378MOL0     C50952   3.635   2.523   7.806 -0.7139  0.2329 -0.6501
  378MOL0     O50953   3.615   2.662   7.805  0.5398 -0.8006  0.3927
  378MOL0     C50954   3.490   2.708   7.850 -0.2456 -0.4004 -0.5344
  378MOL0     C50955   3.465   2.832   7.776  0.5239 -0.4436  0.9198
  378MOL0     C50956   3.332   2.919   7.802  0.2416 -0.1776  0.3450
  378MOL0     C50957   3.312   2.951   7.947 -0.2044 -0.8952 -0.2730
  378MOL0     C50958   3.421   3.017   8.015 -0.1871 -0.2257 -0.3753
  378MOL0     C50959   3.504   3.091   8.058  0.3245 -0.5242  0.6633
  378MOL0     C50960   3.525   2.426   7.828 -0.5783 -0.0858  0.4236
  378MOL0     C50961   3.547   2.293   7.795 -0.4909  0.1896  0.4109
  378MOL0     C50962   3.446   2.193   7.826 -0.5195 -0.1732 -0.6226
  378MOL0     H50963   3.444   1.866   7.841 -3.4223 -4.3789  0.9268
  378MOL0     H50964   3.457   1.632   7.885 -0.2503 -4.6723 -2.0010
  378MOL0     H50965   3.718   1.434   7.990  0.0031 -2.1117  0.3050
  378MOL0     H50966   3.538   1.451   7.948  0.0163  2.4925 -1.5708
  378MOL0     H50967   3.559   1.219   7.853  1.4224 -1.5239 -0.8593
  378MOL0     H50968   3.616   1.231   8.013  2.3620  1.9721  1.5014
  378MOL0     H50969   3.814   1.240   7.782  2.5888 -2.4560 -1.0014
  378MOL0     H50970   3.759   1.091   7.851 -2.1450  0.5124 -0.5947
  378MOL0     H50971   3.921   1.315   7.986  1.5270 -0.0061  0.5074
  378MOL0     H50972   3.825   1.211   8.081  1.3831 -0.1922  0.2277
  378MOL0     H50973   4.066   1.148   8.081 -1.3991 -1.1714  1.0775
  378MOL0     H50974   3.961   1.019   8.030  2.1484 -1.1558 -2.4858
  378MOL0     H50975   4.010   1.102   7.778 -0.5923 -0.8661 -0.0053
  378MOL0     H50976   4.121   1.205   7.832  1.8530 -1.5715 -1.3941
  378MOL0     H50977   4.257   1.001   7.791  1.3641 -2.2485  2.0233
  378MOL0     H50978   4.125   0.909   7.855 -0.3761  1.4464 -3.3169
  378MOL0     H50979   4.305   1.095   8.007  2.1787 -0.0631  3.0526
  378MOL0     H50980   4.187   0.983   8.087  0.4605 -0.3799  0.9271
  378MOL0     H50981   4.545   0.965   7.972 -1.5430  0.8057 -1.2000
  378MOL0     H50982   4.736   0.761   8.015 -1.2505  1.7995 -2.4680
  378MOL0     H50983   4.665   0.601   8.074 -1.2813 -0.2514  0.1708
  378MOL0     H50984   4.668   0.693   7.786  0.9362  2.1542  2.0215
  378MOL0     H50985   4.780   0.581   7.865 -0.9114 -0.5974 -0.1637
  378MOL0     H50986   4.481   0.538   7.803  0.1147  0.0479 -2.1829
  378MOL0     H50987   4.569   0.436   7.924  2.9022 -2.4968 -1.7259
  378MOL0     H50988   4.628   0.484   7.632  1.1621 -2.0570 -1.3275
  378MOL0     H50989   4.548   0.346   7.704 -2.6895  2.4157 -0.8890
  378MOL0     H50990   4.921   0.184   7.688 -0.9534  0.1610  0.2657
  378MOL0     H50991   5.119   0.198   7.540  1.5568  0.1807  0.4025
  378MOL0     H50992   5.496   0.430   7.361  1.1909  1.3652 -0.6897
  378MOL0     H50993   5.657   0.448   7.191  0.8072 -2.2472  1.4279
  378MOL0     H50994   5.728   0.526   6.929  1.4609  1.0924 -1.8831
  378MOL0     H50995   5.797   0.426   7.047 -3.9731 -0.4688  2.0362
  378MOL0     H50996   5.817   0.342   6.754  1.1001 -0.7166 -0.1776
  378MOL0     H50997   5.932   0.443   6.849  1.8513 -2.8145 -0.8244
  378MOL0     H50998   5.961   0.254   6.997  2.2921 -1.4019 -0.1119
  378MOL0     H50999   5.845   0.162   6.890 -2.7587  2.0180 -2.4055
  378MOL0     H51000   6.011   0.208   6.698  2.8527 -1.6260 -0.4547
  378MOL0     H51001   6.035   0.078   6.815 -2.8634 -0.4421  2.1809
  378MOL0     H51002   6.187   0.238   6.935  0.6446  2.6148  1.3427
  378MOL0     H51003   6.176   0.354   6.803 -1.4452  0.7224  3.1249
  378MOL0     H51004   6.376   0.205   6.807 -1.9391  0.3874  2.5205
  378MOL0     H51005   6.277   0.061   6.770 -0.8013 -0.6173 -3.1856
  378MOL0     H51006   6.260   0.273   6.567  0.2324  0.5247  2.1257
  378MOL0     H51007   6.285   0.094   6.544  0.2735 -1.1548  1.3978
  378MOL0     H51008   6.495   0.202   6.457 -0.3763  1.4673 -1.0583
  378MOL0     H51009   6.515   0.270   6.624  3.0109 -3.0594  0.2207
  378MOL0     H51010   5.412   0.214   6.933 -2.6456  0.0626  1.1415
  378MOL0     H51011   5.215   0.239   7.113  0.0631 -0.8534  0.0217
  378MOL0     H51012   5.007   0.609   7.457 -0.5517 -0.5775 -0.2282
  378MOL0     H51013   4.831   0.595   7.623  3.5024  0.9655  2.0425
  378MOL0     H51014   3.810   1.608   7.636  0.5834  1.0580 -0.3787
  378MOL0     H51015   3.794   1.852   7.605  2.1176 -1.5090 -0.1351
  378MOL0     H51016   3.868   2.299   7.696 -0.4058 -0.4512  1.2941
  378MOL0     H51017   3.837   2.542   7.752 -0.0301 -0.7464 -0.0366
  378MOL0     H51018   3.492   2.728   7.957 -0.7322 -1.3600 -0.3343
  378MOL0     H51019   3.402   2.654   7.815  0.5710  0.8393 -5.1649
  378MOL0     H51020   3.466   2.819   7.667 -0.9204  1.8827  0.5645
  378MOL0     H51021   3.551   2.899   7.781 -1.6711  2.6168  0.5749
  378MOL0     H51022   3.240   2.867   7.770 -2.2271  4.8232 -1.8176
  378MOL0     H51023   3.332   3.005   7.735 -2.2789 -0.4525 -0.1266
  378MOL0     H51024   3.214   2.999   7.959 -0.9425 -1.0909 -4.0578
  378MOL0     H51025   3.295   2.860   8.006  0.6662 -0.6358  0.3882
  378MOL0     H51026   3.570   3.163   8.101  1.5503 -1.5587  0.5751
  378MOL0     H51027   3.433   2.461   7.873 -0.2607  0.7460  0.4432
  378MOL0     H51028   3.496   2.129   7.899  1.1651  2.5806  0.7782
  378MOL0     H51029   3.355   2.239   7.865 -0.2800  2.5038 -2.9265
  378MOL0     H51030   3.424   2.139   7.733 -1.7479 -1.7974  0.5451
  379MOL0     O51031  11.397   0.920   7.449 -0.5628  0.2148  0.0074
  379MOL0     C51032  11.408   0.946   7.332 -0.7487  1.5873 -0.1767
  379MOL0     O51033  11.303   0.974   7.250 -0.2127  0.4786  0.7308
  379MOL0     C51034  11.177   0.935   7.294 -1.3622  0.5818  0.4366
  379MOL0     C51035  11.075   1.028   7.293  0.1415  0.5047  0.4012
  379MOL0     C51036  10.945   0.989   7.337  0.0267 -0.3316  1.4792
  379MOL0     C51037  10.923   0.868   7.406 -0.6720 -0.5096  0.0985
  379MOL0     O51038  10.816   0.834   7.469 -0.3703  0.0336  0.6180
  379MOL0     C51039  10.809   0.876   7.605 -0.1744  0.3674 -0.5300
  379MOL0     C51040  10.745   0.757   7.675  0.1773 -0.1909 -0.1475
  379MOL0     C51041  10.610   0.702   7.625 -0.4780 -1.0606 -0.3562
  379MOL0     C51042  10.577   0.562   7.663  0.2424 -0.0450 -0.3861
  379MOL0     C51043  10.432   0.514   7.628 -0.1827 -0.9767  0.4828
  379MOL0     C51044  10.421   0.491   7.468  0.3651 -0.2965 -0.7626
  379MOL0     C51045  10.298   0.407   7.441 -0.7453  0.3842  0.1478
  379MOL0     C51046  10.299   0.371   7.290  0.6309  1.4378  0.2960
  379MOL0     N51047  10.307   0.487   7.194  0.7226 -0.3131  0.5457
  379MOL0     C51048  10.204   0.550   7.143  1.0030 -0.1069 -0.6142
  379MOL0     C51049  10.252   0.644   7.068  0.1122  0.3443  0.3983
  379MOL0     C51050  10.175   0.759   6.988 -0.1978  0.4292  0.8027
  379MOL0     C51051  10.082   0.713   6.880  0.2876  0.4241  0.8130
  379MOL0     C51052  10.157   0.626   6.778  0.6282 -1.3556 -0.1870
  379MOL0     C51053  10.053   0.547   6.693 -0.2586 -0.3572  0.4715
  379MOL0     O51054   9.988   0.459   6.785 -0.4249 -0.3481 -0.4179
  379MOL0     C51055   9.851   0.426   6.779 -0.7656  0.5543 -0.0405
  379MOL0     C51056   9.810   0.309   6.845  0.5610  0.7770 -0.2430
  379MOL0     C51057   9.685   0.254   6.823 -0.1428  1.0903 -0.2728
  379MOL0     C51058   9.595   0.308   6.737 -0.6366  0.2940 -0.0045
  379MOL0     C51059   9.460   0.255   6.722 -0.8234  0.3031 -0.5160
  379MOL0     O51060   9.391   0.322   6.622 -0.3511  0.3902 -0.3861
  379MOL0     C51061   9.262   0.263   6.592  0.4119 -0.2502 -0.6564
  379MOL0     C51062   9.137   0.323   6.636 -0.1460  0.9936  1.3708
  379MOL0     C51063   9.021   0.250   6.598 -0.5120 -0.4474  0.2111
  379MOL0     C51064   9.022   0.133   6.512 -0.0134 -0.4095 -0.3786
  379MOL0     O51065   8.899   0.084   6.471 -0.0011  0.1439 -0.1305
  379MOL0     C51066   8.902  -0.042   6.399  0.6450  0.9158 -0.1132
  379MOL0     C51067   8.759  -0.105   6.379 -0.3196  0.0607 -0.2823
  379MOL0     C51068   8.692  -0.037   6.246  0.4726 -0.5034  0.1818
  379MOL0     C51069   8.747  -0.112   6.133  1.0181  0.3481  0.4862
  379MOL0     C51070   8.702  -0.050   5.999 -0.1288 -0.6881  0.5060
  379MOL0     C51071   8.552  -0.051   5.988  0.2686  0.0565 -0.6472
  379MOL0     C51072   8.470  -0.183   6.001  0.0233 -0.5520  0.3668
  379MOL0     C51073   8.419  -0.230   5.864  1.3492 -0.6215  1.1554
  379MOL0    Cl51074   8.297  -0.121   5.796 -0.1224  0.0888 -0.2268
  379MOL0     C51075   9.145   0.091   6.465  0.9123 -0.5218 -0.3690
  379MOL0     C51076   9.264   0.152   6.510 -0.2829  0.8561  0.0952
  379MOL0     O51077   9.418   0.157   6.786  0.4244  0.6353 -0.1013
  379MOL0     C51078   9.637   0.422   6.662 -0.0999 -0.7115 -0.4867
  379MOL0     C51079   9.761   0.482   6.691  0.0526 -0.6022 -0.5177
  379MOL0     N51080  10.396   0.635   7.065  0.5844  0.0746 -0.5113
  379MOL0     N51081  10.429   0.534   7.146  0.0068 -0.9007  0.0071
  379MOL0     C51082  11.031   0.780   7.416 -1.4071 -0.8405  0.4785
  379MOL0     C51083  11.159   0.809   7.357  0.6286 -0.2567  0.0684
  379MOL0     C51084  11.549   0.975   7.294 -0.8684 -0.0693 -0.0570
  379MOL0     C51085  11.570   1.094   7.212  0.1845  0.2294  0.6062
  379MOL0     C51086  11.692   1.133   7.167 -0.4155 -1.0140  0.0156
  379MOL0     C51087  11.807   1.059   7.199  0.3401 -0.1242 -0.7285
  379MOL0     O51088  11.943   1.092   7.180  0.6747 -0.3726 -1.2927
  379MOL0     C51089  11.999   1.210   7.113 -0.1007 -0.7568  0.5097
  379MOL0     C51090  11.955   1.219   6.966 -0.2022 -0.5508 -0.6172
  379MOL0     C51091  11.980   1.082   6.896 -0.2914  0.0243  0.5744
  379MOL0     C51092  11.931   1.099   6.756  0.7576  0.0737  0.2708
  379MOL0     C51093  11.783   1.114   6.737  0.4284  0.5455 -0.0828
  379MOL0     C51094  11.657   1.114   6.735 -0.5923 -0.1118 -0.7802
  379MOL0     C51095  11.785   0.948   7.272 -0.3864 -0.3010  0.0863
  379MOL0     C51096  11.662   0.902   7.323 -0.3284 -0.7934  1.0755
  379MOL0     C51097  11.671   0.789   7.421 -0.9327  0.0035  0.4992
  379MOL0     H51098  11.093   1.130   7.259  2.3231  0.9462  2.6062
  379MOL0     H51099  10.873   1.070   7.338  0.9441  0.7186 -2.1586
  379MOL0     H51100  10.907   0.893   7.651  1.5041 -2.1651 -2.8270
  379MOL0     H51101  10.750   0.968   7.602  1.7139  1.7664  1.9913
  379MOL0     H51102  10.734   0.773   7.783  1.1435 -0.6402  0.0299
  379MOL0     H51103  10.817   0.676   7.664  0.9492  0.7515 -2.7293
  379MOL0     H51104  10.605   0.710   7.516  0.4982  0.5465 -0.3258
  379MOL0     H51105  10.536   0.770   7.668 -0.3668  0.8327 -2.9128
  379MOL0     H51106  10.653   0.490   7.632 -1.5935 -2.1005 -0.3085
  379MOL0     H51107  10.586   0.564   7.772 -0.9144  1.1668 -0.2934
  379MOL0     H51108  10.403   0.423   7.682 -0.5102 -0.8102  0.5933
  379MOL0     H51109  10.364   0.593   7.662  1.6522 -0.6872  3.9013
  379MOL0     H51110  10.415   0.590   7.422  0.5125 -0.2869 -0.7630
  379MOL0     H51111  10.506   0.443   7.419  0.7096  0.2008 -0.6585
  379MOL0     H51112  10.199   0.450   7.463 -1.0319  0.9080 -1.9038
  379MOL0     H51113  10.307   0.312   7.495  0.9819  0.2995 -0.2352
  379MOL0     H51114  10.392   0.318   7.267  0.9577  1.5089  1.4328
  379MOL0     H51115  10.208   0.316   7.261  2.7006 -2.0190 -0.2811
  379MOL0     H51116  10.103   0.535   7.178  0.4607  0.2846 -1.9141
  379MOL0     H51117  10.127   0.830   7.055 -0.5413  1.9115 -0.9306
  379MOL0     H51118  10.252   0.814   6.933  0.2274 -2.2037 -1.5134
  379MOL0     H51119  10.005   0.655   6.931  0.9101 -1.2558 -0.0600
  379MOL0     H51120  10.036   0.796   6.826 -1.3666 -1.2263 -0.4363
  379MOL0     H51121  10.238   0.566   6.821  0.2975  0.1128  2.7048
  379MOL0     H51122  10.200   0.702   6.712 -1.4920  1.2911  1.2950
  379MOL0     H51123  10.103   0.491   6.613 -4.0137 -1.2931 -1.4711
  379MOL0     H51124   9.980   0.611   6.644 -1.9020 -1.5884  1.2168
  379MOL0     H51125   9.878   0.239   6.893  1.9768  2.5227  0.3879
  379MOL0     H51126   9.668   0.151   6.852  0.3604 -0.6754 -5.2466
  379MOL0     H51127   9.146   0.412   6.697  4.3771 -0.9467  4.0639
  379MOL0     H51128   8.923   0.282   6.634 -0.4849 -1.0539  0.8544
  379MOL0     H51129   8.944  -0.023   6.299 -1.1757 -1.6666 -1.4767
  379MOL0     H51130   8.969  -0.112   6.449 -0.8536 -1.7775 -1.6541
  379MOL0     H51131   8.761  -0.213   6.363 -0.5287 -0.3699  2.2373
  379MOL0     H51132   8.698  -0.094   6.469 -1.0114  0.1184 -0.7528
  379MOL0     H51133   8.582  -0.038   6.242  0.3948  2.7144 -0.7352
  379MOL0     H51134   8.712   0.068   6.223  1.7351 -0.9784 -1.0659
  379MOL0     H51135   8.703  -0.212   6.125 -0.0356  0.8951 -0.9893
  379MOL0     H51136   8.856  -0.124   6.133  0.7425 -3.4327 -0.9611
  379MOL0     H51137   8.737  -0.109   5.914 -1.2045  0.4278 -0.7624
  379MOL0     H51138   8.736   0.052   5.981 -4.1470  0.3328 -2.9038
  379MOL0     H51139   8.507   0.017   6.061  2.0628 -1.8641  2.4602
  379MOL0     H51140   8.525  -0.009   5.891  1.2162 -4.5429 -3.2150
  379MOL0     H51141   8.386  -0.164   6.069 -0.0243  1.4325 -0.1754
  379MOL0     H51142   8.527  -0.264   6.046 -1.3899 -0.9110  1.5661
  379MOL0     H51143   8.496  -0.237   5.786  1.1639  0.6391  0.8354
  379MOL0     H51144   8.360  -0.321   5.876 -0.0541  0.1068  0.0042
  379MOL0     H51145   9.156   0.019   6.385  1.2609 -0.2489 -0.5713
  379MOL0     H51146   9.359   0.118   6.469 -1.4401 -1.0349 -1.1440
  379MOL0     H51147   9.581   0.460   6.577  3.2576  0.8766 -2.1606
  379MOL0     H51148   9.792   0.573   6.641 -1.6473  1.8545  2.4885
  379MOL0     H51149  11.038   0.702   7.491 -0.1641 -0.8053  0.4056
  379MOL0     H51150  11.244   0.744   7.378 -0.7565 -2.8890 -1.7924
  379MOL0     H51151  11.480   1.152   7.194 -0.0135  0.2514  1.6490
  379MOL0     H51152  11.713   1.234   7.132  0.5351 -0.3594  2.2906
  379MOL0     H51153  12.108   1.208   7.124 -0.2172 -1.5262  1.8044
  379MOL0     H51154  11.962   1.295   7.171 -0.8902 -0.9912  0.3494
  379MOL0     H51155  12.011   1.300   6.919 -1.5471  1.1051  0.5264
  379MOL0     H51156  11.850   1.249   6.968 -0.8843 -2.7866 -0.0957
  379MOL0     H51157  11.930   0.999   6.945  0.3637 -0.6658  0.1068
  379MOL0     H51158  12.082   1.043   6.887 -0.8115 -0.9082 -2.4522
  379MOL0     H51159  11.971   1.188   6.706 -0.1993  0.4372  0.1326
  379MOL0     H51160  11.949   1.011   6.694  0.1759  0.9981 -1.2860
  379MOL0     H51161  11.552   1.132   6.734 -0.6131  0.1679  1.7145
  379MOL0     H51162  11.867   0.883   7.300  0.8648  1.9699  2.1079
  379MOL0     H51163  11.705   0.706   7.359 -6.2465 -2.5464  0.4253
  379MOL0     H51164  11.740   0.814   7.502 -1.5101  0.9741  0.7136
  379MOL0     H51165  11.579   0.748   7.464 -0.5282 -4.3474 -2.2009
  380MOL0     O51166   3.315   3.649  10.469  0.2157  0.1277  0.4054
  380MOL0     C51167   3.406   3.629  10.547 -0.7661  0.1769  0.4820
  380MOL0     O51168   3.521   3.567  10.527 -0.3417 -0.4328  0.5824
  380MOL0     C51169   3.539   3.506  10.407  0.1791  0.0914  0.4275
  380MOL0     C51170   3.489   3.379  10.384  0.6867 -0.4899  0.5380
  380MOL0     C51171   3.488   3.327  10.252  0.7057 -0.0871  0.8952
  380MOL0     C51172   3.544   3.397  10.142 -0.0920 -0.1214  0.4002
  380MOL0     O51173   3.545   3.336  10.018 -0.1948  0.2246  0.0019
  380MOL0     C51174   3.456   3.402   9.922  0.1820 -0.1087 -0.0373
  380MOL0     C51175   3.307   3.388   9.951 -0.3013 -0.4018 -0.7961
  380MOL0     C51176   3.257   3.512  10.017  0.1465 -0.2611 -0.3131
  380MOL0     C51177   3.236   3.633   9.928  0.6769  0.4721 -0.5913
  380MOL0     C51178   3.127   3.735   9.982 -0.1104 -0.1947  0.1960
  380MOL0     C51179   3.144   3.793  10.126  0.8917  0.8611  0.6283
  380MOL0     C51180   3.285   3.826  10.165  0.6873 -0.1416  0.2119
  380MOL0     C51181   3.336   3.940  10.072  0.2740  0.2712 -0.2911
  380MOL0     N51182   3.465   3.984  10.129  0.4859  0.6425 -0.3057
  380MOL0     C51183   3.485   4.073  10.232  0.8244 -0.1273  0.1951
  380MOL0     C51184   3.622   4.071  10.252 -0.6598  0.4219 -0.6761
  380MOL0     C51185   3.700   4.112  10.370 -0.8112 -0.6015 -0.3359
  380MOL0     C51186   3.635   4.206  10.470  0.3807 -0.2941 -0.9081
  380MOL0     C51187   3.526   4.136  10.550  0.3457 -1.6630 -0.2474
  380MOL0     C51188   3.445   4.232  10.639  0.4184  0.6710  0.1239
  380MOL0     O51189   3.531   4.286  10.739 -1.2516  0.4159  0.2822
  380MOL0     C51190   3.483   4.347  10.853  0.0121 -0.3837 -0.1367
  380MOL0     C51191   3.563   4.440  10.916  0.2599  0.1498  0.0701
  380MOL0     C51192   3.516   4.508  11.022 -0.4234 -0.4289  0.2441
  380MOL0     C51193   3.382   4.511  11.063 -0.2711  0.1326  0.4818
  380MOL0     C51194   3.336   4.606  11.171  0.0895 -0.5355 -0.3022
  380MOL0     O51195   3.200   4.627  11.183 -0.8544  0.6488 -0.6341
  380MOL0     C51196   3.153   4.689  11.296 -0.6045 -0.3529  1.4120
  380MOL0     C51197   3.061   4.615  11.365  0.4378 -0.3290  0.0496
  380MOL0     C51198   2.992   4.673  11.472 -0.3612  0.6641  1.2733
  380MOL0     C51199   3.028   4.796  11.515  0.3799  1.0063 -0.1396
  380MOL0     O51200   2.962   4.845  11.625  0.2034 -0.6012 -0.0399
  380MOL0     C51201   3.043   4.886  11.739 -0.4579 -0.1654 -0.6589
  380MOL0     C51202   2.979   5.016  11.783  0.7841 -0.2887 -0.2876
  380MOL0     C51203   3.071   5.108  11.872  0.1506 -0.6018  0.7287
  380MOL0     C51204   2.983   5.199  11.955 -0.2547  0.4253  0.2283
  380MOL0     C51205   3.055   5.274  12.063 -0.8130  0.4372  0.2749
  380MOL0     C51206   3.081   5.183  12.181 -0.2456  0.1610 -1.1456
  380MOL0     C51207   3.112   5.267  12.303  0.0513  0.4407 -0.0591
  380MOL0     C51208   3.113   5.201  12.443 -0.7033 -0.1430  0.7542
  380MOL0    Cl51209   3.254   5.102  12.455 -0.1475  0.4955  0.8493
  380MOL0     C51210   3.118   4.871  11.441  0.5925 -0.1814 -0.5597
  380MOL0     C51211   3.181   4.818  11.331 -0.5944  0.2875  0.0340
  380MOL0     O51212   3.420   4.649  11.243 -0.7461  0.3670 -0.3496
  380MOL0     C51213   3.297   4.417  10.999  0.7004  0.1649 -0.2615
  380MOL0     C51214   3.346   4.337  10.898  0.1589  1.2635  0.0535
  380MOL0     N51215   3.679   3.983  10.148 -0.7812 -0.4301  0.4739
  380MOL0     N51216   3.584   3.955  10.073  0.1327  0.1488 -0.2255
  380MOL0     C51217   3.600   3.520  10.167 -0.0251 -0.0224 -0.7341
  380MOL0     C51218   3.595   3.579  10.296 -0.1601  0.3609 -0.5023
  380MOL0     C51219   3.404   3.710  10.672  0.5241  1.1616 -0.2059
  380MOL0     C51220   3.283   3.715  10.746 -0.2307 -0.1491 -0.5619
  380MOL0     C51221   3.274   3.789  10.869 -0.6202  0.0694  0.2003
  380MOL0     C51222   3.388   3.861  10.909  0.6030 -0.7605 -0.8107
  380MOL0     O51223   3.381   3.924  11.032 -1.0014 -0.2052 -0.3596
  380MOL0     C51224   3.475   3.900  11.140  0.5582 -0.2289  0.7558
  380MOL0     C51225   3.609   3.976  11.139  0.0532  0.0006 -0.6586
  380MOL0     C51226   3.588   4.121  11.184 -0.5331 -0.2711  0.1522
  380MOL0     C51227   3.703   4.216  11.151 -0.7486 -0.8080 -0.0543
  380MOL0     C51228   3.693   4.347  11.220  0.1293 -0.2883  0.5068
  380MOL0     C51229   3.692   4.448  11.293  0.4180  0.0659 -0.1137
  380MOL0     C51230   3.503   3.871  10.827 -0.0166  0.0090  0.2147
  380MOL0     C51231   3.511   3.799  10.708 -0.5050 -0.0581  1.4005
  380MOL0     C51232   3.642   3.810  10.632  0.6654  1.0590 -0.1297
  380MOL0     H51233   3.447   3.328  10.470 -0.8203 -1.3507 -0.6446
  380MOL0     H51234   3.444   3.234  10.219  0.4350  0.8285 -1.5369
  380MOL0     H51235   3.490   3.505   9.910  1.7959 -0.4653  1.0977
  380MOL0     H51236   3.477   3.352   9.827  0.9825  0.7173 -0.3084
  380MOL0     H51237   3.288   3.299  10.011  6.8187 -3.3624 -1.9833
  380MOL0     H51238   3.258   3.360   9.857  0.6820 -0.9231 -1.1635
  380MOL0     H51239   3.321   3.540  10.101  0.4422  1.9663 -1.1997
  380MOL0     H51240   3.160   3.483  10.058  0.6216 -0.6804  0.5389
  380MOL0     H51241   3.332   3.685   9.916  2.2480 -1.8696  0.9208
  380MOL0     H51242   3.209   3.600   9.827  3.2032 -0.3718 -1.0712
  380MOL0     H51243   3.126   3.824   9.918 -0.8115 -0.1043  0.3234
  380MOL0     H51244   3.028   3.687   9.982 -1.5467  2.4901 -1.4484
  380MOL0     H51245   3.080   3.881  10.137  1.0862  0.9632  0.9721
  380MOL0     H51246   3.103   3.715  10.191 -1.7634  0.5127 -1.3083
  380MOL0     H51247   3.353   3.740  10.170  2.2945  1.1896  2.9967
  380MOL0     H51248   3.273   3.862  10.267 -1.5536  2.1069 -0.7283
  380MOL0     H51249   3.349   3.917   9.965 -1.0461 -1.1762 -0.1693
  380MOL0     H51250   3.265   4.023  10.071  1.6164  1.6860 -4.5604
  380MOL0     H51251   3.402   4.120  10.283  1.7096 -0.1708  1.7158
  380MOL0     H51252   3.737   4.018  10.414  1.7062  0.4404 -0.0658
  380MOL0     H51253   3.788   4.170  10.341 -0.3157  0.7240  3.3104
  380MOL0     H51254   3.719   4.232  10.535  1.9727 -1.2556 -2.4779
  380MOL0     H51255   3.600   4.299  10.425  0.7186  0.3370  0.0855
  380MOL0     H51256   3.562   4.052  10.610 -0.0628 -1.8915 -0.3098
  380MOL0     H51257   3.451   4.092  10.482 -2.7428 -1.2358  2.6472
  380MOL0     H51258   3.368   4.175  10.692  0.0683 -0.7159 -1.7462
  380MOL0     H51259   3.388   4.305  10.582  0.7192  0.6258 -0.2400
  380MOL0     H51260   3.668   4.441  10.885 -0.0642  1.1511 -1.0613
  380MOL0     H51261   3.587   4.575  11.070  0.7833  0.0186 -2.0544
  380MOL0     H51262   3.040   4.522  11.314  3.0881 -0.2463 -1.3962
  380MOL0     H51263   2.907   4.627  11.521 -0.8423 -0.4764 -0.5391
  380MOL0     H51264   3.040   4.800  11.807  3.0397 -2.0980 -2.6299
  380MOL0     H51265   3.149   4.901  11.719 -0.6074  2.4482  0.1623
  380MOL0     H51266   2.947   5.075  11.697 -1.6671 -0.0031  0.7451
  380MOL0     H51267   2.891   4.980  11.837  1.6511 -0.9059  0.7728
  380MOL0     H51268   3.132   5.041  11.932 -1.7528 -1.1632  2.1403
  380MOL0     H51269   3.139   5.164  11.807 -0.3254 -0.5789  0.2451
  380MOL0     H51270   2.892   5.144  11.980 -1.1253  1.1022 -1.3092
  380MOL0     H51271   2.959   5.284  11.890  1.7117  1.2978  0.5597
  380MOL0     H51272   2.980   5.347  12.097 -0.4615  1.3031 -0.7261
  380MOL0     H51273   3.144   5.328  12.030 -1.6535  2.3539  0.9491
  380MOL0     H51274   2.992   5.130  12.214  0.6343 -0.6026  0.0933
  380MOL0     H51275   3.158   5.106  12.173 -1.1912 -1.4535  2.9800
  380MOL0     H51276   3.047   5.355  12.299 -0.3489  0.1138 -0.9483
  380MOL0     H51277   3.214   5.301  12.281  0.4240 -1.8065 -2.1855
  380MOL0     H51278   3.121   5.266  12.531  2.8015 -1.5477  1.6460
  380MOL0     H51279   3.034   5.125  12.445 -1.5687  0.7464  0.9474
  380MOL0     H51280   3.133   4.974  11.472 -0.4653 -0.9966  3.1636
  380MOL0     H51281   3.231   4.878  11.256  1.6171 -1.0289  0.3920
  380MOL0     H51282   3.192   4.413  11.028  1.5990 -2.0549  3.3469
  380MOL0     H51283   3.263   4.292  10.846  0.3953 -0.5888  1.2063
  380MOL0     H51284   3.640   3.580  10.087  2.9046  0.7471  1.1394
  380MOL0     H51285   3.641   3.677  10.300  1.7661 -0.4388 -1.5184
  380MOL0     H51286   3.200   3.660  10.704 -0.0469  0.0698 -1.2271
  380MOL0     H51287   3.185   3.801  10.930  0.0768  1.5229  0.9749
  380MOL0     H51288   3.482   3.791  11.136 -2.2957 -0.5190 -4.1918
  380MOL0     H51289   3.419   3.929  11.230 -3.7291  1.3323 -2.0936
  380MOL0     H51290   3.632   3.981  11.033 -0.0509  0.9216 -0.6462
  380MOL0     H51291   3.676   3.920  11.205  0.2899  0.5302 -0.4352
  380MOL0     H51292   3.566   4.136  11.290  1.3134  2.9660  0.2256
  380MOL0     H51293   3.514   4.165  11.117 -0.3813  0.9608  0.7644
  380MOL0     H51294   3.793   4.160  11.177 -1.3031 -2.4240 -1.4196
  380MOL0     H51295   3.692   4.247  11.046 -1.4273  0.9178  0.4975
  380MOL0     H51296   3.681   4.526  11.365 -1.2637 -0.5939  0.4016
  380MOL0     H51297   3.569   3.956  10.842 -3.7505  3.4135 -0.7025
  380MOL0     H51298   3.619   3.815  10.526  0.1525 -0.3056 -0.1066
  380MOL0     H51299   3.710   3.874  10.689  0.4478  2.1046 -1.0188
  380MOL0     H51300   3.695   3.715  10.644 -1.0235  0.0666 -0.1157
  381MOL0     O51301   8.103   8.510  10.257  0.1946 -0.0184 -0.3436
  381MOL0     C51302   8.119   8.536  10.376  0.2790 -0.2714  1.0748
  381MOL0     O51303   8.080   8.455  10.489 -0.0366  0.1570 -0.2816
  381MOL0     C51304   7.974   8.365  10.481 -0.2063  1.2370  0.2073
  381MOL0     C51305   7.909   8.327  10.364  0.4306 -0.5826  0.5511
  381MOL0     C51306   7.805   8.227  10.364  0.1764 -0.3271  0.4268
  381MOL0     C51307   7.771   8.168  10.489 -0.3463 -0.1525 -0.3469
  381MOL0     O51308   7.665   8.091  10.511 -0.4219  0.3050  0.3461
  381MOL0     C51309   7.598   8.041  10.399  1.0963 -0.8179  0.0159
  381MOL0     C51310   7.480   7.955  10.456  0.2893 -0.2014  0.4122
  381MOL0     C51311   7.462   7.812  10.400  0.1521  0.0746  0.0171
  381MOL0     C51312   7.335   7.736  10.444  0.1041  0.2526 -0.5319
  381MOL0     C51313   7.309   7.597  10.385  0.3276  0.1917  0.2045
  381MOL0     C51314   7.178   7.553  10.452 -0.0544  0.9066 -0.1847
  381MOL0     C51315   7.140   7.416  10.387 -0.2765  0.1807  0.4748
  381MOL0     C51316   7.213   7.307  10.460 -0.1192  0.3759 -0.2833
  381MOL0     N51317   7.179   7.184  10.392  0.3191  0.0982  0.8482
  381MOL0     C51318   7.254   7.087  10.312  0.4428 -0.7356 -1.1575
  381MOL0     C51319   7.203   6.965  10.341 -0.5346 -0.4384 -0.7457
  381MOL0     C51320   7.257   6.834  10.274 -0.5455 -0.9287 -0.3317
  381MOL0     C51321   7.146   6.778  10.173  0.0986 -0.5428 -0.6388
  381MOL0     C51322   7.201   6.659  10.094 -1.6921 -0.4593  0.1469
  381MOL0     C51323   7.118   6.636   9.966 -0.2133  0.5296  0.2948
  381MOL0     O51324   7.011   6.547   9.982  0.4628  0.2750 -0.1092
  381MOL0     C51325   6.964   6.498   9.862 -0.1421  0.6752  0.2197
  381MOL0     C51326   6.972   6.568   9.744  0.4663  0.3901  1.1611
  381MOL0     C51327   6.909   6.514   9.624 -0.2046 -0.6746  0.1940
  381MOL0     C51328   6.835   6.401   9.621  0.8561  0.1714  0.3024
  381MOL0     C51329   6.777   6.349   9.491  0.1595 -0.3347  0.0340
  381MOL0     O51330   6.742   6.216   9.484  0.0227  0.0799  0.4933
  381MOL0     C51331   6.722   6.153   9.367 -0.3505  0.0135  0.6629
  381MOL0     C51332   6.778   6.187   9.239 -0.4026 -0.2049 -0.4591
  381MOL0     C51333   6.768   6.109   9.134 -0.4345  0.8320  0.6850
  381MOL0     C51334   6.678   6.008   9.135 -0.3575 -0.2643  0.4107
  381MOL0     O51335   6.627   5.946   9.020 -0.0192  0.0846 -0.2532
  381MOL0     C51336   6.725   5.883   8.920  0.7108  0.1089 -0.9034
  381MOL0     C51337   6.660   5.739   8.904 -0.6402  0.3517 -0.0536
  381MOL0     C51338   6.705   5.651   8.785  0.1178 -0.6643  0.0230
  381MOL0     C51339   6.829   5.575   8.831  0.4223 -0.7003  0.1051
  381MOL0     C51340   6.881   5.470   8.727 -0.6355 -0.2350 -0.3284
  381MOL0     C51341   6.791   5.347   8.717  0.4725 -0.9151  1.0484
  381MOL0     C51342   6.845   5.243   8.616 -0.3765  0.0213 -1.4531
  381MOL0     C51343   6.758   5.241   8.488 -0.1379 -0.1237 -0.2400
  381MOL0    Cl51344   6.809   5.107   8.379  0.0583  0.5044 -0.4819
  381MOL0     C51345   6.620   5.973   9.256 -0.7580 -0.2242  0.1736
  381MOL0     C51346   6.647   6.039   9.369  0.0916 -0.0310 -0.6916
  381MOL0     O51347   6.795   6.429   9.398  0.1780 -0.0796 -0.0077
  381MOL0     C51348   6.824   6.334   9.741  0.0522 -0.1582  0.9740
  381MOL0     C51349   6.882   6.379   9.864 -1.1787 -1.0005  0.3749
  381MOL0     N51350   7.091   6.982  10.415  0.5861  0.4687 -0.7398
  381MOL0     N51351   7.076   7.109  10.442  0.2402  0.1249 -0.2889
  381MOL0     C51352   7.836   8.219  10.603 -0.5749  0.6041  0.7765
  381MOL0     C51353   7.947   8.307  10.601 -0.0773 -0.2138  0.3737
  381MOL0     C51354   8.199   8.668  10.393  0.3279  0.0294  0.4396
  381MOL0     C51355   8.179   8.772  10.305  0.1817 -0.2818 -0.8717
  381MOL0     C51356   8.232   8.901  10.335 -0.6807  0.1543  0.0471
  381MOL0     C51357   8.296   8.927  10.460 -0.0227 -0.3747 -0.5124
  381MOL0     O51358   8.332   9.062  10.484  0.0732  0.1389 -0.1119
  381MOL0     C51359   8.447   9.083  10.554 -0.6433 -0.4719 -0.3513
  381MOL0     C51360   8.564   9.081  10.451  0.0219 -0.1074  0.4505
  381MOL0     C51361   8.540   9.179  10.330  0.0791  0.3616  1.3745
  381MOL0     C51362   8.676   9.213  10.268 -0.1563  0.0690  0.5881
  381MOL0     C51363   8.657   9.301  10.151  0.1340  0.3691  0.7078
  381MOL0     C51364   8.623   9.345  10.045 -1.0480 -0.1487  1.2612
  381MOL0     C51365   8.334   8.819  10.542  0.3490 -0.3116  1.1117
  381MOL0     C51366   8.281   8.689  10.508 -0.3709  0.8667  0.0764
  381MOL0     C51367   8.316   8.574  10.604 -0.8664 -0.0444  0.3469
  381MOL0     H51368   7.920   8.369  10.265  0.1638  1.7370  1.4559
  381MOL0     H51369   7.742   8.209  10.277 -3.4137  2.2334  2.2595
  381MOL0     H51370   7.552   8.120  10.338  1.2768 -0.3682  0.4605
  381MOL0     H51371   7.659   7.977  10.334 -0.4327 -0.8150 -1.5147
  381MOL0     H51372   7.383   8.005  10.442  1.0292  1.1175 -0.1941
  381MOL0     H51373   7.479   7.958  10.566  1.7056  0.1343  0.4353
  381MOL0     H51374   7.552   7.752  10.418  0.2272  0.1126 -0.2275
  381MOL0     H51375   7.461   7.826  10.292  1.8821  2.8848  0.2588
  381MOL0     H51376   7.358   7.728  10.551  2.2829  6.3334 -0.1207
  381MOL0     H51377   7.245   7.797  10.434 -2.7454 -3.5904 -0.2290
  381MOL0     H51378   7.284   7.615  10.280  1.0135 -0.7240 -0.1406
  381MOL0     H51379   7.398   7.532  10.386  2.1043  2.5049  1.7176
  381MOL0     H51380   7.187   7.535  10.559 -1.5343  1.3966  0.0394
  381MOL0     H51381   7.090   7.618  10.444  0.9177  2.0690 -2.2166
  381MOL0     H51382   7.169   7.418  10.281  1.5303  0.4198  0.9385
  381MOL0     H51383   7.031   7.412  10.400 -0.2128  0.4088  1.1240
  381MOL0     H51384   7.322   7.312  10.454 -0.1984  0.8010 -2.1634
  381MOL0     H51385   7.189   7.298  10.566  2.4403 -1.4518  0.2250
  381MOL0     H51386   7.346   7.109  10.260 -0.2607  0.4756 -1.9188
  381MOL0     H51387   7.348   6.853  10.215 -0.7334  3.0549  0.3807
  381MOL0     H51388   7.275   6.761  10.353 -3.0385 -2.7135 -1.2682
  381MOL0     H51389   7.051   6.760  10.223  0.7725  3.1108  2.4210
  381MOL0     H51390   7.119   6.853  10.097 -1.7238 -1.9934 -1.5104
  381MOL0     H51391   7.215   6.573  10.160  1.1331 -0.2435 -0.0529
  381MOL0     H51392   7.302   6.686  10.060 -2.1510  0.0675 -0.8222
  381MOL0     H51393   7.196   6.592   9.903 -0.3789 -0.5358  0.8229
  381MOL0     H51394   7.088   6.736   9.933 -2.8596  0.3727  1.9404
  381MOL0     H51395   7.028   6.660   9.727  2.7878 -1.4420 -2.3108
  381MOL0     H51396   6.920   6.574   9.535 -2.8791 -2.0496 -1.1759
  381MOL0     H51397   6.852   6.263   9.217  3.1437 -4.0583 -3.8862
  381MOL0     H51398   6.809   6.123   9.035 -1.9822 -3.3435 -0.7642
  381MOL0     H51399   6.728   5.934   8.823 -0.1174  2.5110  0.2730
  381MOL0     H51400   6.823   5.878   8.968  0.3657  1.2161 -0.0462
  381MOL0     H51401   6.674   5.694   9.003  1.3641  3.5425  1.2658
  381MOL0     H51402   6.554   5.751   8.879 -1.0322  0.3478  1.4671
  381MOL0     H51403   6.622   5.585   8.757 -0.3131 -0.9081  1.7499
  381MOL0     H51404   6.726   5.714   8.698  1.0831 -1.2688 -0.1987
  381MOL0     H51405   6.798   5.522   8.921  2.2133 -0.5749  0.8323
  381MOL0     H51406   6.913   5.641   8.853  0.9466 -0.6292 -1.8881
  381MOL0     H51407   6.981   5.441   8.759  1.2268  6.6187  2.0153
  381MOL0     H51408   6.906   5.518   8.632 -0.3467 -3.0569 -1.7588
  381MOL0     H51409   6.792   5.302   8.816  0.2890 -2.1727  0.4944
  381MOL0     H51410   6.691   5.378   8.683  0.4299 -4.0004 -2.2804
  381MOL0     H51411   6.842   5.147   8.668 -2.0546  1.8090  2.1324
  381MOL0     H51412   6.942   5.279   8.580 -0.4261  1.8134  0.0635
  381MOL0     H51413   6.654   5.234   8.520  0.6666  2.1764  3.5868
  381MOL0     H51414   6.777   5.332   8.430  0.0318  1.4030  2.0746
  381MOL0     H51415   6.564   5.881   9.265  0.0489 -1.0801 -2.6740
  381MOL0     H51416   6.621   6.000   9.467  1.7276 -3.0130 -1.3496
  381MOL0     H51417   6.767   6.242   9.750 -0.3242  0.1516  1.8453
  381MOL0     H51418   6.890   6.317   9.953 -0.2088  2.1213  2.6154
  381MOL0     H51419   7.807   8.187  10.703 -0.3743 -0.1780  0.5936
  381MOL0     H51420   8.007   8.335  10.687  1.8157 -1.5547 -0.4496
  381MOL0     H51421   8.122   8.757  10.214 -1.3045 -1.0000  0.1547
  381MOL0     H51422   8.226   8.985  10.267  1.4368  2.4173  2.4220
  381MOL0     H51423   8.460   9.010  10.634  2.1177 -0.8551 -1.0535
  381MOL0     H51424   8.461   9.176  10.609  3.1714 -2.0941  1.7865
  381MOL0     H51425   8.577   8.980  10.412 -0.5853 -0.2109  0.5051
  381MOL0     H51426   8.652   9.104  10.512  0.6261 -1.5907  0.1775
  381MOL0     H51427   8.495   9.271  10.367 -0.2869  0.7702 -0.0183
  381MOL0     H51428   8.467   9.150  10.254  1.0119  0.6454  0.3517
  381MOL0     H51429   8.738   9.263  10.342 -0.3520 -0.7143  1.2883
  381MOL0     H51430   8.717   9.122  10.222 -3.7047 -1.2578 -0.2932
  381MOL0     H51431   8.590   9.386   9.951  0.0442  1.7642  1.6624
  381MOL0     H51432   8.399   8.824  10.629  0.9258 -3.0955  0.9392
  381MOL0     H51433   8.335   8.482  10.549  2.2947  0.3866  0.5423
  381MOL0     H51434   8.409   8.584  10.662 -1.9184  2.8278  1.7592
  381MOL0     H51435   8.229   8.544  10.663 -2.0388 -1.5464 -2.0090
  382MOL0     O51436   6.057   0.091   4.721  0.0223  0.5338 -1.1247
  382MOL0     C51437   5.978   0.184   4.722  0.0029 -1.3496 -0.6683
  382MOL0     O51438   6.027   0.319   4.727  1.0408 -0.2020 -0.2246
  382MOL0     C51439   6.163   0.339   4.721 -0.3560 -0.7758 -0.1012
  382MOL0     C51440   6.211   0.392   4.598  0.1558  1.2019  0.0225
  382MOL0     C51441   6.351   0.421   4.578  0.3376  0.6072  0.6293
  382MOL0     C51442   6.439   0.403   4.688 -0.2416 -0.0579 -0.3978
  382MOL0     O51443   6.571   0.425   4.671 -0.2976 -0.7795  0.0475
  382MOL0     C51444   6.602   0.571   4.671 -1.0937 -0.5248 -0.2080
  382MOL0     C51445   6.738   0.595   4.605 -0.0308 -0.3389 -0.0278
  382MOL0     C51446   6.738   0.547   4.462 -0.3453  0.3585  0.0919
  382MOL0     C51447   6.781   0.400   4.440  0.1444  0.0949  0.7113
  382MOL0     C51448   6.754   0.353   4.295 -0.0643 -0.3971 -1.6866
  382MOL0     C51449   6.759   0.199   4.284 -0.4530 -0.1039  0.4018
  382MOL0     C51450   6.743   0.141   4.146 -0.1272 -1.0288 -0.5865
  382MOL0     C51451   6.865   0.181   4.060  0.2192 -0.8902 -0.6567
  382MOL0     N51452   6.862   0.106   3.935 -0.3017 -0.0184 -0.0304
  382MOL0     C51453   6.835   0.157   3.810 -0.5569 -0.0914 -0.0081
  382MOL0     C51454   6.817   0.043   3.728  0.1748 -0.4652 -0.0684
  382MOL0     C51455   6.767   0.053   3.584  0.6278  0.3459  0.6335
  382MOL0     C51456   6.646   0.142   3.577  0.5334  0.2943  0.0871
  382MOL0     C51457   6.524   0.067   3.625 -0.3142  0.5966 -0.3011
  382MOL0     C51458   6.434   0.153   3.709 -0.5492 -0.9731  0.6538
  382MOL0     O51459   6.376   0.240   3.607 -1.1103 -0.0920 -0.3297
  382MOL0     C51460   6.281   0.328   3.654  0.2705  0.4895  0.6427
  382MOL0     C51461   6.217   0.333   3.781 -0.7527 -0.2051 -0.1733
  382MOL0     C51462   6.114   0.418   3.806 -0.0289 -0.6744  0.2185
  382MOL0     C51463   6.056   0.495   3.699  0.9010  0.5334 -0.4933
  382MOL0     C51464   5.938   0.574   3.720  0.0162  1.2389 -1.3689
  382MOL0     O51465   5.889   0.557   3.840 -0.2752  0.1457  0.0445
  382MOL0     C51466   5.761   0.583   3.875  0.4594 -0.2181 -0.8218
  382MOL0     C51467   5.731   0.614   4.011 -0.8864  0.7653  0.5810
  382MOL0     C51468   5.613   0.668   4.055  0.2609  0.6021 -0.9081
  382MOL0     C51469   5.504   0.680   3.966  0.7182 -0.0094 -0.1317
  382MOL0     O51470   5.380   0.729   4.007  0.9785  0.0091 -0.2760
  382MOL0     C51471   5.369   0.834   4.103 -0.0055  0.0107  0.3472
  382MOL0     C51472   5.277   0.800   4.222  0.6268  0.3728 -0.9094
  382MOL0     C51473   5.235   0.924   4.299 -0.0824  0.9094  0.1052
  382MOL0     C51474   5.158   0.905   4.429  0.8065  0.5314  1.0230
  382MOL0     C51475   5.068   1.029   4.473  0.0459  0.2885 -0.5438
  382MOL0     C51476   5.010   1.016   4.618 -0.3423 -0.6456  0.3909
  382MOL0     C51477   4.899   0.913   4.628 -0.0029  0.0542  0.3762
  382MOL0     C51478   4.850   0.923   4.773  0.1334  0.6596 -0.0898
  382MOL0    Cl51479   4.709   0.814   4.808  0.2224  0.3033 -0.1012
  382MOL0     C51480   5.522   0.650   3.825  0.1096 -0.6448 -1.0445
  382MOL0     C51481   5.648   0.598   3.790 -0.0783  0.3620  0.4743
  382MOL0     O51482   5.898   0.653   3.636  0.8538  0.5916  0.0994
  382MOL0     C51483   6.118   0.484   3.573 -0.1201  0.4048 -0.6828
  382MOL0     C51484   6.218   0.398   3.547 -0.5483  0.4992  0.7624
  382MOL0     N51485   6.855  -0.068   3.799  0.5715 -0.3443 -0.2317
  382MOL0     N51486   6.881  -0.030   3.917  0.1141  0.5584 -1.5875
  382MOL0     C51487   6.388   0.357   4.816  0.2407  0.5046  0.8504
  382MOL0     C51488   6.253   0.318   4.826  0.3560 -0.3219 -0.0260
  382MOL0     C51489   5.833   0.168   4.747 -0.0319  0.3948  0.1396
  382MOL0     C51490   5.743   0.223   4.661 -1.4375  0.4367 -0.2559
  382MOL0     C51491   5.608   0.193   4.672 -0.0890 -0.4014  0.2826
  382MOL0     C51492   5.552   0.120   4.780  0.3798 -0.2537 -1.3283
  382MOL0     O51493   5.414   0.119   4.807 -0.9848 -0.2411  0.4362
  382MOL0     C51494   5.350   0.008   4.863  0.4041  0.7966 -1.2748
  382MOL0     C51495   5.229   0.035   4.957  0.0878 -0.8667 -0.1899
  382MOL0     C51496   5.116   0.137   4.913 -0.0186  0.0193  0.6099
  382MOL0     C51497   5.073   0.225   5.039  1.6438 -0.3107 -0.0766
  382MOL0     C51498   5.020   0.147   5.157  0.9358 -0.8697  0.4620
  382MOL0     C51499   4.971   0.099   5.253 -0.6247 -0.4996  0.4985
  382MOL0     C51500   5.647   0.065   4.868 -0.2729  0.5453  0.0983
  382MOL0     C51501   5.783   0.088   4.844 -0.3940  0.0676 -0.0844
  382MOL0     C51502   5.874   0.033   4.947 -0.2655 -0.3235  0.4201
  382MOL0     H51503   6.136   0.408   4.521  1.7482 -0.6376 -2.0304
  382MOL0     H51504   6.385   0.446   4.477  0.5024  0.2271  0.5915
  382MOL0     H51505   6.519   0.621   4.621 -1.4834  3.0900  3.4471
  382MOL0     H51506   6.614   0.611   4.772 -0.5006  1.8532 -1.1604
  382MOL0     H51507   6.825   0.555   4.657  2.5836  4.0608 -0.4964
  382MOL0     H51508   6.761   0.702   4.605 -1.4364  0.0658  3.0556
  382MOL0     H51509   6.807   0.610   4.405  0.3054 -0.3884  0.0470
  382MOL0     H51510   6.638   0.554   4.418  0.2073 -1.4495 -1.5670
  382MOL0     H51511   6.886   0.384   4.467  0.5459  0.4998 -0.5273
  382MOL0     H51512   6.710   0.341   4.500  1.6488 -3.1942 -0.4817
  382MOL0     H51513   6.647   0.368   4.280 -0.5524 -0.4443  1.2652
  382MOL0     H51514   6.813   0.414   4.227 -0.8009 -2.1225 -3.9986
  382MOL0     H51515   6.858   0.163   4.311 -1.0222 -3.6808 -1.6066
  382MOL0     H51516   6.686   0.157   4.354  2.8125 -2.3549  2.7508
  382MOL0     H51517   6.645   0.167   4.105 -0.7739 -1.0008  0.8810
  382MOL0     H51518   6.752   0.032   4.149  3.7670 -0.9622 -3.5602
  382MOL0     H51519   6.872   0.288   4.037  1.3291 -0.3797  1.7241
  382MOL0     H51520   6.960   0.156   4.108 -0.0395 -1.7343 -0.5698
  382MOL0     H51521   6.832   0.264   3.788 -3.6155  0.4498  2.3490
  382MOL0     H51522   6.847   0.095   3.522 -0.0454 -1.0409 -1.2723
  382MOL0     H51523   6.753  -0.041   3.528  0.2558  1.2714 -0.8810
  382MOL0     H51524   6.664   0.237   3.628 -1.3324  0.9918 -0.4705
  382MOL0     H51525   6.624   0.178   3.476  0.8670 -0.9132 -0.4293
  382MOL0     H51526   6.574  -0.005   3.691  1.2280  1.3021 -0.6566
  382MOL0     H51527   6.463   0.020   3.547 -4.3166 -0.2926  2.9883
  382MOL0     H51528   6.491   0.222   3.773 -1.0654  1.6506 -1.5203
  382MOL0     H51529   6.358   0.108   3.773  1.2508  0.7540  4.3445
  382MOL0     H51530   6.246   0.262   3.858  2.1400 -0.4269 -1.3665
  382MOL0     H51531   6.067   0.408   3.903 -0.6417 -1.1057 -0.1205
  382MOL0     H51532   5.824   0.608   4.066 -1.0490 -0.9055  0.7232
  382MOL0     H51533   5.618   0.706   4.156  1.5937  0.0686 -0.7473
  382MOL0     H51534   5.467   0.872   4.134  0.6749 -0.2760 -1.3222
  382MOL0     H51535   5.325   0.911   4.038  0.1350 -0.4841 -0.3390
  382MOL0     H51536   5.191   0.742   4.187  0.7619 -0.4066  0.0296
  382MOL0     H51537   5.341   0.735   4.282  1.4314  2.5790  0.7467
  382MOL0     H51538   5.317   0.993   4.321  3.3458 -2.7205 -0.1572
  382MOL0     H51539   5.172   0.971   4.223  1.7439 -1.2393 -2.9394
  382MOL0     H51540   5.220   0.885   4.516  1.1974 -1.3221  0.3634
  382MOL0     H51541   5.096   0.815   4.417  0.7735  0.4104  2.0159
  382MOL0     H51542   4.989   1.038   4.398  1.4380  0.5743 -2.0287
  382MOL0     H51543   5.127   1.121   4.485  0.4071 -0.2855  4.4532
  382MOL0     H51544   5.098   1.013   4.682 -1.1267 -1.2884  1.4610
  382MOL0     H51545   4.975   1.118   4.639  1.6535  1.5014 -4.8776
  382MOL0     H51546   4.931   0.809   4.615  0.0120  0.0525  0.4249
  382MOL0     H51547   4.806   0.938   4.578  0.6766  2.4516  0.2184
  382MOL0     H51548   4.934   0.888   4.835 -1.2789  0.6462  1.8934
  382MOL0     H51549   4.824   1.021   4.814 -1.4151 -0.2114  1.1095
  382MOL0     H51550   5.438   0.644   3.756 -1.1685 -0.8968  0.4774
  382MOL0     H51551   5.661   0.568   3.687  0.9082  0.3843  0.5846
  382MOL0     H51552   6.073   0.528   3.484  1.0585 -0.0155 -1.5161
  382MOL0     H51553   6.245   0.405   3.442 -2.1808  5.5027  0.4094
  382MOL0     H51554   6.453   0.332   4.899  2.8524 -0.9625 -1.4773
  382MOL0     H51555   6.224   0.280   4.924  0.2328 -2.1773 -0.7465
  382MOL0     H51556   5.789   0.283   4.583  1.2800  2.3927  2.5785
  382MOL0     H51557   5.539   0.234   4.598  0.9813 -0.9722 -1.0825
  382MOL0     H51558   5.418  -0.043   4.932 -0.2465  0.7793 -0.6335
  382MOL0     H51559   5.320  -0.065   4.788  1.5030  0.4437 -1.3877
  382MOL0     H51560   5.274   0.066   5.052 -1.9470  3.5902 -0.4403
  382MOL0     H51561   5.187  -0.064   4.973  0.3377 -1.2661 -1.7798
  382MOL0     H51562   5.026   0.090   4.871 -0.7308  1.4730  0.4055
  382MOL0     H51563   5.143   0.200   4.827  1.9829 -0.8071  0.5972
  382MOL0     H51564   5.151   0.290   5.079 -0.1417  1.2394  1.0564
  382MOL0     H51565   4.998   0.295   5.000 -0.2421 -1.4818  1.2542
  382MOL0     H51566   4.956   0.065   5.353 -0.1647  0.9104  1.0712
  382MOL0     H51567   5.618   0.007   4.956 -1.8010  0.4515 -0.4424
  382MOL0     H51568   5.931   0.109   5.001  0.1739 -0.8054  0.6381
  382MOL0     H51569   5.827  -0.010   5.037  1.1571  3.4549  3.2549
  382MOL0     H51570   5.941  -0.036   4.896  1.6427  2.9132 -1.8177
  383MOL0     O51571   6.061  10.296   0.689  0.2590  0.4710 -0.1731
  383MOL0     C51572   6.025  10.209   0.612  0.0483  0.2869 -0.3462
  383MOL0     O51573   5.937  10.116   0.641  0.8199  0.8386 -0.0321
  383MOL0     C51574   5.850  10.144   0.742  0.4804  0.7162 -1.2282
  383MOL0     C51575   5.741  10.222   0.733 -0.7639 -0.2366 -0.8913
  383MOL0     C51576   5.664  10.263   0.845  0.7161  0.2172  0.7956
  383MOL0     C51577   5.695  10.200   0.970 -0.8252 -0.0660  0.0902
  383MOL0     O51578   5.616  10.237   1.077 -0.1032 -0.1013  0.0586
  383MOL0     C51579   5.476  10.204   1.066  0.3126  0.2179 -0.1749
  383MOL0     C51580   5.397  10.226   1.194  0.6077  0.6102 -0.0325
  383MOL0     C51581   5.464  10.171   1.311  0.0084  1.0544  0.3064
  383MOL0     C51582   5.428  10.243   1.438 -0.9184  0.0529 -0.2426
  383MOL0     C51583   5.497  10.166   1.556  0.1714 -0.2124 -0.1450
  383MOL0     C51584   5.445  10.165   1.691 -0.4420 -0.5169  0.0765
  383MOL0     C51585   5.431  10.299   1.764  0.4323 -1.0505  0.6070
  383MOL0     C51586   5.309  10.388   1.715 -0.0243 -0.5210 -1.3274
  383MOL0     N51587   5.174  10.338   1.759 -0.1126  1.1884  0.3234
  383MOL0     C51588   5.119  10.352   1.885  0.1577  0.0020 -0.7682
  383MOL0     C51589   5.025  10.255   1.896  0.6813 -0.3107  0.4789
  383MOL0     C51590   4.936  10.237   2.008 -1.3427 -0.0181  0.9306
  383MOL0     C51591   4.847  10.113   2.010 -0.6445  0.6396 -0.6980
  383MOL0     C51592   4.738  10.124   2.111 -0.1636 -0.4682 -0.3464
  383MOL0     C51593   4.653  10.003   2.130  0.9867  1.1013 -0.0083
  383MOL0     O51594   4.646   9.980   2.266 -0.2911  0.0969 -0.7300
  383MOL0     C51595   4.554  10.050   2.347  0.5582 -0.2876 -0.2293
  383MOL0     C51596   4.553  10.016   2.475  0.6435 -0.7328  0.7547
  383MOL0     C51597   4.460  10.081   2.563  0.0203 -0.1193  0.4441
  383MOL0     C51598   4.385  10.195   2.525 -0.3023  0.7520 -0.9897
  383MOL0     C51599   4.280  10.250   2.611 -0.4329 -0.0431  0.5875
  383MOL0     O51600   4.170  10.287   2.548 -0.7918 -0.0988 -0.1133
  383MOL0     C51601   4.055  10.316   2.616  0.3838  0.0951 -0.5865
  383MOL0     C51602   4.037  10.437   2.692 -0.5378  0.6465  0.3619
  383MOL0     C51603   3.913  10.464   2.744 -0.9660  0.2120  0.0672
  383MOL0     C51604   3.808  10.371   2.746  0.2941  1.4588 -0.1976
  383MOL0     O51605   3.698  10.411   2.817  0.0266  0.5614  0.0211
  383MOL0     C51606   3.599  10.321   2.855 -0.3621 -0.1697 -1.1755
  383MOL0     C51607   3.535  10.396   2.970  0.3966  0.0913  0.1510
  383MOL0     C51608   3.467  10.534   2.930 -0.7120 -0.3843 -0.9753
  383MOL0     C51609   3.406  10.537   2.790 -0.0543 -0.0541  0.2861
  383MOL0     C51610   3.326  10.672   2.769  0.5273 -0.4912 -0.2786
  383MOL0     C51611   3.197  10.672   2.857  0.8868  0.4764  0.4429
  383MOL0     C51612   3.110  10.799   2.821 -0.6401 -0.2422 -0.0181
  383MOL0     C51613   3.176  10.936   2.835 -1.0582 -0.1786 -0.0418
  383MOL0    Cl51614   3.206  10.960   3.011 -0.1475  0.1302  0.1819
  383MOL0     C51615   3.831  10.243   2.686  0.7136  0.7684 -0.2710
  383MOL0     C51616   3.955  10.224   2.617  0.1517  0.1898 -0.6615
  383MOL0     O51617   4.298  10.260   2.734 -0.0725 -0.3559  0.8093
  383MOL0     C51618   4.388  10.234   2.395  0.5362  0.9558 -0.0979
  383MOL0     C51619   4.467  10.158   2.307  0.1593 -0.8910 -0.7584
  383MOL0     N51620   5.011  10.184   1.780  0.0489 -1.0766  0.6306
  383MOL0     N51621   5.103  10.231   1.698  0.2898 -1.4214 -0.5124
  383MOL0     C51622   5.807  10.113   0.979  0.4319  0.2623 -0.0012
  383MOL0     C51623   5.883  10.090   0.866  0.1011 -0.1007  0.5421
  383MOL0     C51624   6.086  10.194   0.485 -0.0410  0.2121  0.8301
  383MOL0     C51625   6.103  10.065   0.435  1.1859  0.2654 -0.9207
  383MOL0     C51626   6.184  10.035   0.327 -0.4022  0.1073  0.1756
  383MOL0     C51627   6.247  10.139   0.260 -0.0436  0.2499 -0.9830
  383MOL0     O51628   6.318  10.105   0.151 -0.8672 -0.8741 -0.0344
  383MOL0     C51629   6.263  10.016   0.052 -0.3411 -0.1710 -0.1456
  383MOL0     C51630   6.327  10.055  -0.080  0.9896 -0.0570 -0.5418
  383MOL0     C51631   6.321   9.927  -0.170  1.1528 -0.3112  0.2831
  383MOL0     C51632   6.389   9.929  -0.309  0.5659 -0.4027 -0.6975
  383MOL0     C51633   6.318  10.013  -0.407 -0.1761 -0.0815  0.4462
  383MOL0     C51634   6.259  10.101  -0.470 -0.8430 -0.1488  0.8811
  383MOL0     C51635   6.230  10.271   0.303  0.2448 -0.0901  0.2064
  383MOL0     C51636   6.141  10.304   0.411  0.3547  0.2763  0.7800
  383MOL0     C51637   6.137  10.445   0.457 -0.8771 -0.2429 -0.4987
  383MOL0     H51638   5.713  10.262   0.636  0.9863  0.6901 -1.0593
  383MOL0     H51639   5.580  10.332   0.844  1.3224  0.9612 -0.9055
  383MOL0     H51640   5.423  10.267   0.994 -1.0293  1.3548  1.6817
  383MOL0     H51641   5.458  10.100   1.039  1.1701  0.8221 -3.4507
  383MOL0     H51642   5.293  10.190   1.195  0.6720  0.4401  0.5115
  383MOL0     H51643   5.396  10.334   1.207 -1.1455  0.5413  0.7841
  383MOL0     H51644   5.571  10.162   1.294 -0.3524 -1.2844 -1.1892
  383MOL0     H51645   5.419  10.072   1.306  0.4107  0.9168 -1.4690
  383MOL0     H51646   5.469  10.345   1.441 -1.0183  0.0969 -0.3438
  383MOL0     H51647   5.320  10.240   1.453 -0.5787 -0.4195  2.7744
  383MOL0     H51648   5.501  10.059   1.535  1.9556 -0.5054  1.4559
  383MOL0     H51649   5.602  10.195   1.560  0.9204 -2.0963 -3.1171
  383MOL0     H51650   5.350  10.111   1.699  0.3299 -2.5371 -2.8894
  383MOL0     H51651   5.517  10.104   1.745 -0.8687 -0.6427  0.5079
  383MOL0     H51652   5.519  10.364   1.758 -0.6711  0.6563  1.9362
  383MOL0     H51653   5.420  10.283   1.872  0.7751  0.0230  0.8189
  383MOL0     H51654   5.324  10.486   1.761  2.0455 -1.3326 -0.1060
  383MOL0     H51655   5.326  10.415   1.610 -2.1564  4.6673 -0.6352
  383MOL0     H51656   5.156  10.423   1.959  1.3083 -0.0759 -1.2416
  383MOL0     H51657   5.002  10.215   2.093 -1.6461 -0.1728  1.1232
  383MOL0     H51658   4.873  10.327   2.011  0.8789  1.7836 -1.4589
  383MOL0     H51659   4.806  10.104   1.908 -3.1580  2.0125  0.1028
  383MOL0     H51660   4.898  10.020   2.039 -0.2491  1.9560  3.4790
  383MOL0     H51661   4.672  10.202   2.072 -1.8007 -1.2199  0.8061
  383MOL0     H51662   4.775  10.166   2.205  1.3684 -3.6979  0.6491
  383MOL0     H51663   4.695   9.923   2.069 -3.2770 -0.5452 -1.1489
  383MOL0     H51664   4.552  10.014   2.089  1.0884  0.5169 -0.4248
  383MOL0     H51665   4.613   9.933   2.511  1.1668 -0.2190  1.0848
  383MOL0     H51666   4.459  10.037   2.663  2.0494 -0.5582  0.3189
  383MOL0     H51667   4.126  10.495   2.711 -0.7055  0.0131  3.9457
  383MOL0     H51668   3.884  10.558   2.791 -1.8112 -0.3760  0.7689
  383MOL0     H51669   3.534  10.301   2.769  1.0049  0.3288 -2.3574
  383MOL0     H51670   3.643  10.232   2.902  1.1953  1.9753  1.7419
  383MOL0     H51671   3.452  10.329   2.993 -0.8234  0.6734 -2.2392
  383MOL0     H51672   3.610  10.412   3.048 -0.6077  0.8601  0.9910
  383MOL0     H51673   3.392  10.557   3.006 -0.6960  0.8816 -1.3128
  383MOL0     H51674   3.551  10.605   2.927 -0.1308 -0.9435  0.9206
  383MOL0     H51675   3.334  10.457   2.773  0.8987 -0.6451 -1.1392
  383MOL0     H51676   3.486  10.530   2.716  0.0431 -4.1303  0.5620
  383MOL0     H51677   3.280  10.666   2.670 -2.1594  0.8354  0.7838
  383MOL0     H51678   3.385  10.764   2.779 -1.1457  0.8303 -1.7498
  383MOL0     H51679   3.128  10.589   2.841 -0.1117  1.5832 -1.2194
  383MOL0     H51680   3.236  10.662   2.959  0.8043 -2.1725  0.2793
  383MOL0     H51681   3.012  10.797   2.868 -0.1414 -0.4708  1.0284
  383MOL0     H51682   3.086  10.796   2.714  1.1066  0.6903 -0.4876
  383MOL0     H51683   3.276  10.937   2.791  1.0521 -0.6889  4.1653
  383MOL0     H51684   3.105  11.015   2.807 -1.5778  0.7101  3.3501
  383MOL0     H51685   3.750  10.172   2.696  3.0324 -1.9144  0.7738
  383MOL0     H51686   3.975  10.130   2.565  0.5157 -0.6951  0.9927
  383MOL0     H51687   4.341  10.321   2.350  2.1705  2.2020  0.4980
  383MOL0     H51688   4.462  10.195   2.204  0.5313  1.8246  0.1079
  383MOL0     H51689   5.826  10.055   1.068 -2.4461 -0.4681  0.2405
  383MOL0     H51690   5.966  10.021   0.875 -1.4030 -1.7312  2.9486
  383MOL0     H51691   6.065   9.979   0.488  0.9716 -1.3899 -3.6007
  383MOL0     H51692   6.208   9.935   0.292  1.7573  1.0935 -1.4279
  383MOL0     H51693   6.154  10.020   0.045 -0.3547  1.0919  0.3867
  383MOL0     H51694   6.286   9.913   0.081 -1.0470 -0.3585 -0.2463
  383MOL0     H51695   6.430  10.090  -0.067  0.9299 -0.5754  1.7511
  383MOL0     H51696   6.267  10.133  -0.127  0.3527 -1.6729 -2.5599
  383MOL0     H51697   6.214   9.911  -0.188  0.9990  2.5924 -2.0614
  383MOL0     H51698   6.359   9.845  -0.108 -0.7066  0.3470  2.4480
  383MOL0     H51699   6.493   9.963  -0.309 -0.0313  1.5951 -1.5499
  383MOL0     H51700   6.382   9.828  -0.349 -0.6443 -1.2964  1.6397
  383MOL0     H51701   6.191  10.165  -0.522 -2.3976 -1.0878  1.7001
  383MOL0     H51702   6.276  10.355   0.253 -3.4653  1.0672 -1.6897
  383MOL0     H51703   6.222  10.465   0.522 -0.8367  0.3206 -0.7208
  383MOL0     H51704   6.130  10.501   0.363 -4.4637  1.2271  0.4882
  383MOL0     H51705   6.047  10.477   0.509  0.1856  2.2889 -0.0947
  384MOL0     O51706   6.101   7.702  11.221 -0.1802 -0.2848 -0.0131
  384MOL0     C51707   6.041   7.767  11.308 -0.3119  0.8895  0.3810
  384MOL0     O51708   5.945   7.714  11.387  0.3770 -0.0363  0.1590
  384MOL0     C51709   5.936   7.575  11.384 -0.6283  0.0031  0.1168
  384MOL0     C51710   6.044   7.494  11.443 -0.3766 -0.1717  0.3864
  384MOL0     C51711   6.018   7.357  11.454  0.1264 -0.3079  0.2495
  384MOL0     C51712   5.897   7.307  11.409  0.9183  0.4125 -0.5961
  384MOL0     O51713   5.870   7.170  11.415  0.4778  0.2201  0.8554
  384MOL0     C51714   5.947   7.082  11.483 -0.3270 -0.3430 -0.6323
  384MOL0     C51715   5.894   6.942  11.490  1.0990  0.6037  0.1179
  384MOL0     C51716   5.986   6.857  11.584  0.1061 -0.6023  0.4364
  384MOL0     C51717   5.931   6.714  11.628 -0.1857  0.7339  0.2002
  384MOL0     C51718   5.885   6.627  11.498 -0.0469  0.3420 -0.5480
  384MOL0     C51719   5.999   6.604  11.397  0.3558  0.5763 -0.3266
  384MOL0     C51720   5.990   6.489  11.299  0.1882  0.3021  0.9340
  384MOL0     C51721   5.863   6.476  11.224 -0.1622  0.7189 -0.3413
  384MOL0     N51722   5.844   6.603  11.139  0.3389 -0.1435  0.9497
  384MOL0     C51723   5.911   6.623  11.026  0.0400  0.9391 -0.4246
  384MOL0     C51724   5.876   6.745  10.974  0.9598 -0.0342 -0.1707
  384MOL0     C51725   5.925   6.806  10.844  0.9021 -0.8227  0.9824
  384MOL0     C51726   5.888   6.949  10.817  0.1158  0.0034 -0.1798
  384MOL0     C51727   5.971   7.051  10.892 -0.5350 -0.4724  0.5241
  384MOL0     C51728   5.895   7.175  10.909  0.5624 -0.6218 -0.6642
  384MOL0     O51729   5.980   7.270  10.966 -0.1656  0.0869  0.1209
  384MOL0     C51730   6.037   7.370  10.884  0.0860 -0.3652 -1.0682
  384MOL0     C51731   6.036   7.374  10.742  0.3438 -0.2557 -0.3827
  384MOL0     C51732   6.094   7.477  10.667  0.1381 -0.8928  0.3663
  384MOL0     C51733   6.145   7.589  10.737  0.3218 -1.1819 -0.4422
  384MOL0     C51734   6.203   7.711  10.667 -0.6837  0.6563  0.0866
  384MOL0     O51735   6.180   7.727  10.527 -0.1053 -0.2388 -0.6161
  384MOL0     C51736   6.253   7.832  10.470  0.4480  0.8040  0.2732
  384MOL0     C51737   6.396   7.843  10.449  0.9827 -0.3020  0.1073
  384MOL0     C51738   6.459   7.945  10.383  0.1715 -0.1635  0.0282
  384MOL0     C51739   6.379   8.050  10.326 -1.1794  0.0663 -0.1367
  384MOL0     O51740   6.455   8.144  10.259  0.5841 -1.0146  0.5455
  384MOL0     C51741   6.406   8.275  10.260 -0.1651 -0.1342  0.1384
  384MOL0     C51742   6.515   8.356  10.188 -0.1824  0.5869  1.4281
  384MOL0     C51743   6.492   8.506  10.192  0.1414 -0.2227  0.0665
  384MOL0     C51744   6.582   8.575  10.092 -0.4680 -0.7152  0.1711
  384MOL0     C51745   6.560   8.730  10.100  0.3344 -0.2843 -0.0792
  384MOL0     C51746   6.683   8.805  10.052  0.1242  0.0463  0.1981
  384MOL0     C51747   6.669   8.957  10.035  0.5123  0.5720 -0.1683
  384MOL0     C51748   6.803   9.023  10.040 -0.5601 -0.4931 -0.1153
  384MOL0    Cl51749   6.789   9.193   9.967 -0.2160 -0.4163  0.5034
  384MOL0     C51750   6.240   8.053  10.362 -0.3075 -1.3646  0.5706
  384MOL0     C51751   6.181   7.945  10.425  0.2804 -0.7739 -0.5249
  384MOL0     O51752   6.265   7.790  10.737  0.1816 -0.0899 -0.7504
  384MOL0     C51753   6.146   7.586  10.879 -0.3086  0.1940 -0.2590
  384MOL0     C51754   6.090   7.479  10.955 -0.6028 -0.3440 -0.0232
  384MOL0     N51755   5.784   6.797  11.068 -1.2532  0.7610 -0.2931
  384MOL0     N51756   5.752   6.709  11.159  0.7782 -0.0055 -0.3296
  384MOL0     C51757   5.800   7.384  11.357  0.0374  0.9337  0.8612
  384MOL0     C51758   5.827   7.513  11.335  0.4039 -0.7122 -1.1998
  384MOL0     C51759   6.084   7.909  11.334  0.6422  0.1913  0.2659
  384MOL0     C51760   6.061   7.964  11.465 -0.1512 -1.0269 -0.4184
  384MOL0     C51761   6.098   8.097  11.496 -0.4778 -0.4595 -1.1472
  384MOL0     C51762   6.168   8.167  11.405 -0.1571 -0.3760  0.5385
  384MOL0     O51763   6.211   8.298  11.400 -0.3792  0.8240 -0.5678
  384MOL0     C51764   6.136   8.377  11.489 -0.3723 -0.0943  0.1021
  384MOL0     C51765   5.999   8.416  11.421  0.3116  0.1740  0.0032
  384MOL0     C51766   5.982   8.572  11.410 -0.3134  0.4294  0.6546
  384MOL0     C51767   5.973   8.631  11.555  0.1878  1.2326  0.3288
  384MOL0     C51768   5.842   8.607  11.608 -0.7685  0.0481 -0.2488
  384MOL0     C51769   5.722   8.591  11.632  0.1195 -0.0843  0.3493
  384MOL0     C51770   6.199   8.109  11.283  0.8173 -0.1842 -0.3105
  384MOL0     C51771   6.145   7.983  11.238  0.9890  0.0423  0.6697
  384MOL0     C51772   6.170   7.956  11.090 -0.4153  0.1934  0.2251
  384MOL0     H51773   6.136   7.538  11.480  2.0344 -1.6518 -3.2571
  384MOL0     H51774   6.093   7.302  11.510  0.2504 -1.9104 -1.4025
  384MOL0     H51775   6.052   7.087  11.455  0.6089  1.3230  2.6638
  384MOL0     H51776   5.948   7.120  11.585  1.4180 -3.3137  0.5759
  384MOL0     H51777   5.896   6.899  11.389  0.9903  0.1290  0.3182
  384MOL0     H51778   5.792   6.950  11.529  0.6826 -2.1508 -0.1882
  384MOL0     H51779   5.987   6.917  11.676  2.8022 -0.4632  0.4053
  384MOL0     H51780   6.090   6.856  11.549 -0.2776  2.3010 -1.1090
  384MOL0     H51781   5.996   6.675  11.707 -4.2822 -1.9810  2.5778
  384MOL0     H51782   5.832   6.728  11.672 -1.6747 -0.6128 -2.4866
  384MOL0     H51783   5.853   6.531  11.539  1.5275  0.0234  0.0269
  384MOL0     H51784   5.810   6.680  11.439  0.1744  2.0333  0.6121
  384MOL0     H51785   6.005   6.693  11.335  3.5659  1.8417  1.5637
  384MOL0     H51786   6.095   6.587  11.446  0.4926 -0.7849 -1.0067
  384MOL0     H51787   5.985   6.395  11.356 -0.7427  0.3585  0.9586
  384MOL0     H51788   6.072   6.490  11.226 -1.7988  1.1537 -1.4223
  384MOL0     H51789   5.867   6.391  11.155  0.1543 -0.1573  0.7295
  384MOL0     H51790   5.790   6.460  11.303  1.6778  1.7216  1.6509
  384MOL0     H51791   5.986   6.549  11.000 -0.3799  0.1896  0.4597
  384MOL0     H51792   6.031   6.796  10.820  1.4567 -1.3347  3.3625
  384MOL0     H51793   5.881   6.737  10.771 -1.2727  0.1101  1.3153
  384MOL0     H51794   5.902   6.961  10.709  3.6187 -1.9072 -0.0799
  384MOL0     H51795   5.782   6.966  10.841  0.5567 -0.8416  2.8431
  384MOL0     H51796   6.066   7.068  10.839 -0.2819 -3.0656  0.0375
  384MOL0     H51797   6.018   7.025  10.987 -2.7546  1.3358  2.2076
  384MOL0     H51798   5.810   7.160  10.976  0.2099  0.9214 -0.7280
  384MOL0     H51799   5.852   7.199  10.811  2.5845  0.7942 -1.2669
  384MOL0     H51800   5.995   7.291  10.687  1.2457 -0.8553 -0.1638
  384MOL0     H51801   6.085   7.487  10.559 -1.2923  1.6387  0.6353
  384MOL0     H51802   6.462   7.766  10.487  1.1646  0.4905  1.4508
  384MOL0     H51803   6.562   7.938  10.349 -0.3080 -0.7031 -1.3760
  384MOL0     H51804   6.320   8.295  10.195 -0.6497 -2.9444 -0.2065
  384MOL0     H51805   6.381   8.316  10.358 -0.6820 -0.0102 -0.0400
  384MOL0     H51806   6.618   8.337  10.221 -0.3105  1.8817  2.7017
  384MOL0     H51807   6.529   8.323  10.085  3.1395  1.5504  1.4355
  384MOL0     H51808   6.385   8.519  10.173 -0.4028 -0.1199  2.7594
  384MOL0     H51809   6.501   8.552  10.291  0.8602  0.2569 -0.2108
  384MOL0     H51810   6.580   8.534   9.990  0.0665 -2.5413  0.8654
  384MOL0     H51811   6.685   8.554  10.122 -0.8557 -0.4879  1.7366
  384MOL0     H51812   6.561   8.743  10.208  0.3502 -1.2600  0.0411
  384MOL0     H51813   6.465   8.762  10.055  0.9924  0.9703 -0.6297
  384MOL0     H51814   6.768   8.788  10.118 -1.0234  2.9155  2.6112
  384MOL0     H51815   6.693   8.767   9.950 -3.3311 -1.5584  0.3401
  384MOL0     H51816   6.601   9.006  10.104 -1.1770 -0.1218 -1.2731
  384MOL0     H51817   6.633   8.959   9.931  0.2109 -1.7884 -0.1634
  384MOL0     H51818   6.823   9.040  10.146 -0.9470  0.8394 -0.2360
  384MOL0     H51819   6.883   8.973   9.983 -1.1179 -0.6058 -0.8085
  384MOL0     H51820   6.182   8.134  10.319  2.2281  2.1522  3.2177
  384MOL0     H51821   6.073   7.948  10.433  0.0897  1.2363 -2.6617
  384MOL0     H51822   6.183   7.660  10.949  0.7479 -0.1920 -0.3981
  384MOL0     H51823   6.082   7.495  11.062 -1.7021  2.3667 -0.4245
  384MOL0     H51824   5.721   7.327  11.309  0.8970  1.2433 -0.9797
  384MOL0     H51825   5.762   7.567  11.267 -0.7989 -1.0645 -0.3669
  384MOL0     H51826   5.990   7.922  11.534  1.2402  1.2246  2.6620
  384MOL0     H51827   6.070   8.140  11.592 -0.9678 -4.8686  0.9649
  384MOL0     H51828   6.199   8.467  11.491 -0.0015 -0.3578  1.0259
  384MOL0     H51829   6.128   8.344  11.593 -1.9944  2.6401  0.9488
  384MOL0     H51830   5.916   8.368  11.475  1.0983 -0.6433  0.5083
  384MOL0     H51831   5.987   8.374  11.321 -0.5334 -0.4476  0.3586
  384MOL0     H51832   5.895   8.599  11.349  0.0771 -2.2976 -1.3057
  384MOL0     H51833   6.070   8.615  11.361 -1.0316  1.8428  0.5445
  384MOL0     H51834   6.059   8.591  11.608 -0.5388 -1.9883 -0.6901
  384MOL0     H51835   5.985   8.739  11.542 -1.9340  1.4351 -0.3501
  384MOL0     H51836   5.622   8.571  11.664 -0.5784  1.0688 -1.0314
  384MOL0     H51837   6.239   8.183  11.215  0.0376  4.3280  3.6074
  384MOL0     H51838   6.081   7.956  11.026  0.5881 -0.5043 -1.2446
  384MOL0     H51839   6.240   8.029  11.048 -0.9709  0.5970 -0.0174
  384MOL0     H51840   6.218   7.858  11.090  0.4678  0.5853  2.3909
  385MOL0     O51841   0.014   1.565   8.896 -0.5473  0.1001  0.1929
  385MOL0     C51842  -0.014   1.442   8.882  0.7588 -0.4822 -0.1833
  385MOL0     O51843   0.075   1.338   8.849 -0.3219  0.1098  0.1010
  385MOL0     C51844   0.200   1.385   8.829  1.4106 -0.2936  0.6945
  385MOL0     C51845   0.297   1.389   8.929 -0.4386 -0.3489 -0.5234
  385MOL0     C51846   0.428   1.425   8.905 -0.8910 -0.2679  0.3443
  385MOL0     C51847   0.466   1.468   8.771  0.4114 -0.3496 -0.0625
  385MOL0     O51848   0.596   1.498   8.731  0.3993 -0.3495  0.8245
  385MOL0     C51849   0.706   1.462   8.817 -0.6180 -0.2641  0.1903
  385MOL0     C51850   0.714   1.306   8.835 -1.1822 -0.0603  0.3962
  385MOL0     C51851   0.687   1.230   8.702 -0.0082 -0.3742  0.3394
  385MOL0     C51852   0.638   1.083   8.708  0.8745  0.5627 -0.0863
  385MOL0     C51853   0.558   1.037   8.585  0.7278  0.6010  0.9855
  385MOL0     C51854   0.448   1.130   8.529  0.0522 -0.2882  0.1385
  385MOL0     C51855   0.359   1.053   8.425  0.3184  0.2749 -0.5314
  385MOL0     C51856   0.230   1.132   8.395 -0.2666  0.9391  0.3453
  385MOL0     N51857   0.141   1.028   8.329 -1.0938  0.5358  0.0180
  385MOL0     C51858   0.058   0.950   8.416 -0.4017  0.0492  0.5180
  385MOL0     C51859   0.000   0.863   8.328  0.4766 -0.7056 -0.1237
  385MOL0     C51860  -0.097   0.755   8.363 -0.1968  0.5857 -0.4373
  385MOL0     C51861  -0.106   0.647   8.256  0.4530 -0.0515  0.2196
  385MOL0     C51862   0.024   0.581   8.242  0.4207 -0.0354 -0.8230
  385MOL0     C51863   0.029   0.460   8.335 -0.0272 -1.2570 -0.1967
  385MOL0     O51864  -0.053   0.365   8.279 -0.7428 -0.0777 -1.1353
  385MOL0     C51865  -0.037   0.234   8.317  0.4065  0.3539  0.0344
  385MOL0     C51866  -0.140   0.156   8.253 -1.0563  0.1103 -0.0614
  385MOL0     C51867  -0.150   0.015   8.276 -0.0837 -0.7190 -0.3324
  385MOL0     C51868  -0.044  -0.045   8.353  0.2671  0.2670  0.0371
  385MOL0     C51869  -0.035  -0.193   8.369  0.4033  0.4431 -0.1713
  385MOL0     O51870  -0.140  -0.265   8.305 -1.0684 -0.6566 -1.0489
  385MOL0     C51871  -0.165  -0.397   8.330 -0.5335  0.4909  0.4936
  385MOL0     C51872  -0.298  -0.444   8.321 -0.1318 -0.6953  0.6749
  385MOL0     C51873  -0.340  -0.569   8.338  0.0849  0.2146  0.0553
  385MOL0     C51874  -0.242  -0.667   8.377 -0.4183 -0.3669  0.2139
  385MOL0     O51875  -0.290  -0.792   8.404  0.8167 -0.7716  0.6077
  385MOL0     C51876  -0.234  -0.866   8.522 -0.2168  0.2249  0.2487
  385MOL0     C51877  -0.333  -0.978   8.552  0.1845 -0.0549  0.0964
  385MOL0     C51878  -0.281  -1.080   8.658  0.8018 -0.0643  0.4699
  385MOL0     C51879  -0.259  -1.013   8.788  0.0785  0.8968 -0.1777
  385MOL0     C51880  -0.182  -1.097   8.893 -0.3267  0.1892  0.6641
  385MOL0     C51881  -0.045  -1.145   8.847 -0.5863 -0.9684 -0.1665
  385MOL0     C51882   0.056  -1.170   8.967 -0.3423  0.6372 -0.2979
  385MOL0     C51883   0.021  -1.286   9.057  0.7781 -0.7974  0.4222
  385MOL0    Cl51884   0.025  -1.450   8.967 -0.0035 -0.4683 -0.1459
  385MOL0     C51885  -0.111  -0.628   8.395 -0.9427 -1.0768  0.3862
  385MOL0     C51886  -0.073  -0.496   8.364 -0.0557  0.7416 -0.2380
  385MOL0     O51887   0.063  -0.241   8.424 -0.4236  0.3139 -0.6742
  385MOL0     C51888   0.053   0.029   8.419 -0.8258  0.1800  1.4445
  385MOL0     C51889   0.054   0.173   8.411  0.7354 -0.1357  0.3075
  385MOL0     N51890   0.046   0.895   8.203 -0.5929  0.5785 -0.0543
  385MOL0     N51891   0.132   0.986   8.204  0.4470 -0.1233 -0.2497
  385MOL0     C51892   0.368   1.475   8.682 -0.4656 -0.3880  0.8956
  385MOL0     C51893   0.235   1.439   8.708  0.6352  0.4783  0.8722
  385MOL0     C51894  -0.158   1.410   8.898 -0.5170  0.1165  0.0380
  385MOL0     C51895  -0.250   1.485   8.978 -0.5060 -0.0836  0.9395
  385MOL0     C51896  -0.381   1.439   8.985 -0.2498  0.1847 -0.6148
  385MOL0     C51897  -0.429   1.324   8.930 -0.1080  0.4254 -0.6609
  385MOL0     O51898  -0.551   1.278   8.956  0.9125 -0.7331  0.8749
  385MOL0     C51899  -0.628   1.254   8.840 -0.7638  1.1161  0.4555
  385MOL0     C51900  -0.773   1.230   8.883  0.3896  0.1326  1.0976
  385MOL0     C51901  -0.806   1.071   8.898  0.0084 -1.5119 -1.1298
  385MOL0     C51902  -0.954   1.062   8.892 -0.2730  0.0669 -0.3628
  385MOL0     C51903  -1.004   1.102   8.764  1.4094 -0.1266  0.7891
  385MOL0     C51904  -1.025   1.130   8.644  1.0944 -0.2064  0.2676
  385MOL0     C51905  -0.335   1.240   8.876 -0.8627 -0.6163  0.7836
  385MOL0     C51906  -0.204   1.285   8.839  0.4988 -0.1343 -1.2029
  385MOL0     C51907  -0.133   1.195   8.735  0.4595  0.8153 -0.5124
  385MOL0     H51908   0.263   1.357   9.027  0.2780  0.0914 -0.1218
  385MOL0     H51909   0.501   1.430   8.985 -0.1769  0.4201 -0.3350
  385MOL0     H51910   0.790   1.498   8.756 -0.0250 -0.9228  0.6033
  385MOL0     H51911   0.731   1.524   8.904  1.1331  0.4928 -0.7856
  385MOL0     H51912   0.642   1.269   8.909 -0.9954  0.6227  0.9246
  385MOL0     H51913   0.813   1.272   8.867  0.0245  0.8132 -2.0984
  385MOL0     H51914   0.783   1.223   8.649 -0.7852  0.9270 -1.3371
  385MOL0     H51915   0.614   1.281   8.638  0.5217  0.7943  0.6559
  385MOL0     H51916   0.724   1.016   8.716  0.7274  0.5457  2.0678
  385MOL0     H51917   0.573   1.065   8.795 -1.0358 -1.7477 -1.8708
  385MOL0     H51918   0.621   1.011   8.499 -2.8878 -2.0671 -1.1447
  385MOL0     H51919   0.515   0.941   8.613  1.0510 -0.7188 -2.5028
  385MOL0     H51920   0.399   1.175   8.616 -0.4581 -3.6745  1.7656
  385MOL0     H51921   0.487   1.206   8.461  0.7407 -1.8901 -1.3237
  385MOL0     H51922   0.329   0.955   8.463  0.1111  0.4018 -0.3681
  385MOL0     H51923   0.411   1.021   8.333 -1.3390 -1.4491 -0.9459
  385MOL0     H51924   0.185   1.180   8.482 -1.3357  2.2049 -0.8377
  385MOL0     H51925   0.250   1.214   8.325  0.0749  1.8365  1.4588
  385MOL0     H51926   0.033   0.957   8.522 -1.5127 -1.4366  0.3837
  385MOL0     H51927  -0.078   0.714   8.463  0.0029  0.1175 -0.6689
  385MOL0     H51928  -0.189   0.811   8.384  0.9553  1.6010  2.5420
  385MOL0     H51929  -0.179   0.571   8.283  0.3971  0.0633  0.3958
  385MOL0     H51930  -0.138   0.691   8.161 -1.8086 -0.7618  0.6134
  385MOL0     H51931   0.108   0.647   8.265  0.5860 -0.1315 -1.1500
  385MOL0     H51932   0.027   0.534   8.143 -1.4234 -3.5425  0.5889
  385MOL0     H51933  -0.000   0.485   8.437  2.4002  1.7683 -0.1042
  385MOL0     H51934   0.130   0.418   8.326 -0.5685 -2.1269 -4.5384
  385MOL0     H51935  -0.223   0.204   8.201 -0.5605 -2.1966 -3.2972
  385MOL0     H51936  -0.231  -0.036   8.225  1.1062 -0.2504 -2.8194
  385MOL0     H51937  -0.371  -0.368   8.292 -1.8502 -1.8530  1.7533
  385MOL0     H51938  -0.439  -0.611   8.324  0.2039  0.0011 -0.1462
  385MOL0     H51939  -0.141  -0.915   8.494 -2.7656 -4.1731 -1.4586
  385MOL0     H51940  -0.233  -0.797   8.607 -2.9276  2.2890 -1.1923
  385MOL0     H51941  -0.423  -0.934   8.598  1.8192  2.8900  0.7554
  385MOL0     H51942  -0.379  -1.022   8.463 -0.7471  0.5298  0.2635
  385MOL0     H51943  -0.352  -1.161   8.678  0.4624  0.5941  2.1456
  385MOL0     H51944  -0.194  -1.125   8.610  0.2506  2.2249 -3.0394
  385MOL0     H51945  -0.353  -0.966   8.818 -0.4326  0.8247 -1.5781
  385MOL0     H51946  -0.187  -0.932   8.774 -1.3138  1.9602 -1.4801
  385MOL0     H51947  -0.241  -1.184   8.924  1.6508 -1.0688  1.0765
  385MOL0     H51948  -0.173  -1.030   8.979 -1.1881  1.3029 -0.0941
  385MOL0     H51949  -0.059  -1.235   8.787  1.0986 -0.3695 -1.5397
  385MOL0     H51950   0.001  -1.067   8.785  2.2956  0.0521  2.9871
  385MOL0     H51951   0.046  -1.081   9.028 -1.4405  2.6437 -3.1849
  385MOL0     H51952   0.161  -1.186   8.939 -1.0439 -4.0587 -1.1828
  385MOL0     H51953   0.087  -1.294   9.144  1.0291 -0.2796  0.2868
  385MOL0     H51954  -0.079  -1.265   9.096  1.0847 -2.0142  1.9256
  385MOL0     H51955  -0.022  -0.684   8.421  1.7949  2.7258  0.0372
  385MOL0     H51956   0.033  -0.472   8.370 -0.5839  3.0742  0.9287
  385MOL0     H51957   0.134  -0.010   8.479 -0.6027  0.7777  1.5462
  385MOL0     H51958   0.121   0.236   8.469  2.5139  0.5214 -2.2681
  385MOL0     H51959   0.398   1.495   8.580  2.3422 -0.4220  1.6305
  385MOL0     H51960   0.166   1.455   8.626 -0.1858 -0.3387  1.3792
  385MOL0     H51961  -0.209   1.568   9.034 -1.3612  1.7798 -1.0837
  385MOL0     H51962  -0.448   1.501   9.045  0.2784  1.1970 -1.0397
  385MOL0     H51963  -0.592   1.164   8.789 -1.9124 -0.3101  2.0593
  385MOL0     H51964  -0.605   1.341   8.778 -2.0283  1.4194  0.3935
  385MOL0     H51965  -0.834   1.264   8.799 -1.0555 -2.7141  0.8529
  385MOL0     H51966  -0.806   1.282   8.973 -1.3282 -0.3581  0.7839
  385MOL0     H51967  -0.768   1.034   8.994  0.0998 -0.8180 -0.8950
  385MOL0     H51968  -0.765   1.015   8.813  1.9289 -1.9473  0.0177
  385MOL0     H51969  -0.981   0.957   8.908 -1.1345  0.6604  2.6189
  385MOL0     H51970  -1.008   1.109   8.974 -0.7774 -2.5861  0.9282
  385MOL0     H51971  -1.041   1.163   8.544  2.6712  3.1808  0.9814
  385MOL0     H51972  -0.360   1.142   8.837  0.1778  0.1637 -2.0971
  385MOL0     H51973  -0.202   1.116   8.704  0.9230  0.4067 -0.5122
  385MOL0     H51974  -0.106   1.265   8.656  2.9647  2.8283  1.9090
  385MOL0     H51975  -0.037   1.157   8.773  0.0514  1.6723  1.4776
  386MOL0     O51976   7.919   2.049   8.866 -0.6509  0.4583 -0.6031
  386MOL0     C51977   8.026   2.089   8.820 -0.2447 -0.2346 -0.0823
  386MOL0     O51978   8.143   2.099   8.894  0.0504 -1.0197  0.2946
  386MOL0     C51979   8.132   2.041   9.019  0.7515  0.2613  0.4284
  386MOL0     C51980   8.142   2.115   9.134  0.7244  0.6005  0.5353
  386MOL0     C51981   8.140   2.051   9.255  0.8573  0.1295  0.3072
  386MOL0     C51982   8.118   1.919   9.270 -0.1895 -0.4317 -0.1177
  386MOL0     O51983   8.122   1.861   9.394  0.0644  0.3566 -0.1073
  386MOL0     C51984   8.054   1.732   9.421 -0.0516 -0.3131  0.7227
  386MOL0     C51985   7.904   1.767   9.409  0.1569  1.1916  0.5041
  386MOL0     C51986   7.831   1.829   9.538 -0.5574 -0.1982 -0.1660
  386MOL0     C51987   7.876   1.974   9.556 -0.1009 -1.8685 -0.7581
  386MOL0     C51988   7.790   2.066   9.641  1.2628 -0.0213  0.0229
  386MOL0     C51989   7.835   2.204   9.701  0.0859  0.0210  0.9222
  386MOL0     C51990   7.990   2.226   9.712  0.5240  0.0232  0.0815
  386MOL0     C51991   8.056   2.131   9.810  0.8296 -0.2562 -0.4573
  386MOL0     N51992   8.191   2.152   9.855 -0.3666 -0.7746  0.1870
  386MOL0     C51993   8.239   2.124   9.980  0.3600  0.2217  0.0492
  386MOL0     C51994   8.377   2.130   9.969 -0.1370 -0.1701 -0.1951
  386MOL0     C51995   8.469   2.111  10.092 -0.3557  0.3738  0.1616
  386MOL0     C51996   8.601   2.026  10.060  0.3451 -0.1922  0.9415
  386MOL0     C51997   8.568   1.874  10.016  0.5310  0.1479  0.3061
  386MOL0     C51998   8.563   1.780  10.136 -0.3807  0.0454 -0.0738
  386MOL0     O51999   8.565   1.639  10.088 -0.9201 -0.1004 -0.1944
  386MOL0     C52000   8.545   1.543  10.186 -0.3225 -0.1410  0.9389
  386MOL0     C52001   8.560   1.562  10.326  0.0027  0.0651  0.3570
  386MOL0     C52002   8.536   1.462  10.416 -0.0087  1.2852  0.3116
  386MOL0     C52003   8.486   1.333  10.367 -0.1588 -0.2827 -1.0945
  386MOL0     C52004   8.452   1.222  10.461 -0.2531  0.1005 -0.5734
  386MOL0     O52005   8.397   1.113  10.408  0.5962 -0.0395 -0.3169
  386MOL0     C52006   8.360   1.011  10.490  0.3943  0.6189  0.8998
  386MOL0     C52007   8.278   1.033  10.606 -0.5156 -0.6314 -0.7842
  386MOL0     C52008   8.239   0.917  10.684 -0.7488 -0.1596 -0.7860
  386MOL0     C52009   8.285   0.791  10.661  0.2444  0.0794  0.4032
  386MOL0     O52010   8.277   0.679  10.740  0.4670  0.8002 -0.3026
  386MOL0     C52011   8.347   0.690  10.874  0.3975  0.0590 -0.2562
  386MOL0     C52012   8.386   0.557  10.933 -0.5561 -0.9250 -1.1111
  386MOL0     C52013   8.270   0.471  10.937  0.3526  0.0984 -0.3787
  386MOL0     C52014   8.321   0.333  10.979  0.0726 -0.5987 -0.2649
  386MOL0     C52015   8.213   0.223  10.993 -0.1931 -0.1692  0.2824
  386MOL0     C52016   8.126   0.253  11.112  0.2465 -0.0038  0.9343
  386MOL0     C52017   8.051   0.131  11.151  0.2391 -0.5965  0.9038
  386MOL0     C52018   7.919   0.154  11.225  0.7630 -0.8901  0.5555
  386MOL0    Cl52019   7.794   0.201  11.105 -0.2712 -0.0385 -0.1273
  386MOL0     C52020   8.379   0.775  10.553  0.1773 -0.8487 -0.1907
  386MOL0     C52021   8.403   0.880  10.468 -0.1522 -0.2439  1.1725
  386MOL0     O52022   8.466   1.243  10.584 -0.1911 -0.2161 -0.8459
  386MOL0     C52023   8.463   1.321  10.229  0.3591 -0.6646 -0.6632
  386MOL0     C52024   8.498   1.419  10.136 -0.0231  0.4755  0.6712
  386MOL0     N52025   8.404   2.171   9.839  0.4471 -0.9718  0.2246
  386MOL0     N52026   8.296   2.190   9.775  0.5878  0.5577  0.6814
  386MOL0     C52027   8.119   1.840   9.152  0.3533 -0.9156  0.6652
  386MOL0     C52028   8.126   1.903   9.027  0.5512 -0.6182  0.1870
  386MOL0     C52029   8.037   2.138   8.676 -1.6365  0.3559 -0.6270
  386MOL0     C52030   8.164   2.192   8.627  0.9078  0.0890 -0.7039
  386MOL0     C52031   8.185   2.231   8.496 -0.3541 -0.2752 -0.0922
  386MOL0     C52032   8.086   2.221   8.406  0.7507  0.6556  0.5133
  386MOL0     O52033   8.114   2.259   8.279 -0.0386 -0.3971 -0.0701
  386MOL0     C52034   8.097   2.397   8.244  0.7043 -0.7866 -0.2944
  386MOL0     C52035   8.124   2.429   8.096 -0.5648  0.0484  0.8983
  386MOL0     C52036   8.015   2.367   8.011  0.2493  0.0972 -0.3505
  386MOL0     C52037   8.036   2.400   7.861  0.7306  0.0994  0.8043
  386MOL0     C52038   8.019   2.540   7.814  0.4622  0.3519  0.4505
  386MOL0     C52039   8.043   2.656   7.778  0.4286  0.0675 -0.1609
  386MOL0     C52040   7.957   2.170   8.442  0.4177  1.1023  0.1932
  386MOL0     C52041   7.938   2.126   8.576 -0.4007  0.0435  0.4137
  386MOL0     C52042   7.807   2.061   8.602  0.0102 -0.8980 -0.5866
  386MOL0     H52043   8.153   2.222   9.117 -0.9844  1.0980  2.1266
  386MOL0     H52044   8.151   2.105   9.349 -0.5837 -0.2460  0.7047
  386MOL0     H52045   8.091   1.653   9.354  2.3135  1.3163 -0.0400
  386MOL0     H52046   8.083   1.704   9.523 -4.3773  2.1474  2.8821
  386MOL0     H52047   7.843   1.682   9.378  2.5354 -0.3759 -0.1163
  386MOL0     H52048   7.894   1.819   9.314  0.8797  2.5548  1.1434
  386MOL0     H52049   7.858   1.758   9.617 -1.2839 -1.4443 -1.0044
  386MOL0     H52050   7.722   1.828   9.533 -0.5949 -1.4530  0.4329
  386MOL0     H52051   7.980   1.979   9.590 -0.3039 -1.2617 -0.2034
  386MOL0     H52052   7.875   2.027   9.461  0.9049  0.3274  0.3714
  386MOL0     H52053   7.694   2.076   9.589  1.0479  2.4546  0.7678
  386MOL0     H52054   7.767   2.003   9.727 -0.0226  0.3376 -0.0415
  386MOL0     H52055   7.809   2.286   9.634  3.1285  0.8680  0.6174
  386MOL0     H52056   7.771   2.223   9.788  0.6833 -0.8589  1.5874
  386MOL0     H52057   8.022   2.329   9.724  0.7455  0.4393 -3.1804
  386MOL0     H52058   8.025   2.198   9.612 -1.3728 -0.1877 -0.5551
  386MOL0     H52059   7.987   2.144   9.894 -0.5665  0.9429 -1.7287
  386MOL0     H52060   8.049   2.028   9.775 -0.0348 -0.0684 -0.8479
  386MOL0     H52061   8.184   2.086  10.066 -1.0195  2.0365  0.0221
  386MOL0     H52062   8.499   2.207  10.136  1.5121  0.0800 -0.3759
  386MOL0     H52063   8.419   2.049  10.166  1.1779  0.8822  1.6942
  386MOL0     H52064   8.655   2.087   9.987 -0.2807  0.5890  1.1126
  386MOL0     H52065   8.653   2.027  10.156  0.3769 -0.9634  0.9401
  386MOL0     H52066   8.650   1.834   9.956  0.9462 -0.5569  1.3147
  386MOL0     H52067   8.475   1.867   9.958  0.5086 -0.8019  0.4356
  386MOL0     H52068   8.473   1.803  10.193  1.2622 -0.9851  3.1960
  386MOL0     H52069   8.646   1.801  10.205  0.9823 -1.2066 -1.2532
  386MOL0     H52070   8.591   1.655  10.371  0.0218  1.2213 -1.9136
  386MOL0     H52071   8.553   1.475  10.522  1.5167  3.1854 -0.1160
  386MOL0     H52072   8.232   1.127  10.635 -1.1864 -0.7979 -1.2938
  386MOL0     H52073   8.173   0.931  10.769 -1.7991 -0.5547 -1.5109
  386MOL0     H52074   8.438   0.752  10.868  0.1454  0.3404 -1.4551
  386MOL0     H52075   8.286   0.741  10.948  1.2354  0.0169  0.4792
  386MOL0     H52076   8.471   0.516  10.877 -1.3487 -1.4508 -1.9353
  386MOL0     H52077   8.420   0.580  11.035 -1.1621  1.9436 -1.4682
  386MOL0     H52078   8.182   0.518  10.981 -2.1893 -0.5749 -4.2283
  386MOL0     H52079   8.232   0.453  10.836 -2.9433 -1.2515  0.9553
  386MOL0     H52080   8.384   0.331  11.069 -0.6725 -1.2550  0.2655
  386MOL0     H52081   8.383   0.295  10.898  0.9252  0.6248 -0.2113
  386MOL0     H52082   8.268   0.128  10.995 -0.2428 -0.4499 -3.6687
  386MOL0     H52083   8.158   0.211  10.899 -1.0240  1.3191  0.5517
  386MOL0     H52084   8.199   0.276  11.190  2.2457  1.1696 -1.1336
  386MOL0     H52085   8.054   0.332  11.087 -1.9561 -1.7073  1.5641
  386MOL0     H52086   8.109   0.075  11.225  0.1586  1.5820  2.7161
  386MOL0     H52087   8.032   0.062  11.068  1.0425  0.3289 -0.0866
  386MOL0     H52088   7.884   0.071  11.287 -1.8017 -0.9704 -0.8548
  386MOL0     H52089   7.952   0.231  11.295  0.2757  1.9990 -2.1334
  386MOL0     H52090   8.427   0.679  10.539 -0.2920 -1.1925  0.4981
  386MOL0     H52091   8.468   0.860  10.384  0.3834 -4.7245  2.3932
  386MOL0     H52092   8.416   1.227  10.202 -2.8429  1.1130 -1.8321
  386MOL0     H52093   8.478   1.390  10.033 -0.0210 -0.1588  0.8443
  386MOL0     H52094   8.100   1.733   9.152 -0.6260 -0.8946  4.2841
  386MOL0     H52095   8.124   1.846   8.935  1.3403  1.0659 -0.9228
  386MOL0     H52096   8.253   2.176   8.688  0.5674 -2.8014 -0.8128
  386MOL0     H52097   8.284   2.262   8.463 -0.7128 -2.6758 -4.1108
  386MOL0     H52098   8.168   2.456   8.303 -0.7957  4.3544 -3.0321
  386MOL0     H52099   7.996   2.426   8.275  0.3920 -0.9066 -1.1724
  386MOL0     H52100   8.226   2.394   8.079 -0.5999  0.1309  0.4974
  386MOL0     H52101   8.113   2.537   8.081 -0.8815 -0.1238 -0.2288
  386MOL0     H52102   7.921   2.418   8.034  2.3161  3.5716  1.1149
  386MOL0     H52103   8.022   2.258   8.025  1.5763 -0.3135 -3.4160
  386MOL0     H52104   8.139   2.378   7.831  1.5201  2.0654  1.9012
  386MOL0     H52105   7.967   2.329   7.814  1.9606 -1.3976  1.1916
  386MOL0     H52106   8.072   2.750   7.736 -1.1341  0.0688 -1.3376
  386MOL0     H52107   7.888   2.136   8.366  0.8108 -2.4371  1.2000
  386MOL0     H52108   7.754   2.110   8.685  0.3429 -1.0311 -0.2980
  386MOL0     H52109   7.746   2.068   8.511 -1.3254  0.0750  0.3323
  386MOL0     H52110   7.819   1.956   8.628  0.2339 -1.1242 -1.5751
  387MOL0     O52111  10.017   8.911  10.659 -0.4653  0.7056 -0.3359
  387MOL0     C52112   9.923   8.908  10.741 -0.1769 -0.3821  0.8038
  387MOL0     O52113   9.917   8.981  10.853  0.2776 -0.2603  0.5443
  387MOL0     C52114   9.994   9.094  10.864  0.1228 -0.6872 -0.1815
  387MOL0     C52115  10.066   9.119  10.981  0.2371  0.1176 -0.2559
  387MOL0     C52116  10.134   9.252  10.989  0.6880 -0.3551 -0.3867
  387MOL0     C52117  10.154   9.338  10.879 -0.4100 -0.7485  0.2490
  387MOL0     O52118  10.238   9.455  10.894  0.5765 -0.4695  0.4318
  387MOL0     C52119  10.260   9.543  10.786 -0.0408  0.1362 -0.2697
  387MOL0     C52120  10.156   9.649  10.779  0.3008 -0.6555  0.4729
  387MOL0     C52121  10.203   9.769  10.688  0.0200 -0.1689  0.3051
  387MOL0     C52122  10.191   9.735  10.535 -0.3323 -0.7854  0.0584
  387MOL0     C52123  10.172   9.867  10.454  0.1910  0.5862  0.2497
  387MOL0     C52124  10.178   9.837  10.304  0.7532  0.2944  0.3424
  387MOL0     C52125  10.041   9.778  10.258 -0.9360  0.0011  1.4381
  387MOL0     C52126   9.919   9.863  10.265  0.1425 -0.1204 -0.3122
  387MOL0     N52127   9.921   9.968  10.169  0.4558  0.0721 -0.0466
  387MOL0     C52128   9.919   9.953  10.032  0.9045 -0.3061 -0.1959
  387MOL0     C52129   9.952  10.077   9.982 -0.3345 -0.0168 -0.0742
  387MOL0     C52130   9.973  10.129   9.838  0.5213  0.1017 -0.1385
  387MOL0     C52131   9.865  10.235   9.821  0.1619 -0.2630  0.1991
  387MOL0     C52132   9.841  10.271   9.666 -0.2471 -0.4858  0.2397
  387MOL0     C52133   9.769  10.163   9.575 -0.0936  1.5512 -0.2674
  387MOL0     O52134   9.632  10.119   9.592  0.4469 -0.3135 -0.4861
  387MOL0     C52135   9.613  10.023   9.692 -0.0413 -0.6461 -0.0104
  387MOL0     C52136   9.532  10.054   9.805 -0.2334 -0.0721 -0.0057
  387MOL0     C52137   9.525   9.962   9.906 -0.4348 -0.1575 -0.1325
  387MOL0     C52138   9.593   9.841   9.906 -0.2794 -0.6063 -0.7687
  387MOL0     C52139   9.565   9.745  10.011  0.7510 -0.2229 -0.7278
  387MOL0     O52140   9.503   9.790  10.118  0.4773 -0.4874  0.2534
  387MOL0     C52141   9.472   9.698  10.217  0.4231 -0.3617 -0.5378
  387MOL0     C52142   9.476   9.749  10.342  0.2474  0.3854 -1.4526
  387MOL0     C52143   9.428   9.668  10.456 -0.6426  1.1087  0.7809
  387MOL0     C52144   9.374   9.543  10.437  0.3757  0.4728 -0.1474
  387MOL0     O52145   9.303   9.484  10.549 -0.2957 -0.2793  1.1151
  387MOL0     C52146   9.227   9.361  10.529  0.2491  0.5844 -0.0161
  387MOL0     C52147   9.126   9.338  10.635  0.3857 -0.0900  0.5240
  387MOL0     C52148   9.094   9.192  10.674 -0.3129  0.9127  0.7581
  387MOL0     C52149   9.034   9.115  10.558 -0.5206 -0.3907 -0.4151
  387MOL0     C52150   9.011   8.968  10.590 -0.8266  0.4498  0.5934
  387MOL0     C52151   8.901   8.963  10.701  0.1768  0.3872 -0.5285
  387MOL0     C52152   8.855   8.814  10.725 -0.5091  0.3839 -0.8336
  387MOL0     C52153   8.746   8.792  10.837  0.1943  0.9126  0.5279
  387MOL0    Cl52154   8.619   8.907  10.832 -0.0449  0.1355  0.1466
  387MOL0     C52155   9.369   9.493  10.308  1.2100 -0.4961  0.4871
  387MOL0     C52156   9.402   9.576  10.200  0.5233  0.9167 -0.0346
  387MOL0     O52157   9.594   9.629   9.998 -0.7678  0.6685 -0.4241
  387MOL0     C52158   9.678   9.810   9.800 -0.3507 -0.2656  0.1870
  387MOL0     C52159   9.683   9.899   9.690  0.4260 -1.3864 -0.5940
  387MOL0     N52160   9.968  10.160  10.092  0.0657  0.4131  0.2575
  387MOL0     N52161   9.953  10.094  10.201  0.3212  0.2971  0.8313
  387MOL0     C52162  10.081   9.300  10.762  0.1601 -0.2017  0.7369
  387MOL0     C52163  10.004   9.188  10.754  0.3103  0.1957 -0.7403
  387MOL0     C52164   9.815   8.805  10.728 -0.6561  0.4790 -0.4889
  387MOL0     C52165   9.761   8.759  10.853 -1.0797  0.9849  0.1582
  387MOL0     C52166   9.661   8.667  10.866 -0.0787  0.0860  0.0396
  387MOL0     C52167   9.607   8.611  10.751 -0.4167  0.2287 -0.2856
  387MOL0     O52168   9.514   8.510  10.754 -0.8329  0.3178  0.1403
  387MOL0     C52169   9.479   8.438  10.874  0.2209  0.2964  0.5702
  387MOL0     C52170   9.589   8.341  10.925 -0.6734 -0.4910  0.2663
  387MOL0     C52171   9.589   8.207  10.856  0.2682 -0.7221  0.2243
  387MOL0     C52172   9.690   8.111  10.928  0.1919  0.1209  0.8817
  387MOL0     C52173   9.712   7.987  10.843 -0.4038 -0.1587 -0.1878
  387MOL0     C52174   9.748   7.888  10.783 -0.1640 -0.0920 -0.3248
  387MOL0     C52175   9.662   8.649  10.625  0.9075  0.5692 -0.9217
  387MOL0     C52176   9.759   8.748  10.610  0.0829 -1.3143  0.0086
  387MOL0     C52177   9.800   8.781  10.467  0.5011  0.4529  1.0176
  387MOL0     H52178  10.075   9.047  11.062 -0.2285 -1.4309 -1.5331
  387MOL0     H52179  10.175   9.273  11.087  3.1333  1.7566 -1.7311
  387MOL0     H52180  10.353   9.591  10.817  0.3768 -1.8866  1.8214
  387MOL0     H52181  10.278   9.489  10.692  2.1316 -0.6528  0.5489
  387MOL0     H52182  10.132   9.687  10.878  0.1153 -0.7830  0.4771
  387MOL0     H52183  10.070   9.608  10.725  1.9629 -3.5777 -0.2216
  387MOL0     H52184  10.307   9.795  10.712  0.2056 -3.1118  3.5590
  387MOL0     H52185  10.137   9.847  10.726 -0.4105 -1.4555  2.4063
  387MOL0     H52186  10.283   9.686  10.504  0.3742  0.8812 -0.6131
  387MOL0     H52187  10.116   9.659  10.512  0.8958 -1.8746 -0.4268
  387MOL0     H52188  10.087   9.922  10.496 -0.9217 -0.3578 -0.6844
  387MOL0     H52189  10.262   9.928  10.469  3.0169 -3.2709  0.6422
  387MOL0     H52190  10.191   9.932  10.250 -1.8064 -0.1049 -1.1401
  387MOL0     H52191  10.266   9.779  10.277 -1.0997 -1.9320 -1.3656
  387MOL0     H52192  10.023   9.691  10.321  0.3347 -0.3688  1.3226
  387MOL0     H52193  10.056   9.730  10.160  1.7743  1.9040  0.7998
  387MOL0     H52194   9.826   9.809  10.245 -0.7936  1.2530  0.1835
  387MOL0     H52195   9.911   9.908  10.364  0.2222  0.6356 -0.6415
  387MOL0     H52196   9.910   9.863   9.972 -2.6868 -0.5429  0.4838
  387MOL0     H52197  10.078  10.156   9.826  0.8640 -1.6081 -1.2547
  387MOL0     H52198   9.938  10.056   9.765 -1.4067  0.1913  0.6241
  387MOL0     H52199   9.766  10.208   9.858 -2.1384  2.4224 -3.3562
  387MOL0     H52200   9.900  10.330   9.863  3.8326 -1.8290  1.1356
  387MOL0     H52201   9.929  10.301   9.609 -1.8405 -1.2060 -2.8526
  387MOL0     H52202   9.783  10.361   9.689  3.2723  0.7134  6.2924
  387MOL0     H52203   9.826  10.069   9.578  0.0179  1.4438 -2.8958
  387MOL0     H52204   9.771  10.194   9.470 -0.7239 -0.3070 -0.8731
  387MOL0     H52205   9.484  10.151   9.814  3.5938  1.8901  1.6075
  387MOL0     H52206   9.452   9.994   9.979 -2.4753  0.7478 -2.4586
  387MOL0     H52207   9.500   9.853  10.361  1.9287  0.0195 -1.4416
  387MOL0     H52208   9.417   9.723  10.548 -0.4373  3.2753 -0.4209
  387MOL0     H52209   9.162   9.381  10.444 -1.0451  2.2919  1.3144
  387MOL0     H52210   9.292   9.276  10.505  1.4689  1.6470 -0.6074
  387MOL0     H52211   9.161   9.379  10.730 -1.1437  1.1351  0.5929
  387MOL0     H52212   9.035   9.384  10.596  0.6884 -0.2470 -0.4051
  387MOL0     H52213   9.180   9.131  10.701 -1.3050 -2.1516 -2.3293
  387MOL0     H52214   9.026   9.196  10.759  5.0142  1.3846  5.6302
  387MOL0     H52215   9.091   9.115  10.464 -1.8765  0.4397 -1.2667
  387MOL0     H52216   8.938   9.156  10.527  0.0112  1.1869 -0.0628
  387MOL0     H52217   9.096   8.907  10.623 -1.8653 -2.5362 -1.6956
  387MOL0     H52218   8.961   8.926  10.502  1.2315  1.6318 -1.2414
  387MOL0     H52219   8.948   8.992  10.795  0.7583  1.6143 -1.1762
  387MOL0     H52220   8.814   9.027  10.686 -0.3940  0.1888  1.6126
  387MOL0     H52221   8.948   8.759  10.742 -1.2909 -1.0143 -0.9310
  387MOL0     H52222   8.817   8.777  10.629 -0.2061  0.3848 -0.9562
  387MOL0     H52223   8.703   8.691  10.834  1.8769  0.1628 -1.9532
  387MOL0     H52224   8.796   8.815  10.931  1.2361 -1.1759  0.5426
  387MOL0     H52225   9.322   9.398  10.283 -1.1374  0.9225 -0.8186
  387MOL0     H52226   9.387   9.541  10.098  2.9352  2.1630 -0.8880
  387MOL0     H52227   9.735   9.718   9.791  0.1362 -0.0908  1.3057
  387MOL0     H52228   9.730   9.880   9.594 -0.9507  0.7362 -1.7807
  387MOL0     H52229  10.100   9.356  10.671 -1.9614 -1.2574 -0.4263
  387MOL0     H52230   9.960   9.178  10.656 -3.0097  3.8056  0.1190
  387MOL0     H52231   9.801   8.790  10.948 -1.6860  1.3796  0.2891
  387MOL0     H52232   9.643   8.629  10.966  1.0014  2.0976  1.0677
  387MOL0     H52233   9.393   8.379  10.841 -2.3765  2.7456  2.4741
  387MOL0     H52234   9.460   8.518  10.946  0.1607  1.1621 -0.3768
  387MOL0     H52235   9.577   8.335  11.034  1.3894 -0.1080  0.5665
  387MOL0     H52236   9.691   8.378  10.915 -0.1640 -1.3457  1.9194
  387MOL0     H52237   9.617   8.218  10.751  1.7711 -0.0848  0.6688
  387MOL0     H52238   9.494   8.154  10.872  0.5699 -1.1760  0.5397
  387MOL0     H52239   9.781   8.172  10.934 -2.2210  4.0688  0.7123
  387MOL0     H52240   9.664   8.096  11.033  0.1730 -0.8443  0.7457
  387MOL0     H52241   9.799   7.802  10.746  0.1985 -0.6536  1.3622
  387MOL0     H52242   9.615   8.621  10.531  0.5544 -0.3424 -0.4868
  387MOL0     H52243   9.748   8.874  10.443 -0.9781 -0.5968  0.0117
  387MOL0     H52244   9.907   8.785  10.447 -0.0908  2.0000 -2.4994
  387MOL0     H52245   9.760   8.709  10.396 -2.7323  1.2216  1.8984
  388MOL0     O52246  11.008   8.089   5.240 -0.8116  0.0482  0.7693
  388MOL0     C52247  10.951   8.128   5.341 -0.3934 -0.0745  0.3896
  388MOL0     O52248  11.003   8.120   5.469 -0.4110  0.6257 -0.3118
  388MOL0     C52249  11.123   8.064   5.498 -0.8438 -0.1937  0.1179
  388MOL0     C52250  11.239   8.134   5.468 -0.4806 -0.4014  0.2457
  388MOL0     C52251  11.374   8.083   5.487 -0.2497  0.6927  0.5501
  388MOL0     C52252  11.389   7.953   5.528 -0.7936 -0.1452 -0.7413
  388MOL0     O52253  11.518   7.894   5.530 -0.5042 -0.5581 -0.1083
  388MOL0     C52254  11.554   7.805   5.636  0.0471  0.7852  0.0291
  388MOL0     C52255  11.561   7.659   5.587  0.2115 -0.7089 -0.6852
  388MOL0     C52256  11.654   7.641   5.455  1.0537 -0.5455  0.0433
  388MOL0     C52257  11.658   7.497   5.403 -0.3489  0.1038 -0.8543
  388MOL0     C52258  11.759   7.491   5.282  0.4455  0.2203 -0.4516
  388MOL0     C52259  11.890   7.431   5.324  0.2132 -0.2722  1.0323
  388MOL0     C52260  12.000   7.449   5.216  0.0745  0.3643 -0.0066
  388MOL0     C52261  11.983   7.358   5.084 -0.5080 -0.4090  0.3138
  388MOL0     N52262  12.086   7.398   4.986  1.3434  0.3255 -0.7816
  388MOL0     C52263  12.220   7.349   4.988  0.0159 -0.2761 -0.4083
  388MOL0     C52264  12.280   7.444   4.909  0.1627  1.0184  0.1944
  388MOL0     C52265  12.427   7.464   4.875  0.5926  0.8171  0.8802
  388MOL0     C52266  12.469   7.608   4.879 -0.2446  0.1372 -0.5178
  388MOL0     C52267  12.615   7.622   4.927 -0.3868  0.4593  0.5652
  388MOL0     C52268  12.647   7.770   4.932  0.5488  0.1523 -0.5985
  388MOL0     O52269  12.775   7.801   4.978 -1.0789 -0.1636 -0.1366
  388MOL0     C52270  12.868   7.809   4.871  0.1068 -0.0686 -0.5079
  388MOL0     C52271  12.955   7.707   4.863 -0.6639 -0.7792  0.5068
  388MOL0     C52272  13.053   7.703   4.761  1.0816  0.3081 -0.3051
  388MOL0     C52273  13.057   7.815   4.673 -0.1027 -0.5810 -1.0554
  388MOL0     C52274  13.149   7.821   4.559 -0.5128  0.6477 -0.1043
  388MOL0     O52275  13.218   7.705   4.526  0.2136  0.6903 -0.0642
  388MOL0     C52276  13.324   7.702   4.448 -0.3562  0.1804  1.1181
  388MOL0     C52277  13.415   7.806   4.440 -0.0197 -0.1981  0.2318
  388MOL0     C52278  13.521   7.805   4.345  0.0514  0.2568 -0.2499
  388MOL0     C52279  13.521   7.692   4.256 -0.0589  0.0773  1.0161
  388MOL0     O52280  13.632   7.678   4.171  0.3543 -0.5311 -0.0020
  388MOL0     C52281  13.659   7.574   4.069 -0.4789  0.1488 -0.7079
  388MOL0     C52282  13.791   7.509   4.092 -0.5416 -0.0866  0.1159
  388MOL0     C52283  13.816   7.405   3.973  0.1789  0.4381  0.1740
  388MOL0     C52284  13.959   7.359   3.977 -0.0202 -0.6337 -0.2231
  388MOL0     C52285  14.003   7.313   3.839  1.5350 -0.4765 -0.7310
  388MOL0     C52286  14.157   7.302   3.832 -0.3193  0.3705 -0.6530
  388MOL0     C52287  14.182   7.246   3.696  1.2679 -0.4865  0.5660
  388MOL0     C52288  14.320   7.274   3.649 -0.2394  0.1735 -0.0886
  388MOL0    Cl52289  14.423   7.159   3.728 -0.5541 -0.2432  0.1706
  388MOL0     C52290  13.440   7.589   4.280 -0.4813  1.0076  0.1321
  388MOL0     C52291  13.336   7.593   4.362 -0.1474 -0.5429 -1.0394
  388MOL0     O52292  13.159   7.922   4.493  0.1482 -0.0161 -0.0829
  388MOL0     C52293  12.970   7.920   4.699 -0.5642 -1.2450  0.7001
  388MOL0     C52294  12.873   7.920   4.799  0.3629 -1.3520 -0.5827
  388MOL0     N52295  12.184   7.533   4.851 -0.0886 -0.8667  0.5091
  388MOL0     N52296  12.066   7.507   4.901 -0.0992 -0.7081  0.8070
  388MOL0     C52297  11.272   7.878   5.564  0.2471 -0.5708 -0.7270
  388MOL0     C52298  11.142   7.930   5.556  0.1151 -0.9359 -0.1440
  388MOL0     C52299  10.826   8.183   5.312  1.2468 -0.9441 -0.5404
  388MOL0     C52300  10.808   8.275   5.208  1.1098 -0.8743  0.5757
  388MOL0     C52301  10.682   8.337   5.177 -0.1778 -0.8944 -1.0388
  388MOL0     C52302  10.567   8.291   5.244 -0.0397 -0.3860  0.8059
  388MOL0     O52303  10.444   8.349   5.207 -0.6450  0.0454 -0.8455
  388MOL0     C52304  10.436   8.488   5.210  0.1000 -0.1579 -0.1846
  388MOL0     C52305  10.476   8.553   5.348 -0.7699 -0.0996 -0.2635
  388MOL0     C52306  10.546   8.692   5.344  1.1568  0.4169 -0.0015
  388MOL0     C52307  10.428   8.798   5.353 -2.0097  0.7714  0.2436
  388MOL0     C52308  10.481   8.920   5.298  0.3122 -1.0656 -0.7919
  388MOL0     C52309  10.512   9.028   5.258  0.6757 -0.0528  0.6820
  388MOL0     C52310  10.583   8.195   5.341 -0.0181  0.0019 -0.2943
  388MOL0     C52311  10.714   8.141   5.388 -0.8981  0.1677 -0.0161
  388MOL0     C52312  10.718   8.047   5.505 -0.4451  0.3277  0.2183
  388MOL0     H52313  11.243   8.225   5.409  1.2532  0.4048  1.5420
  388MOL0     H52314  11.460   8.144   5.463  0.8158 -1.4032 -1.3901
  388MOL0     H52315  11.647   7.849   5.672 -1.0346  2.1977  1.2496
  388MOL0     H52316  11.473   7.810   5.710 -1.2475 -1.3249 -1.1337
  388MOL0     H52317  11.463   7.617   5.564 -2.4379  4.4391 -0.2420
  388MOL0     H52318  11.607   7.599   5.666  6.4077  1.7670 -1.8425
  388MOL0     H52319  11.751   7.680   5.486  0.2566  0.1245  1.8861
  388MOL0     H52320  11.621   7.718   5.384  3.8116  4.2442  3.3902
  388MOL0     H52321  11.685   7.422   5.477  3.1867  0.6414 -1.4062
  388MOL0     H52322  11.555   7.476   5.371 -1.0798  2.7519 -0.4938
  388MOL0     H52323  11.707   7.420   5.218 -0.3322 -0.3758  0.8123
  388MOL0     H52324  11.762   7.583   5.222  2.8879  0.8625  0.5216
  388MOL0     H52325  11.926   7.474   5.417  2.0140  2.3947 -0.7514
  388MOL0     H52326  11.874   7.326   5.352  2.1044 -0.7630  0.4489
  388MOL0     H52327  12.096   7.428   5.264 -0.1987 -0.8588  0.0157
  388MOL0     H52328  11.991   7.549   5.171  0.4289 -0.4062 -1.8495
  388MOL0     H52329  11.994   7.254   5.115  1.5034 -0.9530 -1.9893
  388MOL0     H52330  11.882   7.365   5.041 -0.0085 -0.6985 -0.9348
  388MOL0     H52331  12.263   7.263   5.039  4.5358  1.3587 -0.9532
  388MOL0     H52332  12.481   7.398   4.944  0.2741 -0.8889 -0.4438
  388MOL0     H52333  12.436   7.430   4.771  1.3452  3.2123  0.1076
  388MOL0     H52334  12.446   7.660   4.786  0.0145  1.6910  0.2621
  388MOL0     H52335  12.409   7.649   4.960 -1.3472 -3.4901  0.6843
  388MOL0     H52336  12.677   7.562   4.860 -3.8574  0.0809 -2.6030
  388MOL0     H52337  12.613   7.569   5.023 -2.7784 -0.3522  0.1229
  388MOL0     H52338  12.580   7.815   5.006 -0.4268 -2.9507  0.5918
  388MOL0     H52339  12.624   7.812   4.834  1.4744 -0.1417 -0.9592
  388MOL0     H52340  12.958   7.618   4.925  0.3897  0.1179  1.8026
  388MOL0     H52341  13.103   7.609   4.741  2.4317  0.6768  1.1394
  388MOL0     H52342  13.399   7.893   4.502 -2.7007  1.4496 -2.5225
  388MOL0     H52343  13.588   7.891   4.344  0.0353  0.2799 -1.6342
  388MOL0     H52344  13.582   7.497   4.071  1.4231 -1.8574 -1.5753
  388MOL0     H52345  13.653   7.626   3.973  1.2276  1.1885 -0.3062
  388MOL0     H52346  13.873   7.582   4.088 -0.1955 -0.4997 -2.0203
  388MOL0     H52347  13.797   7.462   4.190  3.9582  0.0389  0.1408
  388MOL0     H52348  13.746   7.323   3.986  0.1398  0.9246  4.9681
  388MOL0     H52349  13.794   7.462   3.882 -1.0692  0.8478  0.6946
  388MOL0     H52350  13.968   7.265   4.032 -0.3036 -2.5516 -3.2665
  388MOL0     H52351  14.033   7.432   4.012 -0.4934  0.1906 -0.9141
  388MOL0     H52352  13.980   7.379   3.755  1.7124 -0.2492 -0.6031
  388MOL0     H52353  13.945   7.224   3.814 -0.9387 -0.3367  3.5770
  388MOL0     H52354  14.192   7.404   3.850 -3.1313  1.5576 -1.2303
  388MOL0     H52355  14.200   7.226   3.898 -2.5830 -3.4170 -3.0981
  388MOL0     H52356  14.118   7.288   3.618  3.3361 -0.3649 -1.1757
  388MOL0     H52357  14.174   7.138   3.683 -1.3384 -0.0461 -2.8143
  388MOL0     H52358  14.330   7.261   3.540 -0.7730  1.8506 -0.3598
  388MOL0     H52359  14.345   7.379   3.668  0.0395 -0.3339  2.8001
  388MOL0     H52360  13.424   7.507   4.211 -1.0033  2.7140 -1.8903
  388MOL0     H52361  13.262   7.514   4.352  0.0477 -0.7004 -1.2735
  388MOL0     H52362  12.965   8.003   4.630  0.8858 -1.9031 -0.2479
  388MOL0     H52363  12.803   8.002   4.804  0.8280 -0.7501 -2.9237
  388MOL0     H52364  11.279   7.777   5.602 -0.6781 -0.7080 -0.8835
  388MOL0     H52365  11.057   7.879   5.600  0.6519  0.4382  2.7332
  388MOL0     H52366  10.893   8.292   5.144  1.5269  4.1052  2.0851
  388MOL0     H52367  10.680   8.402   5.090 -0.7997  1.0713  0.3613
  388MOL0     H52368  10.332   8.517   5.192  0.1384 -1.4668 -3.1414
  388MOL0     H52369  10.488   8.529   5.123 -0.2613  1.6762  0.4151
  388MOL0     H52370  10.543   8.485   5.402 -0.1555 -2.2904 -3.4813
  388MOL0     H52371  10.381   8.548   5.401  0.2787 -2.5647  1.5859
  388MOL0     H52372  10.615   8.692   5.259  0.0504 -1.3461 -0.9508
  388MOL0     H52373  10.611   8.709   5.430  0.6137 -3.1457  1.2480
  388MOL0     H52374  10.343   8.769   5.290 -2.7554  2.5340  0.3758
  388MOL0     H52375  10.393   8.807   5.457 -1.7074  1.8287  0.2639
  388MOL0     H52376  10.533   9.117   5.201  0.8453 -0.4981  0.0301
  388MOL0     H52377  10.494   8.160   5.393  0.9803 -0.3831  1.2334
  388MOL0     H52378  10.778   7.963   5.471  0.9425  1.1692  0.5045
  388MOL0     H52379  10.765   8.104   5.586 -2.9709  2.6068  0.2268
  388MOL0     H52380  10.620   8.004   5.527  0.4837 -1.3732  1.2684
  389MOL0     O52381   0.488   5.520   5.885 -0.1158 -0.0078 -0.6423
  389MOL0     C52382   0.448   5.576   5.988  0.3303 -1.2523  0.2416
  389MOL0     O52383   0.347   5.533   6.061  0.4188  0.4490 -0.5579
  389MOL0     C52384   0.324   5.401   6.078  0.2520  0.5514  1.0834
  389MOL0     C52385   0.418   5.308   6.127 -0.1169 -0.1768  0.4955
  389MOL0     C52386   0.381   5.178   6.154 -0.0250  0.7274  0.3262
  389MOL0     C52387   0.249   5.137   6.143 -0.1101 -0.1728 -0.2179
  389MOL0     O52388   0.213   5.010   6.189  0.0592 -0.3132 -0.0296
  389MOL0     C52389   0.308   4.907   6.228  0.1651 -0.3306  0.1732
  389MOL0     C52390   0.363   4.836   6.107 -0.1580 -0.0539  0.3125
  389MOL0     C52391   0.251   4.785   6.012  0.9205  0.0960  0.0983
  389MOL0     C52392   0.145   4.696   6.076  0.0497  1.0828  0.4468
  389MOL0     C52393   0.044   4.649   5.973  0.4539 -0.1687  1.4648
  389MOL0     C52394  -0.076   4.559   6.023 -0.8312 -0.3612 -0.4828
  389MOL0     C52395  -0.175   4.516   5.915 -0.2701 -0.2407 -0.3320
  389MOL0     C52396  -0.281   4.420   5.955  0.8978  0.1096  0.1863
  389MOL0     N52397  -0.379   4.466   6.060  0.4130 -0.0319  0.0926
  389MOL0     C52398  -0.476   4.563   6.029 -0.0431  0.1112  0.1879
  389MOL0     C52399  -0.550   4.584   6.143  0.1589  0.1208 -0.2166
  389MOL0     C52400  -0.661   4.679   6.179  1.2127 -0.0245  0.4385
  389MOL0     C52401  -0.801   4.617   6.154 -0.0158 -0.2430  0.5845
  389MOL0     C52402  -0.912   4.712   6.200  0.6334 -1.0271  0.3212
  389MOL0     C52403  -1.046   4.681   6.138  0.0982 -0.1394 -0.4025
  389MOL0     O52404  -1.153   4.743   6.212  0.2984 -0.0153 -0.4060
  389MOL0     C52405  -1.271   4.679   6.236  0.8201 -0.5300  0.1118
  389MOL0     C52406  -1.317   4.694   6.372 -0.2157  0.5299  0.2185
  389MOL0     C52407  -1.443   4.654   6.414 -0.3675  0.1226  0.5935
  389MOL0     C52408  -1.519   4.591   6.317 -0.5556  1.0208  0.2994
  389MOL0     C52409  -1.648   4.537   6.352  0.1577  0.0636 -0.3616
  389MOL0     O52410  -1.746   4.526   6.257 -0.5057  0.2091  0.7833
  389MOL0     C52411  -1.866   4.456   6.278 -0.0764  1.3031  0.3283
  389MOL0     C52412  -1.975   4.478   6.186 -0.2119  0.6258  0.3930
  389MOL0     C52413  -2.101   4.421   6.205  0.2618  0.0736 -0.4532
  389MOL0     C52414  -2.114   4.323   6.303 -0.1869  0.5014  0.6119
  389MOL0     O52415  -2.222   4.243   6.325 -0.1878 -0.7308 -0.5233
  389MOL0     C52416  -2.336   4.263   6.234 -1.2421 -0.6153 -0.8251
  389MOL0     C52417  -2.453   4.194   6.301 -0.0197  0.5618  0.0996
  389MOL0     C52418  -2.421   4.042   6.324  0.3323  0.0079 -1.1758
  389MOL0     C52419  -2.544   3.972   6.384 -0.5982 -0.1158  0.0291
  389MOL0     C52420  -2.534   3.823   6.371 -0.3966  0.2496  0.2047
  389MOL0     C52421  -2.674   3.761   6.363 -0.1063 -0.5689  1.5658
  389MOL0     C52422  -2.666   3.621   6.312  0.6755  0.7111  0.4532
  389MOL0     C52423  -2.649   3.605   6.158  0.2813 -0.0477 -0.2061
  389MOL0    Cl52424  -2.814   3.628   6.067  0.0280  0.0560  0.4230
  389MOL0     C52425  -2.008   4.289   6.388 -0.3586  0.5548 -0.3953
  389MOL0     C52426  -1.886   4.358   6.380 -0.1512  0.1496  0.5652
  389MOL0     O52427  -1.661   4.498   6.470  0.4493  0.1829  0.8185
  389MOL0     C52428  -1.473   4.580   6.178  0.2026  0.4511 -0.3214
  389MOL0     C52429  -1.353   4.636   6.139 -0.1071  0.3041 -0.0584
  389MOL0     N52430  -0.493   4.500   6.237  0.3684 -0.4186 -0.9279
  389MOL0     N52431  -0.390   4.437   6.198  0.9201 -0.3951 -0.7247
  389MOL0     C52432   0.155   5.227   6.100  0.2426 -0.0005  0.6348
  389MOL0     C52433   0.190   5.357   6.068  0.0310 -0.5876 -0.3918
  389MOL0     C52434   0.511   5.713   6.022 -0.1092  0.5300  0.8431
  389MOL0     C52435   0.446   5.807   6.101  0.4348 -0.3238 -0.2276
  389MOL0     C52436   0.508   5.924   6.140  1.0655  0.4508  0.0830
  389MOL0     C52437   0.628   5.957   6.111 -0.9846  0.0652 -0.0996
  389MOL0     O52438   0.671   6.081   6.149  0.0841  0.3543 -0.4154
  389MOL0     C52439   0.815   6.088   6.179 -0.1208  0.3435 -0.5267
  389MOL0     C52440   0.832   6.240   6.224 -0.2745  0.2344 -1.0790
  389MOL0     C52441   0.981   6.241   6.258  0.5979  0.2561  0.1173
  389MOL0     C52442   1.030   6.373   6.319  0.2660 -0.5048  0.2176
  389MOL0     C52443   1.166   6.410   6.287 -1.3202  0.0383  0.5826
  389MOL0     C52444   1.273   6.427   6.245  0.3331  0.6615  0.6033
  389MOL0     C52445   0.699   5.870   6.033  0.2145  0.8104 -0.8811
  389MOL0     C52446   0.647   5.745   5.991 -0.5602  0.0861  0.1172
  389MOL0     C52447   0.732   5.659   5.905  0.1655 -0.4255 -0.4463
  389MOL0     H52448   0.523   5.325   6.145  0.1344 -1.0107 -0.1684
  389MOL0     H52449   0.458   5.106   6.181 -0.2178 -0.0448 -1.1156
  389MOL0     H52450   0.401   4.936   6.279 -0.1534  2.3575 -0.5920
  389MOL0     H52451   0.250   4.846   6.298  1.0443  0.8149  2.0138
  389MOL0     H52452   0.429   4.751   6.122 -1.2492 -1.0514 -0.3544
  389MOL0     H52453   0.420   4.916   6.057  1.5834 -3.0808 -2.9884
  389MOL0     H52454   0.304   4.730   5.934 -2.2828  1.1496 -3.1006
  389MOL0     H52455   0.200   4.870   5.965  0.6715 -1.0718 -1.8837
  389MOL0     H52456   0.194   4.613   6.128 -1.4458  1.3783  2.4647
  389MOL0     H52457   0.099   4.762   6.150  0.1022 -0.8882  2.3326
  389MOL0     H52458  -0.004   4.730   5.917 -1.0617 -2.7751 -1.3698
  389MOL0     H52459   0.097   4.597   5.893 -0.4910  0.2400  0.5432
  389MOL0     H52460  -0.036   4.464   6.062  1.4755  0.9115  0.5148
  389MOL0     H52461  -0.118   4.610   6.110  0.2426  1.2743 -0.8887
  389MOL0     H52462  -0.118   4.459   5.840  1.7000  0.9227  0.2161
  389MOL0     H52463  -0.210   4.609   5.869 -0.4146 -1.2594 -2.4079
  389MOL0     H52464  -0.348   4.397   5.871 -0.0563 -1.6447  1.3681
  389MOL0     H52465  -0.230   4.325   5.971  0.6017 -0.9003 -3.8212
  389MOL0     H52466  -0.506   4.609   5.935 -3.3615 -0.1368  1.0242
  389MOL0     H52467  -0.657   4.713   6.283  2.7475  0.8607  0.1202
  389MOL0     H52468  -0.654   4.769   6.117  0.9310 -0.6427 -0.5049
  389MOL0     H52469  -0.812   4.600   6.047  4.1186  2.1958 -0.4279
  389MOL0     H52470  -0.800   4.520   6.205 -0.4514  0.3839  1.8262
  389MOL0     H52471  -0.877   4.812   6.176 -0.5840 -0.4650  0.8233
  389MOL0     H52472  -0.911   4.712   6.310 -2.3841 -3.4955  0.4929
  389MOL0     H52473  -1.038   4.572   6.146  4.2714  0.0711  0.9365
  389MOL0     H52474  -1.040   4.718   6.036  1.4611 -0.7388 -0.5576
  389MOL0     H52475  -1.260   4.754   6.443 -0.1605  1.4909 -0.6210
  389MOL0     H52476  -1.480   4.654   6.516 -0.9518  0.7921  0.3885
  389MOL0     H52477  -1.962   4.545   6.101  2.5859 -0.0345  0.1890
  389MOL0     H52478  -2.170   4.434   6.122  1.0788  2.2937 -0.8405
  389MOL0     H52479  -2.357   4.369   6.222 -0.8416 -0.2712  1.1053
  389MOL0     H52480  -2.318   4.224   6.133 -0.2319 -1.3213 -0.3886
  389MOL0     H52481  -2.481   4.259   6.384  0.6823 -1.8238  2.3665
  389MOL0     H52482  -2.535   4.213   6.231 -1.5968  1.4187  2.0913
  389MOL0     H52483  -2.401   3.995   6.227 -0.5974 -0.3110 -1.2175
  389MOL0     H52484  -2.342   4.027   6.399 -3.3726  2.2842  3.7903
  389MOL0     H52485  -2.629   4.014   6.330 -0.5023 -0.9936 -0.8421
  389MOL0     H52486  -2.555   3.994   6.491  1.7282 -2.1194  0.7839
  389MOL0     H52487  -2.476   3.786   6.456 -0.9407  0.1683  0.5439
  389MOL0     H52488  -2.469   3.794   6.287  0.4551 -2.2769  1.6106
  389MOL0     H52489  -2.725   3.779   6.458 -3.2647  2.0414 -0.4285
  389MOL0     H52490  -2.737   3.817   6.294  0.6494 -1.3142  0.2305
  389MOL0     H52491  -2.761   3.577   6.345  0.7274  0.7305  0.6299
  389MOL0     H52492  -2.583   3.578   6.369  2.8648  3.5225 -0.3311
  389MOL0     H52493  -2.580   3.677   6.114  2.1715 -2.4635 -1.4563
  389MOL0     H52494  -2.607   3.506   6.137 -1.0719 -0.3677 -1.6242
  389MOL0     H52495  -2.027   4.233   6.479 -0.5135  3.0600  1.2227
  389MOL0     H52496  -1.811   4.343   6.457 -0.1382  1.0978  0.7511
  389MOL0     H52497  -1.536   4.542   6.097 -0.8078  0.6771  0.3326
  389MOL0     H52498  -1.312   4.638   6.038  1.4391 -2.0101  0.4629
  389MOL0     H52499   0.060   5.177   6.115 -0.0222  1.2301  3.9113
  389MOL0     H52500   0.111   5.428   6.045  2.3124  1.2208 -3.3927
  389MOL0     H52501   0.345   5.800   6.140  0.6080 -1.1252  0.0830
  389MOL0     H52502   0.450   5.993   6.200 -0.2811 -0.0942 -0.5553
  389MOL0     H52503   0.884   6.063   6.098  1.2324 -2.9159  1.4582
  389MOL0     H52504   0.840   6.014   6.256 -0.2581 -1.8952 -2.5408
  389MOL0     H52505   0.770   6.262   6.311 -0.7337 -0.8371 -1.1107
  389MOL0     H52506   0.814   6.310   6.142  0.5427  0.8803 -0.7192
  389MOL0     H52507   1.045   6.209   6.175  1.4019 -2.2430  1.5873
  389MOL0     H52508   0.995   6.162   6.332  1.8650 -1.0824 -1.4702
  389MOL0     H52509   0.959   6.450   6.286 -0.1433 -0.7293  0.5584
  389MOL0     H52510   1.011   6.366   6.426 -0.2265  2.1531  0.3859
  389MOL0     H52511   1.368   6.467   6.217  1.7082 -1.7657  1.4707
  389MOL0     H52512   0.797   5.904   5.999  0.3884 -0.0835 -1.3128
  389MOL0     H52513   0.674   5.641   5.814  0.0269 -2.4523 -0.0073
  389MOL0     H52514   0.830   5.708   5.897 -0.5700  1.4141  0.9904
  389MOL0     H52515   0.741   5.559   5.948  1.1719 -1.1599 -2.2473
  390MOL0     O52516   3.706   3.272   4.283  0.1509  0.7910 -0.5467
  390MOL0     C52517   3.693   3.154   4.259  0.5320  0.7135 -0.3581
  390MOL0     O52518   3.617   3.064   4.323  0.4748 -0.2806  0.3994
  390MOL0     C52519   3.557   3.088   4.437 -0.0331 -1.1746 -0.1153
  390MOL0     C52520   3.468   2.985   4.477 -0.0888  0.2701 -0.1774
  390MOL0     C52521   3.395   2.989   4.599  0.6366 -0.4419  0.4046
  390MOL0     C52522   3.416   3.094   4.688 -0.8121 -0.3764 -0.4827
  390MOL0     O52523   3.318   3.099   4.783  0.2041 -0.3960 -0.2195
  390MOL0     C52524   3.280   3.227   4.833 -0.1688 -0.3430  0.1111
  390MOL0     C52525   3.157   3.223   4.925 -0.0359  0.1339  0.3001
  390MOL0     C52526   3.036   3.185   4.845  0.2515 -0.7738  0.3071
  390MOL0     C52527   2.914   3.249   4.885 -0.2760  0.1051 -0.4882
  390MOL0     C52528   2.789   3.177   4.843  1.1291  0.2878  0.0919
  390MOL0     C52529   2.769   3.165   4.693  0.7975 -0.2615 -0.4026
  390MOL0     C52530   2.620   3.119   4.675 -1.0594 -0.3588 -0.6115
  390MOL0     C52531   2.502   3.183   4.748 -0.2127  0.2784 -0.4980
  390MOL0     N52532   2.374   3.138   4.692 -0.0656 -0.6439 -0.1435
  390MOL0     C52533   2.346   3.008   4.673 -1.2325 -0.3842  0.3497
  390MOL0     C52534   2.221   3.000   4.624 -0.6455  0.3652 -0.1327
  390MOL0     C52535   2.144   2.889   4.555 -0.3524 -0.0828 -0.8528
  390MOL0     C52536   2.114   2.787   4.659  0.1049  0.9303  0.0570
  390MOL0     C52537   2.232   2.684   4.657 -0.4983  0.7569 -0.3271
  390MOL0     C52538   2.188   2.567   4.737 -0.0040  0.6003  0.6190
  390MOL0     O52539   2.286   2.466   4.739 -0.0377  0.0733  0.1055
  390MOL0     C52540   2.269   2.362   4.830  0.0052  0.7326 -0.0978
  390MOL0     C52541   2.378   2.280   4.856  0.1924 -0.4452  1.3047
  390MOL0     C52542   2.373   2.175   4.948  0.3019  0.1381 -0.1295
  390MOL0     C52543   2.253   2.144   5.020  0.0606 -0.5766  1.0405
  390MOL0     C52544   2.240   2.039   5.123  0.3079  0.6359 -0.7466
  390MOL0     O52545   2.129   2.055   5.201  0.3664 -0.0479 -0.7656
  390MOL0     C52546   2.126   2.036   5.336 -0.5570 -0.6745  0.9505
  390MOL0     C52547   2.004   2.054   5.402 -0.0252  1.3776 -0.2148
  390MOL0     C52548   1.987   2.040   5.542 -0.8615 -0.5811  1.1064
  390MOL0     C52549   2.107   2.023   5.624 -0.1367 -0.3495  0.4018
  390MOL0     O52550   2.110   2.006   5.763 -0.9185  0.2764 -0.3517
  390MOL0     C52551   1.984   2.006   5.828 -0.1723  0.7399  0.3316
  390MOL0     C52552   1.921   2.152   5.836 -0.0571  0.7179  0.4449
  390MOL0     C52553   1.768   2.145   5.817  0.4307 -0.2850 -1.0882
  390MOL0     C52554   1.690   2.099   5.945 -0.4553 -0.8205 -0.4752
  390MOL0     C52555   1.532   2.097   5.925  0.3971 -0.8525  0.8187
  390MOL0     C52556   1.466   2.229   5.875  0.7619  0.6803  0.2528
  390MOL0     C52557   1.314   2.235   5.876 -0.0505 -0.4818  0.1308
  390MOL0     C52558   1.268   2.228   5.732 -0.1689  0.4931 -0.9862
  390MOL0    Cl52559   1.087   2.195   5.713  0.5078  0.0138  0.1061
  390MOL0     C52560   2.232   2.024   5.557  1.0368  0.3124 -0.2639
  390MOL0     C52561   2.241   2.025   5.414 -0.9463  0.7057 -0.0721
  390MOL0     O52562   2.330   1.955   5.139 -0.2562 -0.8221 -1.0963
  390MOL0     C52563   2.142   2.230   4.997 -0.3479  0.2479  0.5588
  390MOL0     C52564   2.149   2.327   4.901 -0.6697  0.1034  0.4675
  390MOL0     N52565   2.169   3.129   4.612 -0.3682  0.2978 -0.4265
  390MOL0     N52566   2.264   3.211   4.658 -0.5740  0.2772  0.2788
  390MOL0     C52567   3.517   3.181   4.660  0.0830 -0.1862 -0.5696
  390MOL0     C52568   3.582   3.191   4.533 -0.7534  0.3348 -0.7302
  390MOL0     C52569   3.746   3.122   4.123 -0.3665 -0.3417  0.1653
  390MOL0     C52570   3.679   3.026   4.037  0.0386  0.1003 -0.2046
  390MOL0     C52571   3.721   2.979   3.910 -0.7563 -0.5483  0.6624
  390MOL0     C52572   3.848   3.024   3.866 -0.4551 -0.0718  0.1284
  390MOL0     O52573   3.910   3.011   3.741 -0.9290 -0.6025 -0.2491
  390MOL0     C52574   3.868   2.916   3.648 -1.2473  0.6516  0.9463
  390MOL0     C52575   3.985   2.867   3.558  0.6115  0.0406 -0.7060
  390MOL0     C52576   4.065   2.751   3.645  0.3599 -0.8084 -0.0652
  390MOL0     C52577   4.165   2.676   3.555 -0.0322  0.2159 -0.7878
  390MOL0     C52578   4.242   2.585   3.637  0.1765  0.0737  0.2735
  390MOL0     C52579   4.300   2.516   3.714 -0.7031  0.0926 -0.1670
  390MOL0     C52580   3.923   3.107   3.953 -0.5211  0.4828 -0.1850
  390MOL0     C52581   3.877   3.164   4.076  0.6033  0.2065  0.9241
  390MOL0     C52582   3.979   3.250   4.153 -1.4092 -0.1569  0.0504
  390MOL0     H52583   3.455   2.896   4.416  0.8541 -1.6952  2.2783
  390MOL0     H52584   3.330   2.912   4.640  1.8024  0.2146  3.8334
  390MOL0     H52585   3.366   3.258   4.894 -1.1442  3.5787 -0.2367
  390MOL0     H52586   3.263   3.305   4.758 -0.0003  1.7942  2.1530
  390MOL0     H52587   3.155   3.320   4.976  0.5235 -0.1728  0.9277
  390MOL0     H52588   3.170   3.144   5.000  0.6963  0.2467  0.2982
  390MOL0     H52589   3.020   3.078   4.853 -0.2447 -0.8859 -1.7367
  390MOL0     H52590   3.047   3.209   4.739  1.9972 -1.9192  0.1963
  390MOL0     H52591   2.904   3.261   4.993  2.0165 -0.7126 -0.1176
  390MOL0     H52592   2.909   3.346   4.835 -0.4986 -1.3795 -3.5711
  390MOL0     H52593   2.789   3.084   4.900  0.9951  0.5968  0.5996
  390MOL0     H52594   2.707   3.231   4.891 -0.1733 -2.8154  1.6499
  390MOL0     H52595   2.792   3.250   4.627  0.6611 -0.1719 -0.3350
  390MOL0     H52596   2.839   3.091   4.654  0.8780  0.4420 -1.6588
  390MOL0     H52597   2.611   3.015   4.706 -0.0970 -0.2409  0.0946
  390MOL0     H52598   2.604   3.118   4.566 -1.8568  1.8899 -0.5640
  390MOL0     H52599   2.524   3.139   4.846  3.3159  4.3308  0.8587
  390MOL0     H52600   2.496   3.293   4.750 -1.0225  0.2853  3.0944
  390MOL0     H52601   2.422   2.931   4.668 -0.5509  0.2779 -4.2452
  390MOL0     H52602   2.048   2.931   4.524 -0.7832  0.0280  0.5716
  390MOL0     H52603   2.205   2.861   4.468 -0.4566 -1.0196 -0.6345
  390MOL0     H52604   2.105   2.833   4.758 -0.5912  0.2632  0.3095
  390MOL0     H52605   2.019   2.737   4.637  1.2734 -1.8632  0.9635
  390MOL0     H52606   2.321   2.731   4.699 -1.2165  0.4154  1.7072
  390MOL0     H52607   2.255   2.640   4.560 -2.3614 -1.5182  0.1780
  390MOL0     H52608   2.104   2.515   4.691  1.2047 -1.5712  0.7152
  390MOL0     H52609   2.163   2.594   4.840 -2.0902 -2.9106  1.1977
  390MOL0     H52610   2.472   2.302   4.809  0.4208 -1.9069  1.0092
  390MOL0     H52611   2.456   2.111   4.974 -0.7516 -1.8341 -1.3193
  390MOL0     H52612   1.910   2.088   5.360 -0.5591  1.0676  0.7057
  390MOL0     H52613   1.886   2.038   5.581 -1.8985  2.7846 -1.0318
  390MOL0     H52614   1.921   1.931   5.779 -0.7565  2.7620 -2.2269
  390MOL0     H52615   2.005   1.972   5.930  3.3446  0.8769 -0.2240
  390MOL0     H52616   1.943   2.190   5.936 -1.4659  1.9371  0.3240
  390MOL0     H52617   1.967   2.219   5.762  2.8458 -0.7570  0.7588
  390MOL0     H52618   1.748   2.252   5.800 -0.0704 -0.5281 -2.0996
  390MOL0     H52619   1.741   2.083   5.731  2.1097 -0.5729 -1.4523
  390MOL0     H52620   1.708   2.167   6.029 -0.2086 -2.3222  0.7257
  390MOL0     H52621   1.723   2.000   5.978  0.3097 -0.1704  0.7965
  390MOL0     H52622   1.493   2.089   6.026  0.2222  0.9423  0.9287
  390MOL0     H52623   1.501   2.010   5.867 -0.2167 -0.6350  0.8203
  390MOL0     H52624   1.494   2.311   5.942  0.5985  0.9667 -0.0252
  390MOL0     H52625   1.493   2.261   5.774 -2.8720 -0.0785 -1.0897
  390MOL0     H52626   1.277   2.325   5.927  4.2277  0.1904  2.5263
  390MOL0     H52627   1.276   2.154   5.939 -0.4356 -0.6115 -0.2612
  390MOL0     H52628   1.304   2.312   5.672  1.8587 -1.2918 -2.4616
  390MOL0     H52629   1.314   2.137   5.692  1.4803 -0.6366  3.0165
  390MOL0     H52630   2.327   2.010   5.608  1.6133 -1.9121 -1.7939
  390MOL0     H52631   2.331   2.029   5.354 -0.2614  0.3509  0.9154
  390MOL0     H52632   2.053   2.220   5.058 -0.1814  1.3896  1.0074
  390MOL0     H52633   2.057   2.385   4.899 -0.4661  0.5177  1.8039
  390MOL0     H52634   3.543   3.254   4.736 -2.9529  0.1388  0.3213
  390MOL0     H52635   3.661   3.264   4.519 -2.2268  2.2951  0.6296
  390MOL0     H52636   3.577   3.002   4.065  0.0666 -0.5210 -0.6275
  390MOL0     H52637   3.657   2.907   3.860  1.7037 -1.3989 -1.5183
  390MOL0     H52638   3.811   2.973   3.574  2.0533  3.6662  0.4958
  390MOL0     H52639   3.807   2.830   3.680 -2.8058 -0.8521 -4.7951
  390MOL0     H52640   4.048   2.946   3.515 -1.0030  2.9729  1.9356
  390MOL0     H52641   3.927   2.820   3.477 -3.1169 -3.6971  3.5952
  390MOL0     H52642   3.997   2.684   3.699 -1.0628  1.0480  0.5535
  390MOL0     H52643   4.124   2.813   3.713  0.6090  0.4076 -1.3373
  390MOL0     H52644   4.112   2.622   3.476 -0.6642 -0.5998  0.1589
  390MOL0     H52645   4.218   2.747   3.491 -0.9395  0.3640 -1.3927
  390MOL0     H52646   4.325   2.464   3.805 -2.9051  1.0449  1.0382
  390MOL0     H52647   4.021   3.141   3.922  0.0062 -0.2154  0.6753
  390MOL0     H52648   3.939   3.324   4.223 -4.1982 -1.4676 -0.0504
  390MOL0     H52649   4.055   3.188   4.202  2.2456  2.9982 -1.0933
  390MOL0     H52650   4.031   3.314   4.081  1.4577 -1.6604  0.5961
  391MOL0     O52651  10.455   5.751   4.455 -0.5235 -0.4122 -0.1551
  391MOL0     C52652  10.404   5.844   4.514 -0.0115  0.0870 -0.2603
  391MOL0     O52653  10.317   5.836   4.616  0.2907  0.0596 -0.0480
  391MOL0     C52654  10.255   5.712   4.635 -1.1406 -0.9757 -0.5075
  391MOL0     C52655  10.333   5.601   4.686 -0.2105 -0.2822  0.3368
  391MOL0     C52656  10.258   5.487   4.727 -0.5444  0.9141  0.5140
  391MOL0     C52657  10.123   5.464   4.700 -0.0761 -0.7846 -0.3422
  391MOL0     O52658  10.048   5.351   4.691  0.2832  0.6371  0.2060
  391MOL0     C52659  10.129   5.236   4.678 -0.9667  0.0547  0.1664
  391MOL0     C52660  10.057   5.123   4.604  0.7203 -0.0048  0.2800
  391MOL0     C52661  10.124   4.996   4.580  0.2634 -0.1450  0.3199
  391MOL0     C52662  10.159   4.935   4.714  0.3117  0.0918  0.2114
  391MOL0     C52663  10.216   4.799   4.705 -0.5857  0.0570  0.0440
  391MOL0     C52664  10.329   4.764   4.611  0.1203 -0.4431  0.2158
  391MOL0     C52665  10.387   4.631   4.632 -0.7636 -0.2334  0.1780
  391MOL0     C52666  10.500   4.598   4.531  0.1152  0.1951  0.8983
  391MOL0     N52667  10.606   4.699   4.526 -0.3378 -0.5102 -1.2072
  391MOL0     C52668  10.684   4.745   4.633  0.4730 -0.6421 -0.3553
  391MOL0     C52669  10.787   4.815   4.571  0.6188  0.9117 -0.1005
  391MOL0     C52670  10.902   4.860   4.647 -1.1289 -0.1702  0.8070
  391MOL0     C52671  10.878   4.980   4.733  0.4168 -0.6398  0.8052
  391MOL0     C52672  10.995   5.014   4.818 -0.4869 -0.3401 -0.2910
  391MOL0     C52673  11.126   5.041   4.735  0.3358 -1.3092 -0.3286
  391MOL0     O52674  11.125   5.158   4.643  0.2132  0.0058 -0.1178
  391MOL0     C52675  11.186   5.121   4.532 -0.2130 -0.4067  0.1971
  391MOL0     C52676  11.324   5.087   4.545  0.2905  0.9617 -0.4800
  391MOL0     C52677  11.400   5.055   4.432  0.6477  0.0299 -0.1941
  391MOL0     C52678  11.342   5.063   4.306 -0.0260 -1.2928 -0.6547
  391MOL0     C52679  11.426   5.057   4.186  0.1351  0.4273 -0.0839
  391MOL0     O52680  11.555   5.070   4.223  0.0744  0.1494  0.4370
  391MOL0     C52681  11.648   5.069   4.127  0.2226  0.3331  0.2445
  391MOL0     C52682  11.766   5.127   4.187  0.1755  1.9887  0.7118
  391MOL0     C52683  11.890   5.128   4.111 -0.1663  0.2976 -0.5235
  391MOL0     C52684  11.885   5.094   3.975  0.4918 -0.2298 -0.2882
  391MOL0     O52685  12.009   5.107   3.916  0.2452  0.0868 -0.2746
  391MOL0     C52686  12.106   5.001   3.945 -0.3487  0.2979 -1.0529
  391MOL0     C52687  12.069   4.865   3.875 -0.1093  0.4107 -0.1112
  391MOL0     C52688  12.042   4.886   3.725  0.4365 -0.2814 -0.2613
  391MOL0     C52689  11.989   4.756   3.658  0.5174  0.2031  0.3377
  391MOL0     C52690  11.996   4.763   3.507 -0.4893 -0.1799  0.1388
  391MOL0     C52691  11.904   4.652   3.431 -0.5038 -0.4365 -0.4842
  391MOL0     C52692  11.937   4.514   3.476  0.5233  0.0944  0.1497
  391MOL0     C52693  11.877   4.407   3.388  0.5467  0.0498 -0.1098
  391MOL0    Cl52694  11.910   4.233   3.448 -0.1844 -0.0983  0.0083
  391MOL0     C52695  11.767   5.052   3.912 -0.4146  0.2666 -0.1120
  391MOL0     C52696  11.649   5.026   3.989  0.0603 -0.2498 -0.9413
  391MOL0     O52697  11.377   5.042   4.073 -0.9298  0.0699 -0.0386
  391MOL0     C52698  11.203   5.094   4.302 -0.3628 -0.3451 -0.4917
  391MOL0     C52699  11.121   5.114   4.412  0.6742  0.1790 -0.5854
  391MOL0     N52700  10.773   4.815   4.439 -0.4293  0.3240 -0.2835
  391MOL0     N52701  10.663   4.747   4.409  0.3391  0.2316  0.2305
  391MOL0     C52702  10.057   5.574   4.639 -0.3897  0.7981  0.2002
  391MOL0     C52703  10.122   5.692   4.603  0.7491  0.4372 -0.1249
  391MOL0     C52704  10.435   5.984   4.484 -0.4202  0.2397 -0.4477
  391MOL0     C52705  10.456   6.021   4.352  0.0444  0.0630  0.8740
  391MOL0     C52706  10.484   6.151   4.321 -0.0381 -0.2794 -0.1485
  391MOL0     C52707  10.506   6.259   4.416  1.0392  1.0012  0.0845
  391MOL0     O52708  10.522   6.386   4.369 -1.2038  0.3168  0.1693
  391MOL0     C52709  10.527   6.489   4.471  0.6580 -0.1350  0.1309
  391MOL0     C52710  10.543   6.616   4.386  0.4616 -0.2976  0.1209
  391MOL0     C52711  10.563   6.741   4.479 -0.0019 -0.2640  0.0179
  391MOL0     C52712  10.594   6.876   4.403  1.2695  0.8709 -0.2097
  391MOL0     C52713  10.727   6.858   4.361 -0.6538  0.6005  0.1209
  391MOL0     C52714  10.842   6.842   4.322  0.3272 -0.0602 -0.4386
  391MOL0     C52715  10.479   6.220   4.547 -0.2752  0.4795  0.2904
  391MOL0     C52716  10.452   6.085   4.587  0.0337 -0.2184 -0.1107
  391MOL0     C52717  10.432   6.064   4.736  0.9608  0.6384  0.4357
  391MOL0     H52718  10.438   5.619   4.710 -0.8957  1.5631  2.2489
  391MOL0     H52719  10.318   5.409   4.773 -1.2737  0.5117  0.7845
  391MOL0     H52720  10.221   5.259   4.623 -1.7202  0.4726 -0.9608
  391MOL0     H52721  10.155   5.192   4.774  1.0520 -1.1805 -0.8659
  391MOL0     H52722  10.015   5.161   4.510 -0.9365 -3.2423 -0.4305
  391MOL0     H52723   9.961   5.101   4.652  1.3734 -0.7824  1.2694
  391MOL0     H52724  10.216   5.010   4.523  0.9797 -0.3351  1.3915
  391MOL0     H52725  10.056   4.929   4.528  1.9806  0.0021 -2.3012
  391MOL0     H52726  10.231   4.993   4.771 -4.1516  3.8181  2.7343
  391MOL0     H52727  10.075   4.924   4.783  1.0529 -1.6207  0.9172
  391MOL0     H52728  10.244   4.756   4.802  0.3315 -4.0112 -1.8369
  391MOL0     H52729  10.130   4.746   4.664 -0.0650  0.5012 -1.7111
  391MOL0     H52730  10.298   4.773   4.507 -0.9795 -0.0109  0.5720
  391MOL0     H52731  10.409   4.837   4.626 -0.9285  0.3384  2.3438
  391MOL0     H52732  10.307   4.556   4.629 -1.3051  0.3567 -2.2306
  391MOL0     H52733  10.429   4.633   4.733  2.3566 -0.3314 -0.9998
  391MOL0     H52734  10.540   4.498   4.547 -0.1159 -0.2148 -0.8510
  391MOL0     H52735  10.446   4.583   4.437  1.7092 -2.5813  0.2955
  391MOL0     H52736  10.674   4.724   4.739 -2.6088  1.3485 -0.1548
  391MOL0     H52737  10.944   4.780   4.710  3.2547  1.3331  0.1858
  391MOL0     H52738  10.976   4.889   4.571 -0.5594 -0.9205  1.0610
  391MOL0     H52739  10.851   5.067   4.673  0.4430  1.3764  3.5605
  391MOL0     H52740  10.786   4.965   4.789 -0.1733  1.7570  0.5508
  391MOL0     H52741  11.030   4.936   4.885  0.0333 -0.0089 -0.1696
  391MOL0     H52742  10.966   5.099   4.881 -0.9293  0.3997 -1.4493
  391MOL0     H52743  11.151   4.946   4.686 -0.6783 -1.4497 -0.5970
  391MOL0     H52744  11.201   5.052   4.814  0.0589  3.9085 -0.4917
  391MOL0     H52745  11.378   5.093   4.639 -1.4003 -0.1858  0.6263
  391MOL0     H52746  11.506   5.047   4.453  0.5442 -1.1261 -0.0609
  391MOL0     H52747  11.768   5.165   4.288  0.4949  2.4211  0.5476
  391MOL0     H52748  11.982   5.160   4.160 -0.1808  0.2036 -0.4354
  391MOL0     H52749  12.208   5.036   3.925  0.4440 -0.3971  1.4275
  391MOL0     H52750  12.111   4.989   4.053 -1.5216  2.5898 -0.6941
  391MOL0     H52751  12.145   4.788   3.892  0.4169  1.4355  2.6339
  391MOL0     H52752  11.978   4.827   3.923  0.7787  0.1736  1.4639
  391MOL0     H52753  11.977   4.971   3.705  1.8330 -0.0537 -5.4409
  391MOL0     H52754  12.139   4.905   3.679  1.9049 -2.7008  1.6129
  391MOL0     H52755  11.888   4.731   3.693  0.4420 -2.0176 -1.2256
  391MOL0     H52756  12.051   4.668   3.679  0.0904 -1.6296 -4.7143
  391MOL0     H52757  12.093   4.746   3.459  0.6554  0.1821  2.2308
  391MOL0     H52758  11.956   4.861   3.480 -0.4734  0.2800  1.7078
  391MOL0     H52759  11.802   4.677   3.461 -1.6833 -0.9930 -3.6417
  391MOL0     H52760  11.921   4.664   3.323 -2.4108 -2.5457 -1.1011
  391MOL0     H52761  11.907   4.504   3.580  0.4818 -2.0340 -0.0409
  391MOL0     H52762  12.044   4.501   3.463  0.3637 -3.1989  1.3178
  391MOL0     H52763  11.773   4.434   3.367 -0.1167 -1.9182  0.3602
  391MOL0     H52764  11.923   4.407   3.289 -2.7822 -0.9148 -1.8015
  391MOL0     H52765  11.760   5.040   3.805 -0.9228 -4.2251  0.2298
  391MOL0     H52766  11.562   4.974   3.950 -1.4609 -0.7441  2.7107
  391MOL0     H52767  11.164   5.106   4.201  1.6250  3.5290 -0.9930
  391MOL0     H52768  11.018   5.148   4.404  0.1207 -0.6936  1.8491
  391MOL0     H52769   9.955   5.558   4.604 -1.6197  4.5213  1.6811
  391MOL0     H52770  10.058   5.762   4.550 -1.3590 -0.3533  1.2324
  391MOL0     H52771  10.458   5.947   4.272 -0.0192  2.6111 -1.6513
  391MOL0     H52772  10.505   6.168   4.216  2.0724  0.8332  0.4016
  391MOL0     H52773  10.616   6.475   4.532  2.0343 -0.7967 -1.9090
  391MOL0     H52774  10.437   6.494   4.532 -0.0417  1.3832 -0.9331
  391MOL0     H52775  10.460   6.635   4.318 -0.3042  0.5402  1.2539
  391MOL0     H52776  10.637   6.607   4.331  0.7181  0.1784  0.4794
  391MOL0     H52777  10.650   6.735   4.545  1.0922  3.3405 -0.8523
  391MOL0     H52778  10.468   6.758   4.531 -1.2748  2.3136 -2.8010
  391MOL0     H52779  10.526   6.878   4.317 -0.0547 -3.8099  0.4264
  391MOL0     H52780  10.576   6.964   4.466  0.4878 -0.3202  1.3202
  391MOL0     H52781  10.939   6.829   4.279  0.8930  3.0571 -0.3032
  391MOL0     H52782  10.476   6.293   4.628  2.6297  0.3969  0.5939
  391MOL0     H52783  10.499   6.132   4.791  1.1858  0.8715 -0.1217
  391MOL0     H52784  10.326   6.085   4.753  0.0626  0.1784 -3.6896
  391MOL0     H52785  10.454   5.961   4.765 -0.7533 -0.1326 -0.8484
  392MOL0     O52786   5.928  10.273   6.163 -0.9684 -0.4342  0.3918
  392MOL0     C52787   5.966  10.295   6.048  0.0207  0.2744  0.2294
  392MOL0     O52788   5.891  10.357   5.945  0.4665 -0.1042  0.8930
  392MOL0     C52789   5.761  10.325   5.940  1.1918 -0.4457 -0.1448
  392MOL0     C52790   5.700  10.206   5.996  0.4519 -0.2304 -0.2346
  392MOL0     C52791   5.563  10.177   5.971  0.7260 -0.3850 -0.9451
  392MOL0     C52792   5.477  10.260   5.889 -0.0319  0.2451  1.1023
  392MOL0     O52793   5.351  10.234   5.860  0.6734 -0.2805 -0.1949
  392MOL0     C52794   5.314  10.247   5.722 -0.5053  0.0131  0.3507
  392MOL0     C52795   5.218  10.143   5.679  0.8595  0.0482 -0.7167
  392MOL0     C52796   5.269   9.993   5.672 -0.2073  0.3597 -0.2106
  392MOL0     C52797   5.359   9.938   5.788  0.4611  0.5923 -0.2925
  392MOL0     C52798   5.351   9.788   5.779 -0.5476  0.0232  0.2031
  392MOL0     C52799   5.437   9.717   5.887  0.1669  0.0657 -0.5121
  392MOL0     C52800   5.577   9.765   5.908 -0.1060 -0.0707  0.3975
  392MOL0     C52801   5.670   9.719   5.788 -0.2003 -0.8013  0.4098
  392MOL0     N52802   5.682   9.575   5.775 -0.1668 -0.2699 -0.5668
  392MOL0     C52803   5.749   9.498   5.868  0.3221 -0.4309 -0.3739
  392MOL0     C52804   5.751   9.371   5.816 -0.5480  0.6602  0.4475
  392MOL0     C52805   5.836   9.260   5.876  0.7554  0.1343 -0.5568
  392MOL0     C52806   5.982   9.316   5.881 -0.3693  1.3291  0.4105
  392MOL0     C52807   6.089   9.211   5.936  0.0073  0.3013 -0.4190
  392MOL0     C52808   6.220   9.279   5.989  1.0163  0.4746  0.8501
  392MOL0     O52809   6.309   9.169   6.029  0.0290  0.2886  0.0239
  392MOL0     C52810   6.317   9.135   6.158 -0.2549 -0.7973 -0.0104
  392MOL0     C52811   6.424   9.190   6.228  0.1455  0.6117  0.3748
  392MOL0     C52812   6.463   9.149   6.354  0.0246 -0.3601  0.6084
  392MOL0     C52813   6.374   9.069   6.426  0.1438  0.4189  0.2314
  392MOL0     C52814   6.393   9.046   6.564  0.6197  0.4607 -0.1460
  392MOL0     O52815   6.331   8.938   6.623  0.2694  0.0188 -0.1417
  392MOL0     C52816   6.346   8.896   6.747  0.0680  0.6458 -0.6303
  392MOL0     C52817   6.467   8.899   6.825  0.0240  0.3354 -0.0412
  392MOL0     C52818   6.475   8.834   6.946  1.0962 -0.1514  0.2845
  392MOL0     C52819   6.370   8.757   7.000  0.0854  0.8191 -0.3859
  392MOL0     O52820   6.400   8.676   7.105 -1.0737  0.6990  0.3922
  392MOL0     C52821   6.303   8.586   7.174 -0.4711 -0.0174 -0.6890
  392MOL0     C52822   6.173   8.651   7.229 -0.1584 -0.3499 -0.0644
  392MOL0     C52823   6.092   8.582   7.332  0.1150  0.8516  0.0046
  392MOL0     C52824   6.108   8.429   7.358 -0.4386 -0.2841  0.9126
  392MOL0     C52825   6.076   8.348   7.235  0.4560 -0.2204 -0.0607
  392MOL0     C52826   5.925   8.296   7.236 -0.6125 -0.4462  0.6423
  392MOL0     C52827   5.880   8.177   7.145 -0.8449  0.2132  0.0939
  392MOL0     C52828   5.807   8.226   7.021 -0.0272  0.6041  0.6834
  392MOL0    Cl52829   5.646   8.284   7.080 -0.2996 -0.0040 -0.1927
  392MOL0     C52830   6.263   8.731   6.917  0.5699 -1.1214  1.2204
  392MOL0     C52831   6.252   8.792   6.792  0.5453  0.4462 -0.5158
  392MOL0     O52832   6.483   9.108   6.619  0.6767  0.3660  0.3673
  392MOL0     C52833   6.262   9.006   6.357 -0.4597  0.9428  0.8677
  392MOL0     C52834   6.236   9.043   6.223 -0.2418 -0.8858 -0.5754
  392MOL0     N52835   5.670   9.367   5.698  0.2176 -1.2301 -0.4250
  392MOL0     N52836   5.633   9.491   5.674 -0.2839  0.6619  0.1474
  392MOL0     C52837   5.540  10.372   5.840 -0.0603 -0.3698  0.7211
  392MOL0     C52838   5.674  10.405   5.865 -0.4108 -0.0610  0.4913
  392MOL0     C52839   6.108  10.261   6.033 -0.7455 -0.3054 -0.2454
  392MOL0     C52840   6.200  10.328   6.109  0.1252 -0.7220  0.1658
  392MOL0     C52841   6.340  10.316   6.091 -0.3195 -0.0341  0.6493
  392MOL0     C52842   6.387  10.230   5.988  0.2274 -0.7059  0.5271
  392MOL0     O52843   6.522  10.206   5.969 -0.8279 -0.7802 -0.1728
  392MOL0     C52844   6.599  10.318   5.923 -0.5140 -1.0086  0.5135
  392MOL0     C52845   6.658  10.408   6.035 -0.6950 -0.4636  0.4191
  392MOL0     C52846   6.740  10.315   6.131  0.1752  0.0205 -0.1346
  392MOL0     C52847   6.867  10.258   6.080 -0.0495 -0.2109  0.8371
  392MOL0     C52848   6.920  10.172   6.183  0.8874  0.6833 -0.2418
  392MOL0     C52849   6.982  10.119   6.277 -0.5528 -0.1515 -0.8885
  392MOL0     C52850   6.300  10.162   5.908  0.1928  0.3293 -0.0612
  392MOL0     C52851   6.163  10.172   5.936 -0.2755 -0.1739 -0.0170
  392MOL0     C52852   6.077  10.095   5.840  0.1938 -0.1389  0.5971
  392MOL0     H52853   5.753  10.141   6.065 -1.2677  0.2578  1.6170
  392MOL0     H52854   5.505  10.096   6.014 -3.4874  0.6672 -3.9784
  392MOL0     H52855   5.266  10.344   5.703  2.4885  1.2400 -1.8104
  392MOL0     H52856   5.397  10.239   5.651  1.1751  1.3658  2.0762
  392MOL0     H52857   5.183  10.167   5.578 -1.2057  4.4961  0.7946
  392MOL0     H52858   5.124  10.148   5.736 -0.3648 -0.0583 -2.6257
  392MOL0     H52859   5.323   9.996   5.577  1.3234  0.9299  0.6433
  392MOL0     H52860   5.181   9.929   5.656 -1.1969  1.5492  0.3428
  392MOL0     H52861   5.458   9.980   5.771  1.7466 -2.3134 -0.6352
  392MOL0     H52862   5.322   9.977   5.884  2.7473 -0.3979  1.0808
  392MOL0     H52863   5.246   9.759   5.789 -0.6621  1.3059  6.2072
  392MOL0     H52864   5.387   9.743   5.686  0.2704  0.2896  0.3862
  392MOL0     H52865   5.386   9.720   5.983 -0.6117 -2.7953 -0.7485
  392MOL0     H52866   5.450   9.614   5.853  0.7883  0.1120 -0.4209
  392MOL0     H52867   5.623   9.723   5.999  0.9987 -0.3726 -0.2710
  392MOL0     H52868   5.571   9.874   5.907 -1.6284 -0.1366 -0.5690
  392MOL0     H52869   5.648   9.767   5.692  0.0478  2.9330  2.0198
  392MOL0     H52870   5.773   9.756   5.790 -0.5280  0.1023  1.6531
  392MOL0     H52871   5.794   9.542   5.956 -3.0995  0.7293  0.9587
  392MOL0     H52872   5.801   9.234   5.976 -4.0270 -0.3443 -2.0621
  392MOL0     H52873   5.830   9.170   5.814 -0.2573 -0.2925  0.1282
  392MOL0     H52874   6.016   9.370   5.792  3.9576 -1.8551 -0.2475
  392MOL0     H52875   5.956   9.393   5.955 -1.4134  2.6410 -1.2483
  392MOL0     H52876   6.111   9.151   5.847 -2.6082 -0.9181 -0.3177
  392MOL0     H52877   6.048   9.156   6.021  1.5735 -1.1722 -0.5445
  392MOL0     H52878   6.200   9.345   6.073 -0.2229  3.7367 -1.7858
  392MOL0     H52879   6.259   9.337   5.905  1.9892 -1.5159 -0.1379
  392MOL0     H52880   6.484   9.265   6.177 -1.3875  0.5905 -1.5700
  392MOL0     H52881   6.557   9.194   6.383  0.8034 -0.2841 -1.7916
  392MOL0     H52882   6.553   8.959   6.796  0.7329 -0.7691 -0.2706
  392MOL0     H52883   6.560   8.849   7.013 -0.2529  0.6652  1.8792
  392MOL0     H52884   6.267   8.511   7.103 -2.4744  3.2686 -3.5092
  392MOL0     H52885   6.349   8.546   7.264 -4.8005 -1.3984  1.1816
  392MOL0     H52886   6.195   8.753   7.261 -0.6953  0.5758 -2.4403
  392MOL0     H52887   6.108   8.681   7.146 -2.0519 -4.1530 -0.1914
  392MOL0     H52888   6.120   8.622   7.430 -2.2435  0.5261  0.8673
  392MOL0     H52889   5.987   8.611   7.323  0.5419  2.4418 -0.1473
  392MOL0     H52890   6.040   8.404   7.440  1.9838 -3.4267  2.1838
  392MOL0     H52891   6.213   8.412   7.381  0.7256 -0.6222 -3.6922
  392MOL0     H52892   6.140   8.261   7.252  0.2462 -0.4780 -0.5562
  392MOL0     H52893   6.103   8.389   7.137 -2.3824  1.2400 -0.3428
  392MOL0     H52894   5.899   8.264   7.337  0.2554 -0.5672  0.8386
  392MOL0     H52895   5.866   8.384   7.211 -0.5505 -0.0268  1.9235
  392MOL0     H52896   5.815   8.106   7.196 -2.9019  1.7420 -0.2754
  392MOL0     H52897   5.968   8.124   7.105 -1.0614 -0.4465  0.4827
  392MOL0     H52898   5.864   8.301   6.965 -0.2372 -0.7849 -1.5315
  392MOL0     H52899   5.788   8.137   6.959 -3.6166  0.0884  2.2552
  392MOL0     H52900   6.192   8.651   6.933  0.2714 -0.6478  2.4009
  392MOL0     H52901   6.184   8.759   6.714  0.7640 -1.9536  0.2351
  392MOL0     H52902   6.184   8.944   6.401 -1.9015  2.5046  0.6171
  392MOL0     H52903   6.145   8.999   6.181 -1.8359  0.7694  0.9696
  392MOL0     H52904   5.488  10.446   5.780  0.5628 -2.4548 -2.6089
  392MOL0     H52905   5.712  10.502   5.836  0.6374  1.4291  5.7204
  392MOL0     H52906   6.162  10.401   6.181 -1.2661 -3.8235  2.8176
  392MOL0     H52907   6.393  10.369   6.170 -2.5897  2.7921  0.4515
  392MOL0     H52908   6.546  10.382   5.852 -4.5208 -3.3868  1.0311
  392MOL0     H52909   6.683  10.289   5.860 -0.2051 -0.4792  0.6723
  392MOL0     H52910   6.578  10.460   6.088  1.6896 -0.4160  4.3303
  392MOL0     H52911   6.731  10.473   5.987  2.2652 -0.6239  4.2677
  392MOL0     H52912   6.682  10.229   6.167  0.7864 -2.0810 -3.6789
  392MOL0     H52913   6.759  10.382   6.215  0.5668  0.9450 -0.9389
  392MOL0     H52914   6.845  10.193   5.995  2.5622 -0.0190 -0.0819
  392MOL0     H52915   6.938  10.336   6.050 -3.1347  1.5102 -2.8943
  392MOL0     H52916   7.028  10.077   6.364 -1.3982 -0.4942 -0.6012
  392MOL0     H52917   6.332  10.101   5.824  1.7222 -0.2807  0.9120
  392MOL0     H52918   6.001  10.037   5.894 -0.3895 -0.4925 -0.5809
  392MOL0     H52919   6.011  10.163   5.785 -2.4608 -2.7200  0.3252
  392MOL0     H52920   6.124  10.043   5.757  3.3635  3.0028  0.2122
  393MOL0     O52921   2.871  10.224   4.803 -0.8221 -0.3403  0.4857
  393MOL0     C52922   2.859  10.344   4.835  0.0430  0.5769 -0.0975
  393MOL0     O52923   2.857  10.389   4.964  0.1446 -0.2147  0.2291
  393MOL0     C52924   2.950  10.336   5.045  0.3125  0.1292 -0.6955
  393MOL0     C52925   3.091  10.353   5.030  0.1929 -0.3951  0.5026
  393MOL0     C52926   3.175  10.272   5.106 -0.3108 -1.3596  0.5741
  393MOL0     C52927   3.131  10.199   5.220  0.6140  0.5680 -0.2098
  393MOL0     O52928   3.220  10.139   5.301 -0.3760 -0.1616 -0.6523
  393MOL0     C52929   3.177  10.029   5.389  0.1369  0.0661  0.5456
  393MOL0     C52930   3.138   9.903   5.308 -1.2062 -0.9537  0.0965
  393MOL0     C52931   3.276   9.841   5.277 -0.3089 -0.0549 -0.2172
  393MOL0     C52932   3.251   9.704   5.193 -0.4147 -0.1929 -0.1937
  393MOL0     C52933   3.394   9.635   5.166  0.6558 -0.1930  1.2770
  393MOL0     C52934   3.511   9.724   5.137 -0.7371 -0.3031 -0.4497
  393MOL0     C52935   3.634   9.639   5.111 -1.2970 -0.9577  0.1081
  393MOL0     C52936   3.763   9.719   5.075  0.4133 -0.0650 -0.2432
  393MOL0     N52937   3.812   9.792   5.199 -0.1641  0.5126 -0.1229
  393MOL0     C52938   3.925   9.755   5.265  0.8810  0.0845  0.3406
  393MOL0     C52939   3.950   9.836   5.366  0.2431 -0.4640  0.1367
  393MOL0     C52940   4.047   9.823   5.473  0.0174  0.1373 -0.1003
  393MOL0     C52941   3.967   9.814   5.610 -0.5423  0.6259 -0.1260
  393MOL0     C52942   4.066   9.750   5.710  0.2951  0.1922 -0.4258
  393MOL0     C52943   4.077   9.599   5.687  0.5011 -0.0306  0.0031
  393MOL0     O52944   4.162   9.551   5.791 -0.5126  0.0300 -0.2254
  393MOL0     C52945   4.104   9.533   5.912  0.8655  0.4404 -0.6199
  393MOL0     C52946   4.017   9.421   5.931  0.1193  0.2155  0.1183
  393MOL0     C52947   3.977   9.386   6.059 -0.0705 -0.1872  0.1616
  393MOL0     C52948   4.004   9.479   6.170  0.8586 -0.0415  0.4830
  393MOL0     C52949   3.946   9.460   6.297 -0.2134 -0.4741 -0.5325
  393MOL0     O52950   3.963   9.552   6.396 -1.1034  0.0790  0.0102
  393MOL0     C52951   3.943   9.534   6.525 -0.6619  0.4473 -0.7831
  393MOL0     C52952   3.859   9.434   6.583 -0.3987  0.3019  0.1893
  393MOL0     C52953   3.840   9.409   6.720  0.6904 -0.6749  1.3195
  393MOL0     C52954   3.902   9.494   6.808 -0.1320 -0.1630 -0.5764
  393MOL0     O52955   3.885   9.496   6.946 -0.0197 -0.6080 -0.2469
  393MOL0     C52956   3.835   9.376   7.015  0.2071 -0.2738 -0.0562
  393MOL0     C52957   3.776   9.411   7.151 -1.0046  0.5985  0.0066
  393MOL0     C52958   3.874   9.479   7.249 -0.7585 -0.1380 -0.9059
  393MOL0     C52959   3.977   9.373   7.287 -1.5366 -0.4897 -0.1516
  393MOL0     C52960   4.070   9.442   7.381 -0.2427 -0.3822  0.3809
  393MOL0     C52961   4.206   9.383   7.422  0.2996  0.0376  0.0932
  393MOL0     C52962   4.212   9.393   7.583  0.1147  0.0554 -0.1973
  393MOL0     C52963   4.346   9.332   7.640 -0.1504  0.1642 -1.3236
  393MOL0    Cl52964   4.357   9.156   7.599  0.1279 -0.0441  0.5794
  393MOL0     C52965   3.998   9.595   6.752  0.0427 -0.1799 -0.0742
  393MOL0     C52966   4.011   9.617   6.615  0.0605  0.2663 -0.5864
  393MOL0     O52967   3.908   9.348   6.316  0.6717  0.3614 -0.0263
  393MOL0     C52968   4.078   9.594   6.148 -0.5998  0.2485 -0.7210
  393MOL0     C52969   4.127   9.620   6.019 -0.1448  0.3199 -0.2232
  393MOL0     N52970   3.857   9.935   5.355  0.2633  0.0081 -0.7021
  393MOL0     N52971   3.773   9.907   5.256 -0.5682 -0.3422  0.0922
  393MOL0     C52972   2.982  10.191   5.242  0.0394 -0.5244 -0.2064
  393MOL0     C52973   2.894  10.253   5.151 -0.4585  0.7755  0.1634
  393MOL0     C52974   2.847  10.443   4.728  0.2479  0.3223 -0.6747
  393MOL0     C52975   2.895  10.399   4.606 -0.1695 -0.9824  0.2792
  393MOL0     C52976   2.875  10.475   4.496  0.1144 -0.5166 -0.2855
  393MOL0     C52977   2.823  10.607   4.501 -0.2040  0.7821 -0.0733
  393MOL0     O52978   2.803  10.689   4.388  0.0721  0.7136  0.8251
  393MOL0     C52979   2.881  10.804   4.386 -0.4489 -0.3716  0.6710
  393MOL0     C52980   3.029  10.774   4.387 -1.1946 -0.2943 -0.4742
  393MOL0     C52981   3.096  10.740   4.524  0.1636 -0.4892  0.0584
  393MOL0     C52982   3.241  10.751   4.514 -1.9083  0.3415  0.0029
  393MOL0     C52983   3.302  10.719   4.645  0.4132 -0.2640  0.3601
  393MOL0     C52984   3.351  10.675   4.742 -0.4550  0.2838 -0.2773
  393MOL0     C52985   2.783  10.650   4.626 -0.3092  0.7831  0.6997
  393MOL0     C52986   2.789  10.572   4.745 -0.3393  0.3308 -0.3881
  393MOL0     C52987   2.735  10.628   4.870 -0.3906  0.1558 -0.2059
  393MOL0     H52988   3.125  10.424   4.955 -1.6191  2.5722  2.3247
  393MOL0     H52989   3.283  10.278   5.094 -0.2362 -3.1831  0.0080
  393MOL0     H52990   3.261  10.000   5.453  0.3358  1.2367  0.8241
  393MOL0     H52991   3.108  10.068   5.464 -0.5235  0.0443 -0.0402
  393MOL0     H52992   3.100   9.907   5.206 -0.0406 -3.6776 -0.5475
  393MOL0     H52993   3.086   9.830   5.371 -2.5675 -1.5410 -1.6148
  393MOL0     H52994   3.330   9.824   5.370  0.6267  1.8806 -0.3686
  393MOL0     H52995   3.338   9.906   5.215  1.2030 -0.6559  0.6222
  393MOL0     H52996   3.187   9.635   5.248  0.9599  0.2191  2.0294
  393MOL0     H52997   3.224   9.721   5.088 -2.2400  1.5232  0.5028
  393MOL0     H52998   3.417   9.582   5.259 -2.4676 -1.4841  1.4453
  393MOL0     H52999   3.383   9.560   5.087  1.6182  2.1158 -1.1939
  393MOL0     H53000   3.504   9.787   5.048  1.1304 -0.4547 -0.7434
  393MOL0     H53001   3.539   9.781   5.226  0.3167 -0.7503 -0.4890
  393MOL0     H53002   3.623   9.576   5.022  0.2059 -0.8224 -0.2000
  393MOL0     H53003   3.655   9.569   5.192  1.0175 -0.6378 -0.1601
  393MOL0     H53004   3.848   9.660   5.041  0.8228  0.3661  0.0288
  393MOL0     H53005   3.734   9.790   4.997  1.4757 -0.7617 -1.3058
  393MOL0     H53006   3.987   9.668   5.250  4.2166  2.5609 -1.8819
  393MOL0     H53007   4.111   9.735   5.459  0.3405 -0.2512  3.1029
  393MOL0     H53008   4.121   9.903   5.471  3.5432 -2.7671  1.5617
  393MOL0     H53009   3.942   9.916   5.641  0.8064 -0.1312  4.0936
  393MOL0     H53010   3.876   9.754   5.600 -0.0025 -0.6215  1.8491
  393MOL0     H53011   4.046   9.777   5.814  4.0408 -1.2491  0.8340
  393MOL0     H53012   4.162   9.801   5.700  1.8958 -2.1838  1.6268
  393MOL0     H53013   4.131   9.581   5.593 -3.3199 -1.9612 -2.0733
  393MOL0     H53014   3.981   9.548   5.688 -0.7856  2.2231  0.0428
  393MOL0     H53015   3.991   9.365   5.842 -1.3174  1.5398 -0.3376
  393MOL0     H53016   3.911   9.300   6.064  0.4172 -0.5784  0.0122
  393MOL0     H53017   3.813   9.356   6.525 -0.6208  1.6165 -1.4831
  393MOL0     H53018   3.786   9.320   6.751 -2.0152  0.2935 -0.2455
  393MOL0     H53019   3.753   9.331   6.957  1.1682 -1.0025 -0.8835
  393MOL0     H53020   3.922   9.311   7.029  1.6036  1.5167 -0.0683
  393MOL0     H53021   3.693   9.479   7.130 -3.4213 -2.0004  0.5298
  393MOL0     H53022   3.741   9.315   7.189  1.9443 -1.0471 -1.1381
  393MOL0     H53023   3.930   9.558   7.197  0.5331  1.5339  2.6413
  393MOL0     H53024   3.825   9.527   7.335  3.6542  0.9768  1.3126
  393MOL0     H53025   4.034   9.346   7.198  0.4080 -0.6417  1.0830
  393MOL0     H53026   3.944   9.281   7.336  0.0575 -1.5809 -1.0316
  393MOL0     H53027   4.011   9.459   7.471 -3.0288 -0.2922 -1.3696
  393MOL0     H53028   4.079   9.551   7.368 -2.4782 -0.2743 -0.6742
  393MOL0     H53029   4.206   9.274   7.414  3.5297 -0.1309  0.7874
  393MOL0     H53030   4.294   9.436   7.386  0.7064 -0.7558 -0.1143
  393MOL0     H53031   4.131   9.332   7.623  1.8026 -2.4329 -0.3321
  393MOL0     H53032   4.200   9.493   7.627 -0.7819 -0.8555  1.7706
  393MOL0     H53033   4.437   9.371   7.595  0.5613  0.1886  0.0820
  393MOL0     H53034   4.341   9.348   7.748  3.6096 -1.5906 -0.7464
  393MOL0     H53035   4.047   9.654   6.828  0.0757  2.8796 -2.2975
  393MOL0     H53036   4.074   9.700   6.583  2.7080 -2.2851 -2.5452
  393MOL0     H53037   4.100   9.669   6.223 -1.7506  2.5714 -2.6022
  393MOL0     H53038   4.202   9.692   5.989  1.1543 -1.5667 -1.7787
  393MOL0     H53039   2.928  10.122   5.307  0.7963 -0.8209  0.1179
  393MOL0     H53040   2.789  10.246   5.175 -0.5253 -1.1955 -0.4895
  393MOL0     H53041   2.950  10.306   4.595  1.9473  0.4274 -2.4084
  393MOL0     H53042   2.930  10.445   4.408  1.0683 -0.9626  0.4455
  393MOL0     H53043   2.861  10.870   4.471  3.5110  4.1111 -1.3906
  393MOL0     H53044   2.861  10.863   4.296 -2.4872 -0.2238  1.1784
  393MOL0     H53045   3.078  10.864   4.348 -1.2557  0.1204  0.3756
  393MOL0     H53046   3.048  10.692   4.317  3.4350  0.0913  0.0445
  393MOL0     H53047   3.081  10.638   4.560  4.6389 -0.7606  1.7413
  393MOL0     H53048   3.063  10.816   4.595 -1.7419  1.0195 -2.2553
  393MOL0     H53049   3.292  10.681   4.446  1.0540  1.4833  0.8905
  393MOL0     H53050   3.274  10.851   4.483 -2.3540  0.8414  1.0784
  393MOL0     H53051   3.370  10.625   4.835 -1.9468 -2.3477 -1.2673
  393MOL0     H53052   2.730  10.745   4.634  0.0482  0.8438  3.0945
  393MOL0     H53053   2.658  10.561   4.909  2.0870 -1.6419  1.9991
  393MOL0     H53054   2.822  10.618   4.936  0.1246 -2.5674 -1.1475
  393MOL0     H53055   2.703  10.730   4.849  1.7947  1.2823  1.5131
  394MOL0     O53056  11.224   2.991   3.140 -0.5049  0.6781 -1.5288
  394MOL0     C53057  11.158   3.007   3.244 -0.7736  0.1882 -0.8108
  394MOL0     O53058  11.105   3.132   3.283  0.1064  0.6928  0.3347
  394MOL0     C53059  11.174   3.238   3.235 -0.8685  0.3625 -1.0434
  394MOL0     C53060  11.289   3.291   3.305 -0.0837  0.6626  0.2470
  394MOL0     C53061  11.361   3.397   3.249 -0.4336 -0.6641  0.0866
  394MOL0     C53062  11.332   3.446   3.116 -0.4376 -0.1919 -0.4805
  394MOL0     O53063  11.423   3.526   3.053 -0.2606  0.8759  1.1216
  394MOL0     C53064  11.394   3.589   2.930  0.8133  0.1360 -0.1260
  394MOL0     C53065  11.503   3.678   2.882 -0.3810  0.4768 -0.0876
  394MOL0     C53066  11.626   3.586   2.845 -0.1869 -1.0926 -0.1961
  394MOL0     C53067  11.742   3.670   2.786  0.2997  0.2465  0.0666
  394MOL0     C53068  11.872   3.591   2.776 -0.1420 -0.4348  0.3464
  394MOL0     C53069  11.972   3.664   2.693  0.2335 -0.8843 -0.2103
  394MOL0     C53070  12.114   3.621   2.714  0.6226  0.2898  0.3022
  394MOL0     C53071  12.158   3.499   2.639  0.0362 -0.0812  0.1834
  394MOL0     N53072  12.297   3.486   2.665  0.3930 -0.0897 -0.2764
  394MOL0     C53073  12.400   3.563   2.612 -0.3054  0.3741 -1.0768
  394MOL0     C53074  12.509   3.512   2.667 -0.4895 -0.2562  0.1969
  394MOL0     C53075  12.651   3.545   2.623  0.9198 -0.5315  0.0396
  394MOL0     C53076  12.699   3.434   2.536 -0.1065 -0.1965  0.3171
  394MOL0     C53077  12.635   3.446   2.394 -0.0457 -0.2293 -1.0937
  394MOL0     C53078  12.674   3.331   2.294  0.1527  0.8532 -1.5863
  394MOL0     O53079  12.611   3.360   2.170  0.5790  0.3199  0.1517
  394MOL0     C53080  12.624   3.274   2.064  0.2636 -0.2266  0.2101
  394MOL0     C53081  12.699   3.157   2.059 -0.3028 -0.0183 -0.6002
  394MOL0     C53082  12.703   3.075   1.947  0.0261 -0.5142  0.1070
  394MOL0     C53083  12.631   3.112   1.832 -1.1000 -0.8455  0.3845
  394MOL0     C53084  12.635   3.028   1.701 -0.2129  0.8537 -0.4118
  394MOL0     O53085  12.708   2.914   1.699 -0.3705 -0.2523 -0.1086
  394MOL0     C53086  12.680   2.821   1.597 -0.2722  0.9875  0.1715
  394MOL0     C53087  12.558   2.796   1.537  0.9538  0.4483  0.1548
  394MOL0     C53088  12.549   2.696   1.430  1.1472  0.4258 -1.8850
  394MOL0     C53089  12.660   2.614   1.396  0.5354  0.0572 -0.2919
  394MOL0     O53090  12.655   2.504   1.315  0.1416 -0.0036  0.2701
  394MOL0     C53091  12.525   2.458   1.263  0.0145  0.8819 -0.2512
  394MOL0     C53092  12.538   2.341   1.164  0.0848  0.0867  0.2762
  394MOL0     C53093  12.646   2.353   1.048  0.3194  0.3334 -0.4078
  394MOL0     C53094  12.670   2.223   0.973 -0.1418 -0.4759 -0.5384
  394MOL0     C53095  12.761   2.257   0.855 -0.0531 -0.2792  0.6590
  394MOL0     C53096  12.720   2.174   0.731  0.8993 -0.5405 -0.1429
  394MOL0     C53097  12.772   2.031   0.740 -0.1192  0.8871  0.1163
  394MOL0     C53098  12.919   2.004   0.710  0.0227 -0.5105 -0.6116
  394MOL0    Cl53099  12.935   1.834   0.668 -0.1416 -0.1634  0.2323
  394MOL0     C53100  12.768   2.629   1.484 -0.0386 -0.1814  0.1148
  394MOL0     C53101  12.784   2.732   1.579  0.6644  0.5529 -0.5291
  394MOL0     O53102  12.583   3.069   1.602 -0.0209 -0.0233  0.5472
  394MOL0     C53103  12.557   3.232   1.832  1.0887  0.1839 -0.6387
  394MOL0     C53104  12.556   3.320   1.949  0.4108  0.3328 -0.1673
  394MOL0     N53105  12.474   3.420   2.766 -0.1279  0.4900 -0.0311
  394MOL0     N53106  12.350   3.398   2.758 -0.2995 -0.5171 -0.3201
  394MOL0     C53107  11.224   3.389   3.047  0.6576  0.6003  0.1795
  394MOL0     C53108  11.150   3.284   3.108  0.2930 -0.6215  0.3229
  394MOL0     C53109  11.129   2.889   3.326 -0.3094  0.3947  0.2564
  394MOL0     C53110  11.009   2.898   3.395  0.4567  0.1029 -0.5979
  394MOL0     C53111  10.990   2.806   3.499 -0.4103 -0.3576  0.0806
  394MOL0     C53112  11.084   2.699   3.524  0.8955  0.2770  0.3561
  394MOL0     O53113  11.064   2.600   3.612  0.3940  0.2419 -0.0497
  394MOL0     C53114  10.993   2.620   3.733  0.2700 -0.6685  0.0503
  394MOL0     C53115  11.063   2.553   3.848  0.7048  0.4955  0.4226
  394MOL0     C53116  11.089   2.404   3.829 -0.6957  0.0522 -0.9627
  394MOL0     C53117  10.968   2.316   3.873  0.0191 -0.5109 -0.2404
  394MOL0     C53118  11.014   2.178   3.856  0.3628 -0.0427  0.2774
  394MOL0     C53119  11.072   2.068   3.864 -0.5087 -1.5651  1.5614
  394MOL0     C53120  11.199   2.685   3.447  0.0161  0.1152 -0.9733
  394MOL0     C53121  11.226   2.785   3.351  0.0347 -0.4837 -0.9217
  394MOL0     C53122  11.356   2.762   3.277 -0.2800 -0.4208  0.2698
  394MOL0     H53123  11.313   3.266   3.408  0.2092  0.8944  0.2360
  394MOL0     H53124  11.441   3.431   3.314 -0.7470  0.0997  0.0837
  394MOL0     H53125  11.370   3.519   2.849 -2.0118  1.5149 -0.6026
  394MOL0     H53126  11.296   3.638   2.928 -0.2823 -1.9361  0.1011
  394MOL0     H53127  11.530   3.747   2.963 -3.5221 -0.6268  2.1256
  394MOL0     H53128  11.472   3.731   2.792 -2.6831 -0.4147  0.1187
  394MOL0     H53129  11.599   3.511   2.770  2.7079 -0.5247 -1.9834
  394MOL0     H53130  11.667   3.542   2.937  0.7245  2.3377  1.2094
  394MOL0     H53131  11.710   3.700   2.686  0.8333 -0.7176 -0.4087
  394MOL0     H53132  11.765   3.755   2.851  1.1365  2.1617 -2.5616
  394MOL0     H53133  11.914   3.572   2.876  2.2738  0.2373 -0.4933
  394MOL0     H53134  11.856   3.492   2.731  1.5991 -1.6666  2.2519
  394MOL0     H53135  11.951   3.664   2.586  1.4854  1.2203 -0.5085
  394MOL0     H53136  11.978   3.766   2.733  1.5418 -0.6856 -0.8234
  394MOL0     H53137  12.122   3.599   2.821 -0.6354 -3.0797 -0.1702
  394MOL0     H53138  12.168   3.707   2.674 -2.2028  1.2830 -1.7076
  394MOL0     H53139  12.093   3.411   2.650 -1.6859  0.3216 -4.4625
  394MOL0     H53140  12.153   3.523   2.533 -1.5264  0.4094  0.3335
  394MOL0     H53141  12.391   3.644   2.540 -0.9686  0.8068 -0.5229
  394MOL0     H53142  12.664   3.647   2.587  2.2879 -1.0223 -0.9179
  394MOL0     H53143  12.714   3.540   2.713  1.7893 -2.6898 -0.6040
  394MOL0     H53144  12.808   3.444   2.531 -0.0565 -1.0323 -2.8316
  394MOL0     H53145  12.671   3.338   2.579 -1.1547  0.9594  2.3288
  394MOL0     H53146  12.671   3.544   2.364 -1.8796  1.5661  1.9923
  394MOL0     H53147  12.526   3.453   2.401  0.1682  3.3351  0.4645
  394MOL0     H53148  12.627   3.243   2.339  0.6882 -0.2697 -3.1201
  394MOL0     H53149  12.782   3.315   2.291  0.0752  0.1000 -0.7604
  394MOL0     H53150  12.751   3.120   2.147  2.1039  0.1422 -1.8706
  394MOL0     H53151  12.778   2.997   1.935  2.6032  1.6536  0.9537
  394MOL0     H53152  12.470   2.855   1.563  1.5658  1.2655  0.4323
  394MOL0     H53153  12.450   2.678   1.389 -1.9742  2.8294  3.4585
  394MOL0     H53154  12.465   2.421   1.346  0.8713 -1.3889 -0.5524
  394MOL0     H53155  12.472   2.534   1.206 -0.6970 -1.2866 -2.7023
  394MOL0     H53156  12.568   2.254   1.223 -1.1664 -0.3705  0.2698
  394MOL0     H53157  12.435   2.315   1.137 -0.0819 -0.1565  1.1095
  394MOL0     H53158  12.601   2.430   0.984  1.1834  1.5041  0.3565
  394MOL0     H53159  12.744   2.374   1.093 -0.3059 -1.4024  1.9021
  394MOL0     H53160  12.576   2.179   0.941 -0.1303 -0.5763 -0.4334
  394MOL0     H53161  12.706   2.142   1.038  1.4646  1.2009  0.7725
  394MOL0     H53162  12.867   2.242   0.874  0.4304  1.3729 -0.4949
  394MOL0     H53163  12.738   2.360   0.828  0.4010 -0.5699 -0.9439
  394MOL0     H53164  12.612   2.169   0.716  1.1125 -2.8950 -1.2578
  394MOL0     H53165  12.768   2.238   0.656  1.8319  2.6714  2.9031
  394MOL0     H53166  12.717   1.966   0.671  3.1485 -1.5168 -0.4963
  394MOL0     H53167  12.747   1.995   0.841 -2.8306  2.8931  0.2549
  394MOL0     H53168  12.947   2.068   0.626 -2.9615  0.4966 -0.9787
  394MOL0     H53169  12.981   2.033   0.796  2.4794 -3.3548 -1.2640
  394MOL0     H53170  12.841   2.550   1.472  1.0148  1.0561 -2.1570
  394MOL0     H53171  12.873   2.725   1.639 -0.1736  1.3731  0.8587
  394MOL0     H53172  12.508   3.254   1.738 -1.3326  0.4626  0.5919
  394MOL0     H53173  12.498   3.412   1.941  0.0618  0.1190 -0.1336
  394MOL0     H53174  11.205   3.428   2.947 -2.6896 -0.3369  0.3419
  394MOL0     H53175  11.062   3.241   3.061 -1.3186  1.5559  1.1467
  394MOL0     H53176  10.944   2.984   3.380  1.4090  1.0936  0.7181
  394MOL0     H53177  10.893   2.807   3.549 -0.4242 -2.7344  0.2078
  394MOL0     H53178  10.899   2.565   3.725 -1.6934  2.0676  2.3764
  394MOL0     H53179  10.966   2.722   3.759  0.3628 -0.7824  0.6110
  394MOL0     H53180  11.008   2.574   3.940  0.3132  0.3318  0.2252
  394MOL0     H53181  11.160   2.603   3.859  1.4674  0.1404 -3.3358
  394MOL0     H53182  11.174   2.375   3.891 -0.4667 -0.9536 -1.7289
  394MOL0     H53183  11.116   2.380   3.726  2.5125 -1.7098  0.1720
  394MOL0     H53184  10.934   2.328   3.976 -0.7535  0.3913 -0.5888
  394MOL0     H53185  10.882   2.337   3.809  0.5977  2.9537 -0.0394
  394MOL0     H53186  11.114   1.969   3.857  0.9842 -0.8441 -0.7622
  394MOL0     H53187  11.265   2.601   3.465  1.7961  1.7673  0.7139
  394MOL0     H53188  11.423   2.692   3.327 -2.3873 -2.2502  0.6396
  394MOL0     H53189  11.325   2.712   3.184 -0.3113 -1.9460  1.0786
  394MOL0     H53190  11.404   2.859   3.259 -1.4573  0.4298  1.5939
  395MOL0     O53191   5.468   3.602   6.892 -0.1285 -0.5001  0.2682
  395MOL0     C53192   5.373   3.604   6.969  0.3801 -0.0891  1.2825
  395MOL0     O53193   5.376   3.555   7.094 -0.0893  0.0910 -0.4664
  395MOL0     C53194   5.482   3.474   7.120 -0.2943  0.5524  0.0083
  395MOL0     C53195   5.606   3.514   7.185 -0.0799 -0.2167 -0.5306
  395MOL0     C53196   5.714   3.427   7.201  0.0575  0.1115  0.5322
  395MOL0     C53197   5.697   3.295   7.172  0.6865 -0.2939  0.0054
  395MOL0     O53198   5.791   3.194   7.203 -0.1784 -0.3141  0.3319
  395MOL0     C53199   5.926   3.240   7.224  0.1576 -0.0156  0.3765
  395MOL0     C53200   6.012   3.117   7.224  0.3298  0.2784 -0.6996
  395MOL0     C53201   5.979   3.021   7.340  0.0223  0.2433 -0.0859
  395MOL0     C53202   6.100   2.929   7.372 -0.0384 -0.3297 -0.1657
  395MOL0     C53203   6.078   2.877   7.514 -0.0767 -0.1361 -0.7825
  395MOL0     C53204   6.216   2.818   7.557  0.0660 -0.9965 -0.5422
  395MOL0     C53205   6.227   2.777   7.702 -0.5027  0.0967  0.2993
  395MOL0     C53206   6.160   2.644   7.729  0.3901  0.7411  0.5766
  395MOL0     N53207   6.217   2.576   7.846 -0.9061 -0.2408 -0.1520
  395MOL0     C53208   6.352   2.549   7.860  0.2920 -0.0385  0.6362
  395MOL0     C53209   6.359   2.504   7.990  0.0025 -0.5307  0.1857
  395MOL0     C53210   6.482   2.467   8.067  1.0963 -0.1036 -0.2887
  395MOL0     C53211   6.551   2.598   8.120 -0.4144  0.4864  0.3161
  395MOL0     C53212   6.689   2.580   8.185  0.3756  0.6521  1.1000
  395MOL0     C53213   6.666   2.535   8.328  0.2060 -0.2626 -0.3929
  395MOL0     O53214   6.782   2.563   8.410  0.5949  0.6348  0.1371
  395MOL0     C53215   6.784   2.687   8.482 -0.2546  0.9490 -0.3132
  395MOL0     C53216   6.753   2.818   8.427 -0.2516 -0.0303  0.2833
  395MOL0     C53217   6.758   2.931   8.505 -0.3019 -0.0044  0.6877
  395MOL0     C53218   6.814   2.925   8.638 -1.4260  1.2279  0.4044
  395MOL0     C53219   6.837   3.043   8.716  0.6304 -0.4104 -0.7070
  395MOL0     O53220   6.898   3.144   8.652 -0.1542 -0.1420 -0.3349
  395MOL0     C53221   6.931   3.251   8.733  0.0457 -0.2570 -0.7897
  395MOL0     C53222   7.052   3.255   8.801 -0.7617 -0.2085  0.5187
  395MOL0     C53223   7.088   3.371   8.874  0.5173  0.0158 -0.2142
  395MOL0     C53224   7.003   3.480   8.889 -0.2647  0.3527 -1.0607
  395MOL0     O53225   7.013   3.592   8.970 -0.1430  0.1747 -0.3808
  395MOL0     C53226   7.043   3.565   9.106  0.1399 -0.9293 -0.5546
  395MOL0     C53227   7.126   3.688   9.160  0.1995 -0.2340 -0.2127
  395MOL0     C53228   7.087   3.826   9.109  0.1497 -0.1873 -0.8549
  395MOL0     C53229   6.940   3.874   9.124  0.4331 -0.3758 -1.0818
  395MOL0     C53230   6.896   3.978   9.020 -0.4374  0.1735  0.6173
  395MOL0     C53231   6.906   3.947   8.865  0.8515 -0.2890 -0.1342
  395MOL0     C53232   6.784   3.870   8.810  0.0197 -0.8501 -0.6146
  395MOL0     C53233   6.785   3.872   8.658  0.3214  0.5662 -0.5697
  395MOL0    Cl53234   6.770   4.028   8.572 -0.3556  0.4271 -0.1559
  395MOL0     C53235   6.879   3.477   8.818  0.4701  0.2033  0.1574
  395MOL0     C53236   6.838   3.363   8.745 -0.5280  0.3515  0.4232
  395MOL0     O53237   6.816   3.028   8.832 -0.0976 -0.4710 -1.5475
  395MOL0     C53238   6.856   2.798   8.685  1.0721  0.4516 -0.3516
  395MOL0     C53239   6.840   2.679   8.609  0.4490  0.5789  0.2864
  395MOL0     N53240   6.238   2.526   8.053 -0.6840 -0.4894  0.6254
  395MOL0     N53241   6.152   2.570   7.968  0.1883  0.5169 -0.2846
  395MOL0     C53242   5.576   3.255   7.108 -0.7752  0.4066 -0.0122
  395MOL0     C53243   5.466   3.340   7.086  0.7186 -0.4009  0.3002
  395MOL0     C53244   5.248   3.661   6.913 -0.3564  0.7378 -0.9080
  395MOL0     C53245   5.247   3.795   6.844 -0.4535  0.5785 -0.5008
  395MOL0     C53246   5.124   3.857   6.817 -0.0672 -0.8948  0.4344
  395MOL0     C53247   5.005   3.788   6.833  0.3905  0.1454 -0.4066
  395MOL0     O53248   4.888   3.839   6.788  0.3976 -0.6958  0.1454
  395MOL0     C53249   4.846   3.780   6.666 -0.2015 -0.3324 -0.5053
  395MOL0     C53250   4.824   3.890   6.564 -0.9418 -0.3578  0.1301
  395MOL0     C53251   4.948   3.983   6.540  0.3302  0.1075  0.6797
  395MOL0     C53252   5.068   3.909   6.466  0.3213 -0.3079 -0.9091
  395MOL0     C53253   5.170   4.005   6.423  0.2164  0.8877 -0.1837
  395MOL0     C53254   5.264   4.085   6.404  0.2079  0.1072 -0.6323
  395MOL0     C53255   5.006   3.673   6.901 -0.1647  0.6525 -0.4051
  395MOL0     C53256   5.119   3.603   6.935 -0.2771 -1.0155 -0.4585
  395MOL0     C53257   5.113   3.458   6.976 -1.4689 -0.7398  0.0147
  395MOL0     H53258   5.628   3.606   7.237  0.2029 -2.0833  2.9461
  395MOL0     H53259   5.806   3.477   7.231 -1.4665  3.1050  0.5827
  395MOL0     H53260   5.958   3.312   7.148 -1.5154  0.1693 -0.1987
  395MOL0     H53261   5.938   3.287   7.322  1.1606 -2.4960  1.5181
  395MOL0     H53262   6.114   3.154   7.242 -0.6173  1.3573  3.4672
  395MOL0     H53263   6.011   3.066   7.128  1.0358 -2.1434  0.5001
  395MOL0     H53264   5.890   2.961   7.320 -1.0917  2.1929 -1.4509
  395MOL0     H53265   5.965   3.078   7.432  2.6498 -1.7852  1.6928
  395MOL0     H53266   6.098   2.849   7.298  1.5195 -0.7239  0.1686
  395MOL0     H53267   6.195   2.984   7.376  0.2604 -0.8852  1.0867
  395MOL0     H53268   6.054   2.961   7.580  0.6944 -0.3010 -0.2740
  395MOL0     H53269   6.005   2.797   7.528 -0.0162 -0.2037 -0.8540
  395MOL0     H53270   6.241   2.728   7.500 -0.8542 -1.2635 -0.5548
  395MOL0     H53271   6.293   2.895   7.549 -0.4472 -0.1892  1.5892
  395MOL0     H53272   6.185   2.855   7.766 -3.1319 -2.1318  1.4725
  395MOL0     H53273   6.335   2.769   7.717 -0.0615  1.7308 -1.4382
  395MOL0     H53274   6.055   2.671   7.741 -0.2081 -0.1203 -2.0050
  395MOL0     H53275   6.163   2.570   7.648 -0.0026  0.0655  1.1766
  395MOL0     H53276   6.438   2.555   7.794  0.4473 -0.5699  0.7868
  395MOL0     H53277   6.467   2.408   8.158  2.3701  2.6528  1.8572
  395MOL0     H53278   6.556   2.406   8.014  1.4049 -1.6327  1.7528
  395MOL0     H53279   6.586   2.654   8.032  2.0784 -1.9661 -0.3892
  395MOL0     H53280   6.481   2.654   8.183  0.7905  0.9291  1.3031
  395MOL0     H53281   6.736   2.679   8.181 -1.4438  1.5966  1.8253
  395MOL0     H53282   6.754   2.510   8.132 -0.5701  0.6571 -0.0953
  395MOL0     H53283   6.634   2.430   8.336 -3.5431  0.7545 -0.2141
  395MOL0     H53284   6.577   2.584   8.369  1.1431  0.0609  1.3462
  395MOL0     H53285   6.697   2.811   8.335  0.4350  0.7121 -0.2069
  395MOL0     H53286   6.733   3.028   8.462  1.3392 -0.7180 -2.0669
  395MOL0     H53287   7.118   3.171   8.783  2.6266  2.2236  0.5768
  395MOL0     H53288   7.181   3.384   8.928  0.4548  2.9735 -0.6964
  395MOL0     H53289   6.948   3.555   9.160  0.7487  2.6153  1.4975
  395MOL0     H53290   7.093   3.468   9.117  0.2338 -1.4036 -4.0398
  395MOL0     H53291   7.129   3.673   9.268  2.8073 -1.1113 -0.3421
  395MOL0     H53292   7.230   3.666   9.137  0.0876 -1.1798  0.1230
  395MOL0     H53293   7.150   3.902   9.158 -0.3418 -0.0633 -0.4041
  395MOL0     H53294   7.112   3.818   9.003  3.8389  1.3160 -0.2565
  395MOL0     H53295   6.932   3.920   9.223 -0.4801  1.3790 -1.9162
  395MOL0     H53296   6.878   3.784   9.125 -0.5668  0.2941 -1.2444
  395MOL0     H53297   6.970   4.058   9.033  0.2469 -0.3887  0.2404
  395MOL0     H53298   6.797   4.009   9.055  0.3812  0.5183  2.8208
  395MOL0     H53299   6.895   4.047   8.821 -2.7603 -0.4388  0.1097
  395MOL0     H53300   6.993   3.895   8.824 -0.6491 -3.3430  0.2734
  395MOL0     H53301   6.690   3.910   8.849  0.4221 -2.2501  2.0419
  395MOL0     H53302   6.790   3.765   8.843  2.6803  0.2091  2.9268
  395MOL0     H53303   6.879   3.826   8.627  0.2195 -1.7155  2.0652
  395MOL0     H53304   6.697   3.813   8.630  0.6737 -0.4882  0.4601
  395MOL0     H53305   6.802   3.548   8.844  0.5106  0.2187  0.2354
  395MOL0     H53306   6.738   3.366   8.704 -0.9430 -1.6865  1.1919
  395MOL0     H53307   6.902   2.776   8.781 -3.4364 -1.5462  1.6392
  395MOL0     H53308   6.863   2.581   8.651 -0.2266  1.0711  1.8701
  395MOL0     H53309   5.566   3.150   7.084 -0.7882  0.3716  0.1431
  395MOL0     H53310   5.378   3.291   7.049  1.6940 -1.0750 -1.2184
  395MOL0     H53311   5.342   3.840   6.817  0.3386 -2.2442 -2.9475
  395MOL0     H53312   5.148   3.955   6.777 -0.1092 -0.0004  2.5018
  395MOL0     H53313   4.748   3.738   6.688 -0.7077  1.0223 -0.0829
  395MOL0     H53314   4.910   3.698   6.631  3.5541  1.9939  0.3403
  395MOL0     H53315   4.736   3.949   6.592 -1.0096  0.3112 -1.3867
  395MOL0     H53316   4.794   3.834   6.475  0.0586 -5.7294  2.7425
  395MOL0     H53317   4.982   4.031   6.633  1.0794  1.8414 -0.4406
  395MOL0     H53318   4.908   4.059   6.472  0.2940 -0.2208  0.3310
  395MOL0     H53319   5.114   3.835   6.532 -1.4737  1.6985  2.9303
  395MOL0     H53320   5.018   3.868   6.377 -4.0535 -2.4759  2.1717
  395MOL0     H53321   5.342   4.157   6.386 -1.1901  1.7726 -0.2026
  395MOL0     H53322   4.914   3.621   6.928 -0.1876 -2.2311 -5.0321
  395MOL0     H53323   5.178   3.406   6.906 -0.2677  2.4150 -1.3740
  395MOL0     H53324   5.145   3.434   7.078  0.2505 -1.5600 -0.6853
  395MOL0     H53325   5.011   3.418   6.974 -1.8294  0.0050  1.7391
  396MOL0     O53326   5.629   3.452   8.946  0.2451  0.2225  0.1016
  396MOL0     C53327   5.724   3.531   8.921 -0.2056 -0.3240  0.1842
  396MOL0     O53328   5.859   3.502   8.926 -0.0853  0.4330  0.2662
  396MOL0     C53329   5.897   3.396   9.002 -0.5249  1.2939  0.4425
  396MOL0     C53330   5.844   3.272   9.030 -0.0645 -0.2026  0.3120
  396MOL0     C53331   5.919   3.178   9.118  0.0636 -0.7875  0.8489
  396MOL0     C53332   6.042   3.212   9.180  0.0724  0.7870  0.3206
  396MOL0     O53333   6.094   3.130   9.276 -0.4679 -0.1301  0.5275
  396MOL0     C53334   6.101   2.982   9.268 -0.0524 -0.5916  0.4593
  396MOL0     C53335   5.997   2.912   9.344  0.2622  0.0632  0.1531
  396MOL0     C53336   6.022   2.918   9.494  0.5423 -0.3307  0.1373
  396MOL0     C53337   6.047   2.779   9.545 -0.5120  0.3293  0.1284
  396MOL0     C53338   6.085   2.768   9.691 -0.1177  1.1986  0.1027
  396MOL0     C53339   6.086   2.616   9.721  0.9637  0.5619  0.2874
  396MOL0     C53340   6.139   2.581   9.865 -0.8690 -1.4400  0.3318
  396MOL0     C53341   6.143   2.434   9.907  0.6839  0.5522 -0.0600
  396MOL0     N53342   6.173   2.396  10.043 -0.5591 -0.4175  0.0411
  396MOL0     C53343   6.262   2.462  10.124  0.4418  0.9796  0.2257
  396MOL0     C53344   6.265   2.393  10.244  0.5523 -0.5061 -0.0348
  396MOL0     C53345   6.358   2.414  10.364  0.0916  0.8755 -0.6078
  396MOL0     C53346   6.285   2.480  10.487 -0.4142  0.0283  0.5267
  396MOL0     C53347   6.377   2.570  10.580 -0.2054 -0.0794 -0.3724
  396MOL0     C53348   6.269   2.631  10.681 -0.3757  0.7351  0.9609
  396MOL0     O53349   6.333   2.729  10.769  0.1982 -0.0009 -0.2259
  396MOL0     C53350   6.398   2.681  10.881 -0.7614  0.4653  0.2614
  396MOL0     C53351   6.441   2.774  10.977  1.0654  1.0722 -0.1715
  396MOL0     C53352   6.488   2.735  11.095  0.5358  0.9995  0.0943
  396MOL0     C53353   6.522   2.591  11.123  0.1256 -0.2040  0.3415
  396MOL0     C53354   6.598   2.555  11.242  1.2742  0.2731 -0.0626
  396MOL0     O53355   6.608   2.649  11.344  0.6076 -0.2500 -0.2320
  396MOL0     C53356   6.664   2.590  11.460  0.3667  1.0640 -0.4827
  396MOL0     C53357   6.804   2.591  11.483  0.0806 -0.5631 -0.9901
  396MOL0     C53358   6.860   2.529  11.599  1.3062  0.5226  0.5910
  396MOL0     C53359   6.760   2.472  11.690  0.6778 -0.8054 -0.1640
  396MOL0     O53360   6.797   2.400  11.805  0.3436 -0.6176  0.2642
  396MOL0     C53361   6.744   2.456  11.921  0.3836 -0.4701 -0.3357
  396MOL0     C53362   6.843   2.498  12.019  0.4288 -0.3461 -0.6809
  396MOL0     C53363   6.966   2.562  11.965 -0.1247  0.3090 -0.1521
  396MOL0     C53364   6.949   2.708  11.921  1.0690  0.3268  0.3544
  396MOL0     C53365   7.079   2.747  11.852  0.1494 -0.0607 -0.3699
  396MOL0     C53366   7.087   2.893  11.821  0.2402  0.3160  0.5435
  396MOL0     C53367   7.211   2.960  11.748  1.2976 -0.3884 -0.0437
  396MOL0     C53368   7.228   2.917  11.604 -0.4330 -0.8894  0.0481
  396MOL0    Cl53369   7.398   2.964  11.555 -0.0376  0.2581  0.0309
  396MOL0     C53370   6.626   2.467  11.659 -0.3407 -0.2878 -0.3310
  396MOL0     C53371   6.577   2.525  11.545 -0.0222  0.1511 -0.3093
  396MOL0     O53372   6.645   2.437  11.248  0.8768 -0.7016 -0.5239
  396MOL0     C53373   6.481   2.494  11.025 -0.1713 -0.9396  0.6937
  396MOL0     C53374   6.419   2.541  10.912 -0.4813 -0.3020 -0.0452
  396MOL0     N53375   6.168   2.291  10.235 -0.6485  0.3500 -0.2099
  396MOL0     N53376   6.138   2.284  10.108  0.4597  0.4700 -0.0628
  396MOL0     C53377   6.099   3.334   9.144 -0.5747  0.3031 -0.8306
  396MOL0     C53378   6.026   3.423   9.059  0.7631 -0.4205 -1.0836
  396MOL0     C53379   5.694   3.663   8.872 -0.0847 -0.2408  0.3206
  396MOL0     C53380   5.783   3.710   8.770  0.1681 -0.3636 -0.6532
  396MOL0     C53381   5.782   3.851   8.742 -0.4351  0.4722 -1.5607
  396MOL0     C53382   5.680   3.931   8.785  0.5296  0.4937 -0.3919
  396MOL0     O53383   5.686   4.062   8.748 -0.3656  0.0309 -0.5341
  396MOL0     C53384   5.607   4.175   8.813 -0.0527  0.1683  0.3234
  396MOL0     C53385   5.694   4.233   8.920  0.1529 -0.1778 -0.4000
  396MOL0     C53386   5.848   4.246   8.888 -0.6655  0.2259  0.3032
  396MOL0     C53387   5.921   4.345   8.977  0.4281 -0.3973 -0.5410
  396MOL0     C53388   6.023   4.295   9.064 -0.7664  0.0695  0.4054
  396MOL0     C53389   6.115   4.254   9.135 -0.2518  0.0117 -0.0571
  396MOL0     C53390   5.579   3.874   8.869 -0.1270  0.2226 -0.2403
  396MOL0     C53391   5.583   3.740   8.915 -0.0679 -0.5867  1.1065
  396MOL0     C53392   5.466   3.685   8.984  1.0068  0.3179 -0.7147
  396MOL0     H53393   5.754   3.230   8.988  0.3118 -0.8188  0.0983
  396MOL0     H53394   5.877   3.078   9.128  0.8847 -1.2059  0.2859
  396MOL0     H53395   6.091   2.943   9.167  1.0700 -2.0786  0.8827
  396MOL0     H53396   6.206   2.963   9.296 -0.1745  1.7009  2.8755
  396MOL0     H53397   5.995   2.806   9.317 -2.5888  0.0445  0.0792
  396MOL0     H53398   5.898   2.950   9.315 -0.2810 -1.4261 -0.0159
  396MOL0     H53399   5.934   2.960   9.543 -0.1351 -2.2672  0.6632
  396MOL0     H53400   6.102   2.988   9.521  2.7877 -3.2335  1.5922
  396MOL0     H53401   5.961   2.719   9.514  0.8869  0.2769 -4.3384
  396MOL0     H53402   6.128   2.741   9.482 -1.7432  1.1209 -2.0005
  396MOL0     H53403   6.189   2.803   9.689  0.3675 -0.1812 -0.4222
  396MOL0     H53404   6.021   2.829   9.755 -1.3270  0.1865 -0.1171
  396MOL0     H53405   5.980   2.592   9.708  0.1895  3.8828 -0.3462
  396MOL0     H53406   6.143   2.559   9.648  1.2416  2.3610 -0.9589
  396MOL0     H53407   6.082   2.631   9.943 -1.4075 -0.4676 -0.6601
  396MOL0     H53408   6.240   2.621   9.878 -0.9026 -1.1289 -0.3139
  396MOL0     H53409   6.048   2.382   9.888  1.2397 -0.7521  0.5857
  396MOL0     H53410   6.221   2.389   9.844 -0.4762 -1.4184 -0.1841
  396MOL0     H53411   6.335   2.540  10.104  3.2272 -1.7213 -1.1262
  396MOL0     H53412   6.392   2.317  10.400 -1.3072 -0.0784 -1.7505
  396MOL0     H53413   6.437   2.479  10.326 -0.8209  2.2785 -0.1781
  396MOL0     H53414   6.205   2.539  10.443 -2.0326 -2.9740 -0.8723
  396MOL0     H53415   6.235   2.395  10.535 -0.8707 -0.7637 -1.2669
  396MOL0     H53416   6.405   2.651  10.512  0.3787 -0.9534 -1.1891
  396MOL0     H53417   6.464   2.522  10.627 -0.8955 -0.2034  0.8185
  396MOL0     H53418   6.214   2.558  10.741  4.0035 -1.4210  2.7998
  396MOL0     H53419   6.194   2.674  10.614 -1.0304 -0.5781  0.8266
  396MOL0     H53420   6.435   2.880  10.957  0.8793  1.9284  3.6478
  396MOL0     H53421   6.510   2.809  11.171 -0.5272 -0.5027  1.9387
  396MOL0     H53422   6.870   2.645  11.416 -0.8117  0.1919 -1.2730
  396MOL0     H53423   6.965   2.517  11.623  0.4780 -0.9056  4.1244
  396MOL0     H53424   6.706   2.558  11.907  4.4739  1.5947  1.9435
  396MOL0     H53425   6.664   2.404  11.974 -4.5120  4.5576 -1.7698
  396MOL0     H53426   6.800   2.572  12.088  0.1308  1.1603 -2.4086
  396MOL0     H53427   6.874   2.413  12.080  2.8574 -1.7765 -3.6583
  396MOL0     H53428   7.027   2.566  12.056  1.5688 -1.9449 -1.1071
  396MOL0     H53429   7.011   2.497  11.889  1.0458  0.3305  0.5034
  396MOL0     H53430   6.940   2.759  12.018  0.3755 -2.7359  2.0316
  396MOL0     H53431   6.859   2.729  11.863 -1.1368 -0.5808  3.1707
  396MOL0     H53432   7.081   2.689  11.759 -2.6618 -0.4073 -0.2950
  396MOL0     H53433   7.160   2.720  11.921  1.6091  1.4053 -1.4560
  396MOL0     H53434   7.001   2.919  11.760 -0.2566 -0.0078  1.1009
  396MOL0     H53435   7.066   2.945  11.915  1.7141  0.6868  0.6970
  396MOL0     H53436   7.294   2.931  11.813  0.9600  1.8781  1.5008
  396MOL0     H53437   7.182   3.065  11.752  0.3713 -0.5598 -1.5074
  396MOL0     H53438   7.217   2.808  11.598  0.0311 -1.1300  2.4789
  396MOL0     H53439   7.153   2.957  11.535 -0.3748 -1.3397 -0.2773
  396MOL0     H53440   6.548   2.440  11.730  1.5247 -1.5946  1.3528
  396MOL0     H53441   6.472   2.533  11.522 -0.7829 -2.1570  1.9292
  396MOL0     H53442   6.497   2.386  11.026 -1.0595 -1.0883  2.3578
  396MOL0     H53443   6.387   2.465  10.841 -3.0420  1.8864 -1.4238
  396MOL0     H53444   6.187   3.372   9.194 -3.2300  2.1873  2.8593
  396MOL0     H53445   6.065   3.524   9.057 -4.8695  2.3074  1.8591
  396MOL0     H53446   5.856   3.658   8.710 -0.6314 -1.7971 -0.4208
  396MOL0     H53447   5.858   3.902   8.685 -0.9635  4.0540  0.6381
  396MOL0     H53448   5.515   4.132   8.852  1.1436 -2.6969  0.2359
  396MOL0     H53449   5.601   4.258   8.741  2.5574  0.6625  0.5466
  396MOL0     H53450   5.662   4.180   9.010  2.0501 -0.1244  0.3714
  396MOL0     H53451   5.667   4.338   8.935 -0.2467 -0.0331 -1.9914
  396MOL0     H53452   5.864   4.281   8.785 -0.9347  0.0728  0.2089
  396MOL0     H53453   5.888   4.144   8.886  0.5866  0.6603  1.3957
  396MOL0     H53454   5.966   4.412   8.904  0.4522 -0.5358 -0.6522
  396MOL0     H53455   5.869   4.413   9.046  0.4851 -0.3167 -0.5763
  396MOL0     H53456   6.195   4.212   9.192  0.1090  0.2956 -0.3521
  396MOL0     H53457   5.489   3.927   8.897  0.8235  0.8173  1.9625
  396MOL0     H53458   5.500   3.629   9.072 -2.7089 -0.4641  0.3907
  396MOL0     H53459   5.406   3.769   9.018  1.7856  0.4856  0.2843
  396MOL0     H53460   5.408   3.620   8.917 -0.1327  3.0918 -2.5719
  397MOL0     O53461  11.438   7.805   8.344  0.6070  1.0001  1.8446
  397MOL0     C53462  11.377   7.752   8.242  0.5977  0.6038  0.3441
  397MOL0     O53463  11.360   7.819   8.121 -0.1957  0.3313  0.3415
  397MOL0     C53464  11.433   7.936   8.104  0.0465  0.0983  0.3983
  397MOL0     C53465  11.570   7.933   8.067 -0.2345  0.2697 -0.5852
  397MOL0     C53466  11.643   8.049   8.067  0.5151 -0.7240  0.1587
  397MOL0     C53467  11.579   8.177   8.094  0.7645  0.9746  0.4358
  397MOL0     O53468  11.646   8.301   8.089  0.1303  0.0125 -0.5748
  397MOL0     C53469  11.774   8.304   8.151  0.0247  0.0497  0.3396
  397MOL0     C53470  11.826   8.454   8.168  0.0704  0.4578  1.3211
  397MOL0     C53471  11.980   8.465   8.188  0.9582  0.2977 -0.2807
  397MOL0     C53472  12.020   8.605   8.227 -0.0623 -0.6021 -0.2577
  397MOL0     C53473  12.168   8.640   8.189  1.5007 -0.2667  0.2351
  397MOL0     C53474  12.197   8.780   8.245 -0.7553  0.4597 -1.1106
  397MOL0     C53475  12.350   8.813   8.213  0.3954  0.4124 -0.6140
  397MOL0     C53476  12.402   8.931   8.284 -0.7530  0.1881  0.2158
  397MOL0     N53477  12.533   8.964   8.237 -0.7250 -0.5627  0.3840
  397MOL0     C53478  12.649   8.913   8.290 -0.2175 -0.1557  0.0231
  397MOL0     C53479  12.745   8.975   8.209 -0.2138  0.5761 -0.2772
  397MOL0     C53480  12.882   8.937   8.228 -0.5297  0.9891 -0.2801
  397MOL0     C53481  12.970   9.039   8.305 -0.0070 -0.9721  0.3921
  397MOL0     C53482  12.999   9.159   8.218 -0.2344 -0.2905 -0.0874
  397MOL0     C53483  13.107   9.244   8.288 -0.4990 -0.0951  0.5040
  397MOL0     O53484  13.242   9.240   8.222 -0.3644  0.5386  0.0488
  397MOL0     C53485  13.268   9.299   8.098  0.3940 -0.4082  0.5616
  397MOL0     C53486  13.317   9.222   8.000 -1.2422 -0.5554  0.1440
  397MOL0     C53487  13.340   9.280   7.873 -0.5581  0.0583 -0.2447
  397MOL0     C53488  13.312   9.415   7.847 -0.7842 -0.8015  0.2447
  397MOL0     C53489  13.357   9.470   7.714  0.7942 -0.6377  0.4177
  397MOL0     O53490  13.450   9.404   7.647  0.1116 -0.3073 -0.1722
  397MOL0     C53491  13.502   9.430   7.518 -0.3061 -0.1468 -0.3472
  397MOL0     C53492  13.485   9.540   7.438 -0.3869 -0.2621  0.0924
  397MOL0     C53493  13.565   9.567   7.323  0.3026 -0.0996  0.5858
  397MOL0     C53494  13.647   9.462   7.271  0.6705 -0.0969 -0.2389
  397MOL0     O53495  13.692   9.495   7.149  0.3467  0.5970 -0.2778
  397MOL0     C53496  13.806   9.424   7.103 -0.8357 -0.1028  1.0019
  397MOL0     C53497  13.841   9.456   6.966 -0.3212 -0.0974  0.9250
  397MOL0     C53498  13.756   9.377   6.862 -0.0647  0.5636  0.0196
  397MOL0     C53499  13.798   9.394   6.715  0.0172 -0.0598  0.3459
  397MOL0     C53500  13.707   9.329   6.602  0.6795  0.0497 -1.6356
  397MOL0     C53501  13.786   9.285   6.479  0.1415 -0.4166 -0.5455
  397MOL0     C53502  13.703   9.272   6.353  0.4034  0.4490 -0.9348
  397MOL0     C53503  13.754   9.341   6.233  1.0320 -0.7926  0.6078
  397MOL0    Cl53504  13.727   9.517   6.239  0.1028  0.5573 -0.2091
  397MOL0     C53505  13.657   9.341   7.344 -0.5310  0.0021  0.3348
  397MOL0     C53506  13.586   9.333   7.460  0.4282 -1.0655 -0.2316
  397MOL0     O53507  13.293   9.562   7.662  0.6150  0.8133 -0.5074
  397MOL0     C53508  13.243   9.486   7.944  0.0455  0.6077  0.5674
  397MOL0     C53509  13.214   9.427   8.066  0.4395 -0.0016  0.5381
  397MOL0     N53510  12.679   9.055   8.116 -0.7629 -0.6120 -0.4161
  397MOL0     N53511  12.551   9.058   8.142  0.2285 -0.4201 -0.2048
  397MOL0     C53512  11.444   8.176   8.117 -0.8813 -0.9139 -0.8644
  397MOL0     C53513  11.373   8.058   8.119  0.4995 -0.9198  0.2557
  397MOL0     C53514  11.302   7.631   8.253 -0.1382  0.6173  0.4873
  397MOL0     C53515  11.239   7.583   8.133  0.2433  0.1311 -0.1433
  397MOL0     C53516  11.152   7.476   8.135 -0.8442 -0.3098  0.1079
  397MOL0     C53517  11.137   7.401   8.252 -0.0446  0.8982  0.0417
  397MOL0     O53518  11.066   7.282   8.263 -0.5218  0.1855  0.7113
  397MOL0     C53519  10.928   7.288   8.287  0.4831  1.8446 -0.1409
  397MOL0     C53520  10.858   7.155   8.229  0.7882  0.1220  0.3582
  397MOL0     C53521  10.716   7.137   8.301  0.2535  0.2252  0.2635
  397MOL0     C53522  10.662   6.999   8.270  0.0603 -0.8529  1.1689
  397MOL0     C53523  10.760   6.889   8.307 -0.3495 -0.2088 -0.4316
  397MOL0     C53524  10.821   6.791   8.347  0.0052  0.0313  0.4540
  397MOL0     C53525  11.203   7.443   8.377  0.4592 -0.9501  0.2995
  397MOL0     C53526  11.279   7.555   8.372  0.1911  0.2816  0.7294
  397MOL0     C53527  11.344   7.596   8.509  0.1799  0.2449 -0.0122
  397MOL0     H53528  11.634   7.848   8.046  2.7204  2.6494 -1.9724
  397MOL0     H53529  11.751   8.048   8.052  0.5237 -1.8309  0.1998
  397MOL0     H53530  11.779   8.248   8.246 -1.1681  0.5651  0.7149
  397MOL0     H53531  11.839   8.246   8.085 -1.5269 -1.0219 -0.3057
  397MOL0     H53532  11.771   8.504   8.248  2.2091  2.8529  1.4022
  397MOL0     H53533  11.807   8.506   8.074  1.0513 -2.4133 -0.5939
  397MOL0     H53534  12.025   8.441   8.091  1.1307  1.6920 -0.5780
  397MOL0     H53535  12.011   8.395   8.266 -0.2443  0.1989  0.1188
  397MOL0     H53536  11.958   8.679   8.175  0.2584 -1.5625 -2.0779
  397MOL0     H53537  11.997   8.612   8.334 -0.4469 -2.6706 -0.1747
  397MOL0     H53538  12.239   8.568   8.231 -0.6441 -2.8652 -0.3181
  397MOL0     H53539  12.174   8.651   8.081  0.4500  0.3342  0.2244
  397MOL0     H53540  12.138   8.857   8.195  0.4768  1.8652 -0.4585
  397MOL0     H53541  12.168   8.780   8.350  2.0662  1.6144 -0.2495
  397MOL0     H53542  12.374   8.833   8.108 -0.2754  0.5361 -0.7465
  397MOL0     H53543  12.418   8.732   8.237  1.1206  1.4239  0.9079
  397MOL0     H53544  12.328   9.008   8.260 -0.9124  0.7320  2.2844
  397MOL0     H53545  12.414   8.920   8.392 -0.3181 -0.8167  0.0747
  397MOL0     H53546  12.676   8.834   8.359 -0.4460  1.6381  2.3148
  397MOL0     H53547  12.873   8.854   8.299 -2.4473  0.9317 -0.5381
  397MOL0     H53548  12.921   8.903   8.132 -1.5938 -0.5252 -0.2122
  397MOL0     H53549  12.930   9.053   8.406 -1.3344  0.6237 -0.2916
  397MOL0     H53550  13.064   8.991   8.334  1.2744  1.3286  0.3625
  397MOL0     H53551  12.906   9.214   8.200  1.4103  2.0097 -2.2262
  397MOL0     H53552  13.025   9.125   8.118 -1.9258  2.3776 -1.5422
  397MOL0     H53553  13.123   9.209   8.390  2.5737 -1.7573 -0.4287
  397MOL0     H53554  13.068   9.347   8.287  1.1590  0.5617  1.1801
  397MOL0     H53555  13.354   9.122   8.019 -1.6794 -1.1163 -1.6948
  397MOL0     H53556  13.390   9.212   7.805  0.3849  2.1050 -1.7150
  397MOL0     H53557  13.407   9.605   7.477 -1.1385 -2.3186  2.2444
  397MOL0     H53558  13.539   9.656   7.268  2.7982  1.0452  1.1432
  397MOL0     H53559  13.890   9.436   7.173 -0.5078  0.2263  0.5576
  397MOL0     H53560  13.783   9.317   7.108 -0.2612 -0.1718  3.2035
  397MOL0     H53561  13.828   9.564   6.951  1.3071 -0.1483 -1.5862
  397MOL0     H53562  13.947   9.439   6.945 -0.7495  0.6577 -2.5070
  397MOL0     H53563  13.758   9.269   6.878  4.8859  0.4868  0.3565
  397MOL0     H53564  13.655   9.418   6.865 -1.2253 -2.1112  0.1293
  397MOL0     H53565  13.901   9.364   6.693 -0.7394 -1.0305 -2.3000
  397MOL0     H53566  13.810   9.502   6.702  1.1979 -0.1633  0.3936
  397MOL0     H53567  13.643   9.416   6.589  0.4734  0.4843  1.5647
  397MOL0     H53568  13.666   9.243   6.657 -3.3675  2.3692 -0.6368
  397MOL0     H53569  13.873   9.350   6.466  2.4468 -2.1779  3.8264
  397MOL0     H53570  13.838   9.191   6.498  0.5316 -0.3166 -1.1152
  397MOL0     H53571  13.607   9.317   6.383  1.1322 -0.0319  2.5215
  397MOL0     H53572  13.698   9.164   6.344  2.2745  0.0379  1.7894
  397MOL0     H53573  13.855   9.308   6.206  0.2378 -1.6946 -1.5142
  397MOL0     H53574  13.696   9.308   6.146  1.7275  0.2853 -0.3040
  397MOL0     H53575  13.707   9.247   7.326 -0.8835 -0.3537  1.1521
  397MOL0     H53576  13.593   9.245   7.523  1.4469 -1.1308 -0.4203
  397MOL0     H53577  13.221   9.590   7.921 -1.2725  0.1811 -0.2455
  397MOL0     H53578  13.164   9.493   8.136  0.6008  2.5145 -1.5616
  397MOL0     H53579  11.386   8.267   8.131 -1.1544 -1.5470  3.4959
  397MOL0     H53580  11.268   8.059   8.147  0.1471  1.3585 -0.8371
  397MOL0     H53581  11.261   7.643   8.045  1.3525 -0.3552 -0.2200
  397MOL0     H53582  11.091   7.451   8.049  1.5071  0.7713 -1.9822
  397MOL0     H53583  10.871   7.377   8.260 -0.1310  1.6742  0.5379
  397MOL0     H53584  10.930   7.288   8.396 -2.4602 -1.5958  0.1037
  397MOL0     H53585  10.934   7.077   8.242  2.5703  1.3859 -1.6667
  397MOL0     H53586  10.830   7.173   8.125  0.4384  0.7019  0.5481
  397MOL0     H53587  10.653   7.223   8.276 -0.7145 -0.4926  0.1725
  397MOL0     H53588  10.736   7.141   8.409  0.4493 -0.4686  0.2558
  397MOL0     H53589  10.577   6.973   8.334  0.2139 -2.6312  0.6898
  397MOL0     H53590  10.630   6.999   8.166 -0.2143 -1.8952  1.2434
  397MOL0     H53591  10.872   6.700   8.369 -1.5161 -0.5522  1.8697
  397MOL0     H53592  11.173   7.397   8.470  1.2626 -1.1431  0.4711
  397MOL0     H53593  11.453   7.596   8.501  0.2172 -3.2089 -1.4154
  397MOL0     H53594  11.309   7.697   8.531  1.5790  0.6249  0.5947
  397MOL0     H53595  11.305   7.534   8.590  1.6353  2.0316  2.1993
  398MOL0     O53596   8.887   7.065   6.798  0.0481 -0.4746  0.4169
  398MOL0     C53597   8.797   6.984   6.813 -1.1990 -0.3120 -0.4490
  398MOL0     O53598   8.662   7.012   6.811 -0.7659 -0.1864 -0.9118
  398MOL0     C53599   8.632   7.145   6.813 -1.1167 -0.0901 -0.2950
  398MOL0     C53600   8.556   7.204   6.707  0.1361  0.7444  0.1037
  398MOL0     C53601   8.506   7.326   6.728  1.0639 -0.4250  0.0992
  398MOL0     C53602   8.506   7.399   6.843 -0.4032  0.9960  0.3386
  398MOL0     O53603   8.429   7.514   6.856  0.0319 -0.4764  0.4940
  398MOL0     C53604   8.470   7.622   6.940 -0.1530  1.0703 -0.1359
  398MOL0     C53605   8.398   7.758   6.927  0.0438  0.5681  0.3772
  398MOL0     C53606   8.249   7.736   6.926 -0.2485  0.1363  1.1667
  398MOL0     C53607   8.161   7.853   6.965 -0.5295 -0.8874 -0.2965
  398MOL0     C53608   8.172   7.902   7.109 -0.4101 -0.8000 -0.9618
  398MOL0     C53609   8.041   7.968   7.150 -0.0657  0.1005  0.4427
  398MOL0     C53610   8.027   7.992   7.304 -0.4124 -0.2170  1.0009
  398MOL0     C53611   8.119   8.110   7.338 -0.2207  0.3049 -0.5128
  398MOL0     N53612   8.181   8.080   7.466 -0.4642 -0.5618  0.1489
  398MOL0     C53613   8.291   7.997   7.480  0.8372  0.2271  0.4051
  398MOL0     C53614   8.308   7.992   7.613  0.7950 -0.2977  1.0535
  398MOL0     C53615   8.429   7.927   7.679 -1.0051 -0.2860 -0.2399
  398MOL0     C53616   8.537   8.034   7.713 -0.2926 -0.0689 -0.9509
  398MOL0     C53617   8.639   7.969   7.819  0.2087 -1.0999  0.1590
  398MOL0     C53618   8.733   8.079   7.868  0.3302  0.4616 -0.1091
  398MOL0     O53619   8.858   8.028   7.918 -0.0708  0.1186  1.0916
  398MOL0     C53620   8.944   8.126   7.953  0.0695  0.8747  0.2172
  398MOL0     C53621   8.935   8.190   8.073 -0.0042  0.5228  0.1482
  398MOL0     C53622   9.018   8.290   8.106  0.0047  0.1529 -0.7678
  398MOL0     C53623   9.118   8.336   8.023  0.4517  1.1938  0.0911
  398MOL0     C53624   9.213   8.437   8.065  0.7267  0.1809  0.4480
  398MOL0     O53625   9.184   8.498   8.180 -0.9463  0.0504 -0.3323
  398MOL0     C53626   9.286   8.548   8.250 -0.0095  0.3785  0.4351
  398MOL0     C53627   9.304   8.529   8.386 -0.1492  0.6110  0.0506
  398MOL0     C53628   9.413   8.591   8.450  0.0520  0.1668 -1.1603
  398MOL0     C53629   9.505   8.676   8.391 -0.2281  0.5147 -0.2517
  398MOL0     O53630   9.596   8.743   8.469  0.1417  0.1890  0.0606
  398MOL0     C53631   9.658   8.866   8.422  0.4410  0.6308 -0.3041
  398MOL0     C53632   9.700   8.953   8.541  0.2057 -0.0740  0.2270
  398MOL0     C53633   9.820   8.879   8.600 -0.8076  0.0905 -0.7984
  398MOL0     C53634   9.915   8.965   8.676  0.1984 -0.4043 -0.8689
  398MOL0     C53635   9.843   9.020   8.805  0.3681  0.5055  0.2058
  398MOL0     C53636   9.923   9.140   8.878 -0.5732 -0.0068 -1.0089
  398MOL0     C53637   9.881   9.164   9.017  0.4223 -0.3706 -0.9325
  398MOL0     C53638   9.971   9.238   9.120 -0.1052 -0.8816  0.2772
  398MOL0    Cl53639  10.035   9.396   9.052 -0.3550 -0.4015 -0.5047
  398MOL0     C53640   9.488   8.703   8.257 -0.8002  0.4227  0.9173
  398MOL0     C53641   9.375   8.645   8.198  1.0423 -0.2620  0.3396
  398MOL0     O53642   9.316   8.446   8.001 -0.8594 -0.2934  0.7039
  398MOL0     C53643   9.131   8.270   7.900 -0.5200  1.0404  0.1692
  398MOL0     C53644   9.044   8.160   7.863  0.4443 -0.7203  0.0288
  398MOL0     N53645   8.196   8.056   7.675  0.4841 -0.0936 -0.3367
  398MOL0     N53646   8.111   8.091   7.586  0.5841  0.6328  0.2450
  398MOL0     C53647   8.587   7.346   6.945  0.0993  0.2152  0.5136
  398MOL0     C53648   8.649   7.218   6.928 -0.3669  0.6742  0.9818
  398MOL0     C53649   8.842   6.845   6.819 -0.5418  1.5424  0.9055
  398MOL0     C53650   8.767   6.753   6.901  0.4572  0.2877 -0.1272
  398MOL0     C53651   8.801   6.617   6.916 -0.7886 -0.6736 -0.0190
  398MOL0     C53652   8.910   6.573   6.838 -0.8389 -0.4233  0.1307
  398MOL0     O53653   8.932   6.441   6.885 -0.8355 -0.5312  0.1484
  398MOL0     C53654   9.041   6.365   6.838 -0.0273 -0.5798 -0.3076
  398MOL0     C53655   8.994   6.299   6.707  0.3804 -0.4512 -0.7779
  398MOL0     C53656   9.117   6.226   6.643 -0.6606 -0.2764 -0.6048
  398MOL0     C53657   9.217   6.326   6.575  0.7173  0.6983  0.9153
  398MOL0     C53658   9.143   6.408   6.480 -1.4006 -0.2748 -0.2343
  398MOL0     C53659   9.068   6.455   6.412 -0.1034  0.1046  0.6421
  398MOL0     C53660   8.971   6.658   6.738 -0.6509  0.2169  0.1990
  398MOL0     C53661   8.947   6.793   6.730  0.6301  0.2660 -0.8654
  398MOL0     C53662   9.023   6.874   6.628 -0.0310 -0.5614  0.7400
  398MOL0     H53663   8.536   7.155   6.612 -2.6309 -0.7459  1.3415
  398MOL0     H53664   8.454   7.374   6.646 -0.7116 -1.4856  0.5460
  398MOL0     H53665   8.457   7.583   7.041 -1.3448 -0.9603 -1.0124
  398MOL0     H53666   8.576   7.651   6.941  0.2255 -0.0959 -1.9286
  398MOL0     H53667   8.422   7.801   6.828 -1.9958 -3.9427 -2.3914
  398MOL0     H53668   8.433   7.821   7.009  0.2146  0.7327  0.1807
  398MOL0     H53669   8.221   7.661   7.001 -2.4406 -1.6370 -1.2001
  398MOL0     H53670   8.206   7.699   6.832 -0.9865 -0.3106  1.6664
  398MOL0     H53671   8.171   7.934   6.893 -0.8254 -0.4282  0.1718
  398MOL0     H53672   8.056   7.822   6.956 -2.1113  3.8581 -1.5031
  398MOL0     H53673   8.186   7.816   7.176 -0.8889 -0.3653 -0.2907
  398MOL0     H53674   8.258   7.967   7.127  0.5961 -2.3376  0.0719
  398MOL0     H53675   8.024   8.062   7.096 -1.7082  0.3838  1.3778
  398MOL0     H53676   7.955   7.908   7.120 -0.9734  1.6781 -0.2065
  398MOL0     H53677   8.053   7.906   7.366  1.3754  0.0853  0.7201
  398MOL0     H53678   7.919   8.009   7.317 -0.7580 -1.1461 -0.3463
  398MOL0     H53679   8.198   8.114   7.262 -0.1965 -2.5880 -0.7581
  398MOL0     H53680   8.065   8.205   7.345 -2.6941 -1.1409  2.2335
  398MOL0     H53681   8.346   7.960   7.394 -2.9599  0.2611 -2.3191
  398MOL0     H53682   8.412   7.878   7.774 -0.0776 -3.1418 -1.4363
  398MOL0     H53683   8.481   7.854   7.616 -1.6167  0.8021 -2.0915
  398MOL0     H53684   8.582   8.083   7.626  3.1855  0.2971  0.8728
  398MOL0     H53685   8.474   8.105   7.766 -0.7287 -0.2939 -1.1690
  398MOL0     H53686   8.696   7.904   7.751 -0.2129  0.3590 -1.6592
  398MOL0     H53687   8.594   7.918   7.905 -0.6039  0.4788  0.7100
  398MOL0     H53688   8.705   8.145   7.952  2.3654  1.0201  0.1783
  398MOL0     H53689   8.756   8.144   7.783 -2.2229  1.1967 -0.3231
  398MOL0     H53690   8.853   8.162   8.138  0.0574  0.9032  0.3917
  398MOL0     H53691   9.014   8.329   8.208  2.8639 -1.0782 -0.0909
  398MOL0     H53692   9.243   8.450   8.428 -0.7617  1.9626  1.8185
  398MOL0     H53693   9.428   8.577   8.557  2.0914 -1.9847 -1.6519
  398MOL0     H53694   9.738   8.842   8.351 -1.3972  1.4777 -2.7832
  398MOL0     H53695   9.580   8.921   8.369 -0.1357  2.3741  2.1839
  398MOL0     H53696   9.725   9.045   8.487 -3.2098 -0.0120 -1.4825
  398MOL0     H53697   9.614   8.971   8.606 -1.7071  0.9748 -2.4171
  398MOL0     H53698   9.789   8.804   8.674 -2.8392  2.1671  0.5932
  398MOL0     H53699   9.882   8.845   8.517 -0.9189 -0.2395 -0.7467
  398MOL0     H53700   9.934   9.058   8.622  0.0979  1.4486  2.0548
  398MOL0     H53701  10.003   8.907   8.707 -0.0207 -0.7027 -0.8059
  398MOL0     H53702   9.845   8.934   8.872 -0.8852 -2.3612 -3.1254
  398MOL0     H53703   9.739   9.051   8.787  0.4152  1.8869  2.0488
  398MOL0     H53704  10.030   9.118   8.882 -1.0370 -2.2576  1.6467
  398MOL0     H53705   9.916   9.238   8.829 -0.2641  0.8899  0.6808
  398MOL0     H53706   9.844   9.072   9.062 -2.5777  1.8132  1.5177
  398MOL0     H53707   9.791   9.224   8.999 -0.3707 -1.5979 -1.2050
  398MOL0     H53708   9.924   9.261   9.216 -0.9108 -1.1398 -0.0509
  398MOL0     H53709  10.062   9.180   9.133  2.1375  1.3582 -3.5724
  398MOL0     H53710   9.549   8.777   8.206 -0.9384 -0.8617 -1.2505
  398MOL0     H53711   9.340   8.686   8.104  1.4044  3.2143  1.5870
  398MOL0     H53712   9.206   8.289   7.823 -1.7415 -2.8722 -2.2882
  398MOL0     H53713   9.056   8.085   7.786 -2.7417 -2.2593  0.8513
  398MOL0     H53714   8.604   7.411   7.030 -1.9840  2.6733 -0.7943
  398MOL0     H53715   8.694   7.178   7.019 -2.9721 -1.4888  1.4573
  398MOL0     H53716   8.684   6.789   6.961  1.3608 -1.9589  2.7092
  398MOL0     H53717   8.748   6.557   6.990 -0.3746 -0.5746  0.3616
  398MOL0     H53718   9.061   6.296   6.920  3.6780  0.6997  0.0258
  398MOL0     H53719   9.127   6.431   6.822 -1.2496  1.4086  0.7714
  398MOL0     H53720   8.944   6.373   6.644  1.8907  0.3014 -1.1544
  398MOL0     H53721   8.923   6.218   6.728 -2.5184  1.1437 -3.4788
  398MOL0     H53722   9.082   6.148   6.575  4.2884 -3.1566 -0.3412
  398MOL0     H53723   9.168   6.179   6.728 -1.8794  1.9358  1.4497
  398MOL0     H53724   9.253   6.405   6.642  2.8780  0.4495  0.1420
  398MOL0     H53725   9.300   6.287   6.515  1.3971  2.0493  0.9245
  398MOL0     H53726   9.000   6.491   6.338  2.8301 -0.8549 -2.8402
  398MOL0     H53727   9.057   6.617   6.685 -0.4167 -3.6784  3.1639
  398MOL0     H53728   9.085   6.945   6.685  3.9457 -0.4274 -3.1760
  398MOL0     H53729   9.092   6.804   6.578 -0.9514 -0.4546 -0.7242
  398MOL0     H53730   8.958   6.926   6.558  3.0763  0.7395 -1.4093
  399MOL0     O53731   5.109   1.864   8.271  0.4863 -0.8611  0.4503
  399MOL0     C53732   5.038   1.872   8.373 -0.6530 -0.4298 -0.5441
  399MOL0     O53733   5.048   1.784   8.483  0.4513 -0.1952  0.1315
  399MOL0     C53734   5.156   1.710   8.499  0.5828 -0.6183 -1.1340
  399MOL0     C53735   5.283   1.762   8.515  0.0582  0.4754 -0.1479
  399MOL0     C53736   5.397   1.686   8.551 -0.4989 -0.9155  0.4739
  399MOL0     C53737   5.374   1.554   8.579 -0.4311  0.7375  0.7760
  399MOL0     O53738   5.496   1.483   8.597 -0.3761  0.3888 -0.2331
  399MOL0     C53739   5.501   1.428   8.734 -0.7367  1.1749 -0.0105
  399MOL0     C53740   5.614   1.328   8.738  0.7623  0.8582 -0.1418
  399MOL0     C53741   5.644   1.266   8.879  0.0376 -0.6453  1.4168
  399MOL0     C53742   5.796   1.233   8.889 -0.5516  0.1725  0.5859
  399MOL0     C53743   5.823   1.121   8.785  0.1732 -0.0356  1.2572
  399MOL0     C53744   5.962   1.064   8.778  0.3277 -0.2425  0.0305
  399MOL0     C53745   5.993   1.002   8.636  0.3983  2.0592  0.1298
  399MOL0     C53746   6.137   1.004   8.580 -0.2744 -0.9350 -0.5256
  399MOL0     N53747   6.145   0.962   8.448 -0.0339 -0.0849  0.3986
  399MOL0     C53748   6.104   1.042   8.343  0.3105 -0.1811 -0.0620
  399MOL0     C53749   6.100   0.960   8.239  0.4033 -0.8306  0.8089
  399MOL0     C53750   6.045   0.997   8.108  1.0813 -0.3207 -0.3420
  399MOL0     C53751   6.151   1.040   8.001 -0.6844 -0.2362 -0.7921
  399MOL0     C53752   6.221   1.178   8.026  0.4734  0.5087  0.0242
  399MOL0     C53753   6.137   1.303   7.993  0.2782  0.5029 -0.2502
  399MOL0     O53754   6.143   1.334   7.849  0.2068 -0.1916  0.4449
  399MOL0     C53755   6.072   1.451   7.811 -0.5104  0.1639 -0.1406
  399MOL0     C53756   6.030   1.548   7.902 -0.2602 -0.6364 -0.6715
  399MOL0     C53757   5.961   1.661   7.847 -0.1155  0.1866 -0.2285
  399MOL0     C53758   5.948   1.687   7.714 -0.6644 -0.4400 -0.3909
  399MOL0     C53759   5.884   1.816   7.670 -0.0282 -0.3763  0.1829
  399MOL0     O53760   5.889   1.836   7.536 -0.1360 -0.9901  0.3361
  399MOL0     C53761   5.831   1.948   7.480  0.0371  1.3477 -0.5127
  399MOL0     C53762   5.700   1.985   7.495  0.0362  0.3494  1.1342
  399MOL0     C53763   5.650   2.101   7.441 -0.2259 -1.3641  0.2506
  399MOL0     C53764   5.721   2.185   7.353 -1.0454 -0.2692  0.2732
  399MOL0     O53765   5.669   2.295   7.309  0.1120  0.5077 -0.1715
  399MOL0     C53766   5.554   2.271   7.228 -0.2295  0.3369  0.1346
  399MOL0     C53767   5.512   2.410   7.200 -0.5541  0.0168  0.2767
  399MOL0     C53768   5.621   2.472   7.094  0.9874  0.6314  0.0755
  399MOL0     C53769   5.576   2.615   7.052 -0.0538  0.3189  0.3731
  399MOL0     C53770   5.632   2.650   6.913 -0.4146 -0.1237 -0.4967
  399MOL0     C53771   5.604   2.785   6.845 -0.2790 -0.1814 -1.0778
  399MOL0     C53772   5.686   2.905   6.889 -0.6060 -0.0145 -0.1357
  399MOL0     C53773   5.677   3.026   6.802 -0.1236 -0.7111 -0.4137
  399MOL0    Cl53774   5.508   3.057   6.765  0.4916  0.2072  0.4391
  399MOL0     C53775   5.857   2.147   7.331 -0.3938 -0.2155  0.1581
  399MOL0     C53776   5.902   2.023   7.388 -0.2246 -0.0710 -0.4265
  399MOL0     O53777   5.834   1.893   7.749  0.6543 -0.5745 -0.4625
  399MOL0     C53778   6.000   1.597   7.628 -0.4857  0.8099 -0.4847
  399MOL0     C53779   6.049   1.471   7.678  0.5637 -1.0294  0.1974
  399MOL0     N53780   6.134   0.832   8.278 -0.0712 -0.5560 -0.0965
  399MOL0     N53781   6.179   0.840   8.402  1.2447 -0.1361  0.3381
  399MOL0     C53782   5.252   1.494   8.572  0.7238  0.2730 -0.2994
  399MOL0     C53783   5.141   1.571   8.520 -0.3163  0.2696  0.5527
  399MOL0     C53784   4.935   1.965   8.359 -0.1965  0.1792 -0.2044
  399MOL0     C53785   4.840   1.945   8.258 -0.1551  0.2548  0.6191
  399MOL0     C53786   4.737   2.036   8.240 -0.1194  0.2430 -0.6489
  399MOL0     C53787   4.728   2.141   8.333 -0.0711 -0.2993 -0.0285
  399MOL0     O53788   4.639   2.244   8.318 -0.5807  0.1009  0.1575
  399MOL0     C53789   4.497   2.219   8.345 -0.9374  0.3811  0.3889
  399MOL0     C53790   4.456   2.335   8.424  0.8882  0.9348 -0.5361
  399MOL0     C53791   4.478   2.483   8.380 -0.7413  0.5260 -1.3291
  399MOL0     C53792   4.417   2.518   8.242 -0.2764 -0.4390  0.6217
  399MOL0     C53793   4.461   2.658   8.215 -0.7283  0.6604 -0.4580
  399MOL0     C53794   4.515   2.763   8.182 -0.2826  0.3776 -0.2533
  399MOL0     C53795   4.819   2.153   8.435  0.0733  0.5203  0.5155
  399MOL0     C53796   4.919   2.062   8.458 -0.2390  0.2246  0.0454
  399MOL0     C53797   5.009   2.091   8.576  0.5961 -0.2363 -0.1159
  399MOL0     H53798   5.311   1.860   8.478 -0.4298  1.1223  1.1495
  399MOL0     H53799   5.497   1.730   8.548 -0.5844 -0.7317 -2.5887
  399MOL0     H53800   5.530   1.512   8.798 -3.0717  1.3289  0.9292
  399MOL0     H53801   5.405   1.388   8.767 -0.5029  0.6896  0.0834
  399MOL0     H53802   5.706   1.379   8.709  0.5446  1.4911  0.2551
  399MOL0     H53803   5.594   1.248   8.666 -0.8601  0.6956  0.4440
  399MOL0     H53804   5.566   1.194   8.903 -1.6945  0.3664 -0.7982
  399MOL0     H53805   5.629   1.350   8.948  1.1904 -0.0108  0.9353
  399MOL0     H53806   5.854   1.319   8.857 -0.6283  0.5392  1.4167
  399MOL0     H53807   5.820   1.205   8.992 -0.6583 -1.6458  0.1469
  399MOL0     H53808   5.754   1.043   8.817  0.7570 -1.3029 -0.4157
  399MOL0     H53809   5.802   1.159   8.685  0.0442  0.2834  1.4023
  399MOL0     H53810   6.025   1.152   8.796 -0.4963 -0.0812  2.3781
  399MOL0     H53811   5.981   0.996   8.861  0.4151  0.9080  0.9834
  399MOL0     H53812   5.924   1.038   8.560 -4.3201  3.0390  4.3617
  399MOL0     H53813   5.978   0.894   8.646  1.7979  2.0491  3.1907
  399MOL0     H53814   6.188   1.101   8.581  1.5397 -1.8424  1.5756
  399MOL0     H53815   6.184   0.936   8.651  0.2712  0.9376  0.9719
  399MOL0     H53816   6.063   1.141   8.354 -0.4791 -0.5980  0.8885
  399MOL0     H53817   5.987   0.911   8.075  0.4736  0.6716 -2.0223
  399MOL0     H53818   5.971   1.074   8.135  1.4450  0.3235 -1.1518
  399MOL0     H53819   6.228   0.962   8.001  2.1496  2.3594  0.5463
  399MOL0     H53820   6.115   1.030   7.898  1.2225 -0.9159 -1.4365
  399MOL0     H53821   6.311   1.190   7.966  1.9062 -0.8970  1.7623
  399MOL0     H53822   6.276   1.184   8.120  0.4874 -1.5975  0.2044
  399MOL0     H53823   6.171   1.385   8.057  0.2206 -0.5563  1.1840
  399MOL0     H53824   6.032   1.281   8.013  0.5067 -2.4820 -1.7620
  399MOL0     H53825   6.045   1.535   8.009  2.6758  1.5224 -0.7036
  399MOL0     H53826   5.930   1.733   7.922  1.1323 -0.8570  1.3771
  399MOL0     H53827   5.636   1.932   7.565 -0.1637 -0.6938  0.1982
  399MOL0     H53828   5.555   2.133   7.482  0.2090 -0.8313  0.8631
  399MOL0     H53829   5.576   2.217   7.135 -1.7013 -0.7060  0.3639
  399MOL0     H53830   5.472   2.218   7.277 -3.2810  1.0445 -3.7117
  399MOL0     H53831   5.414   2.399   7.152 -1.1549 -0.1923  1.5174
  399MOL0     H53832   5.501   2.477   7.286 -2.0777  1.4938 -0.9906
  399MOL0     H53833   5.720   2.471   7.141 -0.8370  1.7844  4.5650
  399MOL0     H53834   5.625   2.407   7.006  0.4098  1.7011 -0.7639
  399MOL0     H53835   5.622   2.683   7.124 -0.9502  1.5916 -0.2323
  399MOL0     H53836   5.470   2.637   7.063  0.3395  1.6022  1.9995
  399MOL0     H53837   5.585   2.576   6.847 -1.6422  0.0069  0.2068
  399MOL0     H53838   5.740   2.646   6.927 -0.7310 -0.0340  2.6804
  399MOL0     H53839   5.622   2.767   6.738 -0.1248  2.5046 -1.5698
  399MOL0     H53840   5.498   2.813   6.846  0.0650  1.2245 -1.1189
  399MOL0     H53841   5.792   2.880   6.886 -0.9083 -1.3241 -3.1908
  399MOL0     H53842   5.648   2.929   6.990  0.3335  2.6473 -0.3448
  399MOL0     H53843   5.719   3.110   6.858 -1.4314 -0.6893  0.5960
  399MOL0     H53844   5.743   3.009   6.717  0.8199 -1.0478  0.3587
  399MOL0     H53845   5.924   2.205   7.269  0.8908 -2.5464 -0.7567
  399MOL0     H53846   6.006   1.994   7.374 -0.2632  0.6177 -2.5017
  399MOL0     H53847   5.977   1.614   7.523  0.6656  2.8725 -0.4535
  399MOL0     H53848   6.090   1.393   7.615  1.1620  0.4173 -1.2949
  399MOL0     H53849   5.254   1.386   8.579  0.3028  0.2048 -1.1005
  399MOL0     H53850   5.046   1.522   8.498  1.1764 -1.2949 -3.1949
  399MOL0     H53851   4.852   1.859   8.192 -2.9567 -1.6896  2.3768
  399MOL0     H53852   4.672   2.017   8.155  0.9379  0.8500 -1.6294
  399MOL0     H53853   4.485   2.129   8.407 -2.3641  0.7571  0.6794
  399MOL0     H53854   4.442   2.205   8.252 -0.1239 -0.7281  0.0467
  399MOL0     H53855   4.497   2.314   8.523 -0.4956 -0.1535 -0.1670
  399MOL0     H53856   4.352   2.316   8.454  0.2105  3.7709 -0.7151
  399MOL0     H53857   4.580   2.519   8.392 -1.4226  1.4811  4.1618
  399MOL0     H53858   4.423   2.540   8.456 -2.7831 -0.8472 -1.7043
  399MOL0     H53859   4.461   2.464   8.158 -1.3823 -0.0909 -0.1886
  399MOL0     H53860   4.308   2.518   8.248 -0.5792  3.2958 -2.0031
  399MOL0     H53861   4.557   2.859   8.160 -0.6222  0.5225 -0.2691
  399MOL0     H53862   4.801   2.241   8.496 -0.0169 -0.0519  1.3326
  399MOL0     H53863   5.063   2.004   8.614 -0.8125 -0.4278  1.5985
  399MOL0     H53864   5.077   2.174   8.556  0.4171  0.9320  3.4903
  399MOL0     H53865   4.943   2.117   8.660  1.1975 -1.3717  0.7348
  400MOL0     O53866   3.339   0.885   2.083  0.6034  0.4805  0.2291
  400MOL0     C53867   3.308   0.977   2.147  0.4044 -1.8056 -0.5550
  400MOL0     O53868   3.303   0.982   2.280 -0.3726  0.6588  0.0486
  400MOL0     C53869   3.384   0.894   2.357 -0.0025  0.2628 -0.4910
  400MOL0     C53870   3.522   0.893   2.352 -0.1259  0.0164 -0.0276
  400MOL0     C53871   3.595   0.796   2.422  1.2227  0.2174 -0.5159
  400MOL0     C53872   3.536   0.701   2.510  0.3946 -0.1166 -0.5939
  400MOL0     O53873   3.598   0.609   2.586 -0.4121 -0.4145 -0.7366
  400MOL0     C53874   3.734   0.564   2.539  0.4312  0.0832 -0.0335
  400MOL0     C53875   3.772   0.440   2.618 -0.1507 -0.6870  0.9017
  400MOL0     C53876   3.699   0.320   2.558 -0.4631 -0.8751 -0.7222
  400MOL0     C53877   3.741   0.186   2.613 -0.5431  0.9207  0.3998
  400MOL0     C53878   3.639   0.084   2.585  0.1914  0.3641 -0.3160
  400MOL0     C53879   3.674  -0.071   2.611 -0.7248  0.1443 -0.3304
  400MOL0     C53880   3.543  -0.150   2.595  0.1610  0.9538  0.2538
  400MOL0     C53881   3.532  -0.215   2.455  0.6950 -1.2175  0.0214
  400MOL0     N53882   3.543  -0.358   2.458  0.4578  0.3063 -1.5316
  400MOL0     C53883   3.662  -0.423   2.460 -0.3977 -1.3027  0.3393
  400MOL0     C53884   3.623  -0.556   2.473 -0.4753  0.1812 -0.6567
  400MOL0     C53885   3.711  -0.678   2.442  0.2822  0.7786  0.1312
  400MOL0     C53886   3.741  -0.763   2.568  0.5138 -0.1876 -0.1117
  400MOL0     C53887   3.776  -0.698   2.694  0.8722 -0.3993  0.6370
  400MOL0     C53888   3.665  -0.621   2.779 -0.3167 -0.0575  1.2068
  400MOL0     O53889   3.748  -0.541   2.864 -0.1704 -0.2215  0.3958
  400MOL0     C53890   3.677  -0.437   2.911  0.2450 -0.3231 -0.5058
  400MOL0     C53891   3.533  -0.426   2.941  0.3202 -0.3844 -0.3222
  400MOL0     C53892   3.475  -0.305   2.990  0.0186  0.1009  0.2035
  400MOL0     C53893   3.553  -0.187   3.007  0.4047  0.4515  0.7856
  400MOL0     C53894   3.494  -0.067   3.046  0.1816  0.0400 -0.0545
  400MOL0     O53895   3.576   0.029   3.068 -0.0807  0.1874 -0.4369
  400MOL0     C53896   3.528   0.154   3.074 -0.2672  0.1352  0.2285
  400MOL0     C53897   3.547   0.219   3.192 -1.0537 -0.3943  0.3081
  400MOL0     C53898   3.542   0.356   3.208  0.5717 -0.1842  0.2094
  400MOL0     C53899   3.501   0.431   3.094  0.1192  0.3599  0.1969
  400MOL0     O53900   3.467   0.562   3.115  0.3956 -0.1289  0.4490
  400MOL0     C53901   3.519   0.649   3.012 -0.3101 -0.6993  0.4865
  400MOL0     C53902   3.675   0.673   3.031  0.4965  0.8102 -0.2938
  400MOL0     C53903   3.712   0.719   3.167 -0.5542  0.8502  0.1655
  400MOL0     C53904   3.634   0.834   3.226  1.1905 -0.4083  0.0501
  400MOL0     C53905   3.695   0.886   3.364 -0.3380  0.4356  0.7439
  400MOL0     C53906   3.673   1.029   3.387 -0.8998  0.1136 -0.5571
  400MOL0     C53907   3.698   1.069   3.534  0.5830 -0.2807 -0.1439
  400MOL0     C53908   3.554   1.064   3.600  1.1183 -0.2281 -0.0826
  400MOL0    Cl53909   3.440   1.194   3.534 -0.4760  0.1270 -0.4510
  400MOL0     C53910   3.469   0.368   2.972  0.1802 -0.0412  0.4301
  400MOL0     C53911   3.485   0.237   2.963  0.0342 -0.5505  0.2358
  400MOL0     O53912   3.373  -0.065   3.037 -0.6507 -0.3923  0.3568
  400MOL0     C53913   3.686  -0.201   2.983  0.0860 -0.8403 -0.8124
  400MOL0     C53914   3.752  -0.322   2.939 -0.5283 -0.3853 -0.4952
  400MOL0     N53915   3.485  -0.561   2.485 -0.1768  0.0864  0.6482
  400MOL0     N53916   3.438  -0.443   2.500 -1.2260 -0.1396 -0.1118
  400MOL0     C53917   3.395   0.708   2.521  0.5472  0.0022  1.0021
  400MOL0     C53918   3.315   0.797   2.441 -0.2028 -0.4175  0.2688
  400MOL0     C53919   3.263   1.094   2.067 -0.6234  0.1038  0.6959
  400MOL0     C53920   3.306   1.085   1.929 -0.2297  0.1771  0.7718
  400MOL0     C53921   3.298   1.192   1.841  0.3249  0.0232 -0.2018
  400MOL0     C53922   3.213   1.303   1.873 -0.1522 -0.4203  0.8380
  400MOL0     O53923   3.181   1.395   1.774  0.5164 -0.1541 -1.2006
  400MOL0     C53924   3.152   1.335   1.644 -0.3232 -0.7066 -0.0198
  400MOL0     C53925   3.014   1.367   1.606 -1.2034 -0.4361  0.5347
  400MOL0     C53926   3.005   1.378   1.447  0.1923 -0.0887 -0.6580
  400MOL0     C53927   2.851   1.389   1.422 -0.2126 -0.3638 -0.0645
  400MOL0     C53928   2.813   1.371   1.287 -0.5869 -0.2855  0.3737
  400MOL0     C53929   2.768   1.350   1.176  0.1542  0.4295  1.0364
  400MOL0     C53930   3.166   1.309   2.002  0.3739  0.3730  2.0422
  400MOL0     C53931   3.200   1.213   2.102 -0.1043 -0.4482 -0.1665
  400MOL0     C53932   3.162   1.264   2.236 -0.3250  0.9173 -0.7192
  400MOL0     H53933   3.570   0.980   2.308 -2.3608  1.2094 -0.2798
  400MOL0     H53934   3.703   0.784   2.417  1.0428 -3.7057  1.1389
  400MOL0     H53935   3.727   0.539   2.432  0.9700 -1.1704  0.2093
  400MOL0     H53936   3.812   0.640   2.545 -0.3505  1.1440 -2.1202
  400MOL0     H53937   3.757   0.462   2.724 -1.2816 -0.2170  0.6617
  400MOL0     H53938   3.877   0.422   2.597 -0.3210 -0.1203 -0.5156
  400MOL0     H53939   3.717   0.314   2.450 -0.0751 -1.7577 -0.6191
  400MOL0     H53940   3.592   0.330   2.572 -0.7192 -3.9888  0.3778
  400MOL0     H53941   3.831   0.142   2.570 -2.0849 -0.2629 -1.8334
  400MOL0     H53942   3.764   0.193   2.720  1.3187  0.7806  0.0390
  400MOL0     H53943   3.548   0.112   2.638  0.2926  0.8822 -0.4130
  400MOL0     H53944   3.624   0.096   2.478  0.2452 -1.7577 -0.6037
  400MOL0     H53945   3.758  -0.115   2.558 -1.1046 -1.2966  0.1991
  400MOL0     H53946   3.697  -0.080   2.718  3.1937  4.4170 -0.5219
  400MOL0     H53947   3.450  -0.091   2.595 -2.6794 -3.0466  2.1547
  400MOL0     H53948   3.530  -0.225   2.674 -1.8532 -1.2890 -1.9894
  400MOL0     H53949   3.437  -0.195   2.404  1.5005 -2.4966 -2.1471
  400MOL0     H53950   3.616  -0.193   2.388  3.9881 -1.4012  3.7091
  400MOL0     H53951   3.757  -0.383   2.428 -0.3729 -2.1676 -0.7387
  400MOL0     H53952   3.665  -0.740   2.365 -0.5809 -1.9850  2.6737
  400MOL0     H53953   3.804  -0.648   2.392 -1.1212  1.0419 -2.4465
  400MOL0     H53954   3.656  -0.829   2.590 -1.2202  1.4159 -1.6818
  400MOL0     H53955   3.815  -0.839   2.540  1.4232  0.2823  0.9471
  400MOL0     H53956   3.859  -0.631   2.672  0.7915 -1.0845 -2.2030
  400MOL0     H53957   3.826  -0.768   2.763  3.0000 -0.4104 -0.8183
  400MOL0     H53958   3.605  -0.699   2.826  0.1522 -1.0140  0.2668
  400MOL0     H53959   3.600  -0.560   2.715  0.6353 -1.6174 -1.4324
  400MOL0     H53960   3.466  -0.511   2.944  0.3912 -0.4480 -0.5063
  400MOL0     H53961   3.368  -0.305   3.007 -0.4679 -4.1608 -1.5280
  400MOL0     H53962   3.584   0.172   3.283 -0.0016 -0.1548  0.0250
  400MOL0     H53963   3.551   0.402   3.306  0.4526  0.6343 -0.1469
  400MOL0     H53964   3.499   0.607   2.913  0.1388 -0.4797  0.2998
  400MOL0     H53965   3.468   0.744   3.032  0.4968 -0.3695  1.0132
  400MOL0     H53966   3.736   0.586   3.006  0.3795  0.6566 -0.0521
  400MOL0     H53967   3.710   0.756   2.970 -1.3557  1.3525 -0.6801
  400MOL0     H53968   3.700   0.632   3.233  0.6976  1.8536  1.7602
  400MOL0     H53969   3.819   0.737   3.182 -0.3670  0.0761 -0.1514
  400MOL0     H53970   3.526   0.814   3.231  1.0574 -0.1834 -1.3621
  400MOL0     H53971   3.637   0.922   3.161  0.0405  0.9443  1.7443
  400MOL0     H53972   3.804   0.875   3.365 -0.2590  0.5962 -1.7459
  400MOL0     H53973   3.650   0.821   3.440 -1.2786  2.1025  1.6498
  400MOL0     H53974   3.736   1.082   3.315  0.8204 -1.3276 -0.1955
  400MOL0     H53975   3.568   1.047   3.362 -0.7394 -0.6230 -1.8101
  400MOL0     H53976   3.739   1.171   3.538 -2.9379  1.2218  3.3698
  400MOL0     H53977   3.773   1.008   3.585  4.5751  4.4708  0.4606
  400MOL0     H53978   3.507   0.967   3.583  2.9982 -1.9371  3.3564
  400MOL0     H53979   3.571   1.066   3.708 -3.1538 -2.0197  0.8317
  400MOL0     H53980   3.404   0.425   2.907 -0.2340  0.0245  0.8998
  400MOL0     H53981   3.460   0.186   2.871 -0.5635  0.9554 -0.4739
  400MOL0     H53982   3.757  -0.123   3.010 -1.4660  1.9490 -3.9564
  400MOL0     H53983   3.860  -0.320   2.930 -0.3655 -1.1612  0.9388
  400MOL0     H53984   3.341   0.640   2.586  2.1308 -1.9405  0.3841
  400MOL0     H53985   3.208   0.816   2.448 -0.1799  0.3029 -1.0299
  400MOL0     H53986   3.362   1.002   1.889  0.1127  0.4915  0.5898
  400MOL0     H53987   3.340   1.175   1.742 -0.3665 -0.6160 -0.3941
  400MOL0     H53988   3.155   1.226   1.645  1.7984 -0.7256 -1.0662
  400MOL0     H53989   3.225   1.373   1.572  0.6472  1.9888  2.1929
  400MOL0     H53990   2.996   1.466   1.649  2.6094  0.8113 -0.3374
  400MOL0     H53991   2.932   1.307   1.645 -0.3301 -1.3671  0.9852
  400MOL0     H53992   3.065   1.293   1.411 -1.6090 -0.7514 -2.2423
  400MOL0     H53993   3.062   1.460   1.404 -2.8857  0.8045 -3.4082
  400MOL0     H53994   2.800   1.306   1.472  1.7090 -2.1130 -0.8763
  400MOL0     H53995   2.818   1.487   1.459 -1.0347 -0.6170 -0.1031
  400MOL0     H53996   2.732   1.328   1.078 -0.6995  1.7108  1.0298
  400MOL0     H53997   3.115   1.400   2.032 -1.2072 -0.0052  0.6762
  400MOL0     H53998   3.246   1.324   2.272  1.9991 -3.1435  1.3646
  400MOL0     H53999   3.070   1.322   2.237 -0.0673  1.3392  1.1549
  400MOL0     H54000   3.150   1.183   2.309 -0.2960  2.0297  0.5493
  401MOL0     O54001   2.922   8.979   4.902  0.4262  0.1561  0.7784
  401MOL0     C54002   2.973   9.087   4.911 -0.0861  0.8749 -0.6635
  401MOL0     O54003   3.041   9.146   4.815  0.6717  0.0350  0.3496
  401MOL0     C54004   3.094   9.065   4.715 -0.4101  0.0180  0.4048
  401MOL0     C54005   3.052   9.094   4.584  0.2491 -0.6645  0.2167
  401MOL0     C54006   3.105   9.017   4.484  0.1050 -0.7714  0.5853
  401MOL0     C54007   3.201   8.917   4.507 -0.7091  0.1051  0.3796
  401MOL0     O54008   3.240   8.842   4.403 -0.2659 -1.0312 -0.4205
  401MOL0     C54009   3.367   8.880   4.333  0.4530  0.2435 -1.9395
  401MOL0     C54010   3.502   8.814   4.383 -0.2206  0.4564 -0.2347
  401MOL0     C54011   3.495   8.661   4.380  0.2456 -0.0483  0.0484
  401MOL0     C54012   3.622   8.596   4.451 -0.1812  0.3096  0.3110
  401MOL0     C54013   3.655   8.449   4.416  0.4756 -0.0111  0.5096
  401MOL0     C54014   3.735   8.432   4.287 -0.5219 -0.0757  0.2291
  401MOL0     C54015   3.790   8.290   4.277  1.0566  0.4304 -0.8240
  401MOL0     C54016   3.935   8.288   4.307  0.4033 -0.1106  0.1568
  401MOL0     N54017   3.984   8.150   4.329  1.2667 -0.7901 -0.3747
  401MOL0     C54018   4.052   8.111   4.442 -0.4307 -0.3088 -0.6652
  401MOL0     C54019   4.114   7.992   4.402 -0.2488  0.3887  0.1435
  401MOL0     C54020   4.207   7.903   4.476  0.3326  0.1646  0.1988
  401MOL0     C54021   4.350   7.962   4.498  0.3861 -0.2299 -0.6740
  401MOL0     C54022   4.425   7.882   4.608  0.5840  1.4469 -0.1344
  401MOL0     C54023   4.360   7.905   4.735  0.6723 -0.4183 -0.7162
  401MOL0     O54024   4.338   8.041   4.761 -0.3631  0.2584 -0.3584
  401MOL0     C54025   4.237   8.084   4.848 -0.6265 -0.2764 -0.1887
  401MOL0     C54026   4.208   8.219   4.832  0.0404 -0.1500  0.1249
  401MOL0     C54027   4.121   8.278   4.921 -0.7118  0.0909 -0.3233
  401MOL0     C54028   4.068   8.208   5.028 -1.2804 -0.5844 -0.4565
  401MOL0     C54029   3.973   8.273   5.131 -0.5410 -0.2620  1.1727
  401MOL0     O54030   3.901   8.181   5.208 -0.3157  0.1335 -0.1766
  401MOL0     C54031   3.822   8.229   5.309  0.1002 -0.1707 -0.0832
  401MOL0     C54032   3.831   8.169   5.434  0.6433 -0.6296 -0.5742
  401MOL0     C54033   3.745   8.201   5.544 -0.5910 -0.8962 -0.2529
  401MOL0     C54034   3.656   8.308   5.538  1.0769 -0.8665  0.4050
  401MOL0     O54035   3.571   8.360   5.632 -0.0841  0.4001 -0.0407
  401MOL0     C54036   3.560   8.272   5.747 -0.9242 -0.2963  0.2896
  401MOL0     C54037   3.453   8.331   5.849  0.1349  0.5877  0.5068
  401MOL0     C54038   3.495   8.470   5.898 -0.4057  0.1445  1.2961
  401MOL0     C54039   3.399   8.520   6.002  0.0173 -0.7673  0.4367
  401MOL0     C54040   3.438   8.652   6.070 -0.5532 -0.3135 -0.2799
  401MOL0     C54041   3.329   8.711   6.164 -0.5408 -0.0316  0.7310
  401MOL0     C54042   3.278   8.616   6.277  0.0901 -0.1802 -0.2450
  401MOL0     C54043   3.158   8.663   6.343 -0.6971 -0.4875 -0.2197
  401MOL0    Cl54044   3.009   8.645   6.244  0.5629 -0.0974 -0.1405
  401MOL0     C54045   3.634   8.358   5.404  0.2243 -0.5940  0.1895
  401MOL0     C54046   3.708   8.317   5.293 -0.4097  0.3702  0.5532
  401MOL0     O54047   3.973   8.396   5.144  0.3420 -0.7337  0.2345
  401MOL0     C54048   4.095   8.069   5.037 -0.5192  0.6254 -0.1458
  401MOL0     C54049   4.187   8.006   4.955 -0.0835  0.0980  0.3859
  401MOL0     N54050   4.090   7.976   4.265 -0.4298 -0.4716 -0.0215
  401MOL0     N54051   4.008   8.061   4.233  0.2734 -0.0525  0.2037
  401MOL0     C54052   3.256   8.897   4.639  0.5509  0.4704  0.3659
  401MOL0     C54053   3.194   8.967   4.739 -1.2605  0.0014 -0.3823
  401MOL0     C54054   2.948   9.164   5.033 -0.6777 -0.4858  0.1872
  401MOL0     C54055   2.834   9.142   5.112 -0.1782  0.5950 -0.3421
  401MOL0     C54056   2.822   9.222   5.228  0.8508 -0.5406  0.2574
  401MOL0     C54057   2.898   9.333   5.261  0.5576 -1.0436 -0.3558
  401MOL0     O54058   2.870   9.431   5.352  0.1859 -0.1199 -0.0223
  401MOL0     C54059   2.755   9.405   5.428  1.4035 -0.1277 -0.1445
  401MOL0     C54060   2.720   9.526   5.513 -0.6227  0.9080 -1.2980
  401MOL0     C54061   2.566   9.543   5.532 -0.3835 -0.2384 -0.2665
  401MOL0     C54062   2.497   9.420   5.596 -0.1843 -0.2557  0.7439
  401MOL0     C54063   2.559   9.397   5.733  0.2581 -0.5444  0.0365
  401MOL0     C54064   2.609   9.393   5.841 -0.0064 -0.0443  0.2986
  401MOL0     C54065   3.009   9.350   5.187 -0.3210 -0.0318  0.9834
  401MOL0     C54066   3.040   9.266   5.076 -0.7546  0.0245 -0.3336
  401MOL0     C54067   3.173   9.297   5.018 -0.1301  0.4247  0.2684
  401MOL0     H54068   2.982   9.177   4.573 -0.2750 -0.9126  1.4800
  401MOL0     H54069   3.074   9.029   4.380  0.3975  2.2903  0.7690
  401MOL0     H54070   3.352   8.845   4.230  2.2098 -3.1933 -1.1992
  401MOL0     H54071   3.373   8.988   4.345 -1.4098  0.0588  3.6873
  401MOL0     H54072   3.516   8.841   4.489  1.9854  0.8620 -0.5639
  401MOL0     H54073   3.582   8.851   4.318  2.1437 -2.4097  0.8021
  401MOL0     H54074   3.489   8.623   4.277 -3.6536  0.4483 -0.0372
  401MOL0     H54075   3.410   8.612   4.429  0.5858 -5.2737 -3.6824
  401MOL0     H54076   3.712   8.651   4.422 -0.6023  1.3497  0.9344
  401MOL0     H54077   3.625   8.602   4.560  0.7752  1.2539  0.2500
  401MOL0     H54078   3.705   8.393   4.496  0.0391 -0.1431  0.6911
  401MOL0     H54079   3.557   8.404   4.399  1.1173 -0.7547 -1.6424
  401MOL0     H54080   3.680   8.438   4.192 -0.8085 -2.3617  0.1955
  401MOL0     H54081   3.806   8.514   4.299 -3.1179  2.6304 -1.3158
  401MOL0     H54082   3.772   8.249   4.177 -2.1433 -1.2926  0.3245
  401MOL0     H54083   3.742   8.221   4.346  0.8162  1.3142 -0.0957
  401MOL0     H54084   3.995   8.325   4.223 -1.6723  1.5517 -0.6579
  401MOL0     H54085   3.957   8.341   4.400  1.6263 -1.2173  0.5275
  401MOL0     H54086   4.051   8.157   4.541 -0.8571 -1.4882 -0.1098
  401MOL0     H54087   4.170   7.875   4.576  5.4607 -0.6606  2.1953
  401MOL0     H54088   4.219   7.809   4.422 -2.5697 -1.2253  1.7491
  401MOL0     H54089   4.412   7.963   4.408  4.5295 -1.2108  1.9295
  401MOL0     H54090   4.350   8.062   4.543  1.8447 -0.3885 -0.2928
  401MOL0     H54091   4.527   7.920   4.620  0.0576  2.7270  0.4370
  401MOL0     H54092   4.430   7.779   4.572  1.5131  0.0881  3.4701
  401MOL0     H54093   4.425   7.872   4.817 -1.9066 -2.5470  0.6465
  401MOL0     H54094   4.270   7.844   4.734  2.7161 -3.7209 -3.2454
  401MOL0     H54095   4.257   8.269   4.749 -0.0005  0.8803  0.7037
  401MOL0     H54096   4.104   8.384   4.908 -0.7717 -0.0084 -1.1233
  401MOL0     H54097   3.913   8.100   5.455  1.1505  0.4278  1.1354
  401MOL0     H54098   3.759   8.149   5.639 -1.0347  0.7831  0.7878
  401MOL0     H54099   3.505   8.179   5.727 -3.9510  0.9336  2.1049
  401MOL0     H54100   3.649   8.251   5.807 -2.3638  3.8063  4.4448
  401MOL0     H54101   3.364   8.342   5.786 -0.9631  4.2353  2.3988
  401MOL0     H54102   3.430   8.261   5.931 -0.1512  0.3779  0.2504
  401MOL0     H54103   3.594   8.452   5.939  0.5415  1.3245 -0.3638
  401MOL0     H54104   3.512   8.536   5.812  2.5489 -2.3151 -0.2038
  401MOL0     H54105   3.381   8.439   6.072 -1.7247  0.2236  1.2130
  401MOL0     H54106   3.309   8.535   5.940  0.0389  0.1169  0.6129
  401MOL0     H54107   3.454   8.724   5.990  0.6752 -0.3436 -0.0774
  401MOL0     H54108   3.528   8.651   6.132  1.2599  2.6847 -2.6020
  401MOL0     H54109   3.361   8.808   6.206 -3.6934  1.0291  0.8994
  401MOL0     H54110   3.237   8.728   6.108 -0.2543  0.1226  0.3082
  401MOL0     H54111   3.361   8.604   6.348  2.3404  2.1702 -2.2767
  401MOL0     H54112   3.249   8.525   6.223  0.6993 -0.3197 -0.3453
  401MOL0     H54113   3.134   8.607   6.433 -1.2132  0.2943  0.1437
  401MOL0     H54114   3.184   8.768   6.363 -1.0260 -0.3902 -0.2910
  401MOL0     H54115   3.554   8.426   5.377 -0.6173 -1.4704  0.4096
  401MOL0     H54116   3.679   8.347   5.193  2.6396 -0.3152 -0.6394
  401MOL0     H54117   4.040   8.010   5.109  0.8608 -2.0189 -1.1477
  401MOL0     H54118   4.203   7.899   4.951  1.5617  0.2938  1.0808
  401MOL0     H54119   3.323   8.813   4.649 -2.5080 -2.5315 -2.0766
  401MOL0     H54120   3.199   8.944   4.844 -0.0713  3.9727  0.6123
  401MOL0     H54121   2.759   9.067   5.090 -1.3564  1.8818 -0.8743
  401MOL0     H54122   2.743   9.199   5.299  0.3972 -0.3307 -0.1698
  401MOL0     H54123   2.757   9.315   5.491 -2.8046  0.9929  2.0097
  401MOL0     H54124   2.674   9.394   5.355  1.3033  1.4269 -0.2984
  401MOL0     H54125   2.767   9.620   5.481  2.5834 -0.3181 -0.5970
  401MOL0     H54126   2.781   9.501   5.600 -3.4549 -1.6794  0.1356
  401MOL0     H54127   2.525   9.574   5.435 -4.8896  0.4965  1.6134
  401MOL0     H54128   2.554   9.624   5.604 -1.9221  0.0347 -0.7879
  401MOL0     H54129   2.391   9.445   5.595  0.4015  2.5724  1.0529
  401MOL0     H54130   2.515   9.328   5.539  0.3616 -0.3025  0.9918
  401MOL0     H54131   2.667   9.381   5.930 -3.5081  0.4631  2.8772
  401MOL0     H54132   3.076   9.432   5.211  1.3178 -1.1391  0.4005
  401MOL0     H54133   3.221   9.207   4.978 -0.7205 -1.0033  2.6394
  401MOL0     H54134   3.152   9.366   4.935  1.2382  2.2970  1.4033
  401MOL0     H54135   3.237   9.351   5.089  3.8614 -1.7993 -1.3093
  402MOL0     O54136   4.750  10.618   2.298 -0.5532  0.4592 -0.9897
  402MOL0     C54137   4.680  10.580   2.207 -0.4130  1.1038 -0.1319
  402MOL0     O54138   4.726  10.560   2.076  0.0798 -0.1478 -0.5770
  402MOL0     C54139   4.853  10.596   2.041 -0.3981 -0.2787  0.7072
  402MOL0     C54140   4.858  10.656   1.913  0.8277  0.1747  0.0553
  402MOL0     C54141   4.976  10.712   1.860 -0.4316  0.6666  0.2858
  402MOL0     C54142   5.098  10.711   1.937 -0.4260  0.5588  0.1949
  402MOL0     O54143   5.216  10.759   1.894 -0.9584  0.2304 -0.0898
  402MOL0     C54144   5.220  10.863   1.791  0.0563 -0.6142  0.0960
  402MOL0     C54145   5.357  10.940   1.777 -0.4705  0.4209  0.1388
  402MOL0     C54146   5.480  10.849   1.803  0.5743  0.2409  0.3611
  402MOL0     C54147   5.507  10.783   1.666 -0.0678  0.4648  0.1725
  402MOL0     C54148   5.600  10.651   1.674 -0.2338  0.2041  0.8798
  402MOL0     C54149   5.598  10.568   1.546 -0.0281  0.3724 -0.2121
  402MOL0     C54150   5.684  10.627   1.426 -1.1064 -0.4204 -0.0076
  402MOL0     C54151   5.639  10.557   1.291 -0.5905  0.4076 -0.5262
  402MOL0     N54152   5.679  10.632   1.177 -0.4019 -0.0625 -0.3788
  402MOL0     C54153   5.734  10.572   1.065 -0.8854  0.0250 -0.2974
  402MOL0     C54154   5.707  10.655   0.967  0.4377  0.6526  0.5078
  402MOL0     C54155   5.765  10.658   0.824  0.0741 -0.2427 -0.2574
  402MOL0     C54156   5.856  10.783   0.805 -0.4096 -0.1914 -0.1449
  402MOL0     C54157   5.912  10.782   0.664 -0.3909  0.8398 -1.0180
  402MOL0     C54158   5.968  10.919   0.646  0.1553  0.6088 -0.1031
  402MOL0     O54159   5.994  10.955   0.507  0.4565 -0.6612  0.3261
  402MOL0     C54160   6.091  10.904   0.425 -0.0571  0.2364 -0.3088
  402MOL0     C54161   6.181  10.807   0.468  0.3736  0.2458  0.2690
  402MOL0     C54162   6.268  10.748   0.379 -0.5673  0.1284  1.0656
  402MOL0     C54163   6.285  10.802   0.251 -0.8425  0.1307  0.2591
  402MOL0     C54164   6.401  10.763   0.170 -0.1423 -0.1530  0.0302
  402MOL0     O54165   6.462  10.640   0.196  0.2414  0.3092 -0.0062
  402MOL0     C54166   6.563  10.593   0.118 -0.4036  0.1435  0.5136
  402MOL0     C54167   6.555  10.451   0.098 -0.0801 -0.3526 -0.5853
  402MOL0     C54168   6.664  10.383   0.037 -0.5052  0.4566 -0.7502
  402MOL0     C54169   6.782  10.454   0.015 -0.7404 -0.9354 -0.0124
  402MOL0     O54170   6.891  10.389  -0.029 -0.3693 -0.2221  0.4072
  402MOL0     C54171   6.997  10.382   0.073 -0.0886  0.3167  0.3747
  402MOL0     C54172   7.094  10.264   0.054  0.6672 -0.2248 -0.5089
  402MOL0     C54173   7.175  10.289  -0.069  0.5862 -1.0108 -0.3997
  402MOL0     C54174   7.283  10.186  -0.084  0.2001  0.0037 -0.5952
  402MOL0     C54175   7.408  10.201   0.004  0.6759 -0.2025 -0.8964
  402MOL0     C54176   7.472  10.344   0.003  0.7398  0.3912  0.2716
  402MOL0     C54177   7.604  10.344   0.070 -0.4611 -0.2916  0.4205
  402MOL0     C54178   7.650  10.494   0.051 -0.0862  0.9990 -0.6040
  402MOL0    Cl54179   7.802  10.528   0.144 -0.1871 -0.0998  0.5605
  402MOL0     C54180   6.785  10.595   0.019 -0.5458 -0.7533  1.0539
  402MOL0     C54181   6.672  10.664   0.064 -0.2670 -0.3156 -0.6161
  402MOL0     O54182   6.429  10.837   0.079 -0.3187 -0.4391  0.4186
  402MOL0     C54183   6.189  10.900   0.211 -1.0493 -0.2929  0.2434
  402MOL0     C54184   6.103  10.949   0.301  0.4728  0.0893 -0.0307
  402MOL0     N54185   5.642  10.767   1.012 -0.1483  0.4025 -0.4019
  402MOL0     N54186   5.629  10.756   1.137 -0.0282  0.5001  1.0694
  402MOL0     C54187   5.086  10.664   2.070 -0.5099  0.3686 -0.6262
  402MOL0     C54188   4.973  10.602   2.116  1.1667 -0.9270 -0.0703
  402MOL0     C54189   4.536  10.568   2.227 -0.2289 -0.4365 -0.2819
  402MOL0     C54190   4.464  10.567   2.113  0.1726 -0.5855  0.5379
  402MOL0     C54191   4.328  10.589   2.119 -0.5780 -0.2513  0.8878
  402MOL0     C54192   4.262  10.604   2.243 -0.1618  0.5348  0.5356
  402MOL0     O54193   4.129  10.607   2.256  0.0332  0.3577  0.4185
  402MOL0     C54194   4.064  10.496   2.310  0.8460  0.0492 -0.3826
  402MOL0     C54195   3.914  10.519   2.295 -0.4391 -0.2857  1.2527
  402MOL0     C54196   3.867  10.487   2.149 -0.1630 -1.3311 -0.0029
  402MOL0     C54197   3.874  10.608   2.071 -0.1226  0.2950 -0.3951
  402MOL0     C54198   3.828  10.583   1.930  0.3844 -0.2835  1.1696
  402MOL0     C54199   3.773  10.573   1.823 -0.2890  0.5152  0.1746
  402MOL0     C54200   4.339  10.600   2.368  0.1502  0.7517 -0.7433
  402MOL0     C54201   4.470  10.573   2.360 -0.8052  0.2394  0.4573
  402MOL0     C54202   4.547  10.557   2.488  1.1322  0.2276  0.0129
  402MOL0     H54203   4.766  10.656   1.855  1.4235 -2.9272 -1.0745
  402MOL0     H54204   4.982  10.750   1.759 -1.1379 -0.8508 -0.3462
  402MOL0     H54205   5.203  10.819   1.692  3.3134  0.7782 -1.2198
  402MOL0     H54206   5.139  10.933   1.812 -0.0139 -0.8574  0.6598
  402MOL0     H54207   5.344  11.020   1.851 -2.2649 -0.9217  1.3413
  402MOL0     H54208   5.365  10.988   1.679 -0.4525  0.2216  0.0430
  402MOL0     H54209   5.471  10.777   1.885 -3.4339  0.4307  0.2821
  402MOL0     H54210   5.565  10.908   1.839 -1.9953  3.6551  1.3724
  402MOL0     H54211   5.420  10.727   1.632  0.6568 -0.9586  0.5742
  402MOL0     H54212   5.543  10.848   1.585 -0.3067 -0.4661 -0.7056
  402MOL0     H54213   5.701  10.686   1.696 -0.4995  2.1449 -0.7094
  402MOL0     H54214   5.585  10.585   1.760  1.3306  1.6057  2.3035
  402MOL0     H54215   5.642  10.468   1.554  2.0785  0.9469 -3.0733
  402MOL0     H54216   5.492  10.558   1.523  0.0438 -2.0736  0.1985
  402MOL0     H54217   5.791  10.614   1.442 -1.4827 -2.6549  1.1429
  402MOL0     H54218   5.664  10.732   1.405  2.3491 -0.0530 -2.3174
  402MOL0     H54219   5.687  10.459   1.288  1.0992  1.1832 -0.2410
  402MOL0     H54220   5.530  10.562   1.293 -0.5391  3.6794 -0.2335
  402MOL0     H54221   5.795  10.481   1.064  3.4131  2.5484  1.5351
  402MOL0     H54222   5.818  10.565   0.804  0.1096 -0.2814  0.0070
  402MOL0     H54223   5.688  10.660   0.746  1.2389  0.2632 -1.4270
  402MOL0     H54224   5.804  10.877   0.825  2.7004  1.4879  0.6807
  402MOL0     H54225   5.939  10.785   0.876  0.1836 -0.4085 -0.8228
  402MOL0     H54226   5.827  10.775   0.596 -2.6321 -0.1354  1.7213
  402MOL0     H54227   5.984  10.701   0.650  0.4266  0.6484  3.1197
  402MOL0     H54228   6.067  10.938   0.689  1.0152 -0.8779 -1.3061
  402MOL0     H54229   5.902  10.999   0.679 -1.2412  0.6458 -2.7444
  402MOL0     H54230   6.182  10.768   0.569 -1.7994  0.8129  0.5702
  402MOL0     H54231   6.333  10.665   0.403  1.4143  1.2003 -0.2978
  402MOL0     H54232   6.468  10.404   0.143  0.6294  0.9055  2.3039
  402MOL0     H54233   6.668  10.275   0.036 -2.7195  0.2617  1.1602
  402MOL0     H54234   7.053  10.476   0.063 -1.3039  1.0425  0.1166
  402MOL0     H54235   6.961  10.375   0.176  2.7672  4.2962  1.8985
  402MOL0     H54236   7.154  10.257   0.145 -0.9693 -2.9654  0.4840
  402MOL0     H54237   7.027  10.177   0.055 -2.7287  2.1746  1.9402
  402MOL0     H54238   7.109  10.280  -0.155 -0.0684 -1.3618  0.1260
  402MOL0     H54239   7.217  10.389  -0.078  2.9018 -1.8695  0.1272
  402MOL0     H54240   7.312  10.187  -0.190 -2.2343  1.1238 -1.3432
  402MOL0     H54241   7.234  10.090  -0.066 -3.6270  1.8159 -0.2955
  402MOL0     H54242   7.484  10.132  -0.035  2.2095  1.4327 -0.8873
  402MOL0     H54243   7.384  10.181   0.109  1.4521  3.5097  0.1119
  402MOL0     H54244   7.483  10.379  -0.100 -0.6782  0.1320  0.0211
  402MOL0     H54245   7.401  10.409   0.054 -1.2952  0.5382 -2.5123
  402MOL0     H54246   7.682  10.274   0.039  0.7918 -0.0353  2.7341
  402MOL0     H54247   7.591  10.323   0.177 -0.7496 -1.6123  0.1362
  402MOL0     H54248   7.671  10.517  -0.054  1.7097  2.0126 -0.0826
  402MOL0     H54249   7.568  10.562   0.075 -0.6938  0.5739 -1.4199
  402MOL0     H54250   6.874  10.644  -0.019 -1.1320 -1.7475 -1.8600
  402MOL0     H54251   6.671  10.772   0.080  1.4199 -0.2187 -0.9282
  402MOL0     H54252   6.184  10.936   0.109  0.5496  0.0227  0.2445
  402MOL0     H54253   6.027  11.023   0.279 -2.6225 -2.3696  1.5047
  402MOL0     H54254   5.172  10.645   2.133 -1.6953 -3.4823  0.0882
  402MOL0     H54255   4.975  10.574   2.221  1.9820  4.1921  1.5960
  402MOL0     H54256   4.507  10.557   2.013 -4.1584 -1.3118 -1.4951
  402MOL0     H54257   4.261  10.582   2.034 -0.6291  1.1061  0.7936
  402MOL0     H54258   4.093  10.465   2.411 -0.5311  0.3428  0.1288
  402MOL0     H54259   4.087  10.402   2.259  0.0788 -1.3637  1.7093
  402MOL0     H54260   3.894  10.619   2.334  1.9008  1.1304 -0.8553
  402MOL0     H54261   3.860  10.448   2.358 -1.3182 -1.0475 -0.2736
  402MOL0     H54262   3.761  10.462   2.161 -1.3484  2.3063 -1.5089
  402MOL0     H54263   3.936  10.418   2.100 -0.6480 -1.9137  0.1209
  402MOL0     H54264   3.808  10.687   2.107  0.3782  0.1428  0.9214
  402MOL0     H54265   3.976  10.646   2.071  0.8398 -1.9912  2.2617
  402MOL0     H54266   3.726  10.582   1.727 -1.8297  1.6653  0.9845
  402MOL0     H54267   4.301  10.608   2.469  0.7985  1.3977 -0.5399
  402MOL0     H54268   4.603  10.649   2.506  0.4284  0.6088  0.2419
  402MOL0     H54269   4.480  10.538   2.572 -0.8124 -2.6754 -1.9866
  402MOL0     H54270   4.622  10.478   2.473  1.5798  1.2572 -4.7209
  403MOL0     O54271   2.153  10.921   9.229  0.5789  0.0979  1.3874
  403MOL0     C54272   2.146  10.958   9.111  0.2044  0.2286 -0.1627
  403MOL0     O54273   2.100  10.883   9.000  0.0712 -0.4186  0.3817
  403MOL0     C54274   2.084  10.748   8.989 -0.3547  0.8820 -1.2566
  403MOL0     C54275   2.021  10.694   8.871 -0.6607  0.0823  0.0089
  403MOL0     C54276   1.986  10.558   8.858 -0.6324  0.3882  0.3034
  403MOL0     C54277   2.032  10.466   8.949 -0.5581  0.3456 -0.4040
  403MOL0     O54278   1.990  10.336   8.938 -0.5160  0.0067  0.3835
  403MOL0     C54279   2.069  10.223   8.962  0.4941  0.4277  0.8226
  403MOL0     C54280   1.969  10.105   8.975  0.9858 -0.5603 -0.1211
  403MOL0     C54281   1.892  10.107   9.111 -0.0846  0.3680 -0.4302
  403MOL0     C54282   1.753  10.048   9.112  0.2224  0.3769 -0.4881
  403MOL0     C54283   1.704  10.030   9.259 -0.2413  0.6535  0.9717
  403MOL0     C54284   1.579   9.959   9.275 -0.0759 -0.1815 -0.2230
  403MOL0     C54285   1.551   9.962   9.427 -0.0700 -0.1849 -0.5862
  403MOL0     C54286   1.466   9.846   9.471 -0.0365 -0.7131 -0.6813
  403MOL0     N54287   1.413   9.869   9.614  0.6430  0.4547 -0.1280
  403MOL0     C54288   1.440   9.778   9.715  0.4862 -0.4561 -0.1116
  403MOL0     C54289   1.374   9.834   9.821 -0.3496  0.6163  0.4720
  403MOL0     C54290   1.379   9.760   9.954 -1.0324  0.6674  0.3363
  403MOL0     C54291   1.372   9.610   9.944 -0.3006 -0.2860 -0.4712
  403MOL0     C54292   1.507   9.555   9.961 -0.2316 -0.4965 -0.0514
  403MOL0     C54293   1.522   9.409   9.934 -0.4988  0.8767  0.2087
  403MOL0     O54294   1.663   9.384   9.957 -0.4073  0.2809  0.3875
  403MOL0     C54295   1.718   9.259   9.978  0.4777 -0.1434 -0.8630
  403MOL0     C54296   1.639   9.140   9.986 -0.4303 -1.2060 -0.1911
  403MOL0     C54297   1.689   9.016  10.022  0.3264  0.2986 -1.0237
  403MOL0     C54298   1.826   9.008  10.059  0.3022  0.2140  0.3655
  403MOL0     C54299   1.873   8.882  10.115 -0.2474  0.6711 -0.7781
  403MOL0     O54300   1.790   8.768  10.117 -0.6293 -0.4262  0.7868
  403MOL0     C54301   1.848   8.644  10.145  0.2914 -0.5110 -0.5391
  403MOL0     C54302   1.926   8.580  10.050  1.5064  0.3150 -0.1909
  403MOL0     C54303   1.991   8.453  10.078  1.6748  0.2179 -0.2283
  403MOL0     C54304   1.969   8.397  10.205  0.4950 -0.1976 -0.6179
  403MOL0     O54305   2.022   8.284  10.248 -0.4822  0.6092  0.6486
  403MOL0     C54306   2.100   8.204  10.147 -0.3944 -0.0602  0.2802
  403MOL0     C54307   2.009   8.133  10.049 -0.3850  1.1641  0.3874
  403MOL0     C54308   2.083   8.075   9.925 -0.3615 -0.3845  0.6985
  403MOL0     C54309   2.070   8.149   9.800 -0.0635  1.0714  0.1757
  403MOL0     C54310   1.916   8.179   9.763 -0.6902 -0.3180 -0.0432
  403MOL0     C54311   1.835   8.051   9.743 -0.3276 -0.0698  0.2231
  403MOL0     C54312   1.693   8.097   9.723  0.5555  0.1844  0.4620
  403MOL0     C54313   1.668   8.188   9.600 -0.0523  0.6688 -0.6420
  403MOL0    Cl54314   1.699   8.371   9.628 -0.4054  0.0398  0.0215
  403MOL0     C54315   1.883   8.465  10.295 -0.2071 -0.2554 -0.2326
  403MOL0     C54316   1.818   8.584  10.266 -0.4942 -0.6686 -0.7966
  403MOL0     O54317   1.986   8.887  10.171  0.0857 -0.3415 -0.1771
  403MOL0     C54318   1.905   9.123  10.030  0.4938  0.1357 -0.2057
  403MOL0     C54319   1.851   9.245  10.002  0.1608  0.4311 -0.2459
  403MOL0     N54320   1.309   9.946   9.772 -0.0078  0.5581 -0.7178
  403MOL0     N54321   1.329   9.963   9.646 -0.5473  0.1744  0.1718
  403MOL0     C54322   2.107  10.519   9.054  0.8580 -0.7998 -0.2910
  403MOL0     C54323   2.133  10.656   9.077 -0.1630  0.2756 -0.2105
  403MOL0     C54324   2.172  11.106   9.086 -0.0076  0.1034  0.9956
  403MOL0     C54325   2.142  11.155   8.963  0.3647 -0.0068  0.9555
  403MOL0     C54326   2.144  11.292   8.935  0.1686 -0.3562  0.3030
  403MOL0     C54327   2.182  11.391   9.029  0.0375  1.0108  0.3648
  403MOL0     O54328   2.185  11.526   8.999  0.0882  0.4845  0.2257
  403MOL0     C54329   2.308  11.587   8.956 -0.3277  0.1958 -0.5468
  403MOL0     C54330   2.374  11.674   9.065  0.7804  0.7067  0.0403
  403MOL0     C54331   2.272  11.751   9.156  0.2518  0.3316  1.1661
  403MOL0     C54332   2.341  11.795   9.285  0.6812  0.3107 -0.2544
  403MOL0     C54333   2.360  11.683   9.378  0.2502  0.5202 -0.4003
  403MOL0     C54334   2.375  11.603   9.469  0.3994 -0.3027  0.7793
  403MOL0     C54335   2.226  11.341   9.155 -0.4861  0.2620  0.6384
  403MOL0     C54336   2.209  11.203   9.186 -0.3209  0.3522 -0.6839
  403MOL0     C54337   2.237  11.162   9.329  0.6177 -0.4813 -0.3568
  403MOL0     H54338   1.989  10.765   8.796  1.2850 -0.1401 -1.0944
  403MOL0     H54339   1.921  10.536   8.773  0.7162  3.3790 -1.6764
  403MOL0     H54340   2.119  10.193   8.870 -0.7603 -0.2314  0.3275
  403MOL0     H54341   2.154  10.235   9.030  1.6042  2.2602 -0.7821
  403MOL0     H54342   2.025  10.012   8.964  2.0349 -0.4269  3.2726
  403MOL0     H54343   1.894  10.105   8.895  0.4042 -0.2672  0.4104
  403MOL0     H54344   1.889  10.214   9.135  2.5048  0.4983 -0.4325
  403MOL0     H54345   1.962  10.062   9.183 -2.0510  0.2524  1.5508
  403MOL0     H54346   1.688  10.120   9.060 -1.6030 -0.5713  0.3881
  403MOL0     H54347   1.758   9.952   9.060  3.9053 -1.1237  2.2116
  403MOL0     H54348   1.781   9.970   9.309 -1.9791  0.0996  3.1305
  403MOL0     H54349   1.710  10.125   9.312 -0.2406  1.0559  0.2582
  403MOL0     H54350   1.505  10.017   9.220  0.5229  0.7102 -0.1223
  403MOL0     H54351   1.581   9.860   9.229 -1.6346  0.1084 -0.9695
  403MOL0     H54352   1.515  10.058   9.465 -2.1701 -1.5958  1.2174
  403MOL0     H54353   1.642   9.944   9.485 -1.0816  0.2383  1.2236
  403MOL0     H54354   1.388   9.835   9.395  1.1279  0.7742 -2.1653
  403MOL0     H54355   1.525   9.753   9.474 -1.0983 -1.3923  1.1190
  403MOL0     H54356   1.512   9.697   9.720  2.1224  0.9496  0.0287
  403MOL0     H54357   1.477   9.794   9.987 -1.9333  5.5598 -1.1539
  403MOL0     H54358   1.301   9.804  10.018 -1.4433 -0.2274  0.4574
  403MOL0     H54359   1.307   9.567  10.022 -1.6021  0.0063 -1.3559
  403MOL0     H54360   1.334   9.577   9.847 -1.5420 -0.2984  0.0022
  403MOL0     H54361   1.531   9.583  10.064 -2.1148 -0.2423  0.3565
  403MOL0     H54362   1.577   9.605   9.893  0.6259 -1.4276  0.1264
  403MOL0     H54363   1.483   9.364   9.842  1.5438  3.2827 -2.0125
  403MOL0     H54364   1.481   9.355  10.020 -0.5674  1.5558  0.6067
  403MOL0     H54365   1.534   9.146   9.958 -1.1733  2.0903  2.5647
  403MOL0     H54366   1.616   8.937  10.033 -2.0321  2.5885  1.9122
  403MOL0     H54367   1.949   8.634   9.959  2.0173 -0.2613 -0.4060
  403MOL0     H54368   2.044   8.394  10.004  2.3006 -0.4506  0.7296
  403MOL0     H54369   2.177   8.261  10.093  1.8618 -3.6751 -0.7082
  403MOL0     H54370   2.148   8.124  10.205 -2.3302 -0.8394  0.8617
  403MOL0     H54371   1.957   8.054  10.103 -0.8650  0.6850 -0.7328
  403MOL0     H54372   1.926   8.200  10.023 -1.6420 -0.6730 -0.4827
  403MOL0     H54373   2.190   8.056   9.934 -0.2234 -1.6525 -2.3671
  403MOL0     H54374   2.042   7.975   9.907 -3.7499  1.0521 -0.4542
  403MOL0     H54375   2.127   8.107   9.717 -0.5952 -0.0560  0.3720
  403MOL0     H54376   2.104   8.251   9.821 -1.4926  2.4687 -3.3874
  403MOL0     H54377   1.927   8.232   9.668  4.1077  3.2452  2.0441
  403MOL0     H54378   1.883   8.258   9.831  3.1337 -0.2994  2.1158
  403MOL0     H54379   1.869   7.992   9.657  1.2306 -0.2069  0.8944
  403MOL0     H54380   1.839   7.981   9.826 -0.8339 -0.8193 -0.3663
  403MOL0     H54381   1.657   8.126   9.823  0.6384 -0.5303  0.7066
  403MOL0     H54382   1.621   8.016   9.706 -2.6164  3.2036 -1.9462
  403MOL0     H54383   1.733   8.143   9.524  0.0839 -4.7314  2.1443
  403MOL0     H54384   1.564   8.162   9.578  0.1362 -3.2027  2.0069
  403MOL0     H54385   1.858   8.422  10.392 -0.6091  1.4054  0.4279
  403MOL0     H54386   1.747   8.632  10.332 -0.0970 -1.6947  0.4027
  403MOL0     H54387   2.013   9.121  10.038  1.1393  2.6247 -4.8169
  403MOL0     H54388   1.933   9.315   9.995  0.2119  0.4743  0.6439
  403MOL0     H54389   2.140  10.458   9.138  2.7192  1.2029  0.5474
  403MOL0     H54390   2.178  10.681   9.173 -0.6012  2.6452 -0.5648
  403MOL0     H54391   2.111  11.087   8.884 -1.5639 -0.1715  1.7958
  403MOL0     H54392   2.121  11.335   8.839  1.6832 -2.9753 -1.3596
  403MOL0     H54393   2.299  11.631   8.857 -1.2992 -2.8184 -1.9191
  403MOL0     H54394   2.390  11.516   8.939  0.0523  0.8000 -1.2526
  403MOL0     H54395   2.430  11.747   9.006  3.9393 -1.2161  0.4886
  403MOL0     H54396   2.450  11.615   9.116 -1.9373 -2.6837  0.5548
  403MOL0     H54397   2.188  11.684   9.173 -2.2790  1.9316 -3.3584
  403MOL0     H54398   2.224  11.834   9.103 -1.9412 -0.5266  1.7090
  403MOL0     H54399   2.433  11.839   9.246 -1.2632  2.4810 -2.7351
  403MOL0     H54400   2.271  11.868   9.326 -2.5397 -1.2210 -2.5968
  403MOL0     H54401   2.376  11.536   9.553  0.0253 -0.8607  0.3476
  403MOL0     H54402   2.272  11.410   9.225 -0.7376 -0.8529  1.9488
  403MOL0     H54403   2.312  11.082   9.335 -1.8561 -3.1009 -1.9766
  403MOL0     H54404   2.275  11.243   9.392  1.9721  1.1445 -3.0405
  403MOL0     H54405   2.146  11.131   9.381  1.0466 -4.5579 -1.7278
  404MOL0     O54406   6.333   4.002   9.216  0.3565  0.6565 -0.3626
  404MOL0     C54407   6.411   3.906   9.228 -0.2124 -0.2124 -0.2315
  404MOL0     O54408   6.490   3.888   9.334 -0.7032 -0.3725  0.5714
  404MOL0     C54409   6.527   3.994   9.414  0.1388 -0.4922  0.9322
  404MOL0     C54410   6.664   4.028   9.414 -1.0057  0.2595 -0.0796
  404MOL0     C54411   6.714   4.135   9.482  0.0743 -0.0968  0.1352
  404MOL0     C54412   6.625   4.225   9.541  1.3114 -0.2446 -0.7672
  404MOL0     O54413   6.666   4.331   9.628  0.2334  0.4359 -0.0879
  404MOL0     C54414   6.592   4.440   9.683  0.3884  0.3847  0.8249
  404MOL0     C54415   6.689   4.520   9.761 -0.3492 -0.5058  0.5805
  404MOL0     C54416   6.780   4.608   9.684 -0.4111  0.0871 -0.0271
  404MOL0     C54417   6.871   4.697   9.780  0.6738  0.1246  0.8428
  404MOL0     C54418   6.957   4.786   9.693 -0.3590  0.3550 -0.3693
  404MOL0     C54419   7.084   4.712   9.665  1.1853 -0.5843  1.0709
  404MOL0     C54420   7.158   4.798   9.555  0.4289  0.3761 -0.4076
  404MOL0     C54421   7.305   4.747   9.548 -1.0140 -0.0993 -1.6596
  404MOL0     N54422   7.363   4.824   9.438  0.0956 -0.1302 -0.0633
  404MOL0     C54423   7.417   4.954   9.430  0.3488  0.0492  0.1431
  404MOL0     C54424   7.416   4.983   9.300  0.0008  0.8777  0.8504
  404MOL0     C54425   7.450   5.109   9.228 -0.0093  0.4382  0.1423
  404MOL0     C54426   7.592   5.153   9.251  0.0102 -0.1908  0.2016
  404MOL0     C54427   7.688   5.065   9.171 -0.0306  0.1219  1.9460
  404MOL0     C54428   7.828   5.103   9.220  0.2460  1.2411  0.8370
  404MOL0     O54429   7.913   5.124   9.115  0.1652 -0.0748 -0.6586
  404MOL0     C54430   7.895   5.209   9.019 -0.6209 -0.3123  0.5704
  404MOL0     C54431   7.958   5.184   8.899 -0.1084  0.2508 -0.1981
  404MOL0     C54432   7.966   5.291   8.798 -0.4309  0.3158  0.5973
  404MOL0     C54433   7.908   5.413   8.817 -0.2789 -0.2944  0.2791
  404MOL0     C54434   7.903   5.510   8.702 -0.1330 -0.8932  0.0440
  404MOL0     O54435   7.996   5.491   8.602 -0.2254  0.6721 -0.1669
  404MOL0     C54436   8.020   5.573   8.501  0.8570 -0.1958  1.1862
  404MOL0     C54437   8.135   5.542   8.423 -0.0665  1.2980  0.1577
  404MOL0     C54438   8.167   5.614   8.312 -0.1196  0.3415 -0.7592
  404MOL0     C54439   8.088   5.722   8.274  0.0143  0.2170  0.3085
  404MOL0     O54440   8.138   5.790   8.167  0.0029  0.1029  0.1194
  404MOL0     C54441   8.231   5.902   8.191 -0.3710  0.1814  0.0102
  404MOL0     C54442   8.283   5.977   8.057 -0.3158  0.1635  0.7389
  404MOL0     C54443   8.321   5.881   7.939  0.3058  0.7569  0.1151
  404MOL0     C54444   8.300   5.950   7.803 -0.6300 -1.0203  0.8668
  404MOL0     C54445   8.360   5.853   7.702 -1.0894  0.0841  0.8939
  404MOL0     C54446   8.354   5.918   7.557  0.2393 -0.2058  0.1668
  404MOL0     C54447   8.394   5.818   7.447  0.4533  0.0261 -0.6530
  404MOL0     C54448   8.404   5.882   7.315 -0.3794 -0.0994 -0.4398
  404MOL0    Cl54449   8.476   5.755   7.205 -0.1417  0.5230  0.0992
  404MOL0     C54450   7.969   5.755   8.342 -0.3548  0.9016 -0.6247
  404MOL0     C54451   7.937   5.676   8.451  0.3530  0.3683  0.4868
  404MOL0     O54452   7.827   5.605   8.711  0.2925  0.3030 -0.5379
  404MOL0     C54453   7.847   5.441   8.940  0.0070 -0.4614 -0.4063
  404MOL0     C54454   7.844   5.334   9.036 -0.1905  0.7785 -0.2948
  404MOL0     N54455   7.381   4.870   9.224  0.0232  0.3784  0.3434
  404MOL0     N54456   7.357   4.775   9.310 -0.3182 -0.2657 -0.4109
  404MOL0     C54457   6.488   4.202   9.536 -0.7500 -0.1185 -0.6545
  404MOL0     C54458   6.443   4.083   9.484  0.0389 -1.0325 -0.8454
  404MOL0     C54459   6.417   3.802   9.117 -0.1240 -0.1520  0.4643
  404MOL0     C54460   6.530   3.715   9.112  0.3081 -0.3267  0.6730
  404MOL0     C54461   6.553   3.609   9.016 -0.4455 -0.3464 -0.2372
  404MOL0     C54462   6.445   3.593   8.923  0.8335  0.0536  0.3827
  404MOL0     O54463   6.462   3.503   8.820 -0.0150  0.3360  0.1260
  404MOL0     C54464   6.351   3.462   8.735 -0.5816 -0.2422 -0.3395
  404MOL0     C54465   6.278   3.342   8.797 -0.2576 -0.0207  0.2018
  404MOL0     C54466   6.364   3.213   8.810  0.0662 -0.2497 -0.3894
  404MOL0     C54467   6.304   3.122   8.921  0.3215 -0.0702 -0.2162
  404MOL0     C54468   6.176   3.053   8.881  0.9433  0.0185  0.0761
  404MOL0     C54469   6.065   3.003   8.862  0.0841  0.4189 -0.2578
  404MOL0     C54470   6.337   3.678   8.923 -0.3584 -0.3564 -0.4462
  404MOL0     C54471   6.318   3.779   9.022 -1.1523 -0.6780 -1.0259
  404MOL0     C54472   6.183   3.854   9.013 -0.4709 -0.3531 -0.2691
  404MOL0     H54473   6.735   3.963   9.364 -0.5517  0.3137  0.4897
  404MOL0     H54474   6.820   4.161   9.483  1.0430 -3.3085  3.5117
  404MOL0     H54475   6.549   4.502   9.604  0.2984 -2.1378 -1.2207
  404MOL0     H54476   6.509   4.412   9.748 -2.3706  1.1473 -2.1650
  404MOL0     H54477   6.754   4.446   9.810  1.1915  1.0721  1.0161
  404MOL0     H54478   6.651   4.584   9.841  0.6696 -0.4833  1.0585
  404MOL0     H54479   6.704   4.665   9.630 -1.9534 -3.7806 -2.3622
  404MOL0     H54480   6.843   4.557   9.610  0.5154 -0.3234  1.0133
  404MOL0     H54481   6.799   4.745   9.846  0.9536  0.3260  1.0022
  404MOL0     H54482   6.921   4.627   9.848  1.1694  2.5461  3.1341
  404MOL0     H54483   6.916   4.810   9.594 -1.9864  0.6917  0.3510
  404MOL0     H54484   6.963   4.872   9.760  1.6510  0.2684 -0.3579
  404MOL0     H54485   7.141   4.711   9.758  1.5327 -1.6329  0.8619
  404MOL0     H54486   7.078   4.607   9.637 -0.8334 -0.7983  2.1594
  404MOL0     H54487   7.167   4.899   9.593 -4.5551  0.4339  1.3885
  404MOL0     H54488   7.105   4.791   9.459  3.2675 -1.3475 -2.0194
  404MOL0     H54489   7.351   4.766   9.645 -2.6645  0.7233 -1.0009
  404MOL0     H54490   7.307   4.640   9.525 -2.3587 -0.3166 -0.8953
  404MOL0     H54491   7.449   5.024   9.506  1.6149 -1.5587  1.1588
  404MOL0     H54492   7.443   5.091   9.120  0.9634  0.9869 -0.0210
  404MOL0     H54493   7.384   5.189   9.263  2.3296  1.0010  3.6870
  404MOL0     H54494   7.609   5.260   9.240  3.9354 -0.4111  2.4076
  404MOL0     H54495   7.609   5.134   9.357  2.3719 -0.9902 -0.2656
  404MOL0     H54496   7.668   5.089   9.067 -0.3216  0.7122  2.1334
  404MOL0     H54497   7.660   4.962   9.195 -0.1260 -0.3513 -0.0739
  404MOL0     H54498   7.864   5.027   9.290 -0.6760 -1.4683 -1.4392
  404MOL0     H54499   7.825   5.194   9.280 -1.7731  2.1523 -0.5442
  404MOL0     H54500   7.986   5.081   8.883 -0.6077 -1.1396  5.5546
  404MOL0     H54501   8.010   5.267   8.702 -1.9125  1.7183 -0.4828
  404MOL0     H54502   8.205   5.463   8.451  1.4759  1.9694 -1.6356
  404MOL0     H54503   8.259   5.582   8.264 -0.1360 -0.7667 -0.1043
  404MOL0     H54504   8.179   5.973   8.256  1.6225  2.2162 -0.4675
  404MOL0     H54505   8.319   5.864   8.244 -0.5215 -0.3943 -0.1474
  404MOL0     H54506   8.199   6.034   8.017  1.3152 -0.1688 -3.8149
  404MOL0     H54507   8.358   6.055   8.071  1.4043 -1.2481 -0.1627
  404MOL0     H54508   8.419   5.840   7.966  1.3750  3.6802  1.0297
  404MOL0     H54509   8.245   5.802   7.936  0.1709  0.7392  2.3931
  404MOL0     H54510   8.363   6.040   7.800  0.9097 -1.8669 -5.0113
  404MOL0     H54511   8.198   5.978   7.777 -0.1467 -0.8528 -1.0064
  404MOL0     H54512   8.301   5.762   7.701  0.1498 -0.7578  1.4210
  404MOL0     H54513   8.467   5.843   7.726 -0.2362  2.4559 -1.4587
  404MOL0     H54514   8.253   5.960   7.548  1.1648  2.1042 -0.0141
  404MOL0     H54515   8.410   6.011   7.548  1.2085 -0.8603 -0.9727
  404MOL0     H54516   8.311   5.748   7.435 -0.0529  0.6650 -0.9327
  404MOL0     H54517   8.490   5.774   7.476  0.1335  1.1097  2.4227
  404MOL0     H54518   8.310   5.924   7.278  0.0492  1.2898 -0.0447
  404MOL0     H54519   8.467   5.972   7.324  1.2731 -1.1476 -1.0352
  404MOL0     H54520   7.899   5.823   8.295 -2.7982  0.7425  2.4883
  404MOL0     H54521   7.835   5.680   8.487 -0.9770  1.3762 -3.0163
  404MOL0     H54522   7.792   5.529   8.973 -1.8420 -2.3607  1.9527
  404MOL0     H54523   7.797   5.362   9.130 -0.3817 -0.5363  0.0224
  404MOL0     H54524   6.417   4.261   9.593 -0.7272 -2.2699  1.8249
  404MOL0     H54525   6.340   4.049   9.482 -0.4528  0.1961  1.0688
  404MOL0     H54526   6.614   3.735   9.178  2.1899  1.3276 -2.0002
  404MOL0     H54527   6.648   3.557   9.018 -1.3048 -1.9980  0.0715
  404MOL0     H54528   6.392   3.424   8.641  2.7856 -0.5686  1.0986
  404MOL0     H54529   6.294   3.547   8.696  2.1605 -0.0939 -4.6779
  404MOL0     H54530   6.192   3.324   8.731 -0.0211 -0.1447 -0.0755
  404MOL0     H54531   6.234   3.360   8.895 -2.9272 -3.1735 -0.2342
  404MOL0     H54532   6.469   3.233   8.836 -0.3811 -2.1349  3.7556
  404MOL0     H54533   6.364   3.156   8.717  0.6715 -0.9249  0.0017
  404MOL0     H54534   6.388   3.057   8.947  0.9182 -0.3049 -2.5018
  404MOL0     H54535   6.288   3.172   9.018 -1.7318 -2.7600  0.9779
  404MOL0     H54536   5.968   2.965   8.839  0.2537 -1.4751  1.7932
  404MOL0     H54537   6.253   3.663   8.856 -1.2615  3.8982 -0.5284
  404MOL0     H54538   6.118   3.787   8.957 -1.8130  0.5182  0.1860
  404MOL0     H54539   6.145   3.869   9.115 -1.5206  0.6272 -0.7807
  404MOL0     H54540   6.178   3.950   8.961 -0.3025 -0.7044 -0.9349
  405MOL0     O54541   9.514   8.560   1.126 -0.5196 -0.4877  1.2768
  405MOL0     C54542   9.512   8.679   1.107 -0.9299 -0.3216 -0.4836
  405MOL0     O54543   9.579   8.771   1.184  0.6879 -0.8311  0.2606
  405MOL0     C54544   9.673   8.730   1.282  0.6569  1.0321  0.8610
  405MOL0     C54545   9.683   8.796   1.400 -0.2162 -0.2316  0.6832
  405MOL0     C54546   9.789   8.768   1.485 -0.3981  0.0865  0.2460
  405MOL0     C54547   9.886   8.666   1.461  1.4171 -0.6359 -0.0954
  405MOL0     O54548   9.977   8.628   1.555  0.2137 -0.0161 -0.2658
  405MOL0     C54549  10.066   8.513   1.541 -0.0869 -0.3938 -0.7385
  405MOL0     C54550  10.117   8.479   1.683 -0.2919  0.5225 -0.4978
  405MOL0     C54551  10.000   8.419   1.773  0.6537 -0.3219 -0.9485
  405MOL0     C54552  10.042   8.420   1.919  0.5075 -0.2653  0.8266
  405MOL0     C54553   9.962   8.322   2.004 -0.1774  0.2338 -0.1999
  405MOL0     C54554   9.993   8.339   2.156 -0.7680  0.3336  0.3925
  405MOL0     C54555   9.985   8.200   2.234  0.3308 -0.3483 -0.4316
  405MOL0     C54556   9.845   8.167   2.265  1.2178 -0.0250  0.2122
  405MOL0     N54557   9.816   8.230   2.400  0.1234  0.9599 -0.4208
  405MOL0     C54558   9.854   8.164   2.513  0.9694 -0.2599  0.0913
  405MOL0     C54559   9.784   8.228   2.606  0.4874 -0.1575  0.3915
  405MOL0     C54560   9.801   8.201   2.757  0.3960  0.5780  0.2543
  405MOL0     C54561   9.671   8.166   2.833 -0.0899  0.0115  0.0141
  405MOL0     C54562   9.594   8.285   2.874 -0.5512 -0.7600  0.1475
  405MOL0     C54563   9.663   8.423   2.874  0.8472 -0.8524 -0.9654
  405MOL0     O54564   9.563   8.531   2.899 -0.2994  0.1474 -0.6518
  405MOL0     C54565   9.502   8.527   3.024 -0.7276 -1.0902 -1.1078
  405MOL0     C54566   9.562   8.485   3.141  0.0918 -0.2731 -0.7341
  405MOL0     C54567   9.499   8.463   3.264 -0.1088  0.1484  0.1825
  405MOL0     C54568   9.365   8.484   3.273  1.1312 -0.7696  0.6710
  405MOL0     C54569   9.298   8.477   3.402 -0.4252  1.1963  0.1159
  405MOL0     O54570   9.374   8.458   3.516  0.1221 -0.0919  0.0384
  405MOL0     C54571   9.315   8.468   3.637 -0.7989 -0.5146  0.3712
  405MOL0     C54572   9.353   8.581   3.703  0.3428 -0.1243  0.6172
  405MOL0     C54573   9.318   8.594   3.835  0.0937 -0.2269 -0.2529
  405MOL0     C54574   9.241   8.491   3.901  0.2794  0.4270 -0.6799
  405MOL0     O54575   9.196   8.493   4.027  0.2470  0.4890  0.2007
  405MOL0     C54576   9.157   8.614   4.088 -0.0522  0.6453  0.9964
  405MOL0     C54577   9.032   8.592   4.180 -0.0749  0.7897  0.0501
  405MOL0     C54578   9.039   8.474   4.279  0.7303  0.2876  0.8919
  405MOL0     C54579   8.921   8.475   4.373  0.1704 -0.1819  0.4623
  405MOL0     C54580   8.919   8.344   4.459 -0.2561 -0.0557 -0.3244
  405MOL0     C54581   8.812   8.333   4.569 -0.2468 -0.5430 -0.5203
  405MOL0     C54582   8.667   8.367   4.522  0.2940 -0.0218 -0.1379
  405MOL0     C54583   8.592   8.433   4.642 -0.2470 -0.5053 -0.0661
  405MOL0    Cl54584   8.428   8.491   4.610  0.0424 -0.0708  0.7255
  405MOL0     C54585   9.210   8.380   3.837 -0.0280  0.8687  0.4527
  405MOL0     C54586   9.237   8.363   3.698 -0.8639 -0.3417  0.2408
  405MOL0     O54587   9.182   8.498   3.397  0.5960  0.5809 -0.2047
  405MOL0     C54588   9.302   8.523   3.143  0.1946 -0.2750  0.2169
  405MOL0     C54589   9.368   8.550   3.023  0.3079  0.0368 -0.0882
  405MOL0     N54590   9.685   8.315   2.553 -0.3840 -0.0138  0.5657
  405MOL0     N54591   9.713   8.316   2.426  0.0595 -0.8696  0.9888
  405MOL0     C54592   9.867   8.598   1.342 -0.2122 -0.2599 -0.3621
  405MOL0     C54593   9.767   8.634   1.251  0.3124  0.2032 -0.3486
  405MOL0     C54594   9.440   8.737   0.995  1.0492 -0.0470  0.7448
  405MOL0     C54595   9.358   8.851   1.021  0.5479  0.6881  0.4440
  405MOL0     C54596   9.260   8.888   0.926 -0.2330 -0.3281  0.0484
  405MOL0     C54597   9.223   8.800   0.824  0.2564  0.1560 -0.0473
  405MOL0     O54598   9.112   8.834   0.764  0.1097  0.0624  0.4377
  405MOL0     C54599   9.067   8.765   0.643  0.2707  0.1024  0.4805
  405MOL0     C54600   8.954   8.840   0.572 -0.1399 -0.2251  1.4161
  405MOL0     C54601   8.897   8.751   0.454  0.0737  0.0133 -0.3526
  405MOL0     C54602   8.804   8.820   0.350  0.1001  0.1577  0.6159
  405MOL0     C54603   8.835   8.960   0.297  0.8743 -0.1826 -0.0342
  405MOL0     C54604   8.866   9.077   0.264 -0.2265  0.2770 -0.3476
  405MOL0     C54605   9.309   8.697   0.786  0.9547  0.3087 -0.1943
  405MOL0     C54606   9.414   8.668   0.873 -0.5365  0.4348 -0.4661
  405MOL0     C54607   9.519   8.566   0.820  0.0577  0.8363 -0.2575
  405MOL0     H54608   9.611   8.873   1.425  2.0749  1.5541  2.2233
  405MOL0     H54609   9.787   8.826   1.577  1.2560  0.5922  0.0051
  405MOL0     H54610  10.009   8.427   1.506 -2.3299  1.8120 -2.8624
  405MOL0     H54611  10.144   8.539   1.469  1.4473  0.8438  1.2318
  405MOL0     H54612  10.158   8.568   1.733 -0.1102  1.6682 -2.5960
  405MOL0     H54613  10.201   8.409   1.682  0.0623  0.8780  0.9090
  405MOL0     H54614   9.964   8.321   1.739  0.5702 -0.1083 -1.4917
  405MOL0     H54615   9.916   8.488   1.763  1.1828  0.8313  1.7789
  405MOL0     H54616  10.146   8.402   1.948 -0.1484 -1.1155  2.8504
  405MOL0     H54617  10.020   8.523   1.948  1.2162 -0.0681  0.6879
  405MOL0     H54618   9.858   8.350   1.986 -0.2512  1.3579  1.6084
  405MOL0     H54619   9.985   8.219   1.977 -0.3519  0.0983  0.1609
  405MOL0     H54620  10.100   8.361   2.153 -0.1789 -2.2157 -0.5131
  405MOL0     H54621   9.945   8.428   2.198 -1.5756  0.4790 -0.7632
  405MOL0     H54622  10.049   8.205   2.322 -0.6012  0.8331  0.2097
  405MOL0     H54623  10.039   8.129   2.171  0.8817 -0.6784  0.4089
  405MOL0     H54624   9.782   8.219   2.193  0.0661  0.2656  1.3919
  405MOL0     H54625   9.828   8.059   2.257  3.2651 -0.2954 -1.5397
  405MOL0     H54626   9.927   8.086   2.533 -2.4935 -2.9548  4.1727
  405MOL0     H54627   9.858   8.108   2.760 -0.6605 -0.1572 -0.9786
  405MOL0     H54628   9.858   8.282   2.803  1.1727 -1.3161  2.8816
  405MOL0     H54629   9.611   8.091   2.780 -1.5364  1.5523 -0.6266
  405MOL0     H54630   9.700   8.108   2.921 -0.1012  1.2394  0.8550
  405MOL0     H54631   9.561   8.261   2.975 -0.3525 -3.2508 -0.3257
  405MOL0     H54632   9.503   8.296   2.815 -1.8461 -3.4750  1.4451
  405MOL0     H54633   9.712   8.438   2.777 -1.1252  0.8046 -1.7785
  405MOL0     H54634   9.740   8.433   2.951 -0.8699 -0.9837  0.8642
  405MOL0     H54635   9.668   8.463   3.135  0.1487 -0.0754 -0.4725
  405MOL0     H54636   9.546   8.412   3.348 -1.5466 -0.2573  0.7753
  405MOL0     H54637   9.421   8.652   3.657  1.6390 -1.4574  0.4083
  405MOL0     H54638   9.347   8.685   3.887 -0.0006 -0.4197  0.1367
  405MOL0     H54639   9.238   8.645   4.154 -0.0310  1.9081  0.4233
  405MOL0     H54640   9.143   8.695   4.015  2.1621  0.9615  0.8345
  405MOL0     H54641   9.007   8.684   4.235 -3.3710  1.8715 -2.8788
  405MOL0     H54642   8.944   8.596   4.114  2.0827  0.3203 -3.0927
  405MOL0     H54643   9.041   8.379   4.224  4.0358  0.7923 -0.0931
  405MOL0     H54644   9.137   8.483   4.326  1.2511 -3.0878  0.6970
  405MOL0     H54645   8.823   8.478   4.326 -0.7051  0.2383  2.2068
  405MOL0     H54646   8.924   8.564   4.436  2.8318 -0.1519  0.3955
  405MOL0     H54647   9.018   8.336   4.503 -0.1632 -1.4543 -0.7609
  405MOL0     H54648   8.916   8.258   4.392  1.1590 -0.0377 -0.4398
  405MOL0     H54649   8.805   8.226   4.591 -2.1016 -0.4630 -0.6106
  405MOL0     H54650   8.850   8.394   4.651 -3.5894 -1.4616  1.9007
  405MOL0     H54651   8.609   8.283   4.483  0.8848  0.6484 -2.6251
  405MOL0     H54652   8.672   8.439   4.440 -0.4020 -0.3382 -0.4674
  405MOL0     H54653   8.590   8.352   4.715 -0.9611 -2.4855 -2.1793
  405MOL0     H54654   8.657   8.517   4.668 -1.2537 -0.1601  1.5442
  405MOL0     H54655   9.155   8.293   3.872 -0.4939  0.3999 -1.3512
  405MOL0     H54656   9.206   8.274   3.645  3.2041 -2.0690  0.3945
  405MOL0     H54657   9.194   8.524   3.140  0.2054 -0.6378 -0.3613
  405MOL0     H54658   9.313   8.585   2.936 -3.0566  3.0144  2.9429
  405MOL0     H54659   9.925   8.511   1.314  1.6181  1.8061 -3.6961
  405MOL0     H54660   9.750   8.592   1.152 -1.8524  2.5697 -1.0830
  405MOL0     H54661   9.380   8.916   1.105 -0.8209  2.3568 -0.4148
  405MOL0     H54662   9.205   8.977   0.956 -1.3977 -1.4637  1.4763
  405MOL0     H54663   9.041   8.666   0.680  0.7643 -0.1256  0.2187
  405MOL0     H54664   9.151   8.757   0.573  0.2155 -1.6363  0.5855
  405MOL0     H54665   8.992   8.932   0.527  2.2431 -1.7814  0.0358
  405MOL0     H54666   8.868   8.854   0.639  0.0587  2.0943  1.2843
  405MOL0     H54667   8.847   8.660   0.486  0.5773  0.3560  1.5228
  405MOL0     H54668   8.975   8.730   0.380 -1.3778  0.2224 -2.0170
  405MOL0     H54669   8.783   8.752   0.267  3.9660 -0.3407 -0.1376
  405MOL0     H54670   8.709   8.818   0.404 -0.3433 -2.7635 -0.1250
  405MOL0     H54671   8.896   9.180   0.256  2.2126 -0.4593 -1.8347
  405MOL0     H54672   9.299   8.629   0.702  0.4913 -0.3594  0.3843
  405MOL0     H54673   9.548   8.594   0.718  0.3237  0.3812 -0.3112
  405MOL0     H54674   9.610   8.550   0.879 -0.4136 -0.9629  0.0635
  405MOL0     H54675   9.466   8.471   0.809  0.5416  0.7258 -1.9341
  406MOL0     O54676   4.865   8.845   8.462 -0.4378 -0.4506  0.0710
  406MOL0     C54677   4.750   8.873   8.448  0.3578 -0.1794 -0.0051
  406MOL0     O54678   4.642   8.792   8.482 -0.3588  0.7506 -1.2274
  406MOL0     C54679   4.670   8.683   8.553 -0.3504  1.0245 -0.2293
  406MOL0     C54680   4.727   8.582   8.482  0.2927  0.4094  0.3668
  406MOL0     C54681   4.765   8.464   8.547 -0.3791  0.3766  0.8404
  406MOL0     C54682   4.741   8.445   8.685  0.3072 -0.7647 -0.6088
  406MOL0     O54683   4.771   8.315   8.720  0.6338 -0.1844 -0.1201
  406MOL0     C54684   4.825   8.297   8.856 -0.2646 -0.7123  0.0597
  406MOL0     C54685   4.882   8.160   8.872  1.0380 -0.1910  0.4594
  406MOL0     C54686   4.773   8.054   8.845  0.1597  0.0301 -0.0642
  406MOL0     C54687   4.835   7.923   8.893  0.2265 -1.6666  0.6336
  406MOL0     C54688   4.744   7.804   8.884  0.0222  0.0144 -0.3025
  406MOL0     C54689   4.798   7.677   8.954 -0.3722 -0.0130  0.9256
  406MOL0     C54690   4.695   7.558   8.928 -0.5127 -0.1966  0.2916
  406MOL0     C54691   4.758   7.447   9.023 -0.5582  0.2004  0.0074
  406MOL0     N54692   4.652   7.348   9.033  0.0105  0.3486 -0.0218
  406MOL0     C54693   4.549   7.362   9.123  0.1622  0.3056 -0.4754
  406MOL0     C54694   4.467   7.257   9.092  0.6110 -0.7024 -0.6967
  406MOL0     C54695   4.339   7.218   9.167 -0.0047 -0.2891  0.7548
  406MOL0     C54696   4.225   7.293   9.104  0.7931  0.3273  0.1046
  406MOL0     C54697   4.093   7.252   9.168 -0.0260 -0.8029 -1.2891
  406MOL0     C54698   4.019   7.135   9.094  1.2272  0.2556  1.3563
  406MOL0     O54699   3.912   7.076   9.161 -1.2139 -0.5125 -0.2334
  406MOL0     C54700   3.816   7.156   9.221  0.3375  0.6297  0.0339
  406MOL0     C54701   3.756   7.286   9.187 -0.4213 -0.9247 -0.4036
  406MOL0     C54702   3.660   7.353   9.264  0.1690 -0.4939 -0.5076
  406MOL0     C54703   3.613   7.297   9.383 -0.9880  0.1094  0.0976
  406MOL0     C54704   3.538   7.373   9.485 -0.9407  0.3917  1.5104
  406MOL0     O54705   3.540   7.503   9.475  1.1169  0.3831 -0.1389
  406MOL0     C54706   3.502   7.584   9.585 -0.1617 -0.0578  1.3524
  406MOL0     C54707   3.592   7.649   9.669 -1.2585 -0.4907  0.6495
  406MOL0     C54708   3.546   7.717   9.780  0.3775 -0.5269  0.7731
  406MOL0     C54709   3.405   7.732   9.804 -0.4520 -0.2748 -0.6252
  406MOL0     O54710   3.368   7.803   9.923 -0.1763  0.7171 -0.4854
  406MOL0     C54711   3.224   7.835   9.947  0.7002 -0.4439 -0.2316
  406MOL0     C54712   3.199   7.917  10.074 -0.0147 -0.0181  0.1855
  406MOL0     C54713   3.259   8.053  10.057 -0.3063  0.0340 -0.0341
  406MOL0     C54714   3.270   8.126  10.187 -0.0445  0.1502 -0.5351
  406MOL0     C54715   3.304   8.271  10.163 -0.3595 -0.9212 -0.0462
  406MOL0     C54716   3.439   8.289  10.100  0.1219 -0.4150 -0.0266
  406MOL0     C54717   3.560   8.223  10.173 -0.6044  0.8981 -0.3939
  406MOL0     C54718   3.570   8.250  10.326 -1.0446 -0.6444 -0.3831
  406MOL0    Cl54719   3.571   8.426  10.353  0.3774 -0.1644 -0.1172
  406MOL0     C54720   3.316   7.665   9.722  0.1037  0.8928  0.6265
  406MOL0     C54721   3.363   7.599   9.608 -0.2833 -0.1684  0.8559
  406MOL0     O54722   3.497   7.313   9.586 -0.1117 -0.1620  0.2259
  406MOL0     C54723   3.660   7.161   9.417 -0.1801 -0.1244 -0.0541
  406MOL0     C54724   3.760   7.103   9.333  0.5059  0.2348 -0.5412
  406MOL0     N54725   4.515   7.189   8.979  0.1205 -0.4528 -0.3686
  406MOL0     N54726   4.623   7.251   8.941 -0.0315 -0.3694  1.0908
  406MOL0     C54727   4.695   8.558   8.763  0.2611 -0.8917  1.2825
  406MOL0     C54728   4.662   8.674   8.689 -0.3511 -0.8097 -0.9721
  406MOL0     C54729   4.727   9.002   8.370  0.1201  0.0297 -0.3939
  406MOL0     C54730   4.621   8.997   8.276 -1.3634  0.0041 -1.1649
  406MOL0     C54731   4.593   9.112   8.198  0.6287 -0.0630 -0.1091
  406MOL0     C54732   4.649   9.233   8.220  0.2840 -0.2998  0.3972
  406MOL0     O54733   4.610   9.335   8.147 -0.3483 -0.4258 -0.0542
  406MOL0     C54734   4.717   9.409   8.086 -0.0795 -0.8404  0.4566
  406MOL0     C54735   4.725   9.368   7.938  0.9532 -1.0852 -0.2912
  406MOL0     C54736   4.619   9.432   7.845 -0.4260 -0.1940  0.1609
  406MOL0     C54737   4.656   9.566   7.789  0.1271  0.2184  1.1123
  406MOL0     C54738   4.545   9.623   7.706 -0.0213 -0.1970 -1.2091
  406MOL0     C54739   4.453   9.675   7.648 -0.2658 -0.2676 -0.2102
  406MOL0     C54740   4.752   9.245   8.324 -0.2028  0.3695 -0.6193
  406MOL0     C54741   4.793   9.128   8.387 -0.1745  0.3953 -0.4721
  406MOL0     C54742   4.911   9.132   8.484  0.5186 -0.4905  0.4184
  406MOL0     H54743   4.744   8.582   8.375  0.2097  1.8741  0.3367
  406MOL0     H54744   4.784   8.373   8.490 -1.5204 -0.1300  1.2392
  406MOL0     H54745   4.901   8.375   8.871 -0.7941 -0.6277  2.8526
  406MOL0     H54746   4.737   8.310   8.920  0.0538  1.4479  0.1481
  406MOL0     H54747   4.921   8.149   8.974  3.3637 -0.2577 -0.3691
  406MOL0     H54748   4.962   8.138   8.801  0.1256  0.9162 -0.9726
  406MOL0     H54749   4.746   8.048   8.739 -1.6258  0.8240  0.3162
  406MOL0     H54750   4.686   8.085   8.904 -1.1102 -5.2923  1.3831
  406MOL0     H54751   4.922   7.907   8.828 -1.0352 -1.3180 -1.2157
  406MOL0     H54752   4.866   7.928   8.998  0.0271  0.9025  0.6105
  406MOL0     H54753   4.652   7.835   8.934 -0.1084  1.5536 -1.4260
  406MOL0     H54754   4.740   7.764   8.782  1.4159 -0.7649 -0.0858
  406MOL0     H54755   4.900   7.652   8.924 -0.0644  0.6701  1.3959
  406MOL0     H54756   4.798   7.700   9.061 -0.7100  0.6471  0.7889
  406MOL0     H54757   4.696   7.530   8.823 -1.6788  0.3842  0.1130
  406MOL0     H54758   4.594   7.589   8.958 -0.2107 -0.6945  1.9799
  406MOL0     H54759   4.852   7.402   8.990 -2.9392 -3.3666 -2.7296
  406MOL0     H54760   4.771   7.485   9.125 -0.5340 -1.8802  0.8223
  406MOL0     H54761   4.534   7.442   9.194 -0.1290  0.6585 -0.9257
  406MOL0     H54762   4.326   7.109   9.166  0.1980 -0.3593 -1.9623
  406MOL0     H54763   4.354   7.247   9.272  4.4309  1.8495 -0.2438
  406MOL0     H54764   4.246   7.399   9.121 -0.1515  0.8562 -1.7423
  406MOL0     H54765   4.223   7.266   8.998 -0.3552 -4.0272  1.0310
  406MOL0     H54766   4.036   7.346   9.172 -0.9982 -1.3475 -1.8337
  406MOL0     H54767   4.108   7.218   9.271 -0.3012 -3.2310 -2.0003
  406MOL0     H54768   4.103   7.068   9.072 -0.7984 -1.4438 -2.0182
  406MOL0     H54769   3.984   7.167   8.995 -0.7739 -0.7508  1.6820
  406MOL0     H54770   3.794   7.351   9.109 -0.8196  0.2945  0.3919
  406MOL0     H54771   3.626   7.452   9.238  4.5525  0.7358 -2.4180
  406MOL0     H54772   3.699   7.646   9.650 -1.6966 -2.1873 -2.1195
  406MOL0     H54773   3.616   7.767   9.846 -0.6358 -0.4657  1.8392
  406MOL0     H54774   3.183   7.899   9.869  0.3336  1.3822  1.3668
  406MOL0     H54775   3.167   7.741   9.945 -1.0557  0.2760  4.2265
  406MOL0     H54776   3.090   7.920  10.077 -0.3881 -5.1400  0.8791
  406MOL0     H54777   3.245   7.858  10.154  1.8380 -0.9053 -1.4244
  406MOL0     H54778   3.360   8.052  10.016 -0.6891  2.0953 -1.1548
  406MOL0     H54779   3.192   8.103   9.987 -1.7865 -1.0338  0.5771
  406MOL0     H54780   3.340   8.076  10.256 -3.2779  2.5783  5.2718
  406MOL0     H54781   3.171   8.112  10.233  0.0515 -2.3558 -0.9194
  406MOL0     H54782   3.289   8.318  10.260 -1.1586 -0.5415 -0.3436
  406MOL0     H54783   3.226   8.321  10.105  0.8320  0.3918 -0.5791
  406MOL0     H54784   3.441   8.266   9.993  2.1894 -1.4946  0.1983
  406MOL0     H54785   3.461   8.396  10.096  1.8350 -0.7690 -1.0268
  406MOL0     H54786   3.650   8.266  10.126  0.1798  0.1392  0.3737
  406MOL0     H54787   3.557   8.117  10.145 -2.0201  0.8556 -0.1306
  406MOL0     H54788   3.485   8.206  10.379  0.9391 -3.6374  0.5872
  406MOL0     H54789   3.664   8.206  10.360 -0.4579  0.1492 -0.9394
  406MOL0     H54790   3.211   7.663   9.750  0.1865 -0.6096  0.9013
  406MOL0     H54791   3.301   7.545   9.537  1.3947 -0.2279 -0.6405
  406MOL0     H54792   3.636   7.094   9.498  2.8203 -1.8924 -0.4856
  406MOL0     H54793   3.790   7.005   9.371 -1.0079 -0.3754 -0.8505
  406MOL0     H54794   4.694   8.562   8.871  0.7431  3.5177  1.3142
  406MOL0     H54795   4.632   8.753   8.757 -1.1343 -1.3146 -0.7145
  406MOL0     H54796   4.563   8.905   8.272  0.7790 -1.4110 -1.4261
  406MOL0     H54797   4.516   9.112   8.122 -0.5449  2.4928  0.9719
  406MOL0     H54798   4.817   9.386   8.124  2.2622  1.2377 -3.7040
  406MOL0     H54799   4.689   9.515   8.088  1.2816 -0.3531 -1.9030
  406MOL0     H54800   4.701   9.261   7.940 -0.4400 -0.8084 -1.1145
  406MOL0     H54801   4.830   9.366   7.906  2.0016  0.3046  2.6639
  406MOL0     H54802   4.518   9.442   7.887 -0.9680  2.2397 -1.4586
  406MOL0     H54803   4.614   9.363   7.760 -1.3241  0.7284 -0.5801
  406MOL0     H54804   4.667   9.620   7.883  1.0202  1.6333  0.2390
  406MOL0     H54805   4.750   9.555   7.733 -0.0961 -2.6155  1.1461
  406MOL0     H54806   4.370   9.704   7.587  0.2156 -1.6306 -1.5828
  406MOL0     H54807   4.795   9.343   8.342  3.3387 -0.9041 -1.3950
  406MOL0     H54808   5.000   9.178   8.440  1.3753 -3.2930 -0.9741
  406MOL0     H54809   4.870   9.177   8.576 -0.7389 -2.2814  0.7837
  406MOL0     H54810   4.941   9.037   8.529  1.6795 -0.8607 -1.0822
  407MOL0     O54811   3.061   8.722  10.099 -0.2174 -0.2883  0.3764
  407MOL0     C54812   3.151   8.792  10.052  0.3597 -0.6732  0.4324
  407MOL0     O54813   3.203   8.772   9.928  0.3235 -0.1405  0.5895
  407MOL0     C54814   3.176   8.670   9.846  0.9242  0.3352 -0.0352
  407MOL0     C54815   3.087   8.666   9.737  0.2728  1.6358  0.0867
  407MOL0     C54816   3.057   8.554   9.657 -0.2318 -0.5782 -0.0558
  407MOL0     C54817   3.142   8.443   9.677 -0.1820  0.3120  0.2115
  407MOL0     O54818   3.114   8.338   9.594 -0.0767 -0.1262 -0.5541
  407MOL0     C54819   3.209   8.225   9.586  0.5408 -1.0963  0.2012
  407MOL0     C54820   3.182   8.148   9.454  0.3823 -0.1796  0.1992
  407MOL0     C54821   3.255   8.018   9.444  0.1956  0.6030  0.4484
  407MOL0     C54822   3.390   8.022   9.374  0.0343 -0.2127  1.4506
  407MOL0     C54823   3.369   7.989   9.224  0.5071 -0.7604 -0.4705
  407MOL0     C54824   3.490   8.007   9.137  0.3965 -0.1648  0.1076
  407MOL0     C54825   3.462   7.944   8.994 -0.4791 -0.5747 -0.0925
  407MOL0     C54826   3.343   8.005   8.923  1.3592  0.7263 -0.4673
  407MOL0     N54827   3.362   8.150   8.908 -0.4515 -0.0180 -0.6382
  407MOL0     C54828   3.308   8.252   8.991  0.3715  0.0086 -0.0630
  407MOL0     C54829   3.353   8.363   8.936 -0.6544 -0.3526  0.2917
  407MOL0     C54830   3.306   8.498   8.994 -0.1989 -0.4242  0.2006
  407MOL0     C54831   3.373   8.543   9.122  0.7612  0.9265 -0.1272
  407MOL0     C54832   3.523   8.526   9.118 -0.2965 -0.7959  0.3266
  407MOL0     C54833   3.602   8.586   9.233 -0.0047 -0.1811 -0.6382
  407MOL0     O54834   3.550   8.524   9.354 -0.5328 -0.4933  0.7820
  407MOL0     C54835   3.585   8.579   9.472 -0.4192 -0.4446 -1.1401
  407MOL0     C54836   3.674   8.690   9.497  0.4305 -0.0867 -0.1116
  407MOL0     C54837   3.698   8.736   9.621 -0.3193  0.9571  0.3547
  407MOL0     C54838   3.662   8.667   9.731  0.2464 -0.0800 -0.4719
  407MOL0     C54839   3.677   8.732   9.862  1.3444  1.3225  0.0980
  407MOL0     O54840   3.573   8.705   9.947 -0.2503 -0.1314  0.0222
  407MOL0     C54841   3.562   8.765  10.068 -0.3614  0.1336 -0.1231
  407MOL0     C54842   3.577   8.896  10.095 -0.0979  0.4381  0.2396
  407MOL0     C54843   3.551   8.959  10.220  0.2722 -0.2014 -1.2067
  407MOL0     C54844   3.510   8.883  10.327 -0.1316  0.5387 -0.8891
  407MOL0     O54845   3.494   8.931  10.463 -0.1663 -0.4396  0.2491
  407MOL0     C54846   3.577   9.041  10.505 -0.8636 -0.0867  0.8798
  407MOL0     C54847   3.729   8.992  10.500  0.5725 -0.1715 -1.6468
  407MOL0     C54848   3.734   8.831  10.530  0.0240 -0.5448  0.0740
  407MOL0     C54849   3.843   8.799  10.638 -0.4478  0.9009  0.0313
  407MOL0     C54850   3.817   8.656  10.709  0.9324 -0.6232 -0.1883
  407MOL0     C54851   3.801   8.539  10.611 -0.6268  1.0186 -0.1196
  407MOL0     C54852   3.839   8.405  10.691 -0.1143 -0.1189  0.4686
  407MOL0     C54853   3.800   8.277  10.632  0.2189  0.2682  0.2122
  407MOL0    Cl54854   3.837   8.144  10.744 -0.4116 -0.0973  0.3276
  407MOL0     C54855   3.499   8.744  10.309 -0.3526 -0.3225  0.2450
  407MOL0     C54856   3.531   8.686  10.176 -0.0584 -0.2781 -1.2357
  407MOL0     O54857   3.788   8.789   9.887  0.3343  0.0243 -0.4328
  407MOL0     C54858   3.593   8.542   9.716 -0.7297 -0.3460  1.6041
  407MOL0     C54859   3.551   8.501   9.588  0.1997  0.4162  0.0578
  407MOL0     N54860   3.438   8.331   8.834  0.3033 -1.1216 -0.5926
  407MOL0     N54861   3.439   8.205   8.812  0.5255  1.0404  0.3005
  407MOL0     C54862   3.238   8.438   9.777  0.1415  0.4091 -0.2800
  407MOL0     C54863   3.258   8.553   9.857 -0.6700 -0.3966 -0.7793
  407MOL0     C54864   3.186   8.916  10.125 -0.5376  0.5790 -0.6873
  407MOL0     C54865   3.176   8.912  10.266 -0.6781 -0.4393 -0.0298
  407MOL0     C54866   3.189   9.030  10.339 -0.0808 -0.0502 -0.3187
  407MOL0     C54867   3.226   9.159  10.284 -0.1523  0.9269 -0.1407
  407MOL0     O54868   3.230   9.284  10.349  0.2610  0.6029  0.1287
  407MOL0     C54869   3.167   9.293  10.476  0.4828  0.1475 -0.6216
  407MOL0     C54870   3.274   9.277  10.589  0.7990  0.0319  0.5673
  407MOL0     C54871   3.380   9.388  10.600 -0.1439 -0.0577 -0.1413
  407MOL0     C54872   3.328   9.518  10.643 -0.0841 -0.6114  0.5832
  407MOL0     C54873   3.273   9.503  10.783 -0.3217  0.5721 -0.0232
  407MOL0     C54874   3.235   9.483  10.899  0.4953  0.8810 -1.1524
  407MOL0     C54875   3.258   9.150  10.143  0.9879 -0.2947 -0.6464
  407MOL0     C54876   3.234   9.037  10.066  0.6717  0.3015  0.5867
  407MOL0     C54877   3.274   9.037   9.922  0.1938 -0.0353  0.5691
  407MOL0     H54878   3.021   8.752   9.732 -2.6167 -0.5079 -2.9456
  407MOL0     H54879   2.970   8.554   9.593  0.1962  0.3442 -0.6508
  407MOL0     H54880   3.309   8.270   9.574 -0.0153 -0.3438 -2.4582
  407MOL0     H54881   3.214   8.170   9.680 -1.1992  2.1306  2.3816
  407MOL0     H54882   3.207   8.209   9.367  0.1049 -1.3305 -0.7113
  407MOL0     H54883   3.075   8.128   9.449  0.7189 -1.8781 -0.8358
  407MOL0     H54884   3.178   7.951   9.403  0.3531 -0.8349  2.3832
  407MOL0     H54885   3.275   7.976   9.542  2.1601  0.4563  0.0195
  407MOL0     H54886   3.432   8.123   9.386 -1.7600  0.5272  1.8219
  407MOL0     H54887   3.466   7.950   9.405  0.4596  0.4390  1.9681
  407MOL0     H54888   3.347   7.883   9.215 -2.0441 -0.1499 -3.1524
  407MOL0     H54889   3.279   8.042   9.189  0.1605 -1.7541 -1.1090
  407MOL0     H54890   3.520   8.112   9.132  3.9713 -1.0809 -0.5128
  407MOL0     H54891   3.569   7.951   9.189 -0.6548 -1.1169  0.7274
  407MOL0     H54892   3.463   7.835   9.003  0.6625 -0.6084 -0.3894
  407MOL0     H54893   3.548   7.962   8.928 -0.7004 -0.2913 -0.3057
  407MOL0     H54894   3.332   7.956   8.826 -2.8763  1.0623 -0.3268
  407MOL0     H54895   3.254   7.964   8.973  2.0065 -1.1554 -0.7872
  407MOL0     H54896   3.246   8.237   9.079  3.5195 -1.7351  2.0860
  407MOL0     H54897   3.333   8.567   8.914 -0.5430  2.2549  2.2516
  407MOL0     H54898   3.197   8.501   8.993 -0.2050  0.0766 -2.1184
  407MOL0     H54899   3.359   8.650   9.141 -1.7005  0.8698 -1.2527
  407MOL0     H54900   3.326   8.495   9.208  0.8404  0.7314 -0.1940
  407MOL0     H54901   3.547   8.581   9.027 -1.2900  0.6043  0.8699
  407MOL0     H54902   3.557   8.423   9.122  1.2659 -0.2713  1.5258
  407MOL0     H54903   3.591   8.695   9.235  0.3147 -0.1537  0.7121
  407MOL0     H54904   3.706   8.560   9.209 -0.3106 -0.5949 -1.5416
  407MOL0     H54905   3.697   8.754   9.413  0.4576 -1.5067 -1.2119
  407MOL0     H54906   3.748   8.831   9.638  2.1283 -0.4732  1.5336
  407MOL0     H54907   3.619   8.958  10.017  1.2356 -2.7410 -1.7515
  407MOL0     H54908   3.549   9.066  10.236 -0.6744 -0.3656 -0.0812
  407MOL0     H54909   3.552   9.135  10.455  0.1853  0.0639  0.6245
  407MOL0     H54910   3.547   9.047  10.610 -2.2082 -0.6378  0.5466
  407MOL0     H54911   3.765   9.027  10.403 -4.3358  4.3070 -2.2691
  407MOL0     H54912   3.770   9.047  10.586 -1.4795 -1.2153  0.1040
  407MOL0     H54913   3.646   8.799  10.587 -0.5752  2.0300  0.7020
  407MOL0     H54914   3.736   8.780  10.433  1.4174  1.1154 -0.8214
  407MOL0     H54915   3.853   8.873  10.717 -0.6275 -0.0153  0.9364
  407MOL0     H54916   3.939   8.806  10.586 -0.5986 -3.8063 -1.3822
  407MOL0     H54917   3.723   8.651  10.765  1.7387 -0.8952  1.1808
  407MOL0     H54918   3.905   8.657  10.772  1.1012 -0.4153 -0.4218
  407MOL0     H54919   3.699   8.540  10.573 -0.7818  3.1459  0.2259
  407MOL0     H54920   3.871   8.549  10.527  1.9324  1.4661  1.9517
  407MOL0     H54921   3.789   8.408  10.788 -3.4179 -0.1881 -1.1002
  407MOL0     H54922   3.948   8.401  10.699  0.0641  2.8721  0.5923
  407MOL0     H54923   3.694   8.276  10.605  0.7729 -0.9264 -2.2202
  407MOL0     H54924   3.853   8.265  10.537 -1.6372 -1.7967 -0.6682
  407MOL0     H54925   3.464   8.685  10.393  0.4643 -1.5265 -0.2427
  407MOL0     H54926   3.542   8.580  10.160  1.1309 -0.6773  1.6221
  407MOL0     H54927   3.563   8.489   9.806  0.6920 -0.7517  1.8562
  407MOL0     H54928   3.489   8.413   9.572 -0.8895  1.3098 -0.8005
  407MOL0     H54929   3.278   8.342   9.808 -0.8852  0.4341  1.2588
  407MOL0     H54930   3.321   8.531   9.942  0.4608 -1.1771 -1.7831
  407MOL0     H54931   3.150   8.816  10.308 -1.3787 -0.5374 -0.6687
  407MOL0     H54932   3.168   9.023  10.445 -0.3728 -4.4671 -0.4662
  407MOL0     H54933   3.089   9.217  10.483  1.1309 -0.5210 -0.4770
  407MOL0     H54934   3.122   9.393  10.482  0.9266  0.3100  0.3054
  407MOL0     H54935   3.316   9.180  10.563 -2.3221 -0.7939 -2.0917
  407MOL0     H54936   3.235   9.273  10.691 -0.6830  0.6598  0.0591
  407MOL0     H54937   3.415   9.404  10.498 -0.2472 -2.1601 -0.5661
  407MOL0     H54938   3.456   9.355  10.672 -0.9374 -4.2989 -0.9355
  407MOL0     H54939   3.417   9.578  10.666 -0.2646 -0.5632  1.1837
  407MOL0     H54940   3.262   9.570  10.574  2.6009  2.1738 -0.1255
  407MOL0     H54941   3.209   9.467  11.001 -1.1974 -1.9495 -1.9069
  407MOL0     H54942   3.288   9.248  10.107 -2.9119  2.6065  2.9688
  407MOL0     H54943   3.352   8.968   9.889 -1.6122 -1.7872 -0.2300
  407MOL0     H54944   3.189   9.005   9.861 -1.0048  0.7024  1.7999
  407MOL0     H54945   3.300   9.138   9.888  2.0086  0.2524  2.5792
  408MOL0     O54946   4.838   0.857   7.350  0.0676  0.5582  0.2078
  408MOL0     C54947   4.918   0.898   7.259  0.0391  1.3427 -0.8234
  408MOL0     O54948   4.986   0.817   7.181 -0.9145  0.0597 -0.5390
  408MOL0     C54949   4.950   0.692   7.143 -0.2138  0.1116  0.5953
  408MOL0     C54950   4.815   0.640   7.148 -0.1567 -0.3025 -0.1376
  408MOL0     C54951   4.785   0.509   7.095 -0.9066 -0.1298  0.7255
  408MOL0     C54952   4.887   0.436   7.014  0.4857  0.0713  0.2352
  408MOL0     O54953   4.863   0.309   6.980 -0.2279 -0.2884 -0.5058
  408MOL0     C54954   4.926   0.265   6.862 -0.3322  0.3519 -0.2231
  408MOL0     C54955   4.842   0.163   6.787  0.9667 -0.8610 -1.1933
  408MOL0     C54956   4.710   0.219   6.739 -0.1514 -0.6016 -0.0314
  408MOL0     C54957   4.601   0.211   6.855  0.2101 -0.1765  0.3987
  408MOL0     C54958   4.477   0.278   6.796  0.1578  0.2130  1.1196
  408MOL0     C54959   4.352   0.259   6.873  0.2606 -0.6041  0.3479
  408MOL0     C54960   4.364   0.309   7.024 -0.2251 -0.5755 -0.6532
  408MOL0     C54961   4.370   0.463   7.037 -0.2340 -0.4817  0.0861
  408MOL0     N54962   4.369   0.484   7.184  0.2667 -0.3882  0.2541
  408MOL0     C54963   4.263   0.510   7.265  0.5538  0.4170  0.4121
  408MOL0     C54964   4.318   0.551   7.385  0.0109 -0.3755 -0.5233
  408MOL0     C54965   4.268   0.587   7.527 -0.9129  0.0676  0.3299
  408MOL0     C54966   4.258   0.736   7.553  0.1893  0.1189  0.3937
  408MOL0     C54967   4.185   0.824   7.451  0.8701 -0.0352 -0.6333
  408MOL0     C54968   4.032   0.786   7.453  0.3069 -0.0280 -0.2111
  408MOL0     O54969   3.976   0.783   7.586  0.2923 -0.7303  0.3255
  408MOL0     C54970   3.850   0.730   7.587  0.2752 -0.1981  0.4924
  408MOL0     C54971   3.826   0.601   7.545  0.0132  0.6717 -0.0746
  408MOL0     C54972   3.696   0.547   7.540 -0.2140 -0.7195  0.0188
  408MOL0     C54973   3.582   0.624   7.582 -0.3996  0.1161  0.0150
  408MOL0     C54974   3.452   0.568   7.595 -0.6903  0.0557  0.3123
  408MOL0     O54975   3.351   0.643   7.645 -0.4894 -0.4813  0.9446
  408MOL0     C54976   3.224   0.599   7.645  0.1578 -0.8537 -0.5586
  408MOL0     C54977   3.134   0.700   7.662 -0.3959 -1.0215 -0.3110
  408MOL0     C54978   2.997   0.667   7.659  0.2623 -0.2915  0.3706
  408MOL0     C54979   2.951   0.538   7.648  0.2698 -0.8227  0.0748
  408MOL0     O54980   2.818   0.499   7.662  1.4704  0.4786  0.6306
  408MOL0     C54981   2.761   0.547   7.785  0.6586 -0.2034 -0.4826
  408MOL0     C54982   2.605   0.551   7.763  0.2920  0.1773  1.2377
  408MOL0     C54983   2.522   0.655   7.843 -0.5104  0.5722  0.5983
  408MOL0     C54984   2.373   0.636   7.846  1.3237 -0.1703 -1.1851
  408MOL0     C54985   2.343   0.537   7.965 -0.1436  0.4591 -0.5235
  408MOL0     C54986   2.365   0.596   8.108  0.1536  1.1383 -0.0168
  408MOL0     C54987   2.336   0.497   8.225 -0.4585 -0.8451  0.2684
  408MOL0     C54988   2.323   0.561   8.364  1.2099  0.1322 -0.3033
  408MOL0    Cl54989   2.175   0.665   8.362 -0.1877 -0.0301  0.2576
  408MOL0     C54990   3.045   0.440   7.642  0.5462 -0.8583 -0.2645
  408MOL0     C54991   3.183   0.471   7.643 -0.3427  0.6650  0.0518
  408MOL0     O54992   3.450   0.451   7.557  0.3302 -0.2682  0.3770
  408MOL0     C54993   3.610   0.756   7.618 -0.1406 -0.2259 -0.0986
  408MOL0     C54994   3.741   0.807   7.633 -0.3463  0.6575  0.3212
  408MOL0     N54995   4.455   0.549   7.378 -0.0889 -1.0914 -1.3159
  408MOL0     N54996   4.484   0.497   7.260 -0.1806 -0.0342 -0.0739
  408MOL0     C54997   5.011   0.502   7.009 -0.6849  0.5431  0.0076
  408MOL0     C54998   5.042   0.613   7.079 -0.4216 -0.1853 -0.0593
  408MOL0     C54999   4.920   1.050   7.240  0.4355  0.3162 -0.0699
  408MOL0     C55000   4.999   1.093   7.133  0.3646  0.0220 -0.4282
  408MOL0     C55001   4.999   1.234   7.092 -0.2053  0.0098  0.4293
  408MOL0     C55002   4.922   1.328   7.163 -0.2798  0.2972  0.5063
  408MOL0     O55003   4.912   1.451   7.104 -0.3027 -0.0853 -0.5825
  408MOL0     C55004   4.821   1.554   7.140  0.3820  0.2230 -0.4145
  408MOL0     C55005   4.812   1.652   7.012  0.2147 -0.1497 -0.3723
  408MOL0     C55006   4.710   1.774   7.049  0.3555  0.4628  0.1964
  408MOL0     C55007   4.653   1.844   6.924 -0.4296 -0.2878  0.8889
  408MOL0     C55008   4.577   1.747   6.846  0.1828 -0.4361 -0.6485
  408MOL0     C55009   4.514   1.669   6.786  1.1458 -0.0392 -0.0804
  408MOL0     C55010   4.861   1.283   7.281  0.2177 -0.0963  0.3449
  408MOL0     C55011   4.850   1.149   7.316 -0.0848 -0.2950 -0.4976
  408MOL0     C55012   4.758   1.133   7.437 -0.4042 -0.0155  1.7804
  408MOL0     H55013   4.733   0.700   7.185 -0.8999 -1.5792  0.3684
  408MOL0     H55014   4.688   0.463   7.102 -0.1318 -2.1383 -0.8456
  408MOL0     H55015   4.941   0.349   6.794  0.0201  1.6380  1.3800
  408MOL0     H55016   5.017   0.216   6.898 -1.6282 -2.5190 -0.5254
  408MOL0     H55017   4.822   0.072   6.845 -0.1402 -1.5077 -2.5295
  408MOL0     H55018   4.901   0.133   6.700 -0.6843  0.5371 -2.8657
  408MOL0     H55019   4.681   0.168   6.646  0.1426 -0.4420 -0.2134
  408MOL0     H55020   4.722   0.324   6.711  0.4456 -0.2831  1.3293
  408MOL0     H55021   4.589   0.103   6.869 -1.6200 -0.4126 -2.1795
  408MOL0     H55022   4.644   0.259   6.943  2.3946  0.7515 -1.1093
  408MOL0     H55023   4.495   0.380   6.759 -2.2225 -0.6146 -2.9283
  408MOL0     H55024   4.464   0.228   6.700 -1.5198  2.7431 -0.0805
  408MOL0     H55025   4.280   0.315   6.812  2.5658 -2.6173 -4.7951
  408MOL0     H55026   4.319   0.156   6.862  2.7892 -1.4284 -0.0967
  408MOL0     H55027   4.446   0.259   7.077 -0.0316  1.3344  0.9560
  408MOL0     H55028   4.276   0.268   7.076  1.0678 -2.7607 -0.0546
  408MOL0     H55029   4.460   0.499   6.985 -0.3833 -0.7573 -0.3714
  408MOL0     H55030   4.288   0.517   6.987  0.0558  1.2482  1.3710
  408MOL0     H55031   4.157   0.500   7.243  0.0063  2.8635  1.5752
  408MOL0     H55032   4.175   0.535   7.547  0.1688 -1.1980  2.4029
  408MOL0     H55033   4.349   0.548   7.589 -0.2786  0.3642 -0.2860
  408MOL0     H55034   4.215   0.745   7.653 -2.0826  1.9297 -0.6561
  408MOL0     H55035   4.358   0.782   7.550  0.3441 -0.2096  0.5130
  408MOL0     H55036   4.239   0.804   7.358  0.9383  2.2651 -1.1614
  408MOL0     H55037   4.197   0.931   7.474  3.1099 -0.5461  1.0123
  408MOL0     H55038   4.041   0.689   7.403  0.4076 -0.5595  0.8023
  408MOL0     H55039   3.974   0.847   7.383  1.7866  3.7083  1.5241
  408MOL0     H55040   3.916   0.544   7.524 -0.6577  0.4443 -2.6630
  408MOL0     H55041   3.682   0.442   7.515  1.4632 -0.7954 -0.7454
  408MOL0     H55042   3.175   0.800   7.666  0.5320 -1.3990 -0.1824
  408MOL0     H55043   2.926   0.750   7.661  2.9987  2.2120  1.6805
  408MOL0     H55044   2.783   0.495   7.879 -1.2979 -0.1983  0.0246
  408MOL0     H55045   2.793   0.647   7.817 -2.0288  0.5907 -0.0689
  408MOL0     H55046   2.581   0.552   7.656 -2.1336 -3.4963  1.5990
  408MOL0     H55047   2.570   0.455   7.801 -0.7316  0.2214  0.4547
  408MOL0     H55048   2.567   0.669   7.942  3.9530 -3.1923 -0.5396
  408MOL0     H55049   2.539   0.750   7.792 -2.6350  0.9047  0.4491
  408MOL0     H55050   2.356   0.586   7.750  2.9248  1.5702 -2.4515
  408MOL0     H55051   2.306   0.721   7.858  1.8345 -0.0534  1.5158
  408MOL0     H55052   2.396   0.443   7.947  0.8954  0.8075  0.5819
  408MOL0     H55053   2.235   0.519   7.957 -0.0951 -0.7749  1.1284
  408MOL0     H55054   2.468   0.630   8.122  0.4634 -0.2690  1.3473
  408MOL0     H55055   2.299   0.683   8.118 -2.6572 -0.8429 -0.1135
  408MOL0     H55056   2.409   0.417   8.241 -2.4658 -2.4053  2.3180
  408MOL0     H55057   2.241   0.449   8.202 -1.1168  1.5130 -2.5937
  408MOL0     H55058   2.311   0.491   8.447 -0.5603 -0.9843 -1.4290
  408MOL0     H55059   2.421   0.609   8.369  1.7551 -1.0208  0.4904
  408MOL0     H55060   3.001   0.341   7.640  1.3419 -1.2228 -0.1088
  408MOL0     H55061   3.252   0.387   7.646  0.7882  1.5739  0.0643
  408MOL0     H55062   3.533   0.825   7.649  0.3802  1.2674 -1.9039
  408MOL0     H55063   3.765   0.902   7.681  0.7311  1.2098 -1.2392
  408MOL0     H55064   5.100   0.457   6.965  1.1683  3.4471  0.4966
  408MOL0     H55065   5.135   0.669   7.077 -0.5840  0.1145  0.4424
  408MOL0     H55066   5.054   1.024   7.069  0.9079  0.8084 -0.8253
  408MOL0     H55067   5.070   1.253   7.012 -0.5465 -1.8231 -0.3681
  408MOL0     H55068   4.851   1.613   7.227 -0.2315  0.4785 -0.3716
  408MOL0     H55069   4.719   1.515   7.152  0.3797  0.7944  1.8384
  408MOL0     H55070   4.761   1.592   6.936 -2.7103 -0.8015  1.9385
  408MOL0     H55071   4.910   1.688   6.979  0.7892 -1.5739 -0.2951
  408MOL0     H55072   4.769   1.850   7.102 -2.0571  0.3826  3.2852
  408MOL0     H55073   4.622   1.737   7.102  0.5014 -0.4063 -0.1523
  408MOL0     H55074   4.585   1.922   6.959 -1.7836  1.0396 -3.9486
  408MOL0     H55075   4.734   1.887   6.865  0.8304 -0.3737  2.4893
  408MOL0     H55076   4.454   1.593   6.740  0.8698 -1.2104  2.1063
  408MOL0     H55077   4.807   1.355   7.341 -1.1255 -1.5945  1.0156
  408MOL0     H55078   4.807   1.068   7.510 -1.1347  1.1085  3.3196
  408MOL0     H55079   4.725   1.231   7.472  2.8181  2.2765 -1.0030
  408MOL0     H55080   4.676   1.069   7.402  0.4483  1.4126 -3.7720
  409MOL0     O55081   7.902   1.915   5.011  0.5744  0.2643 -0.9327
  409MOL0     C55082   7.851   1.982   5.099  0.9203  0.3782  0.4533
  409MOL0     O55083   7.714   2.004   5.109 -0.0937  0.8066  0.0746
  409MOL0     C55084   7.645   2.014   4.991  1.8696 -0.2033 -0.8143
  409MOL0     C55085   7.678   2.113   4.901 -0.2571  1.3137  0.1224
  409MOL0     C55086   7.623   2.124   4.769  0.1724  0.9015  0.1435
  409MOL0     C55087   7.521   2.042   4.731 -0.6032  1.2652  1.1965
  409MOL0     O55088   7.458   2.044   4.606  0.4797  1.2807  0.5375
  409MOL0     C55089   7.461   2.147   4.506 -0.1056 -0.5715 -1.2899
  409MOL0     C55090   7.335   2.141   4.423 -0.9574  1.3577  0.2027
  409MOL0     C55091   7.325   2.015   4.328  0.0867 -0.0301 -0.3171
  409MOL0     C55092   7.342   1.875   4.392 -0.2934  0.8787  0.7668
  409MOL0     C55093   7.263   1.768   4.308  0.3478  0.0175 -0.7770
  409MOL0     C55094   7.293   1.629   4.350 -0.1120 -0.5502 -0.4233
  409MOL0     C55095   7.211   1.527   4.284  0.5736  0.2738 -0.0207
  409MOL0     C55096   7.275   1.474   4.158 -0.3284  0.5827  0.3695
  409MOL0     N55097   7.176   1.403   4.067 -0.1585 -0.7009 -0.0430
  409MOL0     C55098   7.165   1.414   3.926 -0.2867 -0.3960  0.0787
  409MOL0     C55099   7.046   1.363   3.900 -0.2471  0.8549  0.3888
  409MOL0     C55100   6.991   1.353   3.762 -0.1298  0.0659  0.1698
  409MOL0     C55101   6.941   1.493   3.698 -0.3572 -0.0706 -0.6767
  409MOL0     C55102   6.876   1.590   3.794 -0.3303 -0.0089 -0.6218
  409MOL0     C55103   6.790   1.713   3.738 -0.5277  0.4005  0.8564
  409MOL0     O55104   6.696   1.656   3.644  0.7841 -0.1748 -0.3880
  409MOL0     C55105   6.573   1.620   3.696  0.3410 -0.5436 -0.1328
  409MOL0     C55106   6.470   1.583   3.607 -0.0030  0.5629  0.0798
  409MOL0     C55107   6.341   1.572   3.650  0.9019  0.4606 -0.2920
  409MOL0     C55108   6.312   1.579   3.787 -0.3064  0.7906 -0.2887
  409MOL0     C55109   6.174   1.558   3.839 -0.6940  0.4154 -0.5154
  409MOL0     O55110   6.082   1.513   3.749  1.7157 -0.2621 -0.1666
  409MOL0     C55111   5.958   1.490   3.801 -0.1532  1.1883  0.8723
  409MOL0     C55112   5.848   1.545   3.734 -0.1049  0.0609  0.7569
  409MOL0     C55113   5.721   1.508   3.775  0.3571 -0.8299  0.3800
  409MOL0     C55114   5.697   1.441   3.890  0.5054  0.9337  0.0105
  409MOL0     O55115   5.568   1.433   3.931  0.6348  0.2631 -0.2450
  409MOL0     C55116   5.530   1.387   4.063 -0.5590 -0.9362 -0.0342
  409MOL0     C55117   5.380   1.443   4.088 -0.1264 -0.7987 -0.0993
  409MOL0     C55118   5.317   1.418   4.221 -1.4301  0.3985 -0.6591
  409MOL0     C55119   5.168   1.443   4.229 -0.5237  0.0096  0.3829
  409MOL0     C55120   5.119   1.420   4.360 -0.1380  0.3324 -0.2089
  409MOL0     C55121   4.962   1.436   4.370 -0.1011 -0.1069 -0.9721
  409MOL0     C55122   4.887   1.336   4.277 -0.2320 -0.1820 -1.3179
  409MOL0     C55123   4.734   1.335   4.299 -0.7476  0.2865  0.1633
  409MOL0    Cl55124   4.698   1.234   4.459  0.0788  0.1981  0.3570
  409MOL0     C55125   5.800   1.385   3.951 -0.5443  0.1469 -0.1803
  409MOL0     C55126   5.929   1.410   3.913 -0.1218 -0.0047  0.1641
  409MOL0     O55127   6.163   1.565   3.960  0.0904  0.3934  0.0140
  409MOL0     C55128   6.413   1.585   3.879  0.2079  0.3861  0.4775
  409MOL0     C55129   6.546   1.613   3.834  0.4861 -0.5439  0.4290
  409MOL0     N55130   6.997   1.308   4.016  0.0717  0.3815  0.5672
  409MOL0     N55131   7.068   1.336   4.118  0.9521  0.0738 -0.0620
  409MOL0     C55132   7.476   1.947   4.834 -0.4833  0.0104 -0.1440
  409MOL0     C55133   7.536   1.930   4.959 -0.2431  0.7336  0.0530
  409MOL0     C55134   7.939   2.053   5.192  0.2943 -0.0426  0.5083
  409MOL0     C55135   7.883   2.151   5.275 -0.8468  0.8116  0.5243
  409MOL0     C55136   7.956   2.209   5.380  0.3014 -0.9616  0.4286
  409MOL0     C55137   8.092   2.182   5.401  0.3124  0.6986 -0.2674
  409MOL0     O55138   8.167   2.223   5.509 -0.3371  0.4058 -0.3195
  409MOL0     C55139   8.112   2.305   5.613 -0.3226  0.0410 -0.5521
  409MOL0     C55140   8.118   2.452   5.590 -0.1065  0.1684  0.3401
  409MOL0     C55141   8.257   2.492   5.549  0.8577  0.8824  0.6871
  409MOL0     C55142   8.365   2.471   5.660 -0.1290 -0.6486  0.2874
  409MOL0     C55143   8.383   2.600   5.737  1.0886 -0.1373 -1.1785
  409MOL0     C55144   8.401   2.702   5.801 -0.2593  0.5352  0.6804
  409MOL0     C55145   8.150   2.095   5.310 -0.2577 -0.0276  0.4481
  409MOL0     C55146   8.074   2.030   5.213  0.3825  0.1173 -0.1700
  409MOL0     C55147   8.149   1.939   5.127  0.3817 -0.4393  0.0851
  409MOL0     H55148   7.762   2.175   4.930  0.8814 -0.0845 -0.1074
  409MOL0     H55149   7.676   2.199   4.711  0.2799  2.2896  1.9299
  409MOL0     H55150   7.470   2.247   4.550  0.3306 -0.0300 -2.5560
  409MOL0     H55151   7.547   2.130   4.440  2.1248 -1.9584  1.7369
  409MOL0     H55152   7.334   2.227   4.355 -0.8518  0.5269 -0.8793
  409MOL0     H55153   7.247   2.133   4.488  0.6995 -0.2063  2.3992
  409MOL0     H55154   7.383   2.019   4.236 -0.5598  0.1269 -0.7234
  409MOL0     H55155   7.224   2.022   4.286 -0.2665  0.4207  0.5778
  409MOL0     H55156   7.448   1.846   4.392 -0.4906 -0.1697 -2.4770
  409MOL0     H55157   7.298   1.866   4.492  0.7200  0.7711  1.2186
  409MOL0     H55158   7.159   1.782   4.337  1.1913  1.2630  1.9643
  409MOL0     H55159   7.266   1.774   4.199 -1.9799 -0.2873 -0.9086
  409MOL0     H55160   7.400   1.619   4.328  0.4090 -0.8839  2.0056
  409MOL0     H55161   7.283   1.624   4.459  0.2691  3.3570 -0.0408
  409MOL0     H55162   7.107   1.557   4.265  1.0049  1.5866 -0.3765
  409MOL0     H55163   7.199   1.434   4.341  1.0002 -0.4039 -1.0011
  409MOL0     H55164   7.320   1.561   4.110 -0.9397  0.0606 -1.2238
  409MOL0     H55165   7.340   1.394   4.194 -1.5801 -0.2650  0.8141
  409MOL0     H55166   7.223   1.463   3.848 -0.5581  1.0957  0.7760
  409MOL0     H55167   7.062   1.300   3.699 -1.7457  0.4410 -2.0756
  409MOL0     H55168   6.900   1.292   3.773  0.9309 -1.5458  0.2953
  409MOL0     H55169   7.022   1.538   3.641 -2.8707 -1.3436 -5.8423
  409MOL0     H55170   6.870   1.473   3.617  1.9205 -2.7905 -2.1821
  409MOL0     H55171   6.950   1.634   3.861 -1.8330  1.4842  0.1415
  409MOL0     H55172   6.820   1.522   3.859  1.6505 -0.7463  0.3852
  409MOL0     H55173   6.853   1.782   3.680  0.6935 -1.6583 -0.3874
  409MOL0     H55174   6.747   1.776   3.816 -4.6372  1.3568 -1.8708
  409MOL0     H55175   6.495   1.578   3.501  0.3306 -0.3177  0.1845
  409MOL0     H55176   6.260   1.558   3.580  0.6788  0.8400 -0.1132
  409MOL0     H55177   5.860   1.617   3.653  3.0900  0.3798  1.3974
  409MOL0     H55178   5.638   1.552   3.721  1.0922  1.0529  0.6796
  409MOL0     H55179   5.549   1.280   4.079  2.0420 -0.5207  0.0958
  409MOL0     H55180   5.596   1.428   4.139 -4.1592 -1.2497  3.5781
  409MOL0     H55181   5.363   1.550   4.076 -1.2289 -1.0225 -0.6344
  409MOL0     H55182   5.307   1.401   4.018 -0.8676 -0.9803  0.7596
  409MOL0     H55183   5.346   1.321   4.263  0.7109  0.3866 -2.0252
  409MOL0     H55184   5.360   1.483   4.298  1.8098 -3.3183  1.0392
  409MOL0     H55185   5.122   1.370   4.163 -0.1931 -1.3031  1.5672
  409MOL0     H55186   5.133   1.539   4.189  1.6555 -0.2009 -2.3397
  409MOL0     H55187   5.164   1.495   4.425  2.6182 -0.1676 -1.3852
  409MOL0     H55188   5.154   1.321   4.391 -1.1367  0.3046  0.8732
  409MOL0     H55189   4.940   1.420   4.475  0.3538 -1.9656 -1.1243
  409MOL0     H55190   4.925   1.534   4.338  3.6490  2.0920  0.6759
  409MOL0     H55191   4.919   1.234   4.298  1.0722  0.9002  2.8919
  409MOL0     H55192   4.904   1.369   4.174  3.2935  0.2159 -0.7344
  409MOL0     H55193   4.696   1.437   4.312  0.2348  0.5126  1.4985
  409MOL0     H55194   4.698   1.278   4.213  3.8753  0.0002 -1.9078
  409MOL0     H55195   5.788   1.320   4.037 -0.4921  1.8217  1.1476
  409MOL0     H55196   6.009   1.370   3.974  1.7357 -1.8276 -3.2021
  409MOL0     H55197   6.398   1.584   3.986 -0.5502 -1.4994  0.3800
  409MOL0     H55198   6.614   1.664   3.902  0.6546  1.2678 -1.0417
  409MOL0     H55199   7.387   1.888   4.813 -1.6884  0.9577  1.9775
  409MOL0     H55200   7.512   1.847   5.025  0.1084  1.0236  0.5531
  409MOL0     H55201   7.776   2.168   5.272 -0.6442  2.0378 -1.4572
  409MOL0     H55202   7.913   2.291   5.438  1.7025  1.6709 -1.9730
  409MOL0     H55203   8.163   2.284   5.707 -3.2398 -2.8648  0.6035
  409MOL0     H55204   8.006   2.287   5.632 -0.2982  0.5194  0.0642
  409MOL0     H55205   8.087   2.507   5.679 -1.1789  0.5434 -0.2506
  409MOL0     H55206   8.045   2.485   5.516 -0.9682  0.4538  1.2933
  409MOL0     H55207   8.257   2.598   5.522  0.1445  0.7960  0.3397
  409MOL0     H55208   8.292   2.427   5.468  0.2954 -0.9172  1.8309
  409MOL0     H55209   8.346   2.390   5.731  1.7538  0.1666  1.7989
  409MOL0     H55210   8.462   2.447   5.615 -0.3783 -3.0906  0.9345
  409MOL0     H55211   8.405   2.786   5.868  1.3854  1.6047 -0.6474
  409MOL0     H55212   8.257   2.082   5.295  0.0025  1.6680  0.5962
  409MOL0     H55213   8.255   1.933   5.151  0.5754 -0.0673 -0.6548
  409MOL0     H55214   8.095   1.844   5.123  0.6562 -0.5652 -3.3617
  409MOL0     H55215   8.140   1.967   5.021  2.1554 -2.3571 -0.6510
  410MOL0     O55216   4.692  11.387   7.383  0.2161  0.9422  0.0514
  410MOL0     C55217   4.694  11.508   7.403 -0.8105 -0.1646 -0.2880
  410MOL0     O55218   4.779  11.592   7.359 -0.1306 -0.8380  0.1172
  410MOL0     C55219   4.879  11.531   7.294  0.2545  0.1673 -0.2448
  410MOL0     C55220   4.887  11.532   7.151 -0.6387 -0.5763 -0.1193
  410MOL0     C55221   4.994  11.475   7.087 -0.6419  0.9824 -0.4926
  410MOL0     C55222   5.116  11.447   7.159  0.5673 -0.1023  0.4380
  410MOL0     O55223   5.209  11.392   7.078 -1.0616  0.3086 -0.0073
  410MOL0     C55224   5.295  11.302   7.138  0.1438  0.0072 -0.6911
  410MOL0     C55225   5.358  11.212   7.043 -1.1842  0.6631 -0.0089
  410MOL0     C55226   5.458  11.118   7.107 -0.4243  0.5329 -0.2176
  410MOL0     C55227   5.517  11.024   6.990  0.1412 -0.1774  0.1144
  410MOL0     C55228   5.643  10.931   7.015  0.7260 -0.4924  0.8682
  410MOL0     C55229   5.756  11.010   7.080 -0.7751  0.2599  0.2905
  410MOL0     C55230   5.890  10.934   7.086 -0.0357 -0.0858 -0.2534
  410MOL0     C55231   6.008  11.036   7.077  0.8695  1.0219  0.6647
  410MOL0     N55232   6.131  10.964   7.091 -0.2085 -0.9733  0.4621
  410MOL0     C55233   6.238  10.959   6.999  0.6625 -0.0151 -0.0610
  410MOL0     C55234   6.317  10.853   7.039  0.6075 -0.5585  0.0876
  410MOL0     C55235   6.437  10.793   6.970  0.1175  1.0030 -0.3891
  410MOL0     C55236   6.412  10.644   6.929 -0.1753  0.3635 -0.4506
  410MOL0     C55237   6.307  10.618   6.816 -0.4526 -0.8231  0.1097
  410MOL0     C55238   6.315  10.473   6.774  1.0141  0.0624 -0.7505
  410MOL0     O55239   6.224  10.437   6.667 -0.4326 -0.2180  0.1352
  410MOL0     C55240   6.237  10.327   6.598  0.2264  0.3230 -0.3600
  410MOL0     C55241   6.152  10.301   6.486 -0.5304 -0.5191  0.4296
  410MOL0     C55242   6.150  10.188   6.414  0.0847  0.5755  0.3418
  410MOL0     C55243   6.227  10.078   6.457  0.3138 -0.2159 -0.4056
  410MOL0     C55244   6.214   9.952   6.376 -0.2319 -1.3963  0.5300
  410MOL0     O55245   6.136   9.970   6.268  0.9677  0.1706 -0.5440
  410MOL0     C55246   6.128   9.879   6.175 -1.2147 -0.4987 -0.0486
  410MOL0     C55247   6.033   9.774   6.161  0.1765 -0.1218 -0.9090
  410MOL0     C55248   6.029   9.686   6.051 -0.2470 -0.1722  0.1936
  410MOL0     C55249   6.135   9.696   5.957  0.1950  0.4775 -0.1015
  410MOL0     O55250   6.132   9.605   5.851  0.8578 -0.1686 -0.3452
  410MOL0     C55251   6.218   9.599   5.741  0.1933 -0.4639 -0.4226
  410MOL0     C55252   6.129   9.627   5.617 -0.0471  0.1908 -0.1151
  410MOL0     C55253   6.083   9.773   5.610 -0.6099 -0.5684 -0.5407
  410MOL0     C55254   6.027   9.797   5.476  1.2440  0.1408  0.9020
  410MOL0     C55255   5.970   9.941   5.467  0.5688 -0.1478  0.5221
  410MOL0     C55256   5.849   9.967   5.558  0.0524  0.2495 -0.2955
  410MOL0     C55257   5.809  10.123   5.544 -0.3603  0.0069 -0.2173
  410MOL0     C55258   5.678  10.130   5.627 -0.4235  0.9569  0.2817
  410MOL0    Cl55259   5.558  10.052   5.527 -0.3762 -0.0094  0.0570
  410MOL0     C55260   6.236   9.801   5.966  0.1429 -0.1413 -0.5849
  410MOL0     C55261   6.230   9.888   6.079 -0.7757 -0.0141 -0.3812
  410MOL0     O55262   6.282   9.852   6.398 -0.5854  0.3965  0.4131
  410MOL0     C55263   6.308  10.090   6.565 -0.6031 -0.0782 -0.7329
  410MOL0     C55264   6.314  10.213   6.626  0.2979  0.0604  0.6943
  410MOL0     N55265   6.271  10.816   7.165  1.7904  0.6076 -0.1751
  410MOL0     N55266   6.159  10.883   7.192 -0.3179 -0.1282  0.3212
  410MOL0     C55267   5.111  11.469   7.298 -0.3576  0.4001  1.3386
  410MOL0     C55268   4.993  11.500   7.366  0.6424 -0.8738 -0.3337
  410MOL0     C55269   4.582  11.553   7.496 -0.2231  0.4952 -0.1671
  410MOL0     C55270   4.505  11.660   7.444 -0.2163  0.2414  0.4960
  410MOL0     C55271   4.397  11.717   7.528  0.2031 -0.3748  0.6631
  410MOL0     C55272   4.377  11.658   7.652  0.0010 -0.1196 -0.2915
  410MOL0     O55273   4.283  11.700   7.739  0.0218 -0.5384  0.1637
  410MOL0     C55274   4.142  11.712   7.690 -0.0738 -0.2916  0.1927
  410MOL0     C55275   4.047  11.699   7.805 -0.0367 -0.3026 -0.0960
  410MOL0     C55276   3.899  11.745   7.779 -0.4922 -0.1308 -0.4612
  410MOL0     C55277   3.819  11.725   7.900 -0.1385  0.1380  0.0516
  410MOL0     C55278   3.686  11.764   7.888 -1.0900 -1.0451  1.4233
  410MOL0     C55279   3.589  11.817   7.851  0.0119  1.0305 -0.9570
  410MOL0     C55280   4.466  11.570   7.702  0.4034 -0.5802  0.7964
  410MOL0     C55281   4.570  11.513   7.630  0.6352 -0.8272  1.0622
  410MOL0     C55282   4.662  11.424   7.708 -0.6796 -0.8681  0.2142
  410MOL0     H55283   4.795  11.552   7.097 -2.0980 -0.8274  2.1340
  410MOL0     H55284   4.999  11.458   6.980  1.2537 -2.7566  0.0219
  410MOL0     H55285   5.368  11.362   7.194  0.3180  0.7151 -1.6604
  410MOL0     H55286   5.245  11.249   7.220 -1.3169  1.4961 -0.5689
  410MOL0     H55287   5.406  11.284   6.976 -1.1417  4.3260  3.5609
  410MOL0     H55288   5.269  11.161   7.004 -3.5961  3.5354  1.2713
  410MOL0     H55289   5.420  11.054   7.187  2.6190 -0.6995  0.3755
  410MOL0     H55290   5.536  11.180   7.153  0.7959 -0.7560 -0.5068
  410MOL0     H55291   5.434  10.962   6.955  1.1751 -0.9878 -1.0078
  410MOL0     H55292   5.537  11.094   6.908  1.5545 -0.9462 -0.2507
  410MOL0     H55293   5.606  10.844   7.069 -2.6515  0.7658  0.8129
  410MOL0     H55294   5.678  10.887   6.921 -0.4383 -3.4887  1.7160
  410MOL0     H55295   5.766  11.100   7.018  0.7748 -1.0293 -1.4480
  410MOL0     H55296   5.731  11.040   7.182  0.0026 -3.2177  1.6214
  410MOL0     H55297   5.890  10.857   7.009 -3.6814  0.5316 -1.0646
  410MOL0     H55298   5.900  10.873   7.177  0.0780  1.0586  0.5327
  410MOL0     H55299   5.997  11.079   6.977 -2.2856 -0.6258  0.1765
  410MOL0     H55300   5.986  11.113   7.152  2.1040 -0.4006  2.6027
  410MOL0     H55301   6.255  11.017   6.909  0.1303  0.8681  0.4009
  410MOL0     H55302   6.458  10.854   6.881 -1.9693  0.1389 -1.5576
  410MOL0     H55303   6.528  10.798   7.031 -0.2269  0.9011  0.1345
  410MOL0     H55304   6.512  10.622   6.891 -0.0278 -0.1928  0.2296
  410MOL0     H55305   6.391  10.581   7.016  0.5872  1.1958  0.3528
  410MOL0     H55306   6.340  10.669   6.726  1.6985 -1.8641  0.2452
  410MOL0     H55307   6.205  10.654   6.832 -0.3457 -0.7737  0.7228
  410MOL0     H55308   6.278  10.420   6.862  2.6820 -1.4948 -0.9279
  410MOL0     H55309   6.414  10.435   6.748 -0.2636 -2.4833 -2.3836
  410MOL0     H55310   6.084  10.382   6.459 -0.9501 -1.4972 -1.6661
  410MOL0     H55311   6.077  10.192   6.335  0.3830 -0.4407 -0.0060
  410MOL0     H55312   5.963   9.756   6.242  0.8338 -0.6876 -0.4587
  410MOL0     H55313   5.965   9.600   6.031 -0.2442 -0.4188  1.1789
  410MOL0     H55314   6.313   9.652   5.742  0.2980 -0.4039  3.5004
  410MOL0     H55315   6.245   9.495   5.722  1.3110 -0.2424 -0.1255
  410MOL0     H55316   6.192   9.611   5.529 -1.3705 -0.4324 -0.9972
  410MOL0     H55317   6.048   9.554   5.607  0.1998 -0.1394  0.2593
  410MOL0     H55318   6.007   9.788   5.687  0.5201 -0.3097  0.5388
  410MOL0     H55319   6.171   9.836   5.622  0.2561 -1.3270 -2.3842
  410MOL0     H55320   5.961   9.714   5.450 -1.5925  1.7882  2.3028
  410MOL0     H55321   6.105   9.803   5.399 -0.8450  1.6958 -1.2373
  410MOL0     H55322   5.939   9.966   5.365 -0.1506 -2.5338  0.1170
  410MOL0     H55323   6.053  10.009   5.488  0.9404 -0.2888 -0.4146
  410MOL0     H55324   5.768   9.901   5.530  0.5943  0.3943 -2.3129
  410MOL0     H55325   5.876   9.946   5.662  1.7808 -2.1640 -1.1563
  410MOL0     H55326   5.792  10.144   5.438  0.6574 -5.0218 -1.6705
  410MOL0     H55327   5.889  10.190   5.578  2.2273 -1.4493 -2.9230
  410MOL0     H55328   5.701  10.088   5.725  0.5858  0.6689 -0.0683
  410MOL0     H55329   5.656  10.237   5.637 -0.8693  1.2716 -2.8947
  410MOL0     H55330   6.318   9.824   5.898 -0.1989  0.1328 -0.9101
  410MOL0     H55331   6.300   9.970   6.093 -1.3235  0.2729  0.7905
  410MOL0     H55332   6.373  10.006   6.587 -1.3848 -1.3281 -2.8258
  410MOL0     H55333   6.404  10.217   6.687  0.3030  0.4316  0.6602
  410MOL0     H55334   5.204  11.450   7.351  0.5753 -0.2383 -0.4331
  410MOL0     H55335   5.007  11.499   7.473  1.8568  1.5466 -0.3867
  410MOL0     H55336   4.533  11.692   7.344  2.4699 -2.9098  0.1009
  410MOL0     H55337   4.344  11.794   7.473 -0.9103 -2.3191 -1.1509
  410MOL0     H55338   4.127  11.635   7.614  1.6841 -0.8146  0.3265
  410MOL0     H55339   4.124  11.804   7.633  0.1162  0.0238  0.6420
  410MOL0     H55340   4.076  11.762   7.890 -2.4126 -0.7530  1.1470
  410MOL0     H55341   4.048  11.597   7.844 -0.7720  0.1122  1.0782
  410MOL0     H55342   3.864  11.675   7.702  0.8166 -0.8915 -0.3818
  410MOL0     H55343   3.900  11.845   7.734 -1.5964  0.1234  0.0358
  410MOL0     H55344   3.814  11.617   7.920  3.7984 -0.6020 -1.7985
  410MOL0     H55345   3.857  11.775   7.989 -1.1691  1.3150 -0.1407
  410MOL0     H55346   3.509  11.878   7.813 -1.2182 -0.4051 -0.7522
  410MOL0     H55347   4.459  11.526   7.802 -3.6790 -2.1846 -0.0228
  410MOL0     H55348   4.741  11.484   7.753 -0.6005 -0.9722  0.2126
  410MOL0     H55349   4.610  11.378   7.793 -0.8111 -0.9658  0.0821
  410MOL0     H55350   4.715  11.345   7.654 -0.6378  0.0155 -1.0835
  411MOL0     O55351   4.579   1.964   4.511 -0.4061 -0.1347 -1.1273
  411MOL0     C55352   4.554   2.062   4.585 -0.3936 -0.4691 -0.9752
  411MOL0     O55353   4.637   2.160   4.606 -0.2238  0.3587  0.2386
  411MOL0     C55354   4.774   2.157   4.580  0.8816  1.5598 -0.1115
  411MOL0     C55355   4.840   2.274   4.579  0.0684 -0.6894 -0.7171
  411MOL0     C55356   4.978   2.291   4.569  0.5370 -0.2824 -0.5090
  411MOL0     C55357   5.055   2.176   4.551 -0.3867 -0.7259  0.0740
  411MOL0     O55358   5.192   2.171   4.526  0.1455 -1.1890 -0.6915
  411MOL0     C55359   5.266   2.298   4.517 -0.1563  0.1716  0.1258
  411MOL0     C55360   5.409   2.275   4.464  0.0942 -0.8039  0.0616
  411MOL0     C55361   5.491   2.404   4.502 -1.4439 -0.0150  0.6672
  411MOL0     C55362   5.619   2.414   4.416  0.3934  0.2906 -0.3801
  411MOL0     C55363   5.735   2.487   4.494  0.5578  0.5807 -0.1023
  411MOL0     C55364   5.701   2.635   4.538  0.7304  1.1964  0.9396
  411MOL0     C55365   5.791   2.692   4.646 -0.5819 -0.7715 -0.6300
  411MOL0     C55366   5.774   2.605   4.771  0.8043 -0.2181  0.9381
  411MOL0     N55367   5.813   2.677   4.887 -0.4915 -0.0423  0.1028
  411MOL0     C55368   5.945   2.692   4.922  1.3251  0.7853  0.6831
  411MOL0     C55369   5.936   2.712   5.057 -0.3932  0.1055  0.2297
  411MOL0     C55370   6.060   2.705   5.150  0.0911  0.5624 -0.1326
  411MOL0     C55371   6.076   2.562   5.197 -0.3960 -0.0208 -1.0059
  411MOL0     C55372   6.163   2.567   5.327 -0.0306  0.0307  0.5624
  411MOL0     C55373   6.217   2.433   5.366  0.5549  0.4848  0.7069
  411MOL0     O55374   6.273   2.447   5.496 -0.9098 -0.0742 -0.1765
  411MOL0     C55375   6.323   2.339   5.559  0.5156 -0.3349  0.9159
  411MOL0     C55376   6.359   2.365   5.694  0.8362  1.3523 -0.8158
  411MOL0     C55377   6.432   2.266   5.759  1.2446  0.4108  0.5304
  411MOL0     C55378   6.470   2.145   5.697 -0.7405 -0.6301  0.7549
  411MOL0     C55379   6.557   2.049   5.772  0.9643  0.2459  0.5381
  411MOL0     O55380   6.571   2.075   5.911 -0.4685  0.0146 -0.6148
  411MOL0     C55381   6.633   1.981   5.996  1.0080 -0.0861 -0.6977
  411MOL0     C55382   6.630   2.026   6.129 -0.2678  1.0625 -0.8765
  411MOL0     C55383   6.695   1.957   6.234  0.3790 -0.6111  0.8052
  411MOL0     C55384   6.768   1.843   6.206 -0.5921  0.5315 -0.6325
  411MOL0     O55385   6.831   1.793   6.318 -0.5719  0.7138 -0.3116
  411MOL0     C55386   6.898   1.667   6.294 -0.1202 -0.0531 -0.2179
  411MOL0     C55387   6.955   1.603   6.420 -1.0908 -0.6552 -0.5544
  411MOL0     C55388   7.062   1.692   6.491 -0.0226 -0.5401  0.0359
  411MOL0     C55389   7.150   1.615   6.586 -0.8198 -0.4929 -0.3247
  411MOL0     C55390   7.263   1.708   6.636  0.5815 -0.1637 -0.0299
  411MOL0     C55391   7.360   1.609   6.720 -0.3458 -0.1374 -0.4956
  411MOL0     C55392   7.306   1.583   6.857 -0.2021 -0.4231  0.3216
  411MOL0     C55393   7.386   1.482   6.935  0.1842 -0.3121  0.5889
  411MOL0    Cl55394   7.544   1.561   6.970  0.2722  0.0593  0.1384
  411MOL0     C55395   6.778   1.794   6.080 -0.3955 -0.2220  0.0920
  411MOL0     C55396   6.707   1.860   5.974  0.3505  0.0016 -0.1847
  411MOL0     O55397   6.599   1.950   5.707 -0.3569  0.4468  0.3060
  411MOL0     C55398   6.431   2.132   5.562  0.3720  0.2893  0.7111
  411MOL0     C55399   6.351   2.219   5.493 -0.4249 -0.9667  0.1624
  411MOL0     N55400   5.817   2.710   5.109  0.1198  0.1376 -0.2887
  411MOL0     N55401   5.739   2.682   5.000  0.7335  0.0578 -0.0210
  411MOL0     C55402   4.989   2.053   4.562 -0.4057 -0.5345  0.2709
  411MOL0     C55403   4.849   2.038   4.583 -0.9312 -0.0652  1.4771
  411MOL0     C55404   4.412   2.065   4.638 -0.2815  0.3140  0.3968
  411MOL0     C55405   4.342   1.942   4.635 -0.1140 -0.3514 -0.1008
  411MOL0     C55406   4.212   1.925   4.691 -0.0459 -0.0609 -0.1876
  411MOL0     C55407   4.147   2.043   4.733  0.3017  0.0806 -1.0921
  411MOL0     O55408   4.020   2.021   4.792 -0.0146 -0.0429 -1.0692
  411MOL0     C55409   3.962   2.134   4.865 -0.4031  0.3503 -0.4746
  411MOL0     C55410   3.846   2.088   4.949  0.2755 -0.1701 -0.4053
  411MOL0     C55411   3.710   2.063   4.874  0.0882 -0.2333  0.3316
  411MOL0     C55412   3.597   2.047   4.968  0.1842 -0.6889  0.5262
  411MOL0     C55413   3.466   2.075   4.903 -0.6400  0.7670 -0.0608
  411MOL0     C55414   3.352   2.078   4.877  0.6954 -0.0169  1.1092
  411MOL0     C55415   4.209   2.164   4.726 -0.5987  0.1607  0.3190
  411MOL0     C55416   4.334   2.181   4.665  0.7989 -0.9700  0.4850
  411MOL0     C55417   4.376   2.337   4.651 -0.4622  0.4729 -1.0124
  411MOL0     H55418   4.775   2.361   4.580 -0.1313 -0.8292  0.4248
  411MOL0     H55419   5.020   2.391   4.572  2.9509 -1.2465  1.6733
  411MOL0     H55420   5.211   2.377   4.466  1.6270  2.3697  1.3841
  411MOL0     H55421   5.278   2.345   4.615 -0.6323  3.1919 -1.1618
  411MOL0     H55422   5.415   2.263   4.355  2.6423  1.1991 -0.0965
  411MOL0     H55423   5.462   2.186   4.499  0.3993 -0.7869 -0.3420
  411MOL0     H55424   5.524   2.418   4.606 -0.7051  0.9747  0.3159
  411MOL0     H55425   5.430   2.490   4.476  0.3972  0.9546 -0.6688
  411MOL0     H55426   5.652   2.312   4.390 -0.0710  0.5627 -2.1324
  411MOL0     H55427   5.611   2.469   4.322  1.3161 -0.1727 -0.7475
  411MOL0     H55428   5.745   2.427   4.585 -3.7044 -1.4828 -0.7102
  411MOL0     H55429   5.829   2.475   4.439  0.4377 -2.3660  0.1671
  411MOL0     H55430   5.721   2.691   4.446 -0.1345 -2.7611 -1.9283
  411MOL0     H55431   5.594   2.648   4.555  0.8807  5.3071 -0.3351
  411MOL0     H55432   5.771   2.798   4.665 -2.7497 -0.6261 -3.1351
  411MOL0     H55433   5.894   2.681   4.612  0.7830  0.9601  2.5214
  411MOL0     H55434   5.667   2.580   4.776  0.0190  2.7963  1.1047
  411MOL0     H55435   5.836   2.516   4.756 -0.4228 -1.0647  0.7324
  411MOL0     H55436   6.031   2.703   4.856 -0.4811  3.6806 -1.4317
  411MOL0     H55437   6.153   2.759   5.126  1.1458 -1.5526 -1.0646
  411MOL0     H55438   6.013   2.756   5.234  1.8891  2.2346 -0.0636
  411MOL0     H55439   5.979   2.514   5.206 -2.6743  4.0409 -1.4074
  411MOL0     H55440   6.134   2.510   5.121  4.0680  1.4653  1.0189
  411MOL0     H55441   6.092   2.598   5.405  3.0553  0.2872  3.4950
  411MOL0     H55442   6.237   2.647   5.321  1.4321 -1.4009 -2.1448
  411MOL0     H55443   6.296   2.409   5.294 -1.4477  0.5240 -1.6237
  411MOL0     H55444   6.141   2.354   5.371  1.1672 -0.0905  1.1462
  411MOL0     H55445   6.340   2.458   5.746  0.0285  1.0391 -0.5370
  411MOL0     H55446   6.475   2.293   5.855 -1.0414 -0.7624  1.9626
  411MOL0     H55447   6.563   2.104   6.162  0.9704  2.5402 -1.7734
  411MOL0     H55448   6.684   1.994   6.336  0.8125  1.5723  0.1320
  411MOL0     H55449   6.834   1.603   6.233 -0.9233  2.2510 -1.9189
  411MOL0     H55450   6.986   1.680   6.231 -2.7028 -0.1033 -4.1562
  411MOL0     H55451   6.888   1.566   6.498  1.4080  0.8553  2.5351
  411MOL0     H55452   7.001   1.513   6.380  2.5579  0.1339  1.4273
  411MOL0     H55453   7.112   1.752   6.414  0.6918 -0.0116  0.8888
  411MOL0     H55454   7.012   1.773   6.545 -3.2976 -0.2000 -3.1058
  411MOL0     H55455   7.199   1.538   6.526  1.6675  1.3264 -0.7826
  411MOL0     H55456   7.078   1.573   6.657  0.3772 -2.9322 -0.4309
  411MOL0     H55457   7.227   1.794   6.693 -2.3821 -0.2529 -1.5409
  411MOL0     H55458   7.306   1.752   6.546  0.6421 -0.3539 -0.0948
  411MOL0     H55459   7.382   1.509   6.681  5.6532 -0.2961  2.1957
  411MOL0     H55460   7.460   1.653   6.714  0.4776 -1.0295  3.6030
  411MOL0     H55461   7.201   1.561   6.873  0.5305 -5.1403 -0.0960
  411MOL0     H55462   7.328   1.673   6.915  1.4255 -0.6964  0.1869
  411MOL0     H55463   7.327   1.452   7.022  0.7759 -4.1387 -0.1553
  411MOL0     H55464   7.398   1.391   6.875 -0.1001 -0.1868  0.3387
  411MOL0     H55465   6.847   1.718   6.046 -1.1200  0.3687 -3.0041
  411MOL0     H55466   6.721   1.816   5.876  0.4579  0.6165 -0.4491
  411MOL0     H55467   6.472   2.047   5.508  2.7815  0.6462  1.8228
  411MOL0     H55468   6.321   2.208   5.389 -1.8321 -1.1414  0.5537
  411MOL0     H55469   5.052   1.965   4.555 -0.9061 -1.1351  2.5983
  411MOL0     H55470   4.812   1.936   4.586  0.4715 -0.6574  0.1242
  411MOL0     H55471   4.383   1.855   4.585  0.9890  1.7525 -3.1606
  411MOL0     H55472   4.179   1.822   4.698  4.1652 -1.5074  1.9564
  411MOL0     H55473   3.935   2.212   4.793  0.8436  1.4929  0.2411
  411MOL0     H55474   4.037   2.174   4.935 -2.1630  1.4522  0.8517
  411MOL0     H55475   3.830   2.178   5.009  2.7672  0.7090 -0.9366
  411MOL0     H55476   3.868   2.002   5.013 -0.0795  0.8628  1.1633
  411MOL0     H55477   3.720   1.986   4.797  0.6189  2.8781 -2.9885
  411MOL0     H55478   3.680   2.155   4.823  0.5717  0.1155  0.6648
  411MOL0     H55479   3.605   1.947   5.013 -0.2341 -0.2669  1.5640
  411MOL0     H55480   3.618   2.113   5.052  3.1229  0.0441 -0.6562
  411MOL0     H55481   3.258   2.106   4.833  1.6173  2.1554  0.4341
  411MOL0     H55482   4.141   2.246   4.749 -2.5087 -2.0175  3.3887
  411MOL0     H55483   4.291   2.395   4.614 -0.2835 -0.4842 -3.0382
  411MOL0     H55484   4.424   2.374   4.743  2.0931  1.2778 -2.5744
  411MOL0     H55485   4.465   2.356   4.591  3.0599 -1.6783  2.9479
  412MOL0     O55486   3.392   6.716   8.856  0.6619 -0.6477 -0.3233
  412MOL0     C55487   3.438   6.823   8.894  0.4527  0.2976 -0.5555
  412MOL0     O55488   3.569   6.854   8.916  0.1130  0.0734  0.5901
  412MOL0     C55489   3.669   6.766   8.900  0.2822  0.3047  0.2054
  412MOL0     C55490   3.676   6.666   8.797 -0.0339  0.7659  0.5897
  412MOL0     C55491   3.792   6.587   8.801 -0.7166  0.1171  0.1838
  412MOL0     C55492   3.899   6.596   8.894  1.0817 -0.3887  1.3166
  412MOL0     O55493   4.014   6.513   8.881  0.6492  0.0226  0.0826
  412MOL0     C55494   4.109   6.529   8.982 -0.5075 -0.0995 -0.4079
  412MOL0     C55495   4.238   6.452   8.953 -0.1438 -0.2360  0.1962
  412MOL0     C55496   4.322   6.445   9.083 -0.2729 -0.3475  1.2797
  412MOL0     C55497   4.445   6.356   9.045  0.0771  0.3217 -0.3062
  412MOL0     C55498   4.514   6.300   9.177  0.3715  0.0722 -0.3545
  412MOL0     C55499   4.525   6.146   9.184  0.0486  0.5551  0.2159
  412MOL0     C55500   4.617   6.099   9.294  0.9987  0.4499  0.1153
  412MOL0     C55501   4.660   5.955   9.277 -0.2317 -0.4806 -0.3239
  412MOL0     N55502   4.547   5.863   9.253 -0.7697  0.4746  0.7712
  412MOL0     C55503   4.551   5.772   9.145 -0.1011 -0.0480 -1.0019
  412MOL0     C55504   4.441   5.702   9.162  0.1012  0.6412  0.9465
  412MOL0     C55505   4.394   5.576   9.083 -0.7883  0.7022 -0.4653
  412MOL0     C55506   4.255   5.562   9.038  0.4426 -0.6405 -0.0982
  412MOL0     C55507   4.263   5.588   8.886  0.2410 -0.3105  0.1714
  412MOL0     C55508   4.275   5.739   8.847  0.0959  0.9613 -0.0879
  412MOL0     O55509   4.414   5.777   8.851 -0.1318 -0.5475  0.2727
  412MOL0     C55510   4.439   5.873   8.761  0.0776 -0.2476 -0.4324
  412MOL0     C55511   4.361   5.953   8.673 -1.1770 -0.3076 -0.3557
  412MOL0     C55512   4.425   6.055   8.603 -0.3379 -0.2578 -0.3537
  412MOL0     C55513   4.561   6.089   8.625 -0.3593  0.2531 -0.7849
  412MOL0     C55514   4.635   6.199   8.555  0.3768 -0.0828 -0.1793
  412MOL0     O55515   4.567   6.298   8.507 -1.2266  0.0579  0.2326
  412MOL0     C55516   4.644   6.398   8.443 -0.2886 -0.4061 -0.6520
  412MOL0     C55517   4.638   6.415   8.303 -0.3223 -0.5330 -0.1635
  412MOL0     C55518   4.713   6.512   8.238  0.6307 -0.8876 -1.3259
  412MOL0     C55519   4.807   6.594   8.319 -0.3292  0.5726 -0.1221
  412MOL0     O55520   4.873   6.689   8.245  0.0181 -0.6349  0.4181
  412MOL0     C55521   4.979   6.761   8.307  0.1733  0.2692  1.0633
  412MOL0     C55522   5.062   6.852   8.217  0.2968  0.0958  0.2514
  412MOL0     C55523   5.174   6.921   8.280 -0.3171 -0.0998 -1.3790
  412MOL0     C55524   5.128   7.069   8.333 -1.0299 -0.6938  1.0476
  412MOL0     C55525   5.259   7.147   8.385 -0.1686 -0.6303 -0.1893
  412MOL0     C55526   5.214   7.295   8.392 -0.0894 -0.5959 -0.3153
  412MOL0     C55527   5.333   7.381   8.432  0.6481 -0.5091 -0.9381
  412MOL0     C55528   5.393   7.469   8.318  0.5467 -0.6878  1.0042
  412MOL0    Cl55529   5.529   7.381   8.229  0.5003  0.6325 -0.3962
  412MOL0     C55530   4.806   6.580   8.456 -0.3948 -0.1386 -0.4972
  412MOL0     C55531   4.727   6.481   8.518  0.0029  0.1326  0.5142
  412MOL0     O55532   4.760   6.193   8.548  0.2330 -0.5698 -0.8600
  412MOL0     C55533   4.634   5.997   8.706 -0.6650 -2.0896 -0.7540
  412MOL0     C55534   4.579   5.893   8.773  0.7160  0.6308  0.1741
  412MOL0     N55535   4.367   5.746   9.271 -0.4428  1.2149  0.1542
  412MOL0     N55536   4.436   5.845   9.319  0.2918 -0.8779 -0.9459
  412MOL0     C55537   3.891   6.701   8.991 -0.1204  0.4561  0.5861
  412MOL0     C55538   3.775   6.778   8.983 -0.5543 -0.2190 -0.5176
  412MOL0     C55539   3.338   6.933   8.896 -0.1074 -0.2764 -0.6429
  412MOL0     C55540   3.230   6.929   8.813  0.8028 -0.0896  0.5405
  412MOL0     C55541   3.124   7.024   8.822 -0.0129 -0.3743  0.5515
  412MOL0     C55542   3.121   7.128   8.915  0.0245  0.4585  0.0612
  412MOL0     O55543   3.028   7.215   8.933  0.0707 -0.1737  0.0651
  412MOL0     C55544   2.966   7.278   8.825  0.1003 -0.2698 -1.1885
  412MOL0     C55545   2.848   7.341   8.891  0.1767 -0.2043 -0.4547
  412MOL0     C55546   2.731   7.400   8.797 -0.2262  0.9828 -0.1798
  412MOL0     C55547   2.640   7.297   8.726  0.2789 -0.6243  0.7620
  412MOL0     C55548   2.564   7.209   8.811 -0.3731 -0.3480  0.1572
  412MOL0     C55549   2.494   7.151   8.893  1.4413 -0.8070  0.6284
  412MOL0     C55550   3.232   7.126   9.008  0.5793 -0.1729  0.2852
  412MOL0     C55551   3.339   7.029   9.002  0.0329 -0.4485  0.4244
  412MOL0     C55552   3.440   7.048   9.112 -0.4044 -0.3649 -0.0173
  412MOL0     H55553   3.601   6.658   8.719 -0.2212  2.7083  0.5277
  412MOL0     H55554   3.811   6.517   8.721  0.1561  0.3291  0.2010
  412MOL0     H55555   4.133   6.636   8.973 -0.3954 -0.1627 -0.8687
  412MOL0     H55556   4.070   6.498   9.080  0.1266 -0.8108 -0.3788
  412MOL0     H55557   4.294   6.495   8.870  0.6098 -1.6877 -0.0879
  412MOL0     H55558   4.200   6.354   8.921 -1.8030  0.5577 -0.3336
  412MOL0     H55559   4.264   6.412   9.170  0.9852  0.7539  2.5665
  412MOL0     H55560   4.360   6.545   9.105 -1.7761  0.7502 -0.7859
  412MOL0     H55561   4.412   6.265   8.994  1.7568 -1.9391  2.3332
  412MOL0     H55562   4.515   6.419   8.990 -1.1703  0.8749 -1.3034
  412MOL0     H55563   4.613   6.346   9.192  0.0710  0.1691  1.6038
  412MOL0     H55564   4.471   6.342   9.269  3.8913  0.3646  1.3709
  412MOL0     H55565   4.423   6.108   9.185  0.6855 -1.4726 -1.6942
  412MOL0     H55566   4.575   6.117   9.091  1.9627 -0.0827  1.3802
  412MOL0     H55567   4.572   6.089   9.393 -2.3981 -5.4930 -1.5121
  412MOL0     H55568   4.708   6.161   9.289  0.5852  1.0361 -0.2047
  412MOL0     H55569   4.731   5.952   9.194  1.6895  0.4900  1.1967
  412MOL0     H55570   4.709   5.921   9.368  1.3164  3.5443  0.5426
  412MOL0     H55571   4.628   5.749   9.073  0.0723 -1.4321 -0.4050
  412MOL0     H55572   4.473   5.560   9.009 -1.8710 -1.6884 -1.2048
  412MOL0     H55573   4.412   5.497   9.156  1.5060  0.4873 -1.1870
  412MOL0     H55574   4.204   5.466   9.053  0.7060 -0.3362  3.5729
  412MOL0     H55575   4.192   5.634   9.091 -3.6458 -2.4105 -2.0514
  412MOL0     H55576   4.173   5.555   8.834  1.1186 -1.0321 -0.9316
  412MOL0     H55577   4.337   5.532   8.828 -1.6160 -2.1985 -0.5089
  412MOL0     H55578   4.224   5.810   8.913 -0.0559  1.1845 -0.4421
  412MOL0     H55579   4.221   5.746   8.752  0.3418  2.4920 -0.1363
  412MOL0     H55580   4.257   5.926   8.659 -0.9968 -2.1782  1.4362
  412MOL0     H55581   4.370   6.113   8.530  0.4816 -1.8514 -2.3332
  412MOL0     H55582   4.569   6.351   8.248 -1.1077 -1.8619  2.1945
  412MOL0     H55583   4.731   6.532   8.133  2.1020  4.3909 -0.3861
  412MOL0     H55584   4.934   6.828   8.380 -1.4099  1.3691 -0.8252
  412MOL0     H55585   5.054   6.695   8.351  1.8440 -2.4783 -4.8867
  412MOL0     H55586   5.109   6.782   8.148 -0.6580 -2.1528  1.7874
  412MOL0     H55587   4.987   6.920   8.174 -1.9443 -1.8403  0.8808
  412MOL0     H55588   5.220   6.864   8.361 -2.2871  3.0887  2.3276
  412MOL0     H55589   5.248   6.939   8.201  0.0864 -1.3969 -1.3161
  412MOL0     H55590   5.052   7.071   8.412 -1.2343  1.4666  0.8640
  412MOL0     H55591   5.082   7.114   8.244 -0.1678  3.2616  2.3706
  412MOL0     H55592   5.342   7.139   8.314  0.0267  1.6276 -0.2786
  412MOL0     H55593   5.291   7.113   8.484  0.0625 -0.3174 -0.1553
  412MOL0     H55594   5.179   7.329   8.294 -0.1036  1.4962  0.3667
  412MOL0     H55595   5.136   7.300   8.468  1.8074 -2.0416  1.8717
  412MOL0     H55596   5.410   7.334   8.492  0.9653  0.1897 -0.7886
  412MOL0     H55597   5.286   7.455   8.498  0.6360 -2.5569  1.4496
  412MOL0     H55598   5.327   7.499   8.235  3.9289  0.0534 -1.6612
  412MOL0     H55599   5.432   7.559   8.367  0.5485 -0.1102 -0.0212
  412MOL0     H55600   4.864   6.646   8.520 -2.0278  2.0838 -1.1742
  412MOL0     H55601   4.739   6.450   8.621  2.6764 -4.5192 -0.9493
  412MOL0     H55602   4.739   6.017   8.725 -0.7332 -3.0016  0.7188
  412MOL0     H55603   4.645   5.828   8.830 -0.2602 -0.7145 -0.1750
  412MOL0     H55604   3.968   6.717   9.065  0.2101  1.3398  0.0575
  412MOL0     H55605   3.769   6.866   9.046  0.3187  0.4318 -1.3244
  412MOL0     H55606   3.224   6.854   8.735  0.0061  0.4523  0.0633
  412MOL0     H55607   3.049   7.018   8.743  1.2125 -2.5106 -0.5658
  412MOL0     H55608   2.939   7.201   8.752  3.2714 -3.9766  1.1092
  412MOL0     H55609   3.021   7.357   8.773 -0.9953  1.2229 -0.1468
  412MOL0     H55610   2.885   7.419   8.957 -0.6701  0.2958 -0.5562
  412MOL0     H55611   2.798   7.273   8.961 -2.0787  1.8265  0.0544
  412MOL0     H55612   2.765   7.481   8.731 -1.9256  3.0809  1.3415
  412MOL0     H55613   2.657   7.454   8.857 -1.6356 -0.9304 -0.1173
  412MOL0     H55614   2.567   7.357   8.671  1.3682  0.1772  0.1458
  412MOL0     H55615   2.695   7.232   8.657  1.3034  1.3791 -0.4164
  412MOL0     H55616   2.429   7.121   8.972  0.1977  1.4949  0.5690
  412MOL0     H55617   3.227   7.206   9.082 -2.8339  0.2588 -0.2695
  412MOL0     H55618   3.527   7.113   9.098 -1.2424  1.1623  1.5108
  412MOL0     H55619   3.397   7.088   9.204 -0.2128 -4.1211  1.9238
  412MOL0     H55620   3.467   6.945   9.137 -2.6633 -0.9583  0.2036
  413MOL0     O55621   2.501   2.358  10.450  0.5360 -0.5737 -0.0669
  413MOL0     C55622   2.563   2.261  10.402  0.7736  1.5377  0.3730
  413MOL0     O55623   2.677   2.274  10.323 -0.7299  0.2875 -0.2744
  413MOL0     C55624   2.712   2.396  10.277 -0.2724 -0.7986 -0.2652
  413MOL0     C55625   2.740   2.407  10.137  0.0884  0.0436  0.2206
  413MOL0     C55626   2.784   2.532  10.077 -0.1235  0.1713 -0.2593
  413MOL0     C55627   2.799   2.647  10.155  0.3360  0.3220  0.7600
  413MOL0     O55628   2.844   2.764  10.110 -0.5069  0.0631 -0.2929
  413MOL0     C55629   2.931   2.765   9.995  0.7457  0.2975  0.4161
  413MOL0     C55630   3.006   2.889  10.002 -0.6401  0.4203 -0.2986
  413MOL0     C55631   2.924   3.008   9.965  0.9116 -0.3062  0.1675
  413MOL0     C55632   3.008   3.140   9.953 -0.6554  0.9053  0.3335
  413MOL0     C55633   2.930   3.231   9.863 -1.4090 -0.1444  0.2689
  413MOL0     C55634   2.962   3.387   9.869 -0.0966 -0.3000 -0.2845
  413MOL0     C55635   2.848   3.481   9.822 -0.3538  0.0449 -0.1878
  413MOL0     C55636   2.798   3.464   9.680  0.2539 -0.2462 -0.1103
  413MOL0     N55637   2.683   3.543   9.661  0.3753 -0.5513  0.4344
  413MOL0     C55638   2.685   3.652   9.570 -0.5493  0.7898  0.3563
  413MOL0     C55639   2.563   3.691   9.568  0.2455 -0.5965  0.5714
  413MOL0     C55640   2.494   3.802   9.482  0.6173  0.8192  0.3626
  413MOL0     C55641   2.385   3.752   9.383  0.5746 -0.2832 -0.0263
  413MOL0     C55642   2.328   3.876   9.299  0.6927  0.6999 -0.7604
  413MOL0     C55643   2.439   3.962   9.238  1.3922  0.6166  0.1381
  413MOL0     O55644   2.372   4.051   9.155 -0.9847  0.2076  0.2909
  413MOL0     C55645   2.434   4.167   9.105  0.7543  0.9830 -0.1626
  413MOL0     C55646   2.575   4.189   9.124  0.0045 -0.1839 -0.7248
  413MOL0     C55647   2.636   4.304   9.076  0.2251  0.1298 -0.6877
  413MOL0     C55648   2.561   4.400   9.010  0.8133  0.0362  0.3777
  413MOL0     C55649   2.619   4.516   8.948  0.6477  0.1870  0.6665
  413MOL0     O55650   2.533   4.606   8.888 -0.3030  0.0412  0.8038
  413MOL0     C55651   2.556   4.747   8.886 -0.2241  0.1678 -1.0724
  413MOL0     C55652   2.670   4.815   8.924 -0.0806 -1.0977  0.5834
  413MOL0     C55653   2.669   4.954   8.928  0.3510  1.0091 -0.0106
  413MOL0     C55654   2.555   5.023   8.883 -0.1219  0.8679 -0.3259
  413MOL0     O55655   2.545   5.161   8.874 -0.4393  0.7083  0.1829
  413MOL0     C55656   2.651   5.250   8.865 -0.4439 -0.1493 -0.4666
  413MOL0     C55657   2.710   5.285   8.998  0.5104  0.0964 -0.1829
  413MOL0     C55658   2.614   5.357   9.096  0.5053  0.0264 -0.6188
  413MOL0     C55659   2.686   5.445   9.200  1.4977 -0.0991  0.0479
  413MOL0     C55660   2.598   5.533   9.278  0.0169  0.5245  0.4368
  413MOL0     C55661   2.553   5.663   9.207 -0.3565  0.2141  0.4166
  413MOL0     C55662   2.671   5.762   9.215 -0.2116  0.3286 -1.0035
  413MOL0     C55663   2.711   5.832   9.091  0.6861  0.6377  0.3724
  413MOL0    Cl55664   2.592   5.969   9.049 -0.4745  0.3243 -0.0469
  413MOL0     C55665   2.449   4.959   8.832  0.0609  0.9608  0.1455
  413MOL0     C55666   2.457   4.822   8.837  1.0057  0.4383  0.1980
  413MOL0     O55667   2.736   4.539   8.971 -0.1935 -0.4926  0.6626
  413MOL0     C55668   2.421   4.373   8.982  0.3754  0.3452  0.0659
  413MOL0     C55669   2.363   4.259   9.033 -0.3710  0.1219 -0.0287
  413MOL0     N55670   2.495   3.619   9.664 -0.6022 -0.6853  0.9627
  413MOL0     N55671   2.563   3.527   9.718 -0.6396 -0.1263 -0.8738
  413MOL0     C55672   2.744   2.642  10.282  0.0262  0.3676 -1.3788
  413MOL0     C55673   2.705   2.518  10.351  0.0666 -0.4638  0.7698
  413MOL0     C55674   2.502   2.127  10.419  0.0063 -0.4356  0.4115
  413MOL0     C55675   2.377   2.126  10.494 -0.4374 -0.4312 -0.3091
  413MOL0     C55676   2.299   2.011  10.503 -0.5676  0.2690 -0.0283
  413MOL0     C55677   2.335   1.890  10.436  1.3047  0.0256 -0.1880
  413MOL0     O55678   2.255   1.783  10.445 -0.0376 -0.2036  0.3216
  413MOL0     C55679   2.118   1.805  10.422  0.0594 -0.0561 -0.3792
  413MOL0     C55680   2.046   1.681  10.381 -0.1079 -0.7155 -0.1101
  413MOL0     C55681   1.888   1.701  10.409 -0.3511  0.2997 -0.0862
  413MOL0     C55682   1.817   1.571  10.372  0.0014 -0.5081 -0.0873
  413MOL0     C55683   1.839   1.526  10.236 -0.5550 -0.3243  0.8164
  413MOL0     C55684   1.848   1.520  10.117  0.6932  0.4631  0.6745
  413MOL0     C55685   2.449   1.894  10.352 -0.4112  0.1719  0.3354
  413MOL0     C55686   2.538   2.003  10.359 -0.4232 -0.1487 -0.3131
  413MOL0     C55687   2.669   1.990  10.286 -0.8330  0.2109 -0.1064
  413MOL0     H55688   2.742   2.317  10.076 -0.4767  1.0371 -1.3272
  413MOL0     H55689   2.824   2.527   9.977 -2.3159  0.1395 -1.1833
  413MOL0     H55690   3.012   2.693   9.994  1.7363  1.3804 -0.5845
  413MOL0     H55691   2.869   2.751   9.906 -0.3772  1.1706  1.0272
  413MOL0     H55692   3.091   2.879   9.934 -0.8494 -2.6675 -0.2256
  413MOL0     H55693   3.029   2.904  10.108 -6.9182 -0.0334  1.5785
  413MOL0     H55694   2.852   3.025  10.046  0.0166 -0.0010 -0.6736
  413MOL0     H55695   2.860   2.991   9.877  0.7593 -0.9551  0.3965
  413MOL0     H55696   3.021   3.183  10.053 -1.5285  3.9150 -0.7320
  413MOL0     H55697   3.107   3.120   9.912  0.9856  3.8108  2.4744
  413MOL0     H55698   2.936   3.199   9.759  0.1892  0.6680  0.0707
  413MOL0     H55699   2.824   3.230   9.890 -1.2619  2.9149  1.4830
  413MOL0     H55700   2.977   3.412   9.974  0.0055  2.2945 -0.8712
  413MOL0     H55701   3.047   3.416   9.807 -1.6494  2.9894 -1.0460
  413MOL0     H55702   2.879   3.585   9.825 -1.4585  0.5456 -3.2182
  413MOL0     H55703   2.759   3.480   9.885 -1.2542  4.7142 -1.0609
  413MOL0     H55704   2.881   3.481   9.611  1.1932  0.7936  1.2194
  413MOL0     H55705   2.769   3.359   9.681  3.7596 -1.3412 -1.0967
  413MOL0     H55706   2.766   3.688   9.506 -1.1125 -3.2340 -3.0912
  413MOL0     H55707   2.455   3.881   9.547 -0.3574 -0.0384  0.8513
  413MOL0     H55708   2.575   3.846   9.424  0.1809 -1.0390 -1.7662
  413MOL0     H55709   2.422   3.673   9.318 -0.3149  0.6785 -1.7807
  413MOL0     H55710   2.314   3.706   9.452  2.2343 -1.4097  1.0129
  413MOL0     H55711   2.267   3.945   9.359 -0.4120 -0.3665 -0.6205
  413MOL0     H55712   2.263   3.837   9.220 -1.5082  1.9513  0.3370
  413MOL0     H55713   2.501   3.893   9.180 -0.2208  1.8068 -3.2301
  413MOL0     H55714   2.502   4.003   9.318  2.2619  1.1464 -0.7989
  413MOL0     H55715   2.634   4.114   9.176 -3.1765 -2.2131  0.2834
  413MOL0     H55716   2.741   4.318   9.100 -0.0957  2.3950 -0.3476
  413MOL0     H55717   2.764   4.775   8.960 -2.4180 -3.9313  4.2795
  413MOL0     H55718   2.763   5.006   8.939 -0.2589  2.3256 -0.7727
  413MOL0     H55719   2.735   5.214   8.806  0.0971  1.6964 -0.8746
  413MOL0     H55720   2.619   5.351   8.841  0.8899  0.0994 -1.2947
  413MOL0     H55721   2.763   5.202   9.045  3.4729  3.7200  3.5626
  413MOL0     H55722   2.791   5.355   8.976  0.0555  0.4721 -0.6681
  413MOL0     H55723   2.552   5.418   9.030  0.0661  0.4918  0.1988
  413MOL0     H55724   2.555   5.282   9.150  2.7260 -0.3642  1.4521
  413MOL0     H55725   2.763   5.505   9.151  2.2079 -1.4467 -0.5254
  413MOL0     H55726   2.746   5.397   9.277 -0.1793  2.3013  3.0880
  413MOL0     H55727   2.653   5.551   9.371 -0.5616  1.0325  0.6912
  413MOL0     H55728   2.510   5.487   9.324  1.0868 -1.9957  0.1318
  413MOL0     H55729   2.522   5.642   9.104  1.7471  2.6367 -0.8219
  413MOL0     H55730   2.464   5.705   9.254 -1.6959 -0.6165 -1.2378
  413MOL0     H55731   2.757   5.708   9.254 -1.7777 -2.3815 -1.0984
  413MOL0     H55732   2.648   5.828   9.299  1.4886  2.1074 -1.8496
  413MOL0     H55733   2.810   5.877   9.102  1.9112 -1.4333 -1.3281
  413MOL0     H55734   2.717   5.768   9.003 -0.0716  0.9241  0.1061
  413MOL0     H55735   2.352   4.998   8.803 -0.2686  1.2909  1.6395
  413MOL0     H55736   2.370   4.763   8.809  2.1058 -1.7329  1.1459
  413MOL0     H55737   2.362   4.452   8.937  1.1612 -0.3063 -2.2801
  413MOL0     H55738   2.261   4.231   9.008  0.0124 -1.3212 -0.0660
  413MOL0     H55739   2.735   2.738  10.331  0.2605 -0.7578  0.9966
  413MOL0     H55740   2.687   2.530  10.457  2.3409  1.4759  1.0275
  413MOL0     H55741   2.356   2.224  10.536  0.3246  1.3910 -3.8162
  413MOL0     H55742   2.213   2.017  10.569 -0.1917  2.8779  0.3365
  413MOL0     H55743   2.096   1.881  10.348  0.2932 -0.6223 -1.0391
  413MOL0     H55744   2.077   1.844  10.516 -3.3179 -1.7156 -0.9856
  413MOL0     H55745   2.072   1.600  10.450 -1.0937 -0.1142  1.0120
  413MOL0     H55746   2.076   1.651  10.280  1.0054 -0.0677  0.0160
  413MOL0     H55747   1.857   1.787  10.349 -2.0918 -2.6238 -3.7437
  413MOL0     H55748   1.874   1.725  10.515 -0.0165  1.6330 -0.3187
  413MOL0     H55749   1.834   1.499  10.452 -0.9316 -1.6815 -0.9170
  413MOL0     H55750   1.712   1.600  10.376  0.6084  1.7575  1.7135
  413MOL0     H55751   1.846   1.512  10.011 -0.7121 -1.1090  0.7686
  413MOL0     H55752   2.482   1.815  10.285 -2.5665 -1.8051  1.4705
  413MOL0     H55753   2.661   2.047  10.193 -3.6232 -1.9970 -1.3473
  413MOL0     H55754   2.762   2.018  10.336  0.2572 -0.4749 -1.6609
  413MOL0     H55755   2.682   1.891  10.242  1.3350 -0.0275  0.9719
  414MOL0     O55756   3.860   5.891   3.527 -0.9586  0.2189 -0.1658
  414MOL0     C55757   3.948   5.870   3.610  0.1201 -0.0507  1.0657
  414MOL0     O55758   3.924   5.831   3.736  0.2991 -0.4936 -0.8477
  414MOL0     C55759   3.798   5.813   3.783 -0.1303 -0.7718  0.3214
  414MOL0     C55760   3.794   5.727   3.891  0.7553 -0.3022 -0.4663
  414MOL0     C55761   3.664   5.689   3.938 -0.1604 -0.1740  0.5675
  414MOL0     C55762   3.547   5.740   3.888  0.5945  1.0935  0.1831
  414MOL0     O55763   3.426   5.684   3.934  0.6743  0.2931 -0.1575
  414MOL0     C55764   3.305   5.749   3.891 -1.1706  0.0022  0.1691
  414MOL0     C55765   3.179   5.710   3.970 -0.5757  0.0323 -1.1731
  414MOL0     C55766   3.183   5.554   4.024  0.6864 -0.5283  0.2207
  414MOL0     C55767   3.206   5.455   3.906  0.8678 -0.4319 -0.0834
  414MOL0     C55768   3.246   5.321   3.960  0.3593  0.5641 -0.0254
  414MOL0     C55769   3.260   5.214   3.848 -0.7871 -0.7403  0.7192
  414MOL0     C55770   3.280   5.080   3.910 -0.4465 -0.0639 -0.9332
  414MOL0     C55771   3.284   4.964   3.813  0.1248  1.1266  0.8645
  414MOL0     N55772   3.154   4.943   3.738  0.2974 -0.3264 -0.9095
  414MOL0     C55773   3.136   4.953   3.602  0.2762 -0.1737 -0.7417
  414MOL0     C55774   3.023   4.883   3.577  0.4278  0.5836 -0.3569
  414MOL0     C55775   2.984   4.841   3.432  0.5522  0.4227 -0.0152
  414MOL0     C55776   2.968   4.970   3.344  1.2650  1.4568 -0.4882
  414MOL0     C55777   2.835   5.054   3.398 -0.6336 -0.0909  0.1119
  414MOL0     C55778   2.885   5.166   3.491  0.5516  0.2365  0.3280
  414MOL0     O55779   2.957   5.258   3.404  1.0018  0.5373 -0.8816
  414MOL0     C55780   2.967   5.386   3.454 -1.0136 -0.2068  0.0538
  414MOL0     C55781   3.022   5.482   3.359  1.1577  0.2731 -0.3091
  414MOL0     C55782   3.039   5.613   3.391  0.8357 -1.1230 -0.2409
  414MOL0     C55783   3.006   5.660   3.520 -0.2000  0.6112 -0.0153
  414MOL0     C55784   3.003   5.802   3.555  0.4759 -0.3214  0.7876
  414MOL0     O55785   3.039   5.831   3.685 -0.2303  0.3881 -0.5290
  414MOL0     C55786   3.040   5.963   3.721 -0.3946  0.5203 -0.5289
  414MOL0     C55787   3.134   6.053   3.666 -0.3658  0.4160 -0.8081
  414MOL0     C55788   3.138   6.179   3.710 -0.6083  0.1670  0.4511
  414MOL0     C55789   3.077   6.224   3.830  0.4975 -0.1448  0.0298
  414MOL0     O55790   3.090   6.363   3.860  0.0621  0.3895  0.2945
  414MOL0     C55791   3.015   6.423   3.974 -0.1361 -0.1185 -1.0491
  414MOL0     C55792   3.096   6.542   4.037  0.0191 -0.6305 -0.4120
  414MOL0     C55793   3.087   6.686   3.974 -0.0290 -0.7779 -0.6523
  414MOL0     C55794   3.092   6.682   3.825  0.8888  0.3908  0.3208
  414MOL0     C55795   3.131   6.808   3.747  0.0265  0.3583  0.2167
  414MOL0     C55796   3.100   6.786   3.598 -0.1853 -0.2524 -0.3420
  414MOL0     C55797   2.948   6.806   3.573 -0.7066  0.1762  0.1985
  414MOL0     C55798   2.919   6.871   3.431 -0.2383 -0.2740 -1.6658
  414MOL0    Cl55799   2.991   6.798   3.284 -0.2481  0.5708 -0.2438
  414MOL0     C55800   3.002   6.129   3.896  0.1513 -0.3422 -0.3297
  414MOL0     C55801   2.998   5.994   3.849  1.1552 -0.7367 -0.7519
  414MOL0     O55802   2.983   5.890   3.471 -0.0627 -0.7705  0.0958
  414MOL0     C55803   2.972   5.573   3.620 -0.1219  0.2325 -0.4651
  414MOL0     C55804   2.949   5.434   3.592  0.5867 -0.7505  0.1598
  414MOL0     N55805   2.969   4.821   3.686 -0.8210 -0.8660 -0.3335
  414MOL0     N55806   3.049   4.867   3.787 -0.1078 -1.1556 -0.1813
  414MOL0     C55807   3.556   5.831   3.788  0.4647 -0.2612  0.1028
  414MOL0     C55808   3.679   5.875   3.741  0.1019  0.3115 -0.4034
  414MOL0     C55809   4.089   5.878   3.562  0.0847 -0.6637 -0.3162
  414MOL0     C55810   4.183   5.815   3.640 -0.4497  0.2578 -0.3400
  414MOL0     C55811   4.315   5.806   3.601 -0.9832 -0.1504  0.1600
  414MOL0     C55812   4.363   5.850   3.472  0.2140 -0.5710  0.7857
  414MOL0     O55813   4.492   5.846   3.418 -0.7426 -0.3416 -0.2532
  414MOL0     C55814   4.572   5.748   3.493 -0.2499  0.4584  0.9025
  414MOL0     C55815   4.710   5.728   3.438 -0.6322 -0.4852 -0.1700
  414MOL0     C55816   4.827   5.815   3.504  0.0524  0.3326  0.2926
  414MOL0     C55817   4.841   5.955   3.443  0.9490 -0.6101  0.9071
  414MOL0     C55818   4.981   5.995   3.434  0.7652 -0.4639  0.0372
  414MOL0     C55819   5.098   6.034   3.428  0.6762 -0.2014 -0.3984
  414MOL0     C55820   4.264   5.921   3.389 -0.3257  0.8614  0.3245
  414MOL0     C55821   4.133   5.928   3.432 -0.3524  0.3486  0.0398
  414MOL0     C55822   4.052   5.994   3.333  0.9998  0.2144 -0.1801
  414MOL0     H55823   3.885   5.691   3.937  1.6021 -0.4430 -2.1734
  414MOL0     H55824   3.653   5.624   4.025  0.5784  0.2069  0.9557
  414MOL0     H55825   3.311   5.857   3.908  0.7939 -0.0803  0.1573
  414MOL0     H55826   3.289   5.729   3.784  0.0883 -1.4317  0.2159
  414MOL0     H55827   3.096   5.736   3.904 -0.2633  1.7388 -0.9487
  414MOL0     H55828   3.175   5.785   4.050 -2.4893 -0.9582 -0.2489
  414MOL0     H55829   3.090   5.532   4.077 -0.3268  0.9835 -0.8256
  414MOL0     H55830   3.272   5.550   4.087  1.2046  4.7431  0.2970
  414MOL0     H55831   3.115   5.456   3.845 -1.9545  1.1913  3.7263
  414MOL0     H55832   3.293   5.491   3.850  0.7970  4.4768  2.4254
  414MOL0     H55833   3.340   5.326   4.016 -0.2645  0.6449  1.0487
  414MOL0     H55834   3.163   5.282   4.019  0.7324 -1.3008 -0.6758
  414MOL0     H55835   3.169   5.221   3.788 -1.7951  0.6873  2.2833
  414MOL0     H55836   3.344   5.240   3.783 -1.7471  0.9645  0.0958
  414MOL0     H55837   3.200   5.052   3.979  0.0978  0.2058 -0.1816
  414MOL0     H55838   3.380   5.076   3.955  1.1175  2.5457 -3.8084
  414MOL0     H55839   3.363   4.969   3.738  0.4708 -2.7227  0.8055
  414MOL0     H55840   3.295   4.875   3.875 -3.5582  0.6571  1.0990
  414MOL0     H55841   3.198   5.010   3.533  2.4521 -1.1875  0.2628
  414MOL0     H55842   3.064   4.784   3.383  1.6465 -0.5563  2.7133
  414MOL0     H55843   2.897   4.777   3.445  2.3153 -1.8147  1.8935
  414MOL0     H55844   3.051   5.040   3.349  1.6369  1.1736 -2.0904
  414MOL0     H55845   2.948   4.944   3.239 -0.9066 -0.2575  0.2702
  414MOL0     H55846   2.756   4.991   3.440 -1.7122 -0.3408 -2.1137
  414MOL0     H55847   2.783   5.111   3.320  0.5020  1.3716  0.3782
  414MOL0     H55848   2.945   5.118   3.570  0.4173  1.3731  1.1396
  414MOL0     H55849   2.803   5.214   3.544  1.1649 -1.1651  2.7070
  414MOL0     H55850   3.038   5.447   3.257 -0.9268 -1.1699 -0.2277
  414MOL0     H55851   3.061   5.682   3.310  3.4132  0.4691  1.6661
  414MOL0     H55852   3.201   6.030   3.584  0.5726  0.2829 -0.0222
  414MOL0     H55853   3.210   6.249   3.668  0.0169 -0.2265  0.8532
  414MOL0     H55854   2.919   6.457   3.935  0.6934  2.3563 -1.0663
  414MOL0     H55855   2.996   6.351   4.054 -1.9636 -0.9470 -2.1514
  414MOL0     H55856   3.058   6.567   4.136 -0.5451  2.0867 -1.2242
  414MOL0     H55857   3.202   6.519   4.051  0.3332 -0.4421 -2.2269
  414MOL0     H55858   3.004   6.749   4.006  2.4240  2.4000  0.0074
  414MOL0     H55859   3.174   6.743   4.009 -0.1519 -0.9506 -0.0435
  414MOL0     H55860   2.993   6.659   3.786  1.0391  0.4131 -0.0820
  414MOL0     H55861   3.171   6.612   3.795  0.7961  1.7843 -3.6575
  414MOL0     H55862   3.236   6.836   3.761 -0.2402  1.8631 -0.5705
  414MOL0     H55863   3.072   6.897   3.771 -1.7259  0.2196 -2.9146
  414MOL0     H55864   3.157   6.862   3.544  1.9431 -0.3514  1.6071
  414MOL0     H55865   3.137   6.689   3.565  0.9059  0.6108 -1.8125
  414MOL0     H55866   2.910   6.879   3.646 -0.6913  0.3484  0.0337
  414MOL0     H55867   2.887   6.716   3.582 -3.2225  0.8941 -5.5144
  414MOL0     H55868   2.810   6.874   3.427 -0.3932  1.4234  1.0626
  414MOL0     H55869   2.951   6.975   3.444 -3.7864  0.5652  3.9124
  414MOL0     H55870   2.972   6.142   4.000 -1.2294 -2.0400 -0.4915
  414MOL0     H55871   2.957   5.927   3.924  3.4871  0.0674  1.3986
  414MOL0     H55872   2.951   5.594   3.725 -1.1019 -3.6862  0.2920
  414MOL0     H55873   2.943   5.361   3.672 -0.6713 -3.0903 -1.9057
  414MOL0     H55874   3.470   5.887   3.752  1.3969  1.5125  0.5451
  414MOL0     H55875   3.687   5.950   3.663 -1.1807 -0.1262 -0.9791
  414MOL0     H55876   4.163   5.776   3.740 -0.6915  0.2467 -0.3921
  414MOL0     H55877   4.371   5.763   3.683 -0.4567 -0.5454 -0.3907
  414MOL0     H55878   4.517   5.653   3.487 -5.0231  2.9467  0.8706
  414MOL0     H55879   4.576   5.763   3.601 -0.0469  1.0226  0.8177
  414MOL0     H55880   4.720   5.719   3.329  1.2572 -0.6364 -0.0147
  414MOL0     H55881   4.736   5.632   3.484 -1.5452  0.4167  2.3722
  414MOL0     H55882   4.915   5.752   3.484 -0.0819  0.1128  0.3964
  414MOL0     H55883   4.799   5.819   3.610 -4.3000 -2.2772 -0.5277
  414MOL0     H55884   4.790   5.972   3.347  1.0880  1.2644  1.1127
  414MOL0     H55885   4.794   6.026   3.512  1.6678  3.4332 -2.3356
  414MOL0     H55886   5.191   6.086   3.436  1.0550 -0.2904 -3.3295
  414MOL0     H55887   4.301   5.963   3.296  2.0768  0.0767  0.8361
  414MOL0     H55888   3.997   5.932   3.261  1.0990  0.9795 -0.9313
  414MOL0     H55889   3.988   6.062   3.389  2.6564  2.8080 -1.2546
  414MOL0     H55890   4.105   6.060   3.264  0.1577  0.8568 -0.2279
  415MOL0     O55891   6.324   7.363   9.244 -0.5435 -0.5995 -0.3880
  415MOL0     C55892   6.255   7.264   9.217  0.2167  0.9155 -0.1224
  415MOL0     O55893   6.218   7.161   9.304  0.2676 -0.1880 -0.2080
  415MOL0     C55894   6.246   7.166   9.436 -0.6942 -1.3196 -0.7685
  415MOL0     C55895   6.260   7.044   9.497  0.5903 -0.2054 -0.1938
  415MOL0     C55896   6.278   7.034   9.631  0.6008  1.0705  0.4842
  415MOL0     C55897   6.293   7.144   9.714 -0.2710 -1.2594 -0.4000
  415MOL0     O55898   6.314   7.110   9.846  0.0164  0.0104  0.0331
  415MOL0     C55899   6.275   7.201   9.954  0.3589 -0.0008 -0.4542
  415MOL0     C55900   6.316   7.133  10.092 -0.2166 -0.4897  0.1101
  415MOL0     C55901   6.441   7.046  10.095  0.0626 -0.4048  0.4430
  415MOL0     C55902   6.466   6.982  10.231 -0.7446 -0.9305  0.0089
  415MOL0     C55903   6.472   6.824  10.219  0.3161 -0.7681  0.8240
  415MOL0     C55904   6.329   6.765  10.189 -0.7154  0.0640  0.8321
  415MOL0     C55905   6.353   6.606  10.188  1.0162  0.3593 -0.3854
  415MOL0     C55906   6.230   6.529  10.149 -0.8359  0.1496 -0.1797
  415MOL0     N55907   6.113   6.547  10.237  0.6234 -0.1164  0.9865
  415MOL0     C55908   6.116   6.571  10.370 -0.3431  0.3416 -0.7851
  415MOL0     C55909   5.987   6.567  10.410  0.5341  0.9289 -0.0283
  415MOL0     C55910   5.928   6.575  10.554  0.7181 -0.4053 -0.4794
  415MOL0     C55911   5.853   6.437  10.585  0.8476  0.7110  1.1191
  415MOL0     C55912   5.813   6.404  10.733 -0.6210 -0.1719  0.0139
  415MOL0     C55913   5.754   6.268  10.750 -0.8772  0.8146 -0.2700
  415MOL0     O55914   5.729   6.251  10.889  0.1202 -0.0214  0.0323
  415MOL0     C55915   5.639   6.149  10.903 -0.0037 -0.5873 -0.0167
  415MOL0     C55916   5.678   6.020  10.948  0.0710 -0.9706  1.0208
  415MOL0     C55917   5.584   5.922  10.958  0.0475  0.2952 -0.9823
  415MOL0     C55918   5.444   5.937  10.952 -1.2629 -0.3028  0.1572
  415MOL0     C55919   5.350   5.828  10.953  0.6780 -0.5911 -0.0138
  415MOL0     O55920   5.250   5.819  10.855 -0.3628  0.2710  0.1874
  415MOL0     C55921   5.174   5.714  10.855  0.0776 -0.0305  0.5732
  415MOL0     C55922   5.164   5.647  10.741 -0.1338  0.0240  0.4646
  415MOL0     C55923   5.077   5.532  10.734 -0.2021 -0.8081  0.8060
  415MOL0     C55924   4.997   5.498  10.844 -0.5399 -0.1295  0.1777
  415MOL0     O55925   4.917   5.391  10.835 -0.1667  0.2436 -0.5856
  415MOL0     C55926   4.769   5.397  10.857 -0.0377  0.6196 -0.3182
  415MOL0     C55927   4.736   5.360  11.005  0.1366 -0.7434 -0.5085
  415MOL0     C55928   4.819   5.250  11.075 -0.2032  0.1817  0.7368
  415MOL0     C55929   4.785   5.105  11.042  0.5078 -0.8179 -0.4295
  415MOL0     C55930   4.897   5.000  11.074 -0.7612  0.2491  0.4645
  415MOL0     C55931   4.895   4.954  11.217 -0.0002 -0.6026 -0.1573
  415MOL0     C55932   4.973   4.830  11.251 -0.5275 -0.4149  0.0957
  415MOL0     C55933   4.909   4.742  11.349  0.2054  0.1229 -0.3792
  415MOL0    Cl55934   4.884   4.828  11.499  0.1888 -0.4981 -0.2363
  415MOL0     C55935   5.001   5.577  10.959 -0.1956 -0.4890  0.1424
  415MOL0     C55936   5.089   5.682  10.963 -0.4808  0.6891  0.2832
  415MOL0     O55937   5.369   5.745  11.041  0.5132  0.9886  0.2696
  415MOL0     C55938   5.414   6.061  10.904  1.0345 -0.6823  0.4227
  415MOL0     C55939   5.506   6.164  10.862  0.4736  0.0798 -0.8673
  415MOL0     N55940   5.910   6.549  10.296 -0.7660 -0.9217  0.4672
  415MOL0     N55941   5.984   6.540  10.192  0.2459 -0.3360 -0.2953
  415MOL0     C55942   6.275   7.264   9.660 -0.2530 -0.3894  0.8249
  415MOL0     C55943   6.258   7.279   9.523 -0.7054 -0.1273  1.4520
  415MOL0     C55944   6.188   7.261   9.087  1.2523  0.1947 -0.3428
  415MOL0     C55945   6.126   7.133   9.051  0.5026  0.3398 -1.4576
  415MOL0     C55946   6.060   7.115   8.936  0.4940 -0.4074 -0.0950
  415MOL0     C55947   6.064   7.207   8.831 -0.5127 -0.6893 -0.7382
  415MOL0     O55948   6.030   7.192   8.701  0.2879  0.1396  0.3427
  415MOL0     C55949   5.921   7.103   8.660 -0.5221  1.2313  0.5306
  415MOL0     C55950   5.848   7.151   8.535  0.3216  1.5010 -1.2460
  415MOL0     C55951   5.938   7.186   8.422  0.2250  0.8228 -0.2793
  415MOL0     C55952   5.849   7.193   8.292  0.8933  0.5530  0.4167
  415MOL0     C55953   5.936   7.209   8.172  1.0581  0.0889  0.2624
  415MOL0     C55954   5.987   7.245   8.068 -0.2827  0.7080 -0.0209
  415MOL0     C55955   6.110   7.337   8.866  0.8342  0.1551 -0.1971
  415MOL0     C55956   6.160   7.365   8.996 -0.0147  0.3907 -0.7135
  415MOL0     C55957   6.222   7.501   9.009 -0.3072 -0.8869 -0.3439
  415MOL0     H55958   6.242   6.965   9.424  2.2031 -0.1892 -0.6404
  415MOL0     H55959   6.284   6.931   9.665 -0.5596  1.3578  1.6389
  415MOL0     H55960   6.326   7.297   9.945 -0.1649  0.3914  0.5536
  415MOL0     H55961   6.165   7.206   9.950  0.2343 -1.8588 -0.4308
  415MOL0     H55962   6.228   7.073  10.117 -1.2781  1.5452  1.4906
  415MOL0     H55963   6.322   7.211  10.168 -0.8515 -0.5544  0.2359
  415MOL0     H55964   6.522   7.106  10.051  1.9836 -0.8154  3.1889
  415MOL0     H55965   6.419   6.968  10.022 -4.6471  0.9457  0.0939
  415MOL0     H55966   6.564   7.015  10.266 -0.3190  1.4255 -3.0273
  415MOL0     H55967   6.391   6.999  10.308 -0.0636 -1.3247  0.7757
  415MOL0     H55968   6.547   6.803  10.142  3.1273  1.3957  2.7699
  415MOL0     H55969   6.509   6.795  10.318 -0.8426  0.6785  1.7404
  415MOL0     H55970   6.259   6.783  10.272 -0.3955  1.1610  0.8741
  415MOL0     H55971   6.284   6.794  10.094  0.0153 -0.5318  0.2949
  415MOL0     H55972   6.394   6.581  10.286  0.4232 -0.6384 -0.3776
  415MOL0     H55973   6.431   6.584  10.114 -1.0701 -0.2817 -2.5123
  415MOL0     H55974   6.190   6.550  10.049 -0.2907 -1.6739 -0.8276
  415MOL0     H55975   6.253   6.423  10.136  1.7672  0.9269 -2.9554
  415MOL0     H55976   6.209   6.558  10.426  0.8138 -3.5814 -3.1939
  415MOL0     H55977   6.002   6.588  10.634  1.6087 -2.6725 -0.8492
  415MOL0     H55978   5.857   6.658  10.550 -1.1315 -1.8195  1.0949
  415MOL0     H55979   5.766   6.423  10.520  2.4892  3.2553 -1.8862
  415MOL0     H55980   5.917   6.360  10.543 -1.9634 -0.4418 -1.3723
  415MOL0     H55981   5.742   6.483  10.758 -1.9683 -0.5304 -2.4026
  415MOL0     H55982   5.905   6.411  10.792  0.4883 -1.4879 -1.4530
  415MOL0     H55983   5.829   6.198  10.713 -1.3040 -0.7120  1.6301
  415MOL0     H55984   5.666   6.259  10.685 -1.0755 -0.2160  0.1406
  415MOL0     H55985   5.783   6.011  10.972  0.5851  0.8591 -0.2752
  415MOL0     H55986   5.613   5.823  10.991 -0.7961  0.2555 -0.3252
  415MOL0     H55987   5.229   5.669  10.657  0.6922  1.4367  1.4314
  415MOL0     H55988   5.086   5.475  10.642 -1.1420  4.0847 -2.6880
  415MOL0     H55989   4.739   5.498  10.828  1.6009  1.2299  0.0052
  415MOL0     H55990   4.716   5.332  10.787 -0.6600  1.3365 -0.5260
  415MOL0     H55991   4.759   5.452  11.059 -0.3392 -1.1632  0.4275
  415MOL0     H55992   4.628   5.348  11.018 -0.1240  0.4291 -1.3778
  415MOL0     H55993   4.924   5.278  11.070 -0.4003  0.7079 -1.1006
  415MOL0     H55994   4.799   5.260  11.182  1.8272 -2.3256  1.4308
  415MOL0     H55995   4.754   5.084  10.939  1.7764 -2.0345 -0.5920
  415MOL0     H55996   4.706   5.069  11.108  3.2982  0.6185  4.2512
  415MOL0     H55997   4.999   5.029  11.045 -0.8062 -2.2496 -2.7142
  415MOL0     H55998   4.869   4.911  11.018  3.4080 -0.1875 -1.3481
  415MOL0     H55999   4.936   5.031  11.283 -0.1405 -1.3473  0.8294
  415MOL0     H56000   4.790   4.942  11.244  0.3542  0.9169  2.2197
  415MOL0     H56001   5.075   4.854  11.285 -0.3627 -0.3168 -0.4592
  415MOL0     H56002   4.991   4.767  11.163 -2.9572  0.8058 -1.3863
  415MOL0     H56003   4.817   4.714  11.297  2.8765 -2.0503 -4.4783
  415MOL0     H56004   4.963   4.648  11.368  0.0450 -0.7003 -3.4994
  415MOL0     H56005   4.935   5.564  11.044 -1.7400 -0.1688 -0.9693
  415MOL0     H56006   5.101   5.735  11.057  0.6546 -0.5938  0.8844
  415MOL0     H56007   5.313   6.095  10.884  1.8245  0.5596 -1.7446
  415MOL0     H56008   5.481   6.267  10.839  3.2123  1.2134  0.7160
  415MOL0     H56009   6.273   7.353   9.721  0.4969 -0.5705  1.1138
  415MOL0     H56010   6.252   7.379   9.481  1.0718 -0.1528  1.0485
  415MOL0     H56011   6.131   7.054   9.125  3.8668  1.6904 -0.0199
  415MOL0     H56012   6.019   7.017   8.912  0.4971 -0.4956  0.2668
  415MOL0     H56013   5.839   7.096   8.732 -0.1664  2.5386  1.0950
  415MOL0     H56014   5.967   7.007   8.636 -1.9478  1.2653 -2.8467
  415MOL0     H56015   5.799   7.244   8.566 -0.8186 -0.6030  4.6745
  415MOL0     H56016   5.779   7.068   8.518 -1.2774  2.0725  1.6648
  415MOL0     H56017   6.012   7.108   8.402 -1.1752 -0.1123 -2.0824
  415MOL0     H56018   5.994   7.277   8.447 -2.4214  2.0355  1.7030
  415MOL0     H56019   5.795   7.099   8.284 -0.3593  1.1407  1.5195
  415MOL0     H56020   5.781   7.278   8.301  1.0752  0.6874  0.5537
  415MOL0     H56021   6.031   7.277   7.976 -1.0925  2.5331  0.1837
  415MOL0     H56022   6.100   7.415   8.791 -1.1696 -1.3145 -1.5486
  415MOL0     H56023   6.325   7.495   8.972 -0.6777 -1.5517 -1.3252
  415MOL0     H56024   6.166   7.571   8.947 -0.1640  1.6581  2.2050
  415MOL0     H56025   6.225   7.529   9.114 -0.4056 -0.5146 -0.4409
  416MOL0     O56026   8.291   1.054   9.946  0.2379  0.2657 -0.3999
  416MOL0     C56027   8.194   0.981   9.976  0.7490 -0.3780  0.7110
  416MOL0     O56028   8.066   1.026   9.958 -0.5378  1.0224  0.5602
  416MOL0     C56029   8.056   1.160   9.928 -0.1622 -0.1256 -0.1804
  416MOL0     C56030   8.114   1.261  10.014  0.1648  0.1317 -0.5697
  416MOL0     C56031   8.104   1.401   9.996 -0.4412 -0.5177 -0.8802
  416MOL0     C56032   8.025   1.445   9.893 -1.1737  1.2640  0.4379
  416MOL0     O56033   8.000   1.577   9.852  0.2520  0.0958  0.1187
  416MOL0     C56034   8.047   1.687   9.937 -0.6053  0.0444  0.2093
  416MOL0     C56035   7.952   1.718  10.056  0.4289 -0.1460  0.3849
  416MOL0     C56036   8.000   1.856  10.106 -0.4968 -0.2358  0.9687
  416MOL0     C56037   7.935   1.883  10.237  0.2355 -0.5720  1.2640
  416MOL0     C56038   7.985   2.018  10.301  0.6485  0.0157 -0.4229
  416MOL0     C56039   8.099   2.000  10.398  0.3571  0.5893  0.2627
  416MOL0     C56040   8.200   2.113  10.409  0.2354 -0.0975  0.2547
  416MOL0     C56041   8.279   2.092  10.535 -0.8906  0.0564 -0.2096
  416MOL0     N56042   8.406   2.166  10.552  0.2199 -0.2533 -0.4087
  416MOL0     C56043   8.420   2.294  10.571 -0.7639 -1.1901  0.9896
  416MOL0     C56044   8.551   2.322  10.553  0.2135 -0.3786  0.2809
  416MOL0     C56045   8.584   2.455  10.592  0.1426 -0.6457  0.9074
  416MOL0     C56046   8.581   2.461  10.737 -0.6667 -0.8901  0.4260
  416MOL0     C56047   8.663   2.352  10.813  1.4150 -0.6651 -0.2412
  416MOL0     C56048   8.808   2.340  10.790 -0.4950 -0.7426  0.5586
  416MOL0     O56049   8.860   2.471  10.825  0.2765 -0.6686 -0.0914
  416MOL0     C56050   8.887   2.503  10.952  1.1206 -0.2478 -1.0817
  416MOL0     C56051   8.922   2.415  11.058 -0.0437  0.0380  0.3322
  416MOL0     C56052   8.985   2.459  11.181  0.6495 -0.0985  0.3699
  416MOL0     C56053   8.998   2.595  11.218 -0.3758 -0.0627  0.6594
  416MOL0     C56054   9.059   2.637  11.346 -0.4124  0.8898 -0.6790
  416MOL0     O56055   9.104   2.760  11.360 -0.5832 -0.3879  0.5969
  416MOL0     C56056   9.123   2.811  11.488 -0.1524 -0.7347  0.0957
  416MOL0     C56057   9.062   2.938  11.519  0.0590 -1.7275 -0.0685
  416MOL0     C56058   9.070   2.997  11.641  0.4265 -0.4345 -1.6554
  416MOL0     C56059   9.145   2.931  11.742  0.3497 -0.8517  0.4075
  416MOL0     O56060   9.157   2.995  11.866  0.0594 -0.5398 -0.1776
  416MOL0     C56061   9.235   3.119  11.875 -0.4417 -0.5838  0.0154
  416MOL0     C56062   9.232   3.183  12.010 -0.0337 -0.5074  0.7401
  416MOL0     C56063   9.285   3.331  11.981  0.1744  0.2901  0.1181
  416MOL0     C56064   9.301   3.417  12.108 -0.2700 -0.0747  0.3478
  416MOL0     C56065   9.377   3.548  12.078 -0.4309  0.5331 -0.3739
  416MOL0     C56066   9.430   3.604  12.215 -0.2580 -0.2512 -0.0960
  416MOL0     C56067   9.527   3.713  12.183  0.0181  0.2298  0.5803
  416MOL0     C56068   9.584   3.788  12.306  0.3126 -0.9160  0.4612
  416MOL0    Cl56069   9.648   3.668  12.429 -0.5699 -0.1463 -0.1977
  416MOL0     C56070   9.204   2.812  11.714 -0.0124  0.3829  0.3958
  416MOL0     C56071   9.193   2.748  11.592  0.5256  0.0080  0.5032
  416MOL0     O56072   9.037   2.558  11.443  0.8854 -0.6619  0.0649
  416MOL0     C56073   8.947   2.681  11.122 -0.3757 -0.2530 -0.1022
  416MOL0     C56074   8.897   2.639  10.992 -0.4050  0.0344  0.6223
  416MOL0     N56075   8.621   2.200  10.534  0.8117  0.0735  0.1941
  416MOL0     N56076   8.526   2.110  10.535 -0.4132 -0.0025 -0.0855
  416MOL0     C56077   7.969   1.348   9.799  0.0272 -0.1382 -0.9800
  416MOL0     C56078   7.981   1.204   9.825  0.5216  0.3266  0.1313
  416MOL0     C56079   8.204   0.854  10.044  0.7691 -0.6811 -0.1836
  416MOL0     C56080   8.085   0.782  10.084  0.4667  0.1849  0.8056
  416MOL0     C56081   8.092   0.651  10.149  0.2724 -0.4505  0.2686
  416MOL0     C56082   8.212   0.609  10.208  1.1712 -0.4369  0.3695
  416MOL0     O56083   8.235   0.497  10.281 -0.6831 -0.7653 -0.4222
  416MOL0     C56084   8.126   0.411  10.306  0.3852  0.1945 -0.7366
  416MOL0     C56085   8.180   0.291  10.374  1.1787  0.3549 -0.2674
  416MOL0     C56086   8.230   0.308  10.519  0.3430 -0.5980  0.4870
  416MOL0     C56087   8.253   0.169  10.571 -0.6009  0.0534 -0.5776
  416MOL0     C56088   8.365   0.095  10.495  0.2781  0.7715  0.0613
  416MOL0     C56089   8.447   0.030  10.438  0.3464  0.2035 -0.0901
  416MOL0     C56090   8.323   0.676  10.165 -0.1349 -0.1517  0.0515
  416MOL0     C56091   8.322   0.800  10.091  0.3927  0.1613 -0.2972
  416MOL0     C56092   8.459   0.876  10.092  0.8838 -0.1921  0.1443
  416MOL0     H56093   8.170   1.221  10.097  0.9167 -1.4589 -1.8065
  416MOL0     H56094   8.159   1.474  10.055 -0.9582 -2.2001  1.8784
  416MOL0     H56095   8.154   1.673   9.949  0.3716  1.3029 -4.9382
  416MOL0     H56096   8.046   1.768   9.864 -0.0010  0.5955  0.7948
  416MOL0     H56097   7.968   1.649  10.139  3.0707  0.8201  0.7892
  416MOL0     H56098   7.849   1.714  10.021  1.2930  1.0823 -2.5951
  416MOL0     H56099   7.973   1.928  10.028 -0.1630  2.2930  3.0412
  416MOL0     H56100   8.108   1.857  10.122 -0.3605 -0.0883  0.0799
  416MOL0     H56101   7.828   1.876  10.216  0.4710 -0.6243  0.0172
  416MOL0     H56102   7.949   1.796  10.302  2.1056 -1.0834  0.2646
  416MOL0     H56103   8.015   2.085  10.220  0.9469  0.9389  0.4501
  416MOL0     H56104   7.902   2.061  10.358  2.1533  1.0076  1.1091
  416MOL0     H56105   8.054   1.987  10.497  0.5353  1.0493  0.4042
  416MOL0     H56106   8.153   1.907  10.374  2.2571  1.8432 -0.5600
  416MOL0     H56107   8.146   2.208  10.417 -1.6808 -1.0418 -0.6439
  416MOL0     H56108   8.259   2.121  10.317 -0.6784 -1.2874 -0.4718
  416MOL0     H56109   8.220   2.106  10.626 -0.3851 -3.5331  0.8320
  416MOL0     H56110   8.306   1.986  10.534 -1.2734 -0.0861  1.7780
  416MOL0     H56111   8.340   2.353  10.616  1.5043  1.9577  1.2569
  416MOL0     H56112   8.676   2.498  10.552  0.7149 -1.2287  1.5668
  416MOL0     H56113   8.505   2.525  10.562  0.6575 -0.7093 -0.6989
  416MOL0     H56114   8.617   2.559  10.770  0.6475 -1.1151 -0.2488
  416MOL0     H56115   8.477   2.463  10.770 -0.3877  1.7770  1.4493
  416MOL0     H56116   8.613   2.257  10.791 -1.9185  0.6860  0.8414
  416MOL0     H56117   8.644   2.362  10.920 -0.3711  0.8082 -0.6481
  416MOL0     H56118   8.825   2.305  10.688 -1.3893 -1.3438  0.6060
  416MOL0     H56119   8.849   2.259  10.851 -0.1488 -1.6758 -0.8487
  416MOL0     H56120   8.905   2.308  11.046  1.6600 -0.1461 -1.0404
  416MOL0     H56121   9.004   2.384  11.257  1.2830 -2.0645 -1.6416
  416MOL0     H56122   8.999   2.995  11.451  1.5129 -0.8935 -0.7512
  416MOL0     H56123   9.017   3.091  11.658 -1.1165 -1.7513  1.8349
  416MOL0     H56124   9.338   3.087  11.852 -0.1843 -1.8661  2.6180
  416MOL0     H56125   9.208   3.198  11.805 -2.7305 -1.1302  0.2239
  416MOL0     H56126   9.133   3.187  12.058  0.0162 -0.5372  0.8481
  416MOL0     H56127   9.306   3.128  12.069  0.3810 -1.8545 -0.9465
  416MOL0     H56128   9.387   3.323  11.941 -0.4018  1.1773 -1.6666
  416MOL0     H56129   9.218   3.388  11.916 -1.0129  0.1169  1.1538
  416MOL0     H56130   9.351   3.358  12.186 -0.2958 -0.9931 -0.3106
  416MOL0     H56131   9.199   3.438  12.143 -1.2504 -1.1503 -1.6810
  416MOL0     H56132   9.322   3.629  12.030 -0.0610  0.6100 -0.6690
  416MOL0     H56133   9.464   3.531  12.014  1.1927  1.7619  1.4209
  416MOL0     H56134   9.350   3.641  12.279  1.1852  0.3075  1.4714
  416MOL0     H56135   9.491   3.521  12.253 -2.7160 -2.6418 -1.0721
  416MOL0     H56136   9.490   3.774  12.100 -2.1342 -2.8739 -0.9602
  416MOL0     H56137   9.611   3.660  12.138  0.2298  1.0501 -0.0110
  416MOL0     H56138   9.658   3.864  12.279 -1.6354  0.3638 -1.6541
  416MOL0     H56139   9.504   3.839  12.360 -0.0588 -0.8231 -0.1718
  416MOL0     H56140   9.246   2.752  11.794 -1.0613 -3.8115 -1.8913
  416MOL0     H56141   9.235   2.648  11.580 -0.1813 -0.4419  1.6086
  416MOL0     H56142   8.963   2.787  11.136  0.6080 -0.6760  2.5074
  416MOL0     H56143   8.868   2.711  10.917 -0.6467 -0.4730  0.2223
  416MOL0     H56144   7.910   1.380   9.714 -2.2218  0.7741  0.8202
  416MOL0     H56145   7.928   1.133   9.762 -2.0487  0.9204  1.4883
  416MOL0     H56146   7.987   0.822  10.061  1.3030  1.3619 -0.8749
  416MOL0     H56147   7.998   0.603  10.173 -0.1030  0.6670  1.1151
  416MOL0     H56148   8.073   0.388  10.213 -1.4006  1.2709 -0.0487
  416MOL0     H56149   8.045   0.458  10.363  0.3410  0.9280 -1.3859
  416MOL0     H56150   8.262   0.250  10.314 -0.1979 -2.3936 -0.4357
  416MOL0     H56151   8.095   0.221  10.372  0.8931  0.7059 -1.9997
  416MOL0     H56152   8.160   0.367  10.578  0.0532  0.8141 -1.1642
  416MOL0     H56153   8.324   0.363  10.525  1.8984 -3.1971  1.3402
  416MOL0     H56154   8.270   0.166  10.679 -4.7771 -3.2529  0.2255
  416MOL0     H56155   8.156   0.119  10.573 -0.6301  0.0627  2.0162
  416MOL0     H56156   8.521  -0.038  10.400 -0.7552 -0.4875 -1.0716
  416MOL0     H56157   8.415   0.646  10.214 -1.2925 -0.1029  2.3932
  416MOL0     H56158   8.545   0.823  10.133  2.5478  3.0628  1.1408
  416MOL0     H56159   8.487   0.910   9.992  3.7390  0.0537  0.9363
  416MOL0     H56160   8.445   0.969  10.148 -1.6534 -2.5092  3.8091
  417MOL0     O56161  11.410   9.531   6.807 -0.3367 -0.8214 -0.4452
  417MOL0     C56162  11.433   9.642   6.765  0.2787  0.2458  0.3149
  417MOL0     O56163  11.364   9.754   6.806 -0.2878  0.8289  0.1389
  417MOL0     C56164  11.291   9.741   6.926  0.2872 -0.7129  0.0463
  417MOL0     C56165  11.152   9.768   6.910 -0.3732 -0.3937  0.1495
  417MOL0     C56166  11.075   9.769   7.031 -0.5355 -0.0955 -0.1049
  417MOL0     C56167  11.137   9.754   7.161  0.1201 -0.3345 -0.4818
  417MOL0     O56168  11.066   9.762   7.283 -0.0525 -0.8307  0.2169
  417MOL0     C56169  10.922   9.778   7.288 -0.0467 -0.6039  0.5148
  417MOL0     C56170  10.861   9.644   7.254  0.0161 -0.5722  0.2889
  417MOL0     C56171  10.706   9.642   7.264 -0.2173  0.9443  0.5782
  417MOL0     C56172  10.645   9.748   7.168 -0.1107  0.1138  0.0031
  417MOL0     C56173  10.498   9.738   7.150 -0.4586  0.6958 -0.0026
  417MOL0     C56174  10.438   9.829   7.038 -0.4007  0.2752  0.4681
  417MOL0     C56175  10.453   9.761   6.901 -0.6947  0.7220 -0.2212
  417MOL0     C56176  10.349   9.814   6.792  0.5415  0.1209 -0.2404
  417MOL0     N56177  10.376   9.956   6.772  0.3262 -0.3556  0.2619
  417MOL0     C56178  10.499  10.004   6.747  0.3801 -0.1498 -0.3818
  417MOL0     C56179  10.484  10.141   6.748 -1.1505 -0.5979 -0.8609
  417MOL0     C56180  10.601  10.241   6.729 -0.6919  0.5342 -1.4022
  417MOL0     C56181  10.689  10.266   6.851 -0.8519 -0.4895 -0.3961
  417MOL0     C56182  10.601  10.277   6.977 -0.2582 -0.9751  0.5603
  417MOL0     C56183  10.671  10.369   7.081  0.3355  0.1815 -0.5307
  417MOL0     O56184  10.782  10.319   7.152 -0.1332  0.1691 -0.5811
  417MOL0     C56185  10.762  10.245   7.268 -0.2222 -0.4184  0.4979
  417MOL0     C56186  10.867  10.243   7.363  0.2033 -0.2772 -1.3896
  417MOL0     C56187  10.860  10.163   7.480  0.2706  0.3730  0.5518
  417MOL0     C56188  10.759  10.070   7.499  0.2645  0.6864 -0.5169
  417MOL0     C56189  10.763   9.981   7.617 -1.2033  0.1411  0.9319
  417MOL0     O56190  10.876   9.979   7.692  0.0191 -0.6621 -0.6649
  417MOL0     C56191  10.871   9.928   7.816  0.0857 -1.0222 -0.5066
  417MOL0     C56192  10.991   9.879   7.852 -0.7933  0.3396 -0.0433
  417MOL0     C56193  11.017   9.835   7.984 -0.5332  0.3857 -0.6294
  417MOL0     C56194  10.919   9.815   8.075  0.6801  0.0435  0.7520
  417MOL0     O56195  10.949   9.739   8.181  0.3201 -0.9093  0.4571
  417MOL0     C56196  10.847   9.709   8.287 -0.2262 -0.0065  0.8214
  417MOL0     C56197  10.746   9.617   8.235 -0.2665 -0.3855  0.7067
  417MOL0     C56198  10.805   9.477   8.215  1.2555  0.1529 -0.1378
  417MOL0     C56199  10.693   9.399   8.144 -0.6736 -0.0435  0.9566
  417MOL0     C56200  10.706   9.246   8.159  0.2379  1.6317  0.2329
  417MOL0     C56201  10.592   9.160   8.101 -0.8072  0.9204  0.5368
  417MOL0     C56202  10.629   9.011   8.107  0.7900  0.2559 -0.9127
  417MOL0     C56203  10.532   8.929   8.029  0.0357 -0.5268  0.7648
  417MOL0    Cl56204  10.388   8.905   8.129  0.0151 -0.2683 -0.5438
  417MOL0     C56205  10.792   9.873   8.035 -0.4364  0.2329 -0.2822
  417MOL0     C56206  10.762   9.936   7.905  0.5756  0.0697 -0.9115
  417MOL0     O56207  10.667   9.909   7.630 -0.4904  0.0721  0.1572
  417MOL0     C56208  10.656  10.069   7.400  0.0050 -0.3162 -0.1539
  417MOL0     C56209  10.653  10.163   7.297  0.1244  0.5427  0.0763
  417MOL0     N56210  10.353  10.165   6.775  0.2463 -0.6207  0.4629
  417MOL0     N56211  10.285  10.056   6.792  0.0065  0.2708 -0.0903
  417MOL0     C56212  11.274   9.726   7.157 -0.3060  0.1753  0.7493
  417MOL0     C56213  11.352   9.716   7.047  0.3992  0.1607  0.6249
  417MOL0     C56214  11.522   9.647   6.651 -0.3599 -0.4355  0.2404
  417MOL0     C56215  11.644   9.720   6.668 -0.4440  0.1430  0.5804
  417MOL0     C56216  11.733   9.741   6.563 -0.2272  1.0825  0.2510
  417MOL0     C56217  11.685   9.714   6.434 -0.1495 -0.2497 -0.2873
  417MOL0     O56218  11.765   9.739   6.317  1.3029 -0.0842 -0.3786
  417MOL0     C56219  11.895   9.762   6.328 -0.2486 -0.8266  0.1970
  417MOL0     C56220  11.977   9.633   6.331 -0.3553  0.1747 -0.0023
  417MOL0     C56221  12.126   9.664   6.330  0.3453 -0.0936 -0.5145
  417MOL0     C56222  12.177   9.701   6.194  0.4232 -0.7291 -0.5603
  417MOL0     C56223  12.192   9.575   6.118  0.2070 -0.1679  0.3524
  417MOL0     C56224  12.212   9.477   6.050  0.1364 -0.1105 -0.6975
  417MOL0     C56225  11.567   9.644   6.414 -0.6865  0.6423  0.9762
  417MOL0     C56226  11.486   9.604   6.517 -0.5810 -0.1578 -1.0988
  417MOL0     C56227  11.375   9.519   6.478  0.1748 -0.1065  0.9401
  417MOL0     H56228  11.121   9.799   6.811 -2.4560  2.7311  1.6205
  417MOL0     H56229  10.970   9.795   7.019 -0.5902  0.8444  2.0035
  417MOL0     H56230  10.900   9.801   7.392 -0.4688  2.7657 -0.2258
  417MOL0     H56231  10.892   9.859   7.221 -2.1119 -0.0459  2.0344
  417MOL0     H56232  10.912   9.580   7.326 -1.8831  0.0819  2.3204
  417MOL0     H56233  10.889   9.620   7.151  3.8290  1.8014  0.5746
  417MOL0     H56234  10.668   9.657   7.366 -1.2346  1.6023  0.1294
  417MOL0     H56235  10.670   9.552   7.213  0.4851  2.2547 -2.4625
  417MOL0     H56236  10.663   9.844   7.218  1.2954  0.3227 -0.8456
  417MOL0     H56237  10.707   9.736   7.079  2.5110  0.0340  1.7070
  417MOL0     H56238  10.463   9.636   7.134  2.5184 -0.3677 -0.5142
  417MOL0     H56239  10.451   9.773   7.241 -2.8897  0.0790 -0.9544
  417MOL0     H56240  10.330   9.823   7.055 -0.4037  1.2144  0.8322
  417MOL0     H56241  10.476   9.931   7.039 -1.3286  0.8117 -3.3839
  417MOL0     H56242  10.430   9.657   6.927 -2.3270  1.4462  1.4949
  417MOL0     H56243  10.555   9.755   6.861 -0.3512 -0.2294  0.7338
  417MOL0     H56244  10.370   9.757   6.701  0.5618 -0.3240  0.0419
  417MOL0     H56245  10.241   9.804   6.805  0.2938  1.0514 -1.3480
  417MOL0     H56246  10.593   9.951   6.737  0.8890  0.3719  1.3474
  417MOL0     H56247  10.659  10.199   6.647  2.0549 -1.0775  1.1909
  417MOL0     H56248  10.561  10.338   6.697 -2.3209  0.2990 -0.1953
  417MOL0     H56249  10.756  10.180   6.859 -2.4945 -2.0763 -2.7241
  417MOL0     H56250  10.749  10.357   6.838  0.0969 -1.1649 -0.8492
  417MOL0     H56251  10.593  10.176   7.018  2.0943 -1.6678 -0.4857
  417MOL0     H56252  10.503  10.313   6.944  0.6814  1.2873  0.0912
  417MOL0     H56253  10.604  10.398   7.162  2.9409  0.1364  1.8048
  417MOL0     H56254  10.695  10.462   7.028 -2.7755  0.8398 -0.9787
  417MOL0     H56255  10.956  10.301   7.341  0.0311  3.0511  4.6633
  417MOL0     H56256  10.949  10.167   7.542 -0.3349  1.8697  1.3664
  417MOL0     H56257  11.077   9.903   7.790  1.5835  1.3803  3.3409
  417MOL0     H56258  11.114   9.798   8.012 -1.0452 -1.0944 -0.7279
  417MOL0     H56259  10.888   9.665   8.378  0.0601  2.6805  2.0614
  417MOL0     H56260  10.794   9.802   8.308 -0.5431 -0.4346  1.9831
  417MOL0     H56261  10.666   9.615   8.309  1.0753  1.0884  2.2953
  417MOL0     H56262  10.700   9.664   8.148  1.7538  0.8806  0.2359
  417MOL0     H56263  10.895   9.480   8.154  1.8367 -1.9687  0.5183
  417MOL0     H56264  10.821   9.440   8.317 -1.8555  0.3045  0.5043
  417MOL0     H56265  10.699   9.429   8.039  0.9683 -2.1813  0.3790
  417MOL0     H56266  10.597   9.436   8.182 -0.0588  3.3414 -0.4940
  417MOL0     H56267  10.710   9.216   8.264 -1.8663  0.7310  0.1141
  417MOL0     H56268  10.796   9.211   8.110  0.3145 -0.3327  1.6700
  417MOL0     H56269  10.503   9.175   8.162 -1.9457  0.8247 -1.0533
  417MOL0     H56270  10.586   9.186   7.995  4.7303  1.5272  0.0763
  417MOL0     H56271  10.637   8.972   8.209 -0.3542  3.4791  0.5280
  417MOL0     H56272  10.733   9.006   8.074  0.8587 -1.0259 -0.5333
  417MOL0     H56273  10.514   8.982   7.934  0.5233  0.0771  1.0036
  417MOL0     H56274  10.581   8.833   8.008  2.2602  1.1489 -2.5959
  417MOL0     H56275  10.705   9.874   8.101 -2.4591  0.2732 -2.7713
  417MOL0     H56276  10.663   9.970   7.876  1.1347  0.6520 -2.1806
  417MOL0     H56277  10.568  10.008   7.415 -1.1887  1.6311  1.1152
  417MOL0     H56278  10.565  10.157   7.234  0.7589 -0.7138 -0.7100
  417MOL0     H56279  11.319   9.710   7.254 -0.8302  1.7612  1.2916
  417MOL0     H56280  11.458   9.692   7.053 -0.0092 -2.0852  0.0242
  417MOL0     H56281  11.676   9.758   6.765  0.5748 -2.9248  1.5448
  417MOL0     H56282  11.829   9.786   6.583  0.7627 -0.3337 -1.0632
  417MOL0     H56283  11.928   9.816   6.417  1.2552 -0.7420 -0.3863
  417MOL0     H56284  11.924   9.823   6.243 -0.3881  0.1288  0.8223
  417MOL0     H56285  11.945   9.558   6.259  0.1809  1.5394 -1.7228
  417MOL0     H56286  11.949   9.583   6.425 -1.4068 -1.0571 -0.9327
  417MOL0     H56287  12.184   9.583   6.375  2.7779  1.0798 -1.3853
  417MOL0     H56288  12.150   9.755   6.386 -0.8779 -0.0175 -0.0907
  417MOL0     H56289  12.106   9.765   6.140 -1.1551 -0.0270  2.1339
  417MOL0     H56290  12.270   9.758   6.204 -2.2323  4.2396 -0.9485
  417MOL0     H56291  12.227   9.381   6.004 -1.5955 -0.3715 -0.7810
  417MOL0     H56292  11.556   9.620   6.309  2.1577  3.3050 -0.0753
  417MOL0     H56293  11.280   9.569   6.496  1.0512  2.6044 -1.2525
  417MOL0     H56294  11.383   9.500   6.371  1.0139  0.2355  0.9385
  417MOL0     H56295  11.382   9.420   6.524  1.6323 -0.7665 -0.5802
  418MOL0     O56296  10.859   2.978   5.111 -1.0657  0.1772 -0.0994
  418MOL0     C56297  10.885   2.865   5.152  0.4548  0.0751 -0.2706
  418MOL0     O56298  10.995   2.786   5.127 -1.2249  0.4899  0.0442
  418MOL0     C56299  11.085   2.830   5.037  0.1825 -0.6350  0.9296
  418MOL0     C56300  11.214   2.872   5.066 -0.5375  0.5379  0.8639
  418MOL0     C56301  11.303   2.912   4.963 -0.2167  0.2229 -0.3768
  418MOL0     C56302  11.265   2.907   4.827 -1.0131  0.7222 -0.1882
  418MOL0     O56303  11.340   2.955   4.724  0.9206  0.0675 -0.5557
  418MOL0     C56304  11.484   2.944   4.739 -0.3666 -0.4111 -0.1376
  418MOL0     C56305  11.558   2.977   4.615  0.6647 -0.4645  0.4844
  418MOL0     C56306  11.553   2.849   4.511 -0.4795 -1.0272 -0.4712
  418MOL0     C56307  11.528   2.893   4.361 -0.0190  0.1914  0.1075
  418MOL0     C56308  11.506   2.764   4.272  0.4094  0.0596 -1.1443
  418MOL0     C56309  11.638   2.705   4.221 -0.5250  0.0750  0.5107
  418MOL0     C56310  11.619   2.599   4.118  0.0336 -1.2846 -0.0832
  418MOL0     C56311  11.530   2.649   3.993  0.2459 -0.4464 -0.7123
  418MOL0     N56312  11.509   2.535   3.898  0.7248  0.2580 -0.1497
  418MOL0     C56313  11.456   2.411   3.926  1.0914 -0.0340 -0.5825
  418MOL0     C56314  11.470   2.339   3.812 -0.2607 -0.4105 -0.3183
  418MOL0     C56315  11.482   2.187   3.799 -0.4614 -0.4988  0.6984
  418MOL0     C56316  11.439   2.125   3.666  0.6077 -1.4705  0.4496
  418MOL0     C56317  11.441   1.979   3.661 -0.1400  0.7350  0.0842
  418MOL0     C56318  11.424   1.939   3.513  0.7220  0.1768 -0.5374
  418MOL0     O56319  11.541   1.974   3.446 -0.7675  0.0952 -0.0867
  418MOL0     C56320  11.545   1.969   3.306 -1.0107  0.5254  0.1576
  418MOL0     C56321  11.649   2.026   3.246 -0.7832  0.6623  0.2490
  418MOL0     C56322  11.680   2.011   3.111 -0.1587  0.0278  0.2923
  418MOL0     C56323  11.598   1.931   3.036  0.0351  0.2767 -0.5970
  418MOL0     C56324  11.623   1.919   2.892  0.5360 -0.9321  0.7357
  418MOL0     O56325  11.724   1.987   2.839 -0.0881  1.0378  0.3807
  418MOL0     C56326  11.757   1.989   2.714  0.8648  0.7187 -0.4828
  418MOL0     C56327  11.651   2.032   2.617 -0.2085 -0.4988 -0.2573
  418MOL0     C56328  11.681   2.035   2.476  0.4134  0.2780  0.0625
  418MOL0     C56329  11.811   1.999   2.435  0.4671  0.1691  0.5925
  418MOL0     O56330  11.845   2.004   2.306  0.3777 -0.2029  0.1541
  418MOL0     C56331  11.828   1.877   2.238 -0.5001  0.7638  0.2604
  418MOL0     C56332  11.805   1.915   2.091  1.2321  0.0770 -0.4086
  418MOL0     C56333  11.658   1.953   2.076  0.1330  0.5310  0.1891
  418MOL0     C56334  11.621   1.960   1.926 -0.0260  0.5864 -0.1422
  418MOL0     C56335  11.671   2.077   1.843 -0.2890 -0.4002  0.2433
  418MOL0     C56336  11.601   2.087   1.709  1.0539 -0.0610  1.2374
  418MOL0     C56337  11.659   2.204   1.621  1.3865  0.0782  0.0018
  418MOL0     C56338  11.783   2.180   1.543  1.3510 -0.1532  0.2256
  418MOL0    Cl56339  11.835   2.332   1.479  0.0110  0.1077  0.4488
  418MOL0     C56340  11.902   1.969   2.539 -1.2969  0.5172  0.6634
  418MOL0     C56341  11.879   1.957   2.675 -0.4880 -0.2042  0.4302
  418MOL0     O56342  11.538   1.861   2.824  0.2246  0.4045 -0.2574
  418MOL0     C56343  11.500   1.857   3.092  0.9270  0.2208 -0.0218
  418MOL0     C56344  11.464   1.885   3.227 -0.1457 -0.6953 -0.1608
  418MOL0     N56345  11.518   2.423   3.711 -0.2865 -0.8868  0.0497
  418MOL0     N56346  11.541   2.542   3.759  0.4467 -0.1818 -0.5005
  418MOL0     C56347  11.134   2.878   4.803 -0.3282 -0.4623  0.2961
  418MOL0     C56348  11.039   2.847   4.907 -0.6994  0.2550  0.4230
  418MOL0     C56349  10.782   2.815   5.256 -0.0050 -0.8026 -0.3128
  418MOL0     C56350  10.798   2.681   5.289  0.1633 -0.3118  0.1783
  418MOL0     C56351  10.708   2.608   5.365  0.1775  1.1872 -1.1473
  418MOL0     C56352  10.600   2.685   5.420  0.8766 -0.1218 -0.3043
  418MOL0     O56353  10.501   2.618   5.480  0.2325 -0.3986  0.4646
  418MOL0     C56354  10.496   2.633   5.618 -1.1540 -0.4672 -0.0667
  418MOL0     C56355  10.613   2.552   5.687  0.8934  0.4023 -0.2434
  418MOL0     C56356  10.616   2.399   5.637  0.3681  0.5284 -0.0681
  418MOL0     C56357  10.505   2.321   5.704  0.1997 -0.2542 -0.6464
  418MOL0     C56358  10.520   2.178   5.663  0.4220  0.4631 -0.3273
  418MOL0     C56359  10.535   2.072   5.611  0.5006 -0.2070 -0.1148
  418MOL0     C56360  10.589   2.821   5.387 -0.4712  0.8220  0.6116
  418MOL0     C56361  10.667   2.882   5.302 -0.2733  0.2223 -0.4486
  418MOL0     C56362  10.628   3.026   5.269  0.4744 -0.1529 -0.2644
  418MOL0     H56363  11.229   2.881   5.173  0.3353  0.0036  0.7972
  418MOL0     H56364  11.401   2.949   4.991  0.7506 -1.9923 -0.5635
  418MOL0     H56365  11.521   3.003   4.823  1.5914  2.2219 -2.6612
  418MOL0     H56366  11.510   2.839   4.756 -1.8987 -0.5127  1.8235
  418MOL0     H56367  11.663   3.007   4.625  1.6666 -3.3266 -0.3722
  418MOL0     H56368  11.502   3.061   4.573 -0.3175 -1.5133 -0.4010
  418MOL0     H56369  11.467   2.787   4.537  0.2934 -3.6721 -3.5590
  418MOL0     H56370  11.646   2.796   4.531 -0.9582 -1.7128 -0.0250
  418MOL0     H56371  11.438   2.952   4.346 -1.6329 -1.5649  2.1743
  418MOL0     H56372  11.616   2.953   4.337  0.2673  1.0300  2.8522
  418MOL0     H56373  11.450   2.691   4.332  3.3417 -0.7322  0.8077
  418MOL0     H56374  11.437   2.807   4.198 -0.4760  3.0417  1.2176
  418MOL0     H56375  11.693   2.786   4.171 -2.3451  0.5457 -0.8090
  418MOL0     H56376  11.703   2.664   4.299  0.0652  0.0760  0.0278
  418MOL0     H56377  11.565   2.516   4.165  2.5472 -2.7781  0.3485
  418MOL0     H56378  11.713   2.563   4.075  0.9432 -1.1888  1.7223
  418MOL0     H56379  11.430   2.679   4.024  0.7765  3.0264 -1.9826
  418MOL0     H56380  11.577   2.736   3.946  0.9067  0.0690  0.8556
  418MOL0     H56381  11.430   2.379   4.027 -0.5224 -2.4273 -1.6488
  418MOL0     H56382  11.580   2.150   3.831  0.6967  2.1012  0.3794
  418MOL0     H56383  11.402   2.155   3.867 -0.1309 -2.0712  0.3944
  418MOL0     H56384  11.334   2.149   3.647  0.4754 -1.9328  0.5911
  418MOL0     H56385  11.501   2.164   3.584 -0.4295  1.5071  0.9521
  418MOL0     H56386  11.363   1.940   3.728  1.1952 -3.5136 -0.5164
  418MOL0     H56387  11.538   1.935   3.684  0.2381  1.0904 -0.7809
  418MOL0     H56388  11.329   1.983   3.481  1.2136  2.6236  1.1347
  418MOL0     H56389  11.414   1.830   3.505  2.2731 -0.2357  1.9954
  418MOL0     H56390  11.721   2.075   3.311 -1.6469  1.3724  0.6962
  418MOL0     H56391  11.745   2.081   3.060 -0.6344 -0.3412 -0.8349
  418MOL0     H56392  11.559   2.065   2.663 -0.7027  1.4196 -2.4640
  418MOL0     H56393  11.622   2.068   2.391 -0.6279 -2.7095 -0.5148
  418MOL0     H56394  11.916   1.811   2.241  0.2861  1.8016  3.0599
  418MOL0     H56395  11.747   1.807   2.261  1.6197 -2.6439 -1.6475
  418MOL0     H56396  11.863   2.007   2.078 -0.0761  0.9903 -0.0607
  418MOL0     H56397  11.834   1.842   2.015  2.2590  0.7399 -0.6772
  418MOL0     H56398  11.590   1.873   2.106 -1.7398  1.8179 -0.4410
  418MOL0     H56399  11.645   2.048   2.130  0.4993  1.8048 -1.8540
  418MOL0     H56400  11.513   1.953   1.913  0.0694 -2.3663  0.0102
  418MOL0     H56401  11.664   1.875   1.873 -0.4026  2.2614 -3.3992
  418MOL0     H56402  11.778   2.063   1.825 -0.2950 -1.9235  1.1602
  418MOL0     H56403  11.662   2.172   1.896 -1.5058  2.4057 -4.4592
  418MOL0     H56404  11.618   1.989   1.663  1.6617  0.9301 -0.7440
  418MOL0     H56405  11.494   2.094   1.731  0.4581 -2.5935 -0.3787
  418MOL0     H56406  11.671   2.296   1.678  0.0518 -0.2859  0.9283
  418MOL0     H56407  11.575   2.233   1.557 -0.1986 -0.4723  1.7454
  418MOL0     H56408  11.859   2.119   1.593  0.1220 -0.4942  1.7463
  418MOL0     H56409  11.758   2.112   1.461 -0.4970 -0.1094  0.7129
  418MOL0     H56410  12.008   1.952   2.521 -1.0064  1.3803  1.4803
  418MOL0     H56411  11.957   1.906   2.731 -0.1998 -1.0499 -0.7000
  418MOL0     H56412  11.439   1.787   3.035 -3.1878  2.2190  1.5125
  418MOL0     H56413  11.386   1.822   3.269  1.2498 -2.6415 -0.3114
  418MOL0     H56414  11.091   2.870   4.704 -1.2020  1.5013  0.4782
  418MOL0     H56415  10.933   2.844   4.885 -1.0643 -0.3681  2.0903
  418MOL0     H56416  10.889   2.630   5.262 -0.0130  1.1922 -3.8510
  418MOL0     H56417  10.734   2.505   5.388  2.7419  0.9332 -4.4646
  418MOL0     H56418  10.400   2.600   5.657 -1.3366  0.8378  0.6377
  418MOL0     H56419  10.508   2.738   5.647  1.4438 -0.6685 -0.1809
  418MOL0     H56420  10.584   2.547   5.792  1.1843 -1.8485 -0.2037
  418MOL0     H56421  10.706   2.605   5.666  0.3092  1.5471  0.0238
  418MOL0     H56422  10.717   2.364   5.661  0.3362  1.0723  0.9104
  418MOL0     H56423  10.604   2.396   5.528  0.4374 -0.5780 -0.0542
  418MOL0     H56424  10.509   2.333   5.813 -3.2964  0.0697 -0.4335
  418MOL0     H56425  10.409   2.355   5.665  0.3285  2.6354  1.2608
  418MOL0     H56426  10.545   1.979   5.559 -1.1041  0.3313 -1.4875
  418MOL0     H56427  10.499   2.863   5.430 -1.0321 -0.1600  0.4333
  418MOL0     H56428  10.697   3.090   5.324  0.8258 -0.4961 -0.3024
  418MOL0     H56429  10.633   3.051   5.163  1.3158  1.8508  0.2013
  418MOL0     H56430  10.523   3.042   5.299  0.8346 -0.5193  1.3289
  419MOL0     O56431  10.305   6.321   8.485 -0.1143  0.2719 -0.2528
  419MOL0     C56432  10.219   6.365   8.567 -0.4816 -0.3059  0.2951
  419MOL0     O56433  10.160   6.296   8.669 -0.2578  0.0240 -0.7839
  419MOL0     C56434  10.180   6.168   8.710  0.2827 -0.7566 -0.2573
  419MOL0     C56435  10.295   6.092   8.695 -0.1320 -0.1246  0.4809
  419MOL0     C56436  10.313   5.958   8.748 -0.1048 -0.3667 -0.0098
  419MOL0     C56437  10.206   5.893   8.809 -0.2896 -0.1006 -0.8001
  419MOL0     O56438  10.214   5.767   8.870 -0.1215 -0.6159 -0.5907
  419MOL0     C56439  10.339   5.690   8.878 -0.6083  0.9234 -1.8378
  419MOL0     C56440  10.331   5.594   9.003 -0.3875  0.7416  0.0029
  419MOL0     C56441  10.449   5.492   9.003  0.3739 -0.8418 -0.1508
  419MOL0     C56442  10.492   5.455   9.138  0.1751  1.1163 -0.1475
  419MOL0     C56443  10.598   5.343   9.127 -0.2218 -0.1258 -0.2883
  419MOL0     C56444  10.618   5.273   9.260 -0.2885  0.0502 -0.0117
  419MOL0     C56445  10.734   5.170   9.255 -0.7194 -0.4168 -0.4798
  419MOL0     C56446  10.689   5.053   9.165 -1.0447  1.4453  0.7142
  419MOL0     N56447  10.797   4.947   9.146  0.5538  0.5013  0.2863
  419MOL0     C56448  10.846   4.907   9.025  0.4123 -0.3529 -0.0647
  419MOL0     C56449  10.917   4.794   9.051  0.6382  0.7288  0.8606
  419MOL0     C56450  10.968   4.695   8.952  0.1578  0.0880 -0.4858
  419MOL0     C56451  11.017   4.565   9.023 -0.0383 -0.8980  0.9638
  419MOL0     C56452  11.044   4.452   8.920 -1.2108 -0.3273  0.3587
  419MOL0     C56453  11.127   4.327   8.968  1.1059 -0.1116 -0.2227
  419MOL0     O56454  11.123   4.318   9.115 -0.1052 -0.3420 -0.3447
  419MOL0     C56455  11.163   4.196   9.166 -0.1752 -0.3184 -0.2793
  419MOL0     C56456  11.076   4.130   9.256  0.6552 -0.3377  0.4908
  419MOL0     C56457  11.103   4.002   9.322  0.5964  0.4543  0.4844
  419MOL0     C56458  11.204   3.925   9.268 -1.1441  1.0347  0.1290
  419MOL0     C56459  11.243   3.782   9.310 -0.0077 -0.7452  0.8224
  419MOL0     O56460  11.159   3.716   9.389  0.2412 -0.5545  0.0924
  419MOL0     C56461  11.189   3.594   9.447  0.8796 -0.4286  0.4717
  419MOL0     C56462  11.157   3.587   9.575 -0.2347 -0.2865  0.2951
  419MOL0     C56463  11.199   3.471   9.652  0.1587 -0.6446  0.4087
  419MOL0     C56464  11.272   3.371   9.584 -0.9211  0.4868 -0.2810
  419MOL0     O56465  11.309   3.249   9.642  0.0130  0.6568  0.5907
  419MOL0     C56466  11.290   3.217   9.777  0.0246  0.2632  0.1183
  419MOL0     C56467  11.378   3.101   9.821  0.1932 -0.0605  0.4924
  419MOL0     C56468  11.511   3.149   9.895  1.5388 -0.4026  0.5203
  419MOL0     C56469  11.562   3.024   9.979 -0.4225 -0.0821  0.4037
  419MOL0     C56470  11.579   2.883   9.890 -1.0639 -0.3519  0.4257
  419MOL0     C56471  11.699   2.899   9.803 -0.5824  0.2339  0.6288
  419MOL0     C56472  11.833   2.865   9.874 -0.1703  0.6006 -0.2984
  419MOL0     C56473  11.946   2.889   9.774 -0.2669 -0.8978 -0.2764
  419MOL0    Cl56474  11.969   3.050   9.694 -0.3555 -0.0249  0.3438
  419MOL0     C56475  11.308   3.379   9.453  0.0480 -0.6201  0.5965
  419MOL0     C56476  11.270   3.500   9.379  0.1029 -0.0778 -0.3936
  419MOL0     O56477  11.350   3.745   9.262 -0.1613  0.2055 -0.2459
  419MOL0     C56478  11.293   3.989   9.175 -0.2217 -0.8673  1.3505
  419MOL0     C56479  11.272   4.123   9.121  0.0508 -0.3377 -0.2734
  419MOL0     N56480  10.901   4.774   9.182 -0.0784 -0.4615  0.8931
  419MOL0     N56481  10.837   4.865   9.239  0.1877 -0.4653  0.4884
  419MOL0     C56482  10.102   5.971   8.830 -0.3501  0.4593  0.2730
  419MOL0     C56483  10.080   6.102   8.782  0.3549 -0.4224 -0.3227
  419MOL0     C56484  10.174   6.513   8.570 -1.2350 -0.3754 -0.1471
  419MOL0     C56485  10.048   6.551   8.626 -0.4118 -1.0539  1.0930
  419MOL0     C56486  10.007   6.679   8.643  0.1558  0.4326  0.5233
  419MOL0     C56487  10.087   6.790   8.614 -0.6796  0.0192 -0.0315
  419MOL0     O56488  10.053   6.920   8.642  0.4929 -0.3367  0.3229
  419MOL0     C56489   9.933   6.944   8.710  0.6580 -0.9379 -0.3782
  419MOL0     C56490   9.949   6.931   8.865 -0.8218 -0.1658  0.3015
  419MOL0     C56491   9.813   6.929   8.938 -0.6877 -0.2887 -0.0626
  419MOL0     C56492   9.817   6.898   9.084 -0.4475  0.8953  0.8595
  419MOL0     C56493   9.910   6.973   9.160  0.4028  0.0188  0.8019
  419MOL0     C56494   9.986   7.046   9.214 -0.3729  0.3117 -0.1195
  419MOL0     C56495  10.214   6.763   8.552 -0.4874 -0.1074 -0.3059
  419MOL0     C56496  10.258   6.632   8.534  1.0940  0.7203 -0.3805
  419MOL0     C56497  10.392   6.611   8.491 -0.8651 -1.0824  0.9542
  419MOL0     H56498  10.366   6.135   8.626 -1.7595  2.1499  0.1256
  419MOL0     H56499  10.404   5.909   8.715 -1.6066 -3.5071  0.1424
  419MOL0     H56500  10.351   5.631   8.787  0.8530 -0.4807 -0.7974
  419MOL0     H56501  10.425   5.757   8.888  0.7798 -1.1366  3.1565
  419MOL0     H56502  10.237   5.537   9.001  0.3344 -0.4912  0.1733
  419MOL0     H56503  10.323   5.661   9.089 -3.0606  0.2080  0.2524
  419MOL0     H56504  10.531   5.537   8.947 -0.1811  2.3059  1.3008
  419MOL0     H56505  10.423   5.406   8.940  5.4221 -3.4900  0.9424
  419MOL0     H56506  10.532   5.544   9.186 -0.8863  0.9234  1.1415
  419MOL0     H56507  10.414   5.414   9.202  1.0160  0.8067  0.7036
  419MOL0     H56508  10.560   5.267   9.058  1.9769 -3.5813  1.9960
  419MOL0     H56509  10.697   5.380   9.098  0.5808  0.4206  2.7708
  419MOL0     H56510  10.643   5.348   9.336  1.0413 -1.9252  1.5925
  419MOL0     H56511  10.522   5.224   9.282 -1.9193  2.2897 -1.6707
  419MOL0     H56512  10.758   5.132   9.354  2.0878 -2.0262 -1.6526
  419MOL0     H56513  10.821   5.225   9.218  1.3714 -1.2868  2.7529
  419MOL0     H56514  10.596   5.010   9.202 -0.9274  0.1050 -0.4527
  419MOL0     H56515  10.667   5.090   9.064 -1.1234 -0.5762 -0.0459
  419MOL0     H56516  10.818   4.953   8.930  2.6256 -0.3980 -0.8015
  419MOL0     H56517  10.884   4.675   8.886  0.4108 -2.9104 -0.0110
  419MOL0     H56518  11.046   4.747   8.894 -0.4274  3.4952  1.5043
  419MOL0     H56519  11.112   4.583   9.075  0.2857  0.0236  0.0879
  419MOL0     H56520  10.945   4.536   9.099 -0.6522  1.0305  1.1628
  419MOL0     H56521  11.094   4.490   8.831  0.3433 -0.8131  0.9904
  419MOL0     H56522  10.943   4.419   8.895 -1.5928  2.1652 -1.7709
  419MOL0     H56523  11.232   4.339   8.942  1.4767  0.1620  1.3229
  419MOL0     H56524  11.076   4.239   8.928 -1.0339 -0.1595  2.2951
  419MOL0     H56525  10.987   4.181   9.293 -1.4823 -3.6548  0.3473
  419MOL0     H56526  11.035   3.964   9.398  0.9953  0.4369  0.8350
  419MOL0     H56527  11.094   3.667   9.614  2.4834  2.2396 -0.1371
  419MOL0     H56528  11.175   3.464   9.758 -3.0401  3.6894  0.2233
  419MOL0     H56529  11.322   3.303   9.838 -1.4603 -0.6933  2.3725
  419MOL0     H56530  11.187   3.188   9.797  0.5125 -1.8255 -0.1717
  419MOL0     H56531  11.318   3.046   9.895 -4.1884  2.5577 -0.7451
  419MOL0     H56532  11.398   3.036   9.735 -0.6245 -3.9947  3.0369
  419MOL0     H56533  11.578   3.181   9.814 -1.8906  1.1743 -1.9339
  419MOL0     H56534  11.497   3.240   9.955  1.4918  0.1577 -0.3168
  419MOL0     H56535  11.487   3.000  10.055 -2.3724 -0.0603 -1.4206
  419MOL0     H56536  11.657   3.042  10.029 -1.8139 -0.0544  3.1933
  419MOL0     H56537  11.495   2.831   9.842 -0.0181  0.0002 -1.9699
  419MOL0     H56538  11.608   2.799   9.954 -2.2404 -1.0668  0.0609
  419MOL0     H56539  11.689   2.831   9.718 -4.3470  2.8174 -1.3059
  419MOL0     H56540  11.687   3.003   9.770 -0.6747  0.8349  2.4339
  419MOL0     H56541  11.841   2.758   9.896  2.3128  0.7142 -0.3798
  419MOL0     H56542  11.856   2.933   9.957  2.1535 -2.0504  1.3887
  419MOL0     H56543  12.042   2.862   9.818  0.2733 -0.2423 -1.0231
  419MOL0     H56544  11.935   2.812   9.697 -1.5030 -0.1142 -0.9083
  419MOL0     H56545  11.362   3.303   9.397  2.4758  0.1558  1.7209
  419MOL0     H56546  11.316   3.513   9.282  0.3500  2.4613  0.0006
  419MOL0     H56547  11.371   3.935   9.122  1.9232  1.7714  1.6036
  419MOL0     H56548  11.347   4.152   9.049 -0.0283 -0.4208 -0.3889
  419MOL0     H56549  10.019   5.929   8.887 -2.5598  4.8161  0.6681
  419MOL0     H56550   9.983   6.148   8.799  0.6906 -0.1195  0.8913
  419MOL0     H56551   9.979   6.471   8.650 -2.2387  0.1918  0.2572
  419MOL0     H56552   9.909   6.690   8.688  1.4721  0.0099  3.7859
  419MOL0     H56553   9.850   6.899   8.654 -2.4531  0.9221  2.3950
  419MOL0     H56554   9.914   7.051   8.699  1.9086 -0.9163 -3.8005
  419MOL0     H56555  10.004   7.016   8.905  1.7393 -3.3237  4.3894
  419MOL0     H56556  10.001   6.841   8.899  0.0244  1.8565  5.2579
  419MOL0     H56557   9.755   6.843   8.903  0.4292 -0.3094 -2.0528
  419MOL0     H56558   9.765   7.025   8.922  2.0944  0.8705 -2.3333
  419MOL0     H56559   9.715   6.912   9.119 -1.3968  0.7661 -1.6276
  419MOL0     H56560   9.841   6.791   9.091  1.2575  0.9500 -2.3637
  419MOL0     H56561  10.041   7.119   9.269  0.3973 -0.3625  0.0116
  419MOL0     H56562  10.290   6.840   8.544  0.7032 -1.1609  0.4519
  419MOL0     H56563  10.445   6.704   8.467 -0.6446 -1.1363  1.2266
  419MOL0     H56564  10.454   6.563   8.567  6.2679 -0.2722 -3.4520
  419MOL0     H56565  10.385   6.550   8.401  1.8962  1.7594 -1.4052
  420MOL0     O56566   2.611   6.162   9.337  0.4256 -0.5027  0.2502
  420MOL0     C56567   2.596   6.157   9.460 -0.1950 -0.2780  0.2054
  420MOL0     O56568   2.516   6.074   9.530  0.1839 -0.0004  0.0947
  420MOL0     C56569   2.431   6.003   9.462 -0.1985 -0.8730  0.0970
  420MOL0     C56570   2.407   5.864   9.500  0.3907 -0.1863 -0.6660
  420MOL0     C56571   2.303   5.798   9.430 -0.9289  0.8042  0.3181
  420MOL0     C56572   2.231   5.861   9.326 -0.3049  0.4921  0.6210
  420MOL0     O56573   2.135   5.796   9.253  0.9337  0.3973 -0.0102
  420MOL0     C56574   2.056   5.697   9.325  0.2264 -1.2847  0.4667
  420MOL0     C56575   1.964   5.621   9.228  0.0910 -0.1325  0.0117
  420MOL0     C56576   1.864   5.714   9.142 -0.9485  0.9585 -1.2466
  420MOL0     C56577   1.942   5.794   9.033  0.3583  0.5529  0.3133
  420MOL0     C56578   1.861   5.919   8.992 -0.3029 -0.9571  0.2669
  420MOL0     C56579   1.876   6.038   9.085 -0.3354  1.0304  0.8437
  420MOL0     C56580   1.856   6.173   9.008  0.2471  1.0455  0.2859
  420MOL0     C56581   1.828   6.286   9.103  0.2384 -0.4720  0.1086
  420MOL0     N56582   1.953   6.343   9.162  0.0102 -0.3044  0.1060
  420MOL0     C56583   2.055   6.406   9.096  0.1693 -1.1187 -0.5367
  420MOL0     C56584   2.170   6.407   9.173  0.5636 -0.3432  1.0112
  420MOL0     C56585   2.297   6.474   9.130 -0.7575  0.1924 -0.2133
  420MOL0     C56586   2.428   6.401   9.167  0.1974  1.0520  0.7046
  420MOL0     C56587   2.546   6.492   9.136  0.0938 -0.5669  0.1382
  420MOL0     C56588   2.681   6.428   9.140 -0.7773  0.2659  0.4271
  420MOL0     O56589   2.797   6.505   9.095  0.8006 -0.2409  0.0660
  420MOL0     C56590   2.844   6.610   9.165  0.2485  0.2200 -0.1309
  420MOL0     C56591   2.945   6.687   9.113  0.4091  0.1858  0.8918
  420MOL0     C56592   2.997   6.795   9.175  0.6538  0.2085 -0.3319
  420MOL0     C56593   2.949   6.835   9.303  0.3244 -0.5080  0.1838
  420MOL0     C56594   3.004   6.965   9.362  0.8678  0.8186  1.0286
  420MOL0     O56595   2.918   7.028   9.451  0.8954 -0.5007  0.3971
  420MOL0     C56596   2.951   7.157   9.490 -0.0188 -0.7298  0.0060
  420MOL0     C56597   2.854   7.262   9.476  0.6064 -0.3184  0.6592
  420MOL0     C56598   2.884   7.390   9.521 -0.5322  0.8573  0.4353
  420MOL0     C56599   3.011   7.431   9.562 -0.6667  0.0580 -0.6320
  420MOL0     O56600   3.036   7.550   9.627  0.0244  0.1312 -0.0969
  420MOL0     C56601   2.934   7.626   9.689 -0.2847 -0.3286  0.5979
  420MOL0     C56602   2.909   7.761   9.624  0.0472 -0.9560  0.3477
  420MOL0     C56603   2.943   7.892   9.705  0.2243  0.3740 -0.1277
  420MOL0     C56604   2.860   8.012   9.675  0.0446  0.6268  0.6267
  420MOL0     C56605   2.905   8.124   9.769 -0.7154 -0.2358  0.0749
  420MOL0     C56606   2.874   8.099   9.915  0.5793  0.3861  0.0308
  420MOL0     C56607   2.879   8.229  10.008  0.5399 -0.5376  0.8674
  420MOL0     C56608   2.731   8.256  10.058  0.8096  0.2187 -0.2501
  420MOL0    Cl56609   2.618   8.278   9.935  0.3637  0.1987  0.0424
  420MOL0     C56610   3.109   7.330   9.575 -0.0861  0.9100  0.3970
  420MOL0     C56611   3.075   7.189   9.537 -0.0447  0.3054  0.7000
  420MOL0     O56612   3.102   7.015   9.305 -0.2920  0.1288  0.0965
  420MOL0     C56613   2.858   6.757   9.377 -0.9392 -0.2230 -0.0771
  420MOL0     C56614   2.802   6.651   9.296 -0.6550 -0.1755 -0.6317
  420MOL0     N56615   2.140   6.319   9.287 -0.2159  0.2726  0.1327
  420MOL0     N56616   2.017   6.289   9.271  0.5582 -0.1227 -0.6685
  420MOL0     C56617   2.253   5.995   9.292 -0.4766 -0.4701  0.1564
  420MOL0     C56618   2.357   6.060   9.360  0.7794 -0.0164 -0.7162
  420MOL0     C56619   2.674   6.251   9.543 -0.4291  0.8073  0.5014
  420MOL0     C56620   2.664   6.391   9.511 -0.6748 -0.9215 -1.0358
  420MOL0     C56621   2.710   6.488   9.603  1.0007 -0.1242  0.6964
  420MOL0     C56622   2.774   6.454   9.716 -0.8394 -0.1922  0.0515
  420MOL0     O56623   2.816   6.558   9.792  0.0950 -0.5535 -1.2850
  420MOL0     C56624   2.942   6.540   9.855  0.1976 -0.4604 -0.5808
  420MOL0     C56625   3.002   6.676   9.871  0.2010 -0.0925 -0.7829
  420MOL0     C56626   3.044   6.744   9.748 -0.9032  0.2947  1.0607
  420MOL0     C56627   3.041   6.905   9.777 -0.1477 -0.0159  0.0984
  420MOL0     C56628   3.135   6.943   9.884  0.1424 -0.8488  0.9457
  420MOL0     C56629   3.224   6.990   9.951  0.3586 -0.5682  0.0534
  420MOL0     C56630   2.800   6.317   9.735 -0.9322  0.6839 -1.0103
  420MOL0     C56631   2.753   6.217   9.655 -0.9645  0.5663  0.5234
  420MOL0     C56632   2.781   6.074   9.698  0.4583 -0.1423 -0.8002
  420MOL0     H56633   2.460   5.822   9.584 -0.5398 -1.0850 -0.5222
  420MOL0     H56634   2.279   5.697   9.462  0.6327 -0.0537 -1.0762
  420MOL0     H56635   2.124   5.619   9.363 -0.8633 -1.8328  1.3536
  420MOL0     H56636   1.994   5.746   9.401  1.3041 -0.3092  0.7458
  420MOL0     H56637   1.892   5.565   9.289  0.9483 -1.7986 -0.4424
  420MOL0     H56638   2.008   5.553   9.155 -0.9983 -0.0823 -0.7100
  420MOL0     H56639   1.794   5.765   9.208  0.5340  2.2195 -0.5858
  420MOL0     H56640   1.806   5.643   9.081 -0.9300  0.4204 -0.6449
  420MOL0     H56641   2.046   5.817   9.058 -0.6892  2.6514  3.3730
  420MOL0     H56642   1.941   5.732   8.943 -0.0905  0.1680  0.5803
  420MOL0     H56643   1.890   5.944   8.889 -0.5728 -0.5177  0.2927
  420MOL0     H56644   1.753   5.898   8.991 -0.5925  0.4103  0.7048
  420MOL0     H56645   1.804   6.025   9.166  0.0065  1.6902  1.2681
  420MOL0     H56646   1.976   6.040   9.128  0.5850 -0.4600 -1.1335
  420MOL0     H56647   1.773   6.174   8.937 -0.1735  0.0204  0.7362
  420MOL0     H56648   1.937   6.202   8.940 -0.6886  2.2093 -0.3700
  420MOL0     H56649   1.772   6.360   9.044 -0.7459  0.9464  2.6486
  420MOL0     H56650   1.768   6.253   9.188  1.5277 -1.7527  0.5486
  420MOL0     H56651   2.036   6.458   9.003  2.6920  2.4660  0.7106
  420MOL0     H56652   2.303   6.494   9.023  0.5449 -4.4670 -1.2545
  420MOL0     H56653   2.298   6.562   9.195  1.6664 -2.9137  4.5659
  420MOL0     H56654   2.418   6.377   9.273 -3.1284 -0.9948  0.0750
  420MOL0     H56655   2.435   6.311   9.106 -1.9921  0.4518  1.2497
  420MOL0     H56656   2.548   6.576   9.206  1.3550 -1.8339  1.7156
  420MOL0     H56657   2.546   6.532   9.034  0.7046  1.3529  0.8483
  420MOL0     H56658   2.661   6.333   9.089 -1.9603  0.1153  1.1331
  420MOL0     H56659   2.706   6.403   9.243 -1.2321 -0.4435  0.3703
  420MOL0     H56660   2.972   6.668   9.010 -0.2413  1.4440  0.4736
  420MOL0     H56661   3.077   6.851   9.127  1.2656 -1.4871 -1.3897
  420MOL0     H56662   2.751   7.255   9.443  0.9765  1.3962 -0.9999
  420MOL0     H56663   2.808   7.468   9.514 -1.8649 -0.4250  0.1940
  420MOL0     H56664   2.837   7.574   9.688  0.0712 -0.9961  0.5023
  420MOL0     H56665   2.969   7.625   9.793  3.3385 -0.7500 -0.5098
  420MOL0     H56666   2.980   7.772   9.542  0.3410 -1.2219  0.5651
  420MOL0     H56667   2.811   7.755   9.575  0.3479 -2.1279 -0.1403
  420MOL0     H56668   2.929   7.863   9.810  1.6063 -0.4446 -0.1474
  420MOL0     H56669   3.050   7.906   9.692  0.4320 -1.3445 -0.4243
  420MOL0     H56670   2.756   7.980   9.685  0.1186 -0.1329 -0.7292
  420MOL0     H56671   2.867   8.042   9.570 -1.4844  3.4333  1.2204
  420MOL0     H56672   2.852   8.210   9.727  0.3217  0.1383 -0.5247
  420MOL0     H56673   3.010   8.147   9.749 -0.8840 -1.2254 -2.2956
  420MOL0     H56674   2.773   8.060   9.930  0.4494  1.6547  3.4538
  420MOL0     H56675   2.937   8.021   9.958 -2.0178 -0.3839  2.8575
  420MOL0     H56676   2.897   8.315   9.944  1.5185  0.3089  2.2213
  420MOL0     H56677   2.954   8.224  10.088  0.1334  1.5507  1.4306
  420MOL0     H56678   2.691   8.184  10.130  1.7991  1.3921  1.5601
  420MOL0     H56679   2.730   8.354  10.107  1.3595  0.7591 -1.2908
  420MOL0     H56680   3.202   7.337   9.630 -0.6830 -0.9305  1.7576
  420MOL0     H56681   3.152   7.114   9.552  0.6412  1.4350  3.2529
  420MOL0     H56682   2.821   6.780   9.476 -0.8544  1.3712 -0.3930
  420MOL0     H56683   2.719   6.602   9.348 -1.7558  1.7668 -0.4840
  420MOL0     H56684   2.188   6.040   9.218 -1.0729 -0.8820  0.4192
  420MOL0     H56685   2.361   6.165   9.331  0.9279  0.0157 -0.5775
  420MOL0     H56686   2.614   6.420   9.419  1.8424  0.9653 -1.9241
  420MOL0     H56687   2.675   6.589   9.586  0.1301 -0.2357  1.7131
  420MOL0     H56688   3.005   6.473   9.796  1.8638 -0.7002  1.3800
  420MOL0     H56689   2.939   6.498   9.956  0.9847  2.1712  0.6129
  420MOL0     H56690   3.082   6.669   9.945  0.1805 -6.7377 -0.7822
  420MOL0     H56691   2.924   6.741   9.913  0.5577 -0.6161  0.7519
  420MOL0     H56692   2.975   6.729   9.664  1.2484  1.7009 -1.1042
  420MOL0     H56693   3.133   6.689   9.714 -1.4588  0.4617 -0.7766
  420MOL0     H56694   3.066   6.958   9.684 -0.1318 -0.6174 -0.2485
  420MOL0     H56695   2.935   6.921   9.795 -0.3938 -1.1362 -0.2731
  420MOL0     H56696   3.311   7.019  10.007  0.0315 -0.3445  0.4480
  420MOL0     H56697   2.860   6.292   9.822 -1.8525 -0.7427 -0.7498
  420MOL0     H56698   2.735   6.058   9.796 -0.5147 -1.8459 -1.5054
  420MOL0     H56699   2.736   6.003   9.629 -0.6252 -0.5805  0.3149
  420MOL0     H56700   2.890   6.059   9.699  0.2494 -2.0914  1.6517
  421MOL0     O56701   1.335   1.297   5.789  0.1091  0.1780  0.6114
  421MOL0     C56702   1.408   1.272   5.694 -0.0420  0.2962 -1.2901
  421MOL0     O56703   1.383   1.170   5.610  0.1491  0.3421 -1.0235
  421MOL0     C56704   1.397   1.036   5.653 -0.0426 -0.6091 -0.6969
  421MOL0     C56705   1.376   0.949   5.553 -0.0341  0.2393 -0.6013
  421MOL0     C56706   1.380   0.812   5.589  0.1537  0.6410  0.2514
  421MOL0     C56707   1.410   0.766   5.723  1.0128 -0.5895  0.7315
  421MOL0     O56708   1.431   0.638   5.747  0.8034  0.9313  0.3226
  421MOL0     C56709   1.398   0.536   5.646 -0.2330 -0.8815  0.0667
  421MOL0     C56710   1.415   0.396   5.692 -0.6041 -0.3138  0.4739
  421MOL0     C56711   1.324   0.367   5.810 -0.6585  0.1207 -0.0795
  421MOL0     C56712   1.173   0.379   5.789 -0.5495  0.5104 -0.3929
  421MOL0     C56713   1.101   0.363   5.928 -0.2541  0.5527  0.2350
  421MOL0     C56714   0.955   0.346   5.915  0.1686 -0.4893 -0.6894
  421MOL0     C56715   0.894   0.330   6.055  0.9563  0.3059  1.0187
  421MOL0     C56716   0.739   0.301   6.055  0.1502 -0.0893 -0.3678
  421MOL0     N56717   0.655   0.421   6.030 -0.7676 -0.1265 -0.7048
  421MOL0     C56718   0.521   0.425   6.002  0.4033 -0.5377 -0.6783
  421MOL0     C56719   0.492   0.560   5.980  0.6182 -0.1403  0.2045
  421MOL0     C56720   0.354   0.634   5.978  0.4161 -0.3092  0.1900
  421MOL0     C56721   0.319   0.694   5.839  0.0966 -0.0546 -0.5943
  421MOL0     C56722   0.321   0.583   5.730  0.3343  0.3978 -0.2310
  421MOL0     C56723   0.246   0.628   5.601 -0.1403 -0.3542  0.0152
  421MOL0     O56724   0.356   0.689   5.537 -0.0410 -0.1337  0.2445
  421MOL0     C56725   0.358   0.831   5.536 -0.9140 -0.0127  0.6211
  421MOL0     C56726   0.266   0.916   5.581  0.1000 -0.1138  0.2724
  421MOL0     C56727   0.282   1.055   5.586 -0.6313 -0.5639 -0.5114
  421MOL0     C56728   0.392   1.114   5.526  0.6364 -0.5854  0.1624
  421MOL0     C56729   0.411   1.263   5.515  0.2034 -0.1811 -0.0999
  421MOL0     O56730   0.517   1.308   5.438 -0.3210  1.6479  0.3177
  421MOL0     C56731   0.557   1.437   5.448  0.1990 -0.0851 -0.5971
  421MOL0     C56732   0.515   1.531   5.351 -0.0004 -0.2754 -0.4406
  421MOL0     C56733   0.562   1.665   5.372  0.0734 -0.3874 -0.0281
  421MOL0     C56734   0.648   1.712   5.478  0.9168 -0.2993  0.4996
  421MOL0     O56735   0.683   1.849   5.485  0.1654 -0.2326  0.1222
  421MOL0     C56736   0.755   1.894   5.596  0.2856 -0.2381 -0.5109
  421MOL0     C56737   0.821   2.032   5.580  0.2937  0.5178 -0.2890
  421MOL0     C56738   0.713   2.135   5.576  0.5496  0.4211 -0.4029
  421MOL0     C56739   0.773   2.280   5.567  0.4827 -0.1084  0.5381
  421MOL0     C56740   0.644   2.379   5.550 -0.4781  0.0984 -0.5219
  421MOL0     C56741   0.688   2.527   5.563 -0.4249  0.6521  0.6725
  421MOL0     C56742   0.772   2.573   5.684  0.2911  0.1510 -0.5712
  421MOL0     C56743   0.920   2.593   5.652  0.4163  0.4887  1.2801
  421MOL0    Cl56744   1.018   2.579   5.798  0.1088 -0.0787 -0.2794
  421MOL0     C56745   0.685   1.610   5.570  0.2521  1.0608  0.8497
  421MOL0     C56746   0.645   1.477   5.555  0.2946 -0.2852 -0.0974
  421MOL0     O56747   0.332   1.335   5.574 -0.4715  0.1717  0.0357
  421MOL0     C56748   0.493   1.019   5.481 -0.1005 -0.0378 -0.7020
  421MOL0     C56749   0.480   0.884   5.492  0.5040 -0.6202  0.0116
  421MOL0     N56750   0.607   0.626   6.014  0.1857 -0.4632 -0.1846
  421MOL0     N56751   0.707   0.547   6.041  0.0133  0.7487  0.4976
  421MOL0     C56752   1.427   0.858   5.824  0.0274 -0.1005  0.2995
  421MOL0     C56753   1.408   0.993   5.790 -0.2879 -1.2873  0.2302
  421MOL0     C56754   1.499   1.379   5.648 -0.3081  0.3099 -0.1162
  421MOL0     C56755   1.534   1.376   5.510  0.4377 -0.8228  0.7155
  421MOL0     C56756   1.615   1.478   5.456  1.1863 -0.0804 -0.6938
  421MOL0     C56757   1.668   1.583   5.529  0.8029 -1.1864  0.0983
  421MOL0     O56758   1.752   1.683   5.480  0.6022  0.3322  0.2852
  421MOL0     C56759   1.892   1.674   5.513 -0.3501 -0.3815 -0.3959
  421MOL0     C56760   1.965   1.574   5.426  0.3618 -0.2914  0.2665
  421MOL0     C56761   2.012   1.641   5.295 -0.3217 -0.5668  0.5007
  421MOL0     C56762   2.101   1.551   5.200  0.7273 -0.4436 -0.7151
  421MOL0     C56763   2.020   1.477   5.112  0.6778 -0.1150 -0.7682
  421MOL0     C56764   1.945   1.416   5.036  0.5919 -0.0786 -1.1374
  421MOL0     C56765   1.634   1.589   5.661  0.2949  0.6122 -0.5419
  421MOL0     C56766   1.556   1.487   5.729  0.1446  0.4366 -0.0911
  421MOL0     C56767   1.530   1.500   5.877 -0.5456 -0.7648  0.4932
  421MOL0     H56768   1.343   0.975   5.453 -1.7979 -0.5151 -0.2553
  421MOL0     H56769   1.365   0.735   5.514  1.7078  2.3146 -1.8989
  421MOL0     H56770   1.297   0.549   5.605 -1.4054  2.3704  3.4474
  421MOL0     H56771   1.458   0.539   5.555 -0.7196  0.2565 -0.2375
  421MOL0     H56772   1.519   0.389   5.724  0.7206  3.8731 -2.2044
  421MOL0     H56773   1.389   0.323   5.615  1.0942  0.1636 -0.5920
  421MOL0     H56774   1.362   0.407   5.904  0.5176 -2.0714  0.4598
  421MOL0     H56775   1.346   0.261   5.824 -3.6938 -0.2838  2.7406
  421MOL0     H56776   1.142   0.472   5.741 -0.9750  0.5881  0.0271
  421MOL0     H56777   1.135   0.297   5.729 -1.5107  0.3249  0.4470
  421MOL0     H56778   1.145   0.274   5.975 -2.0833  0.4992  2.0328
  421MOL0     H56779   1.129   0.447   5.992 -4.4440  0.5576  2.4674
  421MOL0     H56780   0.918   0.442   5.880 -2.7637  0.3269  3.7293
  421MOL0     H56781   0.936   0.257   5.854 -2.7852 -2.0526  2.1721
  421MOL0     H56782   0.917   0.421   6.111 -1.5536  2.0110 -0.5359
  421MOL0     H56783   0.945   0.240   6.091  1.2208  0.9307  2.2520
  421MOL0     H56784   0.709   0.234   5.973  2.4204 -0.0861 -1.2702
  421MOL0     H56785   0.719   0.251   6.150  3.8387 -2.4812 -0.6562
  421MOL0     H56786   0.440   0.354   6.007 -0.1784  0.1280 -0.4160
  421MOL0     H56787   0.279   0.563   6.016  3.4060 -4.3007 -0.6815
  421MOL0     H56788   0.360   0.715   6.051 -1.1572 -0.8170  0.9456
  421MOL0     H56789   0.226   0.749   5.849 -1.4919 -2.4549 -1.2887
  421MOL0     H56790   0.401   0.758   5.807  0.3463 -0.0961 -0.0638
  421MOL0     H56791   0.261   0.508   5.782  2.3924 -0.9649  0.3007
  421MOL0     H56792   0.425   0.554   5.715  0.1773 -2.5587  3.0718
  421MOL0     H56793   0.152   0.684   5.593 -1.4352 -2.5869 -1.7370
  421MOL0     H56794   0.225   0.533   5.550  1.2778 -0.3195 -0.6854
  421MOL0     H56795   0.177   0.879   5.632 -0.4016  1.5661  0.6610
  421MOL0     H56796   0.213   1.124   5.635  0.7463 -1.4100  2.9219
  421MOL0     H56797   0.447   1.496   5.274 -3.2894 -0.9493  2.5169
  421MOL0     H56798   0.531   1.716   5.281 -2.2593 -2.0070 -0.2116
  421MOL0     H56799   0.684   1.891   5.679  2.4047 -0.4220  1.3888
  421MOL0     H56800   0.840   1.830   5.620  1.4470  1.3306 -0.2652
  421MOL0     H56801   0.879   2.052   5.671 -1.3490  3.4249  0.2494
  421MOL0     H56802   0.874   2.030   5.485 -1.9775 -3.8635 -1.7922
  421MOL0     H56803   0.665   2.120   5.479 -3.6372  1.9676  1.2049
  421MOL0     H56804   0.639   2.120   5.655  0.7949  2.4387  0.2828
  421MOL0     H56805   0.850   2.299   5.492 -0.3369  2.2836  0.2135
  421MOL0     H56806   0.828   2.290   5.661  3.2732 -3.9219 -0.4527
  421MOL0     H56807   0.557   2.352   5.611  0.8472  0.2280  1.5293
  421MOL0     H56808   0.630   2.368   5.442 -1.2201  0.0908 -0.4281
  421MOL0     H56809   0.744   2.540   5.471  0.1700  1.5662  1.1542
  421MOL0     H56810   0.602   2.593   5.552 -0.3344  0.5001 -1.1122
  421MOL0     H56811   0.759   2.505   5.769 -1.3342  0.4797 -0.5232
  421MOL0     H56812   0.737   2.668   5.726  1.8656 -0.4529  2.4471
  421MOL0     H56813   0.962   2.532   5.572 -0.1059  1.2823  0.3700
  421MOL0     H56814   0.929   2.696   5.616  3.8947  0.5046  1.9127
  421MOL0     H56815   0.745   1.626   5.659  1.2071 -1.7301  0.8181
  421MOL0     H56816   0.678   1.391   5.613  0.6060 -1.4634 -1.9533
  421MOL0     H56817   0.585   1.049   5.432  0.2937  0.4795  0.3194
  421MOL0     H56818   0.560   0.813   5.470  0.1692 -1.6899  1.9533
  421MOL0     H56819   1.452   0.820   5.922 -1.5418 -1.2946  0.2736
  421MOL0     H56820   1.437   1.060   5.871  0.0136 -1.4737  0.2777
  421MOL0     H56821   1.507   1.298   5.439  2.1406 -0.7605 -0.0496
  421MOL0     H56822   1.641   1.470   5.351  0.7269  0.5939 -0.8658
  421MOL0     H56823   1.909   1.647   5.618 -1.1316 -1.1811 -0.4657
  421MOL0     H56824   1.927   1.775   5.489  1.3555 -0.0403  3.0075
  421MOL0     H56825   1.891   1.503   5.389  0.7596 -0.0518 -1.0550
  421MOL0     H56826   2.049   1.525   5.476  1.4933 -0.6193 -1.8615
  421MOL0     H56827   2.076   1.725   5.323  2.0038 -3.1344  3.5498
  421MOL0     H56828   1.929   1.680   5.234 -1.2535 -0.2542  1.9300
  421MOL0     H56829   2.166   1.619   5.144  0.7709  1.1537  1.1377
  421MOL0     H56830   2.165   1.483   5.257 -1.0554 -2.0245 -0.5172
  421MOL0     H56831   1.885   1.354   4.973 -0.0378 -3.1819  2.2053
  421MOL0     H56832   1.672   1.671   5.721  1.6104  1.3500 -2.3394
  421MOL0     H56833   1.515   1.402   5.923 -1.7886 -0.3714  0.9562
  421MOL0     H56834   1.612   1.552   5.926 -0.9760  0.2938  0.1219
  421MOL0     H56835   1.444   1.557   5.914  0.9464  1.0704  1.2907
  422MOL0     O56836   5.294  10.713  11.313  0.3035  0.1725 -0.0813
  422MOL0     C56837   5.358  10.629  11.373  0.3301  0.0151 -0.0478
  422MOL0     O56838   5.403  10.638  11.498  0.5740  0.3253  0.1908
  422MOL0     C56839   5.329  10.693  11.594  0.2444  0.1340  0.2153
  422MOL0     C56840   5.263  10.819  11.593  0.0308  0.0639 -0.2977
  422MOL0     C56841   5.177  10.852  11.703 -0.2438  0.3264  0.3032
  422MOL0     C56842   5.165  10.768  11.811  0.2024  0.0834 -0.2710
  422MOL0     O56843   5.075  10.801  11.908  0.1565 -0.4733  0.9084
  422MOL0     C56844   5.101  10.761  12.041  0.2858  0.3347 -0.8725
  422MOL0     C56845   4.984  10.785  12.138  0.7483  1.1025 -1.0632
  422MOL0     C56846   4.857  10.701  12.098 -0.4559  0.0547 -0.5954
  422MOL0     C56847   4.882  10.550  12.134 -0.6290 -1.0813 -0.3566
  422MOL0     C56848   4.769  10.451  12.075  0.3939 -0.9217 -0.7554
  422MOL0     C56849   4.772  10.415  11.924  0.3054 -0.2417 -0.4814
  422MOL0     C56850   4.903  10.344  11.889  0.4745 -0.6789  0.8625
  422MOL0     C56851   4.923  10.337  11.741  0.0964 -0.3181  0.1050
  422MOL0     N56852   5.061  10.292  11.722 -0.2710  0.8318 -1.2851
  422MOL0     C56853   5.103  10.175  11.655 -0.6203 -0.7015 -0.6700
  422MOL0     C56854   5.235  10.169  11.678  0.0596 -0.3841  0.7655
  422MOL0     C56855   5.319  10.063  11.616 -0.3273  0.2405 -1.3833
  422MOL0     C56856   5.454  10.111  11.569  0.4114 -0.2265  0.3862
  422MOL0     C56857   5.514   9.985  11.505 -0.6022 -0.5698 -0.2891
  422MOL0     C56858   5.634  10.028  11.433 -0.1475  0.3722 -1.1309
  422MOL0     O56859   5.740  10.020  11.521 -0.8662 -0.6649  0.3144
  422MOL0     C56860   5.853  10.103  11.489 -0.0787 -0.3040  0.3488
  422MOL0     C56861   5.905  10.122  11.356  1.2894 -0.4094 -0.0932
  422MOL0     C56862   6.008  10.219  11.340 -0.4090 -0.5513 -0.0203
  422MOL0     C56863   6.054  10.301  11.445  0.5879 -0.1967  0.1983
  422MOL0     C56864   6.148  10.405  11.418  1.3971  0.5078 -0.4772
  422MOL0     O56865   6.191  10.417  11.289  0.6632 -0.3928  0.8515
  422MOL0     C56866   6.286  10.499  11.235 -0.3925  0.2473  0.0184
  422MOL0     C56867   6.319  10.479  11.100 -0.3792 -0.1738  0.7355
  422MOL0     C56868   6.414  10.561  11.028 -0.4935  0.5261 -1.2172
  422MOL0     C56869   6.486  10.653  11.104 -0.0412  0.0014 -0.4098
  422MOL0     O56870   6.592  10.733  11.054  0.2651 -0.0423 -0.7102
  422MOL0     C56871   6.594  10.767  10.914 -0.7186 -0.5192 -0.4770
  422MOL0     C56872   6.518  10.897  10.885 -0.1517  0.1542  0.5150
  422MOL0     C56873   6.571  10.971  10.752 -0.6875 -0.6867 -0.3879
  422MOL0     C56874   6.531  10.897  10.627  0.6737 -0.0244  0.1231
  422MOL0     C56875   6.529  10.993  10.507 -0.0941  0.0720 -0.1107
  422MOL0     C56876   6.459  10.928  10.385  0.1745  0.1706 -0.9155
  422MOL0     C56877   6.459  11.026  10.263  0.9120 -0.1442 -0.1584
  422MOL0     C56878   6.365  11.134  10.293  1.0124 -0.1151 -0.9057
  422MOL0    Cl56879   6.201  11.077  10.237  0.4313 -0.0290  1.0329
  422MOL0     C56880   6.465  10.665  11.238  0.6519 -0.0078 -0.2797
  422MOL0     C56881   6.380  10.583  11.304 -0.3198  0.0540 -0.4439
  422MOL0     O56882   6.180  10.471  11.513 -0.2968 -0.7538  0.0255
  422MOL0     C56883   5.989  10.291  11.570 -0.1585 -0.1249  0.7952
  422MOL0     C56884   5.883  10.201  11.584 -0.2515 -0.5071  0.2335
  422MOL0     N56885   5.287  10.273  11.757 -0.8471 -0.1542 -0.3852
  422MOL0     N56886   5.178  10.341  11.783 -0.2895  0.6886  0.8935
  422MOL0     C56887   5.234  10.644  11.809  0.2774  0.0014  0.1338
  422MOL0     C56888   5.319  10.614  11.703  0.3748  0.0873  0.0688
  422MOL0     C56889   5.404  10.509  11.297  0.1117  0.6389 -0.9995
  422MOL0     C56890   5.324  10.462  11.196 -0.1427  0.4849 -0.6090
  422MOL0     C56891   5.364  10.363  11.107  0.2675 -0.3349 -0.0604
  422MOL0     C56892   5.484  10.301  11.115 -0.0470 -0.1791  0.1898
  422MOL0     O56893   5.539  10.210  11.029  0.9200 -0.2913  0.2608
  422MOL0     C56894   5.629  10.261  10.930  0.8695  0.0125  1.0917
  422MOL0     C56895   5.752  10.172  10.924 -0.8327  0.0415 -0.7471
  422MOL0     C56896   5.736  10.025  10.930  0.2592  0.5755 -0.7226
  422MOL0     C56897   5.678   9.962  10.811  0.1083  1.0024 -0.8850
  422MOL0     C56898   5.773   9.957  10.707 -1.0724  0.7397  0.5265
  422MOL0     C56899   5.858   9.947  10.613  0.1822 -0.0172 -0.7617
  422MOL0     C56900   5.561  10.334  11.234  0.7086 -0.0191  0.0767
  422MOL0     C56901   5.520  10.437  11.330  0.2339  0.2836  0.8153
  422MOL0     C56902   5.610  10.465  11.449  0.4776 -0.4126  0.1297
  422MOL0     H56903   5.276  10.881  11.505  1.0021 -0.8805 -0.8317
  422MOL0     H56904   5.122  10.946  11.706  3.0806  2.4125  0.8531
  422MOL0     H56905   5.135  10.658  12.047  1.0262  0.5549 -1.2870
  422MOL0     H56906   5.178  10.830  12.075  0.5722 -0.1340 -0.5546
  422MOL0     H56907   4.954  10.890  12.148 -2.1675  0.3149 -0.4038
  422MOL0     H56908   5.002  10.756  12.242  0.6087 -0.0470 -1.3461
  422MOL0     H56909   4.844  10.715  11.990 -0.9124 -3.3823 -1.1029
  422MOL0     H56910   4.768  10.735  12.152  0.3216  1.0497  0.0919
  422MOL0     H56911   4.981  10.517  12.102  0.0403  1.1207 -0.7178
  422MOL0     H56912   4.886  10.542  12.243 -2.8080  0.2471 -0.1227
  422MOL0     H56913   4.782  10.356  12.127 -2.4961 -0.9114  0.2003
  422MOL0     H56914   4.676  10.493  12.115  1.5327 -1.2134  2.4095
  422MOL0     H56915   4.679  10.365  11.895 -0.8956  2.7448 -2.2720
  422MOL0     H56916   4.766  10.515  11.881 -0.3925  1.7208  3.6794
  422MOL0     H56917   4.906  10.238  11.916  0.9791 -0.6352  1.0006
  422MOL0     H56918   4.989  10.388  11.940  1.8474 -1.3894 -0.7348
  422MOL0     H56919   4.853  10.262  11.703 -0.7000  0.5537 -0.1969
  422MOL0     H56920   4.906  10.434  11.694  2.3745 -0.3695 -0.9698
  422MOL0     H56921   5.033  10.101  11.616 -0.6965 -1.0017  0.0096
  422MOL0     H56922   5.327   9.983  11.691 -2.1990  1.8268  0.6409
  422MOL0     H56923   5.264  10.019  11.532 -0.5270 -2.3249 -0.0233
  422MOL0     H56924   5.449  10.197  11.502  0.2279  1.2710  2.2590
  422MOL0     H56925   5.511  10.134  11.659 -0.7107 -1.6294  1.5062
  422MOL0     H56926   5.430   9.934  11.455 -1.5141  0.5037  0.1030
  422MOL0     H56927   5.545   9.910  11.578  1.8999  0.3119 -0.3755
  422MOL0     H56928   5.626  10.134  11.406 -0.9076  0.2273 -1.5258
  422MOL0     H56929   5.663   9.964  11.349  1.1570 -1.6669  0.7500
  422MOL0     H56930   5.874  10.074  11.264  2.6639  0.9445 -1.3269
  422MOL0     H56931   6.056  10.226  11.242  0.9050 -2.6623  0.3935
  422MOL0     H56932   6.280  10.400  11.037  3.2288 -2.0059  0.5293
  422MOL0     H56933   6.437  10.553  10.922  0.5298  2.5448 -1.1876
  422MOL0     H56934   6.696  10.793  10.881 -1.9000  1.8327 -2.6348
  422MOL0     H56935   6.564  10.690  10.843  2.0184 -2.0226 -0.1570
  422MOL0     H56936   6.411  10.874  10.873  0.0685  0.7392 -4.6048
  422MOL0     H56937   6.525  10.963  10.972 -5.7677  0.5360  1.0258
  422MOL0     H56938   6.551  11.079  10.750 -1.2328 -0.7854 -0.6037
  422MOL0     H56939   6.677  10.992  10.764 -1.1404  0.6196  2.1663
  422MOL0     H56940   6.426  10.864  10.631  0.1014  1.6188 -0.4077
  422MOL0     H56941   6.592  10.810  10.602 -0.6228  0.1630 -4.7268
  422MOL0     H56942   6.629  11.021  10.471 -0.6328  2.4233  0.0406
  422MOL0     H56943   6.484  11.085  10.545  0.9205  0.1896  0.8601
  422MOL0     H56944   6.527  10.852  10.344 -0.8813 -2.1208  1.2921
  422MOL0     H56945   6.363  10.888  10.417 -1.0908  2.4298 -1.6902
  422MOL0     H56946   6.424  10.982  10.169 -2.1232  0.6243  0.4867
  422MOL0     H56947   6.558  11.071  10.255 -0.0593  1.6972 -4.0333
  422MOL0     H56948   6.377  11.174  10.394  1.0100 -0.2304 -0.8591
  422MOL0     H56949   6.379  11.217  10.223  3.2320 -0.5349 -1.0212
  422MOL0     H56950   6.524  10.741  11.288  0.9612 -2.0585  2.6870
  422MOL0     H56951   6.364  10.596  11.410  0.7081 -2.0289  0.0177
  422MOL0     H56952   6.011  10.358  11.653  0.2388  0.3446  0.3109
  422MOL0     H56953   5.823  10.212  11.674  0.9820  5.2177  0.6987
  422MOL0     H56954   5.223  10.570  11.888  3.5200  0.9665  1.6720
  422MOL0     H56955   5.368  10.518  11.699 -1.7209 -1.0890  0.7486
  422MOL0     H56956   5.238  10.525  11.178  1.3643  2.8717  0.0836
  422MOL0     H56957   5.299  10.353  11.020  0.1416  0.7060 -0.0965
  422MOL0     H56958   5.659  10.365  10.938  0.7778  0.2751 -1.2381
  422MOL0     H56959   5.573  10.252  10.836  0.2398 -0.1436  1.4750
  422MOL0     H56960   5.818  10.199  11.007  0.2748 -3.1742 -0.4430
  422MOL0     H56961   5.810  10.212  10.840  2.9678 -1.0394  1.1606
  422MOL0     H56962   5.677  10.003  11.020  2.0987 -0.3438  0.3016
  422MOL0     H56963   5.830   9.974  10.954 -1.4210 -1.8932  1.1993
  422MOL0     H56964   5.642   9.862  10.833 -0.0531  1.1315 -0.5512
  422MOL0     H56965   5.586  10.010  10.776 -1.7178 -2.8813 -1.9056
  422MOL0     H56966   5.936   9.944  10.539  0.7815 -1.9588 -0.0911
  422MOL0     H56967   5.653  10.277  11.243  1.3504  1.1637  1.6648
  422MOL0     H56968   5.700  10.403  11.448  0.4127 -0.5428 -1.4170
  422MOL0     H56969   5.633  10.572  11.447 -0.4764 -0.0935 -4.1466
  422MOL0     H56970   5.552  10.436  11.537 -0.9088 -0.0925 -0.6527
  423MOL0     O56971   3.304   0.302   4.100 -0.1407 -0.0960 -1.3617
  423MOL0     C56972   3.370   0.341   4.198  0.0148  0.1009  0.5114
  423MOL0     O56973   3.449   0.453   4.198 -0.2653 -0.2016  0.6574
  423MOL0     C56974   3.412   0.553   4.103 -0.0744 -1.0565 -0.7587
  423MOL0     C56975   3.277   0.593   4.062 -0.7760  0.8658  0.4426
  423MOL0     C56976   3.252   0.727   4.005 -0.2193  0.4164  0.1976
  423MOL0     C56977   3.360   0.808   3.980  0.3512 -0.8046  0.2587
  423MOL0     O56978   3.345   0.929   3.927  0.2558 -0.2599 -0.4441
  423MOL0     C56979   3.283   1.027   4.009 -0.1408 -0.3348  0.7219
  423MOL0     C56980   3.351   1.161   4.015 -0.1808 -0.9435 -0.0798
  423MOL0     C56981   3.362   1.222   3.870  0.0219  0.2398 -0.4764
  423MOL0     C56982   3.442   1.361   3.860 -0.3809 -0.0792  0.0699
  423MOL0     C56983   3.597   1.363   3.834  0.5006  0.3165  0.1204
  423MOL0     C56984   3.675   1.266   3.924 -0.5223  0.1992  0.3516
  423MOL0     C56985   3.823   1.246   3.865 -0.5303 -0.0308 -0.5208
  423MOL0     C56986   3.908   1.378   3.868  0.0752 -0.6367 -0.5688
  423MOL0     N56987   3.928   1.439   4.002  0.5832  0.1102 -0.1643
  423MOL0     C56988   4.004   1.390   4.102  0.8880  0.8175 -0.2189
  423MOL0     C56989   3.972   1.470   4.210 -0.0520  0.6297  0.3713
  423MOL0     C56990   4.050   1.481   4.342  0.7618  0.3261  0.3519
  423MOL0     C56991   4.186   1.564   4.347  0.4452  0.0354  0.1377
  423MOL0     C56992   4.175   1.700   4.278 -0.3471 -0.2602 -0.9509
  423MOL0     C56993   4.087   1.794   4.352  0.1273  0.0873  1.0753
  423MOL0     O56994   4.107   1.929   4.312  0.1859  0.3063  0.2428
  423MOL0     C56995   4.035   2.042   4.356 -0.1119  0.5724 -0.1365
  423MOL0     C56996   3.951   2.024   4.465  0.1281 -0.8772  0.2201
  423MOL0     C56997   3.873   2.133   4.503 -0.3250 -0.3336  0.2389
  423MOL0     C56998   3.904   2.263   4.456  0.1386 -0.0800  0.4983
  423MOL0     C56999   3.824   2.380   4.491 -0.1589 -0.1124 -0.0564
  423MOL0     O57000   3.726   2.350   4.581  0.0319  0.0562  0.1374
  423MOL0     C57001   3.620   2.438   4.591  1.3583 -0.2305 -0.3190
  423MOL0     C57002   3.606   2.574   4.566  0.1076 -0.4787 -0.0152
  423MOL0     C57003   3.480   2.632   4.580  0.4967 -0.4546 -0.4632
  423MOL0     C57004   3.375   2.569   4.636  0.2635  0.7082 -0.2316
  423MOL0     O57005   3.251   2.622   4.672  0.5886  0.4708  0.1073
  423MOL0     C57006   3.171   2.715   4.588 -0.7670 -0.2898 -0.4179
  423MOL0     C57007   3.054   2.643   4.522  0.7412 -0.8383  0.4352
  423MOL0     C57008   2.948   2.587   4.611  0.4915  0.7375 -1.2139
  423MOL0     C57009   2.854   2.688   4.686 -0.8630  0.6624 -0.1090
  423MOL0     C57010   2.736   2.620   4.751 -0.6814  0.1333 -0.9542
  423MOL0     C57011   2.649   2.721   4.820 -0.2354  0.0907  0.5612
  423MOL0     C57012   2.561   2.656   4.914  0.5426  0.2924  0.0823
  423MOL0     C57013   2.464   2.757   4.983 -0.3620 -0.0071 -0.1775
  423MOL0    Cl57014   2.372   2.687   5.120  0.2190 -0.4525 -0.3386
  423MOL0     C57015   3.396   2.432   4.667  0.4714  0.0668  0.4175
  423MOL0     C57016   3.512   2.370   4.643  1.3131  0.6841  0.3895
  423MOL0     O57017   3.842   2.496   4.441  0.1351  0.8838  0.2624
  423MOL0     C57018   3.999   2.277   4.343 -0.5452  0.5805 -0.5375
  423MOL0     C57019   4.059   2.159   4.293 -0.0448  0.3328 -0.1249
  423MOL0     N57020   3.868   1.545   4.176 -0.1086  0.4741 -0.3801
  423MOL0     N57021   3.840   1.530   4.053 -0.5590 -0.4348  0.0796
  423MOL0     C57022   3.486   0.764   3.994 -0.6738  0.3835  0.2979
  423MOL0     C57023   3.514   0.638   4.065  0.0424 -0.3823 -0.3790
  423MOL0     C57024   3.374   0.255   4.322 -1.2800 -0.8873  0.7419
  423MOL0     C57025   3.489   0.282   4.408  0.0028  0.1802  0.2334
  423MOL0     C57026   3.515   0.194   4.520 -1.0520 -0.3432  0.0117
  423MOL0     C57027   3.422   0.090   4.540  0.2062  0.3995  0.2343
  423MOL0     O57028   3.434  -0.003   4.642 -0.6499 -0.3598 -0.4197
  423MOL0     C57029   3.566  -0.035   4.686 -0.3484  1.0191  0.2230
  423MOL0     C57030   3.564  -0.178   4.748  0.7701  0.1630  0.7142
  423MOL0     C57031   3.478  -0.182   4.879 -0.4461 -0.2420  0.2749
  423MOL0     C57032   3.477  -0.322   4.941  0.7118 -0.2806 -0.3834
  423MOL0     C57033   3.385  -0.319   5.056  0.4497 -0.2787  0.3665
  423MOL0     C57034   3.295  -0.311   5.141  0.6376  0.3398 -0.5717
  423MOL0     C57035   3.321   0.068   4.462  0.4139  0.4402 -0.1895
  423MOL0     C57036   3.281   0.152   4.355 -0.2412  0.6253 -0.9579
  423MOL0     C57037   3.155   0.124   4.289  0.0983 -0.4630  0.3603
  423MOL0     H57038   3.194   0.535   4.099 -1.7811  0.8437 -1.6902
  423MOL0     H57039   3.153   0.754   3.971 -0.4357  0.0146  0.4977
  423MOL0     H57040   3.184   1.046   3.966  0.1049  0.1102  0.3363
  423MOL0     H57041   3.268   0.983   4.108 -1.8704 -1.0248  0.1890
  423MOL0     H57042   3.446   1.150   4.068 -0.5972 -0.4613  0.7770
  423MOL0     H57043   3.286   1.225   4.075 -3.2298 -3.5736 -0.3297
  423MOL0     H57044   3.257   1.245   3.851 -0.2487  0.7320  1.3839
  423MOL0     H57045   3.401   1.152   3.797  2.4438  1.0631 -0.0947
  423MOL0     H57046   3.400   1.419   3.777  1.3534 -0.1197 -0.8797
  423MOL0     H57047   3.429   1.411   3.956  1.0897 -0.3040  0.4021
  423MOL0     H57048   3.612   1.340   3.728 -0.5916 -2.1397  0.4169
  423MOL0     H57049   3.637   1.464   3.834 -1.5413  1.2194 -1.9346
  423MOL0     H57050   3.669   1.316   4.021  0.5932  0.9601  0.0591
  423MOL0     H57051   3.628   1.168   3.917  0.5541 -0.2217 -3.7166
  423MOL0     H57052   3.835   1.202   3.766 -0.0493  0.3208 -0.6237
  423MOL0     H57053   3.872   1.169   3.925  0.9706  0.9984 -0.3585
  423MOL0     H57054   4.004   1.363   3.817  0.0513 -1.0347 -0.5024
  423MOL0     H57055   3.850   1.447   3.806 -0.2256  1.8760  2.2839
  423MOL0     H57056   4.092   1.329   4.086  0.4508  0.6944 -2.3641
  423MOL0     H57057   3.984   1.528   4.415 -1.4363  2.0500 -2.5285
  423MOL0     H57058   4.084   1.381   4.370  3.2766  1.1436  0.4662
  423MOL0     H57059   4.218   1.572   4.452  0.0009  1.3329  0.1831
  423MOL0     H57060   4.266   1.503   4.303  0.9592  1.2683 -0.6801
  423MOL0     H57061   4.160   1.676   4.172 -1.9237 -1.2952 -0.5285
  423MOL0     H57062   4.274   1.746   4.278  1.3817 -3.6145 -0.9099
  423MOL0     H57063   4.113   1.790   4.458  0.3287  0.4934  1.0461
  423MOL0     H57064   3.982   1.764   4.344  0.2546 -0.0665 -0.1735
  423MOL0     H57065   3.930   1.931   4.517 -0.1542 -0.5320  0.7333
  423MOL0     H57066   3.798   2.115   4.579  1.0547  0.5356  1.8861
  423MOL0     H57067   3.690   2.635   4.533  1.0320 -1.4788  0.4283
  423MOL0     H57068   3.462   2.734   4.549  1.8210  0.7027  2.2062
  423MOL0     H57069   3.128   2.800   4.643 -0.2656 -0.0328 -0.4183
  423MOL0     H57070   3.238   2.752   4.510  0.7881  1.2903  1.5552
  423MOL0     H57071   3.014   2.728   4.465  0.9589 -2.0586 -1.6709
  423MOL0     H57072   3.097   2.571   4.451  1.7669 -0.0780  0.2592
  423MOL0     H57073   2.876   2.534   4.548 -1.1784  2.8130 -1.1860
  423MOL0     H57074   2.996   2.513   4.675  0.0100  1.4000 -0.0398
  423MOL0     H57075   2.817   2.763   4.615  3.4516  1.6023 -1.6912
  423MOL0     H57076   2.915   2.747   4.754  0.0486  1.6153 -1.6713
  423MOL0     H57077   2.776   2.560   4.833 -1.0290 -0.5491 -1.2729
  423MOL0     H57078   2.681   2.548   4.690 -3.2613  2.4722 -1.6190
  423MOL0     H57079   2.695   2.792   4.889  0.2206 -2.8377  3.4913
  423MOL0     H57080   2.592   2.772   4.742  2.9444  0.9717 -1.4191
  423MOL0     H57081   2.626   2.598   4.981  2.6417  1.8676 -0.4556
  423MOL0     H57082   2.507   2.575   4.865  3.2999 -0.7389 -1.5236
  423MOL0     H57083   2.524   2.844   5.011 -1.5326  0.6274  0.4399
  423MOL0     H57084   2.392   2.785   4.906 -0.5769  3.2924  1.0756
  423MOL0     H57085   3.323   2.383   4.730 -3.0718  1.5976 -2.1687
  423MOL0     H57086   3.529   2.268   4.676  0.5439  0.7571  1.0313
  423MOL0     H57087   4.005   2.379   4.306 -4.9789  1.6663  0.9899
  423MOL0     H57088   4.115   2.167   4.200  2.4681  0.7245  1.3440
  423MOL0     H57089   3.569   0.831   3.973  0.3686 -1.0045 -0.2186
  423MOL0     H57090   3.609   0.634   4.118 -0.7352  4.7024  2.0381
  423MOL0     H57091   3.554   0.366   4.385  2.1946 -1.4413  0.1220
  423MOL0     H57092   3.598   0.214   4.587 -0.5769  0.8283 -0.8832
  423MOL0     H57093   3.614   0.037   4.753  2.4372 -0.9890  0.5641
  423MOL0     H57094   3.626  -0.037   4.594 -1.0352 -2.0006 -0.2470
  423MOL0     H57095   3.666  -0.211   4.768  1.9902  0.7246 -3.4806
  423MOL0     H57096   3.512  -0.253   4.689 -1.0644 -1.0053  3.5992
  423MOL0     H57097   3.373  -0.168   4.849  0.2118 -0.1611 -2.2083
  423MOL0     H57098   3.509  -0.100   4.945  0.1034  0.9021 -1.3333
  423MOL0     H57099   3.449  -0.392   4.862 -1.6602  0.3733 -0.2207
  423MOL0     H57100   3.576  -0.352   4.974  0.2437 -2.8321 -1.0835
  423MOL0     H57101   3.214  -0.328   5.209  0.4591  0.7264 -0.6879
  423MOL0     H57102   3.266  -0.022   4.487  1.1179  0.5044  1.7053
  423MOL0     H57103   3.170   0.086   4.188  0.7250  2.1371 -0.5796
  423MOL0     H57104   3.090   0.053   4.342 -1.5266  0.0616 -0.8463
  423MOL0     H57105   3.103   0.219   4.274  0.0218 -0.6066 -0.3240
  424MOL0     O57106   9.426   2.065   0.029  0.2317  0.2229  0.1449
  424MOL0     C57107   9.331   2.116   0.082 -1.8317  0.8998  0.2422
  424MOL0     O57108   9.243   2.191   0.016  0.2712  0.8083  1.2444
  424MOL0     C57109   9.265   2.222  -0.111  0.5307 -0.8419  0.7263
  424MOL0     C57110   9.288   2.348  -0.157  0.3373 -0.2773  0.2184
  424MOL0     C57111   9.293   2.377  -0.291 -0.2991  0.7328  0.5987
  424MOL0     C57112   9.286   2.277  -0.387  0.1618  0.3183 -0.2732
  424MOL0     O57113   9.300   2.325  -0.517 -0.9187 -0.0337 -0.0150
  424MOL0     C57114   9.255   2.246  -0.627  0.6847 -0.3979 -0.3226
  424MOL0     C57115   9.243   2.342  -0.748  0.6519  0.3740  0.6092
  424MOL0     C57116   9.183   2.273  -0.871  0.8537  0.4124  0.1409
  424MOL0     C57117   9.174   2.371  -0.990  0.5124 -0.2269  1.2596
  424MOL0     C57118   9.073   2.295  -1.088 -0.0507 -0.1676 -0.3716
  424MOL0     C57119   9.047   2.377  -1.212 -0.1118  0.2915 -0.2682
  424MOL0     C57120   8.966   2.308  -1.321  0.7789 -0.1621  0.4343
  424MOL0     C57121   8.821   2.271  -1.287  0.5777  1.0740 -0.7180
  424MOL0     N57122   8.743   2.388  -1.324  1.2479 -0.0478  0.0030
  424MOL0     C57123   8.670   2.410  -1.440 -0.4546 -0.0208 -0.2341
  424MOL0     C57124   8.594   2.520  -1.415  0.8714 -0.0550 -0.7470
  424MOL0     C57125   8.497   2.581  -1.505 -0.0151 -0.6335 -1.3846
  424MOL0     C57126   8.407   2.480  -1.574  0.5941  0.1838  0.1643
  424MOL0     C57127   8.281   2.540  -1.648 -0.4865 -0.9721 -0.2767
  424MOL0     C57128   8.150   2.538  -1.567 -0.5017 -0.1227  0.5191
  424MOL0     O57129   8.153   2.631  -1.462 -0.3111  0.1830  0.4857
  424MOL0     C57130   8.084   2.577  -1.353 -1.1953  0.2591 -0.5600
  424MOL0     C57131   8.153   2.495  -1.257  0.3628 -0.7748 -1.6840
  424MOL0     C57132   8.089   2.462  -1.139  0.0357  0.6493  0.5055
  424MOL0     C57133   7.948   2.480  -1.129 -0.3347  0.2972  0.2535
  424MOL0     C57134   7.880   2.425  -1.005  0.1811  0.1431  0.3219
  424MOL0     O57135   7.737   2.427  -0.996  0.1966  0.3169  0.4852
  424MOL0     C57136   7.695   2.385  -0.872  0.4702  0.0352  0.3383
  424MOL0     C57137   7.642   2.256  -0.860  0.0158  0.7373 -0.0191
  424MOL0     C57138   7.600   2.215  -0.735  0.9208  0.1254  1.0825
  424MOL0     C57139   7.605   2.300  -0.627 -0.0096 -0.4149  0.0796
  424MOL0     O57140   7.576   2.273  -0.496  0.6719 -0.2499  0.1364
  424MOL0     C57141   7.598   2.132  -0.474 -0.3171 -0.6215  0.2118
  424MOL0     C57142   7.615   2.119  -0.325  0.1143 -0.0460 -0.3638
  424MOL0     C57143   7.744   2.045  -0.303 -0.2380 -0.8624 -0.1553
  424MOL0     C57144   7.743   1.976  -0.158  0.5393 -1.4069 -0.4536
  424MOL0     C57145   7.873   1.889  -0.130  0.5419  1.4892 -0.4236
  424MOL0     C57146   7.901   1.810  -0.005  0.5151 -0.5189  0.2656
  424MOL0     C57147   8.020   1.720  -0.020 -0.0958 -0.1473 -0.3915
  424MOL0     C57148   8.162   1.776   0.007 -0.6072 -0.3963 -0.5284
  424MOL0    Cl57149   8.179   1.820   0.177 -0.1316 -0.0511  0.2969
  424MOL0     C57150   7.675   2.423  -0.643 -0.9295  0.3935  1.5388
  424MOL0     C57151   7.722   2.462  -0.766  0.2604  0.2440  0.4173
  424MOL0     O57152   7.956   2.374  -0.926  0.5927 -0.1538 -0.3931
  424MOL0     C57153   7.884   2.548  -1.231 -0.4997 -0.8025 -0.4878
  424MOL0     C57154   7.955   2.605  -1.336  0.0404 -1.1427 -0.4067
  424MOL0     N57155   8.625   2.567  -1.299 -0.5627  0.4335  0.2518
  424MOL0     N57156   8.710   2.488  -1.238 -0.1827  0.5368 -0.6780
  424MOL0     C57157   9.247   2.147  -0.338  0.1468  0.4454 -0.3635
  424MOL0     C57158   9.241   2.119  -0.205  0.1414 -0.1279 -1.0411
  424MOL0     C57159   9.311   2.110   0.229 -0.7152 -0.4663 -0.2149
  424MOL0     C57160   9.184   2.109   0.280  0.2056  0.4775  0.4141
  424MOL0     C57161   9.158   2.102   0.419 -0.3795 -0.7569 -0.8793
  424MOL0     C57162   9.262   2.085   0.511  0.3743 -0.3001 -1.1337
  424MOL0     O57163   9.240   2.064   0.647  0.2917 -0.0623 -0.2425
  424MOL0     C57164   9.116   2.072   0.705 -0.2279  0.1810  0.6423
  424MOL0     C57165   9.059   1.938   0.728  0.3496  0.1927  0.5456
  424MOL0     C57166   9.168   1.827   0.774 -0.8697 -1.2795 -0.0185
  424MOL0     C57167   9.107   1.686   0.772 -0.1854  1.1604  0.2126
  424MOL0     C57168   8.986   1.673   0.856  0.1812  0.5695  0.7422
  424MOL0     C57169   8.883   1.658   0.913 -0.4675  0.3165 -0.7093
  424MOL0     C57170   9.395   2.092   0.459  0.7169 -0.7511 -1.0161
  424MOL0     C57171   9.427   2.096   0.322  0.1172 -0.9852  0.2296
  424MOL0     C57172   9.572   2.110   0.283  0.8645 -0.5775 -0.4608
  424MOL0     H57173   9.302   2.425  -0.082 -1.4782  1.6874 -1.3466
  424MOL0     H57174   9.324   2.478  -0.312 -0.9540  1.3470  2.4129
  424MOL0     H57175   9.327   2.167  -0.649  0.9511  0.2680 -2.0237
  424MOL0     H57176   9.151   2.216  -0.608  1.8908 -3.0276  3.0013
  424MOL0     H57177   9.341   2.380  -0.780  0.4519 -0.8850 -1.7104
  424MOL0     H57178   9.187   2.433  -0.723  1.7495  1.9603 -2.2055
  424MOL0     H57179   9.084   2.241  -0.840  0.5055  0.9980 -0.3491
  424MOL0     H57180   9.229   2.178  -0.900 -3.1229 -1.4358 -0.6331
  424MOL0     H57181   9.128   2.467  -0.962  1.0958  0.0167  1.4056
  424MOL0     H57182   9.267   2.400  -1.040  0.9513 -2.3761  0.7386
  424MOL0     H57183   9.133   2.210  -1.122  0.6552 -1.3803  3.4835
  424MOL0     H57184   8.982   2.258  -1.042  0.7974  0.5375  1.9980
  424MOL0     H57185   8.984   2.461  -1.181 -2.7737 -2.2846  1.8548
  424MOL0     H57186   9.150   2.399  -1.242  0.4406  0.3774  1.5396
  424MOL0     H57187   9.025   2.222  -1.355  1.8144  1.8619 -3.5454
  424MOL0     H57188   8.956   2.366  -1.413  1.2083 -3.4876 -1.8933
  424MOL0     H57189   8.795   2.176  -1.335  1.3279 -0.2924  1.4427
  424MOL0     H57190   8.805   2.251  -1.181 -2.2259  3.0520 -0.6781
  424MOL0     H57191   8.673   2.344  -1.526 -1.2029  0.7732 -0.8934
  424MOL0     H57192   8.430   2.650  -1.454 -0.8498 -2.2309 -0.2401
  424MOL0     H57193   8.552   2.626  -1.589 -1.1742 -0.5884 -2.1337
  424MOL0     H57194   8.473   2.427  -1.643  2.4000 -1.4223  2.9563
  424MOL0     H57195   8.373   2.407  -1.500  0.6936  0.6343  0.6582
  424MOL0     H57196   8.267   2.476  -1.736  0.0566 -1.6078  0.0953
  424MOL0     H57197   8.300   2.639  -1.689  1.2483 -0.7724  0.8798
  424MOL0     H57198   8.133   2.434  -1.540 -0.6601 -0.3023 -0.2543
  424MOL0     H57199   8.068   2.561  -1.636 -0.5907 -1.3195  0.2054
  424MOL0     H57200   8.260   2.477  -1.270  0.2366 -1.8442 -1.3207
  424MOL0     H57201   8.147   2.420  -1.058 -0.2357 -0.3399  0.1910
  424MOL0     H57202   7.638   2.199  -0.952 -0.4178  4.9698 -2.8847
  424MOL0     H57203   7.558   2.117  -0.718 -0.2633 -0.1971 -2.6394
  424MOL0     H57204   7.510   2.074  -0.504 -1.8217  2.4120 -1.7010
  424MOL0     H57205   7.688   2.100  -0.527  0.4590  0.1834  0.9970
  424MOL0     H57206   7.611   2.218  -0.279  2.9251  1.2437 -2.5716
  424MOL0     H57207   7.530   2.057  -0.295 -0.6553  2.4367  3.1774
  424MOL0     H57208   7.757   1.962  -0.372 -1.7016 -0.9751 -0.3087
  424MOL0     H57209   7.824   2.117  -0.324 -2.1129  1.2258 -0.4846
  424MOL0     H57210   7.656   1.911  -0.149  2.4828 -3.8981  2.0875
  424MOL0     H57211   7.748   2.048  -0.076  1.4582 -1.6294 -0.2994
  424MOL0     H57212   7.952   1.964  -0.140  0.0757  1.9208 -0.9318
  424MOL0     H57213   7.885   1.823  -0.216  0.5167  3.4225 -1.9914
  424MOL0     H57214   7.906   1.876   0.082  3.0495  0.6212 -0.6751
  424MOL0     H57215   7.815   1.744   0.011  0.8092 -0.7887  0.7623
  424MOL0     H57216   8.033   1.679  -0.121  2.3195  2.1102 -1.0863
  424MOL0     H57217   7.999   1.637   0.049  2.7670 -1.0428 -0.4979
  424MOL0     H57218   8.252   1.723  -0.024  0.8476  2.1176 -0.8906
  424MOL0     H57219   8.165   1.870  -0.050  0.4296 -0.2020 -0.1605
  424MOL0     H57220   7.694   2.476  -0.551 -0.6613  1.9249  0.6269
  424MOL0     H57221   7.773   2.557  -0.770  3.2499 -1.2702  0.4087
  424MOL0     H57222   7.780   2.575  -1.216  0.0767  0.4739  1.6327
  424MOL0     H57223   7.923   2.672  -1.415  0.0855  0.0794  0.5918
  424MOL0     H57224   9.253   2.064  -0.407  0.3060 -0.1462  0.3507
  424MOL0     H57225   9.223   2.018  -0.171  3.3102 -0.7068 -0.8678
  424MOL0     H57226   9.096   2.111   0.217  0.8569 -1.3940 -0.6220
  424MOL0     H57227   9.058   2.080   0.456 -0.3821 -2.0470 -1.5950
  424MOL0     H57228   9.045   2.136   0.650 -0.3236  1.8039  2.5340
  424MOL0     H57229   9.119   2.116   0.805 -0.5751  0.9682  0.3165
  424MOL0     H57230   9.022   1.911   0.628  1.7286 -0.0564  0.0727
  424MOL0     H57231   8.981   1.920   0.802 -0.1415 -3.0832 -0.6100
  424MOL0     H57232   9.207   1.857   0.872 -2.5508 -2.8419  1.2169
  424MOL0     H57233   9.253   1.822   0.706  0.2051 -0.8239  1.2551
  424MOL0     H57234   9.086   1.664   0.667 -1.8644  2.1304  0.3057
  424MOL0     H57235   9.190   1.623   0.806 -0.1658  2.1752  2.1433
  424MOL0     H57236   8.785   1.636   0.948 -0.4654  1.6085  0.1763
  424MOL0     H57237   9.471   2.106   0.534 -1.1184 -1.6857  1.1507
  424MOL0     H57238   9.608   2.007   0.277  1.4697 -0.3141 -1.8710
  424MOL0     H57239   9.592   2.157   0.186  2.6267  2.6128  1.2680
  424MOL0     H57240   9.623   2.166   0.362 -0.1442  0.9109 -0.8388
  425MOL0     O57241  11.150   9.510   0.404  0.6162  0.6006  0.0400
  425MOL0     C57242  11.039   9.523   0.456  0.0888  0.3829  0.2643
  425MOL0     O57243  11.012   9.506   0.585 -0.7037 -0.4503 -0.7786
  425MOL0     C57244  11.108   9.480   0.680 -0.5657  0.2718  0.3923
  425MOL0     C57245  11.103   9.376   0.775 -0.4719  0.2014  0.4209
  425MOL0     C57246  11.190   9.378   0.885 -0.6962  0.6175  0.2598
  425MOL0     C57247  11.291   9.472   0.904  0.0585 -0.2781 -0.5428
  425MOL0     O57248  11.357   9.476   1.027 -0.0255 -0.2548 -0.1546
  425MOL0     C57249  11.409   9.601   1.076 -0.1587  0.2948  0.7465
  425MOL0     C57250  11.482   9.592   1.205  0.3206 -0.8980  0.9441
  425MOL0     C57251  11.629   9.592   1.179 -0.4601 -0.3922 -0.2567
  425MOL0     C57252  11.697   9.578   1.318  0.0382  0.0418 -0.8942
  425MOL0     C57253  11.845   9.575   1.319 -0.3030 -0.0727 -0.3214
  425MOL0     C57254  11.910   9.711   1.282  0.5903 -0.3860  0.1595
  425MOL0     C57255  11.959   9.702   1.135 -1.0051  0.0467 -0.2153
  425MOL0     C57256  11.999   9.844   1.083 -0.7378 -0.0982  0.3128
  425MOL0     N57257  11.942   9.856   0.949  0.2481 -0.1425  0.3890
  425MOL0     C57258  11.817   9.881   0.908  0.2743  0.2688  0.2099
  425MOL0     C57259  11.816   9.919   0.780  0.1338  0.1404  0.4204
  425MOL0     C57260  11.706   9.974   0.689  0.4783  0.2027 -0.0349
  425MOL0     C57261  11.756  10.088   0.599  0.1766  1.1575  0.2534
  425MOL0     C57262  11.638  10.156   0.530 -0.4772 -0.0214 -0.0234
  425MOL0     C57263  11.681  10.227   0.398  0.2945 -0.0209 -0.8040
  425MOL0     O57264  11.765  10.344   0.417 -0.5314 -0.1877 -0.5820
  425MOL0     C57265  11.712  10.462   0.475 -0.5598  0.2379 -0.9645
  425MOL0     C57266  11.576  10.487   0.484  0.1373 -0.5728 -0.3690
  425MOL0     C57267  11.540  10.596   0.564  0.0774 -0.2821 -0.1711
  425MOL0     C57268  11.630  10.685   0.628 -0.5192 -0.2929  1.1191
  425MOL0     C57269  11.585  10.794   0.705 -0.2098 -0.0757  0.6495
  425MOL0     O57270  11.646  10.912   0.680 -0.0109 -0.2845  0.8931
  425MOL0     C57271  11.616  11.033   0.727 -0.5676 -0.2738 -0.6117
  425MOL0     C57272  11.534  11.054   0.840 -0.7779 -0.0102  0.0601
  425MOL0     C57273  11.514  11.175   0.903 -0.3138 -0.3144  0.0477
  425MOL0     C57274  11.571  11.284   0.848 -0.8041 -0.4324  0.3618
  425MOL0     O57275  11.560  11.396   0.926  0.0222  0.1611 -0.0089
  425MOL0     C57276  11.639  11.504   0.875  0.7292 -0.1035 -0.1160
  425MOL0     C57277  11.632  11.627   0.961 -0.6406  0.3221 -0.1316
  425MOL0     C57278  11.751  11.722   0.954  0.4517 -0.6132  0.1236
  425MOL0     C57279  11.812  11.742   0.811  0.0117  0.0281 -0.5893
  425MOL0     C57280  11.933  11.836   0.811  0.3902 -0.9933 -0.2556
  425MOL0     C57281  11.986  11.859   0.672  0.5063  0.5287 -0.1126
  425MOL0     C57282  11.905  11.952   0.587  0.3585  0.3237  0.9573
  425MOL0     C57283  11.971  12.037   0.472  0.2453 -0.9681  0.5555
  425MOL0    Cl57284  12.006  11.933   0.314  0.2757 -0.2244  0.7799
  425MOL0     C57285  11.658  11.267   0.735  0.4499  0.5045 -0.2390
  425MOL0     C57286  11.675  11.141   0.671 -0.6805 -0.1312 -0.0913
  425MOL0     O57287  11.491  10.769   0.777  0.1448 -0.1175  0.3513
  425MOL0     C57288  11.761  10.675   0.595 -0.1369  0.7349  0.6981
  425MOL0     C57289  11.803  10.555   0.521  0.3416  0.0891 -0.8405
  425MOL0     N57290  11.946   9.888   0.738 -0.1970  0.2375 -0.0599
  425MOL0     N57291  12.020   9.860   0.836 -0.4770 -0.3747 -0.2460
  425MOL0     C57292  11.304   9.564   0.803 -0.0055  0.1117 -0.2641
  425MOL0     C57293  11.226   9.558   0.687  0.2169 -0.4463  0.1384
  425MOL0     C57294  10.923   9.553   0.364  0.3558  0.5011  0.6755
  425MOL0     C57295  10.795   9.502   0.402  0.3332 -0.1536 -0.2805
  425MOL0     C57296  10.679   9.547   0.348  0.4845  0.0399  0.1405
  425MOL0     C57297  10.671   9.637   0.236  0.1534  0.3616 -0.5894
  425MOL0     O57298  10.561   9.676   0.163 -0.6744 -0.1655 -0.1493
  425MOL0     C57299  10.447   9.582   0.165 -0.3567  0.4704 -0.4013
  425MOL0     C57300  10.339   9.621   0.072 -0.1364 -1.4069  0.6095
  425MOL0     C57301  10.388   9.630  -0.075  0.3659  0.2159  0.4123
  425MOL0     C57302  10.434   9.498  -0.142 -0.4777  0.0200  0.3880
  425MOL0     C57303  10.357   9.377  -0.122  0.7098 -0.0689 -0.5876
  425MOL0     C57304  10.300   9.276  -0.081 -0.3608 -0.3242  1.2014
  425MOL0     C57305  10.797   9.683   0.194  0.2006 -0.4374  0.6665
  425MOL0     C57306  10.914   9.655   0.268 -0.8358 -0.3679  0.1550
  425MOL0     C57307  11.050   9.721   0.234 -0.4000 -0.3125 -0.3185
  425MOL0     H57308  11.022   9.304   0.770  0.9046 -1.3584 -0.7144
  425MOL0     H57309  11.185   9.299   0.959  2.6052 -0.1131 -0.1285
  425MOL0     H57310  11.475   9.637   0.997  0.1535 -1.4153  0.1900
  425MOL0     H57311  11.317   9.661   1.082 -0.5500 -0.2473  0.2636
  425MOL0     H57312  11.446   9.495   1.242 -0.6582 -2.5812 -3.7171
  425MOL0     H57313  11.463   9.678   1.271  0.6912  0.5620 -0.7919
  425MOL0     H57314  11.655   9.688   1.134 -2.1506  0.1505 -0.1561
  425MOL0     H57315  11.655   9.510   1.110  2.9845  0.8776 -0.6467
  425MOL0     H57316  11.654   9.648   1.390 -1.4940 -1.0862 -0.6453
  425MOL0     H57317  11.666   9.482   1.360 -0.8853  0.7562  0.1131
  425MOL0     H57318  11.875   9.556   1.423  3.1824  2.5609 -0.6539
  425MOL0     H57319  11.880   9.503   1.245 -0.7847  0.0662 -0.6909
  425MOL0     H57320  11.841   9.795   1.298 -0.1319 -1.2557  1.8814
  425MOL0     H57321  11.996   9.720   1.349 -1.1513  2.7288  2.2413
  425MOL0     H57322  11.871   9.665   1.082 -1.1451 -0.7754  0.5615
  425MOL0     H57323  12.047   9.637   1.133 -1.4314 -0.5982  0.8907
  425MOL0     H57324  11.959   9.927   1.143  0.2821  1.6570 -1.3325
  425MOL0     H57325  12.108   9.841   1.077 -0.8427 -2.4885 -2.4051
  425MOL0     H57326  11.737   9.876   0.981  0.0214 -2.2151 -0.1735
  425MOL0     H57327  11.680   9.895   0.619 -0.4885 -1.0970  1.6942
  425MOL0     H57328  11.618  10.001   0.748  0.1755 -1.1628  0.1769
  425MOL0     H57329  11.820  10.154   0.660  0.5766 -1.2576  2.6758
  425MOL0     H57330  11.818  10.044   0.521  1.6146 -1.7575  2.8005
  425MOL0     H57331  11.606  10.228   0.606 -0.0065 -1.9872  2.1620
  425MOL0     H57332  11.555  10.090   0.503 -0.2852 -0.4958  0.5144
  425MOL0     H57333  11.587  10.250   0.346 -0.3786 -1.7610 -0.4084
  425MOL0     H57334  11.743  10.165   0.332 -0.1891 -0.5262 -0.7895
  425MOL0     H57335  11.505  10.418   0.440  3.2654 -2.8577 -2.2712
  425MOL0     H57336  11.436  10.622   0.578  0.5121  1.6052 -0.2177
  425MOL0     H57337  11.490  10.971   0.893 -0.7339  0.9922  1.7533
  425MOL0     H57338  11.449  11.190   0.988  1.3902  1.0622  1.1902
  425MOL0     H57339  11.743  11.471   0.879 -0.0442 -2.6681  1.3618
  425MOL0     H57340  11.615  11.542   0.775  1.5888  1.7503  0.3511
  425MOL0     H57341  11.542  11.686   0.940  0.1264  0.5252 -3.2946
  425MOL0     H57342  11.630  11.600   1.067  0.8775 -1.3920 -0.4939
  425MOL0     H57343  11.703  11.814   0.989 -1.1908 -1.8946  1.4529
  425MOL0     H57344  11.833  11.694   1.021  1.2479  2.8489  0.7852
  425MOL0     H57345  11.733  11.780   0.745  0.9345 -0.0995 -1.8116
  425MOL0     H57346  11.850  11.647   0.772  0.9472  0.4435 -0.7121
  425MOL0     H57347  12.009  11.789   0.874 -1.1553 -1.2982  1.4722
  425MOL0     H57348  11.910  11.936   0.850 -1.4390  0.2582 -4.0183
  425MOL0     H57349  12.087  11.899   0.679  0.7023 -0.0707  0.7120
  425MOL0     H57350  11.995  11.762   0.623  1.3705 -0.1239  1.2681
  425MOL0     H57351  11.847  12.009   0.660 -1.6562 -0.1027 -0.2530
  425MOL0     H57352  11.826  11.893   0.540 -1.2858  0.1324  3.7833
  425MOL0     H57353  11.914  12.126   0.444  4.2924  2.0163  0.8574
  425MOL0     H57354  12.073  12.062   0.505  1.3854 -3.0596 -1.1333
  425MOL0     H57355  11.714  11.340   0.677 -0.6037 -0.0867 -2.0968
  425MOL0     H57356  11.749  11.143   0.591 -1.2991  0.1900 -0.6588
  425MOL0     H57357  11.837  10.735   0.644 -1.5082  2.2414  1.0684
  425MOL0     H57358  11.908  10.537   0.498  0.2201 -1.4969 -0.2942
  425MOL0     H57359  11.388   9.633   0.810  2.3330 -2.6570  0.6703
  425MOL0     H57360  11.236   9.637   0.613  1.2105 -0.1453  0.5696
  425MOL0     H57361  10.781   9.438   0.488  2.3959  0.0850  0.2837
  425MOL0     H57362  10.585   9.504   0.383 -0.2648  2.4293  1.3001
  425MOL0     H57363  10.406   9.579   0.266  0.8177  0.4049  0.0895
  425MOL0     H57364  10.488   9.485   0.135 -1.2988  0.3311 -1.3007
  425MOL0     H57365  10.314   9.725   0.095 -2.5540 -1.9996  0.8605
  425MOL0     H57366  10.248   9.561   0.076 -0.9107 -0.3577 -0.4579
  425MOL0     H57367  10.472   9.700  -0.080  1.8567 -1.5655 -0.5769
  425MOL0     H57368  10.305   9.666  -0.136 -2.2624 -2.0410  2.4273
  425MOL0     H57369  10.435   9.511  -0.251  1.1369 -1.0222  0.2407
  425MOL0     H57370  10.539   9.472  -0.126 -0.2899 -1.3738 -2.4818
  425MOL0     H57371  10.258   9.181  -0.056 -0.1089  0.0196  3.0514
  425MOL0     H57372  10.811   9.765   0.124  1.1045  2.8343  4.3648
  425MOL0     H57373  11.123   9.650   0.193  0.8294 -0.3517  1.7888
  425MOL0     H57374  11.033   9.798   0.158 -1.9170 -0.0743  0.2390
  425MOL0     H57375  11.084   9.770   0.325 -2.7556 -1.4996  1.2908
  426MOL0     O57376   6.677   1.227   7.600 -0.4368 -0.1561 -0.0941
  426MOL0     C57377   6.723   1.148   7.519 -0.1628 -0.6406  0.8537
  426MOL0     O57378   6.823   1.046   7.542 -0.0842 -0.7463 -0.3838
  426MOL0     C57379   6.873   1.020   7.670  0.3716 -0.2094  0.7833
  426MOL0     C57380   6.824   0.912   7.746 -0.9009  0.0753  0.1064
  426MOL0     C57381   6.870   0.888   7.881 -0.7424  0.1831  0.2727
  426MOL0     C57382   6.982   0.954   7.921  0.3780 -0.0714 -0.0370
  426MOL0     O57383   7.038   0.931   8.044 -0.3993  0.0695 -0.2154
  426MOL0     C57384   7.177   0.884   8.049  0.3569 -0.0063  0.0307
  426MOL0     C57385   7.192   0.809   8.171  0.2692  0.3884 -0.7827
  426MOL0     C57386   7.112   0.679   8.173 -0.0741 -0.1575  0.2154
  426MOL0     C57387   7.150   0.586   8.291 -0.3572  0.7475 -0.7512
  426MOL0     C57388   7.069   0.452   8.290  0.7494 -0.1955 -0.8525
  426MOL0     C57389   7.037   0.394   8.434  0.5493  0.8614 -0.5366
  426MOL0     C57390   6.948   0.265   8.428 -0.4903 -0.2208 -0.1763
  426MOL0     C57391   6.980   0.156   8.321  0.4045 -0.8565 -0.7123
  426MOL0     N57392   6.939   0.189   8.188  0.7209 -0.2208 -0.4006
  426MOL0     C57393   7.025   0.203   8.077  1.2777  0.4798  0.9843
  426MOL0     C57394   6.934   0.222   7.980 -0.1981 -0.8898  0.7045
  426MOL0     C57395   6.947   0.263   7.840 -0.6350 -0.8907 -0.1471
  426MOL0     C57396   6.958   0.414   7.849 -0.8197 -0.2985  1.3211
  426MOL0     C57397   6.916   0.476   7.716  0.8382 -0.5644 -0.2499
  426MOL0     C57398   7.021   0.458   7.603 -0.8991 -0.9022 -0.1112
  426MOL0     O57399   7.151   0.519   7.647 -0.4504  0.0636 -0.5211
  426MOL0     C57400   7.164   0.654   7.602 -0.2190  0.5441 -0.2425
  426MOL0     C57401   7.073   0.734   7.530 -0.2271  0.6558  0.0599
  426MOL0     C57402   7.086   0.867   7.499 -0.1816  0.7148  0.3592
  426MOL0     C57403   7.209   0.933   7.532 -0.2619 -0.7391  0.0891
  426MOL0     C57404   7.234   1.068   7.499  0.2228 -1.0484 -0.6597
  426MOL0     O57405   7.361   1.113   7.517  0.5278 -0.3359 -0.6278
  426MOL0     C57406   7.398   1.244   7.461  0.1281 -0.7243 -0.0832
  426MOL0     C57407   7.372   1.352   7.552 -0.1622  0.9827  1.2830
  426MOL0     C57408   7.434   1.473   7.515 -0.6860 -0.7201  0.0220
  426MOL0     C57409   7.498   1.495   7.390 -0.7522  0.5973 -0.8946
  426MOL0     O57410   7.548   1.616   7.347 -0.0246 -0.3809  0.1828
  426MOL0     C57411   7.558   1.727   7.436 -0.3050  0.4929  1.0169
  426MOL0     C57412   7.422   1.803   7.434 -0.4429  0.2397 -0.7938
  426MOL0     C57413   7.375   1.832   7.291  0.2623  0.3343 -0.1294
  426MOL0     C57414   7.238   1.913   7.295  0.8293 -0.0574  0.0788
  426MOL0     C57415   7.182   1.945   7.151 -0.0678  0.6519  0.2175
  426MOL0     C57416   7.121   1.816   7.082  0.2414 -0.6966  0.0384
  426MOL0     C57417   6.966   1.821   7.060 -0.7736  0.2079  0.1306
  426MOL0     C57418   6.889   1.829   7.189  0.4672 -0.5188  0.1139
  426MOL0    Cl57419   6.713   1.868   7.156 -0.3314 -0.3816 -0.5321
  426MOL0     C57420   7.493   1.396   7.297  0.1167  0.1031  0.1333
  426MOL0     C57421   7.456   1.269   7.335 -0.7530 -0.1283  0.1254
  426MOL0     O57422   7.150   1.133   7.443 -0.1667 -0.1926  0.2893
  426MOL0     C57423   7.303   0.846   7.607 -0.0398 -0.5008  0.2036
  426MOL0     C57424   7.281   0.714   7.640 -1.1132  0.0949 -0.0898
  426MOL0     N57425   6.804   0.214   8.033  0.4444  0.5035 -0.0097
  426MOL0     N57426   6.805   0.191   8.156  0.2890 -0.1710  0.4307
  426MOL0     C57427   7.039   1.050   7.846 -0.0113  0.7431 -1.0447
  426MOL0     C57428   6.979   1.098   7.728  0.4794  0.6380 -0.8404
  426MOL0     C57429   6.671   1.161   7.375  0.1917 -0.0248 -0.8709
  426MOL0     C57430   6.592   1.278   7.344  0.2215  0.7509  0.5087
  426MOL0     C57431   6.544   1.309   7.221 -0.0905  0.6617  1.2571
  426MOL0     C57432   6.575   1.229   7.116 -0.1729 -0.7917  0.0062
  426MOL0     O57433   6.524   1.260   6.998  0.4623 -0.1154  0.6541
  426MOL0     C57434   6.477   1.147   6.916 -0.8755 -0.1622 -0.4167
  426MOL0     C57435   6.388   1.201   6.793 -0.0691  0.3142 -0.6773
  426MOL0     C57436   6.254   1.264   6.832 -0.7662  0.4027  0.0544
  426MOL0     C57437   6.184   1.317   6.706  1.1078  0.1583 -0.9302
  426MOL0     C57438   6.139   1.205   6.615 -0.0574  0.9559  0.2063
  426MOL0     C57439   6.115   1.136   6.513  0.1268 -0.8367  0.1384
  426MOL0     C57440   6.661   1.117   7.132 -0.3954 -0.2433 -0.5737
  426MOL0     C57441   6.710   1.088   7.260  0.5178  0.4307 -0.0870
  426MOL0     C57442   6.771   0.953   7.270 -0.0653 -0.4155 -1.0373
  426MOL0     H57443   6.750   0.849   7.698 -0.8383  0.5129 -0.5726
  426MOL0     H57444   6.811   0.819   7.940 -1.1575  0.2567 -0.0485
  426MOL0     H57445   7.195   0.813   7.968  1.1827  1.6117 -1.2752
  426MOL0     H57446   7.257   0.957   8.032  0.0475  1.2713  3.3286
  426MOL0     H57447   7.163   0.876   8.252  1.2668 -1.1959  0.9705
  426MOL0     H57448   7.297   0.781   8.182  0.5364  1.3731 -0.6743
  426MOL0     H57449   7.126   0.629   8.077  3.9118  1.2189 -0.1451
  426MOL0     H57450   7.004   0.697   8.173  0.0078  0.5903 -2.1007
  426MOL0     H57451   7.258   0.570   8.294 -0.2241  1.6735  1.4010
  426MOL0     H57452   7.125   0.642   8.382  1.0917 -0.9029  0.7471
  426MOL0     H57453   6.974   0.478   8.241  0.1990  0.5849  0.5490
  426MOL0     H57454   7.130   0.378   8.238 -0.5598 -2.7465  1.0186
  426MOL0     H57455   7.138   0.370   8.471 -0.6679 -1.1971  1.7443
  426MOL0     H57456   6.998   0.459   8.513 -0.9321  2.9912 -2.9015
  426MOL0     H57457   6.847   0.299   8.406 -1.7501 -2.3884  1.8101
  426MOL0     H57458   6.954   0.216   8.526  0.6931  1.5208  0.6731
  426MOL0     H57459   7.086   0.133   8.334  0.0183 -1.7480  1.3356
  426MOL0     H57460   6.930   0.065   8.355  2.0455 -1.6961 -0.4480
  426MOL0     H57461   7.132   0.206   8.058  1.2465 -0.3260  0.6346
  426MOL0     H57462   7.040   0.221   7.801  0.3016  2.4831 -1.9399
  426MOL0     H57463   6.857   0.228   7.789  0.4865 -1.4488 -1.8403
  426MOL0     H57464   6.897   0.459   7.928  2.7149  3.0312  2.4308
  426MOL0     H57465   7.062   0.437   7.870  0.0758  2.4867 -4.2294
  426MOL0     H57466   6.916   0.583   7.736 -1.8361 -0.4999 -0.1865
  426MOL0     H57467   6.814   0.459   7.679  0.4013 -0.8680  1.0102
  426MOL0     H57468   6.978   0.496   7.510 -2.0838 -0.6792  0.5140
  426MOL0     H57469   7.032   0.350   7.590  0.7285 -0.5765 -1.9109
  426MOL0     H57470   6.982   0.698   7.483 -0.5365  0.5954  0.6852
  426MOL0     H57471   7.009   0.914   7.438 -0.2432  2.5318  1.7340
  426MOL0     H57472   7.308   1.346   7.639 -3.9807 -0.9939 -1.3463
  426MOL0     H57473   7.421   1.563   7.574  2.5599 -0.6359  0.8254
  426MOL0     H57474   7.579   1.696   7.539  0.5613  1.0424  1.0108
  426MOL0     H57475   7.646   1.780   7.400  0.4362 -0.3973  1.4582
  426MOL0     H57476   7.333   1.754   7.475 -1.1954  1.1593 -1.2911
  426MOL0     H57477   7.432   1.896   7.491 -0.7094 -0.4849  0.4616
  426MOL0     H57478   7.457   1.882   7.239  0.6816 -2.2389 -2.1329
  426MOL0     H57479   7.367   1.737   7.238 -1.1450  0.5342 -0.3003
  426MOL0     H57480   7.260   2.008   7.346 -0.3672 -0.3790  1.2647
  426MOL0     H57481   7.164   1.865   7.361  2.2882 -0.0460  1.8205
  426MOL0     H57482   7.264   1.991   7.096  0.9875 -2.1332 -0.7169
  426MOL0     H57483   7.109   2.027   7.146 -0.4287  0.2995 -0.3910
  426MOL0     H57484   7.162   1.795   6.983  0.2119 -0.1632 -0.0925
  426MOL0     H57485   7.144   1.733   7.149  0.9668 -1.1259 -0.7236
  426MOL0     H57486   6.937   1.738   6.994  1.4807 -1.0396  0.5881
  426MOL0     H57487   6.929   1.912   7.014 -1.3505  0.7799  1.6735
  426MOL0     H57488   6.889   1.739   7.252 -2.3606 -0.4035  0.3952
  426MOL0     H57489   6.927   1.909   7.252  0.7610  0.5654 -1.3815
  426MOL0     H57490   7.526   1.413   7.195 -3.2009 -3.0096 -1.7029
  426MOL0     H57491   7.484   1.189   7.267  1.2313 -1.8361  2.7341
  426MOL0     H57492   7.399   0.891   7.630  1.2518 -3.3367  0.7074
  426MOL0     H57493   7.358   0.655   7.688 -1.9805 -0.5743  0.4992
  426MOL0     H57494   7.129   1.100   7.881 -0.8032 -0.3924  3.1433
  426MOL0     H57495   7.006   1.184   7.667  0.0315 -0.0329 -2.0192
  426MOL0     H57496   6.564   1.351   7.419  0.3750  2.8662 -1.3815
  426MOL0     H57497   6.493   1.404   7.209 -0.7550  0.0579 -1.2551
  426MOL0     H57498   6.415   1.082   6.978  0.5242 -0.1326  1.0666
  426MOL0     H57499   6.562   1.097   6.869  0.9418  2.6815 -0.4153
  426MOL0     H57500   6.365   1.106   6.743 -0.2441 -0.1964  0.3394
  426MOL0     H57501   6.453   1.263   6.731 -1.4807 -2.7627 -5.9203
  426MOL0     H57502   6.266   1.347   6.902 -0.5539  2.4186 -2.2160
  426MOL0     H57503   6.186   1.191   6.876  0.0097 -0.4579 -0.1386
  426MOL0     H57504   6.095   1.373   6.735  0.7962 -0.3162 -0.9551
  426MOL0     H57505   6.244   1.390   6.651  0.8331  1.5825  0.5896
  426MOL0     H57506   6.117   1.094   6.414 -1.1915 -0.1631 -0.2047
  426MOL0     H57507   6.685   1.045   7.054 -1.1437 -1.3022  0.1356
  426MOL0     H57508   6.737   0.893   7.354  5.5654 -0.1725  1.8724
  426MOL0     H57509   6.746   0.902   7.177 -0.9857  0.8015 -1.4819
  426MOL0     H57510   6.880   0.968   7.269  0.1585 -1.9191 -1.7464
  427MOL0     O57511   9.054   3.284   1.305 -0.1521  0.3772 -0.0010
  427MOL0     C57512   9.026   3.297   1.186 -1.9913  0.8898 -0.5400
  427MOL0     O57513   8.903   3.323   1.128 -0.3482  0.1636  0.0104
  427MOL0     C57514   8.787   3.306   1.200 -0.5794  0.9346 -0.4630
  427MOL0     C57515   8.767   3.204   1.301  0.0157 -0.3145  0.3974
  427MOL0     C57516   8.644   3.193   1.365 -0.2159 -0.0302  0.0164
  427MOL0     C57517   8.544   3.286   1.340 -0.5447  0.1675  1.2155
  427MOL0     O57518   8.436   3.279   1.429 -0.2994 -0.2007  0.5762
  427MOL0     C57519   8.304   3.278   1.368  0.0917  0.6846  0.4174
  427MOL0     C57520   8.169   3.277   1.465 -0.1169  0.6847  0.1761
  427MOL0     C57521   8.182   3.168   1.579 -0.6882  0.1011 -0.3454
  427MOL0     C57522   8.168   3.020   1.530  0.3448 -0.5809  0.2712
  427MOL0     C57523   8.187   2.910   1.635  0.1087  0.1082  0.6773
  427MOL0     C57524   8.137   2.772   1.576 -0.2922 -0.6020  0.5257
  427MOL0     C57525   8.180   2.660   1.664  0.3206 -0.8516 -0.1931
  427MOL0     C57526   8.112   2.675   1.804 -0.0699  0.8769  0.6085
  427MOL0     N57527   8.084   2.537   1.855  0.2135  0.3674  0.7488
  427MOL0     C57528   7.965   2.494   1.897  0.5699 -0.4268 -0.2937
  427MOL0     C57529   7.966   2.365   1.906 -0.1968  0.2623 -0.1688
  427MOL0     C57530   7.849   2.275   1.944  0.0741  0.1015 -0.0250
  427MOL0     C57531   7.836   2.156   1.851  0.1035  0.5853  0.2421
  427MOL0     C57532   7.759   2.031   1.901 -0.3011 -0.2282  0.2558
  427MOL0     C57533   7.795   1.893   1.848  0.2848 -0.0761  0.2258
  427MOL0     O57534   7.708   1.795   1.915 -0.3476 -0.3929  0.6103
  427MOL0     C57535   7.703   1.665   1.871 -0.5002 -0.9076  0.2781
  427MOL0     C57536   7.779   1.612   1.761 -0.1778 -0.5004 -0.0454
  427MOL0     C57537   7.753   1.485   1.715 -0.7236  0.5280  0.2032
  427MOL0     C57538   7.667   1.389   1.788  0.0637 -0.5487  1.2901
  427MOL0     C57539   7.655   1.254   1.727  0.9476 -0.3198 -0.1653
  427MOL0     O57540   7.724   1.228   1.602 -0.2953 -0.7684 -0.1190
  427MOL0     C57541   7.708   1.099   1.562  0.8034 -0.1021 -0.4249
  427MOL0     C57542   7.632   1.073   1.444  0.4291 -0.0146 -0.1605
  427MOL0     C57543   7.618   0.945   1.404  0.7183  0.3991 -0.4849
  427MOL0     C57544   7.650   0.832   1.480  0.2697 -0.6016  0.0842
  427MOL0     O57545   7.617   0.699   1.446  0.4101 -0.4122 -0.6006
  427MOL0     C57546   7.617   0.666   1.304 -0.1662  0.7260  0.6709
  427MOL0     C57547   7.564   0.521   1.309 -0.0367  0.5222  0.2351
  427MOL0     C57548   7.412   0.503   1.355 -0.9935 -0.2803  0.1439
  427MOL0     C57549   7.341   0.375   1.319  0.7855  0.0780 -0.4945
  427MOL0     C57550   7.303   0.375   1.166 -0.6901 -0.4623 -0.5143
  427MOL0     C57551   7.304   0.224   1.119 -0.5928 -0.6737 -0.3891
  427MOL0     C57552   7.163   0.150   1.159 -1.2096 -0.5036  0.6918
  427MOL0     C57553   7.190  -0.003   1.144  0.4531 -0.4336  0.7861
  427MOL0    Cl57554   7.342  -0.074   1.209  0.1494 -0.2199  0.0126
  427MOL0     C57555   7.723   0.852   1.602 -0.3316  1.0924 -0.3053
  427MOL0     C57556   7.758   0.981   1.635  0.5033  0.2600  0.4554
  427MOL0     O57557   7.581   1.172   1.781  0.5856 -0.7570 -0.3526
  427MOL0     C57558   7.603   1.443   1.897  0.0735  0.2145  0.7359
  427MOL0     C57559   7.625   1.579   1.941  1.0355  0.4206 -1.6045
  427MOL0     N57560   8.094   2.325   1.878 -0.1127  0.3327  0.0204
  427MOL0     N57561   8.165   2.429   1.850  0.2914  0.5232 -0.1772
  427MOL0     C57562   8.570   3.396   1.247  0.8809  0.1049 -0.4312
  427MOL0     C57563   8.690   3.400   1.172  1.1487 -0.3919  0.2105
  427MOL0     C57564   9.141   3.276   1.093  0.3316 -0.0813  0.1891
  427MOL0     C57565   9.265   3.329   1.132 -0.9330 -0.5050 -0.7117
  427MOL0     C57566   9.376   3.290   1.055 -0.1362 -0.5424 -0.2177
  427MOL0     C57567   9.368   3.201   0.956 -0.5556  0.3379 -0.5033
  427MOL0     O57568   9.479   3.157   0.877  0.5868 -0.0870 -0.3857
  427MOL0     C57569   9.615   3.205   0.896  0.0213  0.0284 -0.3965
  427MOL0     C57570   9.698   3.138   0.799 -1.4314  0.6683  0.1537
  427MOL0     C57571   9.848   3.167   0.822  0.2400 -0.5971  0.0043
  427MOL0     C57572   9.947   3.077   0.748  0.0454 -0.3516  0.1918
  427MOL0     C57573  10.086   3.129   0.781 -0.1213 -1.4688  0.0096
  427MOL0     C57574  10.190   3.187   0.804  0.0294  0.2745  0.9668
  427MOL0     C57575   9.250   3.140   0.932 -0.4078 -0.3493  0.0129
  427MOL0     C57576   9.133   3.173   0.994  0.4214 -0.5518 -0.2737
  427MOL0     C57577   9.001   3.107   0.954 -0.7156 -0.7081 -0.6092
  427MOL0     H57578   8.850   3.136   1.315 -0.1056 -0.5845 -0.1962
  427MOL0     H57579   8.625   3.112   1.435 -0.6852 -0.5941 -0.7591
  427MOL0     H57580   8.310   3.360   1.295 -0.2752  0.3987  0.0658
  427MOL0     H57581   8.293   3.198   1.294 -0.2549 -0.4063  1.6175
  427MOL0     H57582   8.074   3.272   1.411  0.1199  2.1555 -0.4317
  427MOL0     H57583   8.161   3.376   1.511 -2.2007  1.2664 -1.2425
  427MOL0     H57584   8.110   3.183   1.660  3.1425 -1.0936  3.6611
  427MOL0     H57585   8.274   3.188   1.634 -1.9752  0.6413  1.7196
  427MOL0     H57586   8.066   3.017   1.492  0.2015  0.2601  0.5768
  427MOL0     H57587   8.239   3.010   1.447 -1.0968  0.1355 -1.1051
  427MOL0     H57588   8.291   2.912   1.670  0.6267  0.1257 -0.8231
  427MOL0     H57589   8.143   2.932   1.733  0.1306  0.3452  0.6338
  427MOL0     H57590   8.029   2.768   1.557 -0.2492 -0.2474  0.1999
  427MOL0     H57591   8.188   2.752   1.481  1.6503 -2.3059  1.8240
  427MOL0     H57592   8.286   2.633   1.663  0.6268  0.2087 -2.6637
  427MOL0     H57593   8.136   2.570   1.620  0.9147 -0.1818 -2.2835
  427MOL0     H57594   8.169   2.727   1.882  1.9756 -0.6914  0.2535
  427MOL0     H57595   8.026   2.740   1.783 -0.0989  0.3463 -1.0960
  427MOL0     H57596   7.886   2.560   1.932  0.8447 -0.9499  1.3837
  427MOL0     H57597   7.869   2.244   2.047 -0.2238 -0.6795 -0.1959
  427MOL0     H57598   7.756   2.332   1.943  1.0658  1.8038  0.4833
  427MOL0     H57599   7.800   2.199   1.757  1.4380 -1.9147 -1.5318
  427MOL0     H57600   7.936   2.115   1.838 -1.1416 -1.7542 -3.2362
  427MOL0     H57601   7.653   2.043   1.874 -0.4844 -0.8085  0.7083
  427MOL0     H57602   7.759   2.032   2.010 -2.0770  2.0123  0.3315
  427MOL0     H57603   7.901   1.873   1.864  0.2529 -0.2184  0.2547
  427MOL0     H57604   7.778   1.870   1.742  0.5639 -2.8375  0.7171
  427MOL0     H57605   7.851   1.660   1.695 -1.7685  3.6392  0.9092
  427MOL0     H57606   7.822   1.435   1.648 -1.0637 -2.8989  2.2124
  427MOL0     H57607   7.608   1.152   1.375 -0.9697 -0.9603 -0.8126
  427MOL0     H57608   7.548   0.928   1.322  2.3036  0.9020 -2.0132
  427MOL0     H57609   7.560   0.735   1.241  0.1865 -0.1364 -0.6314
  427MOL0     H57610   7.720   0.661   1.267 -0.0391  0.4350  1.0605
  427MOL0     H57611   7.571   0.481   1.207 -1.4113  0.9657 -0.0526
  427MOL0     H57612   7.640   0.476   1.374  1.5353  1.0517 -1.1480
  427MOL0     H57613   7.410   0.491   1.463 -1.2941  0.2263  0.1980
  427MOL0     H57614   7.357   0.592   1.323  0.5951  0.7224  0.1035
  427MOL0     H57615   7.249   0.374   1.379  2.9434 -3.3724  3.2912
  427MOL0     H57616   7.400   0.285   1.338  0.0368 -0.7119 -1.7597
  427MOL0     H57617   7.373   0.441   1.115 -0.0110 -0.5015  0.3553
  427MOL0     H57618   7.202   0.415   1.156  0.3314  3.1430  1.8607
  427MOL0     H57619   7.315   0.238   1.011 -0.6115  2.4505 -0.0809
  427MOL0     H57620   7.393   0.177   1.161  0.5761  1.9190  0.2483
  427MOL0     H57621   7.075   0.183   1.103  0.6691  2.7532 -0.6202
  427MOL0     H57622   7.141   0.176   1.263 -0.2482  0.3110  0.6973
  427MOL0     H57623   7.117  -0.045   1.214  0.2319  0.2271  0.9592
  427MOL0     H57624   7.172  -0.035   1.041  1.8537  0.7301  0.1509
  427MOL0     H57625   7.751   0.766   1.661 -5.5610 -1.3895 -0.9228
  427MOL0     H57626   7.820   0.992   1.723  1.9181 -1.8553 -0.1982
  427MOL0     H57627   7.529   1.385   1.952 -1.9680  2.2171  0.2940
  427MOL0     H57628   7.566   1.607   2.028  0.0876 -3.8305 -0.6178
  427MOL0     H57629   8.490   3.467   1.233 -0.1767 -0.1914  3.2344
  427MOL0     H57630   8.695   3.472   1.090 -0.8736 -0.9471 -0.4697
  427MOL0     H57631   9.270   3.401   1.213  2.2054  0.6989 -1.8409
  427MOL0     H57632   9.473   3.334   1.074  0.2225 -0.9957 -0.9542
  427MOL0     H57633   9.650   3.185   0.998 -1.9075  1.2933  0.5775
  427MOL0     H57634   9.612   3.313   0.876  5.1624  0.0318 -2.7773
  427MOL0     H57635   9.684   3.163   0.694 -0.3171 -0.9186 -0.4097
  427MOL0     H57636   9.699   3.029   0.800 -2.5549  0.5709 -2.3805
  427MOL0     H57637   9.873   3.158   0.928  2.9462  2.8879 -0.1231
  427MOL0     H57638   9.880   3.270   0.801 -1.1239 -0.7306 -3.3142
  427MOL0     H57639   9.941   2.974   0.786 -2.1758  0.0852  1.1968
  427MOL0     H57640   9.918   3.088   0.643  0.5877 -2.0639 -0.1704
  427MOL0     H57641  10.272   3.253   0.827 -3.1287  4.5590  1.2821
  427MOL0     H57642   9.256   3.067   0.851  1.0444 -0.2596  0.0257
  427MOL0     H57643   8.925   3.183   0.934 -0.0381  1.1576  3.0286
  427MOL0     H57644   9.021   3.039   0.871  0.0101 -1.2988  0.0373
  427MOL0     H57645   8.962   3.050   1.039  1.9952 -2.0509 -0.1691
  428MOL0     O57646   3.989   3.293   5.429 -0.3563 -0.1071  0.2950
  428MOL0     C57647   3.972   3.293   5.545 -0.4871 -0.7584 -0.1716
  428MOL0     O57648   3.857   3.265   5.607  0.0400  0.0032 -0.6202
  428MOL0     C57649   3.740   3.249   5.540  0.2909 -0.0066  0.6696
  428MOL0     C57650   3.707   3.168   5.431 -0.8926 -0.0809  0.5152
  428MOL0     C57651   3.579   3.145   5.387 -0.3765 -0.5746  0.6021
  428MOL0     C57652   3.476   3.209   5.455  0.0732  0.1190 -0.7702
  428MOL0     O57653   3.339   3.220   5.430  0.5660  0.2724  0.5149
  428MOL0     C57654   3.291   3.187   5.298  0.8340 -0.2067  0.5587
  428MOL0     C57655   3.138   3.195   5.297 -0.7508  0.6175  0.0659
  428MOL0     C57656   3.101   3.342   5.329  0.0920 -0.2059  0.1997
  428MOL0     C57657   2.968   3.359   5.400  0.0704  0.3163 -0.2479
  428MOL0     C57658   2.905   3.495   5.380  0.3820 -0.7701 -0.7836
  428MOL0     C57659   2.819   3.488   5.262 -0.3108 -1.2171  0.0567
  428MOL0     C57660   2.749   3.623   5.235 -0.2411 -0.3199 -0.2598
  428MOL0     C57661   2.657   3.615   5.112  0.8169  0.1375 -0.6032
  428MOL0     N57662   2.553   3.509   5.110  0.8090 -0.5514 -0.6570
  428MOL0     C57663   2.420   3.530   5.108 -0.1448  0.1080 -0.5446
  428MOL0     C57664   2.374   3.406   5.074  0.0072  0.0943  0.0702
  428MOL0     C57665   2.238   3.367   5.040  0.1970 -0.9952  0.4320
  428MOL0     C57666   2.165   3.472   4.952  0.5649  0.2608  0.4822
  428MOL0     C57667   2.038   3.416   4.888 -1.0050  0.2228 -0.8109
  428MOL0     C57668   1.971   3.528   4.792 -0.4428  0.9856  0.1005
  428MOL0     O57669   2.047   3.540   4.666  0.3942 -0.6265  0.0508
  428MOL0     C57670   2.013   3.475   4.550  0.6904  0.2752  0.3758
  428MOL0     C57671   2.036   3.550   4.434  0.0335  0.2013 -0.0453
  428MOL0     C57672   2.013   3.503   4.303  0.0353  0.2626 -0.9578
  428MOL0     C57673   1.940   3.378   4.291 -0.5230  0.2152  0.3777
  428MOL0     C57674   1.899   3.331   4.167  0.2290  0.1150  0.4619
  428MOL0     O57675   1.935   3.394   4.053  0.2354 -0.8715  0.1066
  428MOL0     C57676   1.892   3.330   3.935  0.1258 -1.2619 -0.5188
  428MOL0     C57677   1.960   3.220   3.888  0.3230 -0.0106  0.1833
  428MOL0     C57678   1.899   3.150   3.783  0.8634 -0.2068  0.2412
  428MOL0     C57679   1.769   3.180   3.739  0.1481 -0.0473  0.4183
  428MOL0     O57680   1.707   3.084   3.655 -0.2258 -1.3189 -0.5928
  428MOL0     C57681   1.585   3.125   3.586 -0.4076  0.6653 -0.0100
  428MOL0     C57682   1.533   3.018   3.491 -0.0548  0.2033 -0.3409
  428MOL0     C57683   1.442   2.915   3.562 -0.5328 -0.5637 -0.6736
  428MOL0     C57684   1.502   2.834   3.675  0.5488  0.4668  0.1536
  428MOL0     C57685   1.384   2.766   3.750  0.0074 -0.3750 -0.2995
  428MOL0     C57686   1.427   2.671   3.858  0.2068  0.0924 -0.1507
  428MOL0     C57687   1.324   2.637   3.963  0.0029 -0.0164  0.6100
  428MOL0     C57688   1.307   2.735   4.074  0.0151 -0.4078 -0.1687
  428MOL0    Cl57689   1.452   2.766   4.177  0.0044 -0.5025 -0.2260
  428MOL0     C57690   1.710   3.300   3.781  0.6833  0.8854  0.3366
  428MOL0     C57691   1.764   3.372   3.887  0.4269  0.3733  0.0254
  428MOL0     O57692   1.860   3.216   4.167  1.1543  0.0156  0.5547
  428MOL0     C57693   1.905   3.312   4.408 -0.4419 -0.0538 -0.8368
  428MOL0     C57694   1.951   3.353   4.535 -0.0499  0.6794  0.5003
  428MOL0     N57695   2.471   3.318   5.058 -0.1247 -0.3733 -0.5435
  428MOL0     N57696   2.579   3.383   5.085  0.7239  1.1567  0.1397
  428MOL0     C57697   3.504   3.278   5.572  0.6453 -0.7097  0.2283
  428MOL0     C57698   3.635   3.307   5.608 -0.1932 -0.3789 -0.0017
  428MOL0     C57699   4.088   3.323   5.638 -0.0447  0.0928 -0.2979
  428MOL0     C57700   4.081   3.273   5.768  0.3405  0.8228  0.7328
  428MOL0     C57701   4.181   3.295   5.858 -0.2189 -0.0348 -0.1352
  428MOL0     C57702   4.297   3.364   5.828 -0.2297  0.4194  0.4864
  428MOL0     O57703   4.398   3.362   5.923  0.0985 -0.6868 -0.3908
  428MOL0     C57704   4.461   3.490   5.955 -0.1663 -0.4244  0.6922
  428MOL0     C57705   4.451   3.523   6.100 -0.1897  0.1437  0.1445
  428MOL0     C57706   4.307   3.569   6.153  0.1374 -0.1298 -0.1799
  428MOL0     C57707   4.262   3.697   6.098 -0.2314  0.5273  0.4641
  428MOL0     C57708   4.131   3.743   6.152  0.0115 -0.1706  0.1502
  428MOL0     C57709   4.034   3.805   6.188 -0.0633  0.3279 -0.1492
  428MOL0     C57710   4.306   3.422   5.702  0.9696  0.4774  0.0946
  428MOL0     C57711   4.198   3.410   5.612  0.3844 -0.1318 -0.1416
  428MOL0     C57712   4.205   3.495   5.489  0.2757 -0.0289  0.3864
  428MOL0     H57713   3.784   3.117   5.374 -2.0199 -2.8699  1.3034
  428MOL0     H57714   3.566   3.080   5.302 -1.0873 -0.2498  0.4583
  428MOL0     H57715   3.328   3.248   5.215  0.1807 -2.9895 -1.9580
  428MOL0     H57716   3.312   3.081   5.280 -1.2074 -0.5928  0.3113
  428MOL0     H57717   3.098   3.139   5.381 -0.7919  0.4159 -0.0876
  428MOL0     H57718   3.102   3.155   5.201  0.5397  5.0570 -2.6119
  428MOL0     H57719   3.098   3.395   5.233  0.9874 -0.7164 -0.1248
  428MOL0     H57720   3.176   3.396   5.387  0.2964  1.6118 -1.6570
  428MOL0     H57721   2.901   3.273   5.386  1.8752 -1.6067  2.1086
  428MOL0     H57722   2.984   3.361   5.508  2.3737  0.4893 -0.5437
  428MOL0     H57723   2.849   3.524   5.469 -1.3167 -2.1878 -1.3039
  428MOL0     H57724   2.973   3.579   5.366 -2.3959  1.9186  0.6375
  428MOL0     H57725   2.884   3.469   5.177  0.2584 -0.2905  0.2634
  428MOL0     H57726   2.743   3.410   5.273  1.7233 -3.1980  0.6363
  428MOL0     H57727   2.819   3.706   5.222 -1.5767  0.8361 -0.3779
  428MOL0     H57728   2.684   3.641   5.321 -2.2162  1.0788 -1.9447
  428MOL0     H57729   2.614   3.713   5.090 -0.1671 -0.4812 -1.5280
  428MOL0     H57730   2.716   3.587   5.025  0.6351  0.4670 -0.8336
  428MOL0     H57731   2.358   3.617   5.125 -1.7180 -0.8680 -1.0022
  428MOL0     H57732   2.247   3.273   4.984 -4.0696  0.0646 -2.6536
  428MOL0     H57733   2.186   3.335   5.131 -0.2761 -0.2700  0.4230
  428MOL0     H57734   2.133   3.549   5.023  3.8660  2.0620  0.1818
  428MOL0     H57735   2.228   3.517   4.876 -2.5340  2.7747 -0.8341
  428MOL0     H57736   1.964   3.383   4.962  2.1831 -1.1267  2.0676
  428MOL0     H57737   2.073   3.335   4.823  4.9634  2.0697 -0.4952
  428MOL0     H57738   1.962   3.625   4.841 -0.7062  1.1154 -0.1990
  428MOL0     H57739   1.872   3.490   4.762 -0.5400  0.1940  1.3432
  428MOL0     H57740   2.077   3.647   4.460 -1.5705  1.1177 -0.8230
  428MOL0     H57741   2.033   3.572   4.221 -0.0049  1.0706 -0.2993
  428MOL0     H57742   2.058   3.202   3.929  0.3359  1.5851  0.9213
  428MOL0     H57743   1.949   3.063   3.741  0.3908  0.6314 -2.2060
  428MOL0     H57744   1.493   3.145   3.641 -0.9416 -1.7423  0.0701
  428MOL0     H57745   1.601   3.213   3.523  1.0750 -0.0554 -0.6936
  428MOL0     H57746   1.460   3.057   3.420 -0.8697 -1.7308 -0.6168
  428MOL0     H57747   1.617   2.967   3.443 -2.3654 -4.0268 -0.4133
  428MOL0     H57748   1.369   2.978   3.613  1.4091 -1.4264  3.6327
  428MOL0     H57749   1.406   2.840   3.490  0.2347 -1.8202  0.2246
  428MOL0     H57750   1.557   2.890   3.752  4.2302 -0.4879 -1.5765
  428MOL0     H57751   1.576   2.760   3.644  2.1116  0.5912  3.1694
  428MOL0     H57752   1.331   2.706   3.676 -1.6626  1.2067 -0.4418
  428MOL0     H57753   1.317   2.844   3.784 -1.7914 -0.7458 -2.7235
  428MOL0     H57754   1.455   2.576   3.811 -3.0217 -2.4418  2.5754
  428MOL0     H57755   1.515   2.721   3.899  3.0313 -3.2700 -1.5448
  428MOL0     H57756   1.353   2.547   4.018  3.6724  1.1010  0.7756
  428MOL0     H57757   1.228   2.621   3.913 -0.4303  2.5370  0.5045
  428MOL0     H57758   1.273   2.832   4.035  2.6927  0.6835 -0.0214
  428MOL0     H57759   1.238   2.696   4.149 -2.6706  2.1673 -1.1264
  428MOL0     H57760   1.622   3.328   3.724 -0.5322 -0.3002  1.5469
  428MOL0     H57761   1.708   3.463   3.907 -1.2036 -0.2129 -1.6598
  428MOL0     H57762   1.854   3.216   4.403 -3.7914  1.4016  1.5626
  428MOL0     H57763   1.932   3.282   4.615  0.5971  1.3407  1.2527
  428MOL0     H57764   3.417   3.305   5.630 -0.6690  0.7466 -2.2270
  428MOL0     H57765   3.658   3.343   5.708 -2.5291 -2.5541  1.4254
  428MOL0     H57766   3.995   3.216   5.801 -0.2793  1.1529 -0.2584
  428MOL0     H57767   4.185   3.264   5.962  1.8249 -2.9484 -0.9568
  428MOL0     H57768   4.414   3.572   5.900 -1.1299 -0.7343  1.0301
  428MOL0     H57769   4.567   3.482   5.932  0.5045  0.9215  2.9725
  428MOL0     H57770   4.514   3.611   6.117 -2.2925  1.4158  1.9552
  428MOL0     H57771   4.479   3.446   6.172 -1.6550  1.1799  1.9396
  428MOL0     H57772   4.305   3.590   6.260  0.2798  1.3882 -0.4467
  428MOL0     H57773   4.237   3.487   6.134 -1.0032  0.6945  0.3520
  428MOL0     H57774   4.340   3.767   6.128 -1.4969  1.9059  0.6385
  428MOL0     H57775   4.258   3.684   5.990  1.2450 -1.7806  0.6133
  428MOL0     H57776   3.945   3.848   6.229 -1.1987 -3.8468  2.3257
  428MOL0     H57777   4.400   3.462   5.667  1.8998  0.6339  2.5980
  428MOL0     H57778   4.253   3.589   5.517 -0.1629  0.4326 -0.3808
  428MOL0     H57779   4.269   3.440   5.419  5.4769  6.1490 -0.5821
  428MOL0     H57780   4.104   3.522   5.457  0.6626  0.5315 -0.3762
  429MOL0     O57781   5.799   7.439   2.326 -1.0634  0.1761  0.3616
  429MOL0     C57782   5.918   7.411   2.314  0.0598  0.8983 -0.2642
  429MOL0     O57783   5.990   7.407   2.194  0.3629  0.2386 -0.1819
  429MOL0     C57784   5.935   7.397   2.074  0.5456  0.5388 -0.1481
  429MOL0     C57785   5.948   7.494   1.982  0.4546  1.1114  0.7444
  429MOL0     C57786   5.913   7.462   1.850  0.4212 -0.0237  0.9514
  429MOL0     C57787   5.850   7.338   1.818 -0.8441 -0.5670  1.6028
  429MOL0     O57788   5.809   7.306   1.683  1.0198  0.3821 -0.0989
  429MOL0     C57789   5.821   7.394   1.576  0.1067 -0.4888  0.4236
  429MOL0     C57790   5.718   7.511   1.592  0.3143  1.1419 -0.0172
  429MOL0     C57791   5.715   7.617   1.481 -0.0869 -0.3636  0.8983
  429MOL0     C57792   5.823   7.725   1.502  0.7959 -0.5337 -0.0507
  429MOL0     C57793   5.858   7.793   1.373  0.6805 -1.2734 -0.3803
  429MOL0     C57794   5.731   7.864   1.307  0.4799  0.1270 -0.1693
  429MOL0     C57795   5.767   7.942   1.183  0.7582 -0.5251  0.4610
  429MOL0     C57796   5.649   7.976   1.090  1.3834 -0.0620 -0.0558
  429MOL0     N57797   5.661   8.115   1.038  0.5609 -0.1434 -1.0786
  429MOL0     C57798   5.649   8.229   1.123  1.2205  1.1541  0.7268
  429MOL0     C57799   5.709   8.320   1.060  0.4307  0.7186 -0.3196
  429MOL0     C57800   5.710   8.460   1.094 -0.1431  0.0059  0.6915
  429MOL0     C57801   5.566   8.519   1.083  0.1486 -0.5131  0.8897
  429MOL0     C57802   5.500   8.496   0.944 -0.4838 -0.6549  0.1853
  429MOL0     C57803   5.584   8.556   0.826 -0.6961 -0.0513 -0.5750
  429MOL0     O57804   5.512   8.662   0.770  0.2362  0.8219 -0.0768
  429MOL0     C57805   5.570   8.739   0.674 -0.7563  0.5846 -0.3729
  429MOL0     C57806   5.573   8.876   0.687  0.0775  1.2877 -0.5855
  429MOL0     C57807   5.648   8.953   0.601  0.1812 -0.1874  0.8035
  429MOL0     C57808   5.715   8.895   0.490 -0.6664  0.2307 -0.8969
  429MOL0     C57809   5.790   8.969   0.381  0.7018 -1.1508  0.5803
  429MOL0     O57810   5.768   8.917   0.252 -0.4682 -0.1296  0.8358
  429MOL0     C57811   5.826   8.976   0.137  0.5774  0.2466 -0.1701
  429MOL0     C57812   5.928   9.076   0.124  0.0242  0.7620 -0.0816
  429MOL0     C57813   5.982   9.105  -0.001  0.7216 -0.0165 -0.2739
  429MOL0     C57814   5.933   9.047  -0.123  0.4877  0.4416 -0.8027
  429MOL0     O57815   5.996   9.079  -0.242  0.2020  0.6599 -0.0949
  429MOL0     C57816   6.012   8.965  -0.332 -0.0889 -0.6669  0.9683
  429MOL0     C57817   6.119   9.002  -0.436  0.2414 -0.3807 -1.0318
  429MOL0     C57818   6.129   8.886  -0.548 -0.0781 -0.3729 -0.5486
  429MOL0     C57819   6.127   8.732  -0.521  0.9302 -0.3973 -0.2598
  429MOL0     C57820   6.260   8.669  -0.490 -0.1567 -0.2717 -0.6258
  429MOL0     C57821   6.230   8.524  -0.460 -0.6767  0.4962  0.0893
  429MOL0     C57822   6.344   8.465  -0.377 -0.2974 -0.1127 -0.9280
  429MOL0     C57823   6.441   8.386  -0.464 -0.8242 -0.1159  1.3897
  429MOL0    Cl57824   6.534   8.284  -0.353 -0.0375  0.0991 -0.2810
  429MOL0     C57825   5.825   8.956  -0.115 -0.3728 -0.2375 -1.1560
  429MOL0     C57826   5.766   8.927   0.013  0.5000 -0.7996 -0.9918
  429MOL0     O57827   5.835   9.084   0.407  0.4049 -0.1337  0.3591
  429MOL0     C57828   5.726   8.753   0.493  0.1137  0.1726  0.1499
  429MOL0     C57829   5.651   8.680   0.581 -0.4265  0.3673 -0.2995
  429MOL0     N57830   5.767   8.272   0.945  0.7454  0.0668  0.7859
  429MOL0     N57831   5.738   8.148   0.935  0.3874  0.1213 -1.0924
  429MOL0     C57832   5.836   7.246   1.919 -0.1069 -0.0904  0.5513
  429MOL0     C57833   5.883   7.270   2.047 -0.3174 -0.7982 -0.5018
  429MOL0     C57834   5.994   7.413   2.439  0.7287  0.0386  0.4767
  429MOL0     C57835   6.102   7.505   2.447  0.3135  1.0031  0.8631
  429MOL0     C57836   6.181   7.514   2.564  0.3607  0.5579 -0.1252
  429MOL0     C57837   6.146   7.429   2.677  0.5394 -0.7216 -0.0164
  429MOL0     O57838   6.222   7.460   2.791 -0.1313 -0.1043  0.4810
  429MOL0     C57839   6.180   7.414   2.919 -0.1110 -0.1184 -0.4767
  429MOL0     C57840   6.249   7.281   2.939 -0.3598 -0.6513 -0.6109
  429MOL0     C57841   6.380   7.312   3.009  0.1248  0.0914 -0.0292
  429MOL0     C57842   6.465   7.189   3.047  0.4308  0.3449 -0.5101
  429MOL0     C57843   6.496   7.093   2.940  0.5542 -0.5995 -0.3913
  429MOL0     C57844   6.540   7.007   2.877 -0.5850  0.4550  0.2652
  429MOL0     C57845   6.035   7.340   2.668 -0.1977 -0.2643  0.7423
  429MOL0     C57846   5.959   7.331   2.545 -0.1561 -0.3169  0.3771
  429MOL0     C57847   5.835   7.234   2.555  0.3670  0.4686 -0.0968
  429MOL0     H57848   5.997   7.590   1.995 -0.3391  1.4404  1.4067
  429MOL0     H57849   5.928   7.532   1.767  0.1135 -0.8427  0.1911
  429MOL0     H57850   5.918   7.438   1.554  0.4288  0.4342  3.2702
  429MOL0     H57851   5.787   7.340   1.487 -1.7603 -1.5668  1.7117
  429MOL0     H57852   5.713   7.530   1.700 -0.7410 -4.4324  1.2037
  429MOL0     H57853   5.615   7.477   1.583  0.2240  1.2267  0.5842
  429MOL0     H57854   5.613   7.656   1.476  0.4961  1.2369  1.0193
  429MOL0     H57855   5.726   7.577   1.380 -1.1006 -0.9530  1.0115
  429MOL0     H57856   5.792   7.796   1.579  0.5670  0.5678 -1.1335
  429MOL0     H57857   5.918   7.680   1.532  4.0840  2.1035 -5.2219
  429MOL0     H57858   5.932   7.872   1.388  2.0534 -2.3770 -1.1082
  429MOL0     H57859   5.897   7.712   1.312 -1.1017 -2.6973  0.2599
  429MOL0     H57860   5.656   7.789   1.282  0.0486 -0.1061  1.6889
  429MOL0     H57861   5.682   7.931   1.377 -0.1249 -1.6624  1.1965
  429MOL0     H57862   5.843   7.899   1.118 -1.0061 -2.5250 -0.3561
  429MOL0     H57863   5.821   8.031   1.217  2.9783 -1.8230  0.5380
  429MOL0     H57864   5.649   7.902   1.009 -0.5851  1.4499 -1.5554
  429MOL0     H57865   5.551   7.972   1.138  2.2990 -1.2238  1.8161
  429MOL0     H57866   5.594   8.233   1.216  1.5249  0.6550  0.9355
  429MOL0     H57867   5.754   8.477   1.193  1.1962  0.5155  0.0276
  429MOL0     H57868   5.778   8.509   1.024  2.8856  0.5219  3.7136
  429MOL0     H57869   5.498   8.476   1.157  1.0873  1.2665  2.8667
  429MOL0     H57870   5.571   8.626   1.103  1.2168 -0.5096  0.6525
  429MOL0     H57871   5.396   8.527   0.945 -0.9486 -2.0991  2.1611
  429MOL0     H57872   5.486   8.388   0.934 -2.7641 -0.7346  3.0718
  429MOL0     H57873   5.595   8.479   0.749  4.1541 -0.8754  0.6070
  429MOL0     H57874   5.686   8.586   0.850 -1.5112 -0.5558  4.5814
  429MOL0     H57875   5.519   8.915   0.773 -2.2196 -0.4101 -1.1607
  429MOL0     H57876   5.672   9.058   0.617  2.7292 -0.6130  0.2291
  429MOL0     H57877   5.987   9.122   0.203  3.8423 -1.8190 -1.1108
  429MOL0     H57878   6.050   9.188  -0.018  0.3134  0.0107 -2.0316
  429MOL0     H57879   6.051   8.879  -0.278  2.0334 -0.0052  0.5916
  429MOL0     H57880   5.923   8.950  -0.394  2.1862 -3.0770 -2.0714
  429MOL0     H57881   6.076   9.091  -0.482 -0.1013  0.1109  0.1887
  429MOL0     H57882   6.216   9.024  -0.390 -0.8670  2.3474  0.2174
  429MOL0     H57883   6.049   8.906  -0.620  2.7187  0.1469 -3.7659
  429MOL0     H57884   6.219   8.909  -0.606  0.6327  2.7007  1.5482
  429MOL0     H57885   6.097   8.698  -0.620  2.0412  2.8929 -1.8569
  429MOL0     H57886   6.053   8.707  -0.444 -0.8842  2.4984 -0.9072
  429MOL0     H57887   6.304   8.717  -0.402  1.2420 -1.2241 -0.7797
  429MOL0     H57888   6.331   8.672  -0.573 -0.2740 -2.4162 -0.8754
  429MOL0     H57889   6.143   8.521  -0.394 -0.0113 -2.4273  0.9389
  429MOL0     H57890   6.215   8.471  -0.555  2.5790 -1.1994  0.3952
  429MOL0     H57891   6.297   8.399  -0.304 -0.0190 -1.8689 -2.2742
  429MOL0     H57892   6.399   8.539  -0.318 -1.9388  1.5233 -1.3290
  429MOL0     H57893   6.390   8.331  -0.544 -0.5684 -1.4899  2.1533
  429MOL0     H57894   6.515   8.452  -0.510  0.4762 -3.3372 -1.6194
  429MOL0     H57895   5.770   8.911  -0.197 -4.3802  1.4530  0.3688
  429MOL0     H57896   5.680   8.862   0.020  1.4175 -2.3384 -3.0898
  429MOL0     H57897   5.789   8.702   0.422  4.2575 -1.1853  4.3166
  429MOL0     H57898   5.662   8.575   0.557 -0.6382  0.4274 -0.6758
  429MOL0     H57899   5.780   7.156   1.897 -0.2099  0.1713 -0.2950
  429MOL0     H57900   5.873   7.195   2.125 -0.0101  1.0883  1.4428
  429MOL0     H57901   6.118   7.575   2.365 -1.7253  1.3409  0.7059
  429MOL0     H57902   6.266   7.581   2.557  0.1005  0.7145 -2.6348
  429MOL0     H57903   6.071   7.413   2.934 -0.0735  0.9890 -0.0483
  429MOL0     H57904   6.198   7.487   2.999  0.3571  0.0964 -0.7765
  429MOL0     H57905   6.267   7.226   2.846 -0.2425  0.2821 -1.1488
  429MOL0     H57906   6.181   7.214   2.993 -0.5170 -2.8624 -3.3391
  429MOL0     H57907   6.364   7.365   3.103  0.6101  0.2575 -0.0389
  429MOL0     H57908   6.437   7.375   2.941 -0.3997 -0.8037 -1.3473
  429MOL0     H57909   6.562   7.220   3.087 -0.1990  0.0906  1.3009
  429MOL0     H57910   6.404   7.134   3.120 -0.8193 -0.5813 -2.1796
  429MOL0     H57911   6.570   6.911   2.839  4.1731  1.5532  0.5947
  429MOL0     H57912   6.017   7.280   2.757  1.5024 -0.2502  1.1437
  429MOL0     H57913   5.858   7.151   2.622 -2.6345  0.8924  1.6136
  429MOL0     H57914   5.756   7.280   2.614  0.4335  0.9031 -0.3411
  429MOL0     H57915   5.794   7.199   2.460 -3.0072  0.5361  1.1904
  430MOL0     O57916   1.704   1.939   6.256 -0.5016 -0.4861  0.2004
  430MOL0     C57917   1.620   1.855   6.269  0.4096 -0.0233  0.0016
  430MOL0     O57918   1.498   1.862   6.340  0.0176  0.4654 -0.3109
  430MOL0     C57919   1.436   1.987   6.322 -0.4857  0.3287  0.2112
  430MOL0     C57920   1.336   1.998   6.229  0.3418  0.6980 -1.0936
  430MOL0     C57921   1.270   2.125   6.215  0.4030  0.4228 -1.2399
  430MOL0     C57922   1.315   2.232   6.306 -0.8688 -0.6405  1.2896
  430MOL0     O57923   1.262   2.360   6.293  0.2260  0.0191  0.1990
  430MOL0     C57924   1.234   2.420   6.166 -0.5851  0.6016  0.2791
  430MOL0     C57925   1.167   2.565   6.170 -0.7309  0.2126 -0.3842
  430MOL0     C57926   1.237   2.654   6.279  0.8283  0.2630 -0.3540
  430MOL0     C57927   1.165   2.785   6.297 -0.3969  0.1235  0.2983
  430MOL0     C57928   1.246   2.917   6.310 -0.5284  0.6926  0.0460
  430MOL0     C57929   1.167   3.028   6.380 -0.9379 -0.2655  0.5665
  430MOL0     C57930   1.252   3.159   6.394  0.8575 -0.4173 -0.5917
  430MOL0     C57931   1.311   3.155   6.533 -0.9897 -0.1623  0.3766
  430MOL0     N57932   1.382   3.278   6.541 -0.7901 -0.1842  0.1181
  430MOL0     C57933   1.486   3.321   6.461  0.5242  0.2325  1.1894
  430MOL0     C57934   1.499   3.455   6.480  0.5137  0.5353 -0.7114
  430MOL0     C57935   1.588   3.558   6.419 -0.7539  0.6873 -0.1161
  430MOL0     C57936   1.742   3.529   6.433  0.5464  0.1552 -0.4789
  430MOL0     C57937   1.846   3.609   6.346  0.5040  0.0902  0.2434
  430MOL0     C57938   1.907   3.735   6.410  0.1914 -0.3998  0.1147
  430MOL0     O57939   1.995   3.690   6.510 -0.9427 -0.7370  0.9071
  430MOL0     C57940   2.054   3.783   6.594  0.2783  0.3126 -0.4205
  430MOL0     C57941   2.097   3.736   6.716 -0.3704  0.2439 -0.5585
  430MOL0     C57942   2.154   3.834   6.808  0.1723  0.0998 -0.2562
  430MOL0     C57943   2.160   3.972   6.778 -0.2134  1.0329 -1.3287
  430MOL0     C57944   2.222   4.066   6.871 -0.0738  0.1416 -0.0211
  430MOL0     O57945   2.215   4.059   7.010  0.8490 -0.1218  0.2699
  430MOL0     C57946   2.206   4.173   7.092  0.1393  0.5585  0.5475
  430MOL0     C57947   2.260   4.173   7.218  0.1540 -0.6641  0.1020
  430MOL0     C57948   2.249   4.287   7.296 -0.6807  1.1394  0.0726
  430MOL0     C57949   2.170   4.393   7.250  0.2974 -0.1601  0.4703
  430MOL0     O57950   2.177   4.517   7.317 -0.1959  0.7497  0.3025
  430MOL0     C57951   2.153   4.516   7.451  0.5861  0.2512 -1.2063
  430MOL0     C57952   2.068   4.648   7.477 -0.6926  0.7897  0.2459
  430MOL0     C57953   1.921   4.612   7.437  0.0278 -0.3814  0.2025
  430MOL0     C57954   1.852   4.754   7.430 -0.0012  0.1923  0.3063
  430MOL0     C57955   1.712   4.764   7.373 -0.4972 -0.2934 -0.3853
  430MOL0     C57956   1.664   4.913   7.365 -0.0800 -0.3699 -0.3077
  430MOL0     C57957   1.518   4.921   7.309 -0.7760  0.3615  0.3932
  430MOL0     C57958   1.511   4.899   7.153  0.0498  0.3573 -0.2021
  430MOL0    Cl57959   1.536   5.055   7.049  0.1392  0.0346  0.1610
  430MOL0     C57960   2.120   4.390   7.119  0.3861  0.4942  0.5852
  430MOL0     C57961   2.132   4.284   7.037  0.2484  0.7197 -1.0858
  430MOL0     O57962   2.264   4.165   6.815  1.2038  0.4345 -0.2695
  430MOL0     C57963   2.120   4.008   6.652 -0.1337  0.5485  0.5095
  430MOL0     C57964   2.068   3.914   6.563 -0.3164 -0.6668  0.0984
  430MOL0     N57965   1.393   3.488   6.566 -1.0755  0.2630  0.3115
  430MOL0     N57966   1.323   3.389   6.595  0.2202  1.2715 -0.2350
  430MOL0     C57967   1.423   2.219   6.390 -0.5598  0.3440 -0.8839
  430MOL0     C57968   1.482   2.097   6.401  0.5041  0.8272  0.0171
  430MOL0     C57969   1.638   1.708   6.225  0.2254  0.5109  0.6342
  430MOL0     C57970   1.534   1.609   6.237  0.0900  0.3211 -0.3085
  430MOL0     C57971   1.547   1.475   6.223 -0.1030 -0.0331  0.5553
  430MOL0     C57972   1.659   1.430   6.165  0.8673 -1.1218 -0.5326
  430MOL0     O57973   1.682   1.302   6.142 -0.0208  0.5344 -0.4210
  430MOL0     C57974   1.817   1.246   6.151  0.1497  0.0267 -0.4093
  430MOL0     C57975   1.827   1.110   6.224 -0.0077  0.5209 -0.0392
  430MOL0     C57976   1.769   1.005   6.129 -0.0638  0.2810  0.7164
  430MOL0     C57977   1.851   0.987   5.998 -0.4330  0.1690 -0.6668
  430MOL0     C57978   1.800   0.874   5.929  0.0659 -0.0251  0.1181
  430MOL0     C57979   1.766   0.774   5.866  0.9044 -0.3583 -0.4382
  430MOL0     C57980   1.767   1.523   6.155 -0.0527 -0.1125  0.6120
  430MOL0     C57981   1.758   1.655   6.181  0.3113  0.4154 -0.1708
  430MOL0     C57982   1.887   1.740   6.170 -0.0267  0.4987 -0.4030
  430MOL0     H57983   1.316   1.921   6.155  2.8315  1.5869 -2.8278
  430MOL0     H57984   1.187   2.136   6.147 -0.6017  0.3642 -0.0529
  430MOL0     H57985   1.327   2.419   6.108 -1.8978  3.2206 -2.1072
  430MOL0     H57986   1.167   2.361   6.103  0.8776  1.9641 -2.7474
  430MOL0     H57987   1.061   2.547   6.192 -0.8144 -0.1315 -1.0423
  430MOL0     H57988   1.173   2.613   6.072 -0.9132 -1.1973 -1.1079
  430MOL0     H57989   1.329   2.671   6.221  1.8115  1.1219  1.3553
  430MOL0     H57990   1.251   2.595   6.370  1.6548  2.1011  0.7757
  430MOL0     H57991   1.090   2.799   6.219 -0.1411  0.0407  0.0370
  430MOL0     H57992   1.120   2.761   6.394  1.0897 -1.3591  0.6861
  430MOL0     H57993   1.336   2.886   6.363 -0.1350 -1.0259 -1.5378
  430MOL0     H57994   1.278   2.944   6.210  1.3724 -5.3323 -1.3584
  430MOL0     H57995   1.072   3.044   6.329 -1.1898 -0.1255  1.0761
  430MOL0     H57996   1.135   2.996   6.480  1.9010  2.1907  2.4415
  430MOL0     H57997   1.179   3.241   6.384  0.6922 -0.6766 -1.6402
  430MOL0     H57998   1.317   3.155   6.306  0.9301 -3.7420 -0.4831
  430MOL0     H57999   1.250   3.142   6.622  1.3051 -0.1876  2.0290
  430MOL0     H58000   1.382   3.072   6.527 -1.0374 -0.1164 -3.2062
  430MOL0     H58001   1.549   3.261   6.396 -3.7000 -0.6660 -2.6805
  430MOL0     H58002   1.566   3.568   6.312 -0.9505  5.0230  0.1590
  430MOL0     H58003   1.569   3.656   6.464 -1.1318 -0.0691  1.4561
  430MOL0     H58004   1.767   3.540   6.539  0.7620 -0.6680 -0.4363
  430MOL0     H58005   1.753   3.422   6.414 -2.5791 -0.2229 -0.6498
  430MOL0     H58006   1.797   3.638   6.252 -0.1462 -0.9301  0.2517
  430MOL0     H58007   1.929   3.542   6.324  0.3204  0.0518 -0.3616
  430MOL0     H58008   1.828   3.794   6.457  1.8591  1.4800  0.7286
  430MOL0     H58009   1.963   3.795   6.338  1.6482 -1.7688  0.0523
  430MOL0     H58010   2.086   3.632   6.743 -0.8390  0.7263  1.2250
  430MOL0     H58011   2.188   3.803   6.907 -0.1721  2.5100  0.6842
  430MOL0     H58012   2.327   4.091   7.240  0.6425 -0.2546  0.1614
  430MOL0     H58013   2.309   4.289   7.386 -1.9732 -1.9485  1.1370
  430MOL0     H58014   2.100   4.428   7.488  1.4982  1.6369  4.3864
  430MOL0     H58015   2.248   4.525   7.505  2.6767 -2.9382 -3.9908
  430MOL0     H58016   2.072   4.671   7.584 -1.4147 -0.0190  0.4586
  430MOL0     H58017   2.105   4.737   7.426  0.8136  1.5075  2.4808
  430MOL0     H58018   1.918   4.567   7.337  0.6460 -2.2466  0.9692
  430MOL0     H58019   1.875   4.543   7.508 -4.3032  0.9407 -1.0296
  430MOL0     H58020   1.911   4.818   7.364 -3.4514  2.2134 -1.0924
  430MOL0     H58021   1.857   4.803   7.528  3.7064  0.2804  0.1856
  430MOL0     H58022   1.647   4.708   7.441 -0.9740  1.6110  0.8255
  430MOL0     H58023   1.711   4.724   7.272 -0.1655 -2.9431  0.5894
  430MOL0     H58024   1.674   4.942   7.470  1.8625  1.7033 -0.9838
  430MOL0     H58025   1.739   4.964   7.305 -0.9025 -2.7751 -3.6561
  430MOL0     H58026   1.475   5.019   7.330  0.9262  1.3363 -0.5106
  430MOL0     H58027   1.451   4.854   7.364 -0.0378  0.1529  1.0488
  430MOL0     H58028   1.598   4.837   7.128 -0.7120 -2.7882  3.9603
  430MOL0     H58029   1.421   4.843   7.125  0.0829  0.5477 -0.7015
  430MOL0     H58030   2.060   4.473   7.082  2.0897  0.8490 -1.6109
  430MOL0     H58031   2.073   4.283   6.946 -0.8628  0.0918 -0.3913
  430MOL0     H58032   2.122   4.107   6.607 -0.0577 -0.1768 -1.1351
  430MOL0     H58033   2.040   3.959   6.468 -1.9749 -3.0328 -0.6396
  430MOL0     H58034   1.458   2.304   6.447 -1.2721 -1.1208  1.9071
  430MOL0     H58035   1.552   2.082   6.483 -3.2415 -1.8371  3.0789
  430MOL0     H58036   1.440   1.650   6.273  0.8255 -0.1911  2.5028
  430MOL0     H58037   1.471   1.398   6.229 -1.4458  1.1498 -0.5591
  430MOL0     H58038   1.877   1.307   6.220 -3.7963  3.0885  0.7196
  430MOL0     H58039   1.880   1.257   6.062  4.5031  1.4801  2.5136
  430MOL0     H58040   1.775   1.105   6.320 -2.4909  0.1791 -1.3116
  430MOL0     H58041   1.931   1.087   6.247 -0.8013 -1.3296  2.0793
  430MOL0     H58042   1.662   1.028   6.118 -0.8909 -2.5184  1.9918
  430MOL0     H58043   1.790   0.917   6.190  1.3123  0.2384  0.2052
  430MOL0     H58044   1.832   1.080   5.944 -2.5787 -0.0999 -0.4481
  430MOL0     H58045   1.950   0.960   6.036 -1.4942  2.0089  4.0116
  430MOL0     H58046   1.717   0.699   5.806  0.7751 -3.7169  3.4638
  430MOL0     H58047   1.847   1.491   6.090 -1.5035  0.4482 -1.5789
  430MOL0     H58048   1.896   1.819   6.245  2.7529  1.6685 -1.8210
  430MOL0     H58049   1.975   1.676   6.184 -2.3045 -2.3080  2.5449
  430MOL0     H58050   1.902   1.788   6.073 -1.7121 -1.3974 -1.6702
  431MOL0     O58051   9.474   7.039   7.042 -0.2689  0.0386 -0.0766
  431MOL0     C58052   9.455   7.085   6.927  0.6932  0.5916 -0.0018
  431MOL0     O58053   9.351   7.178   6.903  0.3744  0.7409 -0.0002
  431MOL0     C58054   9.255   7.182   7.005 -0.1028 -0.4791  0.2354
  431MOL0     C58055   9.159   7.082   7.001 -0.0916 -0.5582 -0.3994
  431MOL0     C58056   9.053   7.094   7.091  0.4886 -0.5923 -0.0641
  431MOL0     C58057   9.048   7.202   7.187  0.5064  0.5170 -0.0137
  431MOL0     O58058   8.934   7.208   7.269  0.9290  0.1416 -0.4312
  431MOL0     C58059   8.943   7.282   7.395 -0.1682  0.1051 -0.7506
  431MOL0     C58060   8.801   7.255   7.461 -0.4832  0.7853  0.8019
  431MOL0     C58061   8.685   7.306   7.373 -0.9718  0.7044  0.2596
  431MOL0     C58062   8.642   7.450   7.405  0.2087  0.4504  0.0835
  431MOL0     C58063   8.526   7.504   7.318  0.2127 -0.6171  0.9617
  431MOL0     C58064   8.389   7.448   7.360 -1.0037 -0.3379 -0.2533
  431MOL0     C58065   8.296   7.471   7.247  0.6394 -0.4784  0.4380
  431MOL0     C58066   8.166   7.389   7.251  0.0573 -0.5252  0.7991
  431MOL0     N58067   8.056   7.449   7.330 -0.7905  0.1232  0.7043
  431MOL0     C58068   8.035   7.443   7.463 -0.0296  0.0857 -0.0134
  431MOL0     C58069   7.920   7.498   7.491  0.9768  0.2046  0.8323
  431MOL0     C58070   7.855   7.505   7.621 -0.8483  0.4934  0.8404
  431MOL0     C58071   7.783   7.650   7.639 -0.9139 -0.0535  0.0191
  431MOL0     C58072   7.715   7.654   7.779 -0.3140  0.2071 -0.4525
  431MOL0     C58073   7.648   7.790   7.810  0.3606 -0.0860  0.7633
  431MOL0     O58074   7.746   7.896   7.787 -0.1545  0.1412 -0.4645
  431MOL0     C58075   7.706   8.022   7.822 -0.0873 -0.1131  0.9326
  431MOL0     C58076   7.578   8.054   7.862 -0.3234  0.1324 -0.1151
  431MOL0     C58077   7.552   8.181   7.909  0.7293  0.2196 -0.4576
  431MOL0     C58078   7.652   8.283   7.903 -0.0122  1.2253  0.1797
  431MOL0     C58079   7.626   8.417   7.960  0.4028  1.3385  0.5845
  431MOL0     O58080   7.727   8.491   8.016  0.4513  0.1710  0.1095
  431MOL0     C58081   7.708   8.628   8.019  0.5637 -0.3280 -0.3404
  431MOL0     C58082   7.635   8.700   8.114  0.5135  0.4586  0.0490
  431MOL0     C58083   7.612   8.847   8.099 -0.8520  0.6475  0.4352
  431MOL0     C58084   7.681   8.909   7.995  0.3626 -0.0835 -0.1761
  431MOL0     O58085   7.678   9.049   7.968 -0.0892  0.0571  0.5288
  431MOL0     C58086   7.579   9.126   8.045 -0.9369 -0.7774  1.2939
  431MOL0     C58087   7.615   9.274   8.027  0.3832  0.3113 -0.5910
  431MOL0     C58088   7.753   9.304   8.074 -0.3539  0.0075 -0.4621
  431MOL0     C58089   7.737   9.351   8.218  0.2456  0.8357  1.1513
  431MOL0     C58090   7.863   9.325   8.299 -0.1930  0.0484 -0.4553
  431MOL0     C58091   7.997   9.377   8.249 -0.1186 -0.2750 -0.2802
  431MOL0     C58092   8.106   9.391   8.358 -1.0743 -0.1672 -0.0385
  431MOL0     C58093   8.179   9.255   8.368  1.1275 -0.0261 -0.6955
  431MOL0    Cl58094   8.120   9.180   8.521 -0.1656 -0.0746 -0.3664
  431MOL0     C58095   7.756   8.839   7.905 -0.0184  0.3996  0.0084
  431MOL0     C58096   7.765   8.699   7.915 -0.2889  0.2250  0.4801
  431MOL0     O58097   7.512   8.458   7.942  0.5538 -0.0494  0.0401
  431MOL0     C58098   7.778   8.249   7.843  0.4763 -0.6635 -1.0042
  431MOL0     C58099   7.811   8.120   7.812 -0.2409 -0.1788  0.7280
  431MOL0     N58100   7.868   7.536   7.368  0.0127 -0.9468  0.1641
  431MOL0     N58101   7.957   7.523   7.273  0.4131 -1.3103 -0.5752
  431MOL0     C58102   9.129   7.318   7.167  0.6559  0.6705 -0.2224
  431MOL0     C58103   9.247   7.297   7.086  0.0921  0.6108  0.0753
  431MOL0     C58104   9.547   7.055   6.814 -0.3949 -0.6062 -0.1474
  431MOL0     C58105   9.496   7.068   6.686  0.9530  0.8086 -0.9768
  431MOL0     C58106   9.580   7.051   6.572  0.1128  1.2755 -0.0014
  431MOL0     C58107   9.717   7.034   6.593 -0.2091  0.1781  0.8004
  431MOL0     O58108   9.784   7.040   6.478  0.5835  0.2804  0.0452
  431MOL0     C58109   9.913   6.986   6.470 -0.1160 -0.1892  0.0506
  431MOL0     C58110   9.912   6.833   6.478 -0.2834 -0.5581  0.3286
  431MOL0     C58111  10.056   6.772   6.474  0.4762  0.6842  0.3577
  431MOL0     C58112  10.130   6.803   6.603  0.2916  0.0280 -0.0435
  431MOL0     C58113  10.237   6.702   6.643  0.8204  1.0897  0.3929
  431MOL0     C58114  10.305   6.616   6.670  0.0405  0.3859 -0.4934
  431MOL0     C58115   9.761   7.030   6.721 -0.3629  0.0620 -0.4563
  431MOL0     C58116   9.678   7.043   6.835  0.3224  0.1318  0.5560
  431MOL0     C58117   9.742   7.052   6.969  0.6573 -0.3316 -0.7248
  431MOL0     H58118   9.161   6.994   6.938  2.4731 -1.2028  0.4308
  431MOL0     H58119   8.985   7.010   7.093 -1.2231  0.7629  0.5959
  431MOL0     H58120   9.019   7.236   7.460 -0.3023  0.8877 -0.0280
  431MOL0     H58121   8.966   7.388   7.387  1.2854 -0.0253  1.0427
  431MOL0     H58122   8.791   7.279   7.567  2.8624 -0.0558  1.4414
  431MOL0     H58123   8.779   7.148   7.460  2.1777  0.1659  0.5562
  431MOL0     H58124   8.608   7.230   7.388  1.1314 -1.6468 -0.1780
  431MOL0     H58125   8.699   7.307   7.265  2.1383  2.7107  0.5486
  431MOL0     H58126   8.614   7.456   7.511  0.2505  1.6044  0.0384
  431MOL0     H58127   8.714   7.530   7.387 -2.2833  2.3561 -2.1044
  431MOL0     H58128   8.515   7.613   7.320 -1.7148 -0.7833  1.3737
  431MOL0     H58129   8.564   7.481   7.218  2.4545  0.9764  1.3625
  431MOL0     H58130   8.392   7.338   7.366  1.4749 -0.3774 -0.7874
  431MOL0     H58131   8.358   7.489   7.456  2.6367  2.2711  0.0202
  431MOL0     H58132   8.344   7.453   7.150 -1.9260  0.0499 -1.0055
  431MOL0     H58133   8.278   7.578   7.256  3.4138 -0.0623  2.3928
  431MOL0     H58134   8.133   7.380   7.147 -1.9833  4.8435  0.6355
  431MOL0     H58135   8.184   7.294   7.302 -2.3931 -0.2737  2.3079
  431MOL0     H58136   8.101   7.399   7.537 -0.8678  1.9661  1.9579
  431MOL0     H58137   7.772   7.435   7.630 -1.7586  1.3025 -0.8759
  431MOL0     H58138   7.938   7.484   7.689  1.5490  2.7198 -1.1822
  431MOL0     H58139   7.856   7.730   7.625  0.5988 -1.2982  0.4865
  431MOL0     H58140   7.714   7.660   7.555  0.6839  0.2431 -1.3016
  431MOL0     H58141   7.788   7.628   7.857  0.1250 -3.5718 -1.9013
  431MOL0     H58142   7.638   7.578   7.793  1.0880 -1.0147  1.0142
  431MOL0     H58143   7.630   7.795   7.918  4.9734  1.4157  1.6845
  431MOL0     H58144   7.560   7.799   7.746  1.4792 -0.2058 -0.8345
  431MOL0     H58145   7.488   7.994   7.871 -5.1658  5.6025 -4.3321
  431MOL0     H58146   7.449   8.197   7.940  0.6927 -2.6873  1.3194
  431MOL0     H58147   7.603   8.651   8.206 -0.8691 -0.4844 -0.9025
  431MOL0     H58148   7.561   8.897   8.180  1.9603 -0.7551  3.2801
  431MOL0     H58149   7.477   9.109   8.009 -0.6483  0.2315 -0.0777
  431MOL0     H58150   7.580   9.097   8.151 -2.0238 -1.6516  1.0804
  431MOL0     H58151   7.601   9.299   7.922 -3.5170 -1.4134 -0.6390
  431MOL0     H58152   7.547   9.336   8.085  2.8082  0.8428  1.8781
  431MOL0     H58153   7.820   9.220   8.053 -0.8050 -0.4192 -0.2097
  431MOL0     H58154   7.791   9.393   8.023  1.9045 -0.3244  0.5286
  431MOL0     H58155   7.656   9.290   8.259 -0.3067  0.0758 -0.9327
  431MOL0     H58156   7.718   9.458   8.227  0.5203  0.8096  2.1972
  431MOL0     H58157   7.890   9.220   8.317  1.7376  0.9204  2.5120
  431MOL0     H58158   7.855   9.363   8.401  1.8001  0.8789 -0.5611
  431MOL0     H58159   8.026   9.309   8.168 -1.8097  0.2339 -1.3634
  431MOL0     H58160   7.979   9.477   8.207  0.6351 -0.3570 -0.8318
  431MOL0     H58161   8.068   9.430   8.454 -0.0121 -0.7633  0.6349
  431MOL0     H58162   8.176   9.465   8.318 -2.6215  1.6660  0.4872
  431MOL0     H58163   8.166   9.187   8.283 -2.1064 -2.3450  1.4019
  431MOL0     H58164   8.283   9.287   8.384  1.8430 -1.3523 -2.3557
  431MOL0     H58165   7.785   8.888   7.813  0.1255  0.8923  0.3144
  431MOL0     H58166   7.821   8.648   7.838  0.5096 -0.6960  1.6283
  431MOL0     H58167   7.849   8.327   7.815  1.4010 -1.4006 -0.7924
  431MOL0     H58168   7.910   8.084   7.786  0.2648  2.3259 -1.1144
  431MOL0     H58169   9.120   7.413   7.217 -1.2216  0.7098 -0.5866
  431MOL0     H58170   9.316   7.380   7.077  2.5832 -1.5384 -2.4490
  431MOL0     H58171   9.390   7.091   6.684 -0.0431 -2.8630  1.0702
  431MOL0     H58172   9.540   7.056   6.471 -0.5627 -2.1482 -0.0164
  431MOL0     H58173   9.983   7.031   6.542  3.3494 -1.7073 -2.1067
  431MOL0     H58174   9.954   7.011   6.372  0.0260 -1.7517 -0.3090
  431MOL0     H58175   9.865   6.804   6.384  0.5192  2.0087 -0.9690
  431MOL0     H58176   9.855   6.801   6.565 -2.1936 -0.7052 -0.9066
  431MOL0     H58177  10.108   6.816   6.388  0.5712  1.4899  0.8197
  431MOL0     H58178  10.050   6.664   6.459 -0.0759  0.9431 -1.4944
  431MOL0     H58179  10.185   6.896   6.584 -1.3694  0.5776 -2.6864
  431MOL0     H58180  10.060   6.818   6.685  0.3208  1.5428 -0.2622
  431MOL0     H58181  10.377   6.543   6.701 -2.6643 -2.4774 -0.5646
  431MOL0     H58182   9.869   7.021   6.718 -0.5066 -2.1943 -0.9653
  431MOL0     H58183   9.697   7.129   7.033 -0.6356 -1.8715  0.2985
  431MOL0     H58184   9.741   6.954   7.018  1.9263 -0.1826 -0.3531
  431MOL0     H58185   9.850   7.071   6.960  0.3505  1.7397 -0.5913
  432MOL0     O58186   7.948   9.740   3.991 -0.1815 -0.1687  0.3583
  432MOL0     C58187   7.927   9.701   3.873  0.7952 -0.4182 -0.0499
  432MOL0     O58188   8.012   9.702   3.762  0.4091  0.2507 -0.4157
  432MOL0     C58189   8.137   9.758   3.765  1.1896 -0.1312  0.1209
  432MOL0     C58190   8.234   9.703   3.685  0.1384  0.6980 -0.5127
  432MOL0     C58191   8.357   9.756   3.654 -0.0760  0.3039  0.0393
  432MOL0     C58192   8.375   9.881   3.702  0.7721 -0.3688 -0.1650
  432MOL0     O58193   8.497   9.924   3.657  0.0671 -0.1099  0.3130
  432MOL0     C58194   8.559  10.028   3.737 -0.1740 -0.2469 -0.3176
  432MOL0     C58195   8.687  10.072   3.669 -0.0301 -0.0992 -0.7528
  432MOL0     C58196   8.796   9.963   3.665 -0.2743 -0.8171  1.4636
  432MOL0     C58197   8.927  10.022   3.598  0.4970  0.2901 -0.2933
  432MOL0     C58198   9.046   9.937   3.619  1.1032  0.1128  0.2895
  432MOL0     C58199   9.171  10.016   3.565  0.0388  0.2544 -0.4840
  432MOL0     C58200   9.174  10.001   3.411  0.6482 -1.0257 -0.2806
  432MOL0     C58201   9.286  10.071   3.346 -0.9741  0.5112  0.4158
  432MOL0     N58202   9.269  10.220   3.338 -0.1334  0.0326 -1.0741
  432MOL0     C58203   9.366  10.302   3.385 -0.9377 -0.1593 -0.1979
  432MOL0     C58204   9.323  10.425   3.356  0.4539  0.4162 -0.8781
  432MOL0     C58205   9.377  10.559   3.390  0.8560  0.1381 -0.2494
  432MOL0     C58206   9.522  10.574   3.357  0.1224  0.4476 -0.1401
  432MOL0     C58207   9.589  10.708   3.397 -0.4011 -0.0415  0.7199
  432MOL0     C58208   9.609  10.713   3.550 -0.5327 -0.2376 -0.2145
  432MOL0     O58209   9.497  10.785   3.617  0.5043  0.3896  0.6855
  432MOL0     C58210   9.513  10.786   3.749 -0.0365  0.1206 -0.8056
  432MOL0     C58211   9.629  10.812   3.820 -0.9663 -0.0083 -0.0156
  432MOL0     C58212   9.648  10.805   3.961  0.6561  0.0592  0.7420
  432MOL0     C58213   9.537  10.753   4.041  0.7834  1.0638 -0.4487
  432MOL0     C58214   9.551  10.711   4.182 -0.2490  0.0349  0.6805
  432MOL0     O58215   9.659  10.750   4.258  0.0430  0.5896 -0.8683
  432MOL0     C58216   9.669  10.715   4.392 -0.7629 -0.3740 -0.0152
  432MOL0     C58217   9.681  10.583   4.451  0.5960 -0.3698 -0.5049
  432MOL0     C58218   9.681  10.552   4.596 -0.1253 -0.5312 -0.0536
  432MOL0     C58219   9.664  10.654   4.690 -0.0035 -0.0412  0.4663
  432MOL0     O58220   9.667  10.644   4.820 -0.1604  0.2755 -0.4153
  432MOL0     C58221   9.595  10.539   4.876  0.3941  0.3625 -0.2701
  432MOL0     C58222   9.475  10.593   4.961 -0.3917  0.4126 -0.7608
  432MOL0     C58223   9.413  10.466   5.029 -0.0796 -0.0042 -0.8470
  432MOL0     C58224   9.291  10.488   5.114 -0.3677  0.5541  0.1531
  432MOL0     C58225   9.238  10.371   5.200  0.1968 -0.6395  0.4033
  432MOL0     C58226   9.319  10.351   5.329 -0.0635 -0.1066 -0.8789
  432MOL0     C58227   9.227  10.289   5.447 -0.2652 -0.1416  0.3661
  432MOL0     C58228   9.205  10.392   5.548  0.2684 -0.1331 -0.1228
  432MOL0    Cl58229   9.362  10.426   5.627 -0.2046  0.2510 -0.0512
  432MOL0     C58230   9.656  10.788   4.630  0.5779 -0.6120  0.2302
  432MOL0     C58231   9.653  10.814   4.493  0.1866 -0.4722 -0.8572
  432MOL0     O58232   9.468  10.632   4.229  0.2341 -1.0886 -0.2952
  432MOL0     C58233   9.411  10.726   3.979 -0.5090 -0.1908 -0.1359
  432MOL0     C58234   9.407  10.736   3.836  0.4070 -0.6694  0.1015
  432MOL0     N58235   9.189  10.407   3.316 -0.2411  0.1044  0.2051
  432MOL0     N58236   9.155  10.289   3.310 -1.1850 -0.1367 -0.7795
  432MOL0     C58237   8.283   9.940   3.794  0.1605 -0.1785  0.2799
  432MOL0     C58238   8.168   9.879   3.832 -0.7323 -0.6159 -0.0211
  432MOL0     C58239   7.796   9.639   3.845  0.1573 -0.4313  0.0921
  432MOL0     C58240   7.768   9.620   3.705  0.4776  0.3357  0.6180
  432MOL0     C58241   7.643   9.553   3.676  0.6908 -1.2910  0.3329
  432MOL0     C58242   7.545   9.510   3.763 -0.6908 -0.3093  0.2669
  432MOL0     O58243   7.434   9.454   3.708  0.6402  0.0230 -0.4621
  432MOL0     C58244   7.332   9.382   3.785 -0.4245 -0.4550  0.0649
  432MOL0     C58245   7.197   9.476   3.780 -0.5031 -0.9155 -0.0337
  432MOL0     C58246   7.091   9.429   3.875 -0.4926 -0.6607  0.1750
  432MOL0     C58247   6.953   9.475   3.829 -0.3710 -0.3007 -0.5195
  432MOL0     C58248   6.847   9.444   3.918  0.6558  0.4300  0.4370
  432MOL0     C58249   6.759   9.435   4.002 -0.4572 -0.0333 -0.1979
  432MOL0     C58250   7.573   9.531   3.903 -0.6300  0.2974 -0.7145
  432MOL0     C58251   7.697   9.591   3.941  0.5340  0.2146  0.2252
  432MOL0     C58252   7.711   9.597   4.092 -0.5698  0.3883 -0.3098
  432MOL0     H58253   8.222   9.609   3.633  2.8295  0.6171 -1.1476
  432MOL0     H58254   8.423   9.699   3.590 -1.9662  2.2848 -4.0624
  432MOL0     H58255   8.503  10.121   3.749  1.1874  0.3326  2.0942
  432MOL0     H58256   8.585   9.989   3.835  1.0236 -1.9420 -1.2653
  432MOL0     H58257   8.725  10.164   3.715 -1.8629 -0.1478  0.9934
  432MOL0     H58258   8.660  10.105   3.568  0.7687  2.9715 -0.0826
  432MOL0     H58259   8.756   9.881   3.604  1.4856 -0.9311  0.3887
  432MOL0     H58260   8.819   9.930   3.767 -1.5140 -2.9428  1.1192
  432MOL0     H58261   8.903  10.047   3.495 -0.5434  0.1942 -0.0825
  432MOL0     H58262   8.948  10.115   3.652  0.8674 -0.0471  0.1600
  432MOL0     H58263   9.059   9.916   3.726  0.1528  0.4300  0.4722
  432MOL0     H58264   9.024   9.841   3.572 -2.3978  0.5614  0.7791
  432MOL0     H58265   9.160  10.121   3.592 -2.3056  0.2733 -1.3315
  432MOL0     H58266   9.267   9.984   3.608 -0.6977 -0.5905  0.6213
  432MOL0     H58267   9.090  10.039   3.352  0.3213 -0.1789  0.6988
  432MOL0     H58268   9.177   9.894   3.387  0.5423 -0.6657 -2.0180
  432MOL0     H58269   9.373  10.025   3.393 -0.7446 -3.2776 -3.1406
  432MOL0     H58270   9.286  10.033   3.244  0.2253  0.1115  0.5460
  432MOL0     H58271   9.461  10.280   3.431 -0.1003  1.6661 -0.9584
  432MOL0     H58272   9.328  10.637   3.331  0.2087  0.2619  0.4341
  432MOL0     H58273   9.364  10.577   3.497 -2.3143 -1.0246 -0.3118
  432MOL0     H58274   9.580  10.501   3.416 -1.3768  0.2082  1.0918
  432MOL0     H58275   9.530  10.544   3.252 -1.1324 -2.2694  0.4542
  432MOL0     H58276   9.528  10.792   3.365  0.8051 -0.1663 -2.1887
  432MOL0     H58277   9.675  10.709   3.330 -1.2450 -1.8786 -0.4779
  432MOL0     H58278   9.701  10.762   3.583 -1.7636  1.5660  0.7057
  432MOL0     H58279   9.608  10.608   3.583 -0.3392  0.3524  1.8289
  432MOL0     H58280   9.712  10.845   3.761 -1.9547  0.8140 -0.9774
  432MOL0     H58281   9.743  10.835   4.005  0.7503 -1.9788  2.0700
  432MOL0     H58282   9.678  10.496   4.386  0.1795 -0.1620 -0.7637
  432MOL0     H58283   9.698  10.450   4.629 -1.7173 -1.1524 -1.0504
  432MOL0     H58284   9.539  10.474   4.808  1.5143 -0.5030 -0.4067
  432MOL0     H58285   9.661  10.469   4.928 -1.3258 -0.7326  0.5165
  432MOL0     H58286   9.521  10.649   5.042 -2.3856 -1.4535  1.8568
  432MOL0     H58287   9.403  10.661   4.915  0.9543  2.2843 -0.1857
  432MOL0     H58288   9.398  10.389   4.953  2.8121  0.0004 -1.5535
  432MOL0     H58289   9.489  10.429   5.099  0.5703  1.1442 -0.9088
  432MOL0     H58290   9.217  10.523   5.041  2.2866  0.3411 -2.8463
  432MOL0     H58291   9.309  10.574   5.180 -0.3663  0.4747  0.2569
  432MOL0     H58292   9.245  10.278   5.143 -0.8738 -1.5507  1.7134
  432MOL0     H58293   9.134  10.392   5.224  0.5121 -0.0342  1.2586
  432MOL0     H58294   9.413  10.295   5.321  2.2522  2.9493  2.1214
  432MOL0     H58295   9.355  10.442   5.376  0.7070 -2.1493  2.8622
  432MOL0     H58296   9.276  10.205   5.496 -2.0301 -0.9815  0.7611
  432MOL0     H58297   9.130  10.263   5.405  0.1557 -0.0350 -0.7164
  432MOL0     H58298   9.176  10.483   5.494  1.0429  0.9344  1.1797
  432MOL0     H58299   9.118  10.363   5.607 -0.2427 -3.1787 -2.1816
  432MOL0     H58300   9.667  10.874   4.695  1.0990 -0.6700  0.2283
  432MOL0     H58301   9.653  10.914   4.453  0.5791 -0.5125 -0.9605
  432MOL0     H58302   9.332  10.681   4.038 -0.9069 -0.1233 -0.6080
  432MOL0     H58303   9.312  10.713   3.788  0.1579 -1.5728  0.9869
  432MOL0     H58304   8.300  10.036   3.842 -1.2123  1.1786 -1.7564
  432MOL0     H58305   8.107   9.929   3.908  1.0091  1.3569  0.1746
  432MOL0     H58306   7.828   9.651   3.619  0.8289 -0.1511  0.6861
  432MOL0     H58307   7.616   9.552   3.570 -0.4951  3.8980  0.3079
  432MOL0     H58308   7.356   9.380   3.892 -4.6560 -0.1682  1.1675
  432MOL0     H58309   7.319   9.281   3.747 -0.4051 -0.5633  0.3429
  432MOL0     H58310   7.168   9.491   3.676 -1.0989  0.9554  0.3579
  432MOL0     H58311   7.220   9.575   3.820  0.6589 -1.9875  2.1102
  432MOL0     H58312   7.117   9.462   3.976 -0.7977  0.4446 -0.0903
  432MOL0     H58313   7.094   9.320   3.872 -1.3045 -0.7358  1.5316
  432MOL0     H58314   6.967   9.582   3.810  0.6301 -0.0269  1.5330
  432MOL0     H58315   6.926   9.431   3.733 -0.6373 -6.1633  1.8679
  432MOL0     H58316   6.673   9.448   4.065 -0.7896 -3.0469  0.1001
  432MOL0     H58317   7.496   9.508   3.975 -2.0630  1.6473 -1.7435
  432MOL0     H58318   7.651   9.524   4.147  1.3866 -1.2715 -0.2497
  432MOL0     H58319   7.814   9.577   4.123 -1.6094  1.5558  4.7238
  432MOL0     H58320   7.685   9.696   4.130 -1.1855  0.3281 -0.5638
  433MOL0     O58321   9.287   9.079   7.096 -0.2666  0.0731 -0.7366
  433MOL0     C58322   9.351   9.144   7.012  0.8799 -0.5884  0.4010
  433MOL0     O58323   9.294   9.219   6.912 -0.3836 -0.0119  0.1933
  433MOL0     C58324   9.156   9.239   6.914 -0.4501  0.2294 -0.2047
  433MOL0     C58325   9.079   9.177   6.813 -1.0853 -1.1939  0.2696
  433MOL0     C58326   8.935   9.175   6.830 -0.1148  0.0947 -0.7895
  433MOL0     C58327   8.876   9.230   6.940  0.7482  0.5373 -0.6890
  433MOL0     O58328   8.741   9.204   6.972  0.0602 -0.7319 -0.0962
  433MOL0     C58329   8.633   9.285   6.921 -0.3958 -0.8023 -0.1793
  433MOL0     C58330   8.645   9.437   6.975  0.2502  0.8757  0.8565
  433MOL0     C58331   8.536   9.488   7.060 -0.4174 -0.6477 -0.4007
  433MOL0     C58332   8.403   9.526   6.992 -0.0219 -0.5070 -0.4879
  433MOL0     C58333   8.327   9.635   7.072 -0.3283 -0.1974 -0.8842
  433MOL0     C58334   8.262   9.561   7.203 -0.0468 -0.8328 -0.6055
  433MOL0     C58335   8.194   9.639   7.312 -0.6032  0.9476 -0.5072
  433MOL0     C58336   8.085   9.730   7.252 -1.3875  0.0217  1.6419
  433MOL0     N58337   7.962   9.649   7.236 -0.2852 -0.8785  0.4692
  433MOL0     C58338   7.877   9.673   7.135  0.2828  0.4518  0.4738
  433MOL0     C58339   7.751   9.634   7.170 -0.2960 -0.7479  0.7898
  433MOL0     C58340   7.632   9.650   7.078 -0.7956  0.2368 -0.3276
  433MOL0     C58341   7.543   9.764   7.125  0.9878 -0.1506  0.1986
  433MOL0     C58342   7.461   9.739   7.256 -0.0236 -0.9643 -0.7979
  433MOL0     C58343   7.360   9.622   7.265  0.0524 -0.5069  1.2489
  433MOL0     O58344   7.308   9.618   7.397 -0.0931  0.6200  0.0896
  433MOL0     C58345   7.226   9.513   7.427 -0.6901  0.9283 -0.0731
  433MOL0     C58346   7.164   9.518   7.556  0.1594  0.4455  1.1071
  433MOL0     C58347   7.074   9.421   7.585  0.8129  0.0217  0.6889
  433MOL0     C58348   7.044   9.311   7.503  0.0384  0.0074  0.2967
  433MOL0     C58349   6.952   9.208   7.549 -0.6504 -0.4652  0.3937
  433MOL0     O58350   6.952   9.185   7.684 -0.1861  0.7058 -0.3426
  433MOL0     C58351   6.868   9.078   7.720 -0.2468  0.0117 -0.5207
  433MOL0     C58352   6.788   9.095   7.834 -0.0411 -0.6770  0.5158
  433MOL0     C58353   6.702   8.994   7.887 -0.4039 -0.4530  0.1286
  433MOL0     C58354   6.711   8.867   7.835 -0.0880  0.3155  0.2295
  433MOL0     O58355   6.644   8.762   7.894 -0.9214 -0.3744  0.5319
  433MOL0     C58356   6.554   8.776   8.005 -0.7635 -0.6319 -0.0187
  433MOL0     C58357   6.519   8.630   8.025 -0.7466  0.3037 -0.3295
  433MOL0     C58358   6.453   8.608   8.160  0.1265  0.6892  0.2038
  433MOL0     C58359   6.432   8.460   8.182 -0.3787 -0.3783 -0.4702
  433MOL0     C58360   6.322   8.387   8.099  0.4353 -0.6002 -0.7820
  433MOL0     C58361   6.282   8.261   8.172  0.5496  0.6934 -0.1367
  433MOL0     C58362   6.218   8.147   8.084 -0.4930 -0.4764  0.3199
  433MOL0     C58363   6.212   8.015   8.158  0.7156 -0.2208 -0.0913
  433MOL0    Cl58364   6.171   8.014   8.328  0.2752 -0.0971  0.2576
  433MOL0     C58365   6.785   8.848   7.723 -0.2455 -0.3695  0.5383
  433MOL0     C58366   6.863   8.942   7.662 -1.2696 -0.5191  0.6162
  433MOL0     O58367   6.886   9.152   7.463  0.0433 -0.4546  0.0492
  433MOL0     C58368   7.108   9.307   7.371  0.0563  1.0422  0.4536
  433MOL0     C58369   7.201   9.402   7.339  0.5320 -0.1722  0.3948
  433MOL0     N58370   7.761   9.584   7.300 -0.0478 -0.3761  1.1939
  433MOL0     N58371   7.881   9.599   7.340  0.3390 -0.4504 -0.1258
  433MOL0     C58372   8.957   9.284   7.036 -0.1694 -0.1184 -0.0347
  433MOL0     C58373   9.092   9.292   7.027  0.3548 -0.0177  0.1835
  433MOL0     C58374   9.501   9.151   7.017  0.3980  0.5610 -0.1123
  433MOL0     C58375   9.562   9.285   7.014 -0.0880  0.8057 -0.6176
  433MOL0     C58376   9.701   9.297   7.034  0.8288 -0.8738  0.4935
  433MOL0     C58377   9.777   9.183   7.063  0.4175 -0.1296  0.2699
  433MOL0     O58378   9.907   9.188   7.071 -0.5284  0.5074  0.0165
  433MOL0     C58379   9.947   9.208   7.213  0.1091  1.4211 -0.9612
  433MOL0     C58380  10.052   9.106   7.256  0.2170 -0.5221  0.0942
  433MOL0     C58381  10.112   9.149   7.392 -0.1245  0.5942 -0.0743
  433MOL0     C58382  10.211   9.038   7.451  0.5014  0.1675 -0.1905
  433MOL0     C58383  10.328   9.027   7.354  0.3372 -0.3641  0.6133
  433MOL0     C58384  10.414   9.034   7.268 -0.6196  0.3537 -0.4556
  433MOL0     C58385   9.722   9.060   7.059  0.2700  0.0395  0.1218
  433MOL0     C58386   9.583   9.033   7.033  0.3963  0.0620  0.5624
  433MOL0     C58387   9.540   8.890   7.018  1.1127 -0.0714 -0.5027
  433MOL0     H58388   9.126   9.126   6.729  2.8349  0.3613  1.2807
  433MOL0     H58389   8.863   9.137   6.758 -0.3778  1.1507 -1.1138
  433MOL0     H58390   8.627   9.285   6.811 -2.0898  3.0580 -0.2282
  433MOL0     H58391   8.536   9.244   6.949  0.3034 -3.1453 -0.9641
  433MOL0     H58392   8.653   9.517   6.900 -0.2123  2.3216  2.3069
  433MOL0     H58393   8.737   9.442   7.032  2.6452 -3.8821 -1.9169
  433MOL0     H58394   8.567   9.583   7.104  1.4662 -1.3666 -0.0825
  433MOL0     H58395   8.520   9.408   7.133 -0.3901 -0.0801  0.2433
  433MOL0     H58396   8.403   9.547   6.884 -0.3880 -0.1442 -0.4204
  433MOL0     H58397   8.337   9.439   6.989  0.5312 -0.9429 -0.1892
  433MOL0     H58398   8.390   9.722   7.095 -1.2455  0.0090  0.9728
  433MOL0     H58399   8.249   9.674   7.005  1.5906  0.3469 -2.9507
  433MOL0     H58400   8.194   9.492   7.152  0.2172 -0.8082 -0.9976
  433MOL0     H58401   8.330   9.487   7.246 -1.5081 -0.3367  2.9126
  433MOL0     H58402   8.274   9.681   7.373 -0.3004 -2.9034  2.1431
  433MOL0     H58403   8.159   9.558   7.377  0.3181 -1.1566 -2.4985
  433MOL0     H58404   8.074   9.811   7.325  0.7789 -0.0385  2.0934
  433MOL0     H58405   8.111   9.784   7.161 -1.3040  2.3843  2.9806
  433MOL0     H58406   7.919   9.706   7.040  2.2563 -0.7827  0.8459
  433MOL0     H58407   7.666   9.672   6.976  0.0736  0.9034  0.0900
  433MOL0     H58408   7.567   9.563   7.081 -4.7168  2.9019  2.7680
  433MOL0     H58409   7.606   9.852   7.141  0.2329  0.1128  2.0916
  433MOL0     H58410   7.464   9.794   7.055 -0.1093 -1.9866  0.5800
  433MOL0     H58411   7.400   9.826   7.280  1.4319 -0.1942  0.2480
  433MOL0     H58412   7.533   9.734   7.338  0.9988 -2.4771 -1.7110
  433MOL0     H58413   7.408   9.528   7.238 -1.8946 -1.3437  0.4863
  433MOL0     H58414   7.288   9.642   7.185 -1.7830 -2.4402  2.3016
  433MOL0     H58415   7.204   9.596   7.620  1.2381  0.8599 -0.0287
  433MOL0     H58416   7.039   9.426   7.688  1.0023 -1.4502  0.8479
  433MOL0     H58417   6.797   9.194   7.880  1.1251  1.2892 -3.4803
  433MOL0     H58418   6.638   9.000   7.974 -0.5861 -4.8778  0.5024
  433MOL0     H58419   6.611   8.819   8.088 -1.6444  1.9845 -0.6802
  433MOL0     H58420   6.461   8.828   7.978  0.5501  1.5720 -0.6010
  433MOL0     H58421   6.459   8.597   7.940 -1.2279  1.4252 -0.4422
  433MOL0     H58422   6.613   8.575   8.040 -0.5183  1.3761  3.0420
  433MOL0     H58423   6.511   8.659   8.237  0.1124  0.3486  0.4425
  433MOL0     H58424   6.353   8.653   8.163 -1.3383 -2.3482  0.8068
  433MOL0     H58425   6.405   8.450   8.288 -1.6992  1.3394 -0.5976
  433MOL0     H58426   6.528   8.410   8.173  1.3213  2.5379  0.2701
  433MOL0     H58427   6.374   8.367   8.004  1.9474  3.6189 -1.0598
  433MOL0     H58428   6.232   8.450   8.094 -0.7668 -2.3424 -2.3278
  433MOL0     H58429   6.361   8.212   8.230  1.6822 -0.0178 -2.1880
  433MOL0     H58430   6.197   8.289   8.235 -0.1178 -0.7048 -0.3761
  433MOL0     H58431   6.289   8.133   8.002 -0.5778  2.7329 -0.4585
  433MOL0     H58432   6.120   8.173   8.045 -0.3121 -1.1484 -0.6105
  433MOL0     H58433   6.133   7.952   8.116  1.2329 -1.3151  0.5369
  433MOL0     H58434   6.311   7.976   8.134  0.0699 -0.5222 -2.5990
  433MOL0     H58435   6.787   8.740   7.709 -1.2780 -0.4990  1.3053
  433MOL0     H58436   6.921   8.926   7.572 -1.2954 -1.8250  0.8062
  433MOL0     H58437   7.078   9.238   7.293  0.0079  0.6132  0.8470
  433MOL0     H58438   7.260   9.380   7.250 -1.2353 -3.6367 -0.1077
  433MOL0     H58439   8.919   9.306   7.135  0.7939 -0.6575  0.4702
  433MOL0     H58440   9.152   9.320   7.113  0.8941 -1.2118  0.2216
  433MOL0     H58441   9.496   9.370   7.000 -0.0268  0.9834  0.1504
  433MOL0     H58442   9.744   9.396   7.038  1.0764 -0.8690 -1.5872
  433MOL0     H58443   9.863   9.193   7.281  0.3447  0.1194 -0.9445
  433MOL0     H58444   9.993   9.305   7.235  1.3956  0.8202 -0.8678
  433MOL0     H58445  10.129   9.095   7.179  0.1442  0.7743 -0.1830
  433MOL0     H58446  10.011   9.004   7.263  1.4748 -1.0314  0.2834
  433MOL0     H58447  10.031   9.151   7.465  1.0707  3.3598  1.3375
  433MOL0     H58448  10.151   9.252   7.393  1.9103 -0.0674 -1.9753
  433MOL0     H58449  10.238   9.070   7.552 -0.8526 -0.2488  0.3289
  433MOL0     H58450  10.166   8.941   7.473 -0.7226  1.4707  3.9818
  433MOL0     H58451  10.497   9.027   7.200  1.5120 -0.4488  2.0355
  433MOL0     H58452   9.784   8.972   7.073 -2.1420 -1.2778  4.2127
  433MOL0     H58453   9.627   8.839   6.975  0.2042 -1.5620 -0.6462
  433MOL0     H58454   9.502   8.845   7.111  1.3627 -1.0008 -0.8342
  433MOL0     H58455   9.459   8.886   6.945 -0.1396  1.7625  0.7158
  434MOL0     O58456   9.975   0.227   7.452 -0.6983 -0.1544  0.4281
  434MOL0     C58457   9.872   0.158   7.466 -0.4057 -0.3268 -0.2739
  434MOL0     O58458   9.764   0.160   7.388 -0.0557 -0.0400 -0.1000
  434MOL0     C58459   9.755   0.283   7.327  0.6896 -1.2528  1.1037
  434MOL0     C58460   9.802   0.308   7.202  0.5974 -0.1579 -0.0194
  434MOL0     C58461   9.790   0.438   7.161  0.7200  0.5694  0.2150
  434MOL0     C58462   9.737   0.543   7.233 -0.0949 -1.3972 -0.0351
  434MOL0     O58463   9.751   0.674   7.186  0.0885 -0.2362  0.3398
  434MOL0     C58464   9.691   0.790   7.261 -0.5262 -0.0002 -0.1398
  434MOL0     C58465   9.772   0.851   7.374 -0.3037 -0.0770  1.2940
  434MOL0     C58466   9.888   0.939   7.317  0.8717  1.2311 -0.3184
  434MOL0     C58467  10.014   0.945   7.402  0.4264  0.5641 -1.0635
  434MOL0     C58468  10.128   1.008   7.321  0.6303  0.6036 -0.4675
  434MOL0     C58469  10.262   0.990   7.385  0.4192 -0.3803 -0.9877
  434MOL0     C58470  10.358   0.994   7.266 -0.6536  0.2791  0.1688
  434MOL0     C58471  10.491   0.996   7.331  0.3083 -0.2800  0.0475
  434MOL0     N58472  10.582   1.019   7.224  0.3234 -0.0377 -0.2975
  434MOL0     C58473  10.624   0.911   7.142 -0.5617  0.0829 -1.7322
  434MOL0     C58474  10.711   0.966   7.053 -0.0194  0.6184  0.1253
  434MOL0     C58475  10.790   0.890   6.953  0.6759  0.0999 -0.4331
  434MOL0     C58476  10.679   0.809   6.881 -0.4601  0.2148 -1.1687
  434MOL0     C58477  10.744   0.743   6.753  0.1893  0.3440 -0.8247
  434MOL0     C58478  10.655   0.657   6.664  0.5459 -0.4463 -0.4566
  434MOL0     O58479  10.591   0.563   6.752  0.7111  0.1813 -0.1885
  434MOL0     C58480  10.503   0.471   6.705  0.0970 -0.4932  0.2094
  434MOL0     C58481  10.434   0.390   6.797  0.0516  0.2365 -0.0054
  434MOL0     C58482  10.333   0.307   6.751  0.1910  0.0703  0.1258
  434MOL0     C58483  10.311   0.285   6.618  1.2383  0.7660 -0.6947
  434MOL0     C58484  10.208   0.191   6.584 -0.0959  0.2327  0.5602
  434MOL0     O58485  10.115   0.161   6.679  0.0790 -0.0428 -0.8687
  434MOL0     C58486   9.996   0.096   6.646  0.5245  0.2538 -0.6073
  434MOL0     C58487   9.942   0.012   6.749  0.4582  0.6807  0.4364
  434MOL0     C58488   9.814  -0.042   6.730 -0.1095  0.0025  0.2197
  434MOL0     C58489   9.755  -0.033   6.602 -0.2898  1.2297 -0.6081
  434MOL0     O58490   9.636  -0.104   6.574 -0.6399  0.5849  0.2578
  434MOL0     C58491   9.679  -0.222   6.506 -0.0393 -0.4943 -0.1486
  434MOL0     C58492   9.662  -0.343   6.603 -0.4984 -0.8018  0.4354
  434MOL0     C58493   9.523  -0.348   6.673  0.1001 -0.4545 -0.4786
  434MOL0     C58494   9.411  -0.350   6.579  1.3600  0.2991 -0.3169
  434MOL0     C58495   9.280  -0.372   6.651  0.3712 -0.4740  0.8600
  434MOL0     C58496   9.167  -0.345   6.543 -0.9050 -0.7634 -0.0879
  434MOL0     C58497   9.023  -0.374   6.611  0.4730 -1.4533 -0.7952
  434MOL0     C58498   9.000  -0.312   6.755  0.7056  0.8056  0.0410
  434MOL0    Cl58499   8.853  -0.388   6.814  0.2537  0.2290  0.2887
  434MOL0     C58500   9.816   0.046   6.501  0.3154 -0.2198  0.7297
  434MOL0     C58501   9.931   0.119   6.525  0.1053  0.6276 -0.6284
  434MOL0     O58502  10.201   0.147   6.460 -0.6139 -0.6182 -0.0626
  434MOL0     C58503  10.400   0.338   6.528 -1.1571  0.4257  0.5332
  434MOL0     C58504  10.495   0.436   6.573  0.5290 -1.2333  0.0433
  434MOL0     N58505  10.718   1.097   7.083 -0.7289 -1.2629  0.3578
  434MOL0     N58506  10.649   1.128   7.189 -0.3870 -0.5136  0.4572
  434MOL0     C58507   9.684   0.513   7.363 -0.0708  0.6177 -0.3825
  434MOL0     C58508   9.691   0.384   7.409 -0.0154  0.5285  0.5115
  434MOL0     C58509   9.868   0.063   7.574 -0.4007 -0.8161  0.1368
  434MOL0     C58510   9.973   0.074   7.666  0.4560  0.0098 -0.0033
  434MOL0     C58511   9.979   0.000   7.781 -0.8831 -0.2003  0.0024
  434MOL0     C58512   9.890  -0.104   7.803 -0.5832  0.0225  0.6070
  434MOL0     O58513   9.908  -0.194   7.902 -0.0372 -1.0810 -0.4253
  434MOL0     C58514   9.918  -0.139   8.035  0.5899  0.5791  0.0529
  434MOL0     C58515   9.810  -0.199   8.123  0.7211  0.0664  0.2915
  434MOL0     C58516   9.848  -0.343   8.144 -0.5680 -0.3048 -0.1993
  434MOL0     C58517   9.747  -0.426   8.220 -0.1902 -0.7771 -0.5298
  434MOL0     C58518   9.624  -0.444   8.138 -0.0885 -0.7657 -0.8274
  434MOL0     C58519   9.529  -0.463   8.066  0.0325 -0.4458  0.3334
  434MOL0     C58520   9.791  -0.124   7.713  0.1872 -0.9846  0.6291
  434MOL0     C58521   9.767  -0.037   7.600 -0.4182 -0.1480 -0.4696
  434MOL0     C58522   9.652  -0.087   7.509 -0.0313  0.5196 -0.2456
  434MOL0     H58523   9.856   0.226   7.155 -1.0205 -1.0383 -0.3884
  434MOL0     H58524   9.845   0.459   7.070  0.4384  3.8983  0.6901
  434MOL0     H58525   9.675   0.870   7.188 -0.0570  1.1323  0.9608
  434MOL0     H58526   9.590   0.772   7.300 -0.1028  0.1296  1.0332
  434MOL0     H58527   9.818   0.775   7.438  3.7176  1.2774  0.2829
  434MOL0     H58528   9.708   0.918   7.432  1.0928 -0.1468  3.0308
  434MOL0     H58529   9.837   1.036   7.310 -3.8636 -0.7668  2.3051
  434MOL0     H58530   9.908   0.903   7.215 -0.7214 -0.7645  0.0096
  434MOL0     H58531  10.001   0.994   7.499  2.3625 -0.5381 -0.1898
  434MOL0     H58532  10.040   0.846   7.441 -2.3631  1.5549  4.1744
  434MOL0     H58533  10.113   0.951   7.229 -1.5286 -0.8742  0.7037
  434MOL0     H58534  10.089   1.110   7.319 -0.2752  0.5048  3.4446
  434MOL0     H58535  10.274   1.066   7.462 -1.9510 -0.6990 -0.2096
  434MOL0     H58536  10.259   0.889   7.426 -2.5440 -0.0427 -0.1309
  434MOL0     H58537  10.334   1.086   7.212  2.7166  0.1033 -1.8915
  434MOL0     H58538  10.348   0.905   7.203  0.7612 -1.1711  1.8798
  434MOL0     H58539  10.497   1.083   7.397 -0.2483  0.9786 -1.4809
  434MOL0     H58540  10.523   0.901   7.375  1.3239  0.6630  1.3949
  434MOL0     H58541  10.601   0.807   7.167  2.8144 -0.0879  1.4687
  434MOL0     H58542  10.849   0.940   6.876 -2.5945 -0.0792 -3.3392
  434MOL0     H58543  10.863   0.825   7.000  0.2582 -0.3828 -0.4408
  434MOL0     H58544  10.645   0.738   6.957  2.0896 -2.2329 -2.1325
  434MOL0     H58545  10.602   0.879   6.847  1.2884  1.1853 -3.3819
  434MOL0     H58546  10.840   0.696   6.778 -0.9482 -1.1484  0.9767
  434MOL0     H58547  10.763   0.824   6.682  1.7896 -1.5283 -2.6651
  434MOL0     H58548  10.711   0.602   6.588 -0.7867 -0.9065 -1.1358
  434MOL0     H58549  10.574   0.715   6.619 -0.5062  1.5358  3.4865
  434MOL0     H58550  10.435   0.405   6.905 -0.2392 -1.0030  0.1930
  434MOL0     H58551  10.257   0.277   6.823  0.0586 -1.0525 -0.4641
  434MOL0     H58552   9.996  -0.013   6.840  0.0343  0.1689  0.5501
  434MOL0     H58553   9.773  -0.108   6.807  0.3216  2.0262  2.2792
  434MOL0     H58554   9.627  -0.242   6.412  0.3809  0.4860 -0.5979
  434MOL0     H58555   9.786  -0.219   6.485  0.3725  2.2577  1.7465
  434MOL0     H58556   9.681  -0.440   6.556 -0.7589 -1.1573  1.0512
  434MOL0     H58557   9.739  -0.341   6.682 -0.0676 -0.9704  0.0276
  434MOL0     H58558   9.505  -0.442   6.727 -0.4454 -0.0399  0.0769
  434MOL0     H58559   9.511  -0.264   6.741  0.5716  1.5122 -2.7227
  434MOL0     H58560   9.413  -0.419   6.494 -1.2993 -1.5001  0.9147
  434MOL0     H58561   9.404  -0.250   6.536 -1.6429  0.7549  0.9758
  434MOL0     H58562   9.271  -0.292   6.725  0.1785  0.7371 -0.4210
  434MOL0     H58563   9.273  -0.468   6.702 -4.8446 -1.0295 -0.3710
  434MOL0     H58564   9.177  -0.245   6.501 -1.4310 -0.4485  0.5151
  434MOL0     H58565   9.188  -0.412   6.460  0.7624 -2.4801  1.6039
  434MOL0     H58566   8.996  -0.479   6.600  2.2134 -1.9303 -0.7815
  434MOL0     H58567   8.948  -0.325   6.547  1.1414  0.3368 -0.2641
  434MOL0     H58568   9.080  -0.348   6.821  1.2469 -0.1736 -1.0981
  434MOL0     H58569   8.993  -0.204   6.766 -3.6018  0.6731  0.3776
  434MOL0     H58570   9.778   0.064   6.401  0.7456 -1.6179  0.2976
  434MOL0     H58571   9.964   0.174   6.437  0.1374 -0.1565 -1.1149
  434MOL0     H58572  10.392   0.313   6.423 -4.6196 -2.3785  1.2480
  434MOL0     H58573  10.551   0.486   6.494  0.8196 -3.4472 -1.2296
  434MOL0     H58574   9.653   0.585   7.439 -0.9081 -0.0119 -0.1118
  434MOL0     H58575   9.647   0.360   7.505 -0.5032  1.4457  0.5279
  434MOL0     H58576  10.049   0.151   7.655 -0.2856  0.5572 -1.4709
  434MOL0     H58577  10.056   0.021   7.855 -1.0748 -1.9433  0.7369
  434MOL0     H58578   9.923  -0.031   8.052 -2.5075  0.9533 -0.8063
  434MOL0     H58579  10.007  -0.175   8.088  0.4432  0.6904  0.3823
  434MOL0     H58580   9.711  -0.188   8.079 -0.1946  2.6029  2.6429
  434MOL0     H58581   9.804  -0.162   8.226  2.9496 -1.2761  0.9732
  434MOL0     H58582   9.935  -0.337   8.210 -2.2942 -0.1179  2.1846
  434MOL0     H58583   9.863  -0.382   8.042 -3.0490  1.9353 -1.5464
  434MOL0     H58584   9.783  -0.527   8.241  2.6753  0.3849  0.6516
  434MOL0     H58585   9.719  -0.362   8.304  2.3024  2.0246 -1.6576
  434MOL0     H58586   9.452  -0.474   7.992  0.5245 -3.7870  0.1689
  434MOL0     H58587   9.725  -0.209   7.722 -0.3690 -0.9527 -2.2454
  434MOL0     H58588   9.685  -0.176   7.456  1.2418  0.2270  0.9630
  434MOL0     H58589   9.566  -0.092   7.576  1.2214  1.4160  1.5242
  434MOL0     H58590   9.629  -0.008   7.438  1.1253  1.0220 -0.0910
  435MOL0     O58591  10.227   9.624  10.047 -0.3036 -0.8585  0.3783
  435MOL0     C58592  10.329   9.565  10.002 -0.2946 -0.1939  0.9198
  435MOL0     O58593  10.417   9.627   9.920 -0.0356 -0.0695  0.4795
  435MOL0     C58594  10.387   9.738   9.855 -0.6794  0.0310 -0.5827
  435MOL0     C58595  10.329   9.731   9.729  1.3462  0.8599 -0.0768
  435MOL0     C58596  10.294   9.851   9.652 -0.2078  0.4110 -0.6066
  435MOL0     C58597  10.303   9.972   9.707  0.1661  0.5863  0.3193
  435MOL0     O58598  10.267  10.093   9.641  0.0886  0.3507 -0.3156
  435MOL0     C58599  10.226  10.073   9.507  0.8575 -0.0807  0.1254
  435MOL0     C58600  10.212  10.210   9.444 -0.8339 -0.3871 -0.2601
  435MOL0     C58601  10.255  10.230   9.300 -0.5766  0.3944  0.4374
  435MOL0     C58602  10.146  10.184   9.202 -0.5289  0.2034 -0.4580
  435MOL0     C58603  10.037  10.289   9.181  0.4218 -0.5863 -0.3541
  435MOL0     C58604   9.933  10.236   9.080  1.1978 -0.2466 -0.2843
  435MOL0     C58605   9.830  10.355   9.044  0.7603  1.6767  0.4180
  435MOL0     C58606   9.764  10.300   8.908  0.3494 -0.6354 -0.5729
  435MOL0     N58607   9.629  10.356   8.899  0.4617 -0.2152  0.3944
  435MOL0     C58608   9.531  10.354   8.990 -0.3988  0.3882 -0.2555
  435MOL0     C58609   9.415  10.375   8.926 -0.4334  0.7529  0.4296
  435MOL0     C58610   9.272  10.363   8.980 -0.4638 -0.7433  0.5480
  435MOL0     C58611   9.188  10.486   8.981  0.5101 -0.5481 -0.4558
  435MOL0     C58612   9.039  10.455   9.011  0.8699  0.4189  0.5575
  435MOL0     C58613   9.008  10.442   9.156 -0.1032  0.5666  0.1516
  435MOL0     O58614   8.939  10.316   9.183 -0.4576  0.0792 -0.3489
  435MOL0     C58615   8.847  10.313   9.294 -0.1717  0.1969  0.8474
  435MOL0     C58616   8.723  10.250   9.284 -0.6531 -1.5084  0.1626
  435MOL0     C58617   8.626  10.265   9.386  0.4768 -0.2112 -0.0232
  435MOL0     C58618   8.654  10.327   9.510  0.5623  0.0641  0.2779
  435MOL0     C58619   8.554  10.324   9.624 -0.4847 -0.2887  0.2760
  435MOL0     O58620   8.435  10.262   9.601 -0.0831 -0.2110  1.0680
  435MOL0     C58621   8.344  10.242   9.699 -0.1465 -0.3244  0.8130
  435MOL0     C58622   8.315  10.352   9.786 -0.6143 -0.1629  0.0795
  435MOL0     C58623   8.216  10.329   9.887 -0.5123 -0.2560  0.0379
  435MOL0     C58624   8.163  10.195   9.906 -0.2023 -0.6678 -1.0250
  435MOL0     O58625   8.078  10.180  10.018 -0.1040 -0.3453 -0.1818
  435MOL0     C58626   8.145  10.107  10.123 -0.0725  0.1486 -0.2341
  435MOL0     C58627   8.087  10.154  10.256 -0.6756 -0.3350 -0.8119
  435MOL0     C58628   8.134  10.295  10.286  0.8752  0.4697  0.0067
  435MOL0     C58629   8.268  10.295  10.357  0.6800  0.4294  1.1015
  435MOL0     C58630   8.332  10.435  10.378  0.0814 -0.6266 -0.0241
  435MOL0     C58631   8.249  10.516  10.481  0.1381  0.4540  0.7339
  435MOL0     C58632   8.318  10.635  10.543 -0.5326 -0.0374 -0.0550
  435MOL0     C58633   8.223  10.731  10.616 -0.1707 -0.7924  0.8131
  435MOL0    Cl58634   8.308  10.837  10.723 -0.6382  0.3533 -0.1990
  435MOL0     C58635   8.195  10.088   9.820 -0.5219  0.0447 -0.7536
  435MOL0     C58636   8.290  10.117   9.721  0.5597  0.1684 -0.8526
  435MOL0     O58637   8.600  10.362   9.730  0.0190  0.1025  0.7171
  435MOL0     C58638   8.778  10.388   9.521 -0.3632  1.3393 -0.2705
  435MOL0     C58639   8.873  10.387   9.413  0.0305  0.3776 -1.4732
  435MOL0     N58640   9.448  10.412   8.792  0.0656  0.5258 -0.9837
  435MOL0     N58641   9.579  10.403   8.774 -0.4822  0.1358 -1.0295
  435MOL0     C58642  10.354   9.973   9.836  0.1420  0.1732 -0.0500
  435MOL0     C58643  10.388   9.862   9.914 -0.6506  0.2087  0.5922
  435MOL0     C58644  10.353   9.426  10.046  0.1492 -0.9722 -0.3045
  435MOL0     C58645  10.397   9.328   9.963 -0.2223 -1.7186  0.2925
  435MOL0     C58646  10.396   9.194   9.985 -0.4343 -0.0446  0.0674
  435MOL0     C58647  10.345   9.145  10.102  0.6698  0.2053  0.4576
  435MOL0     O58648  10.320   9.008  10.119 -0.4143  0.4695  0.2293
  435MOL0     C58649  10.234   8.970  10.230 -0.0866 -0.6476 -0.1187
  435MOL0     C58650  10.236   8.814  10.226 -0.4383 -0.1466 -0.0848
  435MOL0     C58651  10.134   8.764  10.322  0.3937 -0.5016  0.4682
  435MOL0     C58652  10.170   8.622  10.359 -0.5434 -0.0486 -0.2544
  435MOL0     C58653  10.169   8.514  10.255 -0.2280  0.1271 -0.5512
  435MOL0     C58654  10.182   8.426  10.167  1.0681 -0.4896 -0.2199
  435MOL0     C58655  10.313   9.241  10.202  0.6903 -0.5061  0.1329
  435MOL0     C58656  10.323   9.376  10.176  0.3049 -0.1266 -0.8054
  435MOL0     C58657  10.301   9.470  10.297  0.2620 -0.1286  1.3322
  435MOL0     H58658  10.314   9.631   9.690  0.1132  1.3066 -0.8201
  435MOL0     H58659  10.257   9.839   9.551 -0.5030  1.4680 -0.6387
  435MOL0     H58660  10.305  10.011   9.465  0.6724  0.3953 -0.9751
  435MOL0     H58661  10.129  10.023   9.503 -0.3482  1.7890  2.9103
  435MOL0     H58662  10.282  10.276   9.497  1.1386 -1.3366 -1.5597
  435MOL0     H58663  10.114  10.252   9.468 -0.6458  1.3090 -2.1979
  435MOL0     H58664  10.353  10.186   9.277  0.0070  1.1701  1.3446
  435MOL0     H58665  10.276  10.337   9.288  1.7769  0.0341  0.7158
  435MOL0     H58666  10.196  10.174   9.105  0.2423  2.3693 -0.3520
  435MOL0     H58667  10.110  10.084   9.226 -0.1113  0.2860  0.6037
  435MOL0     H58668   9.991  10.304   9.279 -0.5568  1.7862 -1.1094
  435MOL0     H58669  10.080  10.386   9.153 -0.8373  0.2234  0.4531
  435MOL0     H58670   9.987  10.186   9.000  2.7100 -1.2577  1.2912
  435MOL0     H58671   9.880  10.162   9.142  0.2845  1.2823  0.8384
  435MOL0     H58672   9.885  10.449   9.033  0.8592  1.8759  2.3696
  435MOL0     H58673   9.753  10.366   9.120 -2.5779  0.0264 -2.4248
  435MOL0     H58674   9.820  10.337   8.821  0.4874  1.1851  0.2500
  435MOL0     H58675   9.737  10.195   8.917 -3.7352  0.2704 -0.0405
  435MOL0     H58676   9.537  10.324   9.094 -1.2739 -0.2701 -0.3857
  435MOL0     H58677   9.224  10.288   8.916 -2.4766  0.4414  0.5812
  435MOL0     H58678   9.265  10.322   9.081  1.8378  1.1341  1.5508
  435MOL0     H58679   9.217  10.571   9.043 -1.5368  0.5283 -0.8830
  435MOL0     H58680   9.186  10.539   8.885 -0.7599  1.0176  0.3756
  435MOL0     H58681   9.027  10.359   8.959  1.2367  0.1410  0.9757
  435MOL0     H58682   8.976  10.537   8.978  2.2462  0.3732 -2.5606
  435MOL0     H58683   8.947  10.527   9.188 -0.0785  0.3296  0.8432
  435MOL0     H58684   9.093  10.456   9.223 -2.2616  3.1899  2.5789
  435MOL0     H58685   8.700  10.212   9.185 -3.0991 -0.7669  0.3949
  435MOL0     H58686   8.529  10.216   9.384  0.4550 -0.6054  3.7340
  435MOL0     H58687   8.358  10.451   9.772  0.0432 -0.5943 -1.1493
  435MOL0     H58688   8.195  10.408   9.958  0.5020  0.6695 -0.6631
  435MOL0     H58689   8.132   9.999  10.110 -0.9838  0.4401 -1.8954
  435MOL0     H58690   8.253  10.126  10.131  0.5410 -3.2521  1.4800
  435MOL0     H58691   7.978  10.151  10.266 -0.4159 -1.1727  3.1807
  435MOL0     H58692   8.132  10.095  10.336 -0.5298 -0.0946 -0.7146
  435MOL0     H58693   8.141  10.352  10.192 -0.1715 -0.4045 -0.6219
  435MOL0     H58694   8.067  10.344  10.357 -1.9469  0.2087 -2.2922
  435MOL0     H58695   8.334  10.239  10.290 -4.2118 -2.0465 -2.1975
  435MOL0     H58696   8.258  10.234  10.448  0.2144  2.4425  2.4556
  435MOL0     H58697   8.328  10.497  10.288 -1.9916 -1.5671 -0.6381
  435MOL0     H58698   8.438  10.427  10.406 -0.3724 -1.6416  1.5452
  435MOL0     H58699   8.157  10.554  10.437  1.9086  1.2030 -2.6381
  435MOL0     H58700   8.224  10.462  10.573  0.7361  0.4618  0.9058
  435MOL0     H58701   8.382  10.676  10.464 -1.0065  1.9324  0.5289
  435MOL0     H58702   8.384  10.591  10.618  0.5996 -4.3920 -3.1613
  435MOL0     H58703   8.168  10.790  10.542 -1.5125  0.6698  2.8694
  435MOL0     H58704   8.150  10.670  10.670 -0.4709 -0.7488  0.4588
  435MOL0     H58705   8.154   9.988   9.824  0.0804 -0.2683 -1.9407
  435MOL0     H58706   8.331  10.032   9.667 -0.5245  0.5258 -2.3093
  435MOL0     H58707   8.819  10.434   9.610  0.4136 -0.8890  0.5912
  435MOL0     H58708   8.968  10.438   9.420  0.8377 -1.3123  1.2971
  435MOL0     H58709  10.357  10.075   9.875  0.3680  0.1320  0.0381
  435MOL0     H58710  10.415   9.881  10.018 -0.7620 -1.1604  0.8853
  435MOL0     H58711  10.419   9.363   9.863 -3.0877  0.4777  0.2959
  435MOL0     H58712  10.429   9.128   9.905  2.1318  0.4889  0.6107
  435MOL0     H58713  10.137   9.012  10.205 -0.3442 -1.1308  0.0584
  435MOL0     H58714  10.256   8.989  10.335 -3.9724  0.3961  0.6317
  435MOL0     H58715  10.337   8.777  10.248  1.3216  1.2612 -4.5740
  435MOL0     H58716  10.215   8.781  10.123  0.0172 -1.9839  0.3804
  435MOL0     H58717  10.041   8.770  10.265  0.1676  0.9053  0.9501
  435MOL0     H58718  10.135   8.830  10.410 -0.0765 -0.2381  0.2792
  435MOL0     H58719  10.268   8.623  10.408 -0.8513 -0.4965  0.3911
  435MOL0     H58720  10.103   8.589  10.440  0.1724  3.1730  1.8231
  435MOL0     H58721  10.188   8.341  10.102 -1.2539 -1.7773  1.1170
  435MOL0     H58722  10.270   9.216  10.299 -1.6880  1.8851 -0.1875
  435MOL0     H58723  10.197   9.501  10.302  1.3262  4.0650  0.9591
  435MOL0     H58724  10.333   9.431  10.395  2.5249  1.0843  1.1413
  435MOL0     H58725  10.347   9.569  10.286 -3.3274  1.5917  0.2009
  436MOL0     O58726   0.553   8.767   9.600 -0.2019 -0.8147 -0.0068
  436MOL0     C58727   0.672   8.780   9.561 -0.3353  0.1192  0.7426
  436MOL0     O58728   0.758   8.882   9.592 -0.2335  0.4950 -0.6884
  436MOL0     C58729   0.700   8.994   9.649  0.2466  0.4119  0.0872
  436MOL0     C58730   0.769   9.048   9.756  0.4234  1.1700 -0.0146
  436MOL0     C58731   0.731   9.169   9.812 -0.2472  0.2036 -0.6052
  436MOL0     C58732   0.611   9.234   9.755 -0.0832  0.0290 -0.3670
  436MOL0     O58733   0.551   9.354   9.788 -0.4832 -0.1042  1.0355
  436MOL0     C58734   0.627   9.431   9.879  0.1710  0.6907 -0.4701
  436MOL0     C58735   0.567   9.565   9.870  0.7022 -0.9390 -0.8972
  436MOL0     C58736   0.577   9.629   9.726 -0.1421 -0.3104 -0.6301
  436MOL0     C58737   0.441   9.639   9.646  0.1150  0.4619 -0.7664
  436MOL0     C58738   0.473   9.732   9.536  0.1520 -0.9573 -0.6459
  436MOL0     C58739   0.364   9.746   9.425 -0.0843  0.1007  0.0320
  436MOL0     C58740   0.417   9.765   9.288 -0.1661 -0.3101 -0.0613
  436MOL0     C58741   0.493   9.903   9.269 -0.1811  0.1537  0.4243
  436MOL0     N58742   0.506   9.942   9.119 -0.0712  0.1073 -0.3651
  436MOL0     C58743   0.405   9.973   9.037 -0.3734 -0.7131  1.0089
  436MOL0     C58744   0.471   9.997   8.916  0.5611  1.1240  0.8261
  436MOL0     C58745   0.410  10.020   8.781 -0.7880  0.1430 -0.7906
  436MOL0     C58746   0.359   9.896   8.706  0.1700 -0.0021  0.2650
  436MOL0     C58747   0.279   9.920   8.580 -1.0748 -0.2175 -0.6127
  436MOL0     C58748   0.347   9.977   8.460  0.8439 -0.5007  0.6050
  436MOL0     O58749   0.428   9.886   8.392  0.4919 -0.5338 -0.1226
  436MOL0     C58750   0.546   9.853   8.449 -0.5793 -0.0886  0.3223
  436MOL0     C58751   0.637   9.937   8.518 -0.9453 -0.4075  0.0492
  436MOL0     C58752   0.766   9.893   8.566  0.8244  0.6537 -0.9241
  436MOL0     C58753   0.799   9.760   8.542  0.3642  0.9830 -0.3370
  436MOL0     C58754   0.928   9.702   8.579  0.5146 -0.6327  0.0969
  436MOL0     O58755   0.956   9.583   8.528 -0.9153  0.5341 -0.2951
  436MOL0     C58756   1.093   9.533   8.548  0.6199  0.3396  1.0052
  436MOL0     C58757   1.202   9.619   8.509 -0.9143  0.4772  0.4889
  436MOL0     C58758   1.336   9.568   8.531  0.6521  0.7562  0.3185
  436MOL0     C58759   1.362   9.443   8.594 -0.1807  0.6193  0.1425
  436MOL0     O58760   1.478   9.388   8.606 -0.1038  0.2722 -1.1131
  436MOL0     C58761   1.583   9.458   8.670 -0.1022 -0.7199 -0.4879
  436MOL0     C58762   1.690   9.403   8.586 -0.4852 -0.1855  0.7392
  436MOL0     C58763   1.832   9.448   8.616  0.3019  0.0664  0.0108
  436MOL0     C58764   1.928   9.356   8.538 -0.6504  0.0437 -1.0937
  436MOL0     C58765   2.075   9.392   8.551  0.2037 -0.0810  1.2797
  436MOL0     C58766   2.148   9.309   8.450 -0.5185 -0.2460 -0.2539
  436MOL0     C58767   2.300   9.337   8.428  0.8045  0.0033  0.3542
  436MOL0     C58768   2.400   9.347   8.544  0.7639  0.0593 -0.5768
  436MOL0    Cl58769   2.427   9.180   8.603  0.8601  0.4674  0.1110
  436MOL0     C58770   1.247   9.367   8.627 -0.9509  0.3445  0.7726
  436MOL0     C58771   1.115   9.409   8.600 -0.2120  0.0658 -0.2282
  436MOL0     O58772   1.004   9.774   8.648  0.3339  0.4636  0.6903
  436MOL0     C58773   0.710   9.671   8.471 -1.0756  0.1438 -0.1379
  436MOL0     C58774   0.591   9.724   8.423 -0.1885 -0.4806 -0.0800
  436MOL0     N58775   0.596   9.976   8.928 -0.3343  1.0940  1.4666
  436MOL0     N58776   0.628   9.946   9.051 -0.2094 -0.0697 -0.7937
  436MOL0     C58777   0.539   9.180   9.657 -0.1484  1.1933  0.2582
  436MOL0     C58778   0.584   9.057   9.593 -0.3908 -0.2086  0.2841
  436MOL0     C58779   0.719   8.645   9.500 -0.5768 -0.1254 -0.5162
  436MOL0     C58780   0.629   8.588   9.416  0.0664  0.6579  0.7531
  436MOL0     C58781   0.662   8.466   9.344 -0.0292 -0.8598 -0.5326
  436MOL0     C58782   0.790   8.413   9.353  0.5608  0.5983  0.7314
  436MOL0     O58783   0.826   8.312   9.268  0.3076  0.9237 -0.4279
  436MOL0     C58784   0.878   8.197   9.336  1.1349  1.5981 -1.2077
  436MOL0     C58785   0.908   8.079   9.254 -0.4438 -0.0129  0.0455
  436MOL0     C58786   0.940   7.946   9.333 -0.3489  0.2909  1.0051
  436MOL0     C58787   0.998   7.822   9.247  0.0558 -0.6927  0.7861
  436MOL0     C58788   0.973   7.817   9.099 -0.0044 -0.5861  0.9457
  436MOL0     C58789   0.968   7.807   8.973 -1.0435  0.3486 -0.0294
  436MOL0     C58790   0.883   8.464   9.436 -0.0851 -0.4388  0.4218
  436MOL0     C58791   0.850   8.584   9.513 -0.2693  0.0819  0.1062
  436MOL0     C58792   0.954   8.658   9.588 -0.8173 -0.5098 -0.3098
  436MOL0     H58793   0.854   8.987   9.785  0.5469 -0.5102 -3.3712
  436MOL0     H58794   0.792   9.210   9.892 -1.5834  0.3747  0.3584
  436MOL0     H58795   0.614   9.382   9.976  0.8396 -1.4052 -1.3832
  436MOL0     H58796   0.730   9.446   9.844 -0.0866  4.2476 -0.0735
  436MOL0     H58797   0.620   9.631   9.939 -0.1193 -0.2483 -0.9101
  436MOL0     H58798   0.465   9.550   9.907  2.2219 -3.8403  2.7310
  436MOL0     H58799   0.649   9.577   9.662  2.0359 -0.4617  1.7889
  436MOL0     H58800   0.618   9.730   9.730  2.3008 -1.1148 -2.6742
  436MOL0     H58801   0.410   9.541   9.608  1.7783  0.5974 -2.6592
  436MOL0     H58802   0.363   9.684   9.707  1.6342 -0.1725  1.8157
  436MOL0     H58803   0.502   9.828   9.579 -0.6946 -1.3398  0.8687
  436MOL0     H58804   0.558   9.686   9.485 -0.6799 -1.5006 -1.5866
  436MOL0     H58805   0.320   9.646   9.422  0.4261 -0.1063 -0.6988
  436MOL0     H58806   0.275   9.809   9.436  0.3903  1.1966 -1.8915
  436MOL0     H58807   0.335   9.761   9.215 -0.1079 -0.1648 -0.1349
  436MOL0     H58808   0.493   9.688   9.271 -3.6936 -3.4832 -3.4282
  436MOL0     H58809   0.427   9.984   9.304  1.3844  1.2042  1.1000
  436MOL0     H58810   0.587   9.906   9.326 -0.7369 -3.2432  1.7528
  436MOL0     H58811   0.300   9.977   9.063 -0.7864 -0.7784 -0.5413
  436MOL0     H58812   0.317  10.072   8.804 -0.1465 -0.0891  3.1202
  436MOL0     H58813   0.481  10.081   8.723 -2.0434  0.7116 -1.7578
  436MOL0     H58814   0.447   9.841   8.673 -3.0505 -2.9094 -4.8311
  436MOL0     H58815   0.300   9.822   8.762  0.0047 -0.4391 -0.4684
  436MOL0     H58816   0.198   9.985   8.614 -2.1436 -1.8392  0.0885
  436MOL0     H58817   0.233   9.823   8.560  2.1196 -1.8500 -0.6963
  436MOL0     H58818   0.399  10.070   8.486  0.7252 -0.3226  0.2137
  436MOL0     H58819   0.265  10.002   8.392 -0.4818 -0.8991  1.9949
  436MOL0     H58820   0.604  10.035   8.551  0.3542  1.0809 -2.7506
  436MOL0     H58821   0.827   9.960   8.625  0.1891  0.3469  0.1181
  436MOL0     H58822   1.180   9.718   8.469 -0.4529  0.6840  0.7338
  436MOL0     H58823   1.419   9.623   8.489  0.5020 -0.3005 -1.4784
  436MOL0     H58824   1.586   9.565   8.651 -0.6745 -0.7486 -0.7828
  436MOL0     H58825   1.588   9.442   8.778  1.5702  3.2811  0.1939
  436MOL0     H58826   1.686   9.295   8.597 -1.0694 -0.2937 -0.4614
  436MOL0     H58827   1.660   9.415   8.482 -1.4265  0.7823  1.0958
  436MOL0     H58828   1.841   9.549   8.574 -2.9076  0.5991  0.3669
  436MOL0     H58829   1.859   9.445   8.722  2.2600  3.1967 -0.2530
  436MOL0     H58830   1.909   9.363   8.430  2.5352 -1.8741 -1.8967
  436MOL0     H58831   1.909   9.252   8.567  1.0124  0.3029  1.2031
  436MOL0     H58832   2.108   9.368   8.652  0.7379 -0.7778  0.9559
  436MOL0     H58833   2.087   9.499   8.530  2.3792 -0.0224  2.5973
  436MOL0     H58834   2.147   9.208   8.491  0.4838  0.3394  1.3276
  436MOL0     H58835   2.103   9.316   8.351 -0.0228 -0.0807 -0.4722
  436MOL0     H58836   2.321   9.430   8.373  1.3244 -0.5044 -0.3397
  436MOL0     H58837   2.330   9.252   8.364  0.3198  0.8414 -1.0375
  436MOL0     H58838   2.497   9.382   8.508  2.4335 -0.3455  3.0452
  436MOL0     H58839   2.367   9.413   8.625  0.2536 -0.3009 -0.4896
  436MOL0     H58840   1.253   9.267   8.669 -0.0444 -1.6660 -3.5719
  436MOL0     H58841   1.015   9.372   8.623 -0.8396  2.2182  0.7841
  436MOL0     H58842   0.737   9.566   8.463 -1.0353  0.0952  0.6345
  436MOL0     H58843   0.518   9.662   8.373 -0.3906 -1.2687  1.1438
  436MOL0     H58844   0.445   9.228   9.632 -0.5272  0.4751  0.2681
  436MOL0     H58845   0.542   9.011   9.505  0.4810 -0.9601  0.2487
  436MOL0     H58846   0.532   8.633   9.396 -1.0420 -2.2395 -0.8700
  436MOL0     H58847   0.593   8.427   9.270 -0.9851  1.2391 -0.8139
  436MOL0     H58848   0.802   8.169   9.410  1.3466 -1.7110 -2.0728
  436MOL0     H58849   0.972   8.224   9.385  1.6589  0.3633 -1.4807
  436MOL0     H58850   0.995   8.112   9.197 -0.1514  0.8628  0.9671
  436MOL0     H58851   0.822   8.065   9.189 -0.2361  0.3756 -0.3208
  436MOL0     H58852   0.847   7.895   9.359  0.7243 -3.1400 -1.1854
  436MOL0     H58853   0.994   7.969   9.426  0.7093 -0.0163  0.4848
  436MOL0     H58854   1.107   7.813   9.254  0.0749 -2.5357 -0.8331
  436MOL0     H58855   0.959   7.730   9.292 -0.9008  0.1124  1.6424
  436MOL0     H58856   0.955   7.807   8.866 -1.2466  1.8289 -0.0209
  436MOL0     H58857   0.987   8.432   9.436  1.2949  3.4188  1.7133
  436MOL0     H58858   1.042   8.595   9.605  1.0936  1.9039 -0.6798
  436MOL0     H58859   0.985   8.752   9.542 -2.4922  0.9506  1.3686
  436MOL0     H58860   0.918   8.682   9.689 -3.4155  0.5664 -1.3995
  437MOL0     O58861   4.924  10.327   7.003  0.0902  0.0170 -0.8173
  437MOL0     C58862   4.903  10.321   6.880 -0.1757 -0.2523 -0.2045
  437MOL0     O58863   4.917  10.209   6.809 -0.5065 -0.7132 -0.9027
  437MOL0     C58864   4.954  10.096   6.878 -0.5392 -0.1276  0.0218
  437MOL0     C58865   5.091  10.059   6.893  0.3340 -0.0938 -0.6616
  437MOL0     C58866   5.125   9.937   6.947  0.1543  0.9392  1.3448
  437MOL0     C58867   5.019   9.850   6.992  0.3899 -0.5527 -0.6446
  437MOL0     O58868   5.054   9.730   7.047 -0.1243  0.2744  0.4795
  437MOL0     C58869   4.961   9.673   7.136 -0.6044  0.3666  0.2857
  437MOL0     C58870   5.030   9.551   7.197 -0.0251 -0.8958  0.5751
  437MOL0     C58871   5.066   9.438   7.100 -0.5271 -0.3444  0.4029
  437MOL0     C58872   5.110   9.311   7.179  0.1719 -0.0546 -0.1240
  437MOL0     C58873   5.154   9.196   7.100 -0.1743  0.3061  0.1057
  437MOL0     C58874   5.051   9.144   6.999 -0.2060  0.8607 -0.3759
  437MOL0     C58875   5.111   9.027   6.920  0.1118  0.2496 -0.1119
  437MOL0     C58876   5.032   9.005   6.785 -0.0647 -0.3588 -0.4022
  437MOL0     N58877   5.071   8.872   6.735 -0.2205  0.6010  0.0917
  437MOL0     C58878   5.199   8.839   6.702 -0.2368 -0.4856 -0.3635
  437MOL0     C58879   5.197   8.717   6.653 -0.9910  0.8338  0.0732
  437MOL0     C58880   5.309   8.627   6.615 -0.6574 -0.0540 -0.8514
  437MOL0     C58881   5.386   8.576   6.737 -0.3492  0.2360  0.2645
  437MOL0     C58882   5.540   8.612   6.736 -0.0587 -0.1380  0.6892
  437MOL0     C58883   5.622   8.514   6.817 -0.4743 -0.4384 -0.3310
  437MOL0     O58884   5.752   8.573   6.842 -0.2641  0.4057 -0.1844
  437MOL0     C58885   5.770   8.654   6.950 -0.4998 -0.5389 -0.0036
  437MOL0     C58886   5.697   8.647   7.066  0.0339  0.7263  0.5541
  437MOL0     C58887   5.733   8.726   7.177  0.1592  0.1422  0.2578
  437MOL0     C58888   5.830   8.828   7.158 -0.3893 -0.0594 -0.7426
  437MOL0     C58889   5.874   8.911   7.266  0.3985 -0.4688  0.5160
  437MOL0     O58890   5.978   8.999   7.250  0.2156  1.2792  0.1041
  437MOL0     C58891   5.998   9.076   7.358  1.1644 -0.9303 -0.1192
  437MOL0     C58892   6.064   9.024   7.473 -0.9070  0.0399 -0.6875
  437MOL0     C58893   6.102   9.104   7.582  0.5797  0.0771  0.4033
  437MOL0     C58894   6.059   9.240   7.575  0.2964 -0.1085  0.2896
  437MOL0     O58895   6.048   9.313   7.700 -0.1736  0.5271  0.4459
  437MOL0     C58896   6.084   9.451   7.687 -0.1019  0.3686  0.5110
  437MOL0     C58897   6.132   9.525   7.810  0.4475 -0.1735  0.2536
  437MOL0     C58898   6.038   9.540   7.932  0.0430  0.8317 -0.5655
  437MOL0     C58899   6.012   9.413   8.009  0.7800  0.9869 -0.5257
  437MOL0     C58900   5.859   9.400   8.031 -0.1160 -0.1530  0.6813
  437MOL0     C58901   5.822   9.259   8.080 -0.3322  0.1436 -0.2128
  437MOL0     C58902   5.671   9.237   8.093  0.6664 -0.4212  0.8079
  437MOL0     C58903   5.607   9.282   8.216 -0.0359 -0.1462 -1.0784
  437MOL0    Cl58904   5.632   9.455   8.249 -0.3626  0.0245 -0.0450
  437MOL0     C58905   5.978   9.285   7.467 -0.5635  0.2645  0.7034
  437MOL0     C58906   5.951   9.209   7.354 -0.0205  0.0606 -0.5100
  437MOL0     O58907   5.815   8.891   7.375  0.6154 -0.3280 -0.4229
  437MOL0     C58908   5.887   8.842   7.033 -1.3795  0.4731 -0.5882
  437MOL0     C58909   5.866   8.755   6.934  0.7644  0.4951 -0.2285
  437MOL0     N58910   5.068   8.676   6.654  0.2943 -0.3152 -0.8326
  437MOL0     N58911   4.992   8.769   6.709 -0.0799 -0.2424 -0.3016
  437MOL0     C58912   4.885   9.886   6.971  0.0190  0.2055 -0.1120
  437MOL0     C58913   4.854  10.012   6.919  0.0912 -0.6120 -0.1094
  437MOL0     C58914   4.859  10.444   6.817  0.5961  0.7559 -0.1160
  437MOL0     C58915   4.865  10.439   6.674  0.2244  0.1233  0.8572
  437MOL0     C58916   4.818  10.545   6.600 -1.3727  0.3222  1.0334
  437MOL0     C58917   4.744  10.650   6.652 -1.3573 -0.3029 -0.2960
  437MOL0     O58918   4.695  10.737   6.562 -0.2958 -0.7083  0.1522
  437MOL0     C58919   4.626  10.845   6.623  0.4592 -0.7983  0.1385
  437MOL0     C58920   4.593  10.933   6.504 -0.0701  0.5799 -0.0547
  437MOL0     C58921   4.527  11.057   6.557 -0.3289 -0.4325 -0.7068
  437MOL0     C58922   4.391  11.037   6.616 -0.8876  0.2672  0.2457
  437MOL0     C58923   4.336  11.143   6.697 -0.4484  1.4398  0.9210
  437MOL0     C58924   4.284  11.241   6.742  0.6041  0.0022  0.1858
  437MOL0     C58925   4.738  10.657   6.788  0.1102 -0.4836 -0.0417
  437MOL0     C58926   4.790  10.560   6.875 -0.4163  1.1708 -0.1885
  437MOL0     C58927   4.760  10.566   7.022 -0.3982  0.7444 -0.1927
  437MOL0     H58928   5.161  10.135   6.860  2.8288 -2.7200 -1.7615
  437MOL0     H58929   5.229   9.906   6.938 -0.3032 -1.1905  2.5955
  437MOL0     H58930   4.961   9.738   7.224  0.8587  1.5123 -0.5116
  437MOL0     H58931   4.863   9.637   7.103  0.1969 -1.0063 -0.6922
  437MOL0     H58932   4.967   9.502   7.271 -0.3796 -2.8870 -0.9628
  437MOL0     H58933   5.122   9.597   7.235 -0.5863 -0.1153  1.0209
  437MOL0     H58934   5.149   9.465   7.034  2.2220 -2.0433  2.9049
  437MOL0     H58935   4.982   9.411   7.036  0.3303 -0.2949 -0.7821
  437MOL0     H58936   5.195   9.342   7.240  0.9398 -1.9442 -0.1769
  437MOL0     H58937   5.025   9.268   7.234 -0.7118  0.6192 -0.9300
  437MOL0     H58938   5.243   9.215   7.040 -0.5978 -1.9617 -1.3628
  437MOL0     H58939   5.169   9.117   7.174 -3.1111 -0.3950  0.0738
  437MOL0     H58940   4.961   9.117   7.055 -0.7482  3.5559  0.1932
  437MOL0     H58941   5.017   9.226   6.936  2.3736  1.8556 -0.5867
  437MOL0     H58942   5.099   8.942   6.989 -1.5213  0.5782  0.0456
  437MOL0     H58943   5.218   9.036   6.903 -0.0509  1.3118 -0.6267
  437MOL0     H58944   4.923   9.008   6.791 -0.3051  1.5727 -3.5255
  437MOL0     H58945   5.065   9.076   6.709  0.1017 -1.8572 -1.7772
  437MOL0     H58946   5.291   8.894   6.722 -0.0989 -0.5917 -0.6950
  437MOL0     H58947   5.262   8.541   6.567 -0.3863 -1.4094  1.1826
  437MOL0     H58948   5.368   8.678   6.538  0.3566 -2.2802 -1.6242
  437MOL0     H58949   5.342   8.622   6.826 -0.8284 -0.2862  0.3059
  437MOL0     H58950   5.384   8.467   6.746 -1.2683  0.3290  1.5257
  437MOL0     H58951   5.555   8.710   6.783  1.3727  0.8081 -1.5521
  437MOL0     H58952   5.577   8.613   6.633 -2.9323  0.5895 -0.4240
  437MOL0     H58953   5.636   8.420   6.763  0.1569 -0.6836  0.2410
  437MOL0     H58954   5.557   8.493   6.903  0.4925  1.9780  1.0948
  437MOL0     H58955   5.631   8.563   7.087 -1.8747  2.6725  2.7991
  437MOL0     H58956   5.682   8.712   7.271  2.7684  0.8381  1.8679
  437MOL0     H58957   6.071   8.916   7.481  1.6844  0.2219  0.7229
  437MOL0     H58958   6.157   9.068   7.669 -1.6810 -3.7678  0.4470
  437MOL0     H58959   6.166   9.449   7.614  1.5467  0.3182  2.2878
  437MOL0     H58960   5.991   9.498   7.653 -1.8980 -1.0520  3.1413
  437MOL0     H58961   6.225   9.473   7.833  1.3174  0.4942 -1.6038
  437MOL0     H58962   6.162   9.628   7.790 -1.2319  0.1477 -0.8273
  437MOL0     H58963   6.070   9.622   7.998 -2.9198  1.4612  0.2551
  437MOL0     H58964   5.948   9.592   7.896  0.0564  3.3053  2.4856
  437MOL0     H58965   6.064   9.406   8.105 -0.6462 -5.1464  0.2683
  437MOL0     H58966   6.045   9.332   7.943 -0.5517  0.3801 -0.4916
  437MOL0     H58967   5.816   9.407   7.931  1.6402  1.0905 -0.0312
  437MOL0     H58968   5.829   9.486   8.092 -1.2323  0.8751 -1.2224
  437MOL0     H58969   5.868   9.190   8.010  0.4469 -0.0399  0.4602
  437MOL0     H58970   5.871   9.238   8.176  0.0864 -0.1005 -0.4783
  437MOL0     H58971   5.639   9.132   8.082 -0.7287 -0.3054  3.0266
  437MOL0     H58972   5.628   9.277   8.001  1.0406 -4.8458 -1.6072
  437MOL0     H58973   5.500   9.264   8.202 -0.3621  0.4081  0.5323
  437MOL0     H58974   5.643   9.226   8.302 -1.0229  0.5423 -0.1987
  437MOL0     H58975   5.939   9.386   7.469  1.2189  1.0448 -0.6915
  437MOL0     H58976   5.896   9.251   7.271  2.3068  0.5642 -1.9016
  437MOL0     H58977   5.955   8.924   7.012 -1.3515  0.4650 -0.5308
  437MOL0     H58978   5.907   8.792   6.840  1.5024 -2.7779 -1.3308
  437MOL0     H58979   4.807   9.813   6.991  2.0494 -3.4480 -4.0077
  437MOL0     H58980   4.750  10.035   6.902 -0.2687 -0.9623  1.4333
  437MOL0     H58981   4.896  10.351   6.621 -4.0301 -0.8804 -0.3386
  437MOL0     H58982   4.847  10.543   6.496  1.9122  1.8276  1.7965
  437MOL0     H58983   4.700  10.900   6.681  1.3606 -0.6937 -1.0753
  437MOL0     H58984   4.534  10.814   6.674 -0.0994  1.9068  0.9580
  437MOL0     H58985   4.530  10.888   6.427  1.1753  0.5189 -1.0807
  437MOL0     H58986   4.693  10.963   6.470 -0.3216  3.3270  1.3692
  437MOL0     H58987   4.519  11.139   6.486  2.4882  1.3547  0.8357
  437MOL0     H58988   4.596  11.100   6.631 -0.3086  0.6634 -1.3347
  437MOL0     H58989   4.328  11.034   6.527  0.7920 -0.9986 -0.9641
  437MOL0     H58990   4.382  10.944   6.672  0.4680  0.2858  0.5421
  437MOL0     H58991   4.225  11.324   6.777  0.0532  0.6452 -2.0790
  437MOL0     H58992   4.670  10.732   6.828 -0.3976 -2.9088  4.2918
  437MOL0     H58993   4.850  10.581   7.082 -2.3167  0.7796  2.8592
  437MOL0     H58994   4.688  10.649   7.025  0.1849  1.2482  0.2106
  437MOL0     H58995   4.708  10.477   7.058 -0.5782  1.3908  1.2379
  438MOL0     O58996   1.250   1.980   4.153 -0.4944 -0.4944  0.4111
  438MOL0     C58997   1.212   2.051   4.248 -0.9959 -0.7474  0.0628
  438MOL0     O58998   1.289   2.151   4.312 -0.3719  0.2846 -0.0174
  438MOL0     C58999   1.425   2.158   4.264  0.8299  0.3009 -0.4558
  438MOL0     C59000   1.466   2.264   4.188 -0.3826 -0.5274  0.7986
  438MOL0     C59001   1.586   2.286   4.136 -0.4191  0.5544 -0.2458
  438MOL0     C59002   1.682   2.185   4.180 -0.2689 -0.2760 -0.6622
  438MOL0     O59003   1.814   2.204   4.152 -0.3576 -0.2491  0.0298
  438MOL0     C59004   1.907   2.124   4.229  0.2310  0.5233 -0.0007
  438MOL0     C59005   2.045   2.184   4.196 -0.8758  0.8778 -0.1508
  438MOL0     C59006   2.060   2.326   4.246 -0.5073  0.2224 -0.2466
  438MOL0     C59007   2.204   2.355   4.266 -0.1755  0.0783 -0.8359
  438MOL0     C59008   2.223   2.504   4.277  0.3350 -0.3020  0.4210
  438MOL0     C59009   2.359   2.548   4.329 -0.4883  0.1162  0.1753
  438MOL0     C59010   2.467   2.524   4.219  0.1826  0.1828 -0.1646
  438MOL0     C59011   2.603   2.588   4.252  0.3365  0.0784 -0.4800
  438MOL0     N59012   2.602   2.732   4.283  0.0769 -0.8939 -0.1357
  438MOL0     C59013   2.625   2.846   4.205 -0.1868 -0.3303 -0.1861
  438MOL0     C59014   2.652   2.948   4.289 -0.5087 -0.5796 -0.6074
  438MOL0     C59015   2.699   3.082   4.265 -0.9651 -0.6837 -0.5899
  438MOL0     C59016   2.817   3.080   4.170  0.9171  0.0281 -0.1090
  438MOL0     C59017   2.784   3.095   4.021  0.2970  0.2779 -0.4798
  438MOL0     C59018   2.757   3.240   3.979 -0.3229 -0.5486 -0.6807
  438MOL0     O59019   2.872   3.310   4.010 -0.1126  0.2679  0.4145
  438MOL0     C59020   2.842   3.439   4.056 -0.8411 -0.0887  0.1177
  438MOL0     C59021   2.870   3.559   3.976  0.3460  0.6333 -0.4114
  438MOL0     C59022   2.841   3.682   4.032  0.6270 -0.0729 -0.3818
  438MOL0     C59023   2.789   3.695   4.164 -0.5553  0.8206  0.5472
  438MOL0     C59024   2.766   3.826   4.222  0.1096 -0.2112 -1.1638
  438MOL0     O59025   2.735   3.811   4.359  0.1966 -0.1574 -1.0858
  438MOL0     C59026   2.698   3.931   4.424 -0.4399  0.4976  0.3487
  438MOL0     C59027   2.560   3.956   4.439 -0.5295 -0.1420 -1.2491
  438MOL0     C59028   2.519   4.061   4.514  0.2721 -0.3694  0.6142
  438MOL0     C59029   2.616   4.153   4.563 -0.8660 -0.2244 -0.1257
  438MOL0     O59030   2.569   4.264   4.636  0.5969 -0.0682 -0.0191
  438MOL0     C59031   2.651   4.311   4.744 -0.6546 -0.4484 -0.0943
  438MOL0     C59032   2.574   4.413   4.829  0.0968  0.1661  0.2551
  438MOL0     C59033   2.662   4.454   4.946 -0.2196 -0.8369  0.5644
  438MOL0     C59034   2.601   4.568   5.025  1.2242 -0.6631  0.3313
  438MOL0     C59035   2.692   4.595   5.145 -0.1590 -0.4740 -0.1152
  438MOL0     C59036   2.652   4.520   5.272  0.0394 -0.2321 -0.5021
  438MOL0     C59037   2.535   4.599   5.344 -1.1739  0.3067  0.7728
  438MOL0     C59038   2.501   4.524   5.468 -0.3799 -0.2223  0.1073
  438MOL0    Cl59039   2.632   4.527   5.588 -0.2416  0.2907 -0.4175
  438MOL0     C59040   2.761   4.126   4.543 -0.4249  0.9139 -0.3369
  438MOL0     C59041   2.798   4.016   4.467 -0.3136 -0.7750 -0.6629
  438MOL0     O59042   2.796   3.925   4.167  0.4873  0.0338  0.3949
  438MOL0     C59043   2.760   3.577   4.235  0.0147 -1.3661  0.2205
  438MOL0     C59044   2.796   3.458   4.182  0.0625 -0.2853  0.3704
  438MOL0     N59045   2.627   2.899   4.415  0.7178  0.6120 -1.0060
  438MOL0     N59046   2.617   2.768   4.411  0.5628  0.0184 -0.8340
  438MOL0     C59047   1.641   2.084   4.263 -0.6473  0.5860 -0.9329
  438MOL0     C59048   1.516   2.072   4.305 -1.0788 -1.2659 -0.5864
  438MOL0     C59049   1.070   2.045   4.299 -0.1570 -1.1401  0.8667
  438MOL0     C59050   1.041   2.106   4.424  0.7764  0.1597 -0.1347
  438MOL0     C59051   0.900   2.104   4.470  0.7964 -0.0945 -0.6565
  438MOL0     C59052   0.805   2.035   4.400  0.1741 -0.1806 -0.3117
  438MOL0     O59053   0.690   2.004   4.470 -0.0661  0.2511 -0.3938
  438MOL0     C59054   0.640   1.862   4.468 -0.4363  0.0650 -0.6145
  438MOL0     C59055   0.508   1.868   4.543  0.1760 -1.0220  0.4950
  438MOL0     C59056   0.406   1.931   4.457 -0.4049  0.2897 -0.1796
  438MOL0     C59057   0.267   1.921   4.520 -1.5921  0.2081 -0.1971
  438MOL0     C59058   0.203   1.803   4.479 -0.1711 -0.4492  0.1028
  438MOL0     C59059   0.143   1.711   4.439 -0.8784 -0.7542  0.0547
  438MOL0     C59060   0.826   1.988   4.279 -0.1226  0.5047  0.9691
  438MOL0     C59061   0.956   2.003   4.222  0.7759  1.1689  0.4895
  438MOL0     C59062   0.965   1.967   4.074 -0.4985  0.0587 -0.2058
  438MOL0     H59063   1.393   2.335   4.151 -1.0297 -1.9349 -0.7309
  438MOL0     H59064   1.612   2.369   4.071  0.7866 -0.1651 -0.7198
  438MOL0     H59065   1.874   2.122   4.333 -0.2754 -0.8023 -0.1686
  438MOL0     H59066   1.900   2.026   4.181 -0.6586  1.2267 -1.3896
  438MOL0     H59067   2.053   2.171   4.087  2.2800 -2.3313  0.2617
  438MOL0     H59068   2.119   2.119   4.244 -1.0597  0.7653 -0.0211
  438MOL0     H59069   2.010   2.319   4.343  3.0757  0.3656  1.8052
  438MOL0     H59070   2.009   2.408   4.196 -0.8929  1.6236  2.3102
  438MOL0     H59071   2.226   2.308   4.362  2.8773 -1.7159 -2.2791
  438MOL0     H59072   2.275   2.320   4.191 -0.6734  0.2717 -1.4064
  438MOL0     H59073   2.206   2.545   4.177 -2.5078  0.0089  0.9511
  438MOL0     H59074   2.135   2.541   4.331 -0.9413 -2.9583  0.3359
  438MOL0     H59075   2.353   2.653   4.360 -1.9003  0.3027 -0.6450
  438MOL0     H59076   2.385   2.478   4.409 -0.7252 -1.2376 -0.9059
  438MOL0     H59077   2.425   2.573   4.131 -0.8038 -1.6887 -0.7894
  438MOL0     H59078   2.467   2.416   4.204 -0.1934 -0.1119  1.7062
  438MOL0     H59079   2.644   2.533   4.337 -3.0888  1.8762  2.5917
  438MOL0     H59080   2.672   2.566   4.169 -0.2451 -2.5418 -0.3669
  438MOL0     H59081   2.650   2.845   4.099 -0.9212 -0.4493 -0.3608
  438MOL0     H59082   2.617   3.145   4.229 -0.8859 -0.0176  0.3469
  438MOL0     H59083   2.707   3.126   4.365  2.4757 -0.5308 -0.8330
  438MOL0     H59084   2.883   3.155   4.213  0.7613 -1.5116  3.1307
  438MOL0     H59085   2.864   2.982   4.182  4.4683  1.7234  1.1174
  438MOL0     H59086   2.695   3.039   3.989  0.9866 -1.6817  0.8822
  438MOL0     H59087   2.869   3.055   3.966  0.3368  2.5477 -2.2437
  438MOL0     H59088   2.667   3.279   4.027  0.2143 -1.1174  0.8527
  438MOL0     H59089   2.742   3.240   3.870 -0.5542  0.5312 -0.6563
  438MOL0     H59090   2.912   3.573   3.877  0.5891 -0.4915 -0.4780
  438MOL0     H59091   2.860   3.770   3.973  0.3910  1.4800  1.7247
  438MOL0     H59092   2.496   3.883   4.391 -0.5465 -0.1814 -1.1658
  438MOL0     H59093   2.413   4.075   4.534  0.6316 -0.1613  2.5862
  438MOL0     H59094   2.686   4.229   4.807 -2.9950 -0.7451  0.9288
  438MOL0     H59095   2.744   4.352   4.706 -1.0102  0.7655  0.2775
  438MOL0     H59096   2.551   4.497   4.763 -0.5000  1.3121  1.8426
  438MOL0     H59097   2.484   4.359   4.859 -0.0191 -0.9192 -1.8802
  438MOL0     H59098   2.677   4.364   5.007 -2.2827  0.2478  2.8816
  438MOL0     H59099   2.761   4.486   4.912  0.4793 -1.4489  1.9425
  438MOL0     H59100   2.500   4.533   5.048  0.4939 -0.4950 -2.3390
  438MOL0     H59101   2.587   4.643   4.947  0.9999  0.2789  1.2563
  438MOL0     H59102   2.719   4.701   5.151 -0.0087 -0.3423 -2.2508
  438MOL0     H59103   2.788   4.548   5.124 -0.6417 -1.0110 -1.2166
  438MOL0     H59104   2.628   4.417   5.245  2.5485 -0.6543 -1.4224
  438MOL0     H59105   2.737   4.536   5.339  1.7681  1.5792 -2.9596
  438MOL0     H59106   2.454   4.585   5.272 -0.2751  1.4032 -0.4960
  438MOL0     H59107   2.564   4.702   5.365  2.3156 -0.0820 -1.3643
  438MOL0     H59108   2.415   4.570   5.517 -1.9658  1.0530 -3.5136
  438MOL0     H59109   2.461   4.425   5.444 -0.5092 -0.2849  0.5804
  438MOL0     H59110   2.836   4.186   4.594 -0.9958  0.3477  1.2381
  438MOL0     H59111   2.904   3.992   4.461  0.2133  1.4519 -1.1763
  438MOL0     H59112   2.730   3.576   4.339  2.1749  1.6178  1.0229
  438MOL0     H59113   2.766   3.368   4.235 -1.3424 -1.0332 -1.6005
  438MOL0     H59114   1.706   2.004   4.298 -2.5879 -0.2779  0.9435
  438MOL0     H59115   1.506   1.984   4.367 -1.6503 -0.4255  0.5533
  438MOL0     H59116   1.125   2.147   4.479  0.4411 -0.0113  0.5112
  438MOL0     H59117   0.879   2.159   4.561  3.6144  1.3184 -0.7385
  438MOL0     H59118   0.700   1.795   4.530 -3.3507 -0.1672  2.1563
  438MOL0     H59119   0.625   1.823   4.367 -0.4908  2.5134 -1.6187
  438MOL0     H59120   0.521   1.919   4.638  3.8003  2.8487 -1.7320
  438MOL0     H59121   0.475   1.764   4.557  0.5050 -1.0634  0.9490
  438MOL0     H59122   0.405   1.875   4.363 -1.8053 -0.7648  0.4368
  438MOL0     H59123   0.428   2.036   4.435 -0.3298  0.0001 -1.6038
  438MOL0     H59124   0.264   1.922   4.630 -2.2681 -1.1788 -0.1778
  438MOL0     H59125   0.209   2.012   4.500 -1.3723  1.1253  2.8536
  438MOL0     H59126   0.097   1.630   4.385  0.3664 -1.0343 -0.6096
  438MOL0     H59127   0.737   1.945   4.233  1.0326  1.1309 -2.1267
  438MOL0     H59128   1.048   2.021   4.027 -0.0153 -1.1926 -0.8720
  438MOL0     H59129   0.977   1.858   4.076  1.0385  0.2173  0.5000
  438MOL0     H59130   0.891   1.991   3.997 -0.9835  4.3295  1.3703
  439MOL0     O59131   9.307   2.664   5.474  0.4723 -0.1415 -0.5013
  439MOL0     C59132   9.306   2.651   5.596  0.2031  0.0506  0.0156
  439MOL0     O59133   9.288   2.752   5.680 -0.0036 -1.0277 -0.6207
  439MOL0     C59134   9.250   2.867   5.631  0.3047 -0.6877 -0.2051
  439MOL0     C59135   9.339   2.971   5.627 -0.5245  0.1270  0.0266
  439MOL0     C59136   9.310   3.100   5.589  0.5368 -0.2644 -0.2046
  439MOL0     C59137   9.175   3.128   5.539  0.1960  0.8482 -0.1288
  439MOL0     O59138   9.140   3.254   5.490  1.5096  0.6312 -0.1741
  439MOL0     C59139   9.235   3.355   5.445  0.3498  0.2606  0.6996
  439MOL0     C59140   9.297   3.327   5.304 -0.0059 -0.8353 -0.2420
  439MOL0     C59141   9.229   3.216   5.220  0.7983  0.5407  0.2677
  439MOL0     C59142   9.307   3.186   5.083  0.2208  0.1890  0.1102
  439MOL0     C59143   9.240   3.085   4.988  0.0605  0.2780 -0.0295
  439MOL0     C59144   9.228   2.951   5.058 -0.5216 -0.2080  0.7429
  439MOL0     C59145   9.183   2.857   4.948  0.2007  0.4780  0.8386
  439MOL0     C59146   9.174   2.710   5.000  0.6400 -0.6233  0.2186
  439MOL0     N59147   9.049   2.678   5.060  0.3482  0.4341  0.1469
  439MOL0     C59148   8.984   2.725   5.172  0.2530 -0.4360 -0.8907
  439MOL0     C59149   8.866   2.662   5.188 -0.9849 -0.5680  0.1589
  439MOL0     C59150   8.770   2.664   5.311 -0.3078  0.2894  0.8997
  439MOL0     C59151   8.840   2.612   5.435  0.2967 -0.1030 -0.5896
  439MOL0     C59152   8.735   2.611   5.543  0.1814  0.0412 -0.3783
  439MOL0     C59153   8.774   2.526   5.670 -0.0126 -0.3257  0.1964
  439MOL0     O59154   8.907   2.577   5.705 -1.3139 -0.0928 -0.1173
  439MOL0     C59155   8.968   2.515   5.818 -0.5136 -0.1970  0.7263
  439MOL0     C59156   9.057   2.591   5.886  0.6388  0.7630  0.7806
  439MOL0     C59157   9.125   2.533   5.995  0.1871 -0.0788 -0.1212
  439MOL0     C59158   9.107   2.397   6.034  0.5008  0.6801  0.2231
  439MOL0     C59159   9.179   2.339   6.149 -0.7150 -0.2242 -0.2872
  439MOL0     O59160   9.138   2.214   6.192 -0.4574  0.2490 -0.3985
  439MOL0     C59161   9.202   2.141   6.294  0.4811 -0.5677 -0.7670
  439MOL0     C59162   9.341   2.140   6.334 -0.3837 -0.3704 -0.0857
  439MOL0     C59163   9.387   2.047   6.424 -0.1170 -1.4612 -0.1985
  439MOL0     C59164   9.305   1.951   6.482 -1.4990 -0.0805  0.2841
  439MOL0     O59165   9.340   1.849   6.568  0.1817  0.2111 -0.1324
  439MOL0     C59166   9.477   1.820   6.591 -0.5099  0.0770  0.0359
  439MOL0     C59167   9.551   1.890   6.704  0.2924 -0.2905 -0.2418
  439MOL0     C59168   9.678   1.815   6.749 -0.2986  0.3626  0.2631
  439MOL0     C59169   9.751   1.897   6.847  0.3132  0.3196 -0.1018
  439MOL0     C59170   9.880   1.826   6.885 -0.6878 -0.0809  0.1089
  439MOL0     C59171   9.935   1.890   7.013  0.1763 -0.3221  0.0098
  439MOL0     C59172  10.065   1.808   7.067  1.0191 -0.1045  0.1351
  439MOL0     C59173  10.178   1.813   6.977  0.4457 -0.4749  0.5637
  439MOL0    Cl59174  10.220   1.983   6.984  0.0269  0.1300 -0.0189
  439MOL0     C59175   9.172   1.952   6.446  0.1276  0.1310  0.4487
  439MOL0     C59176   9.115   2.035   6.354 -1.1233  0.2800 -0.7330
  439MOL0     O59177   9.274   2.403   6.188  0.4660  0.3184 -0.5430
  439MOL0     C59178   9.014   2.318   5.960  1.3001  0.5770  0.3114
  439MOL0     C59179   8.953   2.381   5.853 -0.0553 -0.0263  0.6755
  439MOL0     N59180   8.852   2.573   5.082  0.4310 -0.5902 -0.3981
  439MOL0     N59181   8.960   2.581   5.007  0.3026  0.3770 -0.9890
  439MOL0     C59182   9.083   3.023   5.538 -0.6369  0.0570  0.5481
  439MOL0     C59183   9.122   2.900   5.590 -0.0145  0.5077 -0.0830
  439MOL0     C59184   9.315   2.515   5.650  0.2255 -0.1062  0.7290
  439MOL0     C59185   9.398   2.493   5.761 -0.2149 -0.3546 -0.0663
  439MOL0     C59186   9.396   2.375   5.827 -0.2986 -0.3414  0.8157
  439MOL0     C59187   9.333   2.258   5.782 -0.0289  0.7356 -0.8782
  439MOL0     O59188   9.353   2.144   5.859 -0.3843 -0.0051 -0.3435
  439MOL0     C59189   9.293   2.023   5.809  0.1103 -0.2535 -0.0626
  439MOL0     C59190   9.326   1.912   5.911  0.3021 -0.5342  0.6227
  439MOL0     C59191   9.231   1.919   6.039 -0.1937  0.2779  0.1539
  439MOL0     C59192   9.086   1.879   6.019  0.7826  0.2403 -0.4405
  439MOL0     C59193   9.083   1.736   6.001 -0.0048 -0.0770  1.0842
  439MOL0     C59194   9.059   1.622   5.971 -0.0398  0.0076  0.3332
  439MOL0     C59195   9.265   2.272   5.659 -0.3358  0.0332  0.1847
  439MOL0     C59196   9.253   2.395   5.596  0.5202  0.2162  0.4349
  439MOL0     C59197   9.168   2.392   5.481  0.1849  0.5524  1.0002
  439MOL0     H59198   9.443   2.963   5.659  0.3829  5.4655 -0.6208
  439MOL0     H59199   9.394   3.169   5.585 -0.8781  1.5263 -0.1339
  439MOL0     H59200   9.193   3.456   5.440  2.7258  1.2620 -1.5203
  439MOL0     H59201   9.319   3.365   5.514  0.8181  0.6143  0.0912
  439MOL0     H59202   9.397   3.290   5.330  0.3263  0.3527  0.2163
  439MOL0     H59203   9.293   3.419   5.246 -0.1637  0.0293  1.1152
  439MOL0     H59204   9.124   3.241   5.206  1.0828  0.7872 -1.6923
  439MOL0     H59205   9.221   3.124   5.279  1.8366  0.1125 -0.2249
  439MOL0     H59206   9.311   3.284   5.034 -1.2249  0.2014 -0.0226
  439MOL0     H59207   9.410   3.164   5.112  1.2414 -0.5440 -3.5382
  439MOL0     H59208   9.140   3.110   4.953  0.3407 -0.7148 -1.6458
  439MOL0     H59209   9.301   3.070   4.898 -3.3511 -1.5430 -2.2746
  439MOL0     H59210   9.320   2.907   5.097 -2.3038 -2.2642  2.9085
  439MOL0     H59211   9.150   2.958   5.134  0.0816 -0.3846  1.3875
  439MOL0     H59212   9.253   2.851   4.864  0.4479 -2.1300  1.1775
  439MOL0     H59213   9.084   2.891   4.913  0.8439  2.8404  1.1017
  439MOL0     H59214   9.193   2.635   4.922 -2.9473 -1.9445  0.4269
  439MOL0     H59215   9.251   2.684   5.074 -0.0968  1.8281  1.9479
  439MOL0     H59216   9.019   2.802   5.240 -4.0154  2.0393 -1.1349
  439MOL0     H59217   8.742   2.769   5.326  0.5597  1.0562 -2.0521
  439MOL0     H59218   8.675   2.617   5.284 -0.8062  1.5423  0.3725
  439MOL0     H59219   8.876   2.509   5.422  0.2694 -0.3134  0.7890
  439MOL0     H59220   8.926   2.675   5.459  0.8202  0.2963 -3.2054
  439MOL0     H59221   8.636   2.569   5.521 -0.9700  1.8969  1.0059
  439MOL0     H59222   8.718   2.709   5.589  0.4921 -0.1238  0.0944
  439MOL0     H59223   8.779   2.419   5.645  3.2860  0.1579 -1.8510
  439MOL0     H59224   8.706   2.552   5.752  0.4295  2.2266 -0.1718
  439MOL0     H59225   9.068   2.694   5.855  4.0839  0.1803 -0.4089
  439MOL0     H59226   9.202   2.596   6.038 -0.0301 -1.1310  1.8973
  439MOL0     H59227   9.412   2.209   6.291  0.1990 -1.3936 -0.7997
  439MOL0     H59228   9.494   2.050   6.439  0.0892  3.3104 -1.2100
  439MOL0     H59229   9.494   1.713   6.605 -0.0657  0.2909  1.3356
  439MOL0     H59230   9.536   1.834   6.500  3.0047 -3.1471  1.5250
  439MOL0     H59231   9.571   1.996   6.686  0.2253 -0.3749 -0.8276
  439MOL0     H59232   9.483   1.885   6.791 -1.1256 -3.7620 -1.3536
  439MOL0     H59233   9.637   1.724   6.794  3.4512 -1.0174  1.2503
  439MOL0     H59234   9.749   1.779   6.674  0.7357 -2.4046  2.3949
  439MOL0     H59235   9.685   1.914   6.932  0.0025 -0.8542 -0.0969
  439MOL0     H59236   9.764   1.998   6.806  0.6393 -0.4066 -1.8472
  439MOL0     H59237   9.946   1.849   6.801 -1.4811  3.5412  0.3133
  439MOL0     H59238   9.872   1.720   6.910 -1.4645  0.7859  4.5003
  439MOL0     H59239   9.954   1.996   6.997 -0.3595 -0.1891  0.2587
  439MOL0     H59240   9.866   1.891   7.097  2.8564  1.2889  2.3921
  439MOL0     H59241  10.046   1.700   7.068 -0.4318  0.0616 -2.0982
  439MOL0     H59242  10.092   1.842   7.167 -1.0828 -2.9470  1.8528
  439MOL0     H59243  10.265   1.752   7.004  0.8533 -1.0778 -1.9040
  439MOL0     H59244  10.138   1.785   6.880  2.9565 -0.0295 -0.6835
  439MOL0     H59245   9.117   1.871   6.494  2.7288 -1.0471  1.6168
  439MOL0     H59246   9.010   2.037   6.327 -0.7316 -1.2086 -2.6536
  439MOL0     H59247   8.982   2.215   5.973 -0.4050  1.3395  3.1676
  439MOL0     H59248   8.881   2.317   5.803  0.8045 -0.3318 -0.2014
  439MOL0     H59249   8.976   3.034   5.528 -0.6480  0.6783  1.2365
  439MOL0     H59250   9.051   2.819   5.599  0.2666  0.0727 -1.5067
  439MOL0     H59251   9.466   2.570   5.799  2.0809 -1.3206 -1.9450
  439MOL0     H59252   9.459   2.363   5.915  0.7008  0.2353  0.1897
  439MOL0     H59253   9.352   2.006   5.718 -2.2933  1.8958 -2.1702
  439MOL0     H59254   9.185   2.034   5.796  0.0275  1.0975  1.5007
  439MOL0     H59255   9.430   1.908   5.943  0.4219  0.1372  0.3228
  439MOL0     H59256   9.303   1.817   5.863  1.1772 -2.3609  3.5463
  439MOL0     H59257   9.241   2.020   6.079  1.4747  0.4639 -0.6339
  439MOL0     H59258   9.269   1.860   6.123  1.7132  0.9781 -0.1749
  439MOL0     H59259   9.027   1.902   6.108 -1.6136 -1.9894 -1.3151
  439MOL0     H59260   9.039   1.935   5.936 -0.1736  0.0793 -0.0248
  439MOL0     H59261   9.042   1.523   5.934 -0.8544  0.9134 -1.9314
  439MOL0     H59262   9.214   2.184   5.620 -2.8632 -0.1069  3.4306
  439MOL0     H59263   9.131   2.492   5.456  0.7338  1.0521  2.0898
  439MOL0     H59264   9.216   2.348   5.393 -2.2066 -1.1181  0.4360
  439MOL0     H59265   9.077   2.335   5.502  0.6085 -0.5785 -0.1424
  440MOL0     O59266   4.892   6.901   1.723  0.3525 -0.0335 -0.2427
  440MOL0     C59267   4.995   6.862   1.769  0.2570 -1.1827 -0.8166
  440MOL0     O59268   5.029   6.871   1.901  0.3640  0.7175 -0.0939
  440MOL0     C59269   4.973   6.956   1.988 -0.1608 -0.4554 -0.2886
  440MOL0     C59270   4.852   7.039   1.984  0.5967  0.6614 -0.1945
  440MOL0     C59271   4.820   7.121   2.096 -0.5077 -0.1049 -0.1527
  440MOL0     C59272   4.895   7.120   2.213 -0.5151 -0.4215 -0.9154
  440MOL0     O59273   4.882   7.203   2.321 -0.0192 -0.3100 -0.3752
  440MOL0     C59274   4.819   7.328   2.298 -0.1842  0.1812 -0.1528
  440MOL0     C59275   4.851   7.414   2.423 -0.1861 -0.4023  0.1494
  440MOL0     C59276   4.996   7.447   2.434 -0.1364  0.4894 -0.1258
  440MOL0     C59277   5.072   7.471   2.304  0.4116 -0.3172  0.1283
  440MOL0     C59278   5.013   7.595   2.229  1.1366 -0.0737  0.0386
  440MOL0     C59279   5.114   7.709   2.208 -0.0877  0.2813  0.4386
  440MOL0     C59280   5.225   7.664   2.117  0.6860 -0.1600 -0.5471
  440MOL0     C59281   5.295   7.780   2.054  0.5871 -0.3421  0.3548
  440MOL0     N59282   5.435   7.760   2.034  0.2837 -0.4176 -0.2123
  440MOL0     C59283   5.525   7.802   2.127  0.6715 -0.1668  0.2021
  440MOL0     C59284   5.653   7.794   2.078  1.1700  0.0881  0.7510
  440MOL0     C59285   5.780   7.808   2.145  0.6205  0.6315  0.3210
  440MOL0     C59286   5.844   7.948   2.151 -0.4891 -0.3036 -0.4381
  440MOL0     C59287   5.962   7.961   2.243 -0.9314 -0.4278  0.0995
  440MOL0     C59288   5.956   7.870   2.365 -0.1260  0.7338  0.2581
  440MOL0     O59289   6.081   7.879   2.443 -0.1431 -0.4708  1.0659
  440MOL0     C59290   6.051   7.882   2.573  0.4949 -0.2192 -1.4499
  440MOL0     C59291   6.096   7.987   2.657 -0.7502  0.0458  0.0024
  440MOL0     C59292   6.079   7.975   2.798  0.6626  0.1509  0.2073
  440MOL0     C59293   6.024   7.864   2.863 -0.0369  0.2628 -0.3871
  440MOL0     C59294   6.005   7.867   3.009  0.0631 -0.7421  0.4564
  440MOL0     O59295   6.015   7.990   3.071  0.2404  0.8704  0.3135
  440MOL0     C59296   5.984   8.012   3.204  0.5054  0.0162 -0.3917
  440MOL0     C59297   5.975   8.146   3.242  0.3481 -0.2651 -0.0222
  440MOL0     C59298   5.956   8.173   3.380  0.9934  0.5712 -0.2721
  440MOL0     C59299   5.954   8.074   3.477 -0.7062  0.1198 -0.3450
  440MOL0     O59300   5.945   8.098   3.616 -0.0104  0.1274  1.2508
  440MOL0     C59301   5.881   8.213   3.677 -0.5848  0.7248  0.4478
  440MOL0     C59302   5.726   8.215   3.665  0.1776 -0.3166  0.2202
  440MOL0     C59303   5.677   8.359   3.707  1.0079  1.0444 -0.7844
  440MOL0     C59304   5.528   8.350   3.740  0.6929 -0.2063  0.4506
  440MOL0     C59305   5.440   8.472   3.787  0.0785 -0.2442  0.1982
  440MOL0     C59306   5.290   8.437   3.842 -0.1074  0.6524  0.5013
  440MOL0     C59307   5.207   8.357   3.744 -0.4061  0.2410 -0.8449
  440MOL0     C59308   5.150   8.443   3.631  0.6239 -0.1934 -0.1913
  440MOL0    Cl59309   5.263   8.555   3.546 -0.2707  0.1011 -0.6131
  440MOL0     C59310   5.969   7.942   3.440  0.2087  0.7519 -0.8663
  440MOL0     C59311   5.972   7.918   3.302 -0.2471  0.1049  0.0719
  440MOL0     O59312   5.983   7.764   3.062  0.4257 -0.4730  0.2120
  440MOL0     C59313   5.964   7.765   2.773 -0.0303  0.1032 -0.0181
  440MOL0     C59314   5.979   7.780   2.635 -0.2554 -0.5123 -0.3237
  440MOL0     N59315   5.637   7.744   1.948  0.3862  0.0826 -0.1984
  440MOL0     N59316   5.503   7.732   1.924 -0.0142  0.2081  0.1568
  440MOL0     C59317   5.004   7.036   2.216  0.4140  0.3448 -0.4285
  440MOL0     C59318   5.048   6.952   2.109  0.3740 -0.1956 -0.2114
  440MOL0     C59319   5.089   6.785   1.685 -0.2026  0.5018 -0.3585
  440MOL0     C59320   5.202   6.717   1.750 -0.4525 -0.8359  0.1671
  440MOL0     C59321   5.301   6.647   1.681 -0.5238 -0.2376 -0.1872
  440MOL0     C59322   5.299   6.646   1.535  0.3003  0.2367  0.1500
  440MOL0     O59323   5.390   6.573   1.466  0.1326 -0.0435  0.5134
  440MOL0     C59324   5.409   6.591   1.330  0.5754 -0.6410 -0.9724
  440MOL0     C59325   5.523   6.512   1.272  1.2653 -0.1585 -0.8746
  440MOL0     C59326   5.499   6.366   1.300 -0.4460 -0.2242  0.6355
  440MOL0     C59327   5.579   6.277   1.200  0.9238  0.4331 -0.3863
  440MOL0     C59328   5.733   6.296   1.200  0.4200 -0.4006 -0.7248
  440MOL0     C59329   5.854   6.326   1.196 -0.4028  0.2065 -0.8769
  440MOL0     C59330   5.190   6.699   1.471 -0.4730 -0.0162  0.3344
  440MOL0     C59331   5.088   6.767   1.542 -0.1552  0.5143  0.3515
  440MOL0     C59332   4.985   6.825   1.449  0.0256  0.5131 -0.1226
  440MOL0     H59333   4.792   7.027   1.895  2.0933 -1.7448 -1.0019
  440MOL0     H59334   4.722   7.168   2.092 -2.1409 -3.1054  1.3541
  440MOL0     H59335   4.859   7.372   2.206  2.4867  0.4460  1.0234
  440MOL0     H59336   4.712   7.316   2.280 -0.6564  1.2856  1.6212
  440MOL0     H59337   4.833   7.362   2.517  1.9451 -0.1618  0.7211
  440MOL0     H59338   4.798   7.509   2.412  1.1467  0.1759 -1.6247
  440MOL0     H59339   5.041   7.368   2.495  1.1184  2.4920  1.6794
  440MOL0     H59340   5.015   7.539   2.489  0.4230  0.1182  0.3049
  440MOL0     H59341   5.176   7.501   2.319  0.3398  1.6675 -2.5407
  440MOL0     H59342   5.072   7.388   2.233 -3.3013 -1.5586  1.3467
  440MOL0     H59343   4.971   7.565   2.132 -1.2447  0.5868  0.8006
  440MOL0     H59344   4.928   7.638   2.282  0.2121 -1.9075  0.1480
  440MOL0     H59345   5.067   7.804   2.181  1.7759  1.7082  1.9079
  440MOL0     H59346   5.161   7.741   2.301  1.6674  2.5334 -1.1241
  440MOL0     H59347   5.206   7.586   2.043  2.5211 -0.8504 -0.3529
  440MOL0     H59348   5.296   7.619   2.187  0.9814  1.8336  0.5031
  440MOL0     H59349   5.243   7.784   1.958 -1.5483 -1.0512  1.4194
  440MOL0     H59350   5.270   7.869   2.112  0.5304 -0.4687  0.5267
  440MOL0     H59351   5.486   7.842   2.220 -3.4031 -1.5810 -0.6496
  440MOL0     H59352   5.765   7.764   2.244  2.4228  2.5167  1.5184
  440MOL0     H59353   5.854   7.739   2.102 -0.3795  0.9493 -2.0566
  440MOL0     H59354   5.864   7.976   2.047 -1.0785 -1.4740 -0.8832
  440MOL0     H59355   5.760   8.007   2.189 -0.2058 -1.0392  1.4479
  440MOL0     H59356   5.981   8.063   2.277  4.4814 -1.2438  0.3850
  440MOL0     H59357   6.057   7.943   2.191 -0.1315  1.4320  0.8323
  440MOL0     H59358   5.956   7.764   2.338 -0.2731  1.7053 -4.4491
  440MOL0     H59359   5.870   7.903   2.424 -1.8065 -1.0165 -1.0884
  440MOL0     H59360   6.136   8.072   2.602 -0.9773  0.0471 -0.1620
  440MOL0     H59361   6.114   8.056   2.862 -0.2344  3.7382 -3.3891
  440MOL0     H59362   5.992   8.224   3.169 -1.1911 -0.0833 -0.2196
  440MOL0     H59363   5.956   8.278   3.409 -0.2347  0.3245  0.7233
  440MOL0     H59364   5.914   8.221   3.781 -0.3834 -0.7274  0.5132
  440MOL0     H59365   5.923   8.299   3.624 -0.7900 -0.7621 -2.2984
  440MOL0     H59366   5.701   8.185   3.563  2.9474 -0.2894 -0.5513
  440MOL0     H59367   5.693   8.137   3.734  0.3909 -0.8360 -0.2552
  440MOL0     H59368   5.728   8.392   3.798  1.8249 -2.2478  0.0853
  440MOL0     H59369   5.698   8.426   3.623  2.0212  2.7852  0.7817
  440MOL0     H59370   5.523   8.269   3.813 -1.4588  1.3349  2.1554
  440MOL0     H59371   5.474   8.318   3.650  2.6722  2.3474 -1.8209
  440MOL0     H59372   5.446   8.561   3.724 -2.2523 -0.1332  0.0468
  440MOL0     H59373   5.484   8.506   3.881  1.6944 -0.8360 -0.3053
  440MOL0     H59374   5.301   8.368   3.926 -2.1764  0.9965  1.1026
  440MOL0     H59375   5.240   8.529   3.874  1.8108  0.8438  3.3731
  440MOL0     H59376   5.125   8.303   3.792  0.5531  0.4646  1.1215
  440MOL0     H59377   5.274   8.287   3.693 -1.2682 -0.5800 -0.8861
  440MOL0     H59378   5.106   8.378   3.555  1.3593 -3.5091  2.0234
  440MOL0     H59379   5.067   8.506   3.664 -1.1651 -2.5037 -0.0016
  440MOL0     H59380   5.965   7.862   3.513 -2.4085  0.8498 -0.8069
  440MOL0     H59381   5.966   7.811   3.282 -0.9040 -0.4429  2.7889
  440MOL0     H59382   5.922   7.673   2.814  1.7337 -1.4326 -1.4926
  440MOL0     H59383   5.942   7.700   2.573  0.6451  1.6874 -3.9969
  440MOL0     H59384   5.069   7.039   2.304 -0.4266 -0.2666  0.2294
  440MOL0     H59385   5.132   6.884   2.112 -0.1834 -0.9704 -1.2740
  440MOL0     H59386   5.191   6.719   1.857 -0.7353  0.4507  0.1322
  440MOL0     H59387   5.372   6.590   1.741 -0.0995  0.3610 -0.1144
  440MOL0     H59388   5.423   6.697   1.305 -1.7798 -0.4449 -1.6672
  440MOL0     H59389   5.319   6.563   1.275 -0.6833  3.1168 -1.0668
  440MOL0     H59390   5.599   6.547   1.342 -0.8734  1.4819  0.8046
  440MOL0     H59391   5.553   6.534   1.169  6.0499  1.4351  0.6187
  440MOL0     H59392   5.396   6.353   1.265 -0.2397  3.2332 -1.8318
  440MOL0     H59393   5.518   6.337   1.404 -1.3467  0.7904  1.0970
  440MOL0     H59394   5.552   6.178   1.238 -0.3530  1.0591  0.4306
  440MOL0     H59395   5.542   6.290   1.098  1.4454  0.4962 -0.5709
  440MOL0     H59396   5.959   6.347   1.192  0.0253 -1.7616 -0.7832
  440MOL0     H59397   5.182   6.697   1.363  1.2068  3.6001 -0.0230
  440MOL0     H59398   5.009   6.815   1.343 -0.5506  2.5423 -0.4848
  440MOL0     H59399   4.894   6.767   1.468  0.5297 -0.2958 -0.1063
  440MOL0     H59400   4.976   6.932   1.466 -0.6839  0.1385  2.2825
  441MOL0     O59401  11.159   1.996  10.619 -0.1324  0.4543  0.1758
  441MOL0     C59402  11.203   1.951  10.728  0.6418 -0.9305  1.0756
  441MOL0     O59403  11.137   1.961  10.842  0.8413  0.7558 -0.9258
  441MOL0     C59404  11.033   2.051  10.845  0.6457  0.1456  0.4119
  441MOL0     C59405  10.906   2.024  10.781 -0.0046 -0.0792 -0.1260
  441MOL0     C59406  10.803   2.115  10.767  0.5416 -0.1650 -0.2542
  441MOL0     C59407  10.811   2.240  10.837  0.0260 -0.9349 -0.9256
  441MOL0     O59408  10.710   2.326  10.823  0.3047  0.6553 -0.5747
  441MOL0     C59409  10.615   2.314  10.933 -0.5844  0.1492 -0.1320
  441MOL0     C59410  10.509   2.417  10.896 -0.2115 -1.3466  0.0139
  441MOL0     C59411  10.464   2.410  10.752 -0.4413  0.1202  0.5273
  441MOL0     C59412  10.329   2.468  10.739  0.0300 -1.2085 -0.2361
  441MOL0     C59413  10.306   2.475  10.588  0.5931 -0.7461  0.5313
  441MOL0     C59414  10.174   2.545  10.542 -0.1327 -0.6604 -0.4238
  441MOL0     C59415  10.149   2.504  10.395  0.1623 -0.5629  0.2115
  441MOL0     C59416  10.030   2.595  10.337 -0.2385 -0.7650  0.1898
  441MOL0     N59417   9.901   2.561  10.395  0.0685 -0.1597 -0.1139
  441MOL0     C59418   9.812   2.659  10.452 -0.2807  0.8393 -0.0727
  441MOL0     C59419   9.696   2.597  10.475  0.1757  0.4339 -0.8024
  441MOL0     C59420   9.577   2.648  10.552 -0.3669  0.8899  0.4365
  441MOL0     C59421   9.461   2.706  10.465 -0.0900  1.0762  0.1070
  441MOL0     C59422   9.377   2.806  10.540 -1.2041  0.6657 -0.9960
  441MOL0     C59423   9.237   2.843  10.473 -0.6678  0.1507 -0.2140
  441MOL0     O59424   9.145   2.739  10.518 -0.6464 -0.0735 -0.3733
  441MOL0     C59425   9.013   2.762  10.492 -0.0518 -0.6288  0.4576
  441MOL0     C59426   8.927   2.755  10.595 -0.3441  0.0622 -0.4501
  441MOL0     C59427   8.791   2.787  10.584  0.2256 -0.5080  0.1018
  441MOL0     C59428   8.739   2.831  10.459 -0.1976 -0.3296 -0.8606
  441MOL0     C59429   8.596   2.858  10.446 -0.6279 -0.3633  0.8188
  441MOL0     O59430   8.517   2.802  10.547  0.2430  0.5099  0.2519
  441MOL0     C59431   8.378   2.790  10.550  0.2379  0.3722 -0.3755
  441MOL0     C59432   8.329   2.730  10.671  0.4651  1.0300  0.5155
  441MOL0     C59433   8.188   2.721  10.686 -0.6483 -0.2892  0.2906
  441MOL0     C59434   8.093   2.762  10.586 -0.9983  0.3600 -0.4323
  441MOL0     O59435   7.957   2.749  10.609  0.2285 -0.9428  0.2897
  441MOL0     C59436   7.894   2.881  10.621 -0.3235  0.0243  0.6184
  441MOL0     C59437   7.895   2.946  10.768  0.8801  0.4793 -1.6528
  441MOL0     C59438   7.861   2.866  10.886  0.6118  0.0374  0.6272
  441MOL0     C59439   7.716   2.826  10.887 -0.7992 -0.9531  0.1109
  441MOL0     C59440   7.610   2.938  10.874 -1.0228  0.2105  0.5904
  441MOL0     C59441   7.475   2.908  10.936  0.0506  0.6552 -0.4225
  441MOL0     C59442   7.466   2.969  11.078 -0.2183  0.2909  0.0155
  441MOL0     C59443   7.344   2.961  11.160  0.0240  0.1938  0.2018
  441MOL0    Cl59444   7.203   3.046  11.093  0.0218  0.0567  0.4191
  441MOL0     C59445   8.144   2.811  10.461  0.3842  0.2852  0.2238
  441MOL0     C59446   8.283   2.831  10.446  0.0297 -0.1617 -0.2217
  441MOL0     O59447   8.549   2.913  10.342  0.5459  0.2957 -0.0420
  441MOL0     C59448   8.831   2.837  10.349  0.1568 -0.5993  0.4330
  441MOL0     C59449   8.967   2.811  10.373 -0.4563  1.0715 -0.0714
  441MOL0     N59450   9.716   2.461  10.441  0.6767  0.1062 -0.3531
  441MOL0     N59451   9.832   2.440  10.391  0.2651 -0.4050  0.6936
  441MOL0     C59452  10.926   2.262  10.904 -0.4933 -0.5380 -0.6839
  441MOL0     C59453  11.037   2.174  10.917  0.1457  0.9426 -0.0593
  441MOL0     C59454  11.325   1.864  10.734  0.3271 -0.3709 -0.2606
  441MOL0     C59455  11.340   1.788  10.856 -0.4319  1.1691  0.8414
  441MOL0     C59456  11.438   1.697  10.875 -1.0630  0.7198 -1.1269
  441MOL0     C59457  11.530   1.677  10.770 -0.1546 -0.6226 -0.6027
  441MOL0     O59458  11.641   1.606  10.796 -0.0802  1.2578 -0.2427
  441MOL0     C59459  11.718   1.539  10.695  0.2842 -0.4771 -0.3176
  441MOL0     C59460  11.644   1.435  10.606  0.6015  0.5875 -0.0818
  441MOL0     C59461  11.731   1.368  10.497  0.0784 -0.1523 -0.6874
  441MOL0     C59462  11.785   1.463  10.386  0.2729  0.6917  0.5060
  441MOL0     C59463  11.678   1.545  10.330  0.3677 -0.0445 -0.3422
  441MOL0     C59464  11.582   1.616  10.291 -0.4034  0.3293 -0.0969
  441MOL0     C59465  11.523   1.759  10.656  0.4131 -0.5183  0.1443
  441MOL0     C59466  11.415   1.851  10.628 -0.4127  0.6447  0.0345
  441MOL0     C59467  11.410   1.926  10.490 -0.6252  0.1822 -1.1350
  441MOL0     H59468  10.908   1.929  10.729  1.3706 -1.1668  1.7763
  441MOL0     H59469  10.706   2.092  10.724 -0.3756 -1.4873  2.3205
  441MOL0     H59470  10.565   2.217  10.940  0.3547 -0.2215  3.4542
  441MOL0     H59471  10.657   2.349  11.028 -0.8677  2.2195 -0.7200
  441MOL0     H59472  10.545   2.520  10.906 -0.5275 -1.0541 -1.5165
  441MOL0     H59473  10.419   2.408  10.958 -0.0897 -2.1202  0.0892
  441MOL0     H59474  10.454   2.303  10.729 -1.9520 -0.2124  2.4416
  441MOL0     H59475  10.533   2.468  10.691  0.2544  3.3626  4.0058
  441MOL0     H59476  10.253   2.416  10.798 -0.9440  2.1466  1.7720
  441MOL0     H59477  10.318   2.564  10.791 -3.0277 -0.7035 -1.6025
  441MOL0     H59478  10.389   2.533  10.547  0.5556 -0.0118  1.4591
  441MOL0     H59479  10.292   2.378  10.540 -3.5915  0.5710 -1.4546
  441MOL0     H59480  10.095   2.502  10.605  1.2254 -0.5135  1.4480
  441MOL0     H59481  10.165   2.652  10.560  0.1618 -0.6771 -0.1626
  441MOL0     H59482  10.137   2.395  10.393 -0.3709 -0.7513  4.2324
  441MOL0     H59483  10.238   2.519  10.334  0.3142 -0.2398  0.5085
  441MOL0     H59484  10.042   2.700  10.365 -3.3199  0.4011 -2.2968
  441MOL0     H59485  10.021   2.564  10.232  0.6881  0.9110 -0.4358
  441MOL0     H59486   9.837   2.758  10.486  2.6545 -0.1172  0.8607
  441MOL0     H59487   9.535   2.572  10.618  1.6847  0.7651  1.6893
  441MOL0     H59488   9.612   2.731  10.614 -0.9098  0.7019  1.0051
  441MOL0     H59489   9.507   2.748  10.375  1.8799 -0.8212  0.1555
  441MOL0     H59490   9.418   2.607  10.445  2.8937 -0.1660 -0.8036
  441MOL0     H59491   9.439   2.895  10.547  0.8521 -0.7187 -0.7082
  441MOL0     H59492   9.371   2.781  10.646  1.5822 -3.7087 -1.5797
  441MOL0     H59493   9.273   2.843  10.370  0.3592  3.6785  0.0216
  441MOL0     H59494   9.208   2.944  10.502 -0.2743  0.5737 -1.2459
  441MOL0     H59495   8.955   2.725  10.695 -1.8721  1.7372  0.5352
  441MOL0     H59496   8.737   2.789  10.678  1.9625  0.6780  1.1261
  441MOL0     H59497   8.404   2.698  10.743 -2.1428 -0.4580  2.7066
  441MOL0     H59498   8.137   2.697  10.779 -4.2070  5.2165  0.2196
  441MOL0     H59499   7.938   2.950  10.548  0.6820  0.6544  1.7886
  441MOL0     H59500   7.788   2.879  10.595 -0.0470  3.5515 -1.4513
  441MOL0     H59501   8.001   2.967  10.776  0.6825  0.6876  2.0712
  441MOL0     H59502   7.846   3.043  10.778  1.8562  0.9193 -1.0615
  441MOL0     H59503   7.927   2.780  10.891  4.6201  2.8476  0.6482
  441MOL0     H59504   7.880   2.916  10.981 -0.4392  2.0198 -0.1417
  441MOL0     H59505   7.702   2.778  10.984  0.4014  1.6596  1.6918
  441MOL0     H59506   7.702   2.765  10.797 -0.1917 -0.6225 -0.2188
  441MOL0     H59507   7.598   2.956  10.767  3.5130 -1.5611 -0.4332
  441MOL0     H59508   7.652   3.029  10.916  0.7836  0.8750 -2.3729
  441MOL0     H59509   7.408   2.967  10.873  0.7507  2.8934  0.7976
  441MOL0     H59510   7.451   2.802  10.940  0.5294  0.5006  4.0154
  441MOL0     H59511   7.493   3.075  11.078  2.6634 -0.2457  3.6296
  441MOL0     H59512   7.542   2.913  11.134 -1.3620 -1.5966 -0.2661
  441MOL0     H59513   7.323   2.854  11.162  0.3033  0.1418  0.4510
  441MOL0     H59514   7.359   2.993  11.263  2.2634 -2.6279  0.8835
  441MOL0     H59515   8.082   2.831  10.375 -0.8496  1.0600  1.2541
  441MOL0     H59516   8.320   2.869  10.351  3.3673 -0.7868  0.7077
  441MOL0     H59517   8.794   2.872  10.254  0.4242 -2.1855 -0.2977
  441MOL0     H59518   9.030   2.822  10.285  0.4294  3.3009  0.7836
  441MOL0     H59519  10.941   2.360  10.949  2.0291 -1.4641  0.7057
  441MOL0     H59520  11.123   2.196  10.981 -0.6489  1.9132  0.7078
  441MOL0     H59521  11.274   1.803  10.942  2.5899  2.0564  3.1931
  441MOL0     H59522  11.443   1.647  10.972 -0.7341  0.3776 -1.3186
  441MOL0     H59523  11.804   1.494  10.744 -0.6686 -1.3331  0.6219
  441MOL0     H59524  11.754   1.610  10.619  0.8375 -0.9561 -0.5090
  441MOL0     H59525  11.557   1.486  10.563  0.4615 -0.7714 -1.5026
  441MOL0     H59526  11.604   1.359  10.673  1.2504 -1.2392 -1.6642
  441MOL0     H59527  11.676   1.292  10.441  0.2121 -0.3144 -0.5996
  441MOL0     H59528  11.820   1.320  10.539 -0.4866  0.0816  0.8545
  441MOL0     H59529  11.865   1.533  10.413 -0.9178  2.1959  0.2549
  441MOL0     H59530  11.842   1.409  10.310 -0.0448  0.8422  0.1548
  441MOL0     H59531  11.498   1.673  10.257 -0.4379  0.3170 -0.0337
  441MOL0     H59532  11.603   1.762  10.584  1.2012 -0.3222  1.0066
  441MOL0     H59533  11.318   1.887  10.448 -1.3682  0.9754 -0.2897
  441MOL0     H59534  11.419   2.034  10.508  3.3288 -0.4482  2.1986
  441MOL0     H59535  11.489   1.889  10.424 -2.2609 -1.5675 -2.1872
  442MOL0     O59536   4.603   0.749   0.645 -0.9362 -0.2261  0.0381
  442MOL0     C59537   4.679   0.843   0.658  0.1012  1.5932 -0.8177
  442MOL0     O59538   4.817   0.840   0.683 -0.3329  0.0931  0.5415
  442MOL0     C59539   4.885   0.725   0.713  0.0740  0.1190  1.0301
  442MOL0     C59540   5.023   0.739   0.683 -0.9142  0.2939  0.1130
  442MOL0     C59541   5.105   0.627   0.686 -0.1572  0.7951 -1.2335
  442MOL0     C59542   5.070   0.503   0.736  1.1135 -0.1370  0.0840
  442MOL0     O59543   5.151   0.395   0.758  0.1688 -0.4567  0.5615
  442MOL0     C59544   5.273   0.434   0.827  0.3309 -0.2417 -1.1026
  442MOL0     C59545   5.310   0.306   0.906 -0.3213  0.0666  0.7406
  442MOL0     C59546   5.433   0.331   1.006 -0.1522  0.0835  0.3225
  442MOL0     C59547   5.376   0.417   1.129 -0.0513  0.1970  0.1127
  442MOL0     C59548   5.493   0.445   1.218  1.0713 -0.0990 -0.2030
  442MOL0     C59549   5.452   0.532   1.335  0.1366  0.3656 -0.1827
  442MOL0     C59550   5.577   0.549   1.431 -0.3516 -0.0043  1.0335
  442MOL0     C59551   5.539   0.638   1.562  1.0125  1.1898  0.3055
  442MOL0     N59552   5.623   0.602   1.677 -0.5475  0.0070  0.7845
  442MOL0     C59553   5.653   0.695   1.774  0.9239  0.7779  0.0763
  442MOL0     C59554   5.705   0.621   1.878  0.1213 -0.4646  0.3370
  442MOL0     C59555   5.745   0.678   2.012  0.1857 -0.3696 -0.2533
  442MOL0     C59556   5.661   0.802   2.058 -1.2781  0.0413  0.6567
  442MOL0     C59557   5.736   0.891   2.151 -0.0678 -0.0996 -0.4049
  442MOL0     C59558   5.761   0.819   2.277  0.5290 -0.1440  0.5329
  442MOL0     O59559   5.823   0.905   2.365 -0.4663  0.5619  0.7291
  442MOL0     C59560   5.824   0.872   2.501 -0.4881  0.3418  0.2069
  442MOL0     C59561   5.876   0.956   2.597  0.5012  0.2220  0.4523
  442MOL0     C59562   5.880   0.925   2.733  1.0214 -0.5261 -0.4879
  442MOL0     C59563   5.851   0.800   2.769  0.7779 -0.3060 -0.1690
  442MOL0     C59564   5.870   0.765   2.913  0.2279  0.1948 -0.0428
  442MOL0     O59565   5.791   0.669   2.953  0.5684  0.8530  0.1850
  442MOL0     C59566   5.796   0.618   3.076  0.6703  0.4489  0.0106
  442MOL0     C59567   5.770   0.484   3.089  0.8277  0.0563  0.0766
  442MOL0     C59568   5.769   0.410   3.209 -0.7762 -0.5668  0.3777
  442MOL0     C59569   5.808   0.467   3.322  0.1681 -0.5034 -1.0724
  442MOL0     O59570   5.817   0.410   3.445  0.7940  1.1026  0.4877
  442MOL0     C59571   5.693   0.352   3.486 -0.5614  0.2921 -0.8456
  442MOL0     C59572   5.736   0.258   3.600  0.0376  0.9040  0.3616
  442MOL0     C59573   5.615   0.237   3.698 -0.2439  0.2497 -0.3677
  442MOL0     C59574   5.681   0.184   3.829 -0.0609  0.5000 -0.6873
  442MOL0     C59575   5.581   0.164   3.934  0.3134  1.3042 -0.6546
  442MOL0     C59576   5.628   0.082   4.051 -0.1775  0.3262 -0.9141
  442MOL0     C59577   5.767   0.115   4.116 -0.7723 -0.3575  0.2976
  442MOL0     C59578   5.793   0.270   4.131  1.0063 -0.6994  0.5198
  442MOL0    Cl59579   5.966   0.282   4.122  0.1087  0.2267 -0.1178
  442MOL0     C59580   5.840   0.601   3.312  0.1427 -0.1741  0.3062
  442MOL0     C59581   5.825   0.679   3.197  0.3068 -0.4551  0.6878
  442MOL0     O59582   5.953   0.821   2.982  0.0754 -1.0172 -0.8210
  442MOL0     C59583   5.801   0.708   2.681  0.5802  0.8252 -0.3053
  442MOL0     C59584   5.780   0.752   2.549 -0.1434 -0.1090  0.0256
  442MOL0     N59585   5.705   0.487   1.842  0.2888 -0.2205  0.1025
  442MOL0     N59586   5.654   0.477   1.719 -0.3223  0.0947  0.6437
  442MOL0     C59587   4.934   0.491   0.762  0.1343 -1.3788 -0.3980
  442MOL0     C59588   4.839   0.597   0.748 -0.9101 -0.2739 -0.0591
  442MOL0     C59589   4.616   0.975   0.658 -0.8407  0.0230 -0.4021
  442MOL0     C59590   4.696   1.075   0.599  0.4629  0.3262 -0.4567
  442MOL0     C59591   4.630   1.199   0.573 -0.5654 -0.6661  0.1668
  442MOL0     C59592   4.501   1.224   0.610  0.6843  0.8440  0.1278
  442MOL0     O59593   4.426   1.328   0.569  0.4122  0.1379 -0.1420
  442MOL0     C59594   4.488   1.455   0.566  0.1019  0.8897 -0.9567
  442MOL0     C59595   4.549   1.487   0.707  0.6304 -0.1157 -0.2138
  442MOL0     C59596   4.597   1.640   0.694  0.4574  0.2455  0.1438
  442MOL0     C59597   4.603   1.706   0.832  0.5131 -0.7013 -0.6248
  442MOL0     C59598   4.650   1.843   0.825 -0.6557 -0.2424 -0.6524
  442MOL0     C59599   4.700   1.954   0.813  0.4997 -0.6597 -0.9028
  442MOL0     C59600   4.428   1.126   0.685 -0.5974  0.4836  0.9206
  442MOL0     C59601   4.480   1.000   0.706 -0.9182 -0.0103  0.1301
  442MOL0     C59602   4.410   0.903   0.793  0.7465  0.3045 -0.0238
  442MOL0     H59603   5.061   0.832   0.643  1.6147 -1.0808 -0.8803
  442MOL0     H59604   5.200   0.645   0.637 -0.0503  1.0810 -0.9175
  442MOL0     H59605   5.355   0.471   0.764  0.1943  0.3190 -0.9551
  442MOL0     H59606   5.245   0.512   0.897 -0.5756  0.8147 -2.5826
  442MOL0     H59607   5.342   0.228   0.836 -0.3118  1.3570 -0.7594
  442MOL0     H59608   5.214   0.280   0.952 -0.1565  1.5726  2.0164
  442MOL0     H59609   5.521   0.375   0.959 -0.4781 -0.4403 -0.8013
  442MOL0     H59610   5.460   0.231   1.042  3.4677  0.5054 -0.8163
  442MOL0     H59611   5.327   0.510   1.101  1.2841  0.4059 -1.6727
  442MOL0     H59612   5.309   0.353   1.187  1.6282 -1.3178  0.4782
  442MOL0     H59613   5.534   0.350   1.253 -0.5737  0.1684  2.7550
  442MOL0     H59614   5.568   0.500   1.161 -0.6214  2.0244 -0.4941
  442MOL0     H59615   5.407   0.629   1.315  1.7474  1.7954  2.5078
  442MOL0     H59616   5.384   0.472   1.396  0.8460 -2.2023 -1.7553
  442MOL0     H59617   5.661   0.595   1.377  0.4711 -2.3005  0.2235
  442MOL0     H59618   5.634   0.458   1.449  0.8643  1.0525  2.8810
  442MOL0     H59619   5.558   0.744   1.540 -1.1156  1.4865 -0.3767
  442MOL0     H59620   5.434   0.628   1.591  1.6231 -3.2719  1.6919
  442MOL0     H59621   5.631   0.800   1.765  0.7657  0.7663  0.3226
  442MOL0     H59622   5.737   0.604   2.092 -5.0749  2.4042  2.2996
  442MOL0     H59623   5.847   0.715   1.998 -0.4536  1.5564 -0.0922
  442MOL0     H59624   5.645   0.859   1.966 -2.4794  0.0272  0.8420
  442MOL0     H59625   5.569   0.772   2.110 -0.7048 -2.2495  0.4855
  442MOL0     H59626   5.670   0.974   2.177  2.1457  1.2845  1.0237
  442MOL0     H59627   5.828   0.925   2.102  1.0482  1.3879  2.5086
  442MOL0     H59628   5.822   0.729   2.263 -1.7165 -1.3407 -2.8777
  442MOL0     H59629   5.662   0.792   2.314  0.3003  0.6498  0.5200
  442MOL0     H59630   5.911   1.055   2.568  2.7722  0.5661  3.8028
  442MOL0     H59631   5.920   1.002   2.798  0.5136  0.8911 -1.7753
  442MOL0     H59632   5.752   0.426   2.999 -0.7535  0.1539  0.3002
  442MOL0     H59633   5.737   0.307   3.214  0.0534 -0.7976  1.2651
  442MOL0     H59634   5.630   0.432   3.526  3.0950  1.1779  4.1120
  442MOL0     H59635   5.622   0.308   3.415  0.6558  0.0046 -1.9209
  442MOL0     H59636   5.761   0.156   3.570 -2.9190  0.0979  0.3076
  442MOL0     H59637   5.822   0.294   3.658  1.2578  0.6111 -1.1837
  442MOL0     H59638   5.557   0.328   3.717  0.3929  1.2621 -2.8502
  442MOL0     H59639   5.555   0.150   3.669  2.6817 -2.3534  0.8258
  442MOL0     H59640   5.753   0.257   3.865  3.2996 -1.7723 -2.2845
  442MOL0     H59641   5.736   0.090   3.822  0.7943  1.0136 -0.9500
  442MOL0     H59642   5.491   0.118   3.893 -0.7911  1.8066  1.1144
  442MOL0     H59643   5.553   0.260   3.978  0.0249 -0.1066  2.5356
  442MOL0     H59644   5.555   0.086   4.132  1.6561 -0.4475  0.8817
  442MOL0     H59645   5.634  -0.023   4.019 -0.1388 -0.2537  0.8860
  442MOL0     H59646   5.852   0.068   4.064  0.4507  3.2201 -1.2833
  442MOL0     H59647   5.757   0.081   4.219 -2.0691  1.5497  0.8491
  442MOL0     H59648   5.731   0.330   4.064 -1.1079 -0.7879  2.2838
  442MOL0     H59649   5.751   0.303   4.226 -1.8348 -2.4867  0.0272
  442MOL0     H59650   5.866   0.655   3.402 -1.2225  1.5306 -0.2770
  442MOL0     H59651   5.856   0.783   3.202 -2.9461  0.7723 -1.2922
  442MOL0     H59652   5.777   0.608   2.716 -0.0125  1.5537  1.4574
  442MOL0     H59653   5.739   0.677   2.482 -1.4171  0.9500 -0.4239
  442MOL0     H59654   4.900   0.405   0.818 -0.7605  0.3689  1.8776
  442MOL0     H59655   4.734   0.573   0.759 -1.0417  0.1785 -0.3218
  442MOL0     H59656   4.793   1.067   0.552  0.3463 -1.1377 -0.5022
  442MOL0     H59657   4.695   1.270   0.523 -0.3194 -1.8807 -1.3020
  442MOL0     H59658   4.415   1.534   0.547 -1.6160 -0.1988  0.6836
  442MOL0     H59659   4.566   1.458   0.490  0.8301 -1.3729 -0.3752
  442MOL0     H59660   4.633   1.423   0.735  1.3290  0.2175 -1.4721
  442MOL0     H59661   4.471   1.483   0.784  0.3229  1.0264 -0.4405
  442MOL0     H59662   4.523   1.698   0.639 -0.6310  0.7067  2.0009
  442MOL0     H59663   4.695   1.633   0.646  0.2458  2.1863 -0.6200
  442MOL0     H59664   4.507   1.701   0.884  1.1254  0.8285  0.7682
  442MOL0     H59665   4.668   1.651   0.900 -0.4929  2.1665  2.9613
  442MOL0     H59666   4.743   2.051   0.802  0.2151 -0.5714 -1.2529
  442MOL0     H59667   4.324   1.148   0.710 -0.2495  0.8578  2.0780
  442MOL0     H59668   4.373   0.817   0.736  1.9228 -2.5384  3.1610
  442MOL0     H59669   4.468   0.855   0.872  2.1103  0.0787 -1.1228
  442MOL0     H59670   4.333   0.963   0.843  1.0126  0.7887 -0.1895
  443MOL0     O59671   3.592   0.340   1.109  0.0011  0.5207 -0.3867
  443MOL0     C59672   3.676   0.337   1.016 -0.2948 -0.0347 -1.1845
  443MOL0     O59673   3.673   0.423   0.906 -0.2991  0.0605  1.0724
  443MOL0     C59674   3.590   0.542   0.913 -0.7852  0.4935 -0.0120
  443MOL0     C59675   3.558   0.605   0.792 -0.1647  0.3356 -0.0763
  443MOL0     C59676   3.499   0.727   0.785 -0.0026  0.0494  0.8329
  443MOL0     C59677   3.464   0.794   0.905 -0.9169  0.1774  0.0658
  443MOL0     O59678   3.391   0.914   0.910 -0.6032  0.0763 -0.1600
  443MOL0     C59679   3.461   1.022   0.839 -0.6106  0.0835 -0.8779
  443MOL0     C59680   3.363   1.137   0.835 -0.0621 -0.1432 -0.5071
  443MOL0     C59681   3.241   1.120   0.742  0.3469  0.3687  1.4923
  443MOL0     C59682   3.273   1.150   0.596 -0.0002  0.0872  0.6300
  443MOL0     C59683   3.157   1.146   0.498  0.1047 -0.0263  0.7400
  443MOL0     C59684   3.195   1.155   0.350  0.0831 -0.0061  0.6840
  443MOL0     C59685   3.284   1.276   0.330 -0.1859  0.4377  0.8843
  443MOL0     C59686   3.262   1.342   0.193  0.3105  1.2930  0.6987
  443MOL0     N59687   3.321   1.273   0.081 -0.2895  0.2144 -0.4688
  443MOL0     C59688   3.307   1.144   0.046 -0.2992  0.5334  1.1676
  443MOL0     C59689   3.338   1.139  -0.089  0.3159 -0.6309  0.4021
  443MOL0     C59690   3.340   1.019  -0.174 -1.7691  0.1279 -0.7333
  443MOL0     C59691   3.484   0.956  -0.163 -0.3244 -0.1829  0.0169
  443MOL0     C59692   3.494   0.827  -0.249 -0.7195 -0.2202  0.0177
  443MOL0     C59693   3.623   0.754  -0.223 -0.3989  0.6002 -0.6359
  443MOL0     O59694   3.638   0.640  -0.312 -0.2589  0.3164  0.4767
  443MOL0     C59695   3.756   0.570  -0.295 -0.0757 -0.7597 -0.7746
  443MOL0     C59696   3.759   0.459  -0.377 -0.0874 -0.0123 -0.0049
  443MOL0     C59697   3.875   0.372  -0.379  0.8095 -0.4476  0.5145
  443MOL0     C59698   3.982   0.394  -0.295 -0.6868 -0.1435 -0.0303
  443MOL0     C59699   4.094   0.301  -0.304  0.3361  0.5097 -0.0804
  443MOL0     O59700   4.216   0.338  -0.268  0.1165  0.6507 -0.8044
  443MOL0     C59701   4.327   0.247  -0.270  1.3968  0.8494 -0.3425
  443MOL0     C59702   4.390   0.232  -0.390  0.1231 -0.1798  0.4708
  443MOL0     C59703   4.488   0.134  -0.393  0.2374  0.4676  0.4175
  443MOL0     C59704   4.526   0.055  -0.275 -0.6617 -0.1277  0.2299
  443MOL0     O59705   4.643  -0.022  -0.292 -0.0178  0.5649  0.6868
  443MOL0     C59706   4.659  -0.140  -0.213 -0.6223  0.5825 -0.0589
  443MOL0     C59707   4.796  -0.203  -0.234 -0.5621 -0.0639 -0.9773
  443MOL0     C59708   4.834  -0.301  -0.113  0.7961 -0.5487  0.6349
  443MOL0     C59709   4.983  -0.347  -0.105 -0.0146 -0.6699 -0.1850
  443MOL0     C59710   5.074  -0.229  -0.076 -0.1502  0.1068 -0.7588
  443MOL0     C59711   5.217  -0.277  -0.085 -0.8871 -0.1323  0.0559
  443MOL0     C59712   5.317  -0.158  -0.041 -0.7182 -0.2328  0.4282
  443MOL0     C59713   5.460  -0.166  -0.098 -0.4744 -0.1925 -0.3246
  443MOL0    Cl59714   5.505  -0.340  -0.074  0.4064  0.1346  0.2300
  443MOL0     C59715   4.449   0.055  -0.168 -0.0264 -0.3523  0.5668
  443MOL0     C59716   4.351   0.156  -0.165 -0.0456 -0.7299 -0.0755
  443MOL0     O59717   4.071   0.187  -0.339 -0.4814 -1.2483  0.3540
  443MOL0     C59718   3.984   0.520  -0.232 -0.2854  0.4539 -0.1793
  443MOL0     C59719   3.873   0.605  -0.228  0.5527 -0.2506 -1.1350
  443MOL0     N59720   3.383   1.261  -0.129 -0.6796 -0.3644 -0.0223
  443MOL0     N59721   3.362   1.338  -0.026 -1.2954 -0.1998 -0.3715
  443MOL0     C59722   3.499   0.730   1.032  0.4115  0.1588  0.9044
  443MOL0     C59723   3.565   0.613   1.030 -0.4001 -0.4025 -1.0365
  443MOL0     C59724   3.793   0.245   1.026  0.2534  1.1753  0.3873
  443MOL0     C59725   3.913   0.280   0.972 -0.0336 -1.3639 -0.0909
  443MOL0     C59726   4.021   0.197   0.968  0.5268 -0.5482 -0.1421
  443MOL0     C59727   4.016   0.068   1.010  0.0486 -0.4582  0.5125
  443MOL0     O59728   4.116  -0.020   1.018 -0.7274  0.0090  0.4592
  443MOL0     C59729   4.258   0.016   0.982  0.6721  0.0224 -0.3197
  443MOL0     C59730   4.365  -0.055   1.051 -0.0371 -0.3930  0.6583
  443MOL0     C59731   4.349  -0.043   1.202 -0.1196 -0.1143 -0.5682
  443MOL0     C59732   4.406   0.076   1.272  0.7626  0.2819 -1.0754
  443MOL0     C59733   4.409   0.074   1.418 -0.1487 -0.2216  0.8749
  443MOL0     C59734   4.413   0.091   1.537 -0.0025  0.2668  0.2266
  443MOL0     C59735   3.896   0.020   1.067  0.1868  0.3363  0.2822
  443MOL0     C59736   3.783   0.102   1.072 -0.0587  0.0081 -0.4245
  443MOL0     C59737   3.655   0.043   1.120  0.1525  0.6609 -0.0321
  443MOL0     H59738   3.581   0.549   0.702 -0.8915  1.5089 -1.0101
  443MOL0     H59739   3.475   0.771   0.688  0.5464 -2.8352 -0.7276
  443MOL0     H59740   3.552   1.053   0.890  0.1985 -1.2361 -1.4644
  443MOL0     H59741   3.485   1.019   0.732  0.4399  1.6663 -0.7189
  443MOL0     H59742   3.414   1.233   0.824 -1.9954  1.0159  0.0848
  443MOL0     H59743   3.323   1.142   0.937 -2.0114 -1.5643 -1.1284
  443MOL0     H59744   3.163   1.189   0.777 -1.1636 -1.4450  1.8618
  443MOL0     H59745   3.186   1.026   0.744 -0.0956  0.3333 -2.8143
  443MOL0     H59746   3.326   1.246   0.594  3.6758 -1.7819 -1.0632
  443MOL0     H59747   3.343   1.073   0.561 -1.2660 -0.3380 -1.0426
  443MOL0     H59748   3.103   1.052   0.516 -1.7375  1.2361  2.1928
  443MOL0     H59749   3.090   1.224   0.535  1.3131  1.7827 -0.6862
  443MOL0     H59750   3.252   1.063   0.333 -0.9537 -0.1772 -2.6523
  443MOL0     H59751   3.107   1.153   0.286  1.9533 -0.7303 -2.0362
  443MOL0     H59752   3.390   1.253   0.344  0.4190  2.2857 -0.3504
  443MOL0     H59753   3.262   1.350   0.407  0.7969  0.1768  1.4410
  443MOL0     H59754   3.155   1.355   0.173  0.3386  1.3451  0.5792
  443MOL0     H59755   3.289   1.448   0.191 -3.0673  2.3067 -2.2642
  443MOL0     H59756   3.259   1.070   0.109  1.4659 -1.5495  0.1628
  443MOL0     H59757   3.260   0.954  -0.137 -0.1338 -0.8361  1.3552
  443MOL0     H59758   3.317   1.054  -0.275 -0.0813  1.3088 -0.7506
  443MOL0     H59759   3.564   1.023  -0.196  1.0205 -1.9817 -0.4989
  443MOL0     H59760   3.513   0.946  -0.058  3.8236  4.8708 -0.1978
  443MOL0     H59761   3.475   0.846  -0.355 -0.0076 -1.8467 -0.4411
  443MOL0     H59762   3.410   0.764  -0.218 -2.1023  1.2915 -0.5329
  443MOL0     H59763   3.632   0.721  -0.119  0.3557  0.7773 -0.6407
  443MOL0     H59764   3.700   0.830  -0.235 -0.1524  0.4663  0.0458
  443MOL0     H59765   3.663   0.430  -0.418  0.7803  0.2154 -2.3586
  443MOL0     H59766   3.861   0.282  -0.437 -1.1939  0.6443 -0.8237
  443MOL0     H59767   4.359   0.292  -0.475 -2.9549  1.5200  2.5879
  443MOL0     H59768   4.551   0.144  -0.481 -2.0225  6.6698 -0.9803
  443MOL0     H59769   4.644  -0.120  -0.106 -1.6826 -1.7233  0.2897
  443MOL0     H59770   4.585  -0.212  -0.248 -0.1464  0.8214 -1.6259
  443MOL0     H59771   4.803  -0.258  -0.328  0.9628  0.2825 -1.0940
  443MOL0     H59772   4.871  -0.123  -0.242  0.6135 -1.1653 -1.4167
  443MOL0     H59773   4.814  -0.268  -0.011 -0.7480  0.3326  0.0851
  443MOL0     H59774   4.771  -0.390  -0.126 -1.7219  1.3460 -1.2606
  443MOL0     H59775   5.022  -0.408  -0.188  3.3549  2.7923 -1.5036
  443MOL0     H59776   4.977  -0.419  -0.023 -3.2987  2.6811  2.8689
  443MOL0     H59777   5.050  -0.186   0.021 -0.1529  0.2452 -0.8196
  443MOL0     H59778   5.060  -0.149  -0.150  1.3349  0.4235 -0.7369
  443MOL0     H59779   5.244  -0.359  -0.019  0.7689  1.7391  1.8772
  443MOL0     H59780   5.216  -0.311  -0.188 -1.5094 -2.1204  0.6861
  443MOL0     H59781   5.322  -0.167   0.067 -1.6421 -2.1845  0.3380
  443MOL0     H59782   5.278  -0.061  -0.074  4.1544  1.7314 -0.4381
  443MOL0     H59783   5.447  -0.151  -0.206  0.5690  1.4234 -0.2673
  443MOL0     H59784   5.531  -0.102  -0.044 -0.0532 -0.2115 -0.8427
  443MOL0     H59785   4.473   0.004  -0.075 -1.1608  0.8365  1.5663
  443MOL0     H59786   4.276   0.154  -0.087 -1.2153  0.0654 -1.1473
  443MOL0     H59787   4.084   0.543  -0.198 -0.3447 -3.0088  2.8877
  443MOL0     H59788   3.876   0.700  -0.177  1.6110  0.3992 -2.3472
  443MOL0     H59789   3.479   0.773   1.130  0.6071  1.1396  0.5299
  443MOL0     H59790   3.595   0.578   1.128 -0.8853 -0.4211 -0.8963
  443MOL0     H59791   3.937   0.381   0.939  0.8944 -1.5436 -0.0035
  443MOL0     H59792   4.113   0.243   0.932 -0.3987  1.3403 -0.1953
  443MOL0     H59793   4.282   0.119   1.008  1.1793 -0.2444  0.3085
  443MOL0     H59794   4.271  -0.003   0.875  1.1699 -0.0567 -0.2477
  443MOL0     H59795   4.466  -0.025   1.020 -0.6104 -0.9208 -1.8673
  443MOL0     H59796   4.349  -0.161   1.031 -0.2354 -0.4133  0.9062
  443MOL0     H59797   4.396  -0.138   1.230 -1.0922 -1.5171 -3.3565
  443MOL0     H59798   4.243  -0.047   1.231  0.0131  2.9619  0.7137
  443MOL0     H59799   4.506   0.091   1.232  0.5864 -0.6707 -1.9062
  443MOL0     H59800   4.350   0.164   1.239  1.7769  0.6159 -1.9673
  443MOL0     H59801   4.428   0.107   1.642  0.2889 -3.5470  0.8880
  443MOL0     H59802   3.894  -0.086   1.087 -0.4194  0.1719 -0.5783
  443MOL0     H59803   3.638   0.090   1.217  0.3346 -2.4312  1.6001
  443MOL0     H59804   3.571   0.058   1.052 -1.0689 -2.4442  0.6486
  443MOL0     H59805   3.663  -0.065   1.134 -0.1450  0.6583  0.1147
  444MOL0     O59806   7.795  10.207   8.306  0.2888 -0.4991 -0.3240
  444MOL0     C59807   7.863  10.104   8.296 -0.2002  0.1141  0.4758
  444MOL0     O59808   7.997  10.102   8.316  0.5267  0.6619  0.6328
  444MOL0     C59809   8.071  10.191   8.395 -0.4903  0.6516 -0.2288
  444MOL0     C59810   8.080  10.326   8.359 -0.1271 -0.1779  0.4043
  444MOL0     C59811   8.140  10.407   8.446  1.5112 -0.5267  0.3402
  444MOL0     C59812   8.193  10.366   8.562 -0.0671  0.6360  0.2496
  444MOL0     O59813   8.257  10.450   8.646 -0.2508 -0.6662  0.3257
  444MOL0     C59814   8.244  10.591   8.632  0.2793 -0.4754  0.0377
  444MOL0     C59815   8.282  10.658   8.771  0.1776 -1.0683  0.3721
  444MOL0     C59816   8.263  10.808   8.769 -0.3580 -0.9008  0.0943
  444MOL0     C59817   8.357  10.864   8.879 -0.7018  0.0665  0.6512
  444MOL0     C59818   8.348  11.015   8.897 -0.3839 -0.1304  1.0282
  444MOL0     C59819   8.354  11.102   8.763 -0.3161 -1.0910 -0.6184
  444MOL0     C59820   8.464  11.065   8.665  0.5802 -0.9310  0.6146
  444MOL0     C59821   8.469  11.171   8.540  0.6790  0.1619 -0.0797
  444MOL0     N59822   8.532  11.125   8.411  0.5606 -0.4689 -0.3006
  444MOL0     C59823   8.491  11.019   8.336  0.1872  0.1431  0.0774
  444MOL0     C59824   8.531  11.046   8.209  0.6323 -0.3286  0.0019
  444MOL0     C59825   8.473  10.991   8.083  0.2165  0.5130  0.6697
  444MOL0     C59826   8.493  10.841   8.078 -0.0197 -0.6818  0.0877
  444MOL0     C59827   8.439  10.781   7.947 -0.8548  0.0069  0.4364
  444MOL0     C59828   8.470  10.629   7.936 -0.4585  0.3997  0.5116
  444MOL0     O59829   8.420  10.579   7.807 -0.2622  0.3951 -0.0614
  444MOL0     C59830   8.412  10.443   7.789  0.3690 -0.8962  0.0406
  444MOL0     C59831   8.318  10.400   7.698  0.0553 -0.2616 -0.5922
  444MOL0     C59832   8.296  10.264   7.683 -0.8902  0.0324 -0.3532
  444MOL0     C59833   8.387  10.164   7.726  0.6655  0.4533  0.1840
  444MOL0     C59834   8.361  10.021   7.700  1.2454  0.1774 -0.2443
  444MOL0     O59835   8.464   9.949   7.734  0.7827  1.0524  0.5804
  444MOL0     C59836   8.484   9.818   7.680  0.2115 -1.2505  0.1204
  444MOL0     C59837   8.408   9.708   7.713  0.3812  0.4294 -0.6004
  444MOL0     C59838   8.420   9.584   7.642 -0.6980  0.5033 -0.0826
  444MOL0     C59839   8.520   9.564   7.542  0.0667 -0.9615 -0.0246
  444MOL0     O59840   8.540   9.446   7.473 -0.4878 -0.6840  0.6503
  444MOL0     C59841   8.616   9.355   7.548  0.3580  0.1289  0.1573
  444MOL0     C59842   8.767   9.389   7.562 -0.4057  0.1839  0.3344
  444MOL0     C59843   8.831   9.412   7.427  0.3677 -1.0793  0.2757
  444MOL0     C59844   8.984   9.424   7.434 -0.5439  0.1976 -0.7403
  444MOL0     C59845   9.047   9.285   7.436  0.1904  0.3371 -0.6187
  444MOL0     C59846   9.200   9.303   7.422 -0.0214 -0.4307  0.5201
  444MOL0     C59847   9.272   9.167   7.461 -0.3448  0.0565  0.0769
  444MOL0     C59848   9.427   9.195   7.429  1.1091 -0.2001 -0.3417
  444MOL0    Cl59849   9.526   9.057   7.480 -0.3089 -0.2858  0.1926
  444MOL0     C59850   8.605   9.682   7.520 -0.7809 -0.6059 -0.4967
  444MOL0     C59851   8.586   9.801   7.585  0.6897 -0.0529 -0.2528
  444MOL0     O59852   8.270   9.980   7.625 -0.4028 -0.4917  0.9220
  444MOL0     C59853   8.494  10.211   7.801 -0.4155  0.4890 -0.6950
  444MOL0     C59854   8.503  10.353   7.825  0.3088  0.1252 -0.2750
  444MOL0     N59855   8.612  11.160   8.215  0.2460 -0.1634 -0.3718
  444MOL0     N59856   8.610  11.212   8.337 -0.7287  0.1179  0.8466
  444MOL0     C59857   8.188  10.232   8.604  0.0044  0.2036 -0.0448
  444MOL0     C59858   8.129  10.143   8.515 -0.5748  0.7963  0.7100
  444MOL0     C59859   7.806   9.988   8.223  0.1702 -0.5534 -0.2252
  444MOL0     C59860   7.681  10.025   8.171  1.0668 -0.5389 -0.0888
  444MOL0     C59861   7.609   9.939   8.089  0.0225  0.2943  0.0900
  444MOL0     C59862   7.653   9.815   8.065 -0.2299  0.7258  0.0340
  444MOL0     O59863   7.571   9.724   7.999  0.6056  0.5720  0.4874
  444MOL0     C59864   7.426   9.748   7.992  0.5713 -0.1345 -0.0247
  444MOL0     C59865   7.352   9.743   8.131  0.5566  0.3310 -0.3507
  444MOL0     C59866   7.355   9.608   8.190  0.2462  0.1242  0.0255
  444MOL0     C59867   7.312   9.613   8.333 -0.2147  0.0691 -0.9004
  444MOL0     C59868   7.373   9.503   8.412  0.1307  1.4170 -0.4018
  444MOL0     C59869   7.430   9.417   8.476  0.2752  0.0755  0.6084
  444MOL0     C59870   7.766   9.767   8.116 -1.2219 -0.2398 -0.3539
  444MOL0     C59871   7.849   9.846   8.197 -0.4809  0.1650  0.1650
  444MOL0     C59872   7.970   9.790   8.261  0.1687  0.5032  0.4981
  444MOL0     H59873   8.034  10.369   8.270 -0.1693  1.6594  1.2681
  444MOL0     H59874   8.145  10.510   8.412  1.6484 -0.7573 -0.3588
  444MOL0     H59875   8.312  10.626   8.555 -2.2706  0.4983 -1.9115
  444MOL0     H59876   8.144  10.622   8.599  0.2783 -1.3790 -0.8492
  444MOL0     H59877   8.387  10.632   8.790 -0.3944 -2.3334  2.0975
  444MOL0     H59878   8.214  10.615   8.846 -0.8111 -2.6817 -1.3749
  444MOL0     H59879   8.162  10.830   8.805 -0.7988  0.3249 -1.7546
  444MOL0     H59880   8.279  10.851   8.670 -0.4110  0.0399  0.4843
  444MOL0     H59881   8.326  10.834   8.980 -1.5202 -0.5581  0.2356
  444MOL0     H59882   8.460  10.839   8.855 -1.4144 -0.2229 -2.5801
  444MOL0     H59883   8.259  11.039   8.957 -0.4657 -2.6645  2.0474
  444MOL0     H59884   8.441  11.040   8.948  0.0926  2.1917 -0.8074
  444MOL0     H59885   8.260  11.096   8.707  0.0746 -2.5665 -1.1451
  444MOL0     H59886   8.363  11.207   8.792  0.6749 -0.9222 -1.4632
  444MOL0     H59887   8.438  10.965   8.628 -2.7178  0.0752 -0.1679
  444MOL0     H59888   8.561  11.060   8.715  0.3163 -2.7050  1.0182
  444MOL0     H59889   8.369  11.204   8.510  0.5498 -0.0074  0.1536
  444MOL0     H59890   8.530  11.257   8.570 -1.5990  1.7696  0.2062
  444MOL0     H59891   8.433  10.941   8.383 -0.2784  2.0964  3.0327
  444MOL0     H59892   8.365  11.000   8.090  0.3128  3.2669  0.0844
  444MOL0     H59893   8.527  11.046   8.005 -0.7281 -2.1899 -2.0894
  444MOL0     H59894   8.602  10.829   8.079  0.0907  0.0946 -1.0556
  444MOL0     H59895   8.442  10.798   8.164 -4.1367  2.6315 -0.4064
  444MOL0     H59896   8.487  10.836   7.865 -1.0410 -0.1544  0.2159
  444MOL0     H59897   8.331  10.798   7.944 -0.6441  1.2937 -1.1845
  444MOL0     H59898   8.423  10.577   8.021  0.5822  0.6204  1.2412
  444MOL0     H59899   8.576  10.607   7.950 -0.0881  1.0169 -1.1835
  444MOL0     H59900   8.256  10.480   7.658  3.1040  2.6193 -0.0034
  444MOL0     H59901   8.218  10.234   7.615  2.9855 -2.8248 -4.0306
  444MOL0     H59902   8.333   9.708   7.791 -0.0639  0.1820 -1.0276
  444MOL0     H59903   8.365   9.495   7.670  1.2187 -1.1667 -1.4362
  444MOL0     H59904   8.581   9.357   7.652  1.7274  3.9824  0.7088
  444MOL0     H59905   8.608   9.259   7.497 -0.2794  0.4895 -0.4529
  444MOL0     H59906   8.785   9.482   7.617  0.3549  0.6526 -0.6769
  444MOL0     H59907   8.801   9.302   7.619 -3.6764 -0.4577  1.5558
  444MOL0     H59908   8.804   9.332   7.358  4.6543 -2.3486 -0.2300
  444MOL0     H59909   8.798   9.504   7.378  1.7818  0.0460  1.3296
  444MOL0     H59910   9.015   9.490   7.516  2.1551 -0.5164 -1.0859
  444MOL0     H59911   9.028   9.465   7.343  2.5308  0.0111  0.5198
  444MOL0     H59912   8.997   9.233   7.354  0.1367  0.0579 -0.4111
  444MOL0     H59913   9.031   9.226   7.527 -1.0487  1.0924 -0.3105
  444MOL0     H59914   9.218   9.330   7.317 -0.3045 -1.0320  0.3067
  444MOL0     H59915   9.227   9.383   7.490 -1.1588 -0.4555  1.0182
  444MOL0     H59916   9.237   9.079   7.406  1.1020 -0.9456  0.6941
  444MOL0     H59917   9.269   9.144   7.568 -2.2475 -1.3398 -0.2318
  444MOL0     H59918   9.428   9.217   7.322  0.4790  0.7033 -0.1746
  444MOL0     H59919   9.470   9.284   7.475 -0.6497  0.8963 -0.7279
  444MOL0     H59920   8.667   9.679   7.431 -1.4052  4.3474 -1.3781
  444MOL0     H59921   8.648   9.883   7.551  0.1217 -0.0868 -1.4279
  444MOL0     H59922   8.558  10.138   7.851 -2.6663  0.7795  3.0023
  444MOL0     H59923   8.594  10.383   7.876 -0.7636  1.0510  1.1873
  444MOL0     H59924   8.259  10.199   8.680  4.2712 -0.4159 -3.8972
  444MOL0     H59925   8.117  10.038   8.541  1.7089 -0.5336 -2.9324
  444MOL0     H59926   7.639  10.124   8.188  1.9872 -0.3276  1.0695
  444MOL0     H59927   7.510   9.967   8.054 -0.0362 -1.9540 -1.8077
  444MOL0     H59928   7.384   9.668   7.931 -1.7169  1.0007 -0.0178
  444MOL0     H59929   7.396   9.841   7.943 -2.8818 -3.1485 -4.4691
  444MOL0     H59930   7.245   9.760   8.118  0.4347  0.7202  1.0383
  444MOL0     H59931   7.388   9.817   8.202  0.1459 -0.4151  0.6519
  444MOL0     H59932   7.456   9.567   8.186  0.2189  0.1222 -4.0037
  444MOL0     H59933   7.290   9.541   8.134 -1.1628  2.5036 -1.3450
  444MOL0     H59934   7.354   9.703   8.380  3.0421 -1.7462 -0.0718
  444MOL0     H59935   7.202   9.615   8.338 -0.2264  3.1597  0.4943
  444MOL0     H59936   7.483   9.348   8.538  0.6154 -3.0183 -2.7810
  444MOL0     H59937   7.798   9.665   8.098  3.1664  0.5186  1.7827
  444MOL0     H59938   7.939   9.686   8.280  0.6698  0.1855 -0.3594
  444MOL0     H59939   8.062   9.807   8.206  0.5225 -0.0868  0.8938
  444MOL0     H59940   7.994   9.830   8.360  2.8957 -1.5039  0.7775
  445MOL0     O59941   8.062   1.062   3.184  1.2663 -0.2403 -0.3714
  445MOL0     C59942   7.949   1.112   3.165 -0.8024 -0.0969  0.6971
  445MOL0     O59943   7.834   1.052   3.205 -0.1654  0.4617 -0.1957
  445MOL0     C59944   7.847   0.949   3.303 -0.2870  0.0244  0.3798
  445MOL0     C59945   7.836   0.813   3.263  0.1462  0.1554 -0.3948
  445MOL0     C59946   7.844   0.721   3.364 -0.2791  0.0234 -0.3501
  445MOL0     C59947   7.866   0.754   3.500  0.0682  0.6741 -0.1256
  445MOL0     O59948   7.871   0.660   3.598  0.0985 -0.5364 -0.0069
  445MOL0     C59949   7.876   0.699   3.739 -0.3042 -0.2688  0.7365
  445MOL0     C59950   7.874   0.564   3.814 -0.1655 -0.6714  0.5594
  445MOL0     C59951   7.961   0.444   3.755  0.2594  0.4469  0.0616
  445MOL0     C59952   8.114   0.466   3.770  0.0575  0.2205 -0.9506
  445MOL0     C59953   8.199   0.342   3.741 -0.4708  1.3931  0.4194
  445MOL0     C59954   8.159   0.215   3.805 -0.3306 -0.2789  1.2301
  445MOL0     C59955   8.199   0.218   3.949  0.9665  0.2197  0.4751
  445MOL0     C59956   8.169   0.079   4.012 -0.5704  0.7597 -0.3702
  445MOL0     N59957   8.178   0.087   4.165  0.6606  0.7168  0.4453
  445MOL0     C59958   8.296   0.096   4.228 -0.5654 -0.2880  0.0311
  445MOL0     C59959   8.259   0.132   4.354 -0.2389 -0.0232  1.0263
  445MOL0     C59960   8.345   0.144   4.479  0.4634 -0.5545 -1.2562
  445MOL0     C59961   8.332   0.029   4.580  0.2128  0.7039  0.0182
  445MOL0     C59962   8.442   0.033   4.683  0.3015  0.1830 -0.5233
  445MOL0     C59963   8.571  -0.020   4.618  0.6189  0.2471 -0.4949
  445MOL0     O59964   8.672  -0.035   4.723 -0.0528 -0.1486  0.0799
  445MOL0     C59965   8.681  -0.139   4.809 -0.7311 -0.3691 -0.1410
  445MOL0     C59966   8.789  -0.139   4.900 -0.1409 -1.5082  0.3866
  445MOL0     C59967   8.805  -0.251   4.985  0.0486  0.6191  0.0184
  445MOL0     C59968   8.703  -0.348   4.992  0.8534 -0.6672  0.2575
  445MOL0     C59969   8.707  -0.466   5.084  0.5499 -0.5461  0.1349
  445MOL0     O59970   8.835  -0.493   5.135 -0.0905  0.1170 -1.0830
  445MOL0     C59971   8.837  -0.601   5.224  0.0901 -1.1389 -0.9758
  445MOL0     C59972   8.795  -0.570   5.357 -0.7166 -0.8294 -0.2006
  445MOL0     C59973   8.814  -0.667   5.453  0.0960  0.3019  0.0782
  445MOL0     C59974   8.857  -0.799   5.421 -0.5138  1.5277 -0.1478
  445MOL0     O59975   8.873  -0.913   5.503  0.6992 -0.0519  0.4382
  445MOL0     C59976   8.776  -0.930   5.609 -0.3541 -0.1878 -0.6035
  445MOL0     C59977   8.760  -1.079   5.643  0.0302 -0.6078  0.0159
  445MOL0     C59978   8.756  -1.179   5.532  0.2320  0.1207  0.6332
  445MOL0     C59979   8.620  -1.216   5.471  0.4791  0.8276 -0.1549
  445MOL0     C59980   8.600  -1.351   5.400 -0.8732  0.3878 -0.5609
  445MOL0     C59981   8.675  -1.336   5.270  0.1452 -0.6375 -0.4508
  445MOL0     C59982   8.581  -1.270   5.162 -0.7271  1.1613 -1.0140
  445MOL0     C59983   8.637  -1.282   5.017 -0.2485 -0.0059  0.2658
  445MOL0    Cl59984   8.560  -1.139   4.919 -0.1236 -0.5242  0.6987
  445MOL0     C59985   8.888  -0.827   5.282  0.7941  0.6924  0.5647
  445MOL0     C59986   8.874  -0.731   5.184  0.1874 -0.1307 -0.1929
  445MOL0     O59987   8.600  -0.505   5.119 -0.8182 -0.0531  0.7386
  445MOL0     C59988   8.602  -0.348   4.895 -0.2878  0.6828 -0.0424
  445MOL0     C59989   8.594  -0.246   4.798 -0.3051  0.2910  0.7723
  445MOL0     N59990   8.122   0.164   4.356 -0.3706  0.7809  0.8804
  445MOL0     N59991   8.078   0.142   4.234 -0.0451  0.8933 -0.0287
  445MOL0     C59992   7.885   0.891   3.536 -0.2720 -0.5393  0.9019
  445MOL0     C59993   7.869   0.983   3.437 -0.3995 -0.1702  0.6305
  445MOL0     C59994   7.936   1.239   3.092  0.9464  0.1334  0.6599
  445MOL0     C59995   8.049   1.288   3.041  0.1878 -0.9705  0.5228
  445MOL0     C59996   8.058   1.413   2.983 -0.6929  0.4469  1.1668
  445MOL0     C59997   7.940   1.494   2.963 -0.4814 -1.2414  0.3901
  445MOL0     O59998   7.940   1.628   2.911 -0.1505 -0.0957 -0.1262
  445MOL0     C59999   8.040   1.666   2.811  0.3067 -1.5343 -0.1346
  445MOL0     C60000   7.989   1.776   2.713  0.1482 -0.0747  0.5492
  445MOL0     C60001   7.926   1.902   2.771 -0.6573  0.3315  0.6560
  445MOL0     C60002   7.910   2.010   2.668 -1.0687 -0.1854  0.5539
  445MOL0     C60003   7.855   2.141   2.716  0.1421  0.1219  0.9261
  445MOL0     C60004   7.805   2.249   2.753 -0.5203 -1.1457 -0.2304
  445MOL0     C60005   7.818   1.448   3.012  0.3018 -0.3489  0.8724
  445MOL0     C60006   7.816   1.320   3.076  0.5031 -0.1678 -0.7428
  445MOL0     C60007   7.676   1.274   3.111 -0.3716  0.5882 -0.6922
  445MOL0     H60008   7.802   0.776   3.167  2.3052 -0.8093 -0.8464
  445MOL0     H60009   7.823   0.621   3.327  2.2943  0.1904 -2.5124
  445MOL0     H60010   7.973   0.745   3.757 -1.2056  1.0476  2.5747
  445MOL0     H60011   7.806   0.771   3.782 -1.4454 -0.2209 -1.0996
  445MOL0     H60012   7.767   0.545   3.825 -0.6222  0.3978 -1.4405
  445MOL0     H60013   7.910   0.590   3.914 -1.4692  1.3471  0.5746
  445MOL0     H60014   7.941   0.428   3.648 -0.7050  0.6120  0.2025
  445MOL0     H60015   7.936   0.352   3.810  1.7441  0.6598  1.1545
  445MOL0     H60016   8.144   0.550   3.707 -1.3374  1.4427 -0.0538
  445MOL0     H60017   8.126   0.500   3.873  1.7273  0.7097 -1.2716
  445MOL0     H60018   8.178   0.317   3.636 -0.7698  0.8569  0.6056
  445MOL0     H60019   8.305   0.367   3.752 -0.1904  0.1717  0.5611
  445MOL0     H60020   8.053   0.192   3.788  0.2061 -2.4850  0.6213
  445MOL0     H60021   8.227   0.136   3.772  0.2198 -0.5060  2.8257
  445MOL0     H60022   8.135   0.289   4.004 -1.6949  1.5448 -3.8514
  445MOL0     H60023   8.302   0.251   3.969  0.8979 -0.0247  1.2741
  445MOL0     H60024   8.067   0.051   3.981 -0.4928  0.0088  0.0127
  445MOL0     H60025   8.240   0.007   3.971  0.8351  2.2652 -0.6968
  445MOL0     H60026   8.387   0.069   4.175 -1.3910 -1.5555 -0.7984
  445MOL0     H60027   8.443   0.154   4.432  2.1229  0.8575  2.1960
  445MOL0     H60028   8.331   0.241   4.528  1.3020 -0.4125 -1.2882
  445MOL0     H60029   8.237   0.030   4.634  0.0492  2.2895 -0.2286
  445MOL0     H60030   8.334  -0.057   4.512  1.2045  1.7525 -1.3663
  445MOL0     H60031   8.414  -0.030   4.768 -2.5923  1.6001 -0.3076
  445MOL0     H60032   8.443   0.135   4.722  0.0048  0.0719 -0.2117
  445MOL0     H60033   8.608   0.056   4.549  0.5320  0.6332 -0.1210
  445MOL0     H60034   8.546  -0.110   4.561 -2.3317  1.8370 -1.9440
  445MOL0     H60035   8.854  -0.053   4.888 -1.3182 -0.7156 -0.6056
  445MOL0     H60036   8.896  -0.265   5.044 -0.2064  1.5945  0.6755
  445MOL0     H60037   8.779  -0.464   5.376  2.7788 -0.9005  5.1322
  445MOL0     H60038   8.794  -0.651   5.558 -0.2442  2.4700 -0.2825
  445MOL0     H60039   8.799  -0.873   5.699 -1.0041 -0.4428 -0.2668
  445MOL0     H60040   8.685  -0.891   5.561 -0.4706  0.3043  0.0091
  445MOL0     H60041   8.836  -1.110   5.715  1.4713  0.9312 -0.7858
  445MOL0     H60042   8.671  -1.084   5.706 -1.1689  3.1185 -1.0985
  445MOL0     H60043   8.803  -1.143   5.440 -1.4700 -1.8798 -1.1307
  445MOL0     H60044   8.811  -1.264   5.572 -2.2609 -1.1158  1.6523
  445MOL0     H60045   8.590  -1.130   5.409  1.9440  2.4239  1.2374
  445MOL0     H60046   8.552  -1.209   5.556  0.6431  1.0414 -0.0383
  445MOL0     H60047   8.494  -1.377   5.392 -1.4049  1.6344  1.7955
  445MOL0     H60048   8.652  -1.424   5.463  0.8658  0.3924 -1.8961
  445MOL0     H60049   8.770  -1.285   5.290 -0.0027  0.0976 -1.5091
  445MOL0     H60050   8.713  -1.434   5.238  0.6543 -1.6473  2.8596
  445MOL0     H60051   8.578  -1.162   5.176  0.6789  1.1828 -0.7225
  445MOL0     H60052   8.480  -1.310   5.171 -1.2974  2.8891  1.0384
  445MOL0     H60053   8.745  -1.269   5.014 -0.0929 -0.9935 -3.2050
  445MOL0     H60054   8.627  -1.382   4.973 -0.9990  0.1566  0.0459
  445MOL0     H60055   8.912  -0.931   5.263  1.5815  1.3220 -2.5113
  445MOL0     H60056   8.903  -0.744   5.080 -1.3175  6.1283 -1.8010
  445MOL0     H60057   8.524  -0.422   4.882  0.0436  0.3452 -0.1457
  445MOL0     H60058   8.507  -0.249   4.734  1.2690  0.8260 -1.5360
  445MOL0     H60059   7.884   0.917   3.641 -1.1706  1.9406  0.3498
  445MOL0     H60060   7.878   1.090   3.451 -1.4025  0.1772 -1.0740
  445MOL0     H60061   8.139   1.227   3.048  1.1974  0.5988  2.1379
  445MOL0     H60062   8.154   1.434   2.938 -1.6438 -2.7157 -2.9298
  445MOL0     H60063   8.085   1.591   2.746  2.8507  1.6968 -2.4093
  445MOL0     H60064   8.126   1.716   2.857  0.5210 -0.3523 -1.7449
  445MOL0     H60065   7.912   1.737   2.645  0.2093 -0.4282  0.6790
  445MOL0     H60066   8.078   1.790   2.651 -0.5896 -2.5462 -1.1993
  445MOL0     H60067   7.985   1.943   2.853 -0.4091  2.3860 -0.4868
  445MOL0     H60068   7.827   1.872   2.808  0.2765  0.0458  3.1051
  445MOL0     H60069   8.007   2.023   2.619 -1.6279  0.5317 -0.3991
  445MOL0     H60070   7.842   1.967   2.594  1.8940 -1.5933 -1.5530
  445MOL0     H60071   7.759   2.343   2.779  1.7657  0.4352 -1.4938
  445MOL0     H60072   7.736   1.520   3.014 -3.6468 -4.3739  0.2142
  445MOL0     H60073   7.673   1.181   3.054 -0.5344 -0.0690  0.3673
  445MOL0     H60074   7.653   1.258   3.217 -2.8593  0.5193 -1.1707
  445MOL0     H60075   7.596   1.334   3.067 -1.0135 -1.5865 -2.6814
  446MOL0     O60076   4.027  10.042   9.258 -0.3076  0.1297 -0.1093
  446MOL0     C60077   3.976  10.020   9.147  0.0591 -0.3837 -0.5352
  446MOL0     O60078   3.849  10.066   9.115 -0.4220  0.3736 -0.4192
  446MOL0     C60079   3.768  10.087   9.226  1.1883  0.7806  0.0568
  446MOL0     C60080   3.670   9.991   9.253  1.1716 -0.8322  0.3926
  446MOL0     C60081   3.614   9.987   9.385 -0.0903 -0.2152  0.8152
  446MOL0     C60082   3.635  10.083   9.479  0.7610 -0.0806 -0.8338
  446MOL0     O60083   3.545  10.076   9.587  0.0210 -0.4737  0.0425
  446MOL0     C60084   3.548  10.172   9.692  1.0177  0.5270 -0.0428
  446MOL0     C60085   3.436  10.127   9.793 -0.2599  0.0570 -0.3768
  446MOL0     C60086   3.441   9.981   9.855 -0.3322  0.2130  0.0517
  446MOL0     C60087   3.582   9.947   9.888  0.1147 -0.6847  0.0088
  446MOL0     C60088   3.606   9.821   9.973 -0.6366 -0.8628 -0.3283
  446MOL0     C60089   3.555   9.693   9.907 -0.4663 -0.5429 -0.1767
  446MOL0     C60090   3.619   9.659   9.768 -0.1574  1.5118 -0.4501
  446MOL0     C60091   3.769   9.621   9.783  0.8489  0.0539  0.4081
  446MOL0     N60092   3.859   9.736   9.800 -0.3513  0.7415 -0.2204
  446MOL0     C60093   3.872   9.841   9.718  0.1970 -0.9630 -0.5778
  446MOL0     C60094   3.981   9.909   9.758  0.6556 -0.6391 -0.4935
  446MOL0     C60095   4.034  10.019   9.682 -0.6651 -0.4222  0.5674
  446MOL0     C60096   3.955  10.149   9.703  0.1504  0.8032 -0.1993
  446MOL0     C60097   3.985  10.205   9.847  0.4960  1.1264 -0.3714
  446MOL0     C60098   3.934  10.352   9.856 -0.3904  0.1542 -0.4886
  446MOL0     O60099   3.795  10.359   9.887  1.4954 -0.5860  0.0719
  446MOL0     C60100   3.710  10.466   9.844 -0.5861 -0.1306  0.4007
  446MOL0     C60101   3.578  10.451   9.891  0.3269 -0.1321  0.0852
  446MOL0     C60102   3.468  10.539   9.851  0.7158  0.1316  0.4250
  446MOL0     C60103   3.493  10.628   9.752 -0.8691  0.2614  0.2174
  446MOL0     C60104   3.389  10.707   9.693  0.1165  0.7003  0.4365
  446MOL0     O60105   3.424  10.824   9.636  0.7129 -0.7568  0.6021
  446MOL0     C60106   3.325  10.907   9.586  0.2570  0.0478  0.1608
  446MOL0     C60107   3.296  11.033   9.642  0.4659  0.6524  0.2784
  446MOL0     C60108   3.199  11.115   9.596 -0.2933  1.1352  0.3927
  446MOL0     C60109   3.122  11.075   9.480  0.7527  0.5229  0.0708
  446MOL0     O60110   3.019  11.160   9.447 -0.6726 -0.3925 -0.0795
  446MOL0     C60111   2.923  11.117   9.354  0.3825  0.7526 -0.0547
  446MOL0     C60112   2.839  11.239   9.294 -1.0739  0.2039  0.7929
  446MOL0     C60113   2.708  11.201   9.220 -0.2498  0.4341  0.1105
  446MOL0     C60114   2.626  11.326   9.179  0.2583  0.0544 -0.4916
  446MOL0     C60115   2.706  11.419   9.087  0.4339  0.3015  0.0136
  446MOL0     C60116   2.754  11.364   8.949 -0.0986 -0.4235 -0.3449
  446MOL0     C60117   2.651  11.336   8.834  0.1400  1.3170 -0.8194
  446MOL0     C60118   2.585  11.187   8.846 -0.1426 -1.3810 -0.5127
  446MOL0    Cl60119   2.425  11.200   8.758  0.0246 -0.1536  0.2723
  446MOL0     C60120   3.163  10.955   9.415 -0.1114 -0.3957 -1.1515
  446MOL0     C60121   3.268  10.878   9.462  1.3624  0.5651  0.4009
  446MOL0     O60122   3.274  10.663   9.707  0.6406 -0.8085 -0.4110
  446MOL0     C60123   3.629  10.656   9.709  0.1310  0.3744  1.2442
  446MOL0     C60124   3.734  10.564   9.749 -0.0625 -0.3253 -0.2114
  446MOL0     N60125   4.040   9.841   9.859  0.2507 -0.1037 -0.7933
  446MOL0     N60126   3.969   9.734   9.878  0.7296  0.0109  0.5584
  446MOL0     C60127   3.717  10.191   9.441  0.0468 -0.5752  0.1097
  446MOL0     C60128   3.798  10.181   9.323 -0.6719 -0.2937 -0.2130
  446MOL0     C60129   4.046   9.941   9.041  0.6147 -0.0473  0.4262
  446MOL0     C60130   3.964   9.907   8.926  0.1477 -0.8322 -0.5978
  446MOL0     C60131   4.024   9.836   8.830  0.0230  0.7484 -0.1222
  446MOL0     C60132   4.150   9.788   8.833 -0.1165 -0.9630  0.9838
  446MOL0     O60133   4.196   9.693   8.748  0.2069 -0.1058  0.4943
  446MOL0     C60134   4.118   9.569   8.741 -1.3525 -0.1946 -0.0743
  446MOL0     C60135   4.142   9.488   8.865  0.2082 -0.7436  0.2236
  446MOL0     C60136   4.106   9.343   8.836 -0.5744  0.6781 -0.7219
  446MOL0     C60137   3.960   9.302   8.819  0.2890 -0.3650 -0.0611
  446MOL0     C60138   3.954   9.164   8.772  0.7780  1.6533  0.6658
  446MOL0     C60139   3.952   9.049   8.727 -1.5238 -0.7402 -0.0834
  446MOL0     C60140   4.232   9.822   8.941 -0.5996  0.0384 -0.2020
  446MOL0     C60141   4.182   9.900   9.044 -1.0281 -0.2848 -0.2181
  446MOL0     C60142   4.274   9.952   9.148  0.5431  0.1793 -0.4914
  446MOL0     H60143   3.645   9.913   9.182  2.5116  0.0420 -1.0856
  446MOL0     H60144   3.537   9.910   9.387 -0.5478  0.2385  0.8922
  446MOL0     H60145   3.648  10.170   9.738  0.9249 -0.7631  0.1352
  446MOL0     H60146   3.532  10.274   9.655  0.5756  0.7407  0.7087
  446MOL0     H60147   3.342  10.131   9.737  1.2830  1.0735 -3.0980
  446MOL0     H60148   3.425  10.199   9.875 -2.2277  0.8086 -1.2325
  446MOL0     H60149   3.406   9.914   9.775 -0.7153 -0.2101  0.5643
  446MOL0     H60150   3.371   9.977   9.939 -0.4660 -2.1549 -0.0931
  446MOL0     H60151   3.626   9.929   9.790 -2.1766  0.3332 -1.2706
  446MOL0     H60152   3.626  10.032   9.941 -0.6377  0.1156 -0.6332
  446MOL0     H60153   3.714   9.809   9.988 -0.3111 -0.7599 -2.2880
  446MOL0     H60154   3.563   9.833  10.073 -0.4805 -1.7868 -0.1420
  446MOL0     H60155   3.555   9.610   9.977 -2.8331 -3.2749 -3.1100
  446MOL0     H60156   3.448   9.703   9.888 -1.4312 -2.5916  3.3856
  446MOL0     H60157   3.595   9.724   9.684  0.3900  0.1992 -1.6644
  446MOL0     H60158   3.563   9.566   9.757 -4.9113  4.1793 -1.7173
  446MOL0     H60159   3.778   9.554   9.869 -1.8643 -1.8657 -0.6782
  446MOL0     H60160   3.797   9.562   9.695  1.7571  0.1975  0.5880
  446MOL0     H60161   3.799   9.862   9.641 -0.3762 -1.0603 -0.0713
  446MOL0     H60162   4.138  10.046   9.701 -1.8395  3.9955  1.8845
  446MOL0     H60163   4.035   9.973   9.582  1.0244  3.5131 -1.4580
  446MOL0     H60164   4.000  10.216   9.630 -0.8255 -0.1847 -1.7710
  446MOL0     H60165   3.849  10.135   9.681  0.2086  0.8200 -0.4949
  446MOL0     H60166   4.092  10.203   9.870 -0.5721  0.4688  6.6530
  446MOL0     H60167   3.939  10.137   9.919 -0.5355  0.6561 -1.4449
  446MOL0     H60168   3.956  10.407   9.764 -0.1347  0.2530 -0.3691
  446MOL0     H60169   3.982  10.393   9.945  0.6201 -1.8167 -0.0562
  446MOL0     H60170   3.548  10.382   9.969 -3.2183 -1.0297 -1.8489
  446MOL0     H60171   3.368  10.514   9.886  1.7001 -2.9736  1.3339
  446MOL0     H60172   3.341  11.071   9.733 -0.0833  1.2553  0.3057
  446MOL0     H60173   3.179  11.208   9.649 -2.3744  1.3166 -0.5854
  446MOL0     H60174   2.980  11.072   9.272 -1.1382 -1.4945  0.0283
  446MOL0     H60175   2.861  11.038   9.396  1.8887  0.2304  1.2892
  446MOL0     H60176   2.827  11.318   9.370 -1.5092  0.0942  0.8434
  446MOL0     H60177   2.908  11.287   9.224  0.3527  1.2263  2.7939
  446MOL0     H60178   2.742  11.150   9.129  0.4612  1.5281 -0.2524
  446MOL0     H60179   2.639  11.143   9.283 -2.7587  1.7300 -1.2973
  446MOL0     H60180   2.597  11.387   9.266 -0.1319  0.1528 -0.6886
  446MOL0     H60181   2.545  11.284   9.120  0.8281 -2.3349  0.3153
  446MOL0     H60182   2.791  11.460   9.142  0.0100  0.8842  0.2487
  446MOL0     H60183   2.649  11.508   9.058  2.7223  0.8916 -3.3018
  446MOL0     H60184   2.814  11.443   8.903  0.3578 -1.1956 -1.0950
  446MOL0     H60185   2.817  11.277   8.966  0.6210 -0.2289 -1.8856
  446MOL0     H60186   2.716  11.337   8.746  2.0623  1.6789  0.5562
  446MOL0     H60187   2.570  11.409   8.822 -1.2528 -0.4830 -3.4212
  446MOL0     H60188   2.651  11.109   8.806  0.7581 -0.3533 -1.0809
  446MOL0     H60189   2.565  11.163   8.950  3.2398 -1.5099  0.2160
  446MOL0     H60190   3.116  10.911   9.328 -0.7317 -1.3055 -0.3749
  446MOL0     H60191   3.283  10.783   9.410 -2.6061 -0.9539  1.6192
  446MOL0     H60192   3.646  10.742   9.645 -0.7719 -1.1622 -1.2310
  446MOL0     H60193   3.833  10.570   9.705  0.2590  2.7851  0.7038
  446MOL0     H60194   3.705  10.278   9.504 -6.0569  2.0926 -3.8321
  446MOL0     H60195   3.872  10.259   9.306 -2.0712  0.6524 -2.3831
  446MOL0     H60196   3.860   9.937   8.922 -0.4163 -1.6134  3.7004
  446MOL0     H60197   3.972   9.803   8.740  0.5214 -0.1849 -0.0742
  446MOL0     H60198   4.157   9.510   8.658  0.2059 -0.8994  1.1093
  446MOL0     H60199   4.010   9.580   8.729 -1.5061 -2.6575 -1.7720
  446MOL0     H60200   4.084   9.525   8.950  1.0210 -0.3044  0.5960
  446MOL0     H60201   4.250   9.500   8.874  0.3725 -1.2051 -0.9015
  446MOL0     H60202   4.144   9.285   8.920 -1.2828  0.4741 -0.5300
  446MOL0     H60203   4.159   9.305   8.748 -1.8440 -1.1495 -0.7509
  446MOL0     H60204   3.919   9.317   8.920  0.3482  2.6802 -0.4013
  446MOL0     H60205   3.909   9.365   8.746  1.4340  1.1790  0.4216
  446MOL0     H60206   3.959   8.953   8.680  3.4900 -0.5940 -0.1051
  446MOL0     H60207   4.337   9.795   8.944  0.0512  2.4359  0.9585
  446MOL0     H60208   4.245   9.889   9.233  0.7225 -0.4545 -0.8887
  446MOL0     H60209   4.380   9.932   9.129  0.8529 -0.5997  1.7366
  446MOL0     H60210   4.263  10.059   9.168 -1.5253 -0.4166  2.2606
  447MOL0     O60211   9.573   5.082   0.180  0.3659 -0.3490 -0.5764
  447MOL0     C60212   9.530   5.040   0.072 -0.7609 -0.4153  0.3023
  447MOL0     O60213   9.590   4.944  -0.006 -0.1032 -0.5334 -0.2837
  447MOL0     C60214   9.716   4.895   0.031  0.4876  0.5063  1.1057
  447MOL0     C60215   9.828   4.971   0.065 -0.0344  0.3363 -0.5730
  447MOL0     C60216   9.945   4.907   0.097  0.0065  0.1779 -0.2274
  447MOL0     C60217   9.952   4.770   0.093 -0.4913  0.5284  0.6247
  447MOL0     O60218  10.073   4.716   0.130  0.8550  0.0370 -0.2338
  447MOL0     C60219  10.144   4.695   0.008 -0.2576  0.5158 -0.2346
  447MOL0     C60220  10.149   4.559  -0.043  0.3436  0.0705  0.9466
  447MOL0     C60221  10.222   4.565  -0.178 -0.5784  0.0886  0.2145
  447MOL0     C60222  10.362   4.495  -0.175  0.2146 -0.9449 -0.0202
  447MOL0     C60223  10.407   4.464  -0.317  0.4319 -0.5045  0.5140
  447MOL0     C60224  10.557   4.412  -0.315  1.0856  0.4275  0.0918
  447MOL0     C60225  10.594   4.360  -0.457  1.0039 -0.4843  1.0022
  447MOL0     C60226  10.748   4.368  -0.475 -0.2982  0.6187  0.7107
  447MOL0     N60227  10.806   4.281  -0.370  0.4076 -0.7913 -0.4088
  447MOL0     C60228  10.806   4.152  -0.377 -0.7167  1.0714  0.2997
  447MOL0     C60229  10.891   4.111  -0.281  0.1308 -0.0160 -1.1653
  447MOL0     C60230  10.917   3.963  -0.264  0.1189  0.2924 -0.1532
  447MOL0     C60231  10.796   3.873  -0.274  0.1702 -0.5333 -1.0135
  447MOL0     C60232  10.835   3.730  -0.279  0.4005  0.3916  0.3667
  447MOL0     C60233  10.719   3.638  -0.297 -0.1363 -0.1021 -0.2147
  447MOL0     O60234  10.756   3.503  -0.257 -0.7073  0.4461 -0.5359
  447MOL0     C60235  10.825   3.423  -0.345 -0.5868  0.1499 -0.3106
  447MOL0     C60236  10.888   3.466  -0.467  0.6796  0.1644  0.0761
  447MOL0     C60237  10.939   3.367  -0.552 -1.3089  0.2357  0.3771
  447MOL0     C60238  10.928   3.229  -0.525  0.5842 -0.2511  0.0149
  447MOL0     C60239  10.978   3.120  -0.613 -0.5885  0.5975  0.4388
  447MOL0     O60240  10.986   2.994  -0.564  0.7702 -0.1967  0.0878
  447MOL0     C60241  11.073   2.892  -0.616 -0.1428 -0.3862 -0.9830
  447MOL0     C60242  11.180   2.903  -0.708 -0.0605  0.7705 -0.2874
  447MOL0     C60243  11.271   2.794  -0.714 -0.4611  0.1105  1.3180
  447MOL0     C60244  11.247   2.672  -0.655 -0.7491  1.0690  1.4269
  447MOL0     O60245  11.334   2.558  -0.672 -0.1304  0.3031  0.3108
  447MOL0     C60246  11.260   2.438  -0.688 -0.2532  0.1862 -0.2433
  447MOL0     C60247  11.196   2.412  -0.829 -0.3452  0.5792 -0.5809
  447MOL0     C60248  11.314   2.396  -0.933 -0.4520 -0.1571 -0.3448
  447MOL0     C60249  11.269   2.326  -1.058 -0.1140  1.0142 -0.7461
  447MOL0     C60250  11.364   2.354  -1.187 -0.4459  0.6757 -0.3312
  447MOL0     C60251  11.501   2.281  -1.205 -0.3406 -0.2758 -1.0830
  447MOL0     C60252  11.578   2.330  -1.325  0.1762  0.3063  0.2271
  447MOL0     C60253  11.629   2.464  -1.312  0.5237 -0.7163 -0.3119
  447MOL0    Cl60254  11.673   2.519  -1.465 -0.4181  0.2168  0.1421
  447MOL0     C60255  11.139   2.662  -0.566  0.2254 -0.1555  0.2913
  447MOL0     C60256  11.055   2.772  -0.555 -0.7885 -0.4278  0.1154
  447MOL0     O60257  11.011   3.151  -0.731  0.0441 -1.0394 -0.0618
  447MOL0     C60258  10.869   3.190  -0.405 -0.3007 -0.4646  0.4060
  447MOL0     C60259  10.826   3.285  -0.320  0.1835 -0.4068 -1.0451
  447MOL0     N60260  10.939   4.222  -0.214  0.2748  0.6281  0.6541
  447MOL0     N60261  10.893   4.330  -0.268  0.1729 -0.2399  0.3334
  447MOL0     C60262   9.843   4.694   0.060  0.1773 -0.1458 -0.2018
  447MOL0     C60263   9.727   4.754   0.023 -0.2563  0.6106 -0.3273
  447MOL0     C60264   9.392   5.080   0.031  0.0963  0.7730  0.2828
  447MOL0     C60265   9.350   5.036  -0.094  1.1443 -1.1486 -0.3261
  447MOL0     C60266   9.219   5.066  -0.152 -0.1648 -0.5195  0.9625
  447MOL0     C60267   9.133   5.139  -0.079  0.1303  0.4252  0.1977
  447MOL0     O60268   9.011   5.181  -0.129 -0.4992  0.6218 -0.5883
  447MOL0     C60269   9.013   5.313  -0.178  1.6612  0.2489 -0.4736
  447MOL0     C60270   8.963   5.313  -0.316 -0.3666 -0.7876 -0.3966
  447MOL0     C60271   8.823   5.248  -0.340 -0.2097  0.1992 -0.2789
  447MOL0     C60272   8.717   5.308  -0.247 -1.2832  0.6375 -0.5949
  447MOL0     C60273   8.689   5.452  -0.265 -0.0889  0.5433  0.7497
  447MOL0     C60274   8.661   5.570  -0.283  1.0743  0.3702  0.3525
  447MOL0     C60275   9.174   5.191   0.051  0.4019  0.1672  1.2791
  447MOL0     C60276   9.305   5.171   0.093  0.0157  0.0928 -0.1441
  447MOL0     C60277   9.343   5.260   0.222  0.4005  0.4798  0.9578
  447MOL0     H60278   9.812   5.079   0.067  0.2813  0.3760  1.1242
  447MOL0     H60279  10.033   4.964   0.124  0.7482 -0.6161 -0.9445
  447MOL0     H60280  10.120   4.768  -0.071 -0.8515 -0.5022 -1.0085
  447MOL0     H60281  10.249   4.711   0.036  0.0602 -0.6314 -0.7162
  447MOL0     H60282  10.052   4.514  -0.062  0.6605 -0.0256 -0.5873
  447MOL0     H60283  10.195   4.492   0.031  0.3589 -2.4887 -1.2329
  447MOL0     H60284  10.229   4.664  -0.225  1.0643 -1.6384 -3.6568
  447MOL0     H60285  10.162   4.516  -0.255  1.4998  0.6104 -1.8649
  447MOL0     H60286  10.435   4.564  -0.133  0.3307 -0.7455 -0.5427
  447MOL0     H60287  10.357   4.409  -0.107 -1.7084  0.8250  2.2955
  447MOL0     H60288  10.345   4.387  -0.363  0.7842 -0.2692 -0.3781
  447MOL0     H60289  10.407   4.558  -0.373  2.4856 -0.7380  0.0327
  447MOL0     H60290  10.620   4.495  -0.280  1.5569  0.4151 -0.7083
  447MOL0     H60291  10.546   4.334  -0.239 -5.8567 -0.9523 -1.5994
  447MOL0     H60292  10.546   4.427  -0.528  0.3803 -2.9712 -1.0713
  447MOL0     H60293  10.551   4.259  -0.457  0.1781 -0.1392  1.3228
  447MOL0     H60294  10.785   4.343  -0.575  0.6632  2.5455  0.5445
  447MOL0     H60295  10.795   4.466  -0.458  0.4880  0.4798 -0.5208
  447MOL0     H60296  10.756   4.083  -0.444  1.1828 -0.8552  0.7271
  447MOL0     H60297  10.988   3.936  -0.343  0.9347 -2.0641  1.2793
  447MOL0     H60298  10.980   3.934  -0.180  3.4254  2.3588 -1.7093
  447MOL0     H60299  10.721   3.903  -0.200 -0.8355 -0.2506 -2.1216
  447MOL0     H60300  10.749   3.878  -0.373  1.3246  0.9753 -1.5252
  447MOL0     H60301  10.882   3.708  -0.183 -0.6625 -2.5254  0.2953
  447MOL0     H60302  10.903   3.721  -0.364 -0.6959  0.7361 -0.5728
  447MOL0     H60303  10.685   3.652  -0.401  2.7187 -1.9979 -1.5326
  447MOL0     H60304  10.640   3.671  -0.229 -1.3040 -4.9321  1.1192
  447MOL0     H60305  10.893   3.564  -0.512 -1.1863 -0.3421 -1.3939
  447MOL0     H60306  10.969   3.392  -0.653  1.3007 -1.9330  0.5171
  447MOL0     H60307  11.207   2.996  -0.757  1.5782  2.0216  2.7525
  447MOL0     H60308  11.358   2.809  -0.779 -0.8416 -0.8005  0.5749
  447MOL0     H60309  11.338   2.363  -0.680 -0.7294 -0.5053 -1.6969
  447MOL0     H60310  11.186   2.408  -0.614 -0.6914 -1.1760 -1.1860
  447MOL0     H60311  11.140   2.318  -0.816  0.1935  0.4063  0.5943
  447MOL0     H60312  11.132   2.496  -0.857  0.7036  1.1841 -1.2036
  447MOL0     H60313  11.341   2.498  -0.961  1.6762 -1.3148 -2.9179
  447MOL0     H60314  11.395   2.339  -0.887 -1.8571 -1.6981  0.3170
  447MOL0     H60315  11.172   2.368  -1.087 -0.3389  0.7663 -0.3595
  447MOL0     H60316  11.269   2.219  -1.032  1.4475  0.8838 -1.1874
  447MOL0     H60317  11.377   2.462  -1.189  0.6857  0.5626  0.3000
  447MOL0     H60318  11.301   2.318  -1.269  0.7741 -2.0943 -0.1459
  447MOL0     H60319  11.564   2.290  -1.116 -0.3609 -2.2116 -0.8127
  447MOL0     H60320  11.485   2.174  -1.225  2.7440 -0.4324 -3.2767
  447MOL0     H60321  11.509   2.329  -1.410 -2.2372  4.3150  1.8740
  447MOL0     H60322  11.657   2.256  -1.337  0.6594  0.6211  1.3769
  447MOL0     H60323  11.563   2.539  -1.267  1.9689  0.9517 -0.8940
  447MOL0     H60324  11.714   2.478  -1.244 -0.2149  0.0882  0.4743
  447MOL0     H60325  11.103   2.580  -0.505 -0.6670 -0.4962 -0.6592
  447MOL0     H60326  10.969   2.762  -0.490 -0.0847 -1.0246  0.9752
  447MOL0     H60327  10.850   3.090  -0.367 -0.2583 -0.4135  0.5626
  447MOL0     H60328  10.799   3.254  -0.220  1.4058 -1.0173 -0.8908
  447MOL0     H60329   9.855   4.586   0.062  0.5647 -0.2085 -2.8659
  447MOL0     H60330   9.641   4.698  -0.009 -1.0565  0.8824  1.2172
  447MOL0     H60331   9.412   4.976  -0.160 -0.3212  0.6433 -3.5553
  447MOL0     H60332   9.186   5.033  -0.250 -1.7426 -0.8910  1.6021
  447MOL0     H60333   9.116   5.349  -0.172  0.8656  3.0974  6.7736
  447MOL0     H60334   8.946   5.373  -0.115 -0.4044  0.4760 -2.7475
  447MOL0     H60335   9.040   5.279  -0.387 -0.0431  2.3085 -1.6872
  447MOL0     H60336   8.952   5.417  -0.346  2.1100  0.2624  1.9439
  447MOL0     H60337   8.823   5.139  -0.324  0.9429  0.3354  0.8487
  447MOL0     H60338   8.805   5.263  -0.446  2.5872 -2.4187 -1.2944
  447MOL0     H60339   8.631   5.240  -0.251  0.9716 -2.8529  3.3114
  447MOL0     H60340   8.746   5.298  -0.142 -1.9530 -1.1308 -0.5535
  447MOL0     H60341   8.628   5.671  -0.300  0.1412 -0.1578 -1.2468
  447MOL0     H60342   9.096   5.247   0.102 -0.3532 -1.1171  1.5613
  447MOL0     H60343   9.260   5.325   0.251  1.0573  2.8412 -1.9836
  447MOL0     H60344   9.366   5.195   0.307  0.0820  0.0574  0.7289
  447MOL0     H60345   9.427   5.326   0.199  2.2688 -2.3485 -1.0035
  448MOL0     O60346   2.377   3.634   4.401 -0.6755 -0.7489 -0.2354
  448MOL0     C60347   2.369   3.606   4.280 -0.4199 -0.6653  0.5426
  448MOL0     O60348   2.345   3.694   4.181  0.2903  0.5600  0.1122
  448MOL0     C60349   2.339   3.829   4.195  0.6668  0.2359  0.5713
  448MOL0     C60350   2.440   3.908   4.133  0.1002 -0.0042 -1.2556
  448MOL0     C60351   2.427   4.052   4.133  0.5787  0.4720 -0.7783
  448MOL0     C60352   2.318   4.112   4.197  0.0968 -0.2840 -0.2478
  448MOL0     O60353   2.315   4.248   4.207 -0.4321 -0.1324 -0.6731
  448MOL0     C60354   2.427   4.311   4.258  0.2194  1.0052 -0.0827
  448MOL0     C60355   2.463   4.450   4.191 -0.7475 -0.3021 -0.3521
  448MOL0     C60356   2.598   4.492   4.254  0.8464  0.0504 -0.1380
  448MOL0     C60357   2.636   4.634   4.222  0.2828  0.4159  0.8448
  448MOL0     C60358   2.770   4.664   4.291 -0.1534 -0.4361 -0.0034
  448MOL0     C60359   2.820   4.803   4.249 -0.3059  0.9386  0.0956
  448MOL0     C60360   2.948   4.836   4.312 -0.7134  0.7492 -0.4506
  448MOL0     C60361   3.070   4.759   4.251  0.3592 -0.9501 -0.1589
  448MOL0     N60362   3.190   4.846   4.250 -0.3501 -0.1229  0.5095
  448MOL0     C60363   3.254   4.885   4.367  0.5991 -0.1676  0.3087
  448MOL0     C60364   3.383   4.874   4.333  0.1364  0.5069 -1.6189
  448MOL0     C60365   3.500   4.918   4.413 -0.3330  0.4701  1.1661
  448MOL0     C60366   3.575   4.793   4.453 -0.8356 -0.0526  0.6489
  448MOL0     C60367   3.510   4.696   4.560  0.4508 -0.1255  1.3132
  448MOL0     C60368   3.475   4.760   4.694  0.4009 -0.2156 -0.7481
  448MOL0     O60369   3.585   4.840   4.748  0.1698  0.1613  0.2549
  448MOL0     C60370   3.690   4.770   4.807  0.7845 -0.8766 -0.0582
  448MOL0     C60371   3.803   4.837   4.834  0.5949 -0.0398 -1.5472
  448MOL0     C60372   3.918   4.777   4.893 -0.7423  0.4706 -0.5324
  448MOL0     C60373   3.918   4.640   4.925  0.0924 -0.1769  0.1557
  448MOL0     C60374   4.036   4.573   4.979 -0.1096 -0.1665  0.1200
  448MOL0     O60375   4.008   4.450   5.029 -0.2575  0.1184  0.0882
  448MOL0     C60376   4.106   4.350   5.038  0.4143 -0.5870 -0.7355
  448MOL0     C60377   4.094   4.247   5.130 -0.4801 -0.4830  0.5900
  448MOL0     C60378   4.196   4.159   5.154  0.1344 -0.2695 -0.4574
  448MOL0     C60379   4.303   4.149   5.069 -0.6244  0.8629  0.8508
  448MOL0     O60380   4.404   4.051   5.086 -0.0333 -0.0609  0.5410
  448MOL0     C60381   4.378   3.912   5.108 -0.1722 -0.2120  1.2851
  448MOL0     C60382   4.423   3.872   5.253 -0.1514  0.0806 -0.0745
  448MOL0     C60383   4.434   3.717   5.263 -1.1981  0.0904  0.4051
  448MOL0     C60384   4.550   3.685   5.363  0.0019 -0.4374 -0.1163
  448MOL0     C60385   4.553   3.541   5.384 -0.0715 -0.2432 -0.0263
  448MOL0     C60386   4.648   3.516   5.504  0.0384  0.4614  0.6274
  448MOL0     C60387   4.683   3.359   5.541 -0.1645 -0.0731  0.5424
  448MOL0     C60388   4.762   3.348   5.668 -0.1202  0.6133  0.4781
  448MOL0    Cl60389   4.924   3.399   5.660 -0.4632  0.0856 -0.2108
  448MOL0     C60390   4.311   4.239   4.963  0.0953 -0.0667 -0.3805
  448MOL0     C60391   4.218   4.343   4.946  0.0159 -0.3143 -0.6482
  448MOL0     O60392   4.145   4.624   4.978  0.2747  0.5603 -0.4015
  448MOL0     C60393   3.796   4.572   4.905  0.3396  0.8366 -0.1733
  448MOL0     C60394   3.687   4.631   4.842 -0.2773 -0.8624  0.1714
  448MOL0     N60395   3.400   4.837   4.208 -0.9027  0.0135  1.0665
  448MOL0     N60396   3.283   4.819   4.155 -0.0431 -1.0976  0.3957
  448MOL0     C60397   2.216   4.032   4.250 -0.2742  0.7354  0.1386
  448MOL0     C60398   2.227   3.892   4.253 -0.1392  0.4965 -0.1321
  448MOL0     C60399   2.373   3.461   4.247 -0.2961 -0.1693 -0.4739
  448MOL0     C60400   2.341   3.361   4.344  0.2041  0.6071 -1.1976
  448MOL0     C60401   2.335   3.219   4.314  0.3585 -0.1956  0.2468
  448MOL0     C60402   2.366   3.183   4.177  0.6185  0.0626  0.1601
  448MOL0     O60403   2.350   3.055   4.135  0.1181  0.6188  0.2609
  448MOL0     C60404   2.216   2.997   4.147  0.4306 -0.6420 -0.0374
  448MOL0     C60405   2.183   2.889   4.046 -0.3070  0.6540  0.1166
  448MOL0     C60406   2.060   2.791   4.082  0.3448 -0.8817 -0.5908
  448MOL0     C60407   1.924   2.854   4.050 -0.5194  0.3288  0.4177
  448MOL0     C60408   1.819   2.755   4.057 -0.3836  0.9014  0.0934
  448MOL0     C60409   1.737   2.668   4.058 -0.7198  0.2632  0.2265
  448MOL0     C60410   2.406   3.273   4.085  0.5149 -0.8407 -0.2017
  448MOL0     C60411   2.413   3.404   4.119 -0.0165  0.0869 -0.3802
  448MOL0     C60412   2.470   3.500   4.009  0.5038  0.2016 -0.1469
  448MOL0     H60413   2.530   3.870   4.086 -0.1813 -0.1716 -1.6648
  448MOL0     H60414   2.507   4.104   4.081 -0.0683  2.8037  0.4456
  448MOL0     H60415   2.409   4.319   4.366  1.9191  0.9181  0.2440
  448MOL0     H60416   2.515   4.247   4.248 -0.0069  0.9197 -1.8718
  448MOL0     H60417   2.379   4.516   4.215 -0.6376 -0.2702 -0.0632
  448MOL0     H60418   2.487   4.447   4.084 -0.9951  0.0766 -0.4216
  448MOL0     H60419   2.680   4.428   4.222  0.3419  0.2345 -1.8763
  448MOL0     H60420   2.603   4.474   4.362 -1.4924 -0.0629  0.0044
  448MOL0     H60421   2.650   4.635   4.114 -1.5777 -0.9243  0.5372
  448MOL0     H60422   2.549   4.694   4.249 -1.2217 -1.3651  0.2001
  448MOL0     H60423   2.756   4.667   4.399 -0.9978  0.8600 -0.1266
  448MOL0     H60424   2.839   4.580   4.277 -0.5151 -1.2994  2.8492
  448MOL0     H60425   2.815   4.809   4.140 -3.6023 -1.1761 -0.0007
  448MOL0     H60426   2.747   4.878   4.281 -0.0935  0.6080  1.4322
  448MOL0     H60427   2.945   4.819   4.420  2.0066  0.4728 -0.3335
  448MOL0     H60428   2.969   4.942   4.295 -0.0046  0.8171  0.6938
  448MOL0     H60429   3.088   4.674   4.318  0.2728 -1.0040 -0.2034
  448MOL0     H60430   3.042   4.727   4.150 -0.6876  3.4091 -1.4596
  448MOL0     H60431   3.205   4.916   4.459 -0.2884  0.0038 -0.2093
  448MOL0     H60432   3.558   4.979   4.344 -1.0089  2.1655  2.0458
  448MOL0     H60433   3.475   4.978   4.500 -2.3783  1.3081  0.0472
  448MOL0     H60434   3.611   4.742   4.363  3.4701  3.2725  0.2264
  448MOL0     H60435   3.667   4.825   4.502 -0.1073 -1.3492  0.1810
  448MOL0     H60436   3.568   4.604   4.570  0.2381 -0.1895  2.0001
  448MOL0     H60437   3.412   4.663   4.522 -1.1828  3.3948  1.9525
  448MOL0     H60438   3.445   4.675   4.756  2.2593 -0.7667 -0.5277
  448MOL0     H60439   3.389   4.828   4.686  1.2307  1.6603  3.4910
  448MOL0     H60440   3.793   4.942   4.808  1.4266  0.4959  0.1451
  448MOL0     H60441   4.005   4.841   4.904 -1.0219  0.8744 -0.6369
  448MOL0     H60442   4.014   4.248   5.203 -0.5355  0.8900  0.5464
  448MOL0     H60443   4.181   4.082   5.230  0.2826 -0.3399 -0.4993
  448MOL0     H60444   4.271   3.890   5.114 -0.7638  2.5343  1.8636
  448MOL0     H60445   4.428   3.858   5.026  3.5404  0.0433  3.1889
  448MOL0     H60446   4.518   3.922   5.275  0.0305 -0.9687  1.6505
  448MOL0     H60447   4.346   3.905   5.323 -0.7511  2.1027 -1.5919
  448MOL0     H60448   4.340   3.662   5.275 -2.0010  0.6959 -2.2881
  448MOL0     H60449   4.461   3.676   5.165 -1.1334  0.2560  0.3518
  448MOL0     H60450   4.537   3.734   5.460 -2.6745 -2.2245  0.5531
  448MOL0     H60451   4.649   3.703   5.322 -0.0625 -0.7133 -0.3969
  448MOL0     H60452   4.597   3.498   5.294  1.1845  2.9273 -1.0856
  448MOL0     H60453   4.455   3.496   5.401  0.4991 -0.7604  2.1989
  448MOL0     H60454   4.742   3.573   5.495  0.2447  0.0586  0.1735
  448MOL0     H60455   4.601   3.551   5.596  1.1992 -2.4270  2.4720
  448MOL0     H60456   4.721   3.311   5.450 -0.6706  0.3506  0.0968
  448MOL0     H60457   4.583   3.316   5.552 -0.9319  1.0252 -1.4975
  448MOL0     H60458   4.712   3.403   5.749 -0.7869 -0.5317  0.8600
  448MOL0     H60459   4.770   3.242   5.694 -1.8440  0.3910  0.2031
  448MOL0     H60460   4.390   4.227   4.890  0.9490  2.1402  0.0893
  448MOL0     H60461   4.226   4.424   4.874  1.0187  0.4515  0.2963
  448MOL0     H60462   3.777   4.468   4.929  0.8120  0.3394 -1.7858
  448MOL0     H60463   3.596   4.572   4.833 -0.3305 -0.9631  1.2256
  448MOL0     H60464   2.129   4.072   4.301  0.4889  0.8922  1.3583
  448MOL0     H60465   2.156   3.835   4.312 -2.1750  2.1394 -0.8718
  448MOL0     H60466   2.280   3.382   4.432 -0.3554 -1.6223 -0.9890
  448MOL0     H60467   2.305   3.154   4.396  0.0289 -0.3590  0.0008
  448MOL0     H60468   2.138   3.075   4.148 -1.3767 -2.3443 -1.2123
  448MOL0     H60469   2.221   2.950   4.246  0.6650  0.9737  0.7676
  448MOL0     H60470   2.272   2.825   4.055 -1.9085 -1.4884  1.9165
  448MOL0     H60471   2.180   2.924   3.943  1.1147 -1.4751 -0.7149
  448MOL0     H60472   2.061   2.770   4.189 -1.8661  1.1599 -0.0807
  448MOL0     H60473   2.069   2.697   4.026  0.0136 -1.0773 -0.3202
  448MOL0     H60474   1.909   2.935   4.121 -2.2233  0.7327 -0.3642
  448MOL0     H60475   1.923   2.906   3.953  1.8480 -2.2201 -1.1301
  448MOL0     H60476   1.663   2.591   4.048  0.3737 -1.3709  3.4373
  448MOL0     H60477   2.442   3.237   3.989  0.3301 -2.6712  0.3808
  448MOL0     H60478   2.399   3.556   3.948  2.2549 -0.5775 -3.0822
  448MOL0     H60479   2.536   3.580   4.046  0.1286  0.9851 -1.1376
  448MOL0     H60480   2.524   3.437   3.938 -1.6905 -0.5804 -1.1990
  449MOL0     O60481   4.357   5.818   7.291 -0.5853  0.8064  0.9116
  449MOL0     C60482   4.353   5.751   7.390  0.1377  0.1826 -0.5307
  449MOL0     O60483   4.372   5.800   7.522 -0.1320  0.5538  0.4460
  449MOL0     C60484   4.362   5.930   7.560  1.1948  0.0109 -0.9550
  449MOL0     C60485   4.384   5.947   7.697  0.2128  0.2898  0.3909
  449MOL0     C60486   4.348   6.060   7.760 -0.5604 -0.1952  1.0909
  449MOL0     C60487   4.317   6.173   7.683 -0.2444  0.9930  0.1642
  449MOL0     O60488   4.314   6.295   7.749 -0.7217 -0.4770  0.3370
  449MOL0     C60489   4.297   6.419   7.675 -0.2013  0.6334 -0.2429
  449MOL0     C60490   4.317   6.544   7.754 -0.3356 -0.3567 -0.8834
  449MOL0     C60491   4.458   6.586   7.802  0.9776  0.3479  0.6179
  449MOL0     C60492   4.538   6.665   7.688 -0.0353 -0.5844 -0.6476
  449MOL0     C60493   4.651   6.738   7.771  0.2556 -0.3806  0.0408
  449MOL0     C60494   4.740   6.809   7.674 -0.1420 -0.0946  0.5002
  449MOL0     C60495   4.849   6.872   7.761  0.3538 -0.9005  0.1090
  449MOL0     C60496   4.919   6.985   7.680  0.1349  0.1763  0.7430
  449MOL0     N60497   5.038   7.040   7.756 -0.0839  0.4781 -0.1012
  449MOL0     C60498   5.044   7.098   7.881  0.2765 -0.2691 -0.2758
  449MOL0     C60499   5.157   7.172   7.879 -0.6631 -0.2084  0.1867
  449MOL0     C60500   5.223   7.255   7.977  0.2165  0.4624  0.8156
  449MOL0     C60501   5.160   7.389   7.963  1.3966 -1.0854 -0.1116
  449MOL0     C60502   5.015   7.400   8.012  0.3530  0.4177 -0.4257
  449MOL0     C60503   4.946   7.533   8.045 -0.3162  0.2659 -0.2933
  449MOL0     O60504   5.046   7.626   8.087 -0.0113 -0.1382 -0.0188
  449MOL0     C60505   5.002   7.752   8.116 -0.0076  0.6490 -0.3651
  449MOL0     C60506   4.864   7.776   8.141 -0.1183 -0.7705  0.3087
  449MOL0     C60507   4.812   7.903   8.162 -0.1340 -0.6107  0.0487
  449MOL0     C60508   4.907   8.014   8.164 -0.7955 -0.0265  0.0225
  449MOL0     C60509   4.869   8.146   8.176 -0.4579  0.9362 -0.2697
  449MOL0     O60510   4.949   8.244   8.128 -0.6100 -0.1750  0.3146
  449MOL0     C60511   4.896   8.367   8.108 -0.7917 -0.2436 -0.6320
  449MOL0     C60512   4.772   8.393   8.052  0.3331 -0.0309 -0.1276
  449MOL0     C60513   4.738   8.533   8.034  0.1695 -0.6338 -0.2464
  449MOL0     C60514   4.831   8.635   8.061 -0.0507  0.9199 -0.1683
  449MOL0     O60515   4.794   8.759   8.067 -0.2377 -0.6617 -0.7787
  449MOL0     C60516   4.892   8.859   8.052 -0.3152  0.2628 -0.2474
  449MOL0     C60517   4.836   8.980   7.959 -0.9062 -0.1376 -0.8163
  449MOL0     C60518   4.788   8.926   7.824 -1.0556  0.4306  0.5939
  449MOL0     C60519   4.762   9.037   7.722 -0.1384 -0.8461  0.7020
  449MOL0     C60520   4.807   9.017   7.578  0.2071 -0.0718 -0.9413
  449MOL0     C60521   4.742   8.892   7.521 -0.1158 -0.1538  0.0145
  449MOL0     C60522   4.762   8.883   7.366 -0.4941  0.2210  0.3996
  449MOL0     C60523   4.902   8.863   7.311  0.6319  0.5939  0.4588
  449MOL0    Cl60524   4.903   8.868   7.133 -0.2344  0.3070 -0.5151
  449MOL0     C60525   4.964   8.595   8.094  0.3098  0.1884 -0.6458
  449MOL0     C60526   4.997   8.467   8.115 -0.3161  0.2635  0.3840
  449MOL0     O60527   4.769   8.160   8.250 -0.7674  0.0304 -0.2605
  449MOL0     C60528   5.051   7.992   8.149  0.5121 -0.0704  0.2287
  449MOL0     C60529   5.095   7.859   8.120 -1.0036  0.0618  0.2502
  449MOL0     N60530   5.225   7.147   7.757 -0.1282 -0.5467  0.1643
  449MOL0     N60531   5.147   7.079   7.691  0.2626  0.0881 -0.6509
  449MOL0     C60532   4.290   6.161   7.545  0.0803  0.3365 -0.1663
  449MOL0     C60533   4.311   6.034   7.482  0.5378 -0.7123 -0.2776
  449MOL0     C60534   4.335   5.601   7.376 -0.0232 -0.5046  0.1093
  449MOL0     C60535   4.370   5.515   7.481  0.4402  0.2681  0.0648
  449MOL0     C60536   4.381   5.377   7.462  0.0431 -0.1269  0.5231
  449MOL0     C60537   4.345   5.316   7.338  0.0549 -0.1541  0.3466
  449MOL0     O60538   4.361   5.179   7.347  0.4146  0.7676 -0.7070
  449MOL0     C60539   4.256   5.094   7.287  0.6776 -0.1888  0.3246
  449MOL0     C60540   4.293   4.952   7.312 -0.3750 -0.6562 -0.7959
  449MOL0     C60541   4.434   4.921   7.264 -0.1270 -0.3017 -0.9119
  449MOL0     C60542   4.444   4.870   7.123 -0.3721 -0.1501 -0.2789
  449MOL0     C60543   4.387   4.950   7.012  0.3331  0.0983  0.4519
  449MOL0     C60544   4.349   5.015   6.919  0.7271 -0.5526  0.2780
  449MOL0     C60545   4.305   5.395   7.233 -0.2782 -0.2824  0.1208
  449MOL0     C60546   4.301   5.535   7.248  0.0291  1.2566 -0.3252
  449MOL0     C60547   4.252   5.615   7.134  0.8984  0.4872 -0.3085
  449MOL0     H60548   4.415   5.861   7.756 -2.5975 -2.3677 -1.6645
  449MOL0     H60549   4.370   6.058   7.866  2.5898  0.9156  0.5563
  449MOL0     H60550   4.351   6.433   7.580 -0.7983  1.3092 -0.4917
  449MOL0     H60551   4.190   6.420   7.653 -0.9627 -1.2433  2.8047
  449MOL0     H60552   4.259   6.538   7.846  0.0089 -0.8294 -0.6995
  449MOL0     H60553   4.281   6.628   7.694 -1.9747 -1.0466 -0.9144
  449MOL0     H60554   4.519   6.498   7.824  1.3692  0.3789 -0.2688
  449MOL0     H60555   4.449   6.655   7.886 -1.8019  2.3666 -1.1455
  449MOL0     H60556   4.578   6.601   7.610  0.9081  1.0202 -1.5306
  449MOL0     H60557   4.478   6.743   7.640 -2.1614 -1.3769  0.5751
  449MOL0     H60558   4.612   6.814   7.839  1.7582  2.7017 -2.3018
  449MOL0     H60559   4.708   6.663   7.826  1.5146 -0.3831 -1.2310
  449MOL0     H60560   4.787   6.743   7.600  2.4074  2.4364 -0.3011
  449MOL0     H60561   4.689   6.880   7.609 -0.0483  1.4127  2.0022
  449MOL0     H60562   4.921   6.802   7.804 -0.4399 -0.2872  2.6357
  449MOL0     H60563   4.800   6.928   7.842 -0.5742 -1.0271 -0.3491
  449MOL0     H60564   4.958   6.933   7.592 -3.2038 -1.0472 -0.1586
  449MOL0     H60565   4.857   7.068   7.644  1.8996 -0.1662 -3.6016
  449MOL0     H60566   4.966   7.089   7.955 -3.5393 -2.6914 -4.1174
  449MOL0     H60567   5.224   7.217   8.079  2.0008  0.5427  0.8601
  449MOL0     H60568   5.328   7.260   7.945 -0.4181  0.8172 -1.3756
  449MOL0     H60569   5.221   7.457   8.024  0.8325 -3.0305  2.8333
  449MOL0     H60570   5.159   7.417   7.857  2.4281 -0.4550  0.0314
  449MOL0     H60571   5.011   7.336   8.101  2.7568 -0.0335 -0.5855
  449MOL0     H60572   4.956   7.342   7.941  1.2586  0.1985 -1.0126
  449MOL0     H60573   4.861   7.523   8.113 -1.8975  1.1367 -2.0642
  449MOL0     H60574   4.896   7.573   7.957  0.8438  0.5240 -0.8520
  449MOL0     H60575   4.779   7.709   8.138 -0.6824 -0.1505 -3.6635
  449MOL0     H60576   4.707   7.925   8.179 -0.4142  0.1124 -2.2413
  449MOL0     H60577   4.698   8.314   8.046  0.4110 -0.0428 -1.1080
  449MOL0     H60578   4.638   8.570   8.018  0.2940 -0.6588 -1.1329
  449MOL0     H60579   4.911   8.905   8.150  0.0278 -0.6673  0.1299
  449MOL0     H60580   4.979   8.815   8.001 -0.7492  0.5794 -1.2849
  449MOL0     H60581   4.757   9.045   7.997  0.1356  1.6390 -1.5833
  449MOL0     H60582   4.919   9.047   7.933 -0.7057  0.0845  0.3500
  449MOL0     H60583   4.866   8.857   7.790  0.5544  2.3990  0.1634
  449MOL0     H60584   4.699   8.861   7.826  0.2492 -1.7296 -2.6631
  449MOL0     H60585   4.813   9.120   7.773 -0.1160 -0.1015 -0.4815
  449MOL0     H60586   4.655   9.060   7.715  0.3675  1.1843 -1.5076
  449MOL0     H60587   4.914   8.996   7.575 -0.0993 -1.7026 -1.9245
  449MOL0     H60588   4.777   9.108   7.524 -1.4898 -0.8990 -1.4759
  449MOL0     H60589   4.776   8.801   7.572  1.4004  1.1866  1.5800
  449MOL0     H60590   4.638   8.916   7.543  0.1485  3.1852 -1.7332
  449MOL0     H60591   4.736   8.985   7.336 -1.9291  0.2137  1.5004
  449MOL0     H60592   4.700   8.810   7.311  0.2441  0.4687 -0.8033
  449MOL0     H60593   4.963   8.938   7.362  0.3492 -0.1980  2.0375
  449MOL0     H60594   4.945   8.765   7.332 -0.0686 -0.3534 -2.2063
  449MOL0     H60595   5.038   8.668   8.126  2.8851 -3.2879  2.3194
  449MOL0     H60596   5.097   8.439   8.147 -0.1464 -0.6552 -0.8601
  449MOL0     H60597   5.126   8.068   8.168 -2.4575  3.0788  0.1587
  449MOL0     H60598   5.199   7.828   8.107 -2.0888 -3.0432 -2.5904
  449MOL0     H60599   4.254   6.238   7.478 -0.1757 -0.8396 -1.4039
  449MOL0     H60600   4.275   6.033   7.380  3.1506 -0.3577 -1.2521
  449MOL0     H60601   4.381   5.563   7.579 -1.6316  2.0821 -0.5144
  449MOL0     H60602   4.422   5.333   7.552 -0.2890  1.9639  1.7826
  449MOL0     H60603   4.256   5.108   7.179  1.2481  0.9281  0.4508
  449MOL0     H60604   4.158   5.126   7.324  1.0726  0.7059  0.6432
  449MOL0     H60605   4.221   4.891   7.257  0.3778 -3.8910  1.5265
  449MOL0     H60606   4.289   4.935   7.421  0.3337 -0.7349 -0.7778
  449MOL0     H60607   4.474   4.840   7.326  0.3299  2.7765  3.3110
  449MOL0     H60608   4.505   5.003   7.274  0.2199 -0.4424 -2.0479
  449MOL0     H60609   4.552   4.866   7.108 -0.4296 -0.0780 -0.7196
  449MOL0     H60610   4.423   4.764   7.108 -1.7978 -0.1560  1.4457
  449MOL0     H60611   4.317   5.076   6.837  3.2822  0.7438  0.1663
  449MOL0     H60612   4.287   5.348   7.137  0.6027 -2.1074  0.7902
  449MOL0     H60613   4.183   5.685   7.182  0.6757  0.0913 -0.0544
  449MOL0     H60614   4.337   5.669   7.090  1.1784 -1.9982 -3.1009
  449MOL0     H60615   4.208   5.553   7.055 -2.6703  0.0351  1.8370
  450MOL0     O60616   6.832   6.733   7.970 -0.0093 -0.2427  0.3133
  450MOL0     C60617   6.860   6.801   7.871 -0.9052 -0.4657 -0.3615
  450MOL0     O60618   6.870   6.750   7.739  0.0642 -0.0656 -0.6570
  450MOL0     C60619   6.784   6.646   7.700  0.2344 -1.0943  0.5617
  450MOL0     C60620   6.659   6.630   7.760  0.0525 -0.6295  0.4924
  450MOL0     C60621   6.572   6.523   7.722 -0.1411 -0.0312  0.6348
  450MOL0     C60622   6.615   6.438   7.617 -0.0752  0.1958  0.2679
  450MOL0     O60623   6.553   6.316   7.587  0.3597 -0.2071 -0.2733
  450MOL0     C60624   6.484   6.248   7.694 -0.4033  0.1014 -0.1347
  450MOL0     C60625   6.575   6.179   7.792  0.5621  0.8711 -0.6198
  450MOL0     C60626   6.610   6.253   7.919  0.0793  1.3821  1.0106
  450MOL0     C60627   6.694   6.173   8.008  0.9413  0.0034  0.2991
  450MOL0     C60628   6.714   6.230   8.149 -0.1025  0.5827  0.3356
  450MOL0     C60629   6.790   6.136   8.236  0.1738 -0.4712  0.0562
  450MOL0     C60630   6.825   6.205   8.374  0.1174  0.4254 -0.9130
  450MOL0     C60631   6.872   6.107   8.491 -0.1457  0.3182 -1.0330
  450MOL0     N60632   6.890   6.185   8.614 -0.4751  0.2683  0.7010
  450MOL0     C60633   6.987   6.277   8.637  1.1214 -0.3112 -0.1040
  450MOL0     C60634   6.942   6.351   8.739  0.1285 -1.6002  0.1955
  450MOL0     C60635   7.012   6.483   8.785  0.5412  0.0139  0.6745
  450MOL0     C60636   7.132   6.452   8.885 -1.0904 -0.3230 -0.3980
  450MOL0     C60637   7.091   6.422   9.028  0.9773 -0.3318 -0.2885
  450MOL0     C60638   6.997   6.525   9.087  0.2513  0.2171 -0.3307
  450MOL0     O60639   7.070   6.645   9.109  0.3478 -0.4448 -0.2627
  450MOL0     C60640   7.002   6.747   9.169 -0.1536  0.0197  0.0295
  450MOL0     C60641   6.867   6.750   9.218 -0.5230 -0.0986 -0.2201
  450MOL0     C60642   6.824   6.864   9.285 -0.0133  0.6084  0.0808
  450MOL0     C60643   6.909   6.979   9.296 -0.1385 -0.5296  0.1892
  450MOL0     C60644   6.858   7.096   9.376  0.2230  0.3322  1.1596
  450MOL0     O60645   6.754   7.089   9.475 -0.4367  0.5939  1.3664
  450MOL0     C60646   6.688   7.199   9.512  0.4107  0.1080  0.0552
  450MOL0     C60647   6.662   7.226   9.648 -0.2453  0.6927 -0.0214
  450MOL0     C60648   6.604   7.340   9.698  0.0774  0.9699  0.0934
  450MOL0     C60649   6.559   7.433   9.600  0.3205 -0.3764  0.1323
  450MOL0     O60650   6.475   7.531   9.649  0.0963  0.3626 -0.3697
  450MOL0     C60651   6.505   7.658   9.603  0.0608 -0.0689 -0.6918
  450MOL0     C60652   6.413   7.712   9.485 -0.2530 -0.1172 -0.1436
  450MOL0     C60653   6.270   7.695   9.536 -0.6711  0.0057  0.6061
  450MOL0     C60654   6.162   7.769   9.452  0.2310 -0.1719  0.2791
  450MOL0     C60655   6.014   7.728   9.488  0.5043 -0.2075  0.5524
  450MOL0     C60656   5.988   7.588   9.418 -0.0284  1.3105  0.1700
  450MOL0     C60657   5.896   7.601   9.288 -0.1389 -0.0211 -0.7695
  450MOL0     C60658   5.796   7.484   9.260  0.3375  1.4070 -0.6094
  450MOL0    Cl60659   5.886   7.338   9.212  0.2458 -0.9881  0.2441
  450MOL0     C60660   6.590   7.417   9.465 -0.3892  0.0151  0.2566
  450MOL0     C60661   6.645   7.294   9.415  1.4365 -1.1299  0.2933
  450MOL0     O60662   6.925   7.193   9.351 -0.7204  0.4653 -0.9487
  450MOL0     C60663   7.036   6.973   9.231 -0.6587  0.1970 -0.4942
  450MOL0     C60664   7.081   6.865   9.168  0.9912  0.1706  0.2431
  450MOL0     N60665   6.834   6.299   8.791  0.0320 -0.3579 -0.4902
  450MOL0     N60666   6.799   6.194   8.718 -0.6307 -0.2660  0.2494
  450MOL0     C60667   6.745   6.456   7.558 -0.3640 -0.0135 -0.7329
  450MOL0     C60668   6.826   6.566   7.592 -0.1725 -0.5420 -0.6633
  450MOL0     C60669   6.888   6.940   7.892  0.7694 -0.0123 -0.9138
  450MOL0     C60670   6.845   7.028   7.790 -0.2197  0.5771  0.2208
  450MOL0     C60671   6.871   7.156   7.797 -0.5540 -0.1471  0.5362
  450MOL0     C60672   6.929   7.218   7.904  0.2656 -0.6128  0.5622
  450MOL0     O60673   6.933   7.359   7.912 -0.0291  0.6039  0.7152
  450MOL0     C60674   7.048   7.412   7.974  0.1160 -0.2511  0.0667
  450MOL0     C60675   7.061   7.556   7.974  0.1355  0.6501  0.5031
  450MOL0     C60676   7.137   7.610   7.852  0.8501 -0.0821  0.2698
  450MOL0     C60677   7.039   7.609   7.724  0.2961  0.1522  0.0702
  450MOL0     C60678   7.072   7.718   7.628 -1.0344 -0.0083  1.1087
  450MOL0     C60679   7.096   7.811   7.553  0.5297  0.7059 -0.3706
  450MOL0     C60680   6.964   7.138   8.013 -0.9101 -0.4829  0.2550
  450MOL0     C60681   6.943   6.997   8.001  0.5588 -0.4385 -0.2368
  450MOL0     C60682   7.005   6.918   8.114  0.2856  0.8780 -0.3736
  450MOL0     H60683   6.611   6.685   7.840 -3.9337  0.8318 -2.5113
  450MOL0     H60684   6.476   6.506   7.769 -2.2723  2.3863 -2.4425
  450MOL0     H60685   6.409   6.315   7.737 -2.5580  0.2758 -3.7929
  450MOL0     H60686   6.423   6.174   7.641 -0.4082  0.7230 -1.0271
  450MOL0     H60687   6.672   6.173   7.741  0.8271  0.4787 -0.0809
  450MOL0     H60688   6.526   6.084   7.814  1.6322  1.0901  3.6423
  450MOL0     H60689   6.517   6.283   7.968 -2.2447 -0.0655 -2.1195
  450MOL0     H60690   6.661   6.343   7.884 -2.1764  1.9601 -1.1508
  450MOL0     H60691   6.646   6.076   8.026 -2.9972  1.3766 -1.7125
  450MOL0     H60692   6.790   6.157   7.958 -0.5785  1.4308 -3.3688
  450MOL0     H60693   6.770   6.323   8.143  1.3687 -0.1970  1.3991
  450MOL0     H60694   6.616   6.251   8.194 -1.0356  1.0966 -1.8164
  450MOL0     H60695   6.736   6.043   8.257  2.9256 -2.6243 -1.6501
  450MOL0     H60696   6.885   6.110   8.189  1.2772  2.7062  0.2902
  450MOL0     H60697   6.736   6.262   8.406  0.0902  0.0601 -0.3198
  450MOL0     H60698   6.903   6.281   8.362 -0.9721  2.2703  2.1529
  450MOL0     H60699   6.810   6.017   8.492  2.2649 -1.4282 -0.3868
  450MOL0     H60700   6.972   6.071   8.464  0.0501  1.1249 -1.3936
  450MOL0     H60701   7.070   6.278   8.567  1.5530 -4.7167  0.0431
  450MOL0     H60702   7.063   6.526   8.699  0.1190 -1.3335 -0.2762
  450MOL0     H60703   6.948   6.561   8.827  0.5571  1.8285 -2.3745
  450MOL0     H60704   7.180   6.359   8.854 -0.3745 -0.6313  1.4541
  450MOL0     H60705   7.205   6.533   8.897 -1.0601 -0.1443 -1.7119
  450MOL0     H60706   7.176   6.423   9.097 -0.4606 -2.4447  1.6779
  450MOL0     H60707   7.046   6.322   9.035  1.2254 -0.4241  0.0340
  450MOL0     H60708   6.965   6.480   9.181  0.6550 -2.4014 -1.3523
  450MOL0     H60709   6.911   6.538   9.021 -0.9084 -0.4797  0.9932
  450MOL0     H60710   6.803   6.664   9.201 -0.4954 -0.2126  0.2193
  450MOL0     H60711   6.725   6.855   9.329 -0.5227 -0.0246 -1.1348
  450MOL0     H60712   6.693   7.155   9.724  2.3245 -1.2193 -2.6735
  450MOL0     H60713   6.584   7.357   9.804  1.9261  0.0773  0.6309
  450MOL0     H60714   6.485   7.721   9.690  0.6924 -1.6839  0.6867
  450MOL0     H60715   6.614   7.664   9.590  0.0500  4.8476 -0.1678
  450MOL0     H60716   6.439   7.815   9.461 -0.1267 -0.4521 -1.5527
  450MOL0     H60717   6.415   7.657   9.390 -0.4292 -2.0342  0.9013
  450MOL0     H60718   6.243   7.589   9.534 -0.0593 -0.1417 -0.5132
  450MOL0     H60719   6.263   7.738   9.636 -1.4037  0.4570  0.3681
  450MOL0     H60720   6.189   7.731   9.354 -0.5294 -0.5660  0.2131
  450MOL0     H60721   6.184   7.876   9.459  0.2522 -0.0000 -1.8036
  450MOL0     H60722   5.951   7.799   9.432 -0.6841 -1.6143  0.0407
  450MOL0     H60723   6.012   7.732   9.597 -1.0256 -0.8073  0.5713
  450MOL0     H60724   6.078   7.534   9.387 -0.7864 -1.3947  2.3184
  450MOL0     H60725   5.933   7.528   9.490  0.3494 -0.6205 -1.0804
  450MOL0     H60726   5.955   7.599   9.196  2.6173 -1.3653  0.9151
  450MOL0     H60727   5.840   7.695   9.283 -0.6467  0.1533  3.7265
  450MOL0     H60728   5.741   7.458   9.352  0.0606 -2.6536 -1.7096
  450MOL0     H60729   5.721   7.513   9.186  0.0772  0.6173 -0.6701
  450MOL0     H60730   6.563   7.481   9.381  0.3090 -1.5451 -1.2252
  450MOL0     H60731   6.649   7.270   9.309  4.0934  0.8723 -0.1851
  450MOL0     H60732   7.106   7.056   9.239 -0.3817  0.3797 -3.6920
  450MOL0     H60733   7.171   6.873   9.107  0.1874  4.1089 -0.6953
  450MOL0     H60734   6.776   6.374   7.494 -0.0822 -1.5838  1.3021
  450MOL0     H60735   6.927   6.584   7.558  1.0882 -0.5189  2.8065
  450MOL0     H60736   6.819   6.983   7.695  0.5670  1.1596 -0.2685
  450MOL0     H60737   6.854   7.215   7.708  2.4973  1.1966  0.7388
  450MOL0     H60738   7.136   7.358   7.936  0.3783  0.0339  0.2578
  450MOL0     H60739   7.041   7.385   8.079 -0.2955 -1.0528 -0.1604
  450MOL0     H60740   7.117   7.573   8.067  1.2823  0.4813 -0.1302
  450MOL0     H60741   6.966   7.609   7.979  0.1693  0.7647  0.0040
  450MOL0     H60742   7.223   7.548   7.827  0.5433 -0.8104  0.9576
  450MOL0     H60743   7.185   7.704   7.880  0.4324 -0.2608  1.7106
  450MOL0     H60744   7.042   7.514   7.671 -2.7128  0.2706 -0.4692
  450MOL0     H60745   6.937   7.629   7.757  1.1793 -0.6321  3.6438
  450MOL0     H60746   7.117   7.892   7.486 -0.2994  0.5313 -0.8547
  450MOL0     H60747   6.997   7.174   8.110 -2.4267 -0.9014  0.9633
  450MOL0     H60748   6.925   6.923   8.188 -1.1540 -2.7752 -1.4518
  450MOL0     H60749   7.028   6.814   8.089  2.2250  1.0835  0.3988
  450MOL0     H60750   7.090   6.960   8.168  2.2409 -0.7075 -2.0814
  451MOL0     O60751   1.593   0.795   7.502  0.3691  0.4972 -0.6036
  451MOL0     C60752   1.573   0.889   7.422  0.9016 -0.5939 -0.5555
  451MOL0     O60753   1.501   1.003   7.443 -0.3589  0.7475  0.5809
  451MOL0     C60754   1.457   1.043   7.563 -0.0620  0.2977 -0.3335
  451MOL0     C60755   1.344   1.123   7.554 -0.6945 -0.5289 -0.1773
  451MOL0     C60756   1.297   1.188   7.668  0.0666  0.3348 -1.0874
  451MOL0     C60757   1.349   1.164   7.791 -0.0630 -0.4393 -0.0651
  451MOL0     O60758   1.318   1.229   7.905 -0.4593  0.5424  0.4752
  451MOL0     C60759   1.214   1.174   7.983 -0.1468 -0.3563 -0.2157
  451MOL0     C60760   1.265   1.119   8.123 -0.0674 -1.3658 -0.0064
  451MOL0     C60761   1.339   1.247   8.195  0.1556  0.7164 -1.4788
  451MOL0     C60762   1.418   1.222   8.328 -0.3971 -0.3752 -0.4505
  451MOL0     C60763   1.476   1.359   8.372 -0.3549  0.8976 -0.2146
  451MOL0     C60764   1.542   1.363   8.511  0.0373 -0.5282 -0.3128
  451MOL0     C60765   1.571   1.519   8.528  0.3249 -0.9731  0.0590
  451MOL0     C60766   1.601   1.553   8.678  0.3386 -1.1597  0.8643
  451MOL0     N60767   1.704   1.460   8.747 -0.4325 -0.6360  0.6273
  451MOL0     C60768   1.838   1.445   8.714 -0.1582  0.0252 -0.9829
  451MOL0     C60769   1.881   1.332   8.775  0.2972  0.7390  0.2114
  451MOL0     C60770   2.022   1.287   8.758 -0.7595 -1.0369  0.9310
  451MOL0     C60771   2.042   1.241   8.616 -0.1008 -0.2176  0.2213
  451MOL0     C60772   1.926   1.178   8.536 -0.9952  0.0775  0.4298
  451MOL0     C60773   1.913   1.024   8.555 -0.0762  0.0183  0.1199
  451MOL0     O60774   1.786   0.973   8.507 -0.2214 -0.5053  0.3163
  451MOL0     C60775   1.665   0.987   8.578 -0.0278  0.7421 -0.1675
  451MOL0     C60776   1.655   1.022   8.709 -0.1271  0.2578 -0.8526
  451MOL0     C60777   1.540   1.004   8.785  0.8876  0.8010 -0.1148
  451MOL0     C60778   1.417   0.962   8.729 -0.8839 -0.1633  0.2022
  451MOL0     C60779   1.291   0.956   8.807  0.1320 -0.3267  0.4643
  451MOL0     O60780   1.174   0.934   8.735 -0.2341 -0.6412 -0.2136
  451MOL0     C60781   1.062   0.903   8.814 -0.1123  1.1564  0.7452
  451MOL0     C60782   1.001   0.779   8.788  0.3590 -0.1801  0.1153
  451MOL0     C60783   0.882   0.739   8.851  0.0405  0.0675 -0.6367
  451MOL0     C60784   0.827   0.824   8.959 -0.0411  0.9878 -0.2568
  451MOL0     O60785   0.727   0.787   9.040  0.1057  0.2907 -0.1894
  451MOL0     C60786   0.614   0.724   8.987  0.1314 -0.2593  1.3116
  451MOL0     C60787   0.540   0.645   9.097  0.1734  0.3765 -0.3098
  451MOL0     C60788   0.469   0.516   9.044 -0.0320 -0.4379 -0.4117
  451MOL0     C60789   0.505   0.374   9.084 -0.0296  0.6820 -0.5066
  451MOL0     C60790   0.487   0.316   9.225  0.0338 -0.2368  0.1119
  451MOL0     C60791   0.606   0.223   9.268  0.6341  0.1601  0.4202
  451MOL0     C60792   0.604   0.114   9.169 -0.5064 -0.0822 -1.1095
  451MOL0     C60793   0.696  -0.012   9.184 -0.2767  0.0870 -0.0938
  451MOL0    Cl60794   0.611  -0.115   9.297  0.2392  0.2723  0.3753
  451MOL0     C60795   0.888   0.940   8.985 -0.3226 -0.3791 -0.5181
  451MOL0     C60796   1.003   0.985   8.907 -0.0787 -0.8650  0.4987
  451MOL0     O60797   1.294   0.951   8.927 -0.4309 -0.1600  0.2849
  451MOL0     C60798   1.424   0.937   8.592 -0.0630  0.6091 -0.8172
  451MOL0     C60799   1.542   0.935   8.525  0.1627  0.9182  0.0425
  451MOL0     N60800   1.774   1.285   8.853 -0.4286  0.2543 -0.2615
  451MOL0     N60801   1.665   1.360   8.830 -0.0251  0.7140  0.1733
  451MOL0     C60802   1.456   1.078   7.799 -0.1217  0.0244  0.1620
  451MOL0     C60803   1.513   1.020   7.687 -0.3882 -1.0484  0.2712
  451MOL0     C60804   1.656   0.903   7.302  0.5611 -0.0322  0.3586
  451MOL0     C60805   1.785   0.950   7.322 -0.2093 -0.4081 -0.7574
  451MOL0     C60806   1.872   0.986   7.219  0.4033  0.2037  0.6009
  451MOL0     C60807   1.833   0.983   7.083  0.3712 -0.1239 -0.2449
  451MOL0     O60808   1.919   1.020   6.987  0.3384  0.9227  0.0946
  451MOL0     C60809   1.864   1.060   6.858  0.2054 -0.7047  0.6459
  451MOL0     C60810   1.977   1.137   6.778 -0.3156  0.4231  0.3707
  451MOL0     C60811   1.991   1.280   6.825  0.3316  0.5472 -0.1248
  451MOL0     C60812   2.057   1.313   6.950 -0.2942  0.8905 -0.3066
  451MOL0     C60813   2.205   1.329   6.938  0.7693 -0.2643 -0.2219
  451MOL0     C60814   2.325   1.350   6.945 -0.0778 -0.4626 -0.2116
  451MOL0     C60815   1.705   0.927   7.057  0.0327 -0.1250 -0.2772
  451MOL0     C60816   1.614   0.885   7.164 -0.4914  0.6196 -0.3153
  451MOL0     C60817   1.473   0.837   7.138 -0.3237 -0.5706  0.5176
  451MOL0     H60818   1.290   1.127   7.460 -3.2125 -1.2611  1.1416
  451MOL0     H60819   1.215   1.259   7.667  0.4939  0.8719  0.3988
  451MOL0     H60820   1.134   1.247   7.994 -1.6024 -1.9720  0.4724
  451MOL0     H60821   1.157   1.092   7.938 -1.4454  0.2089  0.3625
  451MOL0     H60822   1.333   1.034   8.109  2.5533  0.7988 -1.5051
  451MOL0     H60823   1.182   1.096   8.189 -0.9891 -0.5569 -0.8514
  451MOL0     H60824   1.262   1.312   8.236 -0.3475 -0.7641  0.0541
  451MOL0     H60825   1.399   1.301   8.121 -1.2015  1.4782 -2.0594
  451MOL0     H60826   1.349   1.177   8.400 -1.2835  1.8746  0.1937
  451MOL0     H60827   1.508   1.165   8.303  0.9235  2.0963 -1.6998
  451MOL0     H60828   1.539   1.402   8.293  1.7137 -0.4698  0.6042
  451MOL0     H60829   1.388   1.416   8.403 -1.4107 -1.7579  2.0724
  451MOL0     H60830   1.476   1.320   8.587  1.6958 -2.2119  0.2597
  451MOL0     H60831   1.641   1.320   8.528 -0.4212 -1.1122  1.0518
  451MOL0     H60832   1.483   1.579   8.503  0.3191 -1.7369 -1.9128
  451MOL0     H60833   1.649   1.557   8.462  1.1735 -0.8627  1.0925
  451MOL0     H60834   1.640   1.654   8.693 -1.4460 -0.3103  0.0145
  451MOL0     H60835   1.504   1.567   8.727 -1.7613 -3.6982 -2.1419
  451MOL0     H60836   1.905   1.517   8.669  4.2151 -1.1912  2.8428
  451MOL0     H60837   2.096   1.367   8.765  3.1886 -4.1540 -1.2932
  451MOL0     H60838   2.053   1.210   8.830 -0.1116  1.9706  4.1546
  451MOL0     H60839   2.085   1.327   8.564  2.2969 -0.2264  2.0189
  451MOL0     H60840   2.127   1.175   8.598 -0.1034 -0.0464 -0.4223
  451MOL0     H60841   1.951   1.200   8.432 -1.4653 -0.2734  0.2364
  451MOL0     H60842   1.832   1.232   8.548 -0.7272  1.1128 -1.6570
  451MOL0     H60843   1.931   0.999   8.660  1.7553  0.6311 -0.0212
  451MOL0     H60844   1.999   0.988   8.497 -0.2366  0.4310 -0.3810
  451MOL0     H60845   1.752   1.050   8.749  1.2905  0.9308 -4.3447
  451MOL0     H60846   1.522   1.032   8.888 -0.9243  2.8313 -0.9326
  451MOL0     H60847   1.063   0.708   8.734 -1.2963 -1.1455 -0.5969
  451MOL0     H60848   0.862   0.634   8.836  0.8648 -0.2016  0.0505
  451MOL0     H60849   0.553   0.804   8.944  1.8410  0.9745  1.0844
  451MOL0     H60850   0.635   0.663   8.899 -2.2038  3.2932 -2.0910
  451MOL0     H60851   0.614   0.616   9.172 -0.8475  0.1417  0.6314
  451MOL0     H60852   0.468   0.712   9.145  0.3546  1.2459 -1.2243
  451MOL0     H60853   0.371   0.523   9.092  0.1217 -1.2416  0.0445
  451MOL0     H60854   0.465   0.525   8.935 -0.1286 -2.4448 -0.6134
  451MOL0     H60855   0.609   0.370   9.050 -0.0028  1.8466 -0.6084
  451MOL0     H60856   0.447   0.320   9.009  3.4073 -1.5195 -1.8182
  451MOL0     H60857   0.387   0.271   9.233  1.6004 -4.2890 -0.8792
  451MOL0     H60858   0.480   0.396   9.300 -0.7222  1.4183 -1.6576
  451MOL0     H60859   0.700   0.278   9.259 -0.0060  1.0040 -1.9966
  451MOL0     H60860   0.584   0.194   9.371 -1.6684  5.6498  1.8373
  451MOL0     H60861   0.630   0.158   9.073 -0.3998  2.1442 -0.1184
  451MOL0     H60862   0.505   0.072   9.149 -0.8900  1.7112 -3.4101
  451MOL0     H60863   0.722  -0.066   9.092  2.2123  1.1820 -0.1290
  451MOL0     H60864   0.792   0.015   9.231 -0.8589  2.8017 -0.2917
  451MOL0     H60865   0.860   0.985   9.080 -1.3558 -1.1086 -0.4569
  451MOL0     H60866   1.048   1.078   8.941 -1.7334 -0.0495  0.5559
  451MOL0     H60867   1.338   0.920   8.529  0.6435  0.9585 -1.9148
  451MOL0     H60868   1.541   0.900   8.422  1.4981 -1.9405  0.8954
  451MOL0     H60869   1.506   1.058   7.893  1.0607  2.7286  0.1792
  451MOL0     H60870   1.596   0.951   7.697  2.3910  2.1946  1.3318
  451MOL0     H60871   1.805   0.963   7.428 -0.3935 -0.7447 -0.6783
  451MOL0     H60872   1.966   1.033   7.243 -0.3557  1.6067  0.9420
  451MOL0     H60873   1.781   1.130   6.873  0.4888  0.4489 -2.4600
  451MOL0     H60874   1.843   0.967   6.805  0.3413 -0.9182  0.9687
  451MOL0     H60875   1.945   1.129   6.674 -1.5237 -2.2972  0.8565
  451MOL0     H60876   2.071   1.082   6.788 -0.6223 -0.1105  0.3611
  451MOL0     H60877   1.886   1.310   6.833  0.2091  0.3015 -0.7467
  451MOL0     H60878   2.043   1.335   6.746 -0.0522  1.2968  0.1344
  451MOL0     H60879   2.022   1.408   6.991  1.3694  0.7705  1.5706
  451MOL0     H60880   2.035   1.243   7.031  2.0731  1.9206  1.3221
  451MOL0     H60881   2.429   1.373   6.937 -0.2304  0.4365  0.1870
  451MOL0     H60882   1.677   0.916   6.952 -1.6592  2.8558 -0.2501
  451MOL0     H60883   1.416   0.839   7.231 -0.3615 -0.1443  0.4856
  451MOL0     H60884   1.414   0.895   7.067 -1.4613  2.1330  3.4488
  451MOL0     H60885   1.478   0.731   7.108 -1.6891  0.1636 -2.7202
  452MOL0     O60886   0.176   8.791  10.321 -0.1623  0.3224  0.2726
  452MOL0     C60887   0.182   8.848  10.439  0.9229  0.1131 -0.0913
  452MOL0     O60888   0.234   8.791  10.549 -0.2785  0.4897 -0.0161
  452MOL0     C60889   0.291   8.669  10.539  0.5217  0.4677 -0.4094
  452MOL0     C60890   0.225   8.562  10.604 -0.6430 -0.5780  0.1478
  452MOL0     C60891   0.281   8.437  10.592 -1.0787 -0.5259 -0.1774
  452MOL0     C60892   0.407   8.429  10.527  0.7055 -0.0440 -0.0397
  452MOL0     O60893   0.467   8.313  10.520  0.3362 -0.2397  0.5640
  452MOL0     C60894   0.483   8.260  10.391  0.2419  0.1686 -0.0754
  452MOL0     C60895   0.459   8.111  10.384 -1.0232  0.1290  0.3539
  452MOL0     C60896   0.320   8.065  10.408  0.2516  0.9904 -0.3938
  452MOL0     C60897   0.231   8.132  10.304 -0.1308 -0.4649  0.4518
  452MOL0     C60898   0.089   8.072  10.333  0.1481 -0.0721  0.6586
  452MOL0     C60899   0.046   7.927  10.288 -0.3396  0.5948 -0.0711
  452MOL0     C60900  -0.101   7.905  10.286  0.1253 -0.4594  0.5317
  452MOL0     C60901  -0.129   7.754  10.247 -0.5186 -0.2110  0.1726
  452MOL0     N60902  -0.273   7.734  10.231 -0.1555 -0.1027 -0.3463
  452MOL0     C60903  -0.350   7.661  10.321  0.3271 -0.0833 -0.3414
  452MOL0     C60904  -0.471   7.670  10.270  0.2485  0.2628 -0.4901
  452MOL0     C60905  -0.584   7.592  10.335 -0.2413 -0.1708  0.2190
  452MOL0     C60906  -0.710   7.660  10.291  0.0615  0.4265  0.0954
  452MOL0     C60907  -0.820   7.618  10.384  1.6947 -0.5032 -0.2171
  452MOL0     C60908  -0.957   7.687  10.344 -0.3181 -0.5451  0.3268
  452MOL0     O60909  -1.059   7.660  10.444  0.1399  0.2572 -0.8321
  452MOL0     C60910  -1.192   7.667  10.412  0.8112  0.1132  0.6557
  452MOL0     C60911  -1.257   7.710  10.295  0.1177  0.4523 -0.4876
  452MOL0     C60912  -1.400   7.695  10.283 -0.0808  0.3345 -0.3140
  452MOL0     C60913  -1.488   7.641  10.379 -0.0753  0.1863  0.7217
  452MOL0     C60914  -1.635   7.628  10.368 -0.2524 -0.1802  0.0421
  452MOL0     O60915  -1.679   7.639  10.241 -0.7966 -0.1205 -0.2430
  452MOL0     C60916  -1.815   7.665  10.236 -0.9058  0.4820 -0.4455
  452MOL0     C60917  -1.861   7.800  10.251  0.2843 -0.4348 -0.9747
  452MOL0     C60918  -2.003   7.816  10.234  1.1267  0.5595 -0.1288
  452MOL0     C60919  -2.098   7.711  10.214 -1.2602 -0.7921  0.4360
  452MOL0     O60920  -2.233   7.707  10.202  0.3960  0.1058  0.3343
  452MOL0     C60921  -2.305   7.813  10.124 -0.6828 -0.3563 -0.5002
  452MOL0     C60922  -2.449   7.785  10.137  0.4098 -0.3266 -0.1230
  452MOL0     C60923  -2.498   7.662  10.068 -0.3739 -0.8006  0.5029
  452MOL0     C60924  -2.632   7.618  10.124 -0.3567 -0.2394  0.2028
  452MOL0     C60925  -2.676   7.481  10.069 -0.1768  0.3210 -0.0853
  452MOL0     C60926  -2.820   7.450  10.128 -0.4938 -0.5769 -0.2657
  452MOL0     C60927  -2.869   7.311  10.072 -0.8183  0.0929 -0.3518
  452MOL0     C60928  -2.995   7.247  10.126 -0.1524  0.4675 -0.7063
  452MOL0    Cl60929  -3.123   7.363  10.163  0.3067 -0.2095 -0.6942
  452MOL0     C60930  -2.045   7.585  10.215  0.2387 -0.2218 -0.8379
  452MOL0     C60931  -1.905   7.562  10.215  0.3083 -1.0303  0.1614
  452MOL0     O60932  -1.706   7.590  10.461  0.5163 -0.0176  1.0499
  452MOL0     C60933  -1.420   7.592  10.496  1.0347 -0.9309 -0.5226
  452MOL0     C60934  -1.285   7.610  10.511  0.0684 -0.2223 -0.0551
  452MOL0     N60935  -0.478   7.756  10.160  0.7033  0.3689  0.9706
  452MOL0     N60936  -0.352   7.789  10.141  0.3176 -0.2784  0.1846
  452MOL0     C60937   0.463   8.534  10.453 -0.2232  0.9147  0.0820
  452MOL0     C60938   0.407   8.655  10.462 -0.2158 -0.2377  0.1445
  452MOL0     C60939   0.119   8.977  10.444 -0.5176 -0.3155  0.4528
  452MOL0     C60940   0.097   9.045  10.314 -0.4626 -0.2426 -0.1121
  452MOL0     C60941   0.040   9.167  10.308 -0.2020  0.0958  0.0259
  452MOL0     C60942   0.021   9.248  10.423  0.2027  0.4351  0.4200
  452MOL0     O60943  -0.030   9.371  10.394  0.2149 -0.9210  0.3940
  452MOL0     C60944  -0.045   9.462  10.502  0.3166 -0.1816 -0.0614
  452MOL0     C60945   0.088   9.531  10.547 -0.1776 -0.3473  0.6979
  452MOL0     C60946   0.054   9.625  10.657 -0.1635  0.3593 -0.3893
  452MOL0     C60947   0.174   9.652  10.750  0.6176  0.0207  0.5204
  452MOL0     C60948   0.118   9.630  10.884  0.4211  0.5749 -0.3521
  452MOL0     C60949   0.077   9.586  10.989  0.5055  0.3152 -0.1400
  452MOL0     C60950   0.034   9.181  10.547 -0.0357  0.4794 -0.4776
  452MOL0     C60951   0.090   9.050  10.566 -0.5000  0.4491  0.1839
  452MOL0     C60952   0.124   9.004  10.698 -0.1120  0.3949  0.2766
  452MOL0     H60953   0.133   8.587  10.657 -0.0129  3.0489 -0.1792
  452MOL0     H60954   0.252   8.341  10.633 -0.4390 -1.6442 -2.2099
  452MOL0     H60955   0.427   8.303  10.307  2.6593 -2.4578 -3.2837
  452MOL0     H60956   0.584   8.286  10.359  0.0008 -1.8503 -2.8685
  452MOL0     H60957   0.524   8.061  10.456 -2.3018  0.5353  1.8312
  452MOL0     H60958   0.482   8.086  10.279 -2.7457  0.0899 -0.0357
  452MOL0     H60959   0.285   8.067  10.512  2.5026  0.3353  0.4415
  452MOL0     H60960   0.322   7.956  10.393  1.8435  0.6957  1.5098
  452MOL0     H60961   0.208   8.238  10.313 -4.3909 -1.1664 -0.0055
  452MOL0     H60962   0.271   8.099  10.208 -0.0851 -0.7185  0.5581
  452MOL0     H60963   0.072   8.072  10.441  2.3593  0.1395  1.0570
  452MOL0     H60964   0.018   8.140  10.285  2.7742 -0.5292 -4.5305
  452MOL0     H60965   0.080   7.905  10.186  0.1299  2.4259 -0.3487
  452MOL0     H60966   0.096   7.850  10.348 -3.9275  0.0765  2.5742
  452MOL0     H60967  -0.156   7.987  10.239 -1.7217 -0.2981  2.8202
  452MOL0     H60968  -0.140   7.918  10.387  0.2776 -0.7379  0.6267
  452MOL0     H60969  -0.080   7.739  10.150 -0.9440 -0.0206 -0.0786
  452MOL0     H60970  -0.085   7.690  10.323 -0.6925  0.4890  0.8708
  452MOL0     H60971  -0.314   7.615  10.413  1.2292  3.8050  1.4801
  452MOL0     H60972  -0.584   7.485  10.310  0.8014 -0.6382  2.0371
  452MOL0     H60973  -0.580   7.600  10.444  0.5149  2.7545  0.0658
  452MOL0     H60974  -0.698   7.769  10.296 -1.7739  0.7089 -0.8915
  452MOL0     H60975  -0.744   7.640  10.189  1.3066  0.0630 -0.2670
  452MOL0     H60976  -0.800   7.658  10.484 -1.7389 -2.0765  1.2717
  452MOL0     H60977  -0.825   7.511  10.405 -3.3802 -0.2554  1.1692
  452MOL0     H60978  -0.992   7.646  10.248 -2.9797  0.9734  0.5468
  452MOL0     H60979  -0.941   7.795  10.342 -0.0824 -0.4891 -4.1047
  452MOL0     H60980  -1.189   7.750  10.220  4.2042  0.2388  2.7521
  452MOL0     H60981  -1.438   7.729  10.187 -0.5072 -3.5803 -1.6990
  452MOL0     H60982  -1.773   7.861  10.262  0.8238 -0.9006 -2.4785
  452MOL0     H60983  -2.023   7.922  10.236  0.5569  0.4678 -0.6174
  452MOL0     H60984  -2.279   7.911  10.166  2.0745 -0.3810 -1.8622
  452MOL0     H60985  -2.277   7.806  10.018  1.9614 -0.1796  0.1081
  452MOL0     H60986  -2.473   7.777  10.244  0.6818  1.0117  0.0565
  452MOL0     H60987  -2.508   7.872  10.108 -0.0472  0.4574  2.8113
  452MOL0     H60988  -2.511   7.676   9.961  2.8881 -1.6409 -0.0986
  452MOL0     H60989  -2.425   7.582  10.078 -0.5841 -0.9694  0.7046
  452MOL0     H60990  -2.700   7.698  10.090 -1.7589 -0.4549  2.3253
  452MOL0     H60991  -2.625   7.618  10.233 -0.8641  0.3777  0.2405
  452MOL0     H60992  -2.605   7.404  10.101  0.4064  0.0115 -1.9581
  452MOL0     H60993  -2.677   7.487   9.959  4.6151 -0.3076 -0.3765
  452MOL0     H60994  -2.824   7.431  10.236 -2.7350 -0.7361 -0.3144
  452MOL0     H60995  -2.890   7.530  10.104  1.0090  1.7257  2.4452
  452MOL0     H60996  -2.783   7.243  10.078 -1.4620 -0.6205  1.8145
  452MOL0     H60997  -2.880   7.330   9.965 -0.0445  2.5834 -0.0484
  452MOL0     H60998  -3.031   7.183  10.045  1.7192 -2.0469  0.3008
  452MOL0     H60999  -2.975   7.185  10.214 -1.7399  2.7893  1.4236
  452MOL0     H61000  -2.123   7.512  10.197 -2.5528  2.0055  1.3945
  452MOL0     H61001  -1.864   7.462  10.221  0.4555 -0.9026  3.3126
  452MOL0     H61002  -1.466   7.548  10.583  2.5186 -0.5486  0.4906
  452MOL0     H61003  -1.226   7.595  10.601  5.2866  0.1885 -3.0195
  452MOL0     H61004   0.548   8.513  10.390 -0.2813  2.7228 -0.6610
  452MOL0     H61005   0.450   8.731  10.398 -0.7592 -1.8869 -2.3308
  452MOL0     H61006   0.126   8.993  10.223 -2.1113 -2.7050  0.6593
  452MOL0     H61007   0.009   9.208  10.212 -1.2814  1.1987  0.8289
  452MOL0     H61008  -0.103   9.416  10.582  1.5975  0.2777  1.1635
  452MOL0     H61009  -0.120   9.538  10.477  0.0952 -0.1795  0.5842
  452MOL0     H61010   0.128   9.591  10.465  0.9637  1.9045  2.7744
  452MOL0     H61011   0.159   9.456  10.583  0.7965  0.5108  0.6100
  452MOL0     H61012  -0.029   9.577  10.709  2.1602 -4.2166 -0.3605
  452MOL0     H61013   0.025   9.720  10.612 -2.3512 -1.2588 -2.6984
  452MOL0     H61014   0.257   9.582  10.739  1.6530  0.7820  2.7019
  452MOL0     H61015   0.202   9.754  10.724 -1.6916 -0.2971 -4.1850
  452MOL0     H61016   0.032   9.534  11.070 -0.6299  0.2541 -0.7901
  452MOL0     H61017   0.003   9.241  10.632  0.0177 -0.2053  0.0341
  452MOL0     H61018   0.086   9.074  10.774 -0.3879  2.0276 -1.2791
  452MOL0     H61019   0.075   8.908  10.713  0.6124 -0.2871 -1.5254
  452MOL0     H61020   0.233   8.997  10.708  0.2023  0.9003 -2.0896
  453MOL0     O61021   2.179   9.940   7.879 -0.2594  0.6614  0.0147
  453MOL0     C61022   2.236   9.917   7.777  1.0236  0.1418 -0.0969
  453MOL0     O61023   2.367   9.892   7.767  0.4605 -1.0023  0.1542
  453MOL0     C61024   2.464   9.982   7.823 -0.8438 -0.1750  0.3863
  453MOL0     C61025   2.588   9.937   7.867 -1.0831 -0.0426  0.4106
  453MOL0     C61026   2.690  10.036   7.905  0.6947 -0.1566  0.6636
  453MOL0     C61027   2.668  10.175   7.895  1.0322  0.4107 -0.3127
  453MOL0     O61028   2.758  10.275   7.932 -0.1585 -0.8965  0.3512
  453MOL0     C61029   2.902  10.261   7.934  0.6078 -0.4000 -0.0005
  453MOL0     C61030   2.954  10.377   8.021  0.0895 -0.5638  0.9265
  453MOL0     C61031   3.092  10.423   7.965  0.4343  0.7025 -0.4133
  453MOL0     C61032   3.198  10.313   8.004  0.6453  0.1519 -0.3848
  453MOL0     C61033   3.333  10.381   8.015  0.5956  0.2803  0.5077
  453MOL0     C61034   3.358  10.496   8.117 -0.3933  0.8741  0.1818
  453MOL0     C61035   3.338  10.476   8.273 -0.2657 -0.3703  0.2085
  453MOL0     C61036   3.411  10.351   8.323 -0.5814  1.3883  0.1459
  453MOL0     N61037   3.557  10.346   8.327 -0.0948 -0.9274  0.3148
  453MOL0     C61038   3.625  10.465   8.352  0.3602  0.1317 -0.6705
  453MOL0     C61039   3.752  10.425   8.339 -1.0194 -0.4402 -0.7087
  453MOL0     C61040   3.871  10.507   8.366  0.1052 -0.8538 -0.1835
  453MOL0     C61041   3.987  10.479   8.266 -0.6547  0.3404  0.4407
  453MOL0     C61042   4.099  10.588   8.288 -0.6786  0.3519 -0.1091
  453MOL0     C61043   4.179  10.606   8.157 -0.1579 -0.5697 -0.2455
  453MOL0     O61044   4.212  10.486   8.083  0.3909  0.1636  0.1400
  453MOL0     C61045   4.297  10.482   7.980 -0.4604 -0.5463 -0.3735
  453MOL0     C61046   4.359  10.362   7.946  0.5800  0.1565 -0.3022
  453MOL0     C61047   4.453  10.358   7.846  0.2649 -0.6405 -0.5312
  453MOL0     C61048   4.509  10.468   7.784 -0.0414  1.1811 -0.4928
  453MOL0     C61049   4.619  10.447   7.674 -0.7078 -0.2576  0.0593
  453MOL0     O61050   4.680  10.559   7.635 -0.2455  1.1161  0.0442
  453MOL0     C61051   4.783  10.544   7.548 -0.7423 -0.1662  0.0486
  453MOL0     C61052   4.772  10.496   7.414  0.2074 -0.6293 -0.3722
  453MOL0     C61053   4.896  10.481   7.347  0.1701 -1.2075 -0.0135
  453MOL0     C61054   5.015  10.529   7.405 -0.7645  0.3111 -0.1083
  453MOL0     O61055   5.142  10.516   7.357  0.7587 -0.4605  0.0969
  453MOL0     C61056   5.153  10.461   7.215 -0.6987  0.1278 -0.1336
  453MOL0     C61057   5.295  10.492   7.161 -0.5175  0.0645 -0.2044
  453MOL0     C61058   5.410  10.472   7.257 -1.1417 -0.1426  0.0040
  453MOL0     C61059   5.540  10.549   7.206 -0.2472  0.0644 -0.5323
  453MOL0     C61060   5.655  10.493   7.294 -0.1195 -0.7756  0.3493
  453MOL0     C61061   5.782  10.534   7.221  0.0342 -0.1491  0.4035
  453MOL0     C61062   5.910  10.486   7.282  0.4729 -0.0064  0.5799
  453MOL0     C61063   6.037  10.550   7.213  0.0431 -0.1858  1.5965
  453MOL0    Cl61064   6.032  10.526   7.026  0.1134  0.0492  0.3756
  453MOL0     C61065   5.013  10.588   7.533 -0.3246  0.7621  0.5159
  453MOL0     C61066   4.894  10.603   7.597 -0.5931 -0.2379 -0.7406
  453MOL0     O61067   4.657  10.337   7.652  0.7027  0.6355 -0.2006
  453MOL0     C61068   4.446  10.586   7.810  0.4384 -0.4984  0.4615
  453MOL0     C61069   4.334  10.589   7.900 -0.8706  0.0527 -0.5584
  453MOL0     N61070   3.758  10.292   8.303 -0.5176 -0.2789  0.3304
  453MOL0     N61071   3.642  10.250   8.280 -0.4336  0.0522  0.5803
  453MOL0     C61072   2.530  10.213   7.854 -0.5960  0.9469  0.3709
  453MOL0     C61073   2.434  10.118   7.810 -0.9710 -0.5426  0.0421
  453MOL0     C61074   2.158   9.915   7.658  0.0394 -1.2476  0.1026
  453MOL0     C61075   2.239   9.898   7.533 -0.1217 -0.8282 -0.3805
  453MOL0     C61076   2.176   9.912   7.409  0.1402 -0.4384 -0.3506
  453MOL0     C61077   2.038   9.927   7.397  0.9409  0.5392 -0.1197
  453MOL0     O61078   2.002   9.942   7.265  0.6500 -0.2784 -0.3254
  453MOL0     C61079   1.892  10.027   7.221  0.3588  0.3714  0.1435
  453MOL0     C61080   1.902  10.056   7.077 -0.6624 -0.4674 -0.6207
  453MOL0     C61081   1.809   9.972   6.991  0.7551 -0.2784  0.4820
  453MOL0     C61082   1.795  10.024   6.850  0.0123 -0.5323 -0.1715
  453MOL0     C61083   1.715  10.147   6.856  0.6422 -0.7445  0.7938
  453MOL0     C61084   1.634  10.236   6.857  0.0692  0.0228  0.7494
  453MOL0     C61085   1.959   9.947   7.512  0.5868  0.2834  0.4445
  453MOL0     C61086   2.017   9.931   7.639  0.0348 -0.0700  0.2684
  453MOL0     C61087   1.917   9.931   7.753  0.4865 -0.4873  0.0257
  453MOL0     H61088   2.614   9.832   7.871  0.9750  0.3034 -1.8357
  453MOL0     H61089   2.791  10.005   7.929  1.4315  1.9221  0.4487
  453MOL0     H61090   2.937  10.163   7.970 -2.7829 -1.7563 -0.0759
  453MOL0     H61091   2.945  10.272   7.834 -0.1629  0.0824 -0.2892
  453MOL0     H61092   2.949  10.339   8.123 -2.3378 -1.7555  0.4525
  453MOL0     H61093   2.889  10.465   8.018 -1.2103 -1.4763  1.3293
  453MOL0     H61094   3.125  10.519   8.005  3.0083 -1.0386  2.1023
  453MOL0     H61095   3.087  10.437   7.856  2.1002  1.2293 -0.4513
  453MOL0     H61096   3.161  10.259   8.092 -0.5425 -1.1188 -1.6176
  453MOL0     H61097   3.207  10.227   7.936  1.9582 -1.3093  1.5337
  453MOL0     H61098   3.399  10.298   8.043  0.1372  0.1671  1.2671
  453MOL0     H61099   3.361  10.411   7.914  0.3181 -1.9851 -0.3128
  453MOL0     H61100   3.461  10.531   8.102  0.2535  0.7824  3.6208
  453MOL0     H61101   3.295  10.583   8.095 -0.2723  1.5888  2.3905
  453MOL0     H61102   3.230  10.465   8.288 -0.5739  1.3739 -0.4729
  453MOL0     H61103   3.367  10.557   8.341 -0.8689  1.1000 -1.2139
  453MOL0     H61104   3.377  10.320   8.422  0.3674  3.4740  1.2084
  453MOL0     H61105   3.386  10.270   8.255  1.2193  0.6249  0.3540
  453MOL0     H61106   3.592  10.560   8.391 -1.9796 -0.9092  0.0999
  453MOL0     H61107   3.848  10.614   8.367 -0.3943 -0.8537 -3.1462
  453MOL0     H61108   3.910  10.483   8.465  2.0091 -0.5301 -0.8171
  453MOL0     H61109   4.030  10.385   8.300 -0.5930 -0.6590 -2.1921
  453MOL0     H61110   3.959  10.468   8.161  0.5123 -2.9822  0.3770
  453MOL0     H61111   4.169  10.544   8.360 -1.0416 -2.9654 -1.5869
  453MOL0     H61112   4.061  10.687   8.317 -1.0765  1.0912 -2.8610
  453MOL0     H61113   4.273  10.649   8.193  0.0652 -1.3133  0.0851
  453MOL0     H61114   4.139  10.678   8.085 -0.9154  1.3145  1.9384
  453MOL0     H61115   4.321  10.275   7.999 -2.0752  1.6845  0.4839
  453MOL0     H61116   4.481  10.259   7.811  3.0508  0.3789 -1.4959
  453MOL0     H61117   4.683  10.452   7.371  0.0438 -1.3621  0.6874
  453MOL0     H61118   4.888  10.425   7.255 -2.7403 -0.3077 -0.4396
  453MOL0     H61119   5.137  10.353   7.221  1.1630 -0.0933  3.0525
  453MOL0     H61120   5.085  10.513   7.148  1.1868 -0.5448 -2.7451
  453MOL0     H61121   5.328  10.452   7.064  4.5405  4.0702 -0.5855
  453MOL0     H61122   5.306  10.600   7.152 -1.8449  0.2002 -0.2653
  453MOL0     H61123   5.390  10.499   7.361 -1.2697  2.4004 -0.6086
  453MOL0     H61124   5.436  10.366   7.257  0.9057  0.3078 -0.7957
  453MOL0     H61125   5.533  10.656   7.226  0.8704 -0.0096  0.3777
  453MOL0     H61126   5.559  10.541   7.098 -0.4448  4.4725 -1.0658
  453MOL0     H61127   5.657  10.384   7.291  0.6030 -0.7471 -1.6549
  453MOL0     H61128   5.653  10.540   7.393  1.5844  0.8539 -0.3404
  453MOL0     H61129   5.777  10.489   7.121 -0.7800  0.9993 -0.0985
  453MOL0     H61130   5.790  10.643   7.228  5.0894 -0.3813  3.3236
  453MOL0     H61131   5.914  10.378   7.268 -3.4629  0.0866 -3.5393
  453MOL0     H61132   5.908  10.512   7.388 -2.0738  1.9466  0.1488
  453MOL0     H61133   6.032  10.657   7.233  0.2897  0.0362  0.5015
  453MOL0     H61134   6.136  10.519   7.248 -0.0992 -2.2790  0.3677
  453MOL0     H61135   5.098  10.644   7.571  0.6327 -0.1004 -0.3082
  453MOL0     H61136   4.884  10.659   7.689  3.8645 -0.7038  0.2639
  453MOL0     H61137   4.475  10.678   7.760 -2.3327 -0.1139 -0.6419
  453MOL0     H61138   4.296  10.689   7.920  0.1824  0.5910 -1.1868
  453MOL0     H61139   2.504  10.319   7.853 -1.6516  0.7578  2.3467
  453MOL0     H61140   2.340  10.157   7.772 -1.5252  0.1861  2.0077
  453MOL0     H61141   2.347   9.886   7.538 -0.1085 -0.6618 -0.2764
  453MOL0     H61142   2.238   9.910   7.320 -0.9878  0.1459 -1.1714
  453MOL0     H61143   1.888  10.117   7.283 -0.1501  0.2214  0.3433
  453MOL0     H61144   1.801   9.967   7.235 -1.0210  1.8062 -2.0071
  453MOL0     H61145   2.005  10.034   7.049 -0.7374 -1.1789 -0.3467
  453MOL0     H61146   1.878  10.163   7.069  3.7316  0.9011  1.4932
  453MOL0     H61147   1.710   9.983   7.036 -1.0010 -0.0472 -3.1101
  453MOL0     H61148   1.847   9.870   6.981  0.6676 -0.3805  1.1433
  453MOL0     H61149   1.896  10.048   6.814  0.0350  2.6584  1.6760
  453MOL0     H61150   1.743   9.956   6.782 -0.9069  0.4497 -0.4789
  453MOL0     H61151   1.568  10.318   6.838 -0.8469 -1.2621 -2.0157
  453MOL0     H61152   1.853   9.946   7.493  0.7054 -1.3646 -0.3088
  453MOL0     H61153   1.954   9.892   7.849  4.7467 -1.0302 -1.6276
  453MOL0     H61154   1.881  10.034   7.751 -0.2563 -0.7129  1.0329
  453MOL0     H61155   1.826   9.879   7.723 -1.0376  1.0979  1.6486
  454MOL0     O61156   5.541  11.283   8.042 -0.2988 -0.4633 -0.2884
  454MOL0     C61157   5.578  11.244   8.149  0.6058  0.6574 -0.5613
  454MOL0     O61158   5.706  11.268   8.202  1.0569 -0.2769  0.1513
  454MOL0     C61159   5.804  11.296   8.107 -0.1385  0.4351 -0.3864
  454MOL0     C61160   5.903  11.373   8.166  0.2535 -0.2962  0.2135
  454MOL0     C61161   5.994  11.443   8.091  1.1983  0.2814 -0.0047
  454MOL0     C61162   6.006  11.416   7.948 -0.4261  0.1085 -0.0317
  454MOL0     O61163   6.098  11.482   7.868  0.0663 -0.1915 -0.0147
  454MOL0     C61164   6.191  11.566   7.924  0.4012 -0.1971  0.3993
  454MOL0     C61165   6.131  11.703   7.969 -0.7866  0.1169 -1.2778
  454MOL0     C61166   6.234  11.795   8.028  0.7517 -0.0929 -0.5506
  454MOL0     C61167   6.289  11.742   8.158  0.3038  0.2669 -0.6561
  454MOL0     C61168   6.402  11.830   8.212  0.0284  0.5494  1.2623
  454MOL0     C61169   6.435  11.796   8.349 -0.4502  0.1011 -0.6364
  454MOL0     C61170   6.558  11.877   8.406  0.3364  0.8269 -0.0786
  454MOL0     C61171   6.597  11.864   8.552  0.2936 -0.8270 -0.2747
  454MOL0     N61172   6.602  11.735   8.616 -0.1406 -0.1946  0.3947
  454MOL0     C61173   6.588  11.606   8.574 -0.0667 -0.7357  0.2504
  454MOL0     C61174   6.575  11.530   8.684  0.0681  0.0281  0.4044
  454MOL0     C61175   6.590  11.378   8.660 -0.3768  0.4029 -0.1411
  454MOL0     C61176   6.737  11.328   8.649 -1.4385 -0.1513 -0.0991
  454MOL0     C61177   6.764  11.250   8.524 -0.2050 -0.3157 -0.1186
  454MOL0     C61178   6.899  11.184   8.526 -0.0573  0.1478 -0.0628
  454MOL0     O61179   7.007  11.272   8.534  0.1671  0.0132 -0.4505
  454MOL0     C61180   7.089  11.294   8.424  0.6282  0.4558  0.2052
  454MOL0     C61181   7.226  11.279   8.444 -0.2691 -0.4687  0.4231
  454MOL0     C61182   7.318  11.298   8.334 -0.4203 -1.0266  0.0669
  454MOL0     C61183   7.278  11.365   8.213  0.5673  0.5805  0.1992
  454MOL0     C61184   7.370  11.400   8.105  0.1984 -0.3238 -0.1043
  454MOL0     O61185   7.503  11.395   8.136  1.0453 -0.6954  0.4503
  454MOL0     C61186   7.592  11.451   8.047 -0.0858 -0.1829  0.1057
  454MOL0     C61187   7.663  11.361   7.966  0.5000  0.2460 -0.3811
  454MOL0     C61188   7.749  11.401   7.865  0.4693 -0.2397  0.0003
  454MOL0     C61189   7.768  11.541   7.840 -1.1851  0.4940  1.1281
  454MOL0     O61190   7.866  11.595   7.767  0.6582  0.0457  0.9316
  454MOL0     C61191   7.922  11.526   7.661 -0.6395  0.4950  0.5826
  454MOL0     C61192   8.017  11.611   7.575  0.6455 -0.9877 -0.5658
  454MOL0     C61193   7.949  11.742   7.523 -0.1392  0.2799 -0.0777
  454MOL0     C61194   8.031  11.798   7.405  0.6338 -0.4056  0.2837
  454MOL0     C61195   7.947  11.909   7.330  0.0682 -0.5023 -0.1838
  454MOL0     C61196   8.024  11.970   7.213 -0.1521  0.2898  0.1580
  454MOL0     C61197   7.962  12.103   7.164 -0.0699  1.0644 -0.7439
  454MOL0     C61198   8.006  12.148   7.022  0.0027 -0.1241 -0.1479
  454MOL0    Cl61199   7.903  12.284   6.983  0.3165 -0.0854  0.2541
  454MOL0     C61200   7.697  11.627   7.921 -0.0090  0.6207  0.2665
  454MOL0     C61201   7.614  11.587   8.021 -0.1545 -0.0729  0.4927
  454MOL0     O61202   7.319  11.451   8.007 -0.5866 -0.1011 -0.3412
  454MOL0     C61203   7.137  11.375   8.195 -0.0082  0.9609  0.6989
  454MOL0     C61204   7.049  11.340   8.294 -1.0340 -0.4651 -0.0211
  454MOL0     N61205   6.597  11.607   8.793 -0.6075 -0.5993  0.5553
  454MOL0     N61206   6.597  11.730   8.752 -0.0976 -0.7068  0.1057
  454MOL0     C61207   5.916  11.320   7.894 -0.2430 -0.2748  0.0758
  454MOL0     C61208   5.815  11.252   7.970 -0.3303 -0.5737 -0.0635
  454MOL0     C61209   5.479  11.158   8.229 -1.2611 -0.1773  0.6375
  454MOL0     C61210   5.491  11.158   8.370 -0.1391 -0.0718  0.1973
  454MOL0     C61211   5.388  11.105   8.445  0.1915  0.1994 -0.4774
  454MOL0     C61212   5.278  11.036   8.386  0.6218 -0.2093 -0.9195
  454MOL0     O61213   5.192  10.983   8.480 -0.1649  0.0969  0.0064
  454MOL0     C61214   5.096  10.893   8.426  0.0612  0.4164 -0.4182
  454MOL0     C61215   4.998  10.863   8.540 -0.1183 -0.7980  0.2628
  454MOL0     C61216   4.891  10.972   8.551  0.7329  0.0902 -0.6063
  454MOL0     C61217   4.785  10.906   8.636  1.2260  0.6984  0.0372
  454MOL0     C61218   4.793  10.950   8.777  0.2050 -0.3831  0.3131
  454MOL0     C61219   4.816  10.994   8.891 -0.1335 -0.4433 -0.5285
  454MOL0     C61220   5.275  11.025   8.246 -1.0779 -1.4815  0.3630
  454MOL0     C61221   5.371  11.086   8.168 -0.2373  1.0368 -0.2960
  454MOL0     C61222   5.364  11.066   8.023  0.0572 -0.1298  0.3460
  454MOL0     H61223   5.893  11.391   8.273  1.4434 -0.6498  0.4048
  454MOL0     H61224   6.069  11.503   8.142  1.4019  2.0449 -2.2100
  454MOL0     H61225   6.250  11.515   8.001 -0.1490 -0.9884  0.3094
  454MOL0     H61226   6.253  11.587   7.837 -2.0537  1.2866 -1.1077
  454MOL0     H61227   6.039  11.700   8.030  0.1399  0.9900  0.2251
  454MOL0     H61228   6.114  11.749   7.872  2.3911 -0.6910 -2.3399
  454MOL0     H61229   6.188  11.893   8.044 -2.3086 -1.5184 -0.0599
  454MOL0     H61230   6.316  11.803   7.955  2.4990 -1.2740  1.1726
  454MOL0     H61231   6.211  11.749   8.235  0.6443 -1.2418 -0.1272
  454MOL0     H61232   6.320  11.637   8.157  4.0443  1.1628  1.9357
  454MOL0     H61233   6.493  11.824   8.151 -1.4152  3.3745 -1.5042
  454MOL0     H61234   6.374  11.936   8.207  1.3608  0.9252  1.3679
  454MOL0     H61235   6.345  11.818   8.409  0.8127  0.3505  1.2432
  454MOL0     H61236   6.469  11.692   8.352  4.0000  1.3363 -1.2026
  454MOL0     H61237   6.552  11.983   8.381 -0.0829  0.9765  0.6156
  454MOL0     H61238   6.637  11.845   8.338 -1.6076 -0.8851 -1.6895
  454MOL0     H61239   6.699  11.904   8.557  0.3988 -1.2266  1.3107
  454MOL0     H61240   6.544  11.928   8.623  0.7237 -1.5485  0.7186
  454MOL0     H61241   6.593  11.569   8.472 -2.5360  1.3594 -0.7536
  454MOL0     H61242   6.546  11.321   8.742  1.5532 -1.5949 -0.3878
  454MOL0     H61243   6.533  11.339   8.575  0.7771 -1.1948 -0.2449
  454MOL0     H61244   6.802  11.416   8.642  1.3284 -2.1552 -1.2030
  454MOL0     H61245   6.768  11.274   8.738  3.3779 -1.3880 -2.2517
  454MOL0     H61246   6.779  11.319   8.440  2.8132 -2.1506 -1.2612
  454MOL0     H61247   6.685  11.175   8.511 -1.4876  0.1701  3.6282
  454MOL0     H61248   6.912  11.115   8.443 -0.0596 -1.1912  1.0136
  454MOL0     H61249   6.895  11.120   8.615  2.5040 -0.4822 -0.3237
  454MOL0     H61250   7.270  11.259   8.542  0.9800 -1.3398 -0.2892
  454MOL0     H61251   7.423  11.281   8.356  0.0757 -0.2163 -1.5121
  454MOL0     H61252   7.651  11.259   7.999  1.0621  0.6545  1.1732
  454MOL0     H61253   7.807  11.331   7.807  0.5896  0.9091 -1.3255
  454MOL0     H61254   7.976  11.437   7.697  2.6018  1.5190 -1.2526
  454MOL0     H61255   7.840  11.504   7.592  0.7582  0.8769 -1.2751
  454MOL0     H61256   8.102  11.645   7.635  1.2862 -1.4891 -1.1663
  454MOL0     H61257   8.051  11.544   7.495  0.0974  0.8389 -2.4041
  454MOL0     H61258   7.843  11.723   7.509  0.2289 -1.2800 -0.9561
  454MOL0     H61259   7.956  11.815   7.604 -0.9689  0.5375 -0.2303
  454MOL0     H61260   8.046  11.720   7.330  0.0108 -1.4053  1.1594
  454MOL0     H61261   8.127  11.841   7.436  0.8291 -1.4063  1.1431
  454MOL0     H61262   7.919  11.991   7.397  3.1260  2.9534 -2.7755
  454MOL0     H61263   7.857  11.853   7.302 -1.6768  1.4502  1.1946
  454MOL0     H61264   8.120  12.008   7.249 -0.7522  2.3730 -0.3557
  454MOL0     H61265   8.047  11.911   7.124  1.9440  4.1571 -2.0795
  454MOL0     H61266   7.983  12.184   7.236 -1.8473  0.7464  0.1894
  454MOL0     H61267   7.856  12.085   7.184  0.0002  0.3548 -1.0051
  454MOL0     H61268   8.107  12.188   7.034  0.2271 -0.6836 -0.1421
  454MOL0     H61269   8.001  12.067   6.949 -1.4852 -0.1344 -0.0693
  454MOL0     H61270   7.702  11.735   7.906  0.1361  0.9056  2.0946
  454MOL0     H61271   7.555  11.666   8.067 -2.8835 -2.1580  0.8820
  454MOL0     H61272   7.094  11.420   8.106 -3.6891 -2.1129  0.6678
  454MOL0     H61273   6.943  11.360   8.281 -0.7426 -0.2393 -2.3740
  454MOL0     H61274   5.926  11.294   7.789  0.1240 -0.6782  0.2070
  454MOL0     H61275   5.739  11.187   7.928 -3.0395  1.7090  0.9416
  454MOL0     H61276   5.569  11.219   8.415  2.8219 -3.5180  0.1374
  454MOL0     H61277   5.392  11.119   8.552  2.6342 -0.1722 -0.4625
  454MOL0     H61278   5.150  10.805   8.391 -0.8859 -1.0840  1.7296
  454MOL0     H61279   5.043  10.928   8.336  3.9730  0.5798 -2.8693
  454MOL0     H61280   5.061  10.872   8.629  0.0642 -2.0452  0.2784
  454MOL0     H61281   4.954  10.765   8.520 -2.0571  0.2795 -1.0578
  454MOL0     H61282   4.854  10.996   8.452 -0.1889 -0.3534 -0.3836
  454MOL0     H61283   4.939  11.057   8.601  2.6268 -1.3783  0.2101
  454MOL0     H61284   4.692  10.952   8.600 -0.8952 -0.3673  3.6925
  454MOL0     H61285   4.789  10.800   8.609 -1.0348  0.9061 -1.3767
  454MOL0     H61286   4.846  11.031   8.987  2.5121 -1.1270 -0.9956
  454MOL0     H61287   5.194  10.981   8.188 -0.6941  0.0063 -1.4184
  454MOL0     H61288   5.320  11.158   7.982  1.4657  1.2594  1.8331
  454MOL0     H61289   5.460  11.050   7.973 -0.2512  4.6071 -2.4448
  454MOL0     H61290   5.293  10.982   8.019  2.7512 -2.6528  1.8846
  455MOL0     O61291   6.355   9.516   1.277 -0.2062  0.9812 -0.2890
  455MOL0     C61292   6.257   9.563   1.345 -0.2650  0.4392 -0.3630
  455MOL0     O61293   6.244   9.687   1.390 -0.3073 -0.0962 -0.6124
  455MOL0     C61294   6.344   9.774   1.363 -0.6206 -0.1850 -0.9358
  455MOL0     C61295   6.367   9.881   1.457  0.4975 -0.3561  0.2981
  455MOL0     C61296   6.447   9.989   1.427 -0.1477 -0.5622 -0.6191
  455MOL0     C61297   6.496  10.007   1.299 -0.8728 -0.3856 -0.1599
  455MOL0     O61298   6.580  10.106   1.250  0.2862  0.6480  0.0266
  455MOL0     C61299   6.574  10.229   1.321 -0.2354 -0.8781 -0.2572
  455MOL0     C61300   6.546  10.340   1.217 -0.6004 -0.0151  0.0642
  455MOL0     C61301   6.578  10.477   1.292 -0.3254  0.3514 -0.4328
  455MOL0     C61302   6.615  10.585   1.182  0.1402  0.2977 -0.1777
  455MOL0     C61303   6.639  10.728   1.252 -0.4243  0.1826  0.3245
  455MOL0     C61304   6.500  10.773   1.314 -0.1115 -0.4788 -0.1490
  455MOL0     C61305   6.527  10.916   1.359 -0.0281 -0.4485  0.1923
  455MOL0     C61306   6.567  10.936   1.512  0.9554  0.1084 -1.0153
  455MOL0     N61307   6.634  11.067   1.525  0.0013 -0.7289  0.2029
  455MOL0     C61308   6.770  11.098   1.522 -0.6688  0.7882  0.2514
  455MOL0     C61309   6.779  11.221   1.559  0.3522 -0.1824 -1.2233
  455MOL0     C61310   6.903  11.313   1.583 -0.4307  0.5465  0.5606
  455MOL0     C61311   7.030  11.237   1.597 -0.3188  1.5049  1.1046
  455MOL0     C61312   7.086  11.179   1.458 -0.0710  1.0598 -0.2984
  455MOL0     C61313   7.159  11.043   1.461  0.1121  1.1237 -0.5280
  455MOL0     O61314   7.057  10.937   1.493  0.0019 -0.2260  0.2678
  455MOL0     C61315   7.077  10.811   1.463  0.5877 -0.2261  0.2634
  455MOL0     C61316   6.973  10.729   1.493  0.6058  1.0111  0.6035
  455MOL0     C61317   6.993  10.583   1.468  0.6237 -0.4329 -0.5069
  455MOL0     C61318   7.106  10.541   1.391  0.2036  0.4941 -0.8980
  455MOL0     C61319   7.133  10.392   1.367 -0.1556  0.1345  0.2523
  455MOL0     O61320   7.020  10.313   1.345  0.7422  0.2611 -0.0104
  455MOL0     C61321   7.026  10.174   1.308 -0.0426 -0.0414  0.2392
  455MOL0     C61322   7.129  10.080   1.348  0.0373 -0.4487  0.2390
  455MOL0     C61323   7.106   9.950   1.318  0.3771 -0.2995  0.1565
  455MOL0     C61324   6.996   9.903   1.244 -0.2971  0.7383 -0.4385
  455MOL0     O61325   7.005   9.768   1.206  0.5672  0.0664 -0.3032
  455MOL0     C61326   6.891   9.721   1.132  0.8728  0.2275  0.0762
  455MOL0     C61327   6.870   9.569   1.144  0.9741  0.0465  1.1974
  455MOL0     C61328   6.725   9.518   1.120  0.2899  0.1035 -0.6014
  455MOL0     C61329   6.714   9.382   1.187  0.0120  0.1210 -0.0902
  455MOL0     C61330   6.591   9.300   1.146  0.0457  0.0492 -0.3372
  455MOL0     C61331   6.551   9.194   1.255  0.6141 -0.2342  0.1320
  455MOL0     C61332   6.472   9.086   1.183 -0.3580 -0.5077 -0.2381
  455MOL0     C61333   6.390   9.004   1.280 -0.3945  0.4136 -0.7731
  455MOL0    Cl61334   6.497   8.883   1.363 -0.0286  0.6863 -0.0558
  455MOL0     C61335   6.900   9.992   1.206 -0.0035  0.3409  0.1489
  455MOL0     C61336   6.918  10.124   1.237  0.1640  0.3129 -0.1352
  455MOL0     O61337   7.252  10.357   1.368  0.3000 -0.0823 -0.3381
  455MOL0     C61338   7.201  10.633   1.347  0.5962  0.4729  0.4005
  455MOL0     C61339   7.181  10.761   1.386 -0.2415 -0.3355 -0.1837
  455MOL0     N61340   6.651  11.278   1.568  0.0681  0.2748 -0.7842
  455MOL0     N61341   6.568  11.178   1.568 -0.6423 -0.7159  0.2600
  455MOL0     C61342   6.480   9.909   1.206  1.0129 -0.6151  0.8441
  455MOL0     C61343   6.422   9.782   1.245  0.3698 -1.3844  0.3448
  455MOL0     C61344   6.146   9.475   1.366  0.7062  0.0250  0.7390
  455MOL0     C61345   6.132   9.364   1.277 -0.8344 -0.4500  0.5776
  455MOL0     C61346   6.024   9.280   1.278  0.8087  0.3531 -0.0387
  455MOL0     C61347   5.924   9.287   1.369  0.8823 -0.0314 -0.0926
  455MOL0     O61348   5.816   9.204   1.365 -0.1982  0.3791 -0.8811
  455MOL0     C61349   5.797   9.097   1.275 -0.0179  0.5516  0.8699
  455MOL0     C61350   5.697   8.991   1.323 -0.9016 -0.3749 -0.5638
  455MOL0     C61351   5.784   8.880   1.397  0.0105 -0.1681  1.9917
  455MOL0     C61352   5.702   8.778   1.473 -0.3397 -0.4986  0.0317
  455MOL0     C61353   5.652   8.839   1.592 -0.1500  0.9587 -0.0130
  455MOL0     C61354   5.624   8.881   1.699  0.6926 -0.1926 -0.7762
  455MOL0     C61355   5.931   9.390   1.464 -0.2662 -0.8093 -0.8267
  455MOL0     C61356   6.039   9.484   1.465  0.3249  0.0881 -0.2376
  455MOL0     C61357   6.036   9.586   1.571  0.0962  0.0165 -0.4101
  455MOL0     H61358   6.320   9.883   1.555  1.8195  0.0725  0.9375
  455MOL0     H61359   6.449  10.065   1.505 -2.8180 -0.9133 -0.1174
  455MOL0     H61360   6.493  10.245   1.393 -1.5768  2.2369 -2.1869
  455MOL0     H61361   6.673  10.243   1.364  1.4290 -0.1517 -3.8963
  455MOL0     H61362   6.444  10.339   1.177 -0.9458  2.1264  0.7606
  455MOL0     H61363   6.613  10.341   1.131  0.5994  0.3338  0.9646
  455MOL0     H61364   6.670  10.473   1.350  1.2820 -0.1750 -2.8739
  455MOL0     H61365   6.486  10.502   1.346  0.5156  2.4538  0.0931
  455MOL0     H61366   6.707  10.543   1.142  0.2530 -0.5232  0.8979
  455MOL0     H61367   6.540  10.607   1.105  0.2127  1.0951 -0.0294
  455MOL0     H61368   6.721  10.714   1.323  1.5283 -2.4039 -2.1976
  455MOL0     H61369   6.666  10.788   1.165 -2.9564  0.0394 -0.6511
  455MOL0     H61370   6.425  10.772   1.235  0.2686 -1.3370 -0.5061
  455MOL0     H61371   6.464  10.708   1.394  4.1527 -0.7534  1.8232
  455MOL0     H61372   6.443  10.982   1.337 -1.9162 -2.1633  1.8248
  455MOL0     H61373   6.610  10.960   1.303 -0.3696  0.4919  0.4057
  455MOL0     H61374   6.487  10.917   1.583  2.7142 -1.7987  0.6011
  455MOL0     H61375   6.645  10.865   1.539  2.0717  1.4606 -0.5573
  455MOL0     H61376   6.855  11.036   1.495  0.5421  1.9205  1.3509
  455MOL0     H61377   6.917  11.390   1.507 -0.8207  0.7363  0.6805
  455MOL0     H61378   6.874  11.355   1.679 -0.0810  0.6222  0.6345
  455MOL0     H61379   7.097  11.313   1.639 -1.9902  2.1146  2.8020
  455MOL0     H61380   7.023  11.157   1.671  2.1350 -0.7020 -0.8484
  455MOL0     H61381   7.159  11.255   1.427  0.7286  2.7168  4.7872
  455MOL0     H61382   7.003  11.170   1.388 -0.0068  0.2063 -0.2805
  455MOL0     H61383   7.246  11.027   1.526  0.5619 -0.9674 -1.5484
  455MOL0     H61384   7.209  11.040   1.364  1.7378  0.6713  0.2882
  455MOL0     H61385   6.882  10.764   1.541  0.3517 -0.1626  1.0086
  455MOL0     H61386   6.923  10.508   1.503  1.5879 -0.6342  1.1093
  455MOL0     H61387   7.211  10.119   1.407 -0.9706  0.9495  0.7743
  455MOL0     H61388   7.186   9.889   1.361  1.5049  1.5260  0.7529
  455MOL0     H61389   6.797   9.757   1.175  0.1175 -0.2777 -1.0665
  455MOL0     H61390   6.900   9.758   1.029 -0.6168 -2.5657 -1.1766
  455MOL0     H61391   6.911   9.525   1.053  0.2802 -0.3422  1.0620
  455MOL0     H61392   6.912   9.514   1.228  0.5218 -3.6478 -0.7990
  455MOL0     H61393   6.651   9.585   1.165 -0.7991 -0.6318 -1.2513
  455MOL0     H61394   6.706   9.500   1.014 -2.5145 -0.9718 -0.0096
  455MOL0     H61395   6.726   9.391   1.296 -2.0814 -2.4700  0.4824
  455MOL0     H61396   6.801   9.328   1.148  1.1642  0.4513  1.8847
  455MOL0     H61397   6.610   9.236   1.059 -1.9291 -1.4065  0.2025
  455MOL0     H61398   6.505   9.365   1.123  0.5469  0.5972 -0.6779
  455MOL0     H61399   6.632   9.151   1.315 -1.5720 -0.0244  3.4863
  455MOL0     H61400   6.484   9.246   1.324 -0.1761 -1.3318  0.2094
  455MOL0     H61401   6.546   9.025   1.129 -1.8708  0.5636 -3.8867
  455MOL0     H61402   6.400   9.139   1.120 -1.1559 -0.0709  1.0109
  455MOL0     H61403   6.339   9.070   1.351  0.3480 -0.5072  0.6498
  455MOL0     H61404   6.322   8.943   1.220  0.0404  0.4209 -1.2807
  455MOL0     H61405   6.802   9.974   1.162  0.0474 -1.2483  0.6214
  455MOL0     H61406   6.829  10.183   1.216 -1.8277 -3.5219 -3.9223
  455MOL0     H61407   7.280  10.605   1.278 -1.1788 -0.1009 -1.4868
  455MOL0     H61408   7.269  10.823   1.368  0.8217 -1.4984  0.8258
  455MOL0     H61409   6.518   9.907   1.105  0.8057  1.6104  0.6919
  455MOL0     H61410   6.404   9.712   1.164 -1.5731  2.7019 -3.2482
  455MOL0     H61411   6.206   9.344   1.200 -1.5012  1.4707 -0.6360
  455MOL0     H61412   6.032   9.199   1.206  1.5795 -0.7373  1.2374
  455MOL0     H61413   5.889   9.039   1.265 -0.8624 -1.4569  3.5860
  455MOL0     H61414   5.762   9.142   1.181 -0.6825 -4.1246 -1.4255
  455MOL0     H61415   5.648   8.937   1.242  1.2179 -1.5397 -1.1671
  455MOL0     H61416   5.627   9.035   1.395 -1.4310 -2.1859  0.0686
  455MOL0     H61417   5.868   8.926   1.451  1.5865 -0.5769  0.0003
  455MOL0     H61418   5.838   8.834   1.314  2.0844  3.1679  1.3267
  455MOL0     H61419   5.624   8.729   1.414 -1.7922  2.4621 -0.6624
  455MOL0     H61420   5.777   8.708   1.510 -0.1763  0.4229  1.5016
  455MOL0     H61421   5.610   8.902   1.803  1.4639 -0.0836 -0.6923
  455MOL0     H61422   5.838   9.413   1.515 -0.1011  2.7895 -1.9108
  455MOL0     H61423   5.989   9.542   1.661  1.4567 -2.3812 -0.7752
  455MOL0     H61424   6.137   9.622   1.595  0.9475 -1.3838 -1.7130
  455MOL0     H61425   5.984   9.679   1.546  0.4495  0.0107 -1.1759
  456MOL0     O61426   8.561   3.340   2.342  0.1492 -0.6962 -0.5329
  456MOL0     C61427   8.524   3.356   2.456 -0.3585 -0.8040  0.7881
  456MOL0     O61428   8.508   3.262   2.546 -0.1148  0.2519 -0.1647
  456MOL0     C61429   8.531   3.132   2.504  0.8682  0.0527  0.6600
  456MOL0     C61430   8.478   3.072   2.384 -0.1005  0.8929  0.7409
  456MOL0     C61431   8.506   2.932   2.354  0.3607 -0.2025  0.9441
  456MOL0     C61432   8.581   2.855   2.433 -0.0934 -1.1361 -0.1587
  456MOL0     O61433   8.622   2.733   2.400 -0.5623 -0.4439 -0.1552
  456MOL0     C61434   8.512   2.648   2.375  0.2184 -0.3515  0.2293
  456MOL0     C61435   8.540   2.506   2.426 -1.2803  0.7001 -0.7640
  456MOL0     C61436   8.432   2.411   2.372 -0.6992 -0.7015  0.2597
  456MOL0     C61437   8.310   2.418   2.457 -0.3188  0.3677 -0.3696
  456MOL0     C61438   8.202   2.335   2.381  0.7099 -0.4581 -0.4895
  456MOL0     C61439   8.067   2.344   2.454 -0.8661  0.5961  0.5560
  456MOL0     C61440   7.951   2.276   2.389  0.2682 -0.4038  0.9039
  456MOL0     C61441   7.831   2.365   2.369  0.4406  0.1745  0.4955
  456MOL0     N61442   7.711   2.290   2.325  0.0179 -0.0317 -0.2842
  456MOL0     C61443   7.619   2.232   2.403  0.3759  0.2834 -0.7432
  456MOL0     C61444   7.521   2.197   2.315 -0.5437 -0.5339  0.7813
  456MOL0     C61445   7.395   2.130   2.355 -0.2465 -0.3383  0.4793
  456MOL0     C61446   7.279   2.226   2.394 -0.4354 -1.0131 -0.6306
  456MOL0     C61447   7.152   2.155   2.417 -0.1694  0.3130  0.3595
  456MOL0     C61448   7.139   2.070   2.538 -0.5464  0.3489 -0.2617
  456MOL0     O61449   7.147   2.149   2.658  0.1159 -0.0064  0.2930
  456MOL0     C61450   7.074   2.109   2.766 -0.2499  0.7417 -0.1745
  456MOL0     C61451   7.046   2.204   2.860 -0.5806  0.1331 -0.3602
  456MOL0     C61452   6.976   2.176   2.971  0.0491 -0.6589  0.0509
  456MOL0     C61453   6.923   2.048   3.002 -0.4331  0.7597  0.1723
  456MOL0     C61454   6.840   2.026   3.119  0.0781  0.1919  0.4537
  456MOL0     O61455   6.852   2.109   3.226  0.1206 -0.0691 -0.2691
  456MOL0     C61456   6.761   2.103   3.329 -0.6308  0.0923 -0.4993
  456MOL0     C61457   6.706   2.226   3.367 -0.8812  0.0810  0.2564
  456MOL0     C61458   6.600   2.234   3.451 -0.2924 -1.0440  0.1175
  456MOL0     C61459   6.550   2.113   3.519 -0.2506 -0.1960 -0.6052
  456MOL0     O61460   6.444   2.130   3.610 -0.2459  0.3198 -0.0346
  456MOL0     C61461   6.440   2.035   3.724 -0.1540  0.0212 -0.5883
  456MOL0     C61462   6.344   2.089   3.829  0.8061 -0.7828  1.0102
  456MOL0     C61463   6.371   2.026   3.970  0.4798  0.8614 -0.0050
  456MOL0     C61464   6.252   2.037   4.068 -0.0119 -0.0532 -0.9054
  456MOL0     C61465   6.286   1.964   4.201  0.0495  0.0987  0.7572
  456MOL0     C61466   6.150   1.936   4.279 -0.5929 -0.4057  0.2483
  456MOL0     C61467   6.078   2.057   4.348 -0.0080  0.4203  0.3275
  456MOL0     C61468   6.014   2.006   4.473  0.7708  0.4888 -0.2370
  456MOL0    Cl61469   5.879   2.126   4.511  0.1414  0.5413 -0.1758
  456MOL0     C61470   6.620   1.994   3.495  0.4372 -0.4423 -1.2622
  456MOL0     C61471   6.728   1.989   3.405 -1.0267  0.0301 -0.3898
  456MOL0     O61472   6.761   1.930   3.117  0.3777 -0.5095 -0.8182
  456MOL0     C61473   6.955   1.944   2.905  0.1978 -0.5986  0.0296
  456MOL0     C61474   7.021   1.980   2.788 -0.1364  0.1716  0.2354
  456MOL0     N61475   7.561   2.224   2.188  0.1240  0.1140  0.4672
  456MOL0     N61476   7.672   2.286   2.196  0.4862  0.3014 -0.8229
  456MOL0     C61477   8.637   2.912   2.541  0.8516  0.3551  0.1094
  456MOL0     C61478   8.611   3.044   2.583 -0.2505 -0.0189  0.3469
  456MOL0     C61479   8.548   3.493   2.496 -0.0368  0.1596  0.3947
  456MOL0     C61480   8.526   3.513   2.632 -0.2056 -0.1747  0.3421
  456MOL0     C61481   8.550   3.639   2.695  0.1987 -0.7005 -0.3685
  456MOL0     C61482   8.567   3.750   2.610 -0.0347  0.9416 -0.3252
  456MOL0     O61483   8.563   3.882   2.663  0.4432 -0.3216  0.0921
  456MOL0     C61484   8.688   3.932   2.703  0.5308 -0.1350 -0.2600
  456MOL0     C61485   8.687   4.080   2.728 -0.2921  0.1987  0.4380
  456MOL0     C61486   8.815   4.131   2.801 -0.2412  0.1771  0.1357
  456MOL0     C61487   8.784   4.267   2.877 -0.3419 -0.3504 -0.5427
  456MOL0     C61488   8.900   4.316   2.953  0.0890 -0.8135 -0.2110
  456MOL0     C61489   8.998   4.348   3.026  0.6677 -0.1432 -0.1658
  456MOL0     C61490   8.585   3.732   2.474 -0.8569  0.3352  0.5773
  456MOL0     C61491   8.586   3.606   2.415 -0.6047 -0.0362  0.3535
  456MOL0     C61492   8.601   3.597   2.265 -0.3274 -0.4433 -0.4166
  456MOL0     H61493   8.425   3.127   2.308  2.0912  3.4636  0.9093
  456MOL0     H61494   8.482   2.880   2.262 -2.2232 -3.0345  3.0049
  456MOL0     H61495   8.420   2.684   2.424 -0.1457  0.3889 -0.9645
  456MOL0     H61496   8.496   2.646   2.267  0.9307 -0.0068  0.1143
  456MOL0     H61497   8.535   2.506   2.535 -1.5981  0.5749 -0.7766
  456MOL0     H61498   8.634   2.459   2.397 -2.1776 -2.0154  0.3892
  456MOL0     H61499   8.460   2.306   2.359  1.2930 -0.0303 -1.3470
  456MOL0     H61500   8.395   2.453   2.278  2.7580 -0.9649 -1.3380
  456MOL0     H61501   8.321   2.379   2.558  0.4272  1.8332  0.1561
  456MOL0     H61502   8.293   2.525   2.474  2.6306  0.5515  2.4280
  456MOL0     H61503   8.179   2.377   2.283 -0.3447 -0.2600 -0.1692
  456MOL0     H61504   8.232   2.229   2.377  1.2912 -0.3345  0.3827
  456MOL0     H61505   8.085   2.311   2.557  1.7088 -1.1748 -0.3559
  456MOL0     H61506   8.043   2.450   2.465 -0.1694  0.8192 -0.0124
  456MOL0     H61507   7.912   2.186   2.437 -0.8674  1.4503  3.7514
  456MOL0     H61508   7.985   2.243   2.290 -1.1783 -1.0673  0.5994
  456MOL0     H61509   7.803   2.437   2.447 -1.2014  0.0262  0.0896
  456MOL0     H61510   7.860   2.434   2.289  2.2547 -1.5875 -0.4546
  456MOL0     H61511   7.624   2.230   2.511  1.2365  0.3442 -0.7763
  456MOL0     H61512   7.363   2.075   2.266 -0.2553  1.2056 -0.5005
  456MOL0     H61513   7.419   2.067   2.442  1.1188 -0.5229 -0.0052
  456MOL0     H61514   7.299   2.290   2.480 -2.7433 -4.9894  3.2841
  456MOL0     H61515   7.264   2.289   2.306 -0.0204 -1.1997 -0.8391
  456MOL0     H61516   7.141   2.082   2.335 -3.1471  1.8873 -0.7964
  456MOL0     H61517   7.063   2.217   2.405 -0.4758  0.1420  1.6430
  456MOL0     H61518   7.217   1.993   2.535 -0.4310  0.3202  1.7457
  456MOL0     H61519   7.047   2.011   2.545  0.7747 -1.7775  0.2759
  456MOL0     H61520   7.092   2.302   2.852  2.0106 -1.0126 -0.2857
  456MOL0     H61521   6.952   2.256   3.040 -2.8589 -1.1676 -0.2279
  456MOL0     H61522   6.748   2.313   3.318 -1.8291 -0.8740 -2.4483
  456MOL0     H61523   6.561   2.334   3.470  0.3541 -0.7210 -0.2169
  456MOL0     H61524   6.395   1.944   3.685 -0.5349 -0.0782  0.0785
  456MOL0     H61525   6.537   2.007   3.766 -1.0613 -2.4507  0.0141
  456MOL0     H61526   6.330   2.198   3.831 -1.7410 -0.9232 -1.8687
  456MOL0     H61527   6.249   2.052   3.789  1.9209 -3.1661  0.4443
  456MOL0     H61528   6.398   1.922   3.947  0.1294  0.7780 -0.0460
  456MOL0     H61529   6.465   2.068   4.008  0.9784  0.2612 -0.5381
  456MOL0     H61530   6.177   1.971   4.023 -0.7478 -0.1742  0.4391
  456MOL0     H61531   6.216   2.140   4.082 -0.8041 -0.4063 -0.2208
  456MOL0     H61532   6.363   2.011   4.263 -0.1262 -2.0146  2.7287
  456MOL0     H61533   6.327   1.867   4.171  0.2273  0.7552 -1.2692
  456MOL0     H61534   6.077   1.882   4.218  0.6423 -0.4500 -1.2306
  456MOL0     H61535   6.170   1.858   4.354 -0.2126 -1.2525 -0.7049
  456MOL0     H61536   5.992   2.092   4.290 -0.7666  1.2539  1.8773
  456MOL0     H61537   6.146   2.140   4.371  1.3082 -1.1196  2.4481
  456MOL0     H61538   5.969   1.907   4.465 -2.5447  1.7163  1.4978
  456MOL0     H61539   6.087   2.009   4.555  0.8634  1.5634 -0.3438
  456MOL0     H61540   6.591   1.906   3.551 -0.0982  0.3386 -0.2765
  456MOL0     H61541   6.776   1.896   3.376  1.9715  1.9490 -2.0398
  456MOL0     H61542   6.921   1.842   2.919 -1.8182 -0.1505 -1.1434
  456MOL0     H61543   7.039   1.902   2.714  1.8571  2.8843 -2.3733
  456MOL0     H61544   8.688   2.840   2.606 -2.4508 -4.7316 -2.2716
  456MOL0     H61545   8.649   3.083   2.676  1.6999 -0.2236 -0.3192
  456MOL0     H61546   8.496   3.426   2.690  1.4514  1.2003  3.5622
  456MOL0     H61547   8.537   3.654   2.802  0.5089  0.1182 -0.4356
  456MOL0     H61548   8.753   3.909   2.617  0.4748  1.2768 -0.7020
  456MOL0     H61549   8.720   3.870   2.787 -0.7951 -2.1443 -1.1424
  456MOL0     H61550   8.599   4.107   2.785  0.7928  0.7569  1.9045
  456MOL0     H61551   8.674   4.130   2.632  1.8106 -1.1456 -0.6407
  456MOL0     H61552   8.895   4.145   2.727 -1.3645 -0.6815 -1.2920
  456MOL0     H61553   8.853   4.069   2.882 -2.7916 -0.0950  1.2052
  456MOL0     H61554   8.758   4.345   2.805  1.1480 -0.1303 -0.8690
  456MOL0     H61555   8.702   4.251   2.948  0.1273 -2.6939 -0.4372
  456MOL0     H61556   9.074   4.386   3.091  0.6569  1.2050 -0.9109
  456MOL0     H61557   8.604   3.822   2.416 -2.2478 -1.5549 -3.0729
  456MOL0     H61558   8.644   3.691   2.229  2.1535 -0.9953  0.8663
  456MOL0     H61559   8.658   3.512   2.226 -1.6231 -1.0018 -1.1493
  456MOL0     H61560   8.501   3.586   2.222 -1.5274  0.6232  1.8858
  457MOL0     O61561   0.455   6.275   0.893 -0.3976  0.0268 -0.2960
  457MOL0     C61562   0.462   6.339   0.998  0.8966  0.2843  0.5665
  457MOL0     O61563   0.420   6.293   1.121  0.2664  0.1344 -0.3494
  457MOL0     C61564   0.460   6.159   1.140  0.6046  0.2506 -1.0265
  457MOL0     C61565   0.383   6.050   1.095 -0.3466 -0.1448 -0.7107
  457MOL0     C61566   0.423   5.914   1.114  0.2072  0.7564 -0.3396
  457MOL0     C61567   0.548   5.890   1.171 -1.0120 -0.1943 -0.5126
  457MOL0     O61568   0.609   5.764   1.176  0.0596 -0.1647  0.4219
  457MOL0     C61569   0.674   5.731   1.056  0.4827 -0.8722  0.6296
  457MOL0     C61570   0.745   5.601   1.072  0.7658  0.0202  0.1463
  457MOL0     C61571   0.886   5.629   1.132  0.3661  1.3618 -0.3290
  457MOL0     C61572   0.879   5.675   1.284  0.8382 -0.6933 -0.2779
  457MOL0     C61573   1.022   5.706   1.324  0.5390  0.4143 -0.7138
  457MOL0     C61574   1.046   5.777   1.458 -0.5253 -0.8911 -0.2822
  457MOL0     C61575   0.974   5.916   1.466 -0.0731 -0.3041 -0.1173
  457MOL0     C61576   1.079   6.029   1.459 -0.2338 -0.6876  0.0117
  457MOL0     N61577   1.033   6.153   1.396 -0.4377  0.0704  0.6248
  457MOL0     C61578   1.125   6.246   1.361 -0.3200  0.9695 -0.5315
  457MOL0     C61579   1.055   6.321   1.273  1.0019  0.6148  0.9981
  457MOL0     C61580   1.106   6.447   1.207 -0.3830 -0.9473  1.5161
  457MOL0     C61581   1.098   6.578   1.291  0.5830 -0.3764  0.0222
  457MOL0     C61582   0.950   6.607   1.307 -1.0252 -1.3198 -0.1634
  457MOL0     C61583   0.937   6.738   1.387 -0.5461  0.8237 -0.3083
  457MOL0     O61584   0.805   6.783   1.368  0.3461  0.0743  0.3927
  457MOL0     C61585   0.725   6.737   1.461  0.3283 -0.5772  0.2987
  457MOL0     C61586   0.670   6.605   1.457  0.7780 -0.5133  0.7419
  457MOL0     C61587   0.591   6.558   1.553 -0.1518  0.0536  0.8479
  457MOL0     C61588   0.551   6.643   1.653  0.5552  0.8300  0.1818
  457MOL0     C61589   0.445   6.591   1.746 -0.0980  0.1226  0.4248
  457MOL0     O61590   0.408   6.679   1.841  0.1444  0.3055 -0.1050
  457MOL0     C61591   0.300   6.642   1.924  0.3826 -1.1501 -0.3443
  457MOL0     C61592   0.327   6.641   2.060 -0.0243 -0.8526 -0.0115
  457MOL0     C61593   0.219   6.629   2.152  0.0815 -0.2477  0.0605
  457MOL0     C61594   0.083   6.625   2.112 -1.0608  0.3232 -0.5658
  457MOL0     O61595  -0.027   6.619   2.191  0.3012 -0.1423  0.3918
  457MOL0     C61596  -0.023   6.545   2.309 -0.3330  0.7018 -0.4400
  457MOL0     C61597  -0.148   6.453   2.291  0.2443  0.3793 -0.2629
  457MOL0     C61598  -0.284   6.522   2.300 -0.7275  0.6175  0.0279
  457MOL0     C61599  -0.398   6.442   2.239 -1.1157  0.0363  0.4382
  457MOL0     C61600  -0.396   6.427   2.080 -1.1981  1.1245  0.5986
  457MOL0     C61601  -0.380   6.556   2.001 -1.2182  0.2457 -0.2518
  457MOL0     C61602  -0.382   6.527   1.844  0.4918 -0.7124 -1.4006
  457MOL0     C61603  -0.521   6.516   1.791  0.8957  0.1032  0.4261
  457MOL0    Cl61604  -0.527   6.373   1.695 -0.6415 -0.3624  0.2568
  457MOL0     C61605   0.063   6.652   1.976  0.1765  0.0206  0.0226
  457MOL0     C61606   0.168   6.651   1.886  0.2912 -0.1129 -0.8235
  457MOL0     O61607   0.398   6.482   1.730  0.4703  0.5369  0.1465
  457MOL0     C61608   0.605   6.767   1.664 -0.2967 -0.5225  0.5218
  457MOL0     C61609   0.688   6.821   1.565 -0.0948  0.5430 -0.2867
  457MOL0     N61610   0.926   6.278   1.258  0.4174  0.2418 -0.2357
  457MOL0     N61611   0.910   6.179   1.341 -0.7291 -0.0507 -0.2592
  457MOL0     C61612   0.628   6.001   1.211  0.8090 -0.1362  0.9875
  457MOL0     C61613   0.570   6.129   1.217 -0.0916 -0.6968 -0.1895
  457MOL0     C61614   0.535   6.465   0.990 -0.1863  0.4680  1.2494
  457MOL0     C61615   0.639   6.478   0.895  0.1117  0.0497 -0.2619
  457MOL0     C61616   0.705   6.600   0.883  0.3067  0.4755 -0.2500
  457MOL0     C61617   0.657   6.710   0.952  0.0322  0.9381  0.2529
  457MOL0     O61618   0.725   6.826   0.935  0.0829  0.6368  1.3112
  457MOL0     C61619   0.694   6.944   1.018  0.5107  0.5161  0.6156
  457MOL0     C61620   0.781   7.074   1.007 -0.4847 -0.1212  1.0412
  457MOL0     C61621   0.923   7.038   0.968  0.7051  0.2903  0.1826
  457MOL0     C61622   0.984   6.948   1.078  0.1522  0.1732  0.6239
  457MOL0     C61623   1.137   6.947   1.083 -0.0231 -0.6156  0.5320
  457MOL0     C61624   1.262   6.947   1.082  0.1807  0.1111 -0.1842
  457MOL0     C61625   0.547   6.698   1.043 -0.2948  1.3774 -0.5130
  457MOL0     C61626   0.486   6.573   1.064 -0.1735  1.1647 -0.1923
  457MOL0     C61627   0.364   6.576   1.162  0.0669 -0.0834 -0.4060
  457MOL0     H61628   0.292   6.069   1.039  0.2609  2.5255 -0.9047
  457MOL0     H61629   0.354   5.832   1.096  1.4088 -0.1245 -1.0709
  457MOL0     H61630   0.599   5.722   0.977 -2.5050  1.9395  2.8545
  457MOL0     H61631   0.747   5.803   1.015 -2.9317  2.7214  0.2324
  457MOL0     H61632   0.762   5.544   0.980 -3.1595  0.8856 -1.2882
  457MOL0     H61633   0.682   5.538   1.135 -0.2301  1.0598  0.2134
  457MOL0     H61634   0.944   5.687   1.059  2.8114 -0.2456  0.2163
  457MOL0     H61635   0.946   5.538   1.126  0.5368  1.4522 -0.0346
  457MOL0     H61636   0.807   5.753   1.310  0.4996 -1.0607 -0.0874
  457MOL0     H61637   0.835   5.588   1.333 -2.5090  0.9809  0.0088
  457MOL0     H61638   1.096   5.625   1.315  0.9658  0.8842 -1.5319
  457MOL0     H61639   1.054   5.782   1.252  2.3235  0.2978 -0.1133
  457MOL0     H61640   1.008   5.713   1.538 -2.1824  0.0467 -0.2710
  457MOL0     H61641   1.153   5.795   1.473 -0.6777 -0.2121  0.0231
  457MOL0     H61642   0.923   5.921   1.563 -0.6471 -3.3441 -0.1606
  457MOL0     H61643   0.897   5.920   1.389  0.1616 -3.4111 -0.6561
  457MOL0     H61644   1.113   6.048   1.561 -0.2130  0.5874 -0.2141
  457MOL0     H61645   1.163   5.984   1.404  1.5892 -0.3009  2.3008
  457MOL0     H61646   1.225   6.268   1.398  0.3927  0.4312 -2.0407
  457MOL0     H61647   1.208   6.427   1.174  0.4134  0.7346  2.7888
  457MOL0     H61648   1.046   6.459   1.116  0.5640 -0.6468  0.9212
  457MOL0     H61649   1.125   6.547   1.392  0.0600  1.8394  0.9067
  457MOL0     H61650   1.163   6.660   1.258  1.0976  0.6091  3.1969
  457MOL0     H61651   0.897   6.524   1.355 -2.8116 -0.3574 -0.3560
  457MOL0     H61652   0.898   6.624   1.212 -1.3012  1.1103  0.3325
  457MOL0     H61653   1.007   6.813   1.351  1.4818  0.4590  2.5501
  457MOL0     H61654   0.957   6.727   1.494  2.6941  0.8660 -0.8359
  457MOL0     H61655   0.707   6.532   1.384  1.9448 -2.3392  3.0272
  457MOL0     H61656   0.558   6.455   1.544  0.0500  0.0173  0.5122
  457MOL0     H61657   0.421   6.659   2.111 -1.6231  1.5139  2.3444
  457MOL0     H61658   0.242   6.615   2.257 -0.5030 -0.7594  0.1218
  457MOL0     H61659   0.064   6.478   2.313 -1.5556 -0.8770  1.7100
  457MOL0     H61660  -0.030   6.606   2.399  3.4768  0.9498 -0.1419
  457MOL0     H61661  -0.142   6.417   2.188  0.8132  3.1658 -1.3179
  457MOL0     H61662  -0.145   6.365   2.355 -0.4719 -0.2077 -1.0211
  457MOL0     H61663  -0.310   6.532   2.406 -0.6451 -1.3823  0.2768
  457MOL0     H61664  -0.279   6.618   2.248  0.1466  1.3666  1.4460
  457MOL0     H61665  -0.497   6.487   2.252 -1.6568 -0.5181 -1.4141
  457MOL0     H61666  -0.401   6.343   2.285  1.8825 -0.7038 -0.6790
  457MOL0     H61667  -0.490   6.373   2.061  2.0011 -4.4223 -1.7445
  457MOL0     H61668  -0.314   6.356   2.066 -2.0793 -0.0295  1.0836
  457MOL0     H61669  -0.469   6.615   2.025 -0.8717  0.6190  0.1292
  457MOL0     H61670  -0.286   6.600   2.036 -2.2615  1.9768  0.5124
  457MOL0     H61671  -0.327   6.434   1.823  3.6445  0.6445  0.1795
  457MOL0     H61672  -0.344   6.610   1.784  0.8118 -0.6202 -1.0736
  457MOL0     H61673  -0.594   6.499   1.870 -0.5040  0.3279 -0.7790
  457MOL0     H61674  -0.545   6.603   1.730 -1.3028 -0.7164  0.0500
  457MOL0     H61675  -0.037   6.642   1.935  1.1337 -4.8136 -1.8229
  457MOL0     H61676   0.152   6.650   1.779 -0.8260 -3.7341 -0.7595
  457MOL0     H61677   0.584   6.832   1.749 -2.3653  0.5903 -0.7821
  457MOL0     H61678   0.735   6.918   1.577 -0.6020  0.6171  1.2802
  457MOL0     H61679   0.719   5.976   1.264 -0.9776 -2.0084  3.4044
  457MOL0     H61680   0.632   6.215   1.241  0.1342  0.0671 -3.1325
  457MOL0     H61681   0.676   6.394   0.837  1.8084 -1.2443  2.4890
  457MOL0     H61682   0.792   6.614   0.820  0.3317  0.1602 -0.2853
  457MOL0     H61683   0.694   6.912   1.122  4.0749 -0.9208  0.3358
  457MOL0     H61684   0.590   6.972   1.000  0.7046  1.7193  1.2414
  457MOL0     H61685   0.782   7.136   1.096 -0.1796 -1.5761  2.0955
  457MOL0     H61686   0.733   7.130   0.926 -0.3642 -2.3056 -0.6677
  457MOL0     H61687   0.982   7.130   0.970 -1.2786  1.6566  3.2980
  457MOL0     H61688   0.947   7.006   0.866  1.2225 -0.3247  0.4853
  457MOL0     H61689   0.962   6.973   1.182 -0.0171 -0.4877  0.7558
  457MOL0     H61690   0.949   6.844   1.076  1.2259 -0.2204  1.3439
  457MOL0     H61691   1.368   6.949   1.097 -0.0674 -0.1704  1.9107
  457MOL0     H61692   0.520   6.789   1.096  2.1388  1.8508  0.0374
  457MOL0     H61693   0.366   6.498   1.239  3.0341 -1.5316 -1.7923
  457MOL0     H61694   0.366   6.672   1.214  2.3775  0.0052 -0.5608
  457MOL0     H61695   0.277   6.568   1.095  0.4429 -0.1097 -0.8998
  458MOL0     O61696   3.271   6.516   2.124 -0.5494  0.0009  1.3014
  458MOL0     C61697   3.230   6.520   2.234  0.1616  0.0528  0.1770
  458MOL0     O61698   3.119   6.593   2.274 -0.0674  0.2363  0.4822
  458MOL0     C61699   3.051   6.662   2.180 -0.5749 -0.3898  0.0925
  458MOL0     C61700   3.051   6.794   2.198  1.1679 -0.3717 -0.5530
  458MOL0     C61701   2.990   6.874   2.102 -0.2853  0.3842  0.3713
  458MOL0     C61702   2.945   6.820   1.985  0.2978  0.3716  0.4731
  458MOL0     O61703   2.879   6.875   1.876  0.8890 -0.4941  0.4128
  458MOL0     C61704   2.853   7.017   1.888 -0.4875 -0.0319 -0.3000
  458MOL0     C61705   2.804   7.089   1.760 -0.8050 -0.3071  1.6395
  458MOL0     C61706   2.789   7.234   1.788 -0.7412  0.5492  0.2400
  458MOL0     C61707   2.699   7.292   1.681  0.3223 -0.5160  0.3271
  458MOL0     C61708   2.708   7.442   1.666 -0.0989 -0.5932 -1.0305
  458MOL0     C61709   2.594   7.486   1.562  0.4647  0.2917  0.8294
  458MOL0     C61710   2.622   7.632   1.520  0.4691 -0.4200 -0.3973
  458MOL0     C61711   2.734   7.653   1.421  0.1118 -0.4733  0.0693
  458MOL0     N61712   2.761   7.802   1.441  0.1704  0.2145  0.2889
  458MOL0     C61713   2.888   7.855   1.426 -0.3506  0.4670 -0.9379
  458MOL0     C61714   2.867   7.990   1.418  0.4636 -0.6720  0.6829
  458MOL0     C61715   2.979   8.071   1.403 -0.4247 -0.1471 -0.9146
  458MOL0     C61716   3.018   8.092   1.253  1.0092  0.6129 -0.2845
  458MOL0     C61717   3.129   8.182   1.229  0.2695  0.3666  0.0913
  458MOL0     C61718   3.137   8.228   1.085 -0.3943  0.3284 -0.0609
  458MOL0     O61719   3.010   8.273   1.035 -0.6947  0.3679  0.7871
  458MOL0     C61720   2.978   8.403   1.041  0.6049  0.2604 -0.2053
  458MOL0     C61721   2.862   8.429   0.968  0.4830 -0.3517  0.8890
  458MOL0     C61722   2.821   8.560   0.949 -0.0646  0.6823  0.6698
  458MOL0     C61723   2.880   8.663   1.029  0.4785  0.5143  0.0836
  458MOL0     C61724   2.837   8.807   1.029  0.3408  1.6321  0.1991
  458MOL0     O61725   2.753   8.834   0.919 -0.3115 -0.1280 -0.5222
  458MOL0     C61726   2.702   8.960   0.893  0.4356 -0.0012  0.4909
  458MOL0     C61727   2.562   8.996   0.902  0.1212  0.3569 -0.2134
  458MOL0     C61728   2.506   9.115   0.854 -0.4173 -1.4161  0.8411
  458MOL0     C61729   2.590   9.204   0.792  0.0852 -0.2344  1.0031
  458MOL0     O61730   2.556   9.325   0.731 -0.4080 -0.5593  0.4431
  458MOL0     C61731   2.432   9.390   0.778  1.1149  0.6359 -0.9994
  458MOL0     C61732   2.411   9.525   0.700  0.2772  0.4705  0.5464
  458MOL0     C61733   2.522   9.627   0.714 -0.0459  0.3933  0.1441
  458MOL0     C61734   2.512   9.705   0.857  0.8085 -0.0537 -0.6612
  458MOL0     C61735   2.374   9.766   0.896  0.5971 -0.0774  0.5385
  458MOL0     C61736   2.319   9.865   0.793 -0.7386 -0.6055 -0.9868
  458MOL0     C61737   2.192   9.940   0.852 -0.6352  0.1492  0.5736
  458MOL0     C61738   2.224  10.070   0.898 -0.0336 -0.0181 -0.0146
  458MOL0    Cl61739   2.391  10.089   0.955  0.0820  0.0630  0.0240
  458MOL0     C61740   2.727   9.171   0.775  0.6731  0.1431  0.0675
  458MOL0     C61741   2.779   9.056   0.833  1.0288 -0.3756  1.0037
  458MOL0     O61742   2.880   8.894   1.105 -1.2780  0.4918  0.1610
  458MOL0     C61743   2.985   8.629   1.109  0.4408 -0.1509 -0.3953
  458MOL0     C61744   3.038   8.499   1.120 -0.1296  0.0859 -0.7524
  458MOL0     N61745   2.725   8.021   1.424  0.1033  0.0230  0.2221
  458MOL0     N61746   2.673   7.907   1.444 -0.9221 -0.2619 -0.0785
  458MOL0     C61747   2.947   6.679   1.973 -0.3359  1.0909  0.6833
  458MOL0     C61748   2.998   6.600   2.072 -0.0126 -0.2978  0.7670
  458MOL0     C61749   3.305   6.427   2.323 -0.7000  0.7316 -0.4912
  458MOL0     C61750   3.440   6.386   2.303 -0.1386 -0.4318  0.0666
  458MOL0     C61751   3.516   6.288   2.349  0.1212 -0.1473  0.7537
  458MOL0     C61752   3.458   6.213   2.450 -0.4617  0.4797  0.1423
  458MOL0     O61753   3.535   6.122   2.516 -0.4902  0.5670 -0.1743
  458MOL0     C61754   3.616   6.036   2.436 -0.3513 -0.5696 -0.1552
  458MOL0     C61755   3.604   5.891   2.458  0.2768  0.7960  0.1933
  458MOL0     C61756   3.615   5.842   2.604  0.7819 -0.2121  0.4931
  458MOL0     C61757   3.632   5.687   2.612  0.4327 -0.0208 -0.4597
  458MOL0     C61758   3.514   5.618   2.544 -0.6061  0.7943  0.0707
  458MOL0     C61759   3.434   5.578   2.465 -0.0698 -0.0735 -0.1486
  458MOL0     C61760   3.330   6.249   2.494  0.3490 -0.2643  0.4630
  458MOL0     C61761   3.247   6.352   2.429 -0.5939 -0.0661 -0.8884
  458MOL0     C61762   3.103   6.354   2.483 -0.0135 -0.3175  0.4258
  458MOL0     H61763   3.099   6.839   2.285 -0.0702 -3.7670  2.1087
  458MOL0     H61764   2.981   6.978   2.132  2.1822  0.4766  0.9474
  458MOL0     H61765   2.775   7.017   1.964  0.4717  1.1026  0.7530
  458MOL0     H61766   2.946   7.071   1.912 -0.9242  0.8516 -0.5319
  458MOL0     H61767   2.711   7.038   1.735 -0.1340 -1.5481  1.5905
  458MOL0     H61768   2.883   7.075   1.686  0.6487  1.8029  2.6904
  458MOL0     H61769   2.887   7.283   1.786 -1.8535  2.9064 -0.4117
  458MOL0     H61770   2.753   7.245   1.891 -2.6663 -0.2762 -0.3097
  458MOL0     H61771   2.727   7.236   1.591 -0.7566 -3.0151  1.4371
  458MOL0     H61772   2.597   7.255   1.692  0.2797 -0.8442 -1.0098
  458MOL0     H61773   2.689   7.490   1.763 -1.2582 -0.6157 -1.2318
  458MOL0     H61774   2.806   7.469   1.625 -0.6617 -1.1612 -2.8218
  458MOL0     H61775   2.585   7.419   1.476 -1.9688  1.9498 -0.3181
  458MOL0     H61776   2.498   7.475   1.613 -1.0356  4.2222 -0.7345
  458MOL0     H61777   2.641   7.689   1.611  1.6337 -0.0244 -0.8756
  458MOL0     H61778   2.528   7.674   1.483 -0.4869  0.4929  2.7659
  458MOL0     H61779   2.817   7.583   1.436  0.7255  0.4639  1.2682
  458MOL0     H61780   2.711   7.630   1.317 -0.0507 -2.6114  0.5238
  458MOL0     H61781   2.983   7.802   1.428  0.6741  2.2136 -1.3241
  458MOL0     H61782   2.958   8.156   1.468 -3.0003  0.0729 -1.8913
  458MOL0     H61783   3.067   8.023   1.447 -1.7022  1.5205  4.1848
  458MOL0     H61784   3.040   7.994   1.210 -1.6720  0.2381 -0.9977
  458MOL0     H61785   2.927   8.133   1.208 -0.6444 -1.7715  0.6506
  458MOL0     H61786   3.223   8.135   1.258  1.7133  0.2817 -4.0387
  458MOL0     H61787   3.123   8.255   1.310 -1.2273 -2.6647  2.9303
  458MOL0     H61788   3.161   8.140   1.023 -0.4988  1.2531 -1.4507
  458MOL0     H61789   3.222   8.296   1.085 -0.5548  0.5285 -0.0203
  458MOL0     H61790   2.808   8.359   0.905  0.5838  1.2796 -1.1068
  458MOL0     H61791   2.738   8.577   0.881 -1.6087 -2.2195  1.6611
  458MOL0     H61792   2.495   8.925   0.950 -0.3238  0.5362 -0.5629
  458MOL0     H61793   2.405   9.142   0.884  0.4682  1.0703  1.9402
  458MOL0     H61794   2.343   9.327   0.765  0.2058  1.6375  0.1033
  458MOL0     H61795   2.450   9.417   0.883  0.1241 -1.9552 -0.0607
  458MOL0     H61796   2.416   9.505   0.593 -0.6421  3.9926 -0.2947
  458MOL0     H61797   2.314   9.574   0.717  0.3063  1.0750 -0.8695
  458MOL0     H61798   2.626   9.592   0.708 -0.5127 -1.4919  1.8260
  458MOL0     H61799   2.496   9.701   0.638  0.4374 -0.9860 -1.4142
  458MOL0     H61800   2.574   9.795   0.850  2.4946 -1.2135 -1.2744
  458MOL0     H61801   2.541   9.639   0.939  4.6257  1.6944 -0.4013
  458MOL0     H61802   2.391   9.825   0.987 -1.9790 -0.0384  1.0624
  458MOL0     H61803   2.305   9.688   0.928 -0.4183 -0.3745 -2.1578
  458MOL0     H61804   2.399   9.932   0.762  0.8843 -1.1093  1.7786
  458MOL0     H61805   2.288   9.813   0.701  3.5563 -4.1732 -0.7858
  458MOL0     H61806   2.154   9.880   0.934  2.2310 -0.9419  1.2148
  458MOL0     H61807   2.122   9.956   0.769 -2.3951 -1.4200  1.6881
  458MOL0     H61808   2.202  10.136   0.814  0.4940 -0.2836 -0.3646
  458MOL0     H61809   2.154  10.096   0.978 -0.2934  0.0350 -0.2552
  458MOL0     H61810   2.798   9.238   0.726 -0.9921  1.9341 -0.0331
  458MOL0     H61811   2.885   9.037   0.824  0.6565 -3.7918  2.5753
  458MOL0     H61812   3.031   8.696   1.182  0.4972 -2.0750  1.4429
  458MOL0     H61813   3.123   8.469   1.180 -0.2316 -1.7652 -1.4770
  458MOL0     H61814   2.901   6.635   1.885 -1.2095  1.8988  0.7221
  458MOL0     H61815   3.011   6.494   2.049  0.2330 -0.2608  0.7288
  458MOL0     H61816   3.492   6.441   2.225 -1.6592  0.9946  0.0162
  458MOL0     H61817   3.617   6.272   2.314 -0.5604 -0.4979 -1.1554
  458MOL0     H61818   3.714   6.066   2.475  0.2263 -1.2269 -1.0595
  458MOL0     H61819   3.621   6.053   2.328 -0.2782  1.5698  0.1392
  458MOL0     H61820   3.683   5.849   2.395  0.1347  1.3701 -0.3761
  458MOL0     H61821   3.509   5.854   2.418  0.9405 -1.3514  0.4543
  458MOL0     H61822   3.521   5.864   2.654 -0.1598 -4.6163  1.0791
  458MOL0     H61823   3.695   5.894   2.657 -1.0868  2.2100  1.0875
  458MOL0     H61824   3.730   5.663   2.571  0.2838 -0.4323 -0.5855
  458MOL0     H61825   3.637   5.660   2.718  0.9186  1.6291 -0.0394
  458MOL0     H61826   3.363   5.540   2.395 -0.4361 -1.2073  0.8090
  458MOL0     H61827   3.298   6.191   2.580  0.9143  0.9753  1.5380
  458MOL0     H61828   3.084   6.260   2.536 -5.3949 -0.8067 -1.7601
  458MOL0     H61829   3.072   6.442   2.541  1.5795  0.1385  0.6549
  458MOL0     H61830   3.026   6.349   2.406 -2.9043  0.7301  3.0636
  459MOL0     O61831   1.903   3.683   0.263  0.6737  0.4798 -0.4039
  459MOL0     C61832   1.943   3.798   0.244 -0.4189 -0.8685  0.1535
  459MOL0     O61833   2.054   3.865   0.305 -0.5685  0.0678 -0.0507
  459MOL0     C61834   2.145   3.782   0.371  0.0406 -0.1973  0.2260
  459MOL0     C61835   2.255   3.723   0.310 -0.0767  0.7041 -0.4159
  459MOL0     C61836   2.337   3.650   0.388 -0.1163  0.4636 -0.2981
  459MOL0     C61837   2.302   3.612   0.521 -0.2035 -0.3729 -0.2725
  459MOL0     O61838   2.364   3.506   0.569 -0.1283  0.9330 -0.1320
  459MOL0     C61839   2.313   3.385   0.514  0.1620  0.9489 -0.7130
  459MOL0     C61840   2.385   3.261   0.575 -0.1835  0.8118  0.1320
  459MOL0     C61841   2.298   3.136   0.549 -0.5354  0.1943  0.5840
  459MOL0     C61842   2.352   3.013   0.614  0.1827  1.1940 -0.4927
  459MOL0     C61843   2.298   2.880   0.561  0.7603 -0.4243 -0.3474
  459MOL0     C61844   2.367   2.766   0.632 -0.3707 -1.1635 -0.1087
  459MOL0     C61845   2.295   2.638   0.593  0.3349  0.0380 -0.5419
  459MOL0     C61846   2.178   2.612   0.679 -0.3727 -0.1182  0.4407
  459MOL0     N61847   2.202   2.528   0.793  0.2969  0.0421  0.3870
  459MOL0     C61848   2.192   2.578   0.923  1.8198 -0.1604 -0.4433
  459MOL0     C61849   2.192   2.461   0.996  0.1360  0.4454 -0.7707
  459MOL0     C61850   2.162   2.450   1.142 -0.2304  0.7741 -0.8341
  459MOL0     C61851   2.287   2.497   1.232  0.5569  0.2782  1.1148
  459MOL0     C61852   2.235   2.492   1.369  0.8767 -0.0261 -0.6504
  459MOL0     C61853   2.307   2.577   1.463  0.4651  0.1329  0.4127
  459MOL0     O61854   2.216   2.650   1.537 -0.9524  0.3311  0.3303
  459MOL0     C61855   2.146   2.757   1.477  0.0446  0.6217  0.0339
  459MOL0     C61856   2.040   2.812   1.563 -0.3575  0.0249  0.6596
  459MOL0     C61857   1.957   2.909   1.520 -0.9527  0.0293 -0.1742
  459MOL0     C61858   1.986   2.959   1.393  0.0014  0.3680  1.2331
  459MOL0     C61859   1.892   3.059   1.345 -0.2305  0.3225 -1.2226
  459MOL0     O61860   1.770   3.037   1.392 -0.1801  0.4343 -0.1559
  459MOL0     C61861   1.680   3.142   1.390 -0.0332  0.3510  0.7177
  459MOL0     C61862   1.555   3.114   1.326  0.2117 -0.0902 -0.3280
  459MOL0     C61863   1.458   3.219   1.336  0.2562 -1.5515  0.9074
  459MOL0     C61864   1.491   3.347   1.393  0.1387  0.4582 -0.0918
  459MOL0     O61865   1.403   3.459   1.411 -0.9491 -0.1015  0.5102
  459MOL0     C61866   1.270   3.431   1.392  0.6107  0.3224  0.4300
  459MOL0     C61867   1.190   3.560   1.417  0.4041  0.6248  0.1525
  459MOL0     C61868   1.214   3.616   1.564  1.3184 -0.4436  0.4943
  459MOL0     C61869   1.082   3.631   1.643  0.1139 -0.2167  0.8142
  459MOL0     C61870   1.107   3.616   1.797 -0.6018 -0.0417  0.9347
  459MOL0     C61871   1.192   3.734   1.877  0.3563  1.2321 -0.0092
  459MOL0     C61872   1.165   3.711   2.026 -0.6106 -0.3458  0.0418
  459MOL0     C61873   1.049   3.790   2.079 -0.3920 -0.4474  0.1888
  459MOL0    Cl61874   1.122   3.961   2.081  0.1181 -0.1507 -0.6687
  459MOL0     C61875   1.627   3.374   1.434  0.6149 -0.3797 -0.1958
  459MOL0     C61876   1.719   3.272   1.428  0.2087  0.6579  0.5249
  459MOL0     O61877   1.932   3.137   1.264 -0.0485 -1.5769 -0.9777
  459MOL0     C61878   2.098   2.913   1.305  1.0234 -0.3176  0.0410
  459MOL0     C61879   2.168   2.809   1.347 -1.3296 -0.3593 -0.1664
  459MOL0     N61880   2.210   2.350   0.912  1.1175 -0.0580  0.3230
  459MOL0     N61881   2.191   2.397   0.797 -0.4403  0.7760  0.9635
  459MOL0     C61882   2.204   3.685   0.588 -0.1350  0.0991  0.2199
  459MOL0     C61883   2.123   3.767   0.514  0.7047 -0.2788 -0.2509
  459MOL0     C61884   1.856   3.886   0.160  0.5721  0.0353  0.0851
  459MOL0     C61885   1.911   3.960   0.043  0.1980 -0.1971 -0.0668
  459MOL0     C61886   1.828   4.040  -0.034  0.4223 -0.2153 -1.3803
  459MOL0     C61887   1.695   4.059  -0.007  0.4874  0.4889  0.3576
  459MOL0     O61888   1.627   4.152  -0.086 -0.1321  0.0880 -0.4284
  459MOL0     C61889   1.497   4.130  -0.136  0.6822 -0.0942  0.5583
  459MOL0     C61890   1.461   3.988  -0.183  0.5332  0.1108  0.0509
  459MOL0     C61891   1.526   3.973  -0.312 -0.1631  0.4714 -0.3415
  459MOL0     C61892   1.485   3.857  -0.407  1.0567 -0.2592  0.4019
  459MOL0     C61893   1.457   3.730  -0.338 -0.3545 -0.0851 -0.0196
  459MOL0     C61894   1.416   3.636  -0.269  0.1245  0.1302  0.4095
  459MOL0     C61895   1.636   3.968   0.086 -0.1646 -0.4899 -0.1572
  459MOL0     C61896   1.711   3.888   0.174 -0.1317  0.8130 -0.3156
  459MOL0     C61897   1.646   3.791   0.265  0.9877  0.2159 -0.1160
  459MOL0     H61898   2.267   3.747   0.205 -2.1312 -0.9719 -1.1124
  459MOL0     H61899   2.424   3.614   0.335 -1.6670 -0.5237 -2.3349
  459MOL0     H61900   2.204   3.381   0.530  0.4145 -1.3336  0.8825
  459MOL0     H61901   2.330   3.376   0.406 -0.9402 -1.0303 -0.7816
  459MOL0     H61902   2.396   3.272   0.684 -0.8397  0.5920  0.2266
  459MOL0     H61903   2.482   3.238   0.531 -0.6539 -3.6860  0.9385
  459MOL0     H61904   2.307   3.118   0.441  0.0884  0.2012  0.6283
  459MOL0     H61905   2.192   3.146   0.572 -0.2871  0.5909  1.5987
  459MOL0     H61906   2.460   3.007   0.597 -0.1045  1.2408 -2.5455
  459MOL0     H61907   2.337   3.021   0.722  0.3388  3.6503 -0.5918
  459MOL0     H61908   2.190   2.873   0.580  0.7053 -0.6893 -0.7365
  459MOL0     H61909   2.298   2.880   0.451  0.2123  0.6598 -0.3675
  459MOL0     H61910   2.472   2.771   0.599 -1.0098 -1.0340 -2.2690
  459MOL0     H61911   2.370   2.775   0.741  1.4262 -0.4530 -0.1806
  459MOL0     H61912   2.358   2.549   0.588 -0.5446 -0.5308 -3.4618
  459MOL0     H61913   2.268   2.640   0.487  1.8424 -1.8440 -1.0267
  459MOL0     H61914   2.133   2.706   0.713 -0.7210 -0.0878 -0.1007
  459MOL0     H61915   2.101   2.567   0.616  1.6484  0.0662 -2.3538
  459MOL0     H61916   2.189   2.684   0.947  2.5799 -0.4649  1.1960
  459MOL0     H61917   2.078   2.519   1.153  0.7653  1.8408  0.5595
  459MOL0     H61918   2.112   2.362   1.183 -1.7579  3.2884  3.4517
  459MOL0     H61919   2.378   2.438   1.223 -2.0688 -4.2959  1.3985
  459MOL0     H61920   2.301   2.601   1.202 -0.3377  0.6770  2.0371
  459MOL0     H61921   2.236   2.392   1.412 -1.6478 -0.2375 -0.9757
  459MOL0     H61922   2.130   2.522   1.369  0.6383 -0.8450 -1.2875
  459MOL0     H61923   2.370   2.650   1.410 -0.4823 -0.1366 -1.1202
  459MOL0     H61924   2.378   2.524   1.528  2.0718 -0.2899 -1.5834
  459MOL0     H61925   2.021   2.772   1.662 -0.5625 -1.1515  0.1620
  459MOL0     H61926   1.876   2.935   1.588 -0.4034  0.2841  0.3919
  459MOL0     H61927   1.522   3.016   1.290  0.0464 -0.3617  0.5375
  459MOL0     H61928   1.354   3.198   1.312 -0.5432  0.9237  1.9458
  459MOL0     H61929   1.252   3.400   1.289  1.2350  1.1892  0.0515
  459MOL0     H61930   1.235   3.356   1.464  1.9750  2.1050  3.1207
  459MOL0     H61931   1.202   3.634   1.336 -2.2912 -1.2213 -2.1454
  459MOL0     H61932   1.086   3.533   1.397  1.1563 -1.2199 -1.5978
  459MOL0     H61933   1.291   3.559   1.617  1.0011 -2.6174 -1.2321
  459MOL0     H61934   1.251   3.718   1.555 -0.9586  0.3473 -0.5843
  459MOL0     H61935   1.007   3.558   1.613 -0.6011  1.1771 -1.0097
  459MOL0     H61936   1.043   3.729   1.613  0.1401 -0.8002 -1.3231
  459MOL0     H61937   1.167   3.525   1.796  1.7455  1.3743 -2.1618
  459MOL0     H61938   1.008   3.607   1.843  0.2585 -0.5831  2.8143
  459MOL0     H61939   1.299   3.717   1.860  0.5148 -0.7612  2.4622
  459MOL0     H61940   1.164   3.830   1.833 -2.9657 -0.0961 -1.1310
  459MOL0     H61941   1.267   3.733   2.059 -0.2224 -4.3000  2.1658
  459MOL0     H61942   1.149   3.605   2.049  0.1260 -0.7039 -1.0285
  459MOL0     H61943   0.960   3.791   2.016 -2.0601 -2.3959  2.3217
  459MOL0     H61944   1.021   3.751   2.178  2.3014 -4.5224 -0.3941
  459MOL0     H61945   1.647   3.467   1.487  3.7412 -0.2767 -1.3750
  459MOL0     H61946   1.816   3.298   1.469 -0.6017  0.0490  3.0001
  459MOL0     H61947   2.112   2.942   1.202  0.3485 -1.4710 -0.3930
  459MOL0     H61948   2.253   2.772   1.291 -0.7964 -0.7896  0.9079
  459MOL0     H61949   2.186   3.670   0.694  2.1773 -1.0955  0.4996
  459MOL0     H61950   2.038   3.819   0.556 -0.5498 -0.4714 -2.4185
  459MOL0     H61951   2.016   3.946   0.022  0.6321 -0.9504  2.3353
  459MOL0     H61952   1.870   4.084  -0.125  2.1481 -0.3207 -0.6725
  459MOL0     H61953   1.488   4.200  -0.220 -0.7277  2.1218  2.4285
  459MOL0     H61954   1.426   4.163  -0.059  0.2922  2.3161 -0.7290
  459MOL0     H61955   1.351   3.984  -0.189  0.6228 -1.0665 -1.7694
  459MOL0     H61956   1.489   3.909  -0.113 -0.1780  1.7403  2.2729
  459MOL0     H61957   1.632   3.949  -0.296 -0.2417 -1.8401 -2.6158
  459MOL0     H61958   1.516   4.062  -0.375 -0.6969 -0.0115 -0.9619
  459MOL0     H61959   1.390   3.875  -0.458  0.8030  3.0472  1.7812
  459MOL0     H61960   1.558   3.846  -0.487  1.0361  1.7172  0.0616
  459MOL0     H61961   1.387   3.553  -0.208 -1.8339 -1.7320 -2.7783
  459MOL0     H61962   1.528   3.971   0.087 -0.2431  3.4736 -1.9995
  459MOL0     H61963   1.653   3.689   0.228  0.2519  0.5205 -1.1389
  459MOL0     H61964   1.691   3.809   0.363 -0.8187 -0.9417  1.0029
  459MOL0     H61965   1.541   3.823   0.275  1.1856  0.7408  0.3496
  460MOL0     O61966   1.000   7.592   6.192 -0.1440 -0.4361  0.5061
  460MOL0     C61967   0.938   7.692   6.166 -0.6388 -0.1805 -0.4019
  460MOL0     O61968   0.811   7.692   6.125  0.5339  0.3333 -0.3630
  460MOL0     C61969   0.738   7.575   6.112 -0.4910  0.8572  0.1641
  460MOL0     C61970   0.737   7.460   6.200  0.5288 -0.7512  1.1692
  460MOL0     C61971   0.657   7.359   6.169  0.3009  0.0356  0.4051
  460MOL0     C61972   0.575   7.352   6.058  0.0379  0.2485  0.3700
  460MOL0     O61973   0.489   7.246   6.036 -0.1423 -1.0512 -0.1478
  460MOL0     C61974   0.434   7.186   6.153 -1.0246  0.2523 -0.3548
  460MOL0     C61975   0.286   7.172   6.134  0.1453 -1.1159 -0.1718
  460MOL0     C61976   0.215   7.084   6.248 -0.1073  0.0866 -0.8554
  460MOL0     C61977   0.080   7.018   6.211  0.2926 -0.0102  0.4156
  460MOL0     C61978   0.020   6.947   6.332  0.6724 -0.2950 -0.8102
  460MOL0     C61979  -0.131   6.920   6.321  0.1902 -0.2418 -0.5257
  460MOL0     C61980  -0.209   7.030   6.405 -0.7423  0.2198  0.8591
  460MOL0     C61981  -0.367   7.025   6.386 -0.4849 -1.0144  0.6711
  460MOL0     N61982  -0.429   6.903   6.443 -0.1437 -0.1563 -0.5954
  460MOL0     C61983  -0.451   6.876   6.578  0.7298 -0.1057  0.5336
  460MOL0     C61984  -0.483   6.742   6.575  0.1209 -0.0130 -1.0328
  460MOL0     C61985  -0.485   6.659   6.696 -0.7667  0.1304 -0.0449
  460MOL0     C61986  -0.624   6.600   6.691 -0.0693 -0.1896  0.1729
  460MOL0     C61987  -0.663   6.543   6.822  0.1507 -0.2306  0.3478
  460MOL0     C61988  -0.788   6.450   6.806 -0.2122 -0.1768 -0.0510
  460MOL0     O61989  -0.831   6.402   6.942 -0.7306 -0.0730 -0.2515
  460MOL0     C61990  -0.773   6.286   6.986  0.2813 -0.0871 -0.0592
  460MOL0     C61991  -0.832   6.224   7.094  0.5200  1.1083  0.6133
  460MOL0     C61992  -0.784   6.095   7.135 -0.9977 -0.1309 -0.2728
  460MOL0     C61993  -0.665   6.034   7.087  0.0247  0.4197 -0.0934
  460MOL0     C61994  -0.605   5.915   7.152  0.0880  0.2496  0.5218
  460MOL0     O61995  -0.494   5.862   7.091  0.2925 -0.4219  0.2520
  460MOL0     C61996  -0.404   5.791   7.176  0.5178  0.0898 -0.4475
  460MOL0     C61997  -0.374   5.662   7.137  0.6959 -0.0704  0.6075
  460MOL0     C61998  -0.304   5.579   7.220  0.7498  0.2691 -0.8464
  460MOL0     C61999  -0.271   5.618   7.354  0.5947  0.4219 -1.4221
  460MOL0     O62000  -0.200   5.540   7.445  0.5409  0.4657 -0.0184
  460MOL0     C62001  -0.173   5.409   7.398 -0.3204  0.0238 -0.3331
  460MOL0     C62002  -0.104   5.343   7.514 -0.2234 -0.4910 -0.3144
  460MOL0     C62003  -0.069   5.205   7.463 -0.2746  0.1525 -0.2752
  460MOL0     C62004   0.022   5.134   7.565  0.0501  1.2672 -0.2796
  460MOL0     C62005   0.110   5.016   7.504 -0.0001  0.2002 -0.1585
  460MOL0     C62006   0.035   4.892   7.475  0.2137 -0.1235 -0.2266
  460MOL0     C62007   0.132   4.791   7.408  0.8564 -0.7932 -0.4595
  460MOL0     C62008   0.056   4.656   7.405 -0.4755  0.5685 -0.3417
  460MOL0    Cl62009   0.048   4.567   7.243  0.0298 -0.4940 -0.0022
  460MOL0     C62010  -0.292   5.754   7.390  0.5755  0.8007 -0.7623
  460MOL0     C62011  -0.361   5.842   7.302 -0.7883 -0.2109 -0.4093
  460MOL0     O62012  -0.659   5.873   7.255  0.1395  1.1301  0.6270
  460MOL0     C62013  -0.610   6.094   6.982  0.3220 -1.3113 -0.3565
  460MOL0     C62014  -0.666   6.218   6.933 -0.7455  0.0337 -0.0868
  460MOL0     N62015  -0.505   6.700   6.450  0.3261  0.2020  0.2389
  460MOL0     N62016  -0.467   6.792   6.368 -0.4330 -0.9632 -0.8664
  460MOL0     C62017   0.584   7.455   5.965  0.9343  0.3517 -0.4046
  460MOL0     C62018   0.665   7.569   5.997  0.8601  0.4695 -0.2834
  460MOL0     C62019   1.000   7.823   6.172 -0.9981  0.9607 -0.1695
  460MOL0     C62020   1.070   7.865   6.288  0.1785 -0.0996  0.0010
  460MOL0     C62021   1.117   7.992   6.311  0.3969  0.2161 -0.1694
  460MOL0     C62022   1.093   8.093   6.217 -0.3626  0.8318 -0.0629
  460MOL0     O62023   1.152   8.204   6.257  0.2385 -0.4087 -0.3994
  460MOL0     C62024   1.149   8.329   6.189  1.2586 -0.3150  0.2768
  460MOL0     C62025   0.999   8.365   6.181  0.2125 -0.4494  0.0446
  460MOL0     C62026   0.976   8.513   6.154  0.3013  0.1082 -0.2336
  460MOL0     C62027   0.823   8.533   6.145 -0.6391 -0.1122  0.4891
  460MOL0     C62028   0.804   8.684   6.128  1.1756  0.1630 -0.6696
  460MOL0     C62029   0.789   8.806   6.114 -0.4187 -0.5354  0.6050
  460MOL0     C62030   1.044   8.049   6.093 -0.1875  0.0824  0.3628
  460MOL0     C62031   0.992   7.923   6.068 -0.2476 -0.2101 -0.4456
  460MOL0     C62032   0.931   7.894   5.935  0.7594  0.8412  0.2219
  460MOL0     H62033   0.780   7.452   6.299  2.0304  0.6738  0.6680
  460MOL0     H62034   0.659   7.273   6.236  3.1731 -0.7818 -0.5887
  460MOL0     H62035   0.482   7.088   6.162  2.7681  1.6885 -2.6833
  460MOL0     H62036   0.455   7.241   6.245 -2.0839  1.4976 -0.8321
  460MOL0     H62037   0.281   7.125   6.035 -0.3806 -0.1403 -0.6261
  460MOL0     H62038   0.243   7.273   6.134 -0.1926 -1.2566 -0.3270
  460MOL0     H62039   0.207   7.145   6.339 -2.8357 -1.8310  0.3417
  460MOL0     H62040   0.262   6.989   6.276  0.0940  0.6657  0.9038
  460MOL0     H62041   0.015   7.100   6.179  1.2612  0.3518 -0.6873
  460MOL0     H62042   0.093   6.952   6.125  1.2053  0.0060  0.5305
  460MOL0     H62043   0.086   6.861   6.344  1.9924  0.2522 -3.2962
  460MOL0     H62044   0.035   7.007   6.422  0.2531 -1.7356  0.2465
  460MOL0     H62045  -0.166   6.908   6.218  1.1075 -1.4814 -0.7108
  460MOL0     H62046  -0.160   6.824   6.364 -0.9997  0.2027 -0.2905
  460MOL0     H62047  -0.156   7.123   6.379  0.5578 -0.1303  2.1000
  460MOL0     H62048  -0.186   7.018   6.511  1.6625  2.3658  0.6894
  460MOL0     H62049  -0.425   7.111   6.421  0.9128 -0.4571  1.7329
  460MOL0     H62050  -0.385   7.030   6.278  2.5144 -1.4474  0.0673
  460MOL0     H62051  -0.428   6.937   6.664 -1.2096  2.2069 -0.4605
  460MOL0     H62052  -0.416   6.574   6.696 -0.9642 -0.0657  1.4545
  460MOL0     H62053  -0.473   6.716   6.789 -2.1918 -1.0790  0.9259
  460MOL0     H62054  -0.697   6.680   6.673  3.4787  2.8608 -2.1422
  460MOL0     H62055  -0.633   6.518   6.619 -3.4903 -0.0911  0.3439
  460MOL0     H62056  -0.673   6.635   6.879  1.7586  0.3989 -0.3459
  460MOL0     H62057  -0.584   6.480   6.865 -0.1879 -0.8650  0.0561
  460MOL0     H62058  -0.754   6.368   6.743  0.0508  0.2026 -0.4078
  460MOL0     H62059  -0.867   6.503   6.752 -2.0207 -1.3682  1.2992
  460MOL0     H62060  -0.915   6.278   7.139 -0.4209 -0.8430  1.3294
  460MOL0     H62061  -0.813   6.043   7.226  1.5466 -0.1232  0.6156
  460MOL0     H62062  -0.406   5.635   7.037  2.0999 -1.3003  0.4543
  460MOL0     H62063  -0.267   5.482   7.188  0.1933  0.3576 -1.8107
  460MOL0     H62064  -0.261   5.348   7.370 -0.5759  0.5180 -0.6231
  460MOL0     H62065  -0.098   5.420   7.319  0.1364  1.6911  0.3122
  460MOL0     H62066  -0.023   5.408   7.548 -2.6472  1.4368  2.2825
  460MOL0     H62067  -0.183   5.347   7.590  0.2411 -2.7843  0.3862
  460MOL0     H62068  -0.163   5.153   7.448 -0.0418  0.3347 -2.7532
  460MOL0     H62069  -0.016   5.210   7.368  3.2017  1.6999  1.5438
  460MOL0     H62070  -0.040   5.095   7.647 -2.5314  0.4938 -2.4712
  460MOL0     H62071   0.093   5.210   7.601  2.3113 -0.0022 -1.8093
  460MOL0     H62072   0.202   5.001   7.561 -0.6135 -0.2743  0.7186
  460MOL0     H62073   0.139   5.050   7.404  1.5654 -1.2035 -0.2268
  460MOL0     H62074  -0.008   4.848   7.565 -0.8924  0.1004 -0.6368
  460MOL0     H62075  -0.051   4.906   7.409 -0.9854 -1.9740  0.8338
  460MOL0     H62076   0.212   4.770   7.480 -2.2380 -2.0290  2.8995
  460MOL0     H62077   0.170   4.833   7.314  2.9176 -0.1053  0.6200
  460MOL0     H62078   0.125   4.593   7.462 -1.1203 -1.0427 -1.2752
  460MOL0     H62079  -0.042   4.657   7.455 -0.0108  0.7074  0.5805
  460MOL0     H62080  -0.271   5.781   7.493  0.2090  0.8905 -0.7088
  460MOL0     H62081  -0.374   5.942   7.344  4.3592  0.2003  0.8678
  460MOL0     H62082  -0.531   6.056   6.918  0.9479 -0.3774 -0.1653
  460MOL0     H62083  -0.624   6.268   6.846 -2.4811  3.1848  0.7082
  460MOL0     H62084   0.515   7.468   5.882  2.0415 -0.8581 -1.5626
  460MOL0     H62085   0.677   7.653   5.930 -1.0149  2.7456  1.9951
  460MOL0     H62086   1.076   7.790   6.367 -2.3618 -1.0634 -0.6067
  460MOL0     H62087   1.154   8.016   6.410  1.1549  2.8607 -1.0137
  460MOL0     H62088   1.193   8.325   6.089 -0.7649 -0.0216 -0.6768
  460MOL0     H62089   1.202   8.406   6.246 -0.0894  2.1930 -1.6906
  460MOL0     H62090   0.945   8.349   6.275 -3.1040  0.0320 -1.6042
  460MOL0     H62091   0.951   8.314   6.096  0.2015 -0.0663 -0.1821
  460MOL0     H62092   1.014   8.549   6.057  1.6572 -0.6176 -0.0003
  460MOL0     H62093   1.018   8.570   6.237 -3.4197  1.0580  1.1964
  460MOL0     H62094   0.780   8.497   6.051 -2.0870  2.5594  0.0366
  460MOL0     H62095   0.766   8.495   6.230 -0.3081  0.4382  0.9625
  460MOL0     H62096   0.778   8.912   6.104 -0.2662 -0.6280 -0.8020
  460MOL0     H62097   1.039   8.133   6.024 -1.8591  0.3363  0.7230
  460MOL0     H62098   0.942   7.785   5.934  3.3221  1.0404  0.6259
  460MOL0     H62099   0.824   7.912   5.919  0.7296 -0.1379 -0.8541
  460MOL0     H62100   0.982   7.935   5.848  2.0365  0.3143  0.7062
  461MOL0     O62101   2.157   7.282   0.102  0.6593  0.3218  0.3871
  461MOL0     C62102   2.048   7.320   0.061  0.6724  0.1484  0.0208
  461MOL0     O62103   2.038   7.420  -0.040  0.1764 -0.6653 -0.7299
  461MOL0     C62104   2.147   7.431  -0.117  0.0789  0.3951  0.2177
  461MOL0     C62105   2.202   7.552  -0.130 -0.6400 -0.8649 -0.2620
  461MOL0     C62106   2.316   7.577  -0.219 -0.4266 -0.2316  0.0628
  461MOL0     C62107   2.365   7.471  -0.298 -0.8162 -0.0133  0.6680
  461MOL0     O62108   2.470   7.483  -0.389 -0.5859  0.0607 -0.0928
  461MOL0     C62109   2.545   7.609  -0.397  0.3020 -0.4097  0.1590
  461MOL0     C62110   2.597   7.623  -0.537  0.0787  0.5571 -0.5673
  461MOL0     C62111   2.510   7.725  -0.611 -0.3330 -0.1373  0.3611
  461MOL0     C62112   2.584   7.777  -0.737  0.1960 -0.9227 -0.3519
  461MOL0     C62113   2.630   7.681  -0.847 -0.2051  0.1310 -0.6289
  461MOL0     C62114   2.699   7.742  -0.966 -0.8912  0.0691 -0.9312
  461MOL0     C62115   2.600   7.823  -1.054  1.3971 -0.0892 -0.2226
  461MOL0     C62116   2.676   7.861  -1.178  0.4008 -0.3986  0.8157
  461MOL0     N62117   2.780   7.965  -1.156 -0.3226  0.2008  0.0437
  461MOL0     C62118   2.765   8.078  -1.075  0.5266 -0.6396  0.2463
  461MOL0     C62119   2.891   8.114  -1.041  0.6895  0.7566 -0.7667
  461MOL0     C62120   2.931   8.225  -0.951 -0.7221  0.0074 -0.0153
  461MOL0     C62121   3.033   8.323  -1.023  0.0562 -0.4003  0.7601
  461MOL0     C62122   2.951   8.445  -1.091 -0.7531  0.5284 -0.2302
  461MOL0     C62123   3.024   8.570  -1.099 -0.6861 -0.5607  0.3507
  461MOL0     O62124   2.969   8.672  -1.017  0.5805 -0.9897  0.1697
  461MOL0     C62125   2.865   8.742  -1.059  0.6046  0.1431  0.4812
  461MOL0     C62126   2.822   8.852  -0.984 -0.3449 -0.5026  1.1653
  461MOL0     C62127   2.725   8.936  -1.027  0.3778 -0.4398 -0.0525
  461MOL0     C62128   2.652   8.907  -1.136 -0.4798 -0.1756  0.5487
  461MOL0     C62129   2.538   9.000  -1.176  0.3392  0.7101 -0.7511
  461MOL0     O62130   2.535   9.122  -1.117 -0.2066  0.5604 -0.0158
  461MOL0     C62131   2.419   9.194  -1.103 -0.1808 -0.4533 -0.5928
  461MOL0     C62132   2.424   9.334  -1.096  0.2387 -0.0414 -0.8547
  461MOL0     C62133   2.308   9.414  -1.088  0.2469 -0.1269 -0.4099
  461MOL0     C62134   2.182   9.347  -1.106 -0.1801 -0.3307  0.1273
  461MOL0     O62135   2.075   9.433  -1.104 -0.2327 -0.1624  0.1772
  461MOL0     C62136   1.957   9.397  -1.178 -0.0422  0.3074  0.6628
  461MOL0     C62137   1.867   9.512  -1.194  0.4365 -0.1826 -0.1944
  461MOL0     C62138   1.911   9.624  -1.288  0.7857 -0.0169 -0.8426
  461MOL0     C62139   1.800   9.734  -1.294 -0.2208  1.5791 -0.6685
  461MOL0     C62140   1.848   9.849  -1.367  0.0928  0.9568  0.1179
  461MOL0     C62141   1.749   9.962  -1.353  0.6553 -0.0290 -0.3211
  461MOL0     C62142   1.794  10.090  -1.416  0.7821  0.5422 -0.4303
  461MOL0     C62143   1.926  10.145  -1.364 -0.9090 -0.4462  0.5203
  461MOL0    Cl62144   1.951  10.288  -1.471 -0.0235 -0.3699  0.1729
  461MOL0     C62145   2.180   9.210  -1.119  0.2105 -0.3134  0.0940
  461MOL0     C62146   2.294   9.135  -1.117  0.2335 -0.2957 -0.8121
  461MOL0     O62147   2.457   8.956  -1.264  0.0292 -0.5040 -0.4275
  461MOL0     C62148   2.686   8.803  -1.224 -0.2426  0.3907  0.4141
  461MOL0     C62149   2.791   8.716  -1.185  0.9760  0.0571 -0.6307
  461MOL0     N62150   2.984   8.031  -1.100  0.9696 -0.8858 -0.7982
  461MOL0     N62151   2.913   7.934  -1.150 -0.0498 -0.2174 -0.1045
  461MOL0     C62152   2.300   7.342  -0.281 -1.1002 -0.7003  1.0325
  461MOL0     C62153   2.200   7.321  -0.194  0.5770 -0.2107 -1.1040
  461MOL0     C62154   1.932   7.268   0.137 -0.2031  0.1602  0.1601
  461MOL0     C62155   1.816   7.345   0.117  0.0910  0.0376  0.7649
  461MOL0     C62156   1.702   7.314   0.186 -1.1664  0.0039  0.3501
  461MOL0     C62157   1.692   7.201   0.262  0.3102 -0.2309 -0.3326
  461MOL0     O62158   1.569   7.159   0.321 -0.3797  0.4498  0.0521
  461MOL0     C62159   1.447   7.212   0.277  0.5640 -0.3148 -0.8652
  461MOL0     C62160   1.392   7.133   0.158 -1.2130  0.3620  0.2457
  461MOL0     C62161   1.280   7.204   0.079  0.2105  0.0282  0.1327
  461MOL0     C62162   1.265   7.122  -0.051  0.0720 -0.2249 -0.2130
  461MOL0     C62163   1.159   7.178  -0.133 -0.4205  0.8337  0.0344
  461MOL0     C62164   1.096   7.256  -0.196  0.5479 -0.2957 -0.3566
  461MOL0     C62165   1.810   7.118   0.278 -0.0462 -0.4034  0.4751
  461MOL0     C62166   1.927   7.149   0.213  0.2130  0.0847  0.1987
  461MOL0     C62167   2.049   7.066   0.241 -0.2109 -0.1259 -0.0165
  461MOL0     H62168   2.154   7.635  -0.081  0.2056  0.2810 -1.3100
  461MOL0     H62169   2.375   7.666  -0.200 -0.4630 -0.2935  0.4630
  461MOL0     H62170   2.491   7.703  -0.381  2.1781  0.6896  0.3933
  461MOL0     H62171   2.621   7.597  -0.319  1.1390  2.5761 -0.0791
  461MOL0     H62172   2.580   7.532  -0.595 -2.2027  0.1249  0.6819
  461MOL0     H62173   2.702   7.654  -0.543 -0.4015  2.8844  1.4707
  461MOL0     H62174   2.499   7.814  -0.549  2.6102  1.0396 -0.6284
  461MOL0     H62175   2.416   7.675  -0.635 -0.3705  0.8032 -1.6276
  461MOL0     H62176   2.512   7.840  -0.792  0.7661 -1.1572 -1.3951
  461MOL0     H62177   2.666   7.844  -0.710  0.4525 -1.1514 -0.5614
  461MOL0     H62178   2.701   7.622  -0.789  1.9380  0.9866 -2.2639
  461MOL0     H62179   2.543   7.634  -0.894 -2.8088  3.4019  0.5334
  461MOL0     H62180   2.774   7.814  -0.932 -1.3842  0.1642 -0.0280
  461MOL0     H62181   2.753   7.663  -1.019 -0.0998 -0.4780  0.6336
  461MOL0     H62182   2.562   7.911  -1.001 -0.5262 -1.8092  1.4388
  461MOL0     H62183   2.511   7.759  -1.065 -0.2322  1.3325  3.1491
  461MOL0     H62184   2.722   7.774  -1.226 -0.7343 -1.2889  1.3012
  461MOL0     H62185   2.597   7.894  -1.246  0.2234  0.4938  1.4438
  461MOL0     H62186   2.670   8.119  -1.041  0.3864 -1.3500  0.7299
  461MOL0     H62187   2.841   8.276  -0.915 -1.6424  0.8402 -3.1679
  461MOL0     H62188   2.991   8.176  -0.874  2.5848  2.7221 -0.6547
  461MOL0     H62189   3.119   8.348  -0.962  0.1576 -2.7520  1.6570
  461MOL0     H62190   3.090   8.269  -1.099 -0.3350  1.1079 -0.6722
  461MOL0     H62191   2.860   8.460  -1.033 -1.3893  4.1036 -1.9073
  461MOL0     H62192   2.926   8.404  -1.189 -0.2847  0.2191 -0.2282
  461MOL0     H62193   3.015   8.590  -1.206 -2.5723 -3.1757 -0.0823
  461MOL0     H62194   3.128   8.556  -1.069  0.3823  1.6059 -2.0125
  461MOL0     H62195   2.872   8.875  -0.890 -0.9124  1.5560  1.0092
  461MOL0     H62196   2.708   9.025  -0.967  1.9785  1.4156 -2.1630
  461MOL0     H62197   2.520   9.367  -1.057  0.5460 -2.3038  0.5140
  461MOL0     H62198   2.314   9.519  -1.063  1.5347 -0.2962  0.0333
  461MOL0     H62199   1.984   9.357  -1.277  0.1122  2.0373 -0.0318
  461MOL0     H62200   1.902   9.317  -1.129  0.0801 -0.5222 -0.4949
  461MOL0     H62201   1.772   9.475  -1.234  0.0235 -2.5607  2.6302
  461MOL0     H62202   1.843   9.562  -1.099 -4.6139  0.8580 -1.6856
  461MOL0     H62203   2.009   9.660  -1.255 -0.5660  2.2254  1.0226
  461MOL0     H62204   1.923   9.583  -1.389  2.6017 -0.3838 -0.5275
  461MOL0     H62205   1.765   9.761  -1.194  3.2959  1.9898  0.5894
  461MOL0     H62206   1.721   9.679  -1.345  1.7202 -1.1799 -0.8914
  461MOL0     H62207   1.860   9.830  -1.474 -2.3962  1.1315 -0.2605
  461MOL0     H62208   1.936   9.898  -1.323 -0.8419  3.9356 -1.0546
  461MOL0     H62209   1.654   9.931  -1.397 -1.6756  3.2255  1.9807
  461MOL0     H62210   1.727   9.984  -1.249 -1.5506  0.8103 -0.9065
  461MOL0     H62211   1.713  10.160  -1.395 -0.1647 -0.2099 -1.4777
  461MOL0     H62212   1.800  10.077  -1.524  0.4334  5.8031 -1.3090
  461MOL0     H62213   1.922  10.162  -1.256 -2.8663  2.3457  0.1082
  461MOL0     H62214   2.014  10.082  -1.381 -0.5998  0.4489 -1.5076
  461MOL0     H62215   2.091   9.149  -1.118  2.2831 -3.8222 -3.1712
  461MOL0     H62216   2.286   9.026  -1.122  1.0569 -0.3814 -0.3569
  461MOL0     H62217   2.634   8.786  -1.317  1.0927 -1.5369 -0.0376
  461MOL0     H62218   2.811   8.633  -1.251 -2.1798 -3.8351  2.7013
  461MOL0     H62219   2.335   7.261  -0.346 -3.8672 -0.8264 -0.4542
  461MOL0     H62220   2.160   7.220  -0.195  0.7235 -0.3095  0.5153
  461MOL0     H62221   1.822   7.434   0.055 -0.5198  1.7858  3.0707
  461MOL0     H62222   1.617   7.380   0.172 -1.7640 -0.7931  0.1088
  461MOL0     H62223   1.439   7.320   0.263 -2.9534  0.1973  3.1499
  461MOL0     H62224   1.375   7.185   0.354  0.2816  1.1420 -0.5943
  461MOL0     H62225   1.349   7.039   0.194  0.1905 -0.9726 -1.4085
  461MOL0     H62226   1.473   7.108   0.089 -1.0652  1.7299 -0.1104
  461MOL0     H62227   1.298   7.304   0.039  2.1055 -0.2770  0.1262
  461MOL0     H62228   1.182   7.208   0.127 -1.8924 -2.9694 -3.4635
  461MOL0     H62229   1.360   7.123  -0.105  0.3213 -1.8138  0.1447
  461MOL0     H62230   1.244   7.017  -0.028  0.7520 -0.1915  0.6267
  461MOL0     H62231   1.041   7.333  -0.246  0.9749 -0.7418 -1.5615
  461MOL0     H62232   1.791   7.032   0.343  0.7344 -2.5925 -2.0245
  461MOL0     H62233   2.021   6.981   0.303 -5.1301 -0.2547 -1.9999
  461MOL0     H62234   2.090   7.030   0.146  0.7470  2.2866 -0.6040
  461MOL0     H62235   2.123   7.127   0.295  2.2709 -0.3561 -2.8733
  462MOL0     O62236   6.812   7.351   4.604  0.1158  0.7729  0.0295
  462MOL0     C62237   6.791   7.434   4.689 -0.2300 -0.7996  0.4562
  462MOL0     O62238   6.743   7.561   4.668 -0.0828  0.4274  0.3265
  462MOL0     C62239   6.731   7.614   4.541  0.2563 -0.8319  0.6021
  462MOL0     C62240   6.670   7.552   4.428 -0.3836  0.4460  0.1057
  462MOL0     C62241   6.662   7.619   4.307  1.5149  0.3941  0.3672
  462MOL0     C62242   6.711   7.749   4.295  0.5064 -0.5014  0.6181
  462MOL0     O62243   6.687   7.831   4.188  0.6573 -0.3014 -0.3034
  462MOL0     C62244   6.637   7.769   4.069 -0.3909 -0.2266  0.8939
  462MOL0     C62245   6.652   7.872   3.951 -0.7245  0.2696  0.2964
  462MOL0     C62246   6.592   7.832   3.827  0.2160  0.0403 -0.0768
  462MOL0     C62247   6.574   7.946   3.731 -0.5291 -0.0796  0.2010
  462MOL0     C62248   6.461   7.929   3.623  0.5030  0.5793 -0.4545
  462MOL0     C62249   6.464   8.052   3.534  0.4632  0.0291 -0.3379
  462MOL0     C62250   6.383   8.173   3.590 -0.4511 -0.7085  1.2386
  462MOL0     C62251   6.367   8.298   3.498 -0.1834 -0.3621  0.3959
  462MOL0     N62252   6.398   8.270   3.370 -0.2641 -0.1005  0.1918
  462MOL0     C62253   6.309   8.223   3.274 -0.6259 -0.1060  0.5059
  462MOL0     C62254   6.370   8.242   3.154  0.6398  0.7257  0.6444
  462MOL0     C62255   6.300   8.213   3.027 -0.0209 -0.3033  0.2500
  462MOL0     C62256   6.358   8.264   2.901 -0.6864  0.3901  0.1349
  462MOL0     C62257   6.307   8.404   2.871 -0.6992  0.1643  0.2031
  462MOL0     C62258   6.372   8.466   2.753 -0.3702 -0.2362 -0.3064
  462MOL0     O62259   6.379   8.368   2.646 -0.7134  0.3473 -0.6001
  462MOL0     C62260   6.287   8.369   2.542 -0.5196 -0.6302 -0.0993
  462MOL0     C62261   6.176   8.455   2.524 -0.1620  0.5162 -0.2895
  462MOL0     C62262   6.088   8.439   2.410 -0.4815 -0.8820 -0.7092
  462MOL0     C62263   6.118   8.348   2.313 -0.4257  1.4942 -1.3878
  462MOL0     C62264   6.032   8.335   2.202  0.6562  0.2146  1.0439
  462MOL0     O62265   5.928   8.428   2.194 -0.2350  0.0682  0.0443
  462MOL0     C62266   5.848   8.421   2.082 -0.4713 -0.0163  0.2232
  462MOL0     C62267   5.733   8.341   2.082 -0.0578  0.3992 -0.2067
  462MOL0     C62268   5.650   8.335   1.967  0.5410 -0.5962 -0.0626
  462MOL0     C62269   5.690   8.406   1.856 -1.8749  0.1120  0.4390
  462MOL0     O62270   5.596   8.414   1.754 -0.9032 -0.4353  0.1510
  462MOL0     C62271   5.616   8.520   1.660  0.3945  0.0026  0.5168
  462MOL0     C62272   5.476   8.522   1.590  0.5204  0.1258 -1.6921
  462MOL0     C62273   5.370   8.571   1.697 -0.4893  0.2924  0.3743
  462MOL0     C62274   5.236   8.591   1.626  0.1649  0.3928 -0.6568
  462MOL0     C62275   5.127   8.611   1.735  0.1470 -0.7349 -0.1927
  462MOL0     C62276   4.989   8.646   1.680  0.8208 -0.6189 -0.6683
  462MOL0     C62277   4.992   8.788   1.617  0.2367 -0.1156 -0.8766
  462MOL0     C62278   4.849   8.834   1.601 -0.1469 -0.0521 -0.0094
  462MOL0    Cl62279   4.741   8.732   1.492 -0.5496 -0.1627  0.2140
  462MOL0     C62280   5.813   8.478   1.849 -0.4406  0.6130 -0.7293
  462MOL0     C62281   5.895   8.484   1.966 -0.0873 -0.7591 -0.0029
  462MOL0     O62282   6.066   8.252   2.115  0.6832  0.2153 -0.6353
  462MOL0     C62283   6.227   8.260   2.333  0.2989  0.8007  0.2507
  462MOL0     C62284   6.309   8.269   2.447 -0.3486 -0.4849  0.2082
  462MOL0     N62285   6.493   8.300   3.180  0.0262 -0.4106  0.1823
  462MOL0     N62286   6.506   8.319   3.311  0.2715  0.1723  0.6503
  462MOL0     C62287   6.755   7.814   4.405  0.4292 -0.2834  0.7657
  462MOL0     C62288   6.784   7.748   4.519  0.2770 -0.6886  0.0225
  462MOL0     C62289   6.805   7.387   4.835  0.6333 -0.0465  0.5602
  462MOL0     C62290   6.720   7.455   4.925  0.2205 -0.1314  0.2599
  462MOL0     C62291   6.732   7.441   5.062  0.0860 -0.6906  0.4759
  462MOL0     C62292   6.823   7.360   5.109 -0.9307 -0.2326  0.4009
  462MOL0     O62293   6.853   7.337   5.241 -0.0312 -0.5359 -0.1663
  462MOL0     C62294   6.759   7.378   5.333 -0.2713 -1.1761  0.4213
  462MOL0     C62295   6.801   7.351   5.478 -0.1213  0.3097  0.7607
  462MOL0     C62296   6.927   7.416   5.528 -0.4982 -0.1012  0.3286
  462MOL0     C62297   6.981   7.367   5.658 -0.1964  0.8491  0.6618
  462MOL0     C62298   7.123   7.403   5.675  0.6639  0.0626  0.9280
  462MOL0     C62299   7.242   7.418   5.690  0.2098 -0.4303 -0.0717
  462MOL0     C62300   6.876   7.269   5.020  0.0916  0.2267  0.5359
  462MOL0     C62301   6.879   7.286   4.880  0.3608 -0.2155 -0.2067
  462MOL0     C62302   6.975   7.201   4.805  0.7696  0.1611 -0.2163
  462MOL0     H62303   6.631   7.454   4.454  1.5567 -0.4933 -0.3401
  462MOL0     H62304   6.593   7.584   4.230 -1.1526  1.4812  2.1398
  462MOL0     H62305   6.697   7.686   4.030 -0.7369  0.4281 -1.1604
  462MOL0     H62306   6.532   7.740   4.081 -0.8618  1.2929  0.5892
  462MOL0     H62307   6.756   7.905   3.937 -0.7568  0.4965  0.5876
  462MOL0     H62308   6.595   7.958   3.986  1.0640  0.9761  1.6764
  462MOL0     H62309   6.502   7.777   3.855 -0.5813  1.5039  0.3506
  462MOL0     H62310   6.658   7.763   3.773  0.2296  1.6406 -2.2468
  462MOL0     H62311   6.537   8.038   3.778  2.2784  1.4274 -0.3317
  462MOL0     H62312   6.673   7.965   3.689  1.3706 -3.5939  2.5064
  462MOL0     H62313   6.472   7.833   3.571 -2.0281  0.6301 -1.2356
  462MOL0     H62314   6.373   7.912   3.686  0.9493  0.6425  0.2047
  462MOL0     H62315   6.564   8.095   3.521 -0.4348  1.4505 -3.6577
  462MOL0     H62316   6.434   8.023   3.433 -1.2891 -0.4617  0.2937
  462MOL0     H62317   6.425   8.204   3.686 -0.5754 -1.4365  1.5375
  462MOL0     H62318   6.278   8.147   3.603 -1.8139  3.0869 -0.6535
  462MOL0     H62319   6.266   8.336   3.510 -0.0004 -0.0939  1.1698
  462MOL0     H62320   6.424   8.386   3.530 -0.4035  0.0258 -0.2616
  462MOL0     H62321   6.210   8.177   3.283 -2.6822  3.2470 -2.4214
  462MOL0     H62322   6.300   8.103   3.026  1.3671 -0.4283  3.0024
  462MOL0     H62323   6.194   8.234   3.041  0.2317  0.6632  0.8056
  462MOL0     H62324   6.466   8.282   2.904 -0.3141 -0.5767 -2.9939
  462MOL0     H62325   6.339   8.204   2.811 -0.6983  3.1678 -1.8492
  462MOL0     H62326   6.322   8.471   2.956 -4.6325  0.1110  1.1332
  462MOL0     H62327   6.199   8.411   2.856 -1.1493  1.0630  3.2122
  462MOL0     H62328   6.477   8.489   2.770 -0.1386  0.6907 -2.6165
  462MOL0     H62329   6.320   8.556   2.719 -1.2971 -0.7362 -0.2488
  462MOL0     H62330   6.162   8.533   2.598 -2.2275  0.5338 -0.6499
  462MOL0     H62331   6.010   8.515   2.411  0.5503  0.1993 -0.1911
  462MOL0     H62332   5.699   8.286   2.169 -2.7984 -0.0965 -1.4751
  462MOL0     H62333   5.553   8.288   1.969  0.9486 -1.4772 -0.5599
  462MOL0     H62334   5.641   8.615   1.707  2.4968  0.3921 -1.2061
  462MOL0     H62335   5.697   8.492   1.591 -2.0340 -1.8885 -1.7968
  462MOL0     H62336   5.473   8.591   1.505  0.6723 -1.1671 -2.7821
  462MOL0     H62337   5.457   8.421   1.554 -0.2605 -0.3172 -0.1136
  462MOL0     H62338   5.369   8.502   1.782 -0.9050 -0.9668 -0.6276
  462MOL0     H62339   5.399   8.670   1.733 -1.4957  0.8283 -0.2368
  462MOL0     H62340   5.203   8.503   1.569  1.6559 -2.9753  3.1555
  462MOL0     H62341   5.248   8.687   1.575  0.7431  1.6064  1.6643
  462MOL0     H62342   5.154   8.698   1.796  0.1752 -0.1089 -1.0835
  462MOL0     H62343   5.107   8.525   1.800  3.8186 -1.1573  0.6513
  462MOL0     H62344   4.960   8.578   1.599  2.2346  1.5225 -3.1571
  462MOL0     H62345   4.919   8.646   1.764  4.2916 -0.6404  2.4880
  462MOL0     H62346   5.039   8.789   1.518  0.9401 -3.1431 -0.6747
  462MOL0     H62347   5.042   8.857   1.685 -2.7846  2.7682 -1.3758
  462MOL0     H62348   4.798   8.842   1.698 -0.8169  1.2076 -0.4413
  462MOL0     H62349   4.836   8.933   1.556  1.5413 -2.0113 -5.6448
  462MOL0     H62350   5.846   8.534   1.762  0.6041  1.6411  0.2812
  462MOL0     H62351   5.989   8.537   1.982  2.0552 -3.0346 -3.6103
  462MOL0     H62352   6.245   8.181   2.260  1.0998 -1.4529  2.7063
  462MOL0     H62353   6.397   8.206   2.463 -1.1113 -1.5373  0.3724
  462MOL0     H62354   6.793   7.914   4.385 -0.2233 -0.5130 -2.1918
  462MOL0     H62355   6.849   7.799   4.588  0.4958 -0.9534  0.0154
  462MOL0     H62356   6.639   7.516   4.886 -1.1128 -1.3013  1.1077
  462MOL0     H62357   6.668   7.501   5.126  1.3484 -1.5366  2.6293
  462MOL0     H62358   6.659   7.337   5.312 -0.8171  0.4183 -0.2123
  462MOL0     H62359   6.755   7.486   5.319 -0.6778 -1.1436  0.7724
  462MOL0     H62360   6.813   7.243   5.472 -0.4234  0.3612 -3.3845
  462MOL0     H62361   6.719   7.390   5.539  0.1801  4.6972 -1.2640
  462MOL0     H62362   6.907   7.524   5.526  3.3687  0.8373 -3.8395
  462MOL0     H62363   7.013   7.409   5.461 -2.2027  1.4735 -2.1762
  462MOL0     H62364   6.922   7.415   5.737  0.9884 -1.5533  3.1787
  462MOL0     H62365   6.970   7.258   5.668  0.5529  0.7841  0.8485
  462MOL0     H62366   7.344   7.440   5.714 -0.2622  1.5907  0.2602
  462MOL0     H62367   6.938   7.190   5.060 -1.1122 -1.1209 -0.1495
  462MOL0     H62368   6.928   7.124   4.743 -0.2747 -1.0733  1.9553
  462MOL0     H62369   7.031   7.271   4.742 -1.8855  0.9774 -1.8389
  462MOL0     H62370   7.049   7.144   4.862  2.7946 -1.5682 -4.2084
  463MOL0     O62371   2.031   4.907   7.063 -0.4087 -0.5984 -0.4071
  463MOL0     C62372   2.113   4.984   7.117 -0.5306 -0.3381 -0.0177
  463MOL0     O62373   2.241   4.964   7.133  0.2458  0.8159  0.4646
  463MOL0     C62374   2.312   4.879   7.056 -0.0711  0.3928  0.0809
  463MOL0     C62375   2.406   4.930   6.963  0.1769 -1.0259 -0.2892
  463MOL0     C62376   2.475   4.847   6.875 -0.1321 -1.1261 -0.4765
  463MOL0     C62377   2.461   4.708   6.884  0.4076 -0.6832  0.1620
  463MOL0     O62378   2.537   4.628   6.802  0.7349 -0.3179  0.3693
  463MOL0     C62379   2.489   4.502   6.760 -0.5378 -0.0166 -0.2389
  463MOL0     C62380   2.606   4.422   6.694 -0.1552  0.5262  0.7240
  463MOL0     C62381   2.566   4.276   6.659  0.1578  0.4171  0.4149
  463MOL0     C62382   2.521   4.260   6.514 -0.6180 -0.0810  0.4021
  463MOL0     C62383   2.487   4.108   6.497  0.0154 -0.1243  0.3444
  463MOL0     C62384   2.501   4.056   6.353  0.8159 -0.1345 -1.0834
  463MOL0     C62385   2.474   3.905   6.356  0.9808  0.7392 -0.6117
  463MOL0     C62386   2.424   3.842   6.219 -0.1839 -0.3758  0.6879
  463MOL0     N62387   2.437   3.701   6.228  0.0468  0.0274 -0.3337
  463MOL0     C62388   2.530   3.617   6.182  0.0372  0.0034  0.5114
  463MOL0     C62389   2.483   3.492   6.199  1.4725 -1.3561 -0.3154
  463MOL0     C62390   2.560   3.361   6.175  0.2031 -0.0065 -0.5513
  463MOL0     C62391   2.668   3.343   6.282  0.1087  0.5152 -0.3066
  463MOL0     C62392   2.790   3.410   6.242 -0.1120 -1.0450  1.3200
  463MOL0     C62393   2.904   3.384   6.342 -0.9587 -0.2443 -0.5065
  463MOL0     O62394   3.029   3.431   6.292  0.2087 -0.6199 -0.0915
  463MOL0     C62395   3.136   3.445   6.373 -0.2216 -0.0920 -0.9421
  463MOL0     C62396   3.153   3.378   6.502  0.3677 -0.6159  0.6186
  463MOL0     C62397   3.267   3.394   6.574 -0.1253 -0.0765  0.8928
  463MOL0     C62398   3.365   3.479   6.519 -0.4609 -0.8001 -0.0283
  463MOL0     C62399   3.496   3.482   6.582 -0.6465  0.1384 -0.3003
  463MOL0     O62400   3.506   3.418   6.703  0.0089 -0.7468  0.6424
  463MOL0     C62401   3.624   3.403   6.774  0.4470  0.1137  0.7848
  463MOL0     C62402   3.752   3.380   6.704  0.6238  0.2885 -0.2301
  463MOL0     C62403   3.869   3.345   6.775  0.2364 -0.0603  1.1025
  463MOL0     C62404   3.866   3.323   6.904  0.0669 -0.7599 -0.3668
  463MOL0     O62405   3.971   3.287   6.983 -0.0819 -0.6989 -0.0762
  463MOL0     C62406   4.062   3.192   6.916 -0.6802  0.6821  0.4325
  463MOL0     C62407   4.159   3.133   7.028 -1.3425  0.5504  1.3706
  463MOL0     C62408   4.245   3.008   6.983  0.4108 -0.7253  0.8519
  463MOL0     C62409   4.258   2.884   7.083 -0.2075 -1.1953  0.7488
  463MOL0     C62410   4.347   2.770   7.033 -0.8452 -1.5982 -0.4846
  463MOL0     C62411   4.493   2.805   7.055  0.1397 -0.8532  1.3893
  463MOL0     C62412   4.533   2.819   7.206 -0.1420 -0.6687 -0.2423
  463MOL0     C62413   4.640   2.714   7.244  0.1514 -0.6103  0.5384
  463MOL0    Cl62414   4.603   2.537   7.208  0.4197 -0.5396 -0.1506
  463MOL0     C62415   3.744   3.348   6.968  0.2688 -0.1060  0.1421
  463MOL0     C62416   3.618   3.382   6.908  0.6272 -0.8282 -0.0633
  463MOL0     O62417   3.584   3.538   6.524  0.1992 -0.5524 -0.5197
  463MOL0     C62418   3.348   3.548   6.391  0.2780 -0.7242 -0.0782
  463MOL0     C62419   3.238   3.528   6.315  0.0428  1.3567  0.0406
  463MOL0     N62420   2.363   3.516   6.264  0.6159 -0.1258  0.3029
  463MOL0     N62421   2.331   3.634   6.285  0.5363  0.6681  0.0895
  463MOL0     C62422   2.354   4.654   6.966  0.0682 -0.0220  0.7077
  463MOL0     C62423   2.295   4.739   7.055  0.1671 -0.3839 -1.4544
  463MOL0     C62424   2.067   5.118   7.152  0.0387  0.2637 -1.2626
  463MOL0     C62425   1.921   5.141   7.134 -0.7583 -0.3133 -0.5421
  463MOL0     C62426   1.872   5.258   7.179 -0.1079 -0.0807  0.0655
  463MOL0     C62427   1.952   5.359   7.224 -0.9196  0.6091  0.7612
  463MOL0     O62428   1.914   5.489   7.247  0.1447 -0.2762 -0.7932
  463MOL0     C62429   1.776   5.523   7.222  0.3715 -0.0524 -0.2935
  463MOL0     C62430   1.723   5.666   7.235 -0.5744  0.5781  1.0314
  463MOL0     C62431   1.750   5.727   7.369 -0.0558  0.9050 -1.1182
  463MOL0     C62432   1.728   5.881   7.374  0.8064 -0.2506 -0.8326
  463MOL0     C62433   1.776   5.936   7.505  0.0228  0.7292 -0.1422
  463MOL0     C62434   1.812   5.985   7.608 -0.1210 -0.5279 -0.3901
  463MOL0     C62435   2.084   5.342   7.237  0.6313  0.1262 -0.1726
  463MOL0     C62436   2.152   5.224   7.212 -0.3829 -0.3264  0.5211
  463MOL0     C62437   2.296   5.207   7.260  0.2720 -0.3982 -0.8829
  463MOL0     H62438   2.418   5.038   6.952  1.7668 -1.0914  0.5967
  463MOL0     H62439   2.537   4.882   6.793 -0.4818 -1.0690 -0.7172
  463MOL0     H62440   2.446   4.448   6.844 -2.2859  0.1977 -0.9568
  463MOL0     H62441   2.411   4.507   6.683 -3.9730 -1.8431  2.8306
  463MOL0     H62442   2.688   4.410   6.765  0.1820 -1.9227  0.0078
  463MOL0     H62443   2.643   4.473   6.604 -1.6469  1.6602  0.7105
  463MOL0     H62444   2.485   4.238   6.722  0.5906  2.4376  2.2994
  463MOL0     H62445   2.648   4.203   6.666  1.0559  0.6620 -4.2550
  463MOL0     H62446   2.438   4.319   6.473  0.1879  0.5667 -0.3435
  463MOL0     H62447   2.608   4.287   6.455 -2.0321  4.5893  0.0620
  463MOL0     H62448   2.553   4.045   6.557  2.4779  1.8481 -0.1445
  463MOL0     H62449   2.382   4.099   6.526  0.0104  3.0123  1.6787
  463MOL0     H62450   2.432   4.106   6.284  0.1860 -0.3402 -0.6112
  463MOL0     H62451   2.606   4.070   6.327  1.5111 -0.3574  1.3790
  463MOL0     H62452   2.394   3.873   6.423  1.2126  0.1337 -0.6184
  463MOL0     H62453   2.558   3.846   6.393  0.2404 -1.0004 -1.5613
  463MOL0     H62454   2.317   3.867   6.216  0.9732  5.9622 -1.1478
  463MOL0     H62455   2.472   3.882   6.130  0.8701 -1.8675  0.5614
  463MOL0     H62456   2.619   3.656   6.133 -0.8628  1.5799  0.0525
  463MOL0     H62457   2.488   3.280   6.188 -0.0676  0.4095  0.7016
  463MOL0     H62458   2.614   3.349   6.081  3.0878 -0.9162  1.0911
  463MOL0     H62459   2.627   3.379   6.377 -2.0116  0.0537 -0.9970
  463MOL0     H62460   2.687   3.237   6.303 -2.0218  0.3227  0.8916
  463MOL0     H62461   2.771   3.517   6.230  3.4482 -0.5435 -1.3776
  463MOL0     H62462   2.815   3.356   6.150  1.2940 -1.9409  2.1845
  463MOL0     H62463   2.908   3.275   6.337 -2.7609 -0.3054 -4.3750
  463MOL0     H62464   2.865   3.423   6.436 -0.6094  1.1023 -0.8911
  463MOL0     H62465   3.065   3.323   6.534 -1.6118  1.6156 -0.6961
  463MOL0     H62466   3.293   3.340   6.665 -2.4276  0.4573  1.9317
  463MOL0     H62467   3.756   3.386   6.595 -0.2476  2.6701 -0.1889
  463MOL0     H62468   3.957   3.317   6.718  0.1866  1.0801  0.4393
  463MOL0     H62469   3.999   3.105   6.894  0.0748  0.1708  0.2430
  463MOL0     H62470   4.112   3.243   6.834 -0.6059  0.4644  0.3424
  463MOL0     H62471   4.232   3.210   7.056  0.4057  0.1137 -1.5697
  463MOL0     H62472   4.108   3.109   7.122 -1.1940 -0.8863  1.1007
  463MOL0     H62473   4.221   2.979   6.881 -0.9755 -2.5320  1.6334
  463MOL0     H62474   4.351   3.028   6.964  0.0621 -0.5451 -1.0409
  463MOL0     H62475   4.155   2.850   7.094 -0.8623  0.9295  1.8666
  463MOL0     H62476   4.278   2.923   7.183 -0.5625  3.1547 -0.6395
  463MOL0     H62477   4.336   2.750   6.926  0.1395  0.2870 -0.9762
  463MOL0     H62478   4.325   2.682   7.094 -1.2266 -0.3443  1.2588
  463MOL0     H62479   4.548   2.726   7.002 -2.7998 -2.1014 -0.0534
  463MOL0     H62480   4.521   2.895   7.000 -1.1445 -1.7152 -0.8181
  463MOL0     H62481   4.441   2.815   7.265 -1.2037  2.0752 -1.5301
  463MOL0     H62482   4.569   2.922   7.212  0.6014 -0.9426  0.2516
  463MOL0     H62483   4.729   2.731   7.183 -0.0060 -1.1106  0.1647
  463MOL0     H62484   4.675   2.733   7.346  0.9197  2.6530 -0.2217
  463MOL0     H62485   3.737   3.332   7.075 -1.3357  0.9444  0.2197
  463MOL0     H62486   3.523   3.381   6.961  0.9452 -0.8714  0.5129
  463MOL0     H62487   3.417   3.628   6.364 -3.3313  2.3621 -1.1223
  463MOL0     H62488   3.227   3.578   6.219  1.2877  1.4574 -0.0629
  463MOL0     H62489   2.320   4.551   6.967 -1.1800  0.1752 -3.1711
  463MOL0     H62490   2.212   4.706   7.117 -0.3571  0.9098 -1.4298
  463MOL0     H62491   1.861   5.065   7.086 -1.4317  1.5025 -2.7857
  463MOL0     H62492   1.768   5.276   7.155  1.0433  2.3966 -4.1638
  463MOL0     H62493   1.706   5.459   7.277  1.1920  0.9149  2.0245
  463MOL0     H62494   1.760   5.492   7.119 -2.3026  0.4660 -0.0992
  463MOL0     H62495   1.615   5.668   7.218 -0.3893  1.3877 -0.1749
  463MOL0     H62496   1.769   5.734   7.162  0.9316 -1.4850 -0.0482
  463MOL0     H62497   1.853   5.713   7.404 -0.2804  2.6776  0.3987
  463MOL0     H62498   1.686   5.669   7.437  0.8028 -1.3195 -2.1062
  463MOL0     H62499   1.779   5.942   7.298 -0.9905  2.7394  0.1554
  463MOL0     H62500   1.621   5.901   7.368  0.3267 -2.2943  0.1842
  463MOL0     H62501   1.836   6.019   7.706 -2.5675  3.3744 -0.9264
  463MOL0     H62502   2.139   5.418   7.291 -1.1631  1.8238 -0.6119
  463MOL0     H62503   2.328   5.289   7.325  0.9155  0.8782 -2.7139
  463MOL0     H62504   2.284   5.111   7.312 -0.5338 -0.6686 -1.5492
  463MOL0     H62505   2.354   5.205   7.167 -0.4395  2.0375 -1.4370
  464MOL0     O62506   0.350   5.385   9.467 -0.2279  0.1528 -0.0023
  464MOL0     C62507   0.292   5.435   9.364  0.1839 -1.0980 -0.8534
  464MOL0     O62508   0.207   5.367   9.277  0.4153  0.6061  0.4823
  464MOL0     C62509   0.190   5.232   9.287  0.2515  0.4241  0.5596
  464MOL0     C62510   0.167   5.164   9.407  0.7596  0.6286 -0.0128
  464MOL0     C62511   0.131   5.025   9.400 -0.5174  0.2084 -0.0428
  464MOL0     C62512   0.125   4.960   9.278  0.8464 -0.3105 -1.5496
  464MOL0     O62513   0.110   4.831   9.278 -0.0215 -0.1333  0.2787
  464MOL0     C62514  -0.011   4.781   9.218 -0.0187  0.4273 -0.0096
  464MOL0     C62515  -0.042   4.629   9.218 -0.2629 -0.9355  0.4293
  464MOL0     C62516   0.061   4.564   9.124 -0.0060  0.3229 -0.8597
  464MOL0     C62517   0.040   4.412   9.150 -0.9425 -0.3918  1.6829
  464MOL0     C62518   0.119   4.334   9.039 -0.5126 -0.3851 -0.1166
  464MOL0     C62519   0.061   4.324   8.901  0.4252 -0.3835  0.4628
  464MOL0     C62520   0.148   4.236   8.821 -0.1917  0.2278 -0.0888
  464MOL0     C62521   0.127   4.084   8.863 -0.2194 -0.1437 -0.5531
  464MOL0     N62522   0.189   4.008   8.755  0.7705 -0.2560  0.1124
  464MOL0     C62523   0.272   4.048   8.647  0.6475 -0.2127 -0.0558
  464MOL0     C62524   0.290   3.942   8.566  0.1191  0.0736  0.5259
  464MOL0     C62525   0.373   3.938   8.441 -0.2613 -0.3553 -0.4658
  464MOL0     C62526   0.334   4.044   8.339  0.6868 -0.2354  0.8057
  464MOL0     C62527   0.189   4.042   8.283  0.2985  0.6878 -0.4337
  464MOL0     C62528   0.154   3.903   8.221  0.6376  0.2744  0.2495
  464MOL0     O62529   0.270   3.843   8.149  0.7263  0.3005 -0.2514
  464MOL0     C62530   0.300   3.882   8.019 -0.0261 -0.2138 -1.0608
  464MOL0     C62531   0.407   3.817   7.950  1.2474 -0.2575  0.6858
  464MOL0     C62532   0.430   3.853   7.817  0.4749 -1.0379  0.9198
  464MOL0     C62533   0.355   3.954   7.752  0.5895 -0.2460  1.6735
  464MOL0     C62534   0.401   3.991   7.609 -0.9224 -0.0646 -0.0478
  464MOL0     O62535   0.526   3.955   7.565 -0.3140  0.1094 -0.3108
  464MOL0     C62536   0.586   4.021   7.468  0.3384 -0.4006  0.2260
  464MOL0     C62537   0.581   4.165   7.445  0.1813  0.4573 -0.1753
  464MOL0     C62538   0.662   4.230   7.357 -0.1719 -0.8482 -0.7488
  464MOL0     C62539   0.744   4.151   7.273  1.0106 -0.9244 -0.3368
  464MOL0     O62540   0.823   4.197   7.174  0.4240 -0.3893  0.1461
  464MOL0     C62541   0.791   4.321   7.115 -0.1685 -0.3775  0.7474
  464MOL0     C62542   0.652   4.324   7.042 -0.2056 -0.6616 -0.2591
  464MOL0     C62543   0.657   4.427   6.926 -0.6926 -0.6683  0.3809
  464MOL0     C62544   0.642   4.570   6.973 -0.3623 -0.1889 -0.6480
  464MOL0     C62545   0.587   4.673   6.869  1.2311 -0.1870  0.3286
  464MOL0     C62546   0.686   4.697   6.753 -0.2499  0.3629  0.5267
  464MOL0     C62547   0.812   4.777   6.786 -0.0273  0.3664  0.0024
  464MOL0     C62548   0.786   4.904   6.869 -0.0672 -0.7075 -0.7393
  464MOL0    Cl62549   0.943   5.001   6.849 -0.1984  0.2069 -0.1487
  464MOL0     C62550   0.737   4.009   7.287 -0.0785 -0.3837 -0.0982
  464MOL0     C62551   0.662   3.947   7.381 -0.3215  0.0597  0.0893
  464MOL0     O62552   0.322   4.069   7.545 -0.3235 -0.2460 -0.0340
  464MOL0     C62553   0.258   4.024   7.822  0.0886 -0.3911 -0.4013
  464MOL0     C62554   0.226   3.983   7.947  0.0516  0.6275 -0.0146
  464MOL0     N62555   0.216   3.842   8.622 -1.3517  0.2787 -0.7750
  464MOL0     N62556   0.157   3.878   8.733  0.3863 -0.1689 -0.4348
  464MOL0     C62557   0.169   5.025   9.163 -0.1250 -0.7721  0.2811
  464MOL0     C62558   0.202   5.160   9.172 -0.1218  0.1983  0.6971
  464MOL0     C62559   0.303   5.587   9.360  0.1459 -0.3893  0.9537
  464MOL0     C62560   0.184   5.651   9.334 -0.5640 -0.5830 -0.3584
  464MOL0     C62561   0.185   5.785   9.310 -0.2618  0.3936  0.1517
  464MOL0     C62562   0.301   5.854   9.296 -0.0132 -0.9961  0.0849
  464MOL0     O62563   0.300   5.994   9.270  0.1219 -0.0443 -0.0739
  464MOL0     C62564   0.179   6.069   9.283  0.6242  0.8235 -0.6870
  464MOL0     C62565   0.208   6.210   9.328  0.6550  0.0062 -0.4920
  464MOL0     C62566   0.316   6.287   9.246  0.2645 -0.7871  0.8969
  464MOL0     C62567   0.308   6.282   9.098 -1.6091 -0.0636 -0.6393
  464MOL0     C62568   0.351   6.403   9.029  0.1791 -0.4805  0.8296
  464MOL0     C62569   0.390   6.510   8.975  0.1910  0.2265  0.3272
  464MOL0     C62570   0.420   5.784   9.310 -0.3291 -0.0176  0.0995
  464MOL0     C62571   0.427   5.647   9.339 -0.6307 -0.4107  0.2010
  464MOL0     C62572   0.563   5.569   9.337  0.8348 -0.8545  0.2422
  464MOL0     H62573   0.156   5.223   9.497  0.9891  1.4717 -0.5283
  464MOL0     H62574   0.118   4.958   9.485  1.4059  2.4637  2.1695
  464MOL0     H62575  -0.095   4.830   9.268 -0.6532 -0.2156 -0.4215
  464MOL0     H62576  -0.036   4.813   9.117 -1.8009 -1.0410 -0.0899
  464MOL0     H62577  -0.140   4.616   9.172 -0.1053  2.4748 -1.2087
  464MOL0     H62578  -0.037   4.588   9.319 -0.4140  2.1055  1.7967
  464MOL0     H62579   0.163   4.581   9.160  1.2569 -5.7976 -0.4054
  464MOL0     H62580   0.042   4.603   9.024 -3.4986 -1.3764 -1.0059
  464MOL0     H62581   0.078   4.397   9.252 -1.0864  0.8839  1.9456
  464MOL0     H62582  -0.062   4.377   9.170 -1.2389  0.0615  1.0002
  464MOL0     H62583   0.212   4.389   9.025  0.3918 -1.7701  0.2173
  464MOL0     H62584   0.140   4.236   9.083  1.1755 -0.7418 -1.6075
  464MOL0     H62585  -0.039   4.280   8.891  0.4196 -0.1653 -0.5306
  464MOL0     H62586   0.057   4.420   8.849 -1.1412 -0.8515 -0.3612
  464MOL0     H62587   0.255   4.255   8.829 -0.1725 -0.7929  3.9637
  464MOL0     H62588   0.117   4.243   8.716  1.0279  1.7793 -0.3824
  464MOL0     H62589   0.176   4.053   8.956  1.7407  1.4275 -0.9916
  464MOL0     H62590   0.020   4.063   8.868 -0.3378  0.6247  0.8776
  464MOL0     H62591   0.305   4.146   8.617  2.8061 -0.8133  0.2388
  464MOL0     H62592   0.479   3.957   8.461 -0.0566 -2.5825  0.9251
  464MOL0     H62593   0.387   3.840   8.395 -0.9047 -0.7681  0.1944
  464MOL0     H62594   0.351   4.144   8.382 -0.2723  0.6731 -0.8356
  464MOL0     H62595   0.399   4.041   8.251 -3.1216  2.7210 -2.4809
  464MOL0     H62596   0.177   4.127   8.214 -3.0324  2.6794  2.3043
  464MOL0     H62597   0.124   4.064   8.368 -0.7095  0.2215 -1.0633
  464MOL0     H62598   0.062   3.899   8.163 -0.2201  0.5027  1.5474
  464MOL0     H62599   0.154   3.853   8.318  3.6643  0.9767  0.7170
  464MOL0     H62600   0.468   3.738   7.992  0.0608 -2.0278 -0.7373
  464MOL0     H62601   0.511   3.809   7.759 -0.3509 -2.5139  0.8336
  464MOL0     H62602   0.528   4.231   7.514 -1.4065 -1.2799  0.3386
  464MOL0     H62603   0.666   4.338   7.359  1.4561 -0.8938 -0.5949
  464MOL0     H62604   0.795   4.403   7.187  1.6976  0.3029 -0.0493
  464MOL0     H62605   0.876   4.344   7.050 -1.9347  0.7498 -1.2919
  464MOL0     H62606   0.639   4.232   6.986  0.1443 -0.8801  0.0166
  464MOL0     H62607   0.562   4.345   7.102  1.2310 -1.9597  2.5263
  464MOL0     H62608   0.743   4.421   6.859 -1.4187  0.9507 -0.7958
  464MOL0     H62609   0.578   4.400   6.856 -1.6799 -3.0132  2.2649
  464MOL0     H62610   0.735   4.609   7.016 -0.6406  1.2826 -1.3466
  464MOL0     H62611   0.559   4.565   7.045  0.5398  0.4670  0.4675
  464MOL0     H62612   0.557   4.766   6.919 -2.1393 -1.3203  0.6783
  464MOL0     H62613   0.487   4.655   6.829  0.3562  1.0916  1.8203
  464MOL0     H62614   0.703   4.610   6.689  0.3197  2.4890 -2.4141
  464MOL0     H62615   0.637   4.760   6.679  2.4388  1.4512 -0.4460
  464MOL0     H62616   0.859   4.812   6.694  3.0534 -1.3604  0.7399
  464MOL0     H62617   0.890   4.719   6.837 -1.1681  0.5723  2.0921
  464MOL0     H62618   0.701   4.965   6.838  0.0079  1.0807  2.2253
  464MOL0     H62619   0.752   4.887   6.971  2.3824  1.0880  0.4906
  464MOL0     H62620   0.802   3.956   7.218  1.4113  2.8138 -1.3194
  464MOL0     H62621   0.674   3.840   7.399  3.3344  0.3779  0.2809
  464MOL0     H62622   0.200   4.105   7.780 -0.8961 -0.4181  0.8464
  464MOL0     H62623   0.150   4.046   7.994 -1.2812 -1.2202  0.4212
  464MOL0     H62624   0.177   4.960   9.076 -1.5488 -0.4297 -0.1410
  464MOL0     H62625   0.241   5.215   9.086  1.8210 -3.4216 -0.9379
  464MOL0     H62626   0.085   5.607   9.341 -1.0930  0.3028 -1.8999
  464MOL0     H62627   0.084   5.823   9.297 -0.7759 -0.6681  0.8486
  464MOL0     H62628   0.107   6.025   9.352 -0.1067 -0.3111 -2.1114
  464MOL0     H62629   0.137   6.070   9.182 -1.9081  2.5136  0.2988
  464MOL0     H62630   0.245   6.211   9.431 -1.0066  1.2608  0.1436
  464MOL0     H62631   0.106   6.246   9.314  1.2779  1.2489 -2.0668
  464MOL0     H62632   0.414   6.255   9.282  1.3228  0.6255 -0.6137
  464MOL0     H62633   0.304   6.389   9.283 -0.4944 -0.2728 -0.6844
  464MOL0     H62634   0.371   6.200   9.064 -1.7645 -0.3562 -0.2255
  464MOL0     H62635   0.202   6.263   9.076 -1.2933 -3.5121  0.2185
  464MOL0     H62636   0.402   6.609   8.937 -0.6157  0.3132  0.2885
  464MOL0     H62637   0.516   5.829   9.284  1.2293 -0.7937  3.9497
  464MOL0     H62638   0.578   5.504   9.250  3.0830 -1.6222  1.1354
  464MOL0     H62639   0.641   5.643   9.313  0.9877 -1.4915 -1.3841
  464MOL0     H62640   0.584   5.512   9.427  2.4952  2.0781  1.8901
  465MOL0     O62641   5.428   8.926   3.563  0.4047 -0.5715 -0.6013
  465MOL0     C62642   5.359   8.919   3.465  0.2974  0.8180  0.6691
  465MOL0     O62643   5.230   8.947   3.462  0.4856  0.0636 -0.4423
  465MOL0     C62644   5.153   8.980   3.576  0.3488 -0.2208  0.2297
  465MOL0     C62645   5.073   9.092   3.573  0.8917 -0.4407 -0.0468
  465MOL0     C62646   4.991   9.133   3.681 -0.8913  0.2108  0.4816
  465MOL0     C62647   4.992   9.050   3.792 -0.3726 -0.0547 -1.5486
  465MOL0     O62648   4.908   9.072   3.900  0.5370  0.5562 -0.0845
  465MOL0     C62649   4.936   9.181   3.983  0.0856 -0.2306 -0.3498
  465MOL0     C62650   5.011   9.161   4.116  0.3548 -0.1738 -0.2457
  465MOL0     C62651   4.924   9.075   4.207  0.0999 -0.4909  0.5320
  465MOL0     C62652   4.960   8.928   4.196  0.3570 -0.5254  0.6261
  465MOL0     C62653   4.860   8.839   4.278  0.7805 -0.3442  0.0761
  465MOL0     C62654   4.922   8.699   4.288 -0.0402  0.6605  0.8090
  465MOL0     C62655   4.828   8.603   4.364  0.8452  0.8878  0.5957
  465MOL0     C62656   4.913   8.479   4.407  0.3844 -0.9788  0.5316
  465MOL0     N62657   4.834   8.389   4.498  0.6319  0.3291 -0.1652
  465MOL0     C62658   4.852   8.350   4.630 -0.2906 -0.3438 -0.1063
  465MOL0     C62659   4.752   8.258   4.659 -0.1359 -0.1705 -0.4893
  465MOL0     C62660   4.711   8.188   4.788  0.2419  0.4456  0.3420
  465MOL0     C62661   4.628   8.272   4.895 -0.2674  0.6475  0.5939
  465MOL0     C62662   4.562   8.175   4.983  0.1574  0.2542  0.8660
  465MOL0     C62663   4.449   8.245   5.060  0.1195  0.4113 -1.2507
  465MOL0     O62664   4.507   8.343   5.152 -0.9047 -0.4491 -0.2965
  465MOL0     C62665   4.424   8.404   5.236 -0.2415 -0.3008  0.1769
  465MOL0     C62666   4.483   8.506   5.310 -0.2204 -0.1441  0.0916
  465MOL0     C62667   4.405   8.580   5.402 -0.6799 -0.4846  0.6413
  465MOL0     C62668   4.265   8.561   5.412 -0.2371  0.6542 -0.2926
  465MOL0     C62669   4.185   8.622   5.520 -0.1263  0.3918  0.3710
  465MOL0     O62670   4.083   8.544   5.573 -0.4031  0.0114  0.5303
  465MOL0     C62671   4.027   8.588   5.685  0.8850 -0.2194 -0.0294
  465MOL0     C62672   3.890   8.552   5.696 -0.1280 -0.0972  0.4468
  465MOL0     C62673   3.818   8.584   5.811  0.6095  0.7964 -0.0065
  465MOL0     C62674   3.881   8.644   5.918  0.4119  0.7908 -0.4370
  465MOL0     O62675   3.810   8.673   6.036 -0.5640 -0.7143 -0.4615
  465MOL0     C62676   3.862   8.785   6.118  0.5473  0.0306  0.2921
  465MOL0     C62677   3.745   8.810   6.211  0.6002  0.2856  0.2702
  465MOL0     C62678   3.776   8.884   6.341  0.1218 -0.6749  1.1041
  465MOL0     C62679   3.655   8.879   6.443  0.4670 -0.9421  0.0367
  465MOL0     C62680   3.685   8.943   6.577  0.2071 -0.2333  0.2723
  465MOL0     C62681   3.734   8.848   6.691  0.1768 -1.0925  0.2822
  465MOL0     C62682   3.778   8.921   6.815  0.5307  0.1423  0.5648
  465MOL0     C62683   3.677   8.896   6.931  0.3115 -1.1707  0.0436
  465MOL0    Cl62684   3.672   8.723   6.961 -0.0173  0.5920  0.0106
  465MOL0     C62685   4.024   8.658   5.911 -0.6933 -0.3958 -0.9241
  465MOL0     C62686   4.091   8.634   5.793 -0.5891 -0.3927  0.6956
  465MOL0     O62687   4.222   8.733   5.554  0.1419 -0.5020  1.2147
  465MOL0     C62688   4.214   8.461   5.338  0.3162 -0.0289 -0.0822
  465MOL0     C62689   4.288   8.382   5.246 -0.3279  0.0825 -0.3426
  465MOL0     N62690   4.677   8.246   4.543 -0.7011 -0.6329 -0.9929
  465MOL0     N62691   4.724   8.316   4.447 -0.0633 -1.1246 -0.0449
  465MOL0     C62692   5.081   8.934   3.796  0.1189  0.0288  0.8993
  465MOL0     C62693   5.155   8.902   3.691 -0.5268  0.2701  0.7691
  465MOL0     C62694   5.438   8.881   3.346  0.2502 -0.0363 -0.4395
  465MOL0     C62695   5.371   8.908   3.222 -0.0225 -0.2993 -0.6420
  465MOL0     C62696   5.431   8.872   3.107 -0.4753  0.9751 -0.1493
  465MOL0     C62697   5.553   8.808   3.105  0.0449 -0.1639  0.3617
  465MOL0     O62698   5.616   8.773   2.986  0.1542 -0.2624 -0.2941
  465MOL0     C62699   5.755   8.740   2.983 -0.1054 -0.8110  0.1811
  465MOL0     C62700   5.834   8.756   2.853 -0.1500 -0.0433 -0.0311
  465MOL0     C62701   5.813   8.895   2.801  0.0468 -0.2201 -0.1626
  465MOL0     C62702   5.911   8.927   2.685 -0.1757 -0.3306 -0.3231
  465MOL0     C62703   5.868   8.861   2.567  0.8834  0.2029  0.9167
  465MOL0     C62704   5.818   8.807   2.480 -0.0379  0.1040  0.7725
  465MOL0     C62705   5.623   8.787   3.229 -0.4726 -0.1679 -0.5304
  465MOL0     C62706   5.564   8.820   3.352  0.4373 -0.5642  0.3147
  465MOL0     C62707   5.650   8.794   3.481 -0.2776  0.2060  0.2827
  465MOL0     H62708   5.066   9.149   3.482 -2.1724  2.8102  1.9657
  465MOL0     H62709   4.921   9.216   3.676 -0.2481  0.8470  1.6684
  465MOL0     H62710   4.987   9.258   3.925  1.0377 -1.2669 -0.9191
  465MOL0     H62711   4.839   9.221   4.017 -0.2216 -2.2688  1.4336
  465MOL0     H62712   5.012   9.262   4.158 -1.8086  0.1991 -0.9710
  465MOL0     H62713   5.104   9.110   4.091  0.6558  0.1494  0.1979
  465MOL0     H62714   4.817   9.083   4.185 -0.4757 -2.4155  2.3399
  465MOL0     H62715   4.949   9.103   4.309 -0.7945  0.8262  0.4244
  465MOL0     H62716   4.954   8.894   4.092 -0.6587  1.5777 -0.0645
  465MOL0     H62717   5.063   8.908   4.227  1.7960  1.9329 -2.0360
  465MOL0     H62718   4.852   8.877   4.380  0.1856 -0.8033  0.2092
  465MOL0     H62719   4.758   8.836   4.237  2.0965 -1.9337 -3.5853
  465MOL0     H62720   4.941   8.661   4.187 -2.1904  2.8797 -0.5592
  465MOL0     H62721   5.020   8.697   4.335  1.7618 -1.9781 -2.5879
  465MOL0     H62722   4.738   8.582   4.305  1.7673 -0.1336 -0.5111
  465MOL0     H62723   4.792   8.644   4.459 -3.3940 -1.9268  0.4700
  465MOL0     H62724   4.934   8.422   4.317  2.0593  1.7538 -0.9372
  465MOL0     H62725   5.011   8.507   4.447 -0.0193 -0.2335  1.0264
  465MOL0     H62726   4.940   8.380   4.686  3.8441 -1.2290 -5.2791
  465MOL0     H62727   4.666   8.095   4.751  1.1302 -0.0131  0.3836
  465MOL0     H62728   4.803   8.152   4.835  0.4037 -1.2894 -1.1970
  465MOL0     H62729   4.692   8.347   4.942 -0.2027  0.3067  1.0485
  465MOL0     H62730   4.551   8.324   4.837  1.8840  2.2827 -0.9437
  465MOL0     H62731   4.638   8.142   5.054  0.8414 -0.4682 -0.1730
  465MOL0     H62732   4.529   8.089   4.925 -2.8297  0.7874  1.5982
  465MOL0     H62733   4.400   8.162   5.111  0.2695  0.5723 -0.8412
  465MOL0     H62734   4.378   8.294   4.994 -2.8535 -1.1182  0.6094
  465MOL0     H62735   4.588   8.531   5.294  0.7240 -0.8288  4.1023
  465MOL0     H62736   4.465   8.643   5.467  2.2446 -0.4228 -1.8881
  465MOL0     H62737   3.843   8.509   5.608  0.0332 -2.7018  1.5251
  465MOL0     H62738   3.710   8.585   5.804  0.5815 -0.3505  0.0099
  465MOL0     H62739   3.954   8.754   6.168  0.7683  1.4944  0.8559
  465MOL0     H62740   3.889   8.879   6.068  1.6208  1.0727  2.6528
  465MOL0     H62741   3.660   8.841   6.150 -0.6282  1.3921  2.4102
  465MOL0     H62742   3.707   8.713   6.244  0.0414  0.8986  1.4791
  465MOL0     H62743   3.864   8.843   6.390  1.3803  0.8464  0.2342
  465MOL0     H62744   3.805   8.984   6.306 -0.2045 -1.7800 -2.9216
  465MOL0     H62745   3.631   8.777   6.476 -0.4830  0.0994  2.8735
  465MOL0     H62746   3.560   8.914   6.400 -0.9199 -2.9201  1.2848
  465MOL0     H62747   3.589   8.978   6.614  0.1775  1.0193 -0.9336
  465MOL0     H62748   3.763   9.017   6.558  0.0482 -0.1831 -0.1808
  465MOL0     H62749   3.659   8.771   6.713 -1.1369  0.1485  0.2799
  465MOL0     H62750   3.819   8.794   6.648 -0.9256 -2.8758  0.2271
  465MOL0     H62751   3.777   9.030   6.807 -1.1855  0.0338 -1.9943
  465MOL0     H62752   3.878   8.895   6.851 -0.0829  0.8695  2.9652
  465MOL0     H62753   3.712   8.949   7.020 -0.7695  1.0979 -0.8044
  465MOL0     H62754   3.576   8.937   6.923  0.0302 -1.5607  1.4529
  465MOL0     H62755   4.084   8.681   5.998  2.1113 -1.5425 -2.3991
  465MOL0     H62756   4.200   8.632   5.791 -0.4967 -2.5671  2.5863
  465MOL0     H62757   4.112   8.426   5.345  0.0021  0.8577 -0.0465
  465MOL0     H62758   4.244   8.305   5.184  2.2365 -1.5543 -0.3244
  465MOL0     H62759   5.086   8.884   3.891 -2.4312  1.9871  2.2042
  465MOL0     H62760   5.213   8.811   3.676  0.1323  1.1591 -2.8351
  465MOL0     H62761   5.279   8.967   3.220 -0.1167 -0.4170  0.1775
  465MOL0     H62762   5.375   8.878   3.015 -1.3459  0.5259  0.3429
  465MOL0     H62763   5.758   8.637   3.019  0.6886 -0.8054  0.1500
  465MOL0     H62764   5.812   8.792   3.060 -0.8909 -1.4645  1.2300
  465MOL0     H62765   5.804   8.678   2.782  3.5687 -2.2993  0.5911
  465MOL0     H62766   5.939   8.739   2.879 -0.1581 -0.6526 -0.3766
  465MOL0     H62767   5.817   8.965   2.886  0.4056 -0.9355  0.4172
  465MOL0     H62768   5.718   8.911   2.751  0.0450 -1.0386 -0.4305
  465MOL0     H62769   5.921   9.033   2.660  2.0843 -0.7878 -1.5797
  465MOL0     H62770   6.013   8.898   2.710  0.9017  2.0093 -1.7200
  465MOL0     H62771   5.769   8.753   2.401  2.6841  0.3290 -1.2421
  465MOL0     H62772   5.719   8.737   3.243 -1.1936 -1.3592  0.2568
  465MOL0     H62773   5.745   8.746   3.457  1.0053  1.7128  2.0222
  465MOL0     H62774   5.673   8.899   3.504  1.2319 -0.3095  1.2478
  465MOL0     H62775   5.600   8.738   3.560  1.4004 -1.4362  0.2399
  466MOL0     O62776   7.560   2.260  10.092  1.0819  0.1255  0.1776
  466MOL0     C62777   7.503   2.267  10.200  0.1030 -0.6094  0.4341
  466MOL0     O62778   7.468   2.390  10.261  1.2837  0.2556  0.1244
  466MOL0     C62779   7.488   2.498  10.188 -0.3120 -1.2491  0.0239
  466MOL0     C62780   7.603   2.536  10.126 -0.7396  0.2209 -0.1085
  466MOL0     C62781   7.616   2.648  10.037  0.5733  1.2939 -0.4572
  466MOL0     C62782   7.506   2.737  10.035  0.5355 -0.4328 -0.2519
  466MOL0     O62783   7.533   2.857   9.980  0.1514  0.3905 -0.0754
  466MOL0     C62784   7.430   2.943   9.929  0.6613  0.6369 -0.5896
  466MOL0     C62785   7.479   3.004   9.802  0.3476 -0.8427 -0.1674
  466MOL0     C62786   7.600   3.092   9.838  0.2550  0.3697  0.0530
  466MOL0     C62787   7.643   3.188   9.724 -0.7149  0.4893 -0.1307
  466MOL0     C62788   7.768   3.263   9.761  0.2125  0.1895  0.7766
  466MOL0     C62789   7.743   3.408   9.807 -1.1143  0.2167  0.8181
  466MOL0     C62790   7.870   3.467   9.880 -0.7099  0.1195 -0.4159
  466MOL0     C62791   7.832   3.606   9.919  0.0889 -0.0523 -0.7833
  466MOL0     N62792   7.942   3.674   9.980 -0.1299 -0.7893 -0.0212
  466MOL0     C62793   8.049   3.727   9.919 -0.2035  1.1968  0.2206
  466MOL0     C62794   8.113   3.796  10.018 -0.1868 -0.0423 -0.1951
  466MOL0     C62795   8.243   3.883  10.012 -1.2917  0.0353  0.6915
  466MOL0     C62796   8.370   3.806  10.011 -0.5107 -0.4492 -0.3643
  466MOL0     C62797   8.381   3.689  10.117  0.2917 -0.2468 -0.2716
  466MOL0     C62798   8.527   3.639  10.123 -0.1340 -0.6695  0.2321
  466MOL0     O62799   8.627   3.744  10.139  0.5873  0.0090  0.4017
  466MOL0     C62800   8.750   3.719  10.086 -0.0757  0.4490 -1.1080
  466MOL0     C62801   8.822   3.812  10.011  0.1258  0.5497  0.0646
  466MOL0     C62802   8.956   3.784   9.970 -0.1281 -0.4944 -0.3459
  466MOL0     C62803   9.018   3.662   9.985  0.1899 -0.5298  0.1745
  466MOL0     C62804   9.151   3.628   9.940  0.1714  0.8206  1.3562
  466MOL0     O62805   9.231   3.727   9.894 -0.5625  0.1745 -0.4304
  466MOL0     C62806   9.366   3.700   9.882  0.0373 -2.0949  0.8011
  466MOL0     C62807   9.440   3.638   9.985 -0.2726 -1.0040  0.5497
  466MOL0     C62808   9.582   3.625   9.969 -0.0048 -0.0773  0.1196
  466MOL0     C62809   9.638   3.674   9.855  0.4748  0.2035  1.1927
  466MOL0     O62810   9.770   3.657   9.829 -0.1384 -0.1432  0.5058
  466MOL0     C62811   9.800   3.558   9.728 -0.1906 -0.2731 -0.3744
  466MOL0     C62812   9.944   3.566   9.685  0.4887  0.2092  1.0639
  466MOL0     C62813   9.968   3.706   9.606 -0.4283 -0.4502  0.5733
  466MOL0     C62814  10.103   3.698   9.535  0.2942 -0.0264  0.0184
  466MOL0     C62815  10.122   3.819   9.452  0.4681 -1.1447 -0.5470
  466MOL0     C62816  10.139   3.960   9.520 -0.6021 -0.2742  0.4117
  466MOL0     C62817  10.266   3.986   9.595  0.6000 -0.5239 -0.0373
  466MOL0     C62818  10.243   4.107   9.681 -0.9592  0.5640  1.0826
  466MOL0    Cl62819  10.387   4.150   9.795 -0.1012 -0.1835 -0.1712
  466MOL0     C62820   9.565   3.741   9.755 -0.0024 -0.0286 -0.5333
  466MOL0     C62821   9.426   3.749   9.775 -0.5369 -0.3626 -0.1520
  466MOL0     O62822   9.175   3.505   9.928  0.3105  0.1765  0.1839
  466MOL0     C62823   8.942   3.566  10.048 -0.7504  0.0179 -0.5223
  466MOL0     C62824   8.811   3.591  10.095 -0.0444 -0.7359 -0.3969
  466MOL0     N62825   8.041   3.779  10.139  0.1089 -0.6248  0.4094
  466MOL0     N62826   7.951   3.691  10.116  0.5621 -0.5347 -0.1938
  466MOL0     C62827   7.384   2.711  10.110 -1.0109  0.6565  0.1975
  466MOL0     C62828   7.376   2.587  10.177  0.2955  0.8464 -0.3147
  466MOL0     C62829   7.470   2.140  10.265  0.6862  0.8263  0.5551
  466MOL0     C62830   7.409   2.150  10.397 -0.3071 -0.0122 -0.3843
  466MOL0     C62831   7.371   2.034  10.463 -0.0498  0.1679 -0.7885
  466MOL0     C62832   7.361   1.910  10.401 -0.9442 -0.6628  0.6975
  466MOL0     O62833   7.348   1.800  10.485 -0.1163 -0.4863  0.6450
  466MOL0     C62834   7.287   1.682  10.439 -0.0317 -1.0875 -0.0279
  466MOL0     C62835   7.140   1.697  10.414 -0.0287 -0.0116  0.0242
  466MOL0     C62836   7.057   1.739  10.535  0.4132 -0.5510  0.3518
  466MOL0     C62837   6.965   1.858  10.498 -0.2381  0.2815 -0.2648
  466MOL0     C62838   6.852   1.821  10.410  0.4436  0.2912  0.1505
  466MOL0     C62839   6.770   1.790  10.331 -0.1853  0.8544  0.2311
  466MOL0     C62840   7.434   1.898  10.285  0.3331  0.0822  0.3340
  466MOL0     C62841   7.478   2.004  10.209 -0.0920 -0.6743 -0.0695
  466MOL0     C62842   7.525   1.971  10.072 -0.1138  0.3912  0.0919
  466MOL0     H62843   7.685   2.466  10.117  0.3998  1.6059 -0.9840
  466MOL0     H62844   7.711   2.673   9.992  0.3612  1.5752 -0.7522
  466MOL0     H62845   7.339   2.888   9.903 -0.0524  1.7949 -0.6081
  466MOL0     H62846   7.405   3.019  10.004 -1.0603 -0.4652  0.0344
  466MOL0     H62847   7.394   3.057   9.757  2.7128  2.2922 -1.2757
  466MOL0     H62848   7.502   2.934   9.721 -1.4503  0.5773 -2.0529
  466MOL0     H62849   7.689   3.039   9.872  1.4280 -0.9640 -4.4083
  466MOL0     H62850   7.568   3.165   9.914 -1.5028 -0.0863 -0.2176
  466MOL0     H62851   7.675   3.138   9.633 -1.0312  4.9853 -3.0094
  466MOL0     H62852   7.560   3.254   9.701 -0.6861  1.9273  3.2024
  466MOL0     H62853   7.821   3.212   9.842  2.3660  1.8815  0.5473
  466MOL0     H62854   7.833   3.269   9.673 -1.8942 -0.6794 -0.9320
  466MOL0     H62855   7.732   3.475   9.721  0.8932  2.9630  2.5770
  466MOL0     H62856   7.651   3.403   9.865 -0.7605 -2.8902  1.3020
  466MOL0     H62857   7.961   3.455   9.821  0.3538  1.1849  0.9661
  466MOL0     H62858   7.900   3.418   9.973  2.1429  2.0093 -0.2040
  466MOL0     H62859   7.776   3.658   9.841 -2.6526  0.0557  1.0911
  466MOL0     H62860   7.758   3.591   9.999  1.5328 -2.5274  0.1862
  466MOL0     H62861   8.074   3.718   9.814  4.1206  0.2726  1.1287
  466MOL0     H62862   8.238   3.954   9.929  4.6954 -0.4671 -0.5147
  466MOL0     H62863   8.246   3.937  10.107 -1.1611  1.2623  0.0024
  466MOL0     H62864   8.397   3.771   9.911  3.0532  1.1166 -0.0838
  466MOL0     H62865   8.451   3.875  10.035  1.0788 -0.6966 -4.3068
  466MOL0     H62866   8.310   3.610  10.092 -1.9963  1.0655  1.6423
  466MOL0     H62867   8.365   3.736  10.214 -0.3453 -0.6945 -0.1588
  466MOL0     H62868   8.545   3.599  10.023 -1.6443  2.9979 -1.7339
  466MOL0     H62869   8.541   3.570  10.207 -1.5038 -0.0379  1.0331
  466MOL0     H62870   8.764   3.899   9.983 -0.4502 -0.0313 -0.6190
  466MOL0     H62871   9.002   3.874   9.933 -0.1414 -0.5697 -0.5461
  466MOL0     H62872   9.389   3.605  10.075 -0.9682  0.1262  0.5980
  466MOL0     H62873   9.647   3.584  10.046  2.5836  1.4066 -1.1208
  466MOL0     H62874   9.802   3.457   9.769  2.3683  0.3768  1.3734
  466MOL0     H62875   9.732   3.574   9.645 -0.6729  2.3465  0.4185
  466MOL0     H62876  10.015   3.548   9.765  3.1970 -0.8480 -1.3956
  466MOL0     H62877   9.961   3.470   9.634  3.7159 -0.0170  2.3421
  466MOL0     H62878   9.891   3.732   9.532  2.6688  0.9806 -2.4113
  466MOL0     H62879   9.981   3.783   9.682 -1.0422  0.4824 -0.2514
  466MOL0     H62880  10.109   3.608   9.473  3.5933 -1.4244  2.1176
  466MOL0     H62881  10.180   3.691   9.611 -2.5552  1.4230  3.3060
  466MOL0     H62882  10.044   3.827   9.376 -0.5528  0.4521  0.6001
  466MOL0     H62883  10.207   3.805   9.384  1.0661  0.7840 -0.2691
  466MOL0     H62884  10.129   4.035   9.441  0.1840  0.2080  0.7570
  466MOL0     H62885  10.054   3.981   9.586 -2.2244  0.3113 -1.7107
  466MOL0     H62886  10.347   4.015   9.527  0.0264  2.2789  0.3201
  466MOL0     H62887  10.287   3.902   9.661  1.0747 -1.0317 -0.8205
  466MOL0     H62888  10.227   4.194   9.617 -1.3084  0.3363  0.8584
  466MOL0     H62889  10.156   4.089   9.745 -1.8063 -0.3066 -0.2677
  466MOL0     H62890   9.613   3.780   9.666 -1.2117  2.5543 -0.1403
  466MOL0     H62891   9.355   3.776   9.698 -0.3414  0.2172 -0.1328
  466MOL0     H62892   8.982   3.467  10.067  3.3264  1.1982 -1.8962
  466MOL0     H62893   8.762   3.502  10.133  0.9388 -1.3368 -0.5078
  466MOL0     H62894   7.309   2.788  10.100 -1.1212  0.3182 -2.2538
  466MOL0     H62895   7.282   2.557  10.221 -0.2647  1.3743 -1.1382
  466MOL0     H62896   7.413   2.243  10.452 -0.8774 -1.1537  1.6733
  466MOL0     H62897   7.332   2.049  10.563  1.3606 -0.7045 -0.0780
  466MOL0     H62898   7.288   1.601  10.512  2.1117 -2.3926 -1.4086
  466MOL0     H62899   7.348   1.645  10.357  4.7990  1.6168  1.9264
  466MOL0     H62900   7.093   1.609  10.368  0.5806  0.0029 -0.6498
  466MOL0     H62901   7.124   1.777  10.340  2.9771  0.6160 -0.0527
  466MOL0     H62902   7.127   1.760  10.616  2.1998 -0.8136 -1.0335
  466MOL0     H62903   6.987   1.660  10.560 -0.2306  0.4441  1.8673
  466MOL0     H62904   6.920   1.896  10.590  0.1662 -0.9733  0.4757
  466MOL0     H62905   7.032   1.940  10.471 -0.9598  1.2786  0.8486
  466MOL0     H62906   6.699   1.756  10.259  1.8309  1.2659 -2.0480
  466MOL0     H62907   7.450   1.796  10.253 -0.8531 -0.2278  0.7063
  466MOL0     H62908   7.619   2.016  10.037 -0.0895 -1.5765 -2.6497
  466MOL0     H62909   7.545   1.864  10.070 -2.4014 -0.0781 -0.0911
  466MOL0     H62910   7.448   1.996  10.000  0.0583  1.2078  0.1747
  467MOL0     O62911   6.492   0.985   1.053  0.0262 -0.6480 -0.1916
  467MOL0     C62912   6.467   0.892   0.967  0.5492 -0.5316 -0.0825
  467MOL0     O62913   6.546   0.788   0.942  0.0236 -0.0562  0.3964
  467MOL0     C62914   6.633   0.738   1.038  0.3844  0.2284 -0.4726
  467MOL0     C62915   6.630   0.761   1.180  0.2273  0.4347  0.1776
  467MOL0     C62916   6.700   0.683   1.266  1.1629 -0.6651 -0.4639
  467MOL0     C62917   6.799   0.602   1.211  0.5287  0.2998 -0.0472
  467MOL0     O62918   6.891   0.536   1.285  0.6185 -0.0390 -0.2516
  467MOL0     C62919   6.850   0.504   1.425 -0.2673  0.0606  1.3102
  467MOL0     C62920   6.899   0.598   1.536 -0.5017 -1.0576  0.4513
  467MOL0     C62921   7.047   0.638   1.524  0.2052 -0.6589  0.6539
  467MOL0     C62922   7.111   0.694   1.653 -0.3989 -0.5161  0.2846
  467MOL0     C62923   7.106   0.852   1.667  0.4896  0.3438  0.0661
  467MOL0     C62924   7.197   0.935   1.579 -0.6970 -0.2322 -1.0945
  467MOL0     C62925   7.176   1.092   1.603  0.4099 -0.7908 -0.7822
  467MOL0     C62926   7.313   1.152   1.637 -0.6432  0.8695 -1.3334
  467MOL0     N62927   7.323   1.299   1.620  0.7809  0.0382  0.1357
  467MOL0     C62928   7.395   1.353   1.516  0.9906  0.0995 -0.0086
  467MOL0     C62929   7.411   1.480   1.552  0.0770 -1.3264  0.3350
  467MOL0     C62930   7.471   1.587   1.456  0.0205 -0.3107 -0.4425
  467MOL0     C62931   7.602   1.561   1.398 -1.0507  0.0847  0.2412
  467MOL0     C62932   7.618   1.666   1.284 -0.4053  0.0170  0.2814
  467MOL0     C62933   7.644   1.812   1.318  0.0060  0.4813  0.0523
  467MOL0     O62934   7.781   1.850   1.361 -0.7861  0.7860 -0.4626
  467MOL0     C62935   7.817   1.985   1.361  0.3755  0.9184  0.2516
  467MOL0     C62936   7.861   2.067   1.469 -0.1090 -0.2413  0.0722
  467MOL0     C62937   7.904   2.196   1.445 -1.1574  0.0050 -0.4796
  467MOL0     C62938   7.895   2.250   1.316  0.7569 -0.2014 -0.2961
  467MOL0     C62939   7.931   2.395   1.298 -0.9991 -0.4009 -0.0924
  467MOL0     O62940   7.950   2.451   1.169  0.9370  0.7171 -0.5456
  467MOL0     C62941   7.973   2.581   1.152  0.1269 -0.1569 -0.0574
  467MOL0     C62942   8.067   2.614   1.055 -0.5868 -0.7670  0.4091
  467MOL0     C62943   8.109   2.742   1.013 -0.2823 -0.2483 -0.4533
  467MOL0     C62944   8.045   2.850   1.076 -0.0163 -0.0822 -1.2197
  467MOL0     O62945   8.057   2.983   1.059 -1.3276 -0.3295 -0.0492
  467MOL0     C62946   8.167   3.020   0.971  0.5489  0.1466 -0.7444
  467MOL0     C62947   8.180   3.170   0.980 -0.0868  0.0436  0.9924
  467MOL0     C62948   8.320   3.222   0.994  0.2396 -0.1945 -0.3252
  467MOL0     C62949   8.378   3.227   0.852 -0.4202 -0.2712  0.6381
  467MOL0     C62950   8.524   3.272   0.857 -0.0864 -0.2277 -0.9693
  467MOL0     C62951   8.586   3.313   0.720  0.1278 -0.0354 -0.3408
  467MOL0     C62952   8.735   3.339   0.740 -1.2520  0.3934 -0.0944
  467MOL0     C62953   8.803   3.373   0.609  0.6636 -0.8611 -0.5997
  467MOL0    Cl62954   8.817   3.229   0.519  0.0109  0.3016 -0.1554
  467MOL0     C62955   7.950   2.821   1.168 -0.2991 -1.2733  0.0029
  467MOL0     C62956   7.902   2.691   1.202  0.3420 -0.3543  0.3188
  467MOL0     O62957   7.946   2.466   1.404  0.8093  0.6183 -0.3210
  467MOL0     C62958   7.876   2.162   1.206 -0.1093 -0.2836  0.0887
  467MOL0     C62959   7.834   2.030   1.229 -0.3162 -0.0369  0.0111
  467MOL0     N62960   7.357   1.514   1.673 -0.1405  0.1625 -0.3529
  467MOL0     N62961   7.309   1.396   1.712  0.5437 -1.0377 -0.3672
  467MOL0     C62962   6.813   0.575   1.076  0.0639 -0.2598  0.7118
  467MOL0     C62963   6.726   0.644   0.990 -1.7857  0.0847 -0.1470
  467MOL0     C62964   6.349   0.922   0.873  0.9000 -0.9751 -0.2854
  467MOL0     C62965   6.318   0.820   0.783  0.2903 -0.1560 -0.7915
  467MOL0     C62966   6.208   0.836   0.698  0.2131  0.9978  0.2154
  467MOL0     C62967   6.132   0.955   0.692 -0.2678 -0.8218  0.7131
  467MOL0     O62968   6.031   0.973   0.601 -0.6264  0.0886  0.7206
  467MOL0     C62969   5.979   0.853   0.535  0.4738  0.0120 -0.3329
  467MOL0     C62970   5.902   0.892   0.414 -0.0178  0.0496 -0.2032
  467MOL0     C62971   5.784   0.988   0.448 -0.4187 -0.5353  0.3377
  467MOL0     C62972   5.710   1.048   0.332 -0.3900 -1.1413  0.1377
  467MOL0     C62973   5.634   0.961   0.239 -0.0645 -0.4989 -0.4104
  467MOL0     C62974   5.574   0.915   0.141 -0.1159 -0.2345  0.2423
  467MOL0     C62975   6.154   1.046   0.789 -0.1686  0.1871 -0.6126
  467MOL0     C62976   6.258   1.036   0.877 -1.1500 -0.1668 -0.5679
  467MOL0     C62977   6.270   1.163   0.954 -0.5149  0.1691  0.4389
  467MOL0     H62978   6.552   0.826   1.218  0.1294 -0.0077  0.7583
  467MOL0     H62979   6.688   0.708   1.371 -0.7243  0.9505 -1.0075
  467MOL0     H62980   6.743   0.482   1.432 -0.1215 -0.5476  1.7430
  467MOL0     H62981   6.902   0.411   1.450  2.6314  1.1828 -0.1229
  467MOL0     H62982   6.881   0.562   1.638  1.5261  3.1678  2.5814
  467MOL0     H62983   6.843   0.692   1.536 -1.3658 -1.5529  1.4120
  467MOL0     H62984   7.065   0.710   1.444 -0.0234 -1.0564  0.2447
  467MOL0     H62985   7.111   0.555   1.496  2.6878  0.7834  1.7005
  467MOL0     H62986   7.070   0.654   1.746  0.4232 -1.1190  0.3950
  467MOL0     H62987   7.213   0.655   1.653  0.5555  1.7761 -1.0607
  467MOL0     H62988   7.003   0.889   1.657  0.3569 -0.6701 -4.2656
  467MOL0     H62989   7.147   0.885   1.763  0.4982  3.8095 -1.0073
  467MOL0     H62990   7.295   0.899   1.613 -1.7258 -2.2469 -0.0962
  467MOL0     H62991   7.180   0.919   1.473  0.5684 -0.6243 -1.2577
  467MOL0     H62992   7.113   1.110   1.690  1.4143 -0.9451 -0.0090
  467MOL0     H62993   7.125   1.153   1.527  1.1779  0.1114 -0.5871
  467MOL0     H62994   7.354   1.127   1.736  3.6033  2.0686 -2.5742
  467MOL0     H62995   7.393   1.110   1.576  1.5269  1.5450  0.8534
  467MOL0     H62996   7.439   1.307   1.427  0.4024 -0.1496 -0.1790
  467MOL0     H62997   7.397   1.597   1.377 -0.6561 -1.0444  0.0837
  467MOL0     H62998   7.475   1.682   1.509  0.6105  0.2105 -1.3961
  467MOL0     H62999   7.674   1.570   1.481  2.8999 -2.1527 -2.5831
  467MOL0     H63000   7.614   1.458   1.363 -0.2011  0.3904 -0.3963
  467MOL0     H63001   7.532   1.675   1.217  0.9557 -0.1501 -1.5697
  467MOL0     H63002   7.702   1.634   1.221  0.8919  2.8835  0.3999
  467MOL0     H63003   7.575   1.841   1.399  0.1253 -2.0567  1.1606
  467MOL0     H63004   7.628   1.868   1.226  3.4239  0.4018 -0.7272
  467MOL0     H63005   7.865   2.024   1.568  0.1183 -0.1052  0.1226
  467MOL0     H63006   7.932   2.259   1.529 -0.4069  0.6996 -1.2454
  467MOL0     H63007   8.124   2.540   1.000  1.8192 -1.2914  3.3200
  467MOL0     H63008   8.164   2.752   0.920 -1.5308 -1.4496 -1.3533
  467MOL0     H63009   8.250   2.972   1.024 -0.2077  0.5492  0.8744
  467MOL0     H63010   8.151   2.984   0.869  2.5502 -3.6981  0.0678
  467MOL0     H63011   8.132   3.217   0.894 -0.2948 -0.5482  0.7840
  467MOL0     H63012   8.121   3.209   1.064 -1.8958 -0.4382  0.0099
  467MOL0     H63013   8.322   3.325   1.032  1.9724 -0.2410 -0.1996
  467MOL0     H63014   8.378   3.163   1.064  2.3757 -0.3038 -2.0640
  467MOL0     H63015   8.320   3.286   0.781  0.2258 -0.5846 -0.1693
  467MOL0     H63016   8.373   3.126   0.811 -0.3270  1.2771 -3.6451
  467MOL0     H63017   8.590   3.196   0.900  0.7418  1.3616  0.7184
  467MOL0     H63018   8.519   3.365   0.914 -1.5016 -0.4248 -0.7391
  467MOL0     H63019   8.565   3.248   0.635  0.1126  2.6489 -2.5386
  467MOL0     H63020   8.532   3.403   0.690  1.6305  0.8845 -0.3583
  467MOL0     H63021   8.782   3.249   0.780 -2.2951 -0.9758 -1.8286
  467MOL0     H63022   8.753   3.422   0.810  0.0729 -1.9491  2.5558
  467MOL0     H63023   8.745   3.449   0.556  1.3383 -0.7732 -1.2262
  467MOL0     H63024   8.903   3.414   0.628  0.5136 -0.5304 -0.5189
  467MOL0     H63025   7.891   2.892   1.226 -0.6903 -1.6876  0.1244
  467MOL0     H63026   7.834   2.669   1.284 -1.5883 -1.4346 -1.4785
  467MOL0     H63027   7.897   2.205   1.109  2.0454  0.6396  0.8968
  467MOL0     H63028   7.828   1.972   1.137 -0.5281  1.7168 -1.1341
  467MOL0     H63029   6.895   0.509   1.049  1.5856  1.4260  1.0106
  467MOL0     H63030   6.730   0.619   0.884  2.5635 -1.9176  0.2557
  467MOL0     H63031   6.377   0.730   0.771 -1.5723 -1.7424  1.2461
  467MOL0     H63032   6.189   0.748   0.639 -1.1369  0.8813  0.7777
  467MOL0     H63033   5.919   0.794   0.606  0.3388  1.3619  0.7268
  467MOL0     H63034   6.054   0.780   0.503 -0.1515  0.0130 -1.8779
  467MOL0     H63035   5.859   0.806   0.362 -2.3095  0.0517  1.5518
  467MOL0     H63036   5.970   0.957   0.359  1.7515  1.4651  3.2915
  467MOL0     H63037   5.835   1.069   0.500  0.2303 -0.4556 -0.3940
  467MOL0     H63038   5.712   0.934   0.510  0.4234 -0.1417  1.7016
  467MOL0     H63039   5.634   1.109   0.381 -1.6199 -2.1186 -0.4761
  467MOL0     H63040   5.780   1.106   0.272 -3.0488  0.1142 -1.9669
  467MOL0     H63041   5.522   0.882   0.053 -1.1560  0.9705  0.3877
  467MOL0     H63042   6.088   1.132   0.799  0.9717  0.8492  2.7822
  467MOL0     H63043   6.191   1.152   1.028 -0.8315 -2.9306 -0.2302
  467MOL0     H63044   6.366   1.171   1.006  0.6214 -1.6083 -1.2416
  467MOL0     H63045   6.259   1.247   0.884  2.6615 -0.0393 -0.4806
  468MOL0     O63046  10.693  11.131   2.867  0.2800  0.2887 -0.1822
  468MOL0     C63047  10.577  11.166   2.855 -0.2476  0.1034  0.4580
  468MOL0     O63048  10.474  11.089   2.884 -0.3099  0.0130 -0.0678
  468MOL0     C63049  10.498  10.974   2.961 -0.2063  0.0995 -0.4059
  468MOL0     C63050  10.432  10.862   2.925 -0.1490 -0.6119  0.3933
  468MOL0     C63051  10.445  10.738   2.996  0.0615  0.0548  0.6891
  468MOL0     C63052  10.551  10.723   3.087  0.5046 -0.4627 -0.7661
  468MOL0     O63053  10.585  10.601   3.137  0.6826  0.0443 -0.7967
  468MOL0     C63054  10.627  10.509   3.037 -0.0294  0.4797  0.3985
  468MOL0     C63055  10.665  10.380   3.103 -0.2130 -0.0381  0.5169
  468MOL0     C63056  10.540  10.293   3.143  0.3876 -0.0723  0.3809
  468MOL0     C63057  10.560  10.189   3.256  0.0383 -0.2167 -0.3497
  468MOL0     C63058  10.702  10.126   3.256  0.0344 -0.1594 -0.6629
  468MOL0     C63059  10.716  10.023   3.145  0.7232  0.3901 -0.1840
  468MOL0     C63060  10.619   9.908   3.158 -0.3612 -0.5467  0.3401
  468MOL0     C63061  10.523   9.880   3.045 -0.1181  0.3199  0.4562
  468MOL0     N63062  10.456   9.750   3.047 -0.4846 -0.4470  0.8607
  468MOL0     C63063  10.427   9.683   2.922 -0.0094 -0.4347 -0.7672
  468MOL0     C63064  10.327   9.596   2.950  0.3929 -0.2901  0.7281
  468MOL0     C63065  10.243   9.513   2.856 -0.4287 -0.3159 -0.4902
  468MOL0     C63066  10.316   9.396   2.804  0.2398 -0.0912 -0.1103
  468MOL0     C63067  10.270   9.349   2.661  0.0429 -0.1391  0.3592
  468MOL0     C63068  10.124   9.295   2.667  0.6844 -0.9038 -0.3039
  468MOL0     O63069  10.092   9.177   2.592 -0.8167  0.8688  0.1308
  468MOL0     C63070  10.187   9.072   2.600 -1.1852 -0.3864 -0.2087
  468MOL0     C63071  10.210   8.992   2.484  0.7075 -0.1757  0.2933
  468MOL0     C63072  10.300   8.884   2.499  0.1027 -0.3120  0.2211
  468MOL0     C63073  10.371   8.860   2.618  1.2182 -1.6681  0.5271
  468MOL0     C63074  10.458   8.747   2.630 -0.0370  0.7283 -0.1471
  468MOL0     O63075  10.488   8.678   2.511 -0.7549  0.6360  0.6258
  468MOL0     C63076  10.583   8.572   2.500 -0.0035  0.0381 -0.0225
  468MOL0     C63077  10.680   8.541   2.596 -0.4482  0.7501 -0.0482
  468MOL0     C63078  10.766   8.425   2.585 -0.1990 -0.1105 -0.3117
  468MOL0     C63079  10.765   8.347   2.462 -0.2626 -0.0501 -1.4121
  468MOL0     O63080  10.847   8.236   2.452 -0.0469 -1.0248 -0.6894
  468MOL0     C63081  10.797   8.120   2.515  0.2475 -0.3430  0.2912
  468MOL0     C63082  10.689   8.043   2.437 -0.0998  0.0188  0.6207
  468MOL0     C63083  10.735   8.009   2.293  0.4057 -0.6768  0.0164
  468MOL0     C63084  10.705   7.861   2.270 -1.3511 -0.3503  0.8081
  468MOL0     C63085  10.740   7.805   2.128 -0.0878  0.4215 -0.0183
  468MOL0     C63086  10.664   7.667   2.129  0.2538 -0.2981 -0.3019
  468MOL0     C63087  10.701   7.587   1.996 -0.1751  0.0768  0.5622
  468MOL0     C63088  10.642   7.449   1.968  0.1997 -0.2965  0.3719
  468MOL0    Cl63089  10.666   7.336   2.102 -0.1480  0.4897 -0.0287
  468MOL0     C63090  10.682   8.390   2.358 -0.1459  0.8920 -0.2837
  468MOL0     C63091  10.589   8.487   2.380  0.5994 -0.5605 -0.7932
  468MOL0     O63092  10.508   8.726   2.742 -0.0410 -0.0759  0.2282
  468MOL0     C63093  10.356   8.949   2.725  0.8975  0.0937  0.4401
  468MOL0     C63094  10.257   9.046   2.723  0.8050  1.1049 -0.7700
  468MOL0     N63095  10.289   9.618   3.084  0.4895 -0.3700  0.0351
  468MOL0     N63096  10.363   9.709   3.133 -0.2134  0.1646 -0.9859
  468MOL0     C63097  10.603  10.851   3.135 -0.0049 -0.3111  1.6918
  468MOL0     C63098  10.572  10.976   3.076  0.0265  0.8701 -1.1713
  468MOL0     C63099  10.551  11.294   2.785  0.1120 -0.6892  0.3830
  468MOL0     C63100  10.423  11.318   2.741  0.6497  0.1916 -0.6638
  468MOL0     C63101  10.384  11.443   2.690  0.7660  0.8156  1.1459
  468MOL0     C63102  10.476  11.540   2.650 -0.1555 -1.0921  0.4582
  468MOL0     O63103  10.459  11.662   2.591 -0.4064 -0.6926 -0.1939
  468MOL0     C63104  10.363  11.683   2.488  0.1370  0.7164 -0.2121
  468MOL0     C63105  10.371  11.830   2.449  0.2700 -0.1597 -0.4875
  468MOL0     C63106  10.326  11.921   2.563  0.1042  0.7117  0.3619
  468MOL0     C63107  10.453  11.991   2.624 -0.0638  0.6746  0.2270
  468MOL0     C63108  10.418  12.087   2.729 -0.4459  0.6032 -0.3955
  468MOL0     C63109  10.407  12.153   2.821 -0.4424 -1.3390 -0.2876
  468MOL0     C63110  10.605  11.510   2.678  0.4370 -0.1814 -0.9639
  468MOL0     C63111  10.646  11.389   2.739 -0.4177 -0.1366  0.5917
  468MOL0     C63112  10.800  11.384   2.758  0.2197  0.5101 -1.3077
  468MOL0     H63113  10.359  10.871   2.845  1.2335 -1.0591 -0.9730
  468MOL0     H63114  10.380  10.655   2.971 -0.4317  1.2279 -2.2825
  468MOL0     H63115  10.553  10.502   2.957  1.9206  1.9840 -1.7019
  468MOL0     H63116  10.709  10.552   2.978  1.1862 -0.1531  1.5801
  468MOL0     H63117  10.724  10.409   3.191 -2.0188  2.0119  1.1399
  468MOL0     H63118  10.735  10.326   3.038  1.1099  4.0151 -1.8129
  468MOL0     H63119  10.493  10.255   3.052 -1.0426  0.5311  0.8420
  468MOL0     H63120  10.465  10.366   3.176  0.9638  0.3157  0.8534
  468MOL0     H63121  10.551  10.244   3.350 -0.9084  1.4673 -1.3741
  468MOL0     H63122  10.486  10.110   3.266  0.4963 -0.7355 -0.9327
  468MOL0     H63123  10.774  10.207   3.241 -1.3129  0.6785 -3.3280
  468MOL0     H63124  10.708  10.074   3.352 -0.6275 -1.0572 -1.0886
  468MOL0     H63125  10.709  10.067   3.045 -3.0025  1.3401  0.3524
  468MOL0     H63126  10.818   9.986   3.157  1.5209  2.1083 -1.2850
  468MOL0     H63127  10.568   9.911   3.255 -0.9359 -2.1437  0.1132
  468MOL0     H63128  10.673   9.813   3.162  0.2299 -0.2948 -1.1469
  468MOL0     H63129  10.441   9.952   3.043 -2.2448 -1.8894 -3.2342
  468MOL0     H63130  10.580   9.897   2.953 -0.5578  0.4133  0.1959
  468MOL0     H63131  10.484   9.704   2.832 -0.6667  0.0620 -1.0785
  468MOL0     H63132  10.149   9.482   2.902 -0.7782  1.0335 -0.2593
  468MOL0     H63133  10.202   9.570   2.772  0.1224 -0.6386 -0.9890
  468MOL0     H63134  10.423   9.420   2.798 -0.2282  1.9308 -1.7953
  468MOL0     H63135  10.295   9.316   2.875  0.4379 -1.9384 -2.0407
  468MOL0     H63136  10.337   9.267   2.633  0.3827 -0.1216  1.1042
  468MOL0     H63137  10.272   9.435   2.594 -0.1578  0.0315  0.5681
  468MOL0     H63138  10.059   9.374   2.630  3.4587  1.7573  0.0933
  468MOL0     H63139  10.093   9.274   2.770 -3.8039  1.7280 -0.8700
  468MOL0     H63140  10.154   9.013   2.394 -1.3614  0.8979  1.7559
  468MOL0     H63141  10.313   8.815   2.416 -0.8829 -3.9739  2.8616
  468MOL0     H63142  10.689   8.604   2.684 -4.9288  1.1163  0.3715
  468MOL0     H63143  10.823   8.394   2.672 -1.4341  0.1835  0.6417
  468MOL0     H63144  10.884   8.057   2.533  1.9307  1.3659 -1.4224
  468MOL0     H63145  10.749   8.147   2.610 -0.2775 -0.2353  0.0041
  468MOL0     H63146  10.674   7.950   2.493 -0.3131 -0.1994  0.1999
  468MOL0     H63147  10.590   8.091   2.437 -0.2446 -0.2747  0.2489
  468MOL0     H63148  10.686   8.073   2.219 -1.2530 -0.1892  1.4793
  468MOL0     H63149  10.843   8.026   2.290  0.2728  0.0617 -1.8097
  468MOL0     H63150  10.597   7.857   2.286 -1.4984  1.7097  0.5920
  468MOL0     H63151  10.764   7.802   2.340 -0.1318 -2.3864 -1.7845
  468MOL0     H63152  10.846   7.784   2.109  0.8069  1.2669  3.3288
  468MOL0     H63153  10.721   7.877   2.048 -0.2842 -1.4653 -1.7421
  468MOL0     H63154  10.692   7.612   2.219  0.4655  1.0356  0.4775
  468MOL0     H63155  10.558   7.692   2.132  0.8765  3.3591 -2.1840
  468MOL0     H63156  10.809   7.575   2.003  0.1206  2.1598  0.4301
  468MOL0     H63157  10.679   7.655   1.913 -0.1480  3.6202  3.2084
  468MOL0     H63158  10.535   7.451   1.943  0.4018 -0.2488 -0.5420
  468MOL0     H63159  10.695   7.401   1.885  0.4502  1.3903 -0.4671
  468MOL0     H63160  10.691   8.341   2.262 -0.3346 -0.7524  0.5126
  468MOL0     H63161  10.524   8.521   2.300  1.1164  2.6683 -0.0125
  468MOL0     H63162  10.402   8.927   2.821  0.2725  0.1910  0.7650
  468MOL0     H63163  10.219   9.090   2.815  0.9388  0.4819 -0.4127
  468MOL0     H63164  10.682  10.852   3.209  0.0187  2.8542  1.7551
  468MOL0     H63165  10.629  11.066   3.096 -0.6993  1.1413 -0.3057
  468MOL0     H63166  10.342  11.268   2.794  1.0756  1.2656  1.1073
  468MOL0     H63167  10.276  11.455   2.682  0.3340 -1.6469  2.3423
  468MOL0     H63168  10.262  11.660   2.524  0.0085  1.0854 -0.3301
  468MOL0     H63169  10.376  11.614   2.404  0.8254  0.0840  0.3972
  468MOL0     H63170  10.291  11.845   2.376 -1.2042  1.7728  1.3897
  468MOL0     H63171  10.469  11.850   2.406  0.5264 -3.5714 -1.8122
  468MOL0     H63172  10.266  11.860   2.631  1.3107 -0.2529  0.6060
  468MOL0     H63173  10.264  11.997   2.515 -1.0859  0.0286  0.7709
  468MOL0     H63174  10.521  11.920   2.672 -1.9072  0.8153  3.2853
  468MOL0     H63175  10.507  12.055   2.554  0.2149 -0.4052 -0.5712
  468MOL0     H63176  10.424  12.229   2.895  0.7641  0.5327 -2.3892
  468MOL0     H63177  10.675  11.589   2.653  1.1280 -1.1921 -2.3491
  468MOL0     H63178  10.837  11.289   2.719 -1.3674 -1.2759  1.1956
  468MOL0     H63179  10.850  11.466   2.706 -2.1660  1.7518 -1.7773
  468MOL0     H63180  10.819  11.397   2.865 -1.8589  1.0835 -0.9613
  469MOL0     O63181   1.759   2.905   9.975 -0.2097 -0.2921 -0.1884
  469MOL0     C63182   1.702   2.805   9.926 -0.0740  0.0459 -0.4173
  469MOL0     O63183   1.760   2.710   9.848 -0.4492  0.2944 -0.1741
  469MOL0     C63184   1.892   2.719   9.813 -0.5630 -0.0492  0.9145
  469MOL0     C63185   1.932   2.809   9.708 -0.1914 -0.3537 -0.1696
  469MOL0     C63186   2.073   2.832   9.692 -0.3651 -0.3764  0.5951
  469MOL0     C63187   2.174   2.760   9.761  0.3876 -0.3806 -0.4014
  469MOL0     O63188   2.299   2.772   9.707  0.3192 -0.0610  0.2674
  469MOL0     C63189   2.381   2.832   9.805 -0.1573  0.1235  0.0665
  469MOL0     C63190   2.524   2.865   9.746  0.8044  0.1752  0.1548
  469MOL0     C63191   2.513   2.990   9.659  0.3767 -0.6050  0.1252
  469MOL0     C63192   2.428   2.967   9.533  0.4861 -0.5557 -0.2582
  469MOL0     C63193   2.457   3.079   9.429 -0.0756 -0.3381  0.2530
  469MOL0     C63194   2.459   3.227   9.480  0.3325  0.0031 -0.1837
  469MOL0     C63195   2.322   3.272   9.535 -0.3613 -0.6033  0.5194
  469MOL0     C63196   2.193   3.218   9.464  0.4328 -0.8652 -0.7190
  469MOL0     N63197   2.169   3.291   9.338  0.5499  0.9233  0.2780
  469MOL0     C63198   2.077   3.389   9.317  0.1459 -0.2843  0.0622
  469MOL0     C63199   2.102   3.435   9.192  0.7942 -0.3719 -0.4876
  469MOL0     C63200   2.018   3.535   9.109  0.5504  0.2091 -0.0401
  469MOL0     C63201   1.960   3.482   8.973 -0.8692  0.0315 -0.5259
  469MOL0     C63202   1.903   3.339   8.981 -1.1186  1.4814  0.3815
  469MOL0     C63203   1.876   3.279   8.848  0.5273 -1.3835 -0.1391
  469MOL0     O63204   1.782   3.369   8.785 -0.4375  0.3518 -0.6619
  469MOL0     C63205   1.711   3.341   8.672 -0.3231  0.0444  0.4107
  469MOL0     C63206   1.735   3.218   8.599  0.5618  0.0350  0.4695
  469MOL0     C63207   1.669   3.188   8.483  0.1712 -0.7021 -1.0605
  469MOL0     C63208   1.575   3.274   8.420  0.3402 -0.0686  0.2204
  469MOL0     C63209   1.520   3.260   8.285  0.0641  0.6837 -0.5303
  469MOL0     O63210   1.563   3.165   8.203  0.0367  0.2257  0.6248
  469MOL0     C63211   1.524   3.179   8.070  0.0692  0.0811  0.2792
  469MOL0     C63212   1.607   3.248   7.980 -0.0131 -0.0657  0.5432
  469MOL0     C63213   1.570   3.240   7.848  0.4714  0.1698  0.8472
  469MOL0     C63214   1.463   3.154   7.795  0.4568 -0.1322 -0.5408
  469MOL0     O63215   1.428   3.153   7.664  0.6728 -0.2210  0.3165
  469MOL0     C63216   1.543   3.115   7.582  0.9528 -0.2643 -0.1562
  469MOL0     C63217   1.497   3.088   7.443  0.2609  0.2634  0.2882
  469MOL0     C63218   1.423   2.951   7.428  0.1231 -0.3060 -0.0027
  469MOL0     C63219   1.405   2.900   7.293 -1.7233  0.5170 -0.0767
  469MOL0     C63220   1.295   2.795   7.298 -0.3324 -0.1037  0.2177
  469MOL0     C63221   1.295   2.716   7.161  0.0291 -0.2043  0.1369
  469MOL0     C63222   1.411   2.614   7.147 -0.0158  0.0154 -0.3232
  469MOL0     C63223   1.387   2.487   7.227 -0.2794 -0.3386  0.2987
  469MOL0    Cl63224   1.284   2.379   7.138  0.1036  0.1202 -0.0062
  469MOL0     C63225   1.378   3.093   7.884  0.5313 -0.9843 -0.2301
  469MOL0     C63226   1.416   3.101   8.021 -0.4966  0.5728 -0.5915
  469MOL0     O63227   1.442   3.351   8.256 -0.4091 -0.7946  0.3674
  469MOL0     C63228   1.535   3.385   8.505  0.6059 -0.4976 -0.6231
  469MOL0     C63229   1.597   3.411   8.629 -0.2995  0.9545 -0.2938
  469MOL0     N63230   2.214   3.361   9.148  0.3210 -0.1676  0.1408
  469MOL0     N63231   2.256   3.273   9.229 -0.1971  0.2074 -0.6418
  469MOL0     C63232   2.129   2.663   9.852 -0.0538  0.6324 -0.1272
  469MOL0     C63233   1.984   2.648   9.883 -0.2486 -0.2608 -0.3458
  469MOL0     C63234   1.558   2.806   9.944 -0.0061 -0.4678  0.1395
  469MOL0     C63235   1.495   2.843  10.060 -1.3637 -0.1564 -0.2535
  469MOL0     C63236   1.357   2.833  10.080  0.4537 -0.6331 -0.4985
  469MOL0     C63237   1.270   2.814   9.974 -0.1211  0.6287 -0.1890
  469MOL0     O63238   1.134   2.805  10.001 -0.1098  0.3149  0.2305
  469MOL0     C63239   1.040   2.770   9.900 -1.3997  0.1608 -0.2906
  469MOL0     C63240   0.899   2.779   9.958 -0.9804 -0.4744  0.0227
  469MOL0     C63241   0.866   2.678  10.077  0.5244  0.3409  0.7229
  469MOL0     C63242   0.863   2.526  10.026 -0.3401 -0.2202  1.5809
  469MOL0     C63243   0.775   2.510   9.908 -0.6552  0.0829  0.3023
  469MOL0     C63244   0.705   2.487   9.817 -0.3781 -0.1969  0.3050
  469MOL0     C63245   1.335   2.790   9.850 -0.5671 -0.5265 -0.4702
  469MOL0     C63246   1.474   2.787   9.836 -0.1904  0.4508 -0.2137
  469MOL0     C63247   1.529   2.744   9.698 -1.0172 -0.3841  0.1798
  469MOL0     H63248   1.878   2.879   9.645  1.8436  0.1664 -1.4294
  469MOL0     H63249   2.103   2.898   9.612 -2.4896 -0.7724 -0.6228
  469MOL0     H63250   2.329   2.920   9.844  1.5431  0.1762  2.4432
  469MOL0     H63251   2.377   2.769   9.894 -1.4375 -3.4694 -2.3187
  469MOL0     H63252   2.549   2.775   9.690  2.7723  0.8348 -0.0978
  469MOL0     H63253   2.602   2.885   9.821 -0.5285  0.0153  1.6501
  469MOL0     H63254   2.612   3.014   9.621 -0.3782 -1.1881 -2.4162
  469MOL0     H63255   2.467   3.074   9.712 -1.3930  1.0799 -3.7344
  469MOL0     H63256   2.447   2.866   9.496 -3.6483 -1.5239 -0.1606
  469MOL0     H63257   2.323   2.962   9.562  0.2883  0.3246 -0.7994
  469MOL0     H63258   2.561   3.065   9.395  0.2836  0.6029  0.9153
  469MOL0     H63259   2.383   3.074   9.349 -1.7184  0.5470  1.6567
  469MOL0     H63260   2.534   3.246   9.558  1.6159 -1.0205 -1.1190
  469MOL0     H63261   2.467   3.303   9.402  0.3589  2.0339  1.6692
  469MOL0     H63262   2.316   3.381   9.527  1.6687 -0.5245 -0.4277
  469MOL0     H63263   2.302   3.247   9.640 -2.8063 -0.1790  0.2286
  469MOL0     H63264   2.189   3.111   9.439 -3.8362 -1.2535  0.7603
  469MOL0     H63265   2.111   3.239   9.534 -0.7736 -4.4468 -0.8239
  469MOL0     H63266   1.999   3.422   9.385  1.0126  0.6565  0.6333
  469MOL0     H63267   1.938   3.572   9.174  2.0033  2.5968  0.5186
  469MOL0     H63268   2.079   3.624   9.094  0.0988  0.7888  1.3725
  469MOL0     H63269   1.874   3.544   8.946 -1.5671 -0.9791 -0.6672
  469MOL0     H63270   2.040   3.496   8.900  1.7409  0.8782  2.3114
  469MOL0     H63271   1.816   3.339   9.047 -1.4107  2.0709  0.0094
  469MOL0     H63272   1.984   3.276   9.020 -1.2272  1.8231  1.1814
  469MOL0     H63273   1.821   3.185   8.853 -1.6164 -0.2056 -0.3981
  469MOL0     H63274   1.959   3.276   8.776  1.2621 -0.7037  0.6488
  469MOL0     H63275   1.805   3.147   8.642 -0.3402 -0.9587  0.3142
  469MOL0     H63276   1.689   3.097   8.427  2.8048 -0.3554 -0.8255
  469MOL0     H63277   1.704   3.292   8.002 -1.0226  3.7560 -1.7530
  469MOL0     H63278   1.615   3.304   7.773  0.5927 -1.1090 -0.2085
  469MOL0     H63279   1.607   3.204   7.577  1.5760 -0.6308  0.9693
  469MOL0     H63280   1.588   3.024   7.622  1.7191 -1.5860 -3.6310
  469MOL0     H63281   1.422   3.166   7.425  0.2204  0.6223  1.8202
  469MOL0     H63282   1.577   3.089   7.369  1.7754 -1.4706  1.8001
  469MOL0     H63283   1.481   2.872   7.476  4.1131  0.5416 -2.9208
  469MOL0     H63284   1.330   2.946   7.484 -0.2583  0.6488 -0.5161
  469MOL0     H63285   1.505   2.867   7.261 -0.3185  3.2910  1.1754
  469MOL0     H63286   1.372   2.978   7.224 -2.4942 -0.1029 -0.4337
  469MOL0     H63287   1.201   2.852   7.309  0.8116  1.8445  0.4643
  469MOL0     H63288   1.307   2.725   7.381 -0.6573 -1.1305 -0.5773
  469MOL0     H63289   1.202   2.661   7.144  0.5671 -1.3069  0.6162
  469MOL0     H63290   1.304   2.787   7.078 -3.5911  0.6944  0.3486
  469MOL0     H63291   1.501   2.651   7.197 -1.1503  2.0913  0.3095
  469MOL0     H63292   1.444   2.595   7.044  2.1024 -0.8316  0.4620
  469MOL0     H63293   1.485   2.440   7.221  0.7523  1.8306 -1.7242
  469MOL0     H63294   1.351   2.488   7.330  0.5587 -1.5158  0.6193
  469MOL0     H63295   1.284   3.057   7.844  1.2289  0.6348 -3.7613
  469MOL0     H63296   1.353   3.050   8.094 -1.2620 -1.6597 -2.6644
  469MOL0     H63297   1.460   3.458   8.478  2.0198  1.7339  1.0945
  469MOL0     H63298   1.567   3.498   8.686 -0.0647  1.0656 -0.3354
  469MOL0     H63299   2.209   2.599   9.886  1.0667  0.0681 -3.4986
  469MOL0     H63300   1.956   2.580   9.963  0.0212 -0.0071 -0.0313
  469MOL0     H63301   1.554   2.873  10.146  0.4646 -0.1619 -1.4324
  469MOL0     H63302   1.332   2.844  10.185  2.9084  1.5089 -0.0295
  469MOL0     H63303   1.057   2.668   9.865  1.8906 -1.7745  5.5451
  469MOL0     H63304   1.041   2.845   9.821  3.1865 -0.2475 -0.8639
  469MOL0     H63305   0.824   2.769   9.880 -1.3027  1.6331  0.0277
  469MOL0     H63306   0.885   2.880   9.998 -0.5183 -0.9601  1.5081
  469MOL0     H63307   0.762   2.694  10.105 -0.1243  2.0006 -2.1871
  469MOL0     H63308   0.944   2.680  10.154  0.1079 -0.4413  1.1800
  469MOL0     H63309   0.959   2.481  10.002  0.0331 -0.5127  3.4647
  469MOL0     H63310   0.828   2.455  10.101 -3.7638  1.1934  1.5359
  469MOL0     H63311   0.647   2.489   9.728 -1.5637 -2.8144  0.9051
  469MOL0     H63312   1.271   2.764   9.765 -1.4922  2.0917 -0.6747
  469MOL0     H63313   1.439   2.725   9.639  0.7989 -0.9648 -2.5606
  469MOL0     H63314   1.590   2.814   9.640 -2.0599 -0.7738 -1.4701
  469MOL0     H63315   1.584   2.650   9.706  0.3753  0.2661 -1.2561
  470MOL0     O63316   4.798   3.048   8.271 -0.1236  0.2516  0.2256
  470MOL0     C63317   4.819   3.158   8.217 -0.0129 -0.5965  0.3427
  470MOL0     O63318   4.791   3.186   8.093 -0.5397  0.4614  0.5603
  470MOL0     C63319   4.757   3.084   8.005 -0.1867  0.2088 -0.3656
  470MOL0     C63320   4.834   2.961   7.992  0.2491  0.4978 -0.4155
  470MOL0     C63321   4.793   2.864   7.907  0.0283  0.0644 -0.5483
  470MOL0     C63322   4.675   2.870   7.833  0.1174  0.3556  0.2856
  470MOL0     O63323   4.635   2.773   7.745  0.2635 -0.3983 -0.0594
  470MOL0     C63324   4.520   2.700   7.804 -0.1653 -0.0712 -0.5116
  470MOL0     C63325   4.482   2.592   7.702 -0.2266 -0.0388 -0.3729
  470MOL0     C63326   4.601   2.496   7.668 -0.1228 -0.7603  0.1092
  470MOL0     C63327   4.555   2.359   7.636 -0.6313  0.1382  0.2296
  470MOL0     C63328   4.674   2.259   7.655 -0.3315  0.3101 -0.1873
  470MOL0     C63329   4.617   2.119   7.640 -0.3050 -0.1096  0.9964
  470MOL0     C63330   4.726   2.012   7.655  0.7531 -0.2879 -0.1361
  470MOL0     C63331   4.717   1.949   7.790  0.0585  0.2661 -1.0291
  470MOL0     N63332   4.828   1.855   7.816  0.2992  0.2895 -0.4006
  470MOL0     C63333   4.925   1.802   7.733 -0.1567 -0.0144  0.2561
  470MOL0     C63334   4.984   1.700   7.799 -0.4182  0.4871 -0.6335
  470MOL0     C63335   5.088   1.603   7.730 -0.1519  0.3533 -0.7343
  470MOL0     C63336   5.010   1.478   7.681 -0.1099  0.1363 -0.6345
  470MOL0     C63337   4.908   1.506   7.574  0.2096  0.4636 -0.2234
  470MOL0     C63338   4.759   1.484   7.612 -0.3693  0.5289  0.6207
  470MOL0     O63339   4.684   1.529   7.496 -0.0687  0.1685 -0.1924
  470MOL0     C63340   4.547   1.563   7.519  0.1827 -0.1806 -0.1130
  470MOL0     C63341   4.474   1.594   7.636  0.5810  0.1856 -0.1514
  470MOL0     C63342   4.343   1.640   7.625 -0.6506  0.5088 -0.8224
  470MOL0     C63343   4.278   1.643   7.495  0.6980 -0.4515 -0.2834
  470MOL0     C63344   4.149   1.703   7.477  0.4604 -0.5274  0.1344
  470MOL0     O63345   4.122   1.754   7.353  0.4533 -0.8929  0.7182
  470MOL0     C63346   3.992   1.796   7.340  0.0798  0.7875  1.4689
  470MOL0     C63347   3.974   1.928   7.379  0.6132  0.0348  0.5322
  470MOL0     C63348   3.842   1.970   7.377 -0.0963  0.4817  0.2963
  470MOL0     C63349   3.747   1.883   7.320 -0.6297 -0.0664 -0.4704
  470MOL0     O63350   3.628   1.941   7.299  0.2402  0.7742  0.1491
  470MOL0     C63351   3.520   1.867   7.246  0.0604 -0.4823 -0.0087
  470MOL0     C63352   3.405   1.966   7.229 -0.3959  0.2181 -1.3839
  470MOL0     C63353   3.276   1.897   7.193 -0.1215 -0.6969 -0.3433
  470MOL0     C63354   3.179   2.018   7.169  0.1426  0.3012 -0.4855
  470MOL0     C63355   3.046   1.975   7.108  0.4858  0.0926  1.1544
  470MOL0     C63356   2.918   2.063   7.132 -0.3716  0.8033 -0.4559
  470MOL0     C63357   2.871   2.014   7.270  1.3216 -0.0934 -0.0949
  470MOL0     C63358   2.817   2.136   7.355  0.2463  0.1244  0.7331
  470MOL0    Cl63359   2.678   2.194   7.267 -0.4091  0.4006 -0.1157
  470MOL0     C63360   3.772   1.750   7.309 -0.3324 -0.7301  0.5320
  470MOL0     C63361   3.896   1.703   7.324  0.3205 -0.4849  0.7132
  470MOL0     O63362   4.065   1.697   7.572 -0.8000  0.3540  0.0106
  470MOL0     C63363   4.349   1.605   7.379  0.2299  0.2456 -0.5248
  470MOL0     C63364   4.477   1.565   7.397  0.4949  0.7542 -0.1308
  470MOL0     N63365   4.929   1.696   7.926 -0.6483 -0.8135  0.0601
  470MOL0     N63366   4.829   1.787   7.931  0.3320  0.5068 -0.2625
  470MOL0     C63367   4.621   2.995   7.833 -0.4163 -0.6322 -0.3878
  470MOL0     C63368   4.652   3.096   7.919 -0.8847 -0.2502  0.0743
  470MOL0     C63369   4.852   3.270   8.309  0.2294  0.1522  0.5107
  470MOL0     C63370   4.914   3.374   8.248  0.0846  0.3036 -0.2259
  470MOL0     C63371   4.940   3.491   8.325 -0.2501 -0.0628  0.0801
  470MOL0     C63372   4.887   3.501   8.455 -0.4721 -0.9060 -0.1639
  470MOL0     O63373   4.922   3.614   8.528 -0.5637 -0.2585  0.1437
  470MOL0     C63374   4.859   3.666   8.647  0.7928  0.6248 -0.5680
  470MOL0     C63375   4.770   3.788   8.614  0.1289 -0.2892  0.8772
  470MOL0     C63376   4.692   3.858   8.725  0.3041  0.7322  0.1137
  470MOL0     C63377   4.569   3.778   8.774  0.1621 -0.2583 -0.5391
  470MOL0     C63378   4.617   3.673   8.874 -0.0477 -0.2107 -1.1259
  470MOL0     C63379   4.648   3.585   8.946  0.1316  0.2372 -0.1690
  470MOL0     C63380   4.815   3.402   8.511 -0.3790  0.1370  0.6161
  470MOL0     C63381   4.792   3.280   8.444 -0.2052  0.3643 -0.7081
  470MOL0     C63382   4.714   3.180   8.527  0.0141 -0.8074  0.5613
  470MOL0     H63383   4.916   2.948   8.062 -0.4110  2.8725  0.8820
  470MOL0     H63384   4.846   2.769   7.906 -2.9050 -1.6991 -0.5884
  470MOL0     H63385   4.555   2.658   7.899 -0.6671  1.1675  0.2422
  470MOL0     H63386   4.426   2.752   7.822 -0.1341 -0.5612  1.1822
  470MOL0     H63387   4.439   2.648   7.618 -1.1905  1.1754  0.8834
  470MOL0     H63388   4.398   2.536   7.744  1.4862  0.1216  3.7617
  470MOL0     H63389   4.683   2.482   7.739  1.5872 -1.8544 -1.9606
  470MOL0     H63390   4.656   2.530   7.581  0.3527  0.8702  0.9973
  470MOL0     H63391   4.464   2.330   7.689 -1.0411  1.6748  0.4188
  470MOL0     H63392   4.533   2.360   7.529 -0.4490  1.3486  0.1920
  470MOL0     H63393   4.762   2.271   7.590 -1.2426 -0.0588 -1.5410
  470MOL0     H63394   4.707   2.261   7.759 -1.3270  0.5809  0.1334
  470MOL0     H63395   4.527   2.106   7.700 -1.7399 -0.5175 -1.1381
  470MOL0     H63396   4.582   2.103   7.537  0.2487 -2.4999  1.1176
  470MOL0     H63397   4.823   2.061   7.643  0.3667  1.2786  2.3383
  470MOL0     H63398   4.719   1.925   7.589  1.9532 -1.8873  1.7137
  470MOL0     H63399   4.694   2.031   7.859  0.5301  0.6485 -1.3192
  470MOL0     H63400   4.629   1.885   7.789 -0.6396  1.2013 -0.7238
  470MOL0     H63401   4.950   1.848   7.637 -2.1091 -2.7427 -1.7291
  470MOL0     H63402   5.141   1.650   7.647 -0.2285  0.3627 -0.7780
  470MOL0     H63403   5.165   1.579   7.804 -0.2159 -3.1682 -1.6329
  470MOL0     H63404   5.082   1.403   7.647 -0.8813 -0.8659 -0.0817
  470MOL0     H63405   4.957   1.434   7.766  0.5172 -0.4915 -0.5605
  470MOL0     H63406   4.930   1.429   7.499  2.5279 -1.0604  1.8725
  470MOL0     H63407   4.924   1.599   7.519 -1.0206  1.2381  0.6616
  470MOL0     H63408   4.745   1.540   7.705  0.0292 -0.0014  1.0064
  470MOL0     H63409   4.728   1.380   7.625 -0.3036 -0.0798 -2.9866
  470MOL0     H63410   4.523   1.594   7.733  0.2421  0.2809  0.0238
  470MOL0     H63411   4.296   1.677   7.716  0.4512 -2.4432  1.1180
  470MOL0     H63412   4.052   2.000   7.405 -0.4585  1.5754 -0.3683
  470MOL0     H63413   3.813   2.071   7.403 -1.9826 -0.2514  1.1932
  470MOL0     H63414   3.549   1.814   7.154 -0.4326 -1.4349  0.3626
  470MOL0     H63415   3.497   1.795   7.325 -0.2378  1.2332  1.5196
  470MOL0     H63416   3.390   2.011   7.328 -2.2283  1.5175 -2.1857
  470MOL0     H63417   3.440   2.051   7.170  1.1693  1.2747  0.9152
  470MOL0     H63418   3.291   1.835   7.104 -3.9695  0.0249 -1.7183
  470MOL0     H63419   3.247   1.820   7.264 -1.9319  0.7913  0.6409
  470MOL0     H63420   3.234   2.092   7.111  3.0819 -0.3888  1.2290
  470MOL0     H63421   3.159   2.064   7.267  1.6724 -3.3398  1.7536
  470MOL0     H63422   3.029   1.868   7.124  2.0262 -0.4087 -0.2876
  470MOL0     H63423   3.086   1.978   7.007  5.0522  2.4468  2.7721
  470MOL0     H63424   2.961   2.163   7.133 -1.0690  1.1374 -1.7979
  470MOL0     H63425   2.836   2.073   7.061  0.8267  4.1186 -1.5873
  470MOL0     H63426   2.939   1.967   7.342  2.3786 -0.4528 -1.2948
  470MOL0     H63427   2.789   1.942   7.254 -0.4634  2.0775 -1.2210
  470MOL0     H63428   2.779   2.103   7.452 -0.1182  0.3603  0.6685
  470MOL0     H63429   2.888   2.218   7.369  0.5057 -0.2339  1.5842
  470MOL0     H63430   3.699   1.682   7.265  0.0800 -0.0343 -1.3112
  470MOL0     H63431   3.910   1.595   7.325 -2.4161 -0.9629  3.0731
  470MOL0     H63432   4.307   1.606   7.279 -2.4889 -1.4524  0.4835
  470MOL0     H63433   4.531   1.524   7.312  0.3218 -2.1398  1.0394
  470MOL0     H63434   4.542   3.016   7.761  0.4682  0.5859 -1.0393
  470MOL0     H63435   4.592   3.184   7.902 -0.0406 -0.1214 -2.6579
  470MOL0     H63436   4.950   3.375   8.145  2.1165  2.1158  0.4109
  470MOL0     H63437   4.991   3.573   8.276 -1.7142  1.0544  0.3839
  470MOL0     H63438   4.933   3.715   8.711  0.7412  0.0551 -0.0641
  470MOL0     H63439   4.801   3.596   8.708  0.7462  0.6042 -0.6372
  470MOL0     H63440   4.711   3.776   8.523  1.7874 -1.5768 -0.0875
  470MOL0     H63441   4.850   3.860   8.597  0.1854 -0.2301  1.3950
  470MOL0     H63442   4.663   3.959   8.694  1.4933  0.9275 -0.3979
  470MOL0     H63443   4.754   3.877   8.813  0.6318 -2.6391  0.7283
  470MOL0     H63444   4.483   3.837   8.808 -0.4218 -1.4504  0.1769
  470MOL0     H63445   4.516   3.735   8.688 -2.2966  0.2938  0.5929
  470MOL0     H63446   4.693   3.507   9.005 -0.3626 -0.8318 -1.1490
  470MOL0     H63447   4.792   3.396   8.617  3.2637 -1.0704  1.5140
  470MOL0     H63448   4.772   3.134   8.607 -1.8223  0.4200  2.7048
  470MOL0     H63449   4.626   3.226   8.574  0.3898 -0.3003  0.7728
  470MOL0     H63450   4.672   3.104   8.460 -0.4614 -0.8918  0.9522
  471MOL0     O63451   5.999   6.585   6.257 -0.2313 -0.4009 -0.3617
  471MOL0     C63452   6.041   6.671   6.187  0.1767  0.2931  0.2098
  471MOL0     O63453   5.970   6.738   6.093 -0.2097  0.2103 -0.6063
  471MOL0     C63454   5.836   6.713   6.097  1.0989 -0.4020 -0.3896
  471MOL0     C63455   5.751   6.796   6.182 -0.6566  0.5603  0.4309
  471MOL0     C63456   5.618   6.769   6.202  0.1652 -1.0793  1.3776
  471MOL0     C63457   5.556   6.661   6.132  0.6394  0.7041  1.2722
  471MOL0     O63458   5.412   6.655   6.138 -0.3858  0.2455  0.2266
  471MOL0     C63459   5.351   6.532   6.165  0.2227  0.3170 -0.4837
  471MOL0     C63460   5.205   6.560   6.218  0.5877  0.4126  0.2310
  471MOL0     C63461   5.130   6.428   6.229  0.0210  0.3554 -0.5360
  471MOL0     C63462   5.100   6.392   6.375  0.4581  0.4829  1.0648
  471MOL0     C63463   5.015   6.264   6.396 -0.5315  0.2368  0.4032
  471MOL0     C63464   4.903   6.285   6.489  0.3079  0.0379 -0.5909
  471MOL0     C63465   4.820   6.162   6.514  0.0191  0.2101 -0.5227
  471MOL0     C63466   4.672   6.189   6.579 -0.2808  0.3369 -0.6395
  471MOL0     N63467   4.565   6.216   6.479 -1.4142 -0.0953  0.9004
  471MOL0     C63468   4.547   6.348   6.436  0.3477  0.0979 -1.3066
  471MOL0     C63469   4.447   6.356   6.355  1.4703  0.1007  0.7252
  471MOL0     C63470   4.390   6.467   6.264  0.3626 -0.9192 -0.4849
  471MOL0     C63471   4.501   6.520   6.165 -0.3719  0.2273 -1.0620
  471MOL0     C63472   4.442   6.635   6.083 -0.3104 -0.1723  0.2337
  471MOL0     C63473   4.559   6.671   5.977  0.4143 -0.4401  0.4554
  471MOL0     O63474   4.655   6.761   6.046  0.1276  0.2156  0.4937
  471MOL0     C63475   4.775   6.794   5.975  0.0345  0.1673  0.6842
  471MOL0     C63476   4.785   6.787   5.831 -0.2233 -0.1539  0.1732
  471MOL0     C63477   4.903   6.825   5.765 -0.8497  0.1787  0.6260
  471MOL0     C63478   5.008   6.863   5.843 -0.2824  0.6296  0.0836
  471MOL0     C63479   5.140   6.877   5.776 -0.2418 -0.2127 -0.7543
  471MOL0     O63480   5.241   6.803   5.826  0.6557 -0.2259 -0.2882
  471MOL0     C63481   5.365   6.819   5.770 -1.3096  0.3209  1.2319
  471MOL0     C63482   5.405   6.818   5.630  0.0596 -0.1940 -0.7685
  471MOL0     C63483   5.536   6.833   5.600 -0.9039 -0.0679  1.1180
  471MOL0     C63484   5.641   6.846   5.700  1.2329  0.4739  0.0547
  471MOL0     O63485   5.763   6.863   5.648 -0.5840 -0.4638 -0.5866
  471MOL0     C63486   5.885   6.838   5.721  0.9488 -0.5189  0.0032
  471MOL0     C63487   6.007   6.876   5.641  0.3071  0.9445 -0.4579
  471MOL0     C63488   6.008   6.801   5.507 -0.3296 -0.4110  0.5546
  471MOL0     C63489   6.151   6.785   5.462 -0.0809 -0.1263  0.5116
  471MOL0     C63490   6.157   6.655   5.379 -0.0140  0.0953  0.2867
  471MOL0     C63491   6.274   6.674   5.282 -0.0522  0.1890  0.1835
  471MOL0     C63492   6.293   6.566   5.167 -0.6354  0.0077 -0.3809
  471MOL0     C63493   6.291   6.430   5.236 -0.0766  0.4058  0.0536
  471MOL0    Cl63494   6.325   6.294   5.118 -0.0012  0.1174 -0.3537
  471MOL0     C63495   5.591   6.843   5.829 -0.5412  0.0907  0.0982
  471MOL0     C63496   5.462   6.835   5.864 -1.4782 -0.2103 -0.6594
  471MOL0     O63497   5.140   6.938   5.676  0.1044 -0.4913  0.2216
  471MOL0     C63498   4.996   6.857   5.979 -0.3317  0.4737  0.6967
  471MOL0     C63499   4.883   6.823   6.038 -0.7343 -0.0021  0.4472
  471MOL0     N63500   4.385   6.235   6.348  0.4438 -0.7578 -0.1899
  471MOL0     N63501   4.457   6.146   6.407 -0.3485 -0.1266 -0.1721
  471MOL0     C63502   5.636   6.582   6.048  0.8932 -0.1466 -0.0319
  471MOL0     C63503   5.772   6.621   6.018 -0.1998  0.3687 -0.0320
  471MOL0     C63504   6.184   6.704   6.211  0.7130 -0.3089  0.0609
  471MOL0     C63505   6.229   6.837   6.215 -0.7073 -0.3145 -0.7190
  471MOL0     C63506   6.357   6.868   6.249 -0.3261  0.0740 -0.3278
  471MOL0     C63507   6.462   6.769   6.264 -0.0692 -0.5756 -0.7915
  471MOL0     O63508   6.585   6.812   6.297  0.0992  0.4179  0.1340
  471MOL0     C63509   6.689   6.716   6.310 -0.0754 -0.2995 -0.5914
  471MOL0     C63510   6.756   6.667   6.182  0.1260 -0.4727 -0.8999
  471MOL0     C63511   6.835   6.775   6.114  1.0518 -0.4675  1.9243
  471MOL0     C63512   6.935   6.704   6.017  0.0474  0.5133 -0.2111
  471MOL0     C63513   7.008   6.813   5.961  0.0875 -0.8319  0.2576
  471MOL0     C63514   7.067   6.901   5.905 -0.3044  0.4809  0.5064
  471MOL0     C63515   6.425   6.626   6.267 -0.1091 -0.7456 -0.4939
  471MOL0     C63516   6.284   6.598   6.228 -0.1453 -1.4884  0.0496
  471MOL0     C63517   6.255   6.461   6.194 -0.0069  0.1419  0.2612
  471MOL0     H63518   5.802   6.874   6.239 -0.9169  0.9813  0.0940
  471MOL0     H63519   5.567   6.830   6.276 -0.9269  0.1891 -0.3391
  471MOL0     H63520   5.347   6.474   6.071  1.8569  0.8105 -0.8736
  471MOL0     H63521   5.405   6.462   6.229  0.8450  1.5375  0.3538
  471MOL0     H63522   5.160   6.630   6.147  0.4000  0.9829  0.9055
  471MOL0     H63523   5.209   6.610   6.315  1.3280  2.5291 -0.8289
  471MOL0     H63524   5.187   6.346   6.184 -1.6204 -0.7823 -0.6037
  471MOL0     H63525   5.031   6.427   6.183 -0.8121  0.4912  1.1578
  471MOL0     H63526   5.193   6.380   6.431  0.8960  0.4075  0.3326
  471MOL0     H63527   5.038   6.474   6.413 -1.9210 -1.0431  0.6683
  471MOL0     H63528   4.969   6.221   6.307 -2.2870  0.2019  1.2842
  471MOL0     H63529   5.077   6.189   6.446  1.5097  1.7041  0.1941
  471MOL0     H63530   4.951   6.334   6.575  0.8955  0.0675 -0.9290
  471MOL0     H63531   4.836   6.355   6.439 -1.6011 -0.1597  1.5565
  471MOL0     H63532   4.885   6.101   6.577  1.9852  0.7339 -1.9398
  471MOL0     H63533   4.798   6.112   6.419 -1.6330  1.2774 -0.7379
  471MOL0     H63534   4.649   6.098   6.635  2.5101  0.9291  1.7030
  471MOL0     H63535   4.682   6.279   6.639  1.2419  1.9963 -3.1995
  471MOL0     H63536   4.596   6.439   6.470 -1.1746 -0.6105  3.5734
  471MOL0     H63537   4.310   6.421   6.205  0.9496 -0.8832 -1.3284
  471MOL0     H63538   4.355   6.552   6.322 -2.0142 -0.0221 -3.0174
  471MOL0     H63539   4.594   6.552   6.212 -0.8424  0.1474 -0.0375
  471MOL0     H63540   4.514   6.435   6.097  0.3813 -1.8076  1.4459
  471MOL0     H63541   4.406   6.711   6.153 -0.0877 -0.3061  0.4958
  471MOL0     H63542   4.352   6.593   6.039 -1.6634  0.5779  2.1466
  471MOL0     H63543   4.529   6.719   5.884 -1.8621 -1.1489  0.7474
  471MOL0     H63544   4.611   6.584   5.937  1.1711  0.9843 -1.8115
  471MOL0     H63545   4.698   6.758   5.773 -0.5227  1.9551 -0.5142
  471MOL0     H63546   4.909   6.828   5.657  2.0014 -2.1086  0.5940
  471MOL0     H63547   5.321   6.820   5.561 -0.2871  0.6563 -0.3487
  471MOL0     H63548   5.564   6.831   5.495 -2.1640 -1.6126  0.7657
  471MOL0     H63549   5.897   6.894   5.814  0.9434  0.4131 -0.5465
  471MOL0     H63550   5.889   6.730   5.740  0.2584 -0.1658  2.5747
  471MOL0     H63551   6.019   6.984   5.624  2.0991  1.3410  2.5789
  471MOL0     H63552   6.091   6.835   5.697 -1.0436 -0.8249  0.3760
  471MOL0     H63553   5.960   6.706   5.530 -0.8567  0.5460  4.0464
  471MOL0     H63554   5.953   6.837   5.420  0.2215  0.8098  0.6961
  471MOL0     H63555   6.223   6.792   5.543 -1.2981  3.0768  1.4748
  471MOL0     H63556   6.165   6.870   5.395 -3.6514 -1.4191 -2.2238
  471MOL0     H63557   6.063   6.641   5.325  0.7549 -2.6637 -0.4785
  471MOL0     H63558   6.176   6.575   5.451  0.3278  0.7458  0.9362
  471MOL0     H63559   6.257   6.770   5.232 -1.7949  0.2634  0.8807
  471MOL0     H63560   6.364   6.675   5.345 -0.8682  0.2030  1.3721
  471MOL0     H63561   6.395   6.574   5.128  0.9404 -0.2528  3.2442
  471MOL0     H63562   6.215   6.546   5.093 -0.3378 -0.7682 -0.4985
  471MOL0     H63563   6.369   6.426   5.313 -0.6260  0.8565  0.6466
  471MOL0     H63564   6.190   6.416   5.276 -0.2205 -1.6251 -0.8825
  471MOL0     H63565   5.667   6.836   5.907  2.8976 -3.5782 -3.1016
  471MOL0     H63566   5.427   6.830   5.967 -0.7357 -1.8443 -0.4632
  471MOL0     H63567   5.079   6.891   6.041 -0.8754 -2.8376  3.5794
  471MOL0     H63568   4.888   6.826   6.147  0.4340 -0.5880  0.4319
  471MOL0     H63569   5.595   6.500   5.990 -1.7856  1.4431 -0.5918
  471MOL0     H63570   5.817   6.565   5.937 -1.8568 -3.2138  1.3009
  471MOL0     H63571   6.158   6.919   6.220  0.0414  0.2825  0.8876
  471MOL0     H63572   6.394   6.969   6.261 -0.0542 -0.1686  1.0047
  471MOL0     H63573   6.665   6.631   6.374  0.5810  0.5185  0.7796
  471MOL0     H63574   6.766   6.771   6.365  0.1133 -2.0600  0.9947
  471MOL0     H63575   6.676   6.639   6.113 -1.8012  0.3913  0.8289
  471MOL0     H63576   6.817   6.584   6.216  2.2095  0.9635 -0.9502
  471MOL0     H63577   6.889   6.834   6.189  0.1602 -0.3391  2.4736
  471MOL0     H63578   6.775   6.840   6.051  2.0547 -2.7899 -1.7413
  471MOL0     H63579   7.005   6.642   6.073  1.6178  0.2343 -2.3569
  471MOL0     H63580   6.885   6.661   5.929 -1.4726  0.0463  0.8447
  471MOL0     H63581   7.136   6.961   5.850  0.5330 -2.4930 -1.9478
  471MOL0     H63582   6.504   6.555   6.289  0.5139 -0.9270 -3.0271
  471MOL0     H63583   6.197   6.437   6.105  2.3597 -2.0278 -0.8103
  471MOL0     H63584   6.347   6.405   6.179  1.9636  2.8372  1.4421
  471MOL0     H63585   6.212   6.408   6.280 -1.4057 -1.0449 -1.0946
  472MOL0     O63586   2.461   8.006   8.409 -0.3966  0.5671 -0.3798
  472MOL0     C63587   2.552   8.055   8.484  0.8707  0.0407  0.5330
  472MOL0     O63588   2.653   8.137   8.438  0.7907 -0.6148  0.4428
  472MOL0     C63589   2.662   8.145   8.300  0.0337 -1.5108  0.6539
  472MOL0     C63590   2.708   8.027   8.237 -1.2426  0.1327  0.1364
  472MOL0     C63591   2.735   8.027   8.101  0.7257 -0.6472 -0.0775
  472MOL0     C63592   2.717   8.141   8.022  0.7905  0.2204  0.1019
  472MOL0     O63593   2.742   8.132   7.886 -0.7178 -0.4192  0.3092
  472MOL0     C63594   2.798   8.252   7.827 -0.3230  0.3419  0.2941
  472MOL0     C63595   2.837   8.234   7.678  0.7725 -0.0236  0.1102
  472MOL0     C63596   2.958   8.311   7.630 -0.5075 -0.1227  0.6383
  472MOL0     C63597   2.965   8.329   7.471  0.3021 -0.2675  0.1450
  472MOL0     C63598   2.950   8.197   7.398 -0.9511  0.0812  0.3886
  472MOL0     C63599   3.005   8.199   7.259 -1.0579  1.3475  0.0135
  472MOL0     C63600   2.981   8.060   7.186 -1.2194  0.1292 -0.5260
  472MOL0     C63601   3.050   8.068   7.048  0.6716  0.4538 -0.2644
  472MOL0     N63602   3.089   7.932   6.998  0.3112  0.2468  0.3215
  472MOL0     C63603   3.003   7.835   6.955 -0.4372  0.2558 -0.4912
  472MOL0     C63604   3.086   7.728   6.919 -0.3270 -0.6735 -0.4519
  472MOL0     C63605   3.043   7.600   6.851  0.1179 -1.5299 -0.1006
  472MOL0     C63606   2.920   7.616   6.757 -0.5729  0.3671  0.4295
  472MOL0     C63607   2.888   7.500   6.660  1.0821  0.1404  0.3249
  472MOL0     C63608   2.847   7.374   6.731 -0.2672  0.3381  0.4487
  472MOL0     O63609   2.833   7.271   6.632 -0.1512 -0.4348  0.1117
  472MOL0     C63610   2.782   7.149   6.655 -0.7058 -0.0971 -0.1643
  472MOL0     C63611   2.790   7.058   6.550 -0.4811  0.4955 -1.2965
  472MOL0     C63612   2.741   6.933   6.572  0.4216  0.7330 -0.8282
  472MOL0     C63613   2.683   6.891   6.697  0.3169 -0.4648 -0.6527
  472MOL0     C63614   2.625   6.761   6.719  0.6368  0.4675 -0.7516
  472MOL0     O63615   2.645   6.667   6.622 -0.5583  0.1347  0.1371
  472MOL0     C63616   2.588   6.541   6.635  0.6198 -0.4829 -0.5579
  472MOL0     C63617   2.464   6.505   6.687 -0.3988  0.1989 -0.0154
  472MOL0     C63618   2.424   6.372   6.692 -0.0769 -0.0189 -0.3465
  472MOL0     C63619   2.498   6.271   6.635 -0.9460  1.0587  0.1278
  472MOL0     O63620   2.468   6.137   6.636  0.0221 -0.3543  0.5795
  472MOL0     C63621   2.371   6.079   6.732  0.1818 -0.3513  0.3563
  472MOL0     C63622   2.402   5.944   6.760  0.6411  0.5944  0.5413
  472MOL0     C63623   2.544   5.915   6.816 -0.3005 -0.5931 -0.8786
  472MOL0     C63624   2.530   5.861   6.959 -0.2650 -1.2341  0.0333
  472MOL0     C63625   2.673   5.837   7.018 -0.9485  0.6041 -0.2824
  472MOL0     C63626   2.730   5.694   6.996  0.8589  0.3478 -0.2557
  472MOL0     C63627   2.833   5.658   7.101  0.0088  0.4697 -0.4410
  472MOL0     C63628   2.768   5.644   7.240 -0.7178 -0.2280  0.9482
  472MOL0    Cl63629   2.900   5.596   7.356 -0.0390 -0.3213 -0.3340
  472MOL0     C63630   2.609   6.310   6.567 -0.8032 -0.1384  0.3692
  472MOL0     C63631   2.651   6.443   6.564 -0.5209  1.0360 -0.0749
  472MOL0     O63632   2.563   6.742   6.826 -1.0911 -0.5055 -0.7582
  472MOL0     C63633   2.688   6.988   6.806 -0.0633  0.6665  0.3718
  472MOL0     C63634   2.733   7.116   6.779  0.1073 -0.1364 -0.3623
  472MOL0     N63635   3.214   7.774   6.941 -0.3723  0.4691 -0.8133
  472MOL0     N63636   3.220   7.896   6.980  0.6918  0.6399  0.0498
  472MOL0     C63637   2.667   8.258   8.086  0.0377 -0.3648  0.0081
  472MOL0     C63638   2.638   8.259   8.227 -0.5046  0.0618  0.7413
  472MOL0     C63639   2.507   8.074   8.630 -0.6842  0.8280  0.2919
  472MOL0     C63640   2.451   7.955   8.687  0.2404  0.4127 -1.4129
  472MOL0     C63641   2.419   7.960   8.824  0.9074 -0.5788  0.2307
  472MOL0     C63642   2.441   8.081   8.898  0.0105  1.2777 -0.1217
  472MOL0     O63643   2.430   8.097   9.035  0.7513  0.3343  0.3638
  472MOL0     C63644   2.375   7.984   9.105  0.5748 -0.7492  0.1598
  472MOL0     C63645   2.323   8.041   9.240  0.5267 -0.1359 -0.1409
  472MOL0     C63646   2.238   8.159   9.202  0.5658 -0.4747 -0.3072
  472MOL0     C63647   2.152   8.203   9.318  0.5393 -0.3385 -1.2328
  472MOL0     C63648   2.232   8.257   9.434  0.2028 -0.2857  0.1740
  472MOL0     C63649   2.284   8.308   9.532  0.1634 -0.4888  0.0693
  472MOL0     C63650   2.467   8.200   8.838 -0.6049  0.5095  0.0438
  472MOL0     C63651   2.506   8.201   8.702 -0.5084 -0.6680 -0.6736
  472MOL0     C63652   2.553   8.330   8.635 -0.6346  0.4701 -0.9400
  472MOL0     H63653   2.712   7.933   8.292 -4.8549 -0.5449 -0.5045
  472MOL0     H63654   2.769   7.935   8.054 -0.6818  0.3928 -3.4539
  472MOL0     H63655   2.729   8.337   7.826 -2.6831 -1.4988 -0.0220
  472MOL0     H63656   2.896   8.269   7.874  0.3377 -3.7369  0.7137
  472MOL0     H63657   2.744   8.258   7.626 -0.3711 -0.0211  2.0478
  472MOL0     H63658   2.851   8.127   7.664  1.8303  0.1203 -0.0398
  472MOL0     H63659   3.048   8.257   7.659  0.7833  1.8247  0.4636
  472MOL0     H63660   2.963   8.405   7.687 -0.1080 -1.1255  2.3150
  472MOL0     H63661   2.885   8.400   7.445  2.0288  1.0713 -1.7748
  472MOL0     H63662   3.048   8.387   7.430  0.1725 -0.4834 -0.4297
  472MOL0     H63663   3.004   8.125   7.460 -0.6472  0.7389  0.9008
  472MOL0     H63664   2.845   8.171   7.378 -0.5398  0.6406 -3.1385
  472MOL0     H63665   2.953   8.272   7.197  0.4191 -0.7499 -4.0825
  472MOL0     H63666   3.109   8.229   7.247 -1.8504  3.1510 -3.9867
  472MOL0     H63667   2.874   8.040   7.173 -1.6236  3.0735 -2.8684
  472MOL0     H63668   3.034   7.977   7.234  0.0466 -0.8383 -3.3985
  472MOL0     H63669   2.991   8.129   6.979  1.2702  3.4394  1.6693
  472MOL0     H63670   3.145   8.122   7.054  0.6328  0.6444 -1.1735
  472MOL0     H63671   2.895   7.833   6.948 -0.3968 -2.4608 -1.6203
  472MOL0     H63672   3.117   7.557   6.783  0.7795 -0.7607  0.1213
  472MOL0     H63673   3.011   7.526   6.925  1.5321  1.1392  3.4415
  472MOL0     H63674   2.823   7.642   6.801 -1.8600 -1.5637 -1.0856
  472MOL0     H63675   2.950   7.687   6.679 -1.1212 -2.6355 -2.7332
  472MOL0     H63676   2.981   7.475   6.608  0.1444 -2.7010 -0.1352
  472MOL0     H63677   2.802   7.528   6.599 -0.2207  0.3443  2.1561
  472MOL0     H63678   2.747   7.389   6.772  0.3651 -2.5394  3.4852
  472MOL0     H63679   2.905   7.352   6.821 -0.6363  0.4576  0.7169
  472MOL0     H63680   2.839   7.082   6.456  2.1404  1.3238  0.1741
  472MOL0     H63681   2.757   6.858   6.495 -1.9950 -1.9144  1.0390
  472MOL0     H63682   2.402   6.588   6.717  0.0392  1.4375 -2.3194
  472MOL0     H63683   2.327   6.345   6.734  0.4063  1.8047  2.1411
  472MOL0     H63684   2.374   6.128   6.830  0.2040 -1.6734  1.0435
  472MOL0     H63685   2.275   6.095   6.682  1.0436 -1.5962 -1.8256
  472MOL0     H63686   2.330   5.905   6.833 -0.8314  1.4716 -0.3813
  472MOL0     H63687   2.383   5.893   6.665 -0.2027  2.1773 -0.1809
  472MOL0     H63688   2.600   5.848   6.750  2.5554 -1.0072  1.7515
  472MOL0     H63689   2.599   6.009   6.821  2.7099 -2.2296 -0.9624
  472MOL0     H63690   2.470   5.769   6.964 -3.0231  0.5123  1.6004
  472MOL0     H63691   2.476   5.932   7.023 -1.0033 -0.5387 -1.3340
  472MOL0     H63692   2.660   5.851   7.126 -3.2278 -2.2294 -0.0658
  472MOL0     H63693   2.751   5.906   6.985  2.8942 -0.1163  5.6683
  472MOL0     H63694   2.652   5.619   7.004  0.8229  0.3781 -0.3294
  472MOL0     H63695   2.780   5.680   6.900 -0.9966 -0.5740 -1.1297
  472MOL0     H63696   2.898   5.746   7.097 -0.2587  0.6892 -0.0635
  472MOL0     H63697   2.886   5.565   7.079  0.5341  0.4412  0.8458
  472MOL0     H63698   2.730   5.738   7.281  1.7316  1.1133  0.3142
  472MOL0     H63699   2.695   5.562   7.246 -0.9662  0.0984  2.9725
  472MOL0     H63700   2.686   6.242   6.532  1.4966  0.6768  3.3631
  472MOL0     H63701   2.741   6.468   6.510 -0.5667 -0.4931 -0.9258
  472MOL0     H63702   2.680   6.954   6.909 -1.2732 -0.2602 -0.0038
  472MOL0     H63703   2.721   7.195   6.853  0.9462 -0.5165  0.1940
  472MOL0     H63704   2.643   8.341   8.021  0.0083  0.3360  0.8980
  472MOL0     H63705   2.589   8.346   8.269 -1.5413  0.1302 -0.5208
  472MOL0     H63706   2.443   7.855   8.646 -0.2155 -1.5459  2.8819
  472MOL0     H63707   2.376   7.871   8.869  0.9381 -0.3184  0.7843
  472MOL0     H63708   2.450   7.907   9.124  0.9416 -0.4489 -0.0768
  472MOL0     H63709   2.287   7.945   9.052  0.8371 -0.3634 -0.5721
  472MOL0     H63710   2.405   8.062   9.308  2.1139 -1.2267 -1.6279
  472MOL0     H63711   2.267   7.962   9.290  1.5148 -0.9557 -0.2984
  472MOL0     H63712   2.185   8.161   9.106  1.8377  2.7342 -1.0639
  472MOL0     H63713   2.293   8.253   9.200 -0.8222  0.4106  0.8985
  472MOL0     H63714   2.100   8.294   9.287  0.4094  0.6364  1.5350
  472MOL0     H63715   2.082   8.126   9.351  1.2062 -0.5088 -0.1935
  472MOL0     H63716   2.327   8.373   9.606  1.8349 -1.3159 -0.1384
  472MOL0     H63717   2.479   8.291   8.897 -1.8005  0.8954 -0.2985
  472MOL0     H63718   2.661   8.324   8.626 -0.4362 -2.7988  1.5912
  472MOL0     H63719   2.498   8.344   8.541 -1.6136  1.2520 -0.2733
  472MOL0     H63720   2.526   8.416   8.697 -3.0043  1.3946 -3.0788
  473MOL0     O63721   6.472   6.334  10.278 -0.2109 -0.7562  0.7519
  473MOL0     C63722   6.548   6.262  10.344 -0.0331 -0.0322 -0.7128
  473MOL0     O63723   6.495   6.161  10.413 -0.1638 -0.3410 -0.5429
  473MOL0     C63724   6.354   6.138  10.405 -1.3672 -0.2082 -0.5311
  473MOL0     C63725   6.311   6.059  10.298  0.3924  0.8276  1.1307
  473MOL0     C63726   6.175   6.041  10.298 -0.7085 -0.0995 -0.3597
  473MOL0     C63727   6.081   6.099  10.391 -0.1801 -0.6047 -0.1935
  473MOL0     O63728   5.947   6.081  10.366 -0.4705  0.1717 -0.0024
  473MOL0     C63729   5.886   6.160  10.267  0.3827 -0.3591 -0.0068
  473MOL0     C63730   5.857   6.086  10.133  0.6497 -0.2061 -0.9316
  473MOL0     C63731   5.763   6.185  10.052 -0.1269 -0.1877 -1.2864
  473MOL0     C63732   5.628   6.124  10.057  0.3379 -0.0233  0.1955
  473MOL0     C63733   5.516   6.217  10.012  0.5955 -0.6826 -0.2899
  473MOL0     C63734   5.390   6.144  10.061 -0.8058  0.5858  0.2994
  473MOL0     C63735   5.267   6.233  10.059  0.7285  0.1979 -0.1063
  473MOL0     C63736   5.223   6.274   9.924 -0.0987 -0.7004  0.4318
  473MOL0     N63737   5.112   6.369   9.926 -0.4363 -0.2329  0.1232
  473MOL0     C63738   4.982   6.338   9.952  0.1939  0.4405  0.5173
  473MOL0     C63739   4.910   6.451   9.925  0.5028 -0.6000  0.0129
  473MOL0     C63740   4.760   6.469   9.930  0.2005 -0.2266  0.0404
  473MOL0     C63741   4.725   6.559  10.057 -1.0340  0.7706  0.3838
  473MOL0     C63742   4.716   6.708  10.020  0.4372 -0.2589 -1.0749
  473MOL0     C63743   4.680   6.791  10.148 -0.2182 -0.2690 -0.2158
  473MOL0     O63744   4.556   6.740  10.198  0.6989 -0.1587  0.2606
  473MOL0     C63745   4.464   6.827  10.253 -0.6161 -0.3734 -0.1886
  473MOL0     C63746   4.497   6.963  10.284 -0.5963 -0.2905  0.8150
  473MOL0     C63747   4.402   7.042  10.336  1.4648 -0.1905  0.1701
  473MOL0     C63748   4.271   6.996  10.349 -0.5201 -0.4814 -1.0169
  473MOL0     C63749   4.166   7.091  10.388  0.3159  0.1428 -0.6051
  473MOL0     O63750   4.197   7.221  10.381  0.2161 -0.5059 -0.0522
  473MOL0     C63751   4.121   7.318  10.427  0.2158  0.9012 -0.6631
  473MOL0     C63752   4.171   7.388  10.537 -0.5983 -0.0388 -0.1121
  473MOL0     C63753   4.105   7.488  10.599 -0.2455 -0.3583  0.2827
  473MOL0     C63754   3.977   7.519  10.552  0.3163  0.9905 -0.0287
  473MOL0     O63755   3.905   7.621  10.600  0.1401  0.0006  0.6769
  473MOL0     C63756   3.937   7.677  10.724 -0.1262 -0.4520 -0.0197
  473MOL0     C63757   4.025   7.794  10.686 -0.1809  0.0350  0.3261
  473MOL0     C63758   4.102   7.845  10.814 -0.2802  0.3667 -1.5186
  473MOL0     C63759   4.213   7.768  10.874  0.1675  1.0580 -0.5439
  473MOL0     C63760   4.331   7.788  10.792 -1.0488 -0.8741  0.8322
  473MOL0     C63761   4.453   7.699  10.827 -0.3844  1.3214 -0.0169
  473MOL0     C63762   4.430   7.556  10.786  0.2441 -0.2428 -0.5859
  473MOL0     C63763   4.559   7.479  10.815 -0.5136  0.5543  0.8790
  473MOL0    Cl63764   4.672   7.513  10.673  0.2621 -0.0348  0.3529
  473MOL0     C63765   3.927   7.448  10.444  0.0240 -0.7151 -0.5478
  473MOL0     C63766   3.993   7.355  10.380  0.0728  0.4169  0.8943
  473MOL0     O63767   4.058   7.038  10.423 -0.0949 -0.2870  0.7205
  473MOL0     C63768   4.235   6.863  10.315 -0.5061 -0.0622 -0.7504
  473MOL0     C63769   4.333   6.782  10.271 -0.1388 -0.3272 -0.7142
  473MOL0     N63770   5.006   6.552   9.900 -0.3225 -0.3521  0.0235
  473MOL0     N63771   5.125   6.504   9.889 -0.3160 -0.0902  0.2247
  473MOL0     C63772   6.128   6.175  10.496 -0.2312  0.1880 -0.4124
  473MOL0     C63773   6.271   6.201  10.499  0.2902 -0.1775  0.4617
  473MOL0     C63774   6.693   6.270  10.338 -0.4520 -0.9699 -0.6862
  473MOL0     C63775   6.773   6.183  10.415 -0.3616 -0.0982  0.1684
  473MOL0     C63776   6.912   6.194  10.422  0.0516  0.4975 -0.3667
  473MOL0     C63777   6.978   6.297  10.362 -0.1112  0.0613 -1.2048
  473MOL0     O63778   7.112   6.324  10.381  0.3486 -0.0556  0.1074
  473MOL0     C63779   7.187   6.257  10.485 -0.4902 -0.3254  0.4195
  473MOL0     C63780   7.308   6.359  10.504  0.1007  0.8308 -0.6996
  473MOL0     C63781   7.273   6.496  10.569  0.7279  0.2300  0.0242
  473MOL0     C63782   7.390   6.600  10.558 -1.0395 -0.4719 -0.1246
  473MOL0     C63783   7.479   6.580  10.670 -0.3801 -0.5767  0.3833
  473MOL0     C63784   7.549   6.571  10.767 -0.9724 -0.0158  0.7247
  473MOL0     C63785   6.894   6.393  10.295 -1.3884 -0.4426 -0.4243
  473MOL0     C63786   6.758   6.380  10.276 -0.6381 -0.2337 -0.3044
  473MOL0     C63787   6.689   6.490  10.211  0.1225 -0.4577 -0.8178
  473MOL0     H63788   6.377   6.015  10.225  0.6339  1.2577  1.0903
  473MOL0     H63789   6.128   5.982  10.220  0.6302 -1.2911 -0.3044
  473MOL0     H63790   5.790   6.172  10.316  0.3958 -2.0661  0.5191
  473MOL0     H63791   5.938   6.255  10.253 -0.3961  0.0788  0.0663
  473MOL0     H63792   5.817   5.988  10.161  0.8051  0.3240  1.2974
  473MOL0     H63793   5.958   6.077  10.093  1.3551 -3.0366  1.1995
  473MOL0     H63794   5.787   6.191   9.945  0.0370  0.3881 -1.2177
  473MOL0     H63795   5.777   6.279  10.105  2.3116 -0.9279 -0.4607
  473MOL0     H63796   5.622   6.034   9.995 -3.5997 -1.0779  1.8121
  473MOL0     H63797   5.613   6.083  10.157 -1.1303 -2.1779 -0.8268
  473MOL0     H63798   5.527   6.311  10.066 -1.3584 -1.0372  0.8021
  473MOL0     H63799   5.524   6.237   9.905 -0.0737  1.8762  0.0907
  473MOL0     H63800   5.381   6.057   9.996 -0.6634  0.6519  0.1900
  473MOL0     H63801   5.397   6.111  10.165 -1.4587  3.1966  1.2469
  473MOL0     H63802   5.276   6.319  10.126  2.6891  1.3196 -1.6801
  473MOL0     H63803   5.196   6.170  10.112  2.3768  0.9433  3.2767
  473MOL0     H63804   5.307   6.324   9.875  0.1400 -0.5524  0.9857
  473MOL0     H63805   5.195   6.189   9.860  0.2446  1.5966 -3.0923
  473MOL0     H63806   4.954   6.240   9.988  0.3321  0.5824  1.0123
  473MOL0     H63807   4.729   6.510   9.833  0.7484  2.6119  0.9721
  473MOL0     H63808   4.721   6.367   9.943 -0.3245 -0.0854 -0.4096
  473MOL0     H63809   4.637   6.516  10.105  0.1337  0.9746  2.8581
  473MOL0     H63810   4.807   6.550  10.129 -1.6136  0.4165  1.0129
  473MOL0     H63811   4.628   6.727   9.959  0.0155 -1.3511 -0.8235
  473MOL0     H63812   4.815   6.733   9.980  1.1649 -1.9684 -0.4130
  473MOL0     H63813   4.673   6.895  10.112 -0.6862 -1.3403 -3.5860
  473MOL0     H63814   4.758   6.788  10.225 -1.7750 -1.8463  1.3888
  473MOL0     H63815   4.599   7.000  10.281 -1.4873  2.5248  2.0311
  473MOL0     H63816   4.428   7.135  10.386  1.9658  0.3552 -1.0620
  473MOL0     H63817   4.266   7.357  10.579 -1.1373 -1.8810 -0.1782
  473MOL0     H63818   4.161   7.544  10.674 -0.7854  1.7708 -0.8165
  473MOL0     H63819   3.847   7.722  10.766 -2.1913 -1.3634 -3.1141
  473MOL0     H63820   3.987   7.611  10.795 -1.0674 -3.1790 -1.7260
  473MOL0     H63821   4.097   7.758  10.612 -0.5435 -0.9487  0.4322
  473MOL0     H63822   3.967   7.875  10.641  0.2354 -0.8858 -1.9870
  473MOL0     H63823   4.139   7.946  10.793  2.5864  0.5080  2.9758
  473MOL0     H63824   4.030   7.863  10.894 -0.3787  1.6609 -1.8656
  473MOL0     H63825   4.180   7.665  10.891 -0.6234  1.3078 -0.4781
  473MOL0     H63826   4.228   7.809  10.974 -0.8086  0.1011  0.0119
  473MOL0     H63827   4.360   7.894  10.796  1.0564 -1.4413  1.9978
  473MOL0     H63828   4.310   7.771  10.686  4.5965  0.5987 -0.8723
  473MOL0     H63829   4.545   7.736  10.781  0.3689 -1.5748 -1.0671
  473MOL0     H63830   4.451   7.704  10.936 -0.1447  1.5088 -0.0201
  473MOL0     H63831   4.411   7.563  10.679 -0.5825 -0.0631 -0.4316
  473MOL0     H63832   4.339   7.507  10.822 -1.0363  2.5201  0.1637
  473MOL0     H63833   4.615   7.500  10.907  3.3777 -2.4515 -0.5062
  473MOL0     H63834   4.542   7.371  10.813 -2.4340  0.8434 -0.6921
  473MOL0     H63835   3.828   7.480  10.413  1.2003  1.3942 -2.4465
  473MOL0     H63836   3.958   7.301  10.292 -1.3752  0.1680  1.5966
  473MOL0     H63837   4.134   6.828  10.333 -1.5476  3.4269  0.8840
  473MOL0     H63838   4.299   6.682  10.243 -0.6412 -1.0184  2.0623
  473MOL0     H63839   6.068   6.213  10.578  1.0965  1.2162  0.1257
  473MOL0     H63840   6.303   6.253  10.588  1.6808  0.6496 -0.4817
  473MOL0     H63841   6.731   6.097  10.467  1.5682 -1.1276  0.1275
  473MOL0     H63842   6.952   6.117  10.486  0.5126  1.4153  0.4782
  473MOL0     H63843   7.212   6.153  10.461 -2.2261 -1.1507  1.9197
  473MOL0     H63844   7.124   6.251  10.574 -1.4152 -0.1267 -0.2008
  473MOL0     H63845   7.348   6.374  10.403 -1.8083 -2.1116 -2.0281
  473MOL0     H63846   7.389   6.314  10.562 -1.3742  0.9807  1.5952
  473MOL0     H63847   7.248   6.465  10.670 -1.0700  1.4045 -0.0299
  473MOL0     H63848   7.182   6.525  10.516  0.4190 -0.1251  0.3557
  473MOL0     H63849   7.439   6.607  10.461 -0.8747 -1.9876 -0.1714
  473MOL0     H63850   7.343   6.695  10.584  2.6846  0.5029  4.5663
  473MOL0     H63851   7.615   6.569  10.851  0.0701 -0.4277 -0.0866
  473MOL0     H63852   6.950   6.464  10.234  0.3222 -1.4060 -0.0559
  473MOL0     H63853   6.627   6.447  10.133 -2.4626 -0.1364  0.9217
  473MOL0     H63854   6.626   6.547  10.281 -0.5936 -1.1540 -0.8853
  473MOL0     H63855   6.770   6.547  10.164  0.9562 -0.1069  0.9247
  474MOL0     O63856   1.938   4.623  10.299 -0.5785 -0.1486 -0.7046
  474MOL0     C63857   1.869   4.598  10.197  0.0902 -0.5742  0.2566
  474MOL0     O63858   1.841   4.691  10.102  0.6467 -0.2954  0.7267
  474MOL0     C63859   1.909   4.816  10.097 -0.1081  0.4355  0.1609
  474MOL0     C63860   1.840   4.935  10.122 -0.2904  0.5684 -0.5185
  474MOL0     C63861   1.915   5.051  10.114  0.7107 -0.2992  0.1725
  474MOL0     C63862   2.049   5.050  10.091  0.2316 -0.0912  0.3660
  474MOL0     O63863   2.103   5.175  10.124 -0.2679 -0.2186 -0.1029
  474MOL0     C63864   2.238   5.199  10.068  0.0552 -0.7823  0.3043
  474MOL0     C63865   2.278   5.335  10.126 -0.0962  0.1275  0.0818
  474MOL0     C63866   2.399   5.406  10.060  0.0722  0.1319  0.3150
  474MOL0     C63867   2.367   5.460   9.913 -0.1200 -0.1474 -0.0417
  474MOL0     C63868   2.493   5.528   9.849  0.4304  0.2438 -0.3890
  474MOL0     C63869   2.588   5.423   9.791  0.5089 -0.4123 -0.2195
  474MOL0     C63870   2.734   5.471   9.758 -0.4545 -0.2613 -0.5872
  474MOL0     C63871   2.739   5.598   9.691  0.6446 -0.0913  0.2721
  474MOL0     N63872   2.876   5.650   9.653 -0.1266 -0.5106 -0.0677
  474MOL0     C63873   2.947   5.593   9.556  0.8673  0.1447 -0.3926
  474MOL0     C63874   3.043   5.677   9.522  0.0389 -0.2601  1.2157
  474MOL0     C63875   3.166   5.651   9.431 -0.9366  0.1036 -0.1561
  474MOL0     C63876   3.120   5.611   9.294  0.9458 -0.5369 -0.3176
  474MOL0     C63877   3.070   5.727   9.219 -0.0519  0.1902 -0.4408
  474MOL0     C63878   3.070   5.693   9.069 -0.1310 -0.3896  0.1064
  474MOL0     O63879   2.991   5.573   9.051  0.3384  0.5683  0.5454
  474MOL0     C63880   2.990   5.528   8.917 -0.1756  0.3559 -1.0269
  474MOL0     C63881   3.016   5.394   8.895 -1.0681 -0.3744 -0.2943
  474MOL0     C63882   3.020   5.346   8.766  0.0230 -0.4062  0.4575
  474MOL0     C63883   2.978   5.422   8.654  0.3737  0.0394  0.1780
  474MOL0     C63884   2.980   5.382   8.510 -0.4042 -0.4047 -0.1366
  474MOL0     O63885   2.947   5.474   8.421  0.4364 -0.3959 -0.0335
  474MOL0     C63886   2.957   5.442   8.286 -0.3624  0.3346 -0.1244
  474MOL0     C63887   2.845   5.441   8.203  1.4502 -0.1915 -0.1687
  474MOL0     C63888   2.859   5.398   8.070 -0.3925  0.1076 -0.1109
  474MOL0     C63889   2.977   5.363   8.011  1.0071  0.4575 -0.4868
  474MOL0     O63890   2.990   5.320   7.873 -0.2579  0.0239 -1.0904
  474MOL0     C63891   3.003   5.184   7.848  0.7265  0.1294  0.5707
  474MOL0     C63892   3.030   5.155   7.698  0.1037  0.3966 -0.2734
  474MOL0     C63893   3.043   5.002   7.676 -0.5655 -0.5833 -0.3981
  474MOL0     C63894   3.069   4.966   7.527 -0.2263 -0.9347  0.5363
  474MOL0     C63895   3.107   4.820   7.504  0.0690  0.5765  0.2088
  474MOL0     C63896   3.121   4.789   7.361  0.6535  0.3553 -0.2516
  474MOL0     C63897   3.157   4.646   7.328 -0.3697  0.7093 -0.6570
  474MOL0     C63898   3.053   4.541   7.369 -0.4266 -0.3075  0.4436
  474MOL0    Cl63899   3.154   4.401   7.385 -0.0204  0.0423  0.0024
  474MOL0     C63900   3.095   5.384   8.086 -0.2312  0.8923  1.2324
  474MOL0     C63901   3.084   5.418   8.223 -0.4383  0.2157  0.1959
  474MOL0     O63902   3.019   5.270   8.479  0.0708 -1.1303 -0.1233
  474MOL0     C63903   2.933   5.554   8.690  0.0578 -0.3303 -0.3602
  474MOL0     C63904   2.939   5.611   8.815 -0.0679 -0.3026 -0.6114
  474MOL0     N63905   3.028   5.792   9.602  0.0092  0.2823 -0.5030
  474MOL0     N63906   2.927   5.774   9.684 -0.3473  0.3788  0.0347
  474MOL0     C63907   2.115   4.934  10.071  0.5446 -0.7147 -0.2491
  474MOL0     C63908   2.045   4.819  10.078 -0.0053  0.6561  0.0394
  474MOL0     C63909   1.795   4.471  10.188 -0.2185 -0.7779  0.0028
  474MOL0     C63910   1.728   4.447  10.062 -0.4263 -0.0794 -0.3630
  474MOL0     C63911   1.639   4.336  10.057  0.4148 -0.2452 -0.2607
  474MOL0     C63912   1.630   4.239  10.153  0.1746 -0.4356 -0.3733
  474MOL0     O63913   1.556   4.127  10.137  0.7296  0.1004 -0.3476
  474MOL0     C63914   1.600   4.047  10.029  0.0907  0.9929 -0.0768
  474MOL0     C63915   1.505   3.943   9.978  1.0437  0.1843  0.1997
  474MOL0     C63916   1.441   3.955   9.836  0.1253 -0.4297  0.4199
  474MOL0     C63917   1.371   3.816   9.788 -0.0871 -0.2320 -1.1669
  474MOL0     C63918   1.474   3.718   9.772  0.3878 -0.5536  0.7836
  474MOL0     C63919   1.573   3.645   9.759 -0.1697 -0.5585 -0.7102
  474MOL0     C63920   1.714   4.259  10.261 -0.6967  0.6511 -0.1950
  474MOL0     C63921   1.782   4.377  10.293  0.0027  0.2354  0.2778
  474MOL0     C63922   1.843   4.376  10.430 -0.1832  0.3108  0.5772
  474MOL0     H63923   1.731   4.936  10.126 -0.3840 -2.3147  3.7216
  474MOL0     H63924   1.874   5.150  10.133  0.0657  0.4456 -4.1141
  474MOL0     H63925   2.306   5.115  10.087  0.4995 -0.5922 -0.3998
  474MOL0     H63926   2.216   5.218   9.963 -1.1964  1.4616  0.9148
  474MOL0     H63927   2.291   5.329  10.235 -1.3203 -0.1807  0.2317
  474MOL0     H63928   2.187   5.395  10.117  1.1659  2.1120  0.1373
  474MOL0     H63929   2.483   5.336  10.060  1.3272  1.5484 -1.1835
  474MOL0     H63930   2.434   5.493  10.116  1.5414 -1.6190  2.2615
  474MOL0     H63931   2.318   5.380   9.856  0.9119 -0.0495 -1.1020
  474MOL0     H63932   2.292   5.536   9.935  0.7125  1.1146 -1.3855
  474MOL0     H63933   2.464   5.587   9.761 -0.1578  0.3517 -0.1299
  474MOL0     H63934   2.552   5.594   9.913  0.6070  1.0032 -1.3044
  474MOL0     H63935   2.586   5.337   9.858  2.2279 -0.7415 -0.5376
  474MOL0     H63936   2.551   5.392   9.693 -1.3433 -2.6719  1.1098
  474MOL0     H63937   2.792   5.401   9.697 -2.6948  0.1973 -3.4430
  474MOL0     H63938   2.790   5.474   9.853 -2.1239 -1.3314  0.4647
  474MOL0     H63939   2.679   5.598   9.600  1.3749 -0.9208 -0.2254
  474MOL0     H63940   2.707   5.681   9.755  1.5876  0.1211  0.4912
  474MOL0     H63941   2.929   5.501   9.502  0.6257  0.4698 -0.8745
  474MOL0     H63942   3.222   5.745   9.429 -2.0116  0.7516 -2.0442
  474MOL0     H63943   3.235   5.579   9.477  1.6442  1.0983 -2.1919
  474MOL0     H63944   3.215   5.585   9.246  0.7882 -0.0725 -0.8930
  474MOL0     H63945   3.050   5.528   9.309 -0.8559  0.8959 -0.5243
  474MOL0     H63946   3.133   5.817   9.218 -1.0052  0.8849  0.2728
  474MOL0     H63947   2.965   5.753   9.235  0.4456  3.3798 -1.5367
  474MOL0     H63948   3.173   5.678   9.034 -0.6759  1.6085 -2.7731
  474MOL0     H63949   3.045   5.783   9.012  0.9954  1.4367  2.3672
  474MOL0     H63950   3.036   5.332   8.981 -1.4028  3.6023  2.9806
  474MOL0     H63951   3.059   5.248   8.742  1.7374  0.6960 -1.6396
  474MOL0     H63952   2.749   5.445   8.254  1.8998 -1.3346  0.8016
  474MOL0     H63953   2.772   5.375   8.009 -1.8984 -1.4327  2.4203
  474MOL0     H63954   3.076   5.147   7.920 -1.0486 -0.1356  2.2987
  474MOL0     H63955   2.912   5.127   7.868  2.2112 -2.7549 -0.2941
  474MOL0     H63956   2.953   5.196   7.633  1.3772  3.4388 -0.0472
  474MOL0     H63957   3.124   5.196   7.659  0.7969 -1.8326 -1.1098
  474MOL0     H63958   3.134   4.972   7.730 -1.8362 -0.4762  1.9249
  474MOL0     H63959   2.966   4.943   7.726  0.2307 -2.0119 -0.7819
  474MOL0     H63960   3.147   5.035   7.493 -1.1191 -0.4353 -0.5843
  474MOL0     H63961   2.977   4.998   7.476  0.2802  0.4861  0.4938
  474MOL0     H63962   3.025   4.763   7.548  0.3224 -0.4956 -0.6677
  474MOL0     H63963   3.201   4.805   7.558 -0.2546 -1.0356  0.3831
  474MOL0     H63964   3.026   4.816   7.314 -0.6911 -0.6277  1.7458
  474MOL0     H63965   3.197   4.854   7.317  1.5242 -0.9207 -0.7051
  474MOL0     H63966   3.252   4.628   7.380  0.2449  2.1829 -1.2373
  474MOL0     H63967   3.169   4.652   7.220 -1.1411  0.3899 -0.7665
  474MOL0     H63968   3.010   4.561   7.467  1.2511  0.4725  1.0595
  474MOL0     H63969   2.976   4.524   7.293  0.5653  0.5463 -0.8076
  474MOL0     H63970   3.191   5.383   8.037  0.0846 -1.9714  1.7012
  474MOL0     H63971   3.161   5.422   8.299 -0.7440 -0.3460  0.5416
  474MOL0     H63972   2.898   5.611   8.605 -4.9146 -2.8217 -0.3523
  474MOL0     H63973   2.906   5.713   8.832  1.0328 -0.3319  2.4317
  474MOL0     H63974   2.224   4.930  10.066  0.6703  0.0131  1.4449
  474MOL0     H63975   2.103   4.731  10.053  1.6961  1.0368  2.2862
  474MOL0     H63976   1.724   4.518   9.980  0.0280 -0.5194 -0.7737
  474MOL0     H63977   1.585   4.315   9.966 -1.3966 -0.7021  0.8738
  474MOL0     H63978   1.669   3.985  10.088 -0.6997  0.3261  0.1546
  474MOL0     H63979   1.652   4.106   9.953  1.4593 -0.6675 -0.4920
  474MOL0     H63980   1.418   3.931  10.044  2.0819 -2.7880  1.2228
  474MOL0     H63981   1.560   3.849   9.989 -2.1654 -1.6062  2.8307
  474MOL0     H63982   1.522   3.980   9.766 -0.1512  1.6641  0.7783
  474MOL0     H63983   1.384   4.048   9.841  0.5966 -0.0633 -0.8168
  474MOL0     H63984   1.286   3.792   9.853  0.2404 -4.3574 -2.0318
  474MOL0     H63985   1.332   3.836   9.688  0.0409 -0.5184 -1.2727
  474MOL0     H63986   1.674   3.608   9.753  0.3629  1.0149 -3.9633
  474MOL0     H63987   1.719   4.178  10.332 -2.4162  0.8161  0.1624
  474MOL0     H63988   1.814   4.467  10.484 -1.0124  0.8602 -0.7272
  474MOL0     H63989   1.802   4.296  10.492 -1.4764  0.3531 -0.1893
  474MOL0     H63990   1.952   4.368  10.431  0.0601  2.6724 -0.3804
  475MOL0     O63991   9.710   2.577   5.957  0.5293 -0.5684  0.8875
  475MOL0     C63992   9.762   2.612   6.061 -0.6703 -0.6709  0.4426
  475MOL0     O63993   9.836   2.735   6.092  0.2784 -0.8627  0.3700
  475MOL0     C63994   9.880   2.825   5.994 -0.2041 -0.5682 -0.5532
  475MOL0     C63995   9.868   2.816   5.848 -0.5026  0.2813 -0.3579
  475MOL0     C63996   9.914   2.922   5.765 -0.7017  1.2526  0.5850
  475MOL0     C63997   9.969   3.034   5.818  0.9990 -0.2733  0.1848
  475MOL0     O63998  10.005   3.131   5.728  0.1428 -0.7829  0.2755
  475MOL0     C63999   9.998   3.268   5.768  0.6655 -0.4574  0.2900
  475MOL0     C64000  10.024   3.372   5.650 -0.7878 -0.3124 -0.3712
  475MOL0     C64001  10.156   3.350   5.583 -0.3656 -1.4238 -0.6240
  475MOL0     C64002  10.192   3.466   5.491 -0.0125  0.4807  0.0792
  475MOL0     C64003  10.329   3.468   5.451 -0.6470 -0.7393 -0.3605
  475MOL0     C64004  10.346   3.585   5.351 -0.2217  0.1456  0.2881
  475MOL0     C64005  10.280   3.572   5.210 -0.8098  0.5692 -0.3801
  475MOL0     C64006  10.331   3.460   5.120 -0.2976  0.4134  0.0792
  475MOL0     N64007  10.470   3.476   5.087 -0.0984  0.0925 -0.3930
  475MOL0     C64008  10.569   3.384   5.086 -1.1830  0.2612 -0.1054
  475MOL0     C64009  10.677   3.444   5.031 -0.3313 -0.6061  0.3884
  475MOL0     C64010  10.815   3.383   5.001  0.6276  0.6990  0.4532
  475MOL0     C64011  10.817   3.360   4.846 -0.5260  0.5800  0.2111
  475MOL0     C64012  10.727   3.239   4.794 -0.6835  0.2129 -0.0256
  475MOL0     C64013  10.780   3.184   4.661  0.4014  0.5745  0.3816
  475MOL0     O64014  10.670   3.107   4.608  0.0470  1.1311 -0.2700
  475MOL0     C64015  10.702   3.042   4.495 -0.4901  0.9775  0.1997
  475MOL0     C64016  10.817   3.047   4.418 -0.0473 -0.0850 -0.4805
  475MOL0     C64017  10.814   2.994   4.291  0.2886  1.0362 -0.8278
  475MOL0     C64018  10.716   2.899   4.251 -0.1137 -0.3173  0.0271
  475MOL0     C64019  10.732   2.837   4.119 -1.0903 -0.0710 -0.4377
  475MOL0     O64020  10.617   2.790   4.075  0.0846  0.4012  0.8968
  475MOL0     C64021  10.615   2.722   3.957  0.5193  0.2507  0.4538
  475MOL0     C64022  10.594   2.588   3.972  0.1751 -0.1072 -0.3442
  475MOL0     C64023  10.596   2.500   3.858 -1.0386 -0.0244  0.2441
  475MOL0     C64024  10.600   2.561   3.721 -0.0394  0.4818 -0.5026
  475MOL0     O64025  10.578   2.495   3.604  0.4603  0.7066  0.5966
  475MOL0     C64026  10.555   2.354   3.613 -0.1653  0.3401  0.5286
  475MOL0     C64027  10.666   2.256   3.576 -1.2785  0.2983  0.5262
  475MOL0     C64028  10.777   2.323   3.501 -0.0626  0.1938  0.4767
  475MOL0     C64029  10.893   2.232   3.448  0.7227  0.1570 -0.5220
  475MOL0     C64030  11.001   2.309   3.384  0.0765 -0.5918  1.3333
  475MOL0     C64031  11.115   2.223   3.322  1.4493  0.6369 -0.3764
  475MOL0     C64032  11.218   2.314   3.258  0.7089 -0.9614  0.0156
  475MOL0     C64033  11.342   2.244   3.194  0.6946 -0.3795 -0.5419
  475MOL0    Cl64034  11.273   2.157   3.044  0.4802  0.0567 -0.0290
  475MOL0     C64035  10.630   2.700   3.718 -0.7975 -0.2802 -0.8175
  475MOL0     C64036  10.643   2.773   3.828 -0.9930 -0.3383  0.7605
  475MOL0     O64037  10.843   2.809   4.068 -0.1766 -0.1448 -0.4308
  475MOL0     C64038  10.605   2.876   4.333 -1.2583  0.1893  0.3203
  475MOL0     C64039  10.599   2.956   4.446  0.7458  0.5120 -0.1177
  475MOL0     N64040  10.651   3.573   5.008 -0.6169  1.0833 -0.1896
  475MOL0     N64041  10.527   3.596   5.045 -0.0117 -0.2293 -0.0570
  475MOL0     C64042   9.966   3.049   5.963  0.6657 -0.7564 -0.0078
  475MOL0     C64043   9.923   2.947   6.050 -0.2395  0.3253 -0.1640
  475MOL0     C64044   9.734   2.522   6.172  0.0445  0.4034 -0.6838
  475MOL0     C64045   9.599   2.514   6.212 -0.2244 -0.3826 -0.3492
  475MOL0     C64046   9.555   2.458   6.339  0.2693  0.0462 -0.0895
  475MOL0     C64047   9.649   2.399   6.419  0.8720  1.0744  0.1212
  475MOL0     O64048   9.597   2.350   6.539 -0.2838 -0.2539 -0.4564
  475MOL0     C64049   9.693   2.310   6.640 -1.1011  0.3119  0.0049
  475MOL0     C64050   9.621   2.285   6.768 -0.2635 -0.3580 -1.0191
  475MOL0     C64051   9.560   2.413   6.842 -0.8068  0.0142 -0.6841
  475MOL0     C64052   9.661   2.530   6.855  0.8971 -0.2666 -0.3826
  475MOL0     C64053   9.762   2.508   6.948  0.5218  0.8566 -0.8826
  475MOL0     C64054   9.852   2.477   7.025  0.0519 -0.8716  0.5522
  475MOL0     C64055   9.778   2.399   6.368 -0.6510 -0.1594  0.6854
  475MOL0     C64056   9.827   2.468   6.257 -0.0823 -0.7983 -1.4529
  475MOL0     C64057   9.976   2.470   6.236 -0.6293  0.3028  0.0545
  475MOL0     H64058   9.833   2.724   5.802  2.4052 -1.7739  1.2363
  475MOL0     H64059   9.893   2.908   5.660 -2.9865  0.8220  1.0389
  475MOL0     H64060   9.903   3.294   5.815  1.5424 -0.0305  1.9029
  475MOL0     H64061  10.081   3.283   5.838  0.9471 -0.7382  0.0179
  475MOL0     H64062  10.018   3.478   5.677 -2.3756 -0.6698  0.8166
  475MOL0     H64063   9.945   3.373   5.574 -1.5658  1.0244  0.4296
  475MOL0     H64064  10.162   3.259   5.524 -2.5798 -0.3498 -2.6904
  475MOL0     H64065  10.224   3.351   5.669 -3.2545  0.4421  1.8711
  475MOL0     H64066  10.126   3.464   5.404 -0.2299  0.3494  0.2448
  475MOL0     H64067  10.174   3.557   5.549  0.3967  0.3391  0.4333
  475MOL0     H64068  10.379   3.503   5.542 -2.2436  1.9785 -0.4101
  475MOL0     H64069  10.375   3.375   5.415  2.2215  1.1716 -2.0719
  475MOL0     H64070  10.308   3.677   5.397 -3.8668  0.0196 -2.1057
  475MOL0     H64071  10.455   3.596   5.351 -0.0946 -0.1371  3.3836
  475MOL0     H64072  10.301   3.674   5.176  1.8491  1.2379  2.7224
  475MOL0     H64073  10.171   3.571   5.220 -0.7824  0.4640 -0.0504
  475MOL0     H64074  10.299   3.365   5.164 -0.5329 -0.1542 -1.2809
  475MOL0     H64075  10.267   3.460   5.032  0.6371 -1.6503 -0.6716
  475MOL0     H64076  10.558   3.285   5.128  1.7658 -0.8911 -1.7823
  475MOL0     H64077  10.884   3.467   5.009  0.3707  1.1601 -1.5569
  475MOL0     H64078  10.843   3.298   5.064  3.4692  1.1347 -0.0532
  475MOL0     H64079  10.791   3.446   4.784 -0.8445  0.1510 -0.2581
  475MOL0     H64080  10.918   3.331   4.816 -0.7924  0.8247 -0.9799
  475MOL0     H64081  10.623   3.269   4.780 -1.0687 -0.0458  2.0024
  475MOL0     H64082  10.713   3.154   4.861  0.5022  0.3756  0.4714
  475MOL0     H64083  10.870   3.122   4.657 -1.2397 -1.8718 -0.3278
  475MOL0     H64084  10.787   3.269   4.592 -2.1525 -1.4301 -2.5864
  475MOL0     H64085  10.889   3.126   4.441  1.1539 -2.0594  3.5718
  475MOL0     H64086  10.902   3.015   4.231  0.3245  2.8064 -0.2024
  475MOL0     H64087  10.567   2.549   4.070  2.2028 -2.5215 -0.6758
  475MOL0     H64088  10.578   2.394   3.871 -1.7646 -0.2288 -2.0120
  475MOL0     H64089  10.495   2.314   3.695 -1.9712 -1.5661 -1.5855
  475MOL0     H64090  10.486   2.340   3.528  3.0363  2.3543 -2.6689
  475MOL0     H64091  10.716   2.215   3.665 -1.7433 -1.5329 -0.0091
  475MOL0     H64092  10.615   2.186   3.508 -4.0300  1.5528  1.1877
  475MOL0     H64093  10.751   2.373   3.408  5.4733 -2.0509 -2.7724
  475MOL0     H64094  10.835   2.387   3.568 -0.8957 -0.9680  2.4112
  475MOL0     H64095  10.848   2.157   3.383  0.0535  0.1360 -0.0445
  475MOL0     H64096  10.943   2.170   3.523 -1.3023 -0.3220  0.5104
  475MOL0     H64097  11.034   2.366   3.471  0.9010  0.0095  0.6525
  475MOL0     H64098  10.961   2.378   3.308 -1.6856 -2.2223  0.6899
  475MOL0     H64099  11.170   2.162   3.394 -0.2593  0.4010  0.7778
  475MOL0     H64100  11.067   2.166   3.242 -1.3424  0.3513  1.3598
  475MOL0     H64101  11.242   2.385   3.338 -2.7328 -0.4475  0.7210
  475MOL0     H64102  11.176   2.379   3.181  2.1430 -1.3230 -1.1164
  475MOL0     H64103  11.435   2.300   3.187  0.1856  0.4986 -0.3570
  475MOL0     H64104  11.364   2.165   3.267  2.5504  1.6437  1.1888
  475MOL0     H64105  10.629   2.746   3.620 -2.0384 -1.7612 -1.5530
  475MOL0     H64106  10.670   2.875   3.805  3.2739 -1.6111 -0.9325
  475MOL0     H64107  10.533   2.804   4.295  0.6698  0.5625 -4.7881
  475MOL0     H64108  10.512   2.935   4.509  0.8755  2.0607  0.6321
  475MOL0     H64109   9.997   3.141   6.012 -2.3591 -0.3424  1.3673
  475MOL0     H64110   9.918   2.971   6.156 -0.5592  0.4471 -0.2051
  475MOL0     H64111   9.524   2.571   6.160  0.5882  2.1001  1.0063
  475MOL0     H64112   9.451   2.465   6.368 -1.2768 -2.2045 -4.1304
  475MOL0     H64113   9.770   2.386   6.657 -0.3824 -0.7553  1.8353
  475MOL0     H64114   9.759   2.225   6.618  2.5371  2.0532  2.9320
  475MOL0     H64115   9.693   2.239   6.836 -1.9896 -0.6670  0.7047
  475MOL0     H64116   9.539   2.214   6.752 -0.6002  0.0514 -1.1430
  475MOL0     H64117   9.530   2.390   6.945  0.0420  0.8586 -0.2259
  475MOL0     H64118   9.469   2.448   6.792 -1.0587  1.0775  0.4763
  475MOL0     H64119   9.703   2.560   6.758  1.2262  0.7280  0.0555
  475MOL0     H64120   9.603   2.614   6.893  2.2429  0.1690  0.8090
  475MOL0     H64121   9.930   2.450   7.093  1.1250 -0.3356 -0.4372
  475MOL0     H64122   9.859   2.364   6.432  1.1969 -0.9038 -1.8489
  475MOL0     H64123   9.992   2.434   6.134  1.3982  0.5887  0.2240
  475MOL0     H64124  10.020   2.570   6.247 -0.8414  0.5107 -0.8679
  475MOL0     H64125  10.026   2.400   6.304  1.1396 -1.1031 -2.5198
  476MOL0     O64126   1.407   4.346   7.682 -0.7142  0.2846 -0.3938
  476MOL0     C64127   1.304   4.331   7.748  0.6537  0.3822  0.8790
  476MOL0     O64128   1.299   4.291   7.873  0.2675 -0.4242 -0.4424
  476MOL0     C64129   1.413   4.279   7.948 -0.1603 -0.1844  0.3504
  476MOL0     C64130   1.468   4.153   7.975  0.5911  0.1478  0.2819
  476MOL0     C64131   1.581   4.134   8.042  0.4003  1.0673 -1.1638
  476MOL0     C64132   1.632   4.243   8.105 -0.3914 -0.1784 -0.3246
  476MOL0     O64133   1.739   4.230   8.192 -0.6783 -0.6491  0.0910
  476MOL0     C64134   1.868   4.193   8.127  0.7041  0.7945  0.0034
  476MOL0     C64135   1.986   4.163   8.225  0.6785  0.1717 -0.6426
  476MOL0     C64136   2.124   4.165   8.153  0.2631  0.5643  0.8815
  476MOL0     C64137   2.230   4.124   8.260 -0.2862  0.0825  0.6394
  476MOL0     C64138   2.367   4.087   8.207  0.2240 -0.7299 -0.7468
  476MOL0     C64139   2.424   4.200   8.123 -0.0269  0.1765  0.9809
  476MOL0     C64140   2.575   4.186   8.084  1.1033  0.8583 -0.7572
  476MOL0     C64141   2.658   4.208   8.209 -0.2957  0.2140 -0.4148
  476MOL0     N64142   2.804   4.243   8.180  0.1989  0.1369 -0.9995
  476MOL0     C64143   2.898   4.179   8.100 -0.6664  0.1280 -0.2535
  476MOL0     C64144   3.023   4.226   8.134 -0.4399  0.3296  0.5467
  476MOL0     C64145   3.160   4.197   8.078 -0.2309  0.7298 -0.4985
  476MOL0     C64146   3.226   4.102   8.181  0.6166 -0.0107  0.3128
  476MOL0     C64147   3.158   3.969   8.212 -0.5482 -0.4177 -0.3458
  476MOL0     C64148   3.173   3.865   8.104  0.3715 -0.0203 -0.2075
  476MOL0     O64149   3.054   3.852   8.029 -0.3440 -0.8975  0.3608
  476MOL0     C64150   2.933   3.814   8.083 -0.2054  0.8800 -1.2812
  476MOL0     C64151   2.920   3.727   8.196 -0.3291 -0.6189  0.0949
  476MOL0     C64152   2.784   3.697   8.250 -0.0836 -0.8379  0.5770
  476MOL0     C64153   2.672   3.742   8.170  0.3010  0.2562 -0.4754
  476MOL0     C64154   2.530   3.712   8.201 -0.7194 -0.2237 -0.1258
  476MOL0     O64155   2.442   3.707   8.095 -0.7577 -0.2951 -0.2033
  476MOL0     C64156   2.303   3.707   8.095  1.1584 -0.2821 -0.5350
  476MOL0     C64157   2.248   3.684   7.966 -0.7470  0.1583 -0.0028
  476MOL0     C64158   2.112   3.682   7.960  0.6414  0.4156 -0.6600
  476MOL0     C64159   2.034   3.700   8.067  0.4352  1.1027 -0.3579
  476MOL0     O64160   1.898   3.680   8.052 -0.1408  1.2221 -0.2705
  476MOL0     C64161   1.821   3.793   8.037 -0.1921 -0.2285 -0.7584
  476MOL0     C64162   1.688   3.739   7.989  0.2054 -0.2969 -0.3028
  476MOL0     C64163   1.673   3.732   7.842 -0.2440  0.4455  0.1013
  476MOL0     C64164   1.603   3.860   7.801 -0.2396 -0.4059 -0.6976
  476MOL0     C64165   1.585   3.854   7.654 -0.0793 -0.3462  0.7778
  476MOL0     C64166   1.514   3.982   7.605 -0.1328  0.3590 -0.4667
  476MOL0     C64167   1.485   3.973   7.444  0.2392  0.2349 -0.5502
  476MOL0     C64168   1.568   3.870   7.366  0.8135 -0.1354  0.1688
  476MOL0    Cl64169   1.524   3.873   7.188  0.0293  0.1151 -0.2443
  476MOL0     C64170   2.084   3.717   8.196  0.5086 -0.7268  0.7897
  476MOL0     C64171   2.223   3.726   8.211  0.4152  0.8210  0.7272
  476MOL0     O64172   2.504   3.689   8.320 -1.1860 -0.1655 -0.4744
  476MOL0     C64173   2.695   3.818   8.052  0.1594  0.9088 -0.7935
  476MOL0     C64174   2.824   3.855   8.018  0.6849 -0.5121 -0.4764
  476MOL0     N64175   2.997   4.327   8.225  0.6496  0.7857  0.5399
  476MOL0     N64176   2.870   4.338   8.251  0.6445 -1.0769  0.2081
  476MOL0     C64177   1.596   4.370   8.070  0.1208  0.3417  0.1209
  476MOL0     C64178   1.481   4.389   7.993 -0.6098  0.7808  0.9230
  476MOL0     C64179   1.169   4.365   7.701 -0.6668 -0.8637  0.7938
  476MOL0     C64180   1.114   4.490   7.741 -0.6336  0.7793  0.4300
  476MOL0     C64181   1.014   4.552   7.678  0.4255 -0.4345 -0.5263
  476MOL0     C64182   0.939   4.485   7.582  0.7605  0.8987 -0.3024
  476MOL0     O64183   0.823   4.534   7.535  0.4925 -0.2369 -0.4883
  476MOL0     C64184   0.842   4.609   7.412  0.3717  0.6941 -0.3143
  476MOL0     C64185   0.702   4.664   7.373 -0.4219 -0.0727 -0.2040
  476MOL0     C64186   0.644   4.761   7.491 -0.5768  0.1810 -0.0339
  476MOL0     C64187   0.504   4.808   7.469 -0.0706 -0.3529 -0.2942
  476MOL0     C64188   0.483   4.871   7.343  0.6443 -0.6790  0.1088
  476MOL0     C64189   0.462   4.894   7.222 -0.6388  0.6034 -0.0719
  476MOL0     C64190   0.978   4.355   7.540  0.1882 -0.5239 -0.2034
  476MOL0     C64191   1.100   4.299   7.596 -0.3425 -0.1071  0.0410
  476MOL0     C64192   1.147   4.169   7.547  0.0825  0.8505  0.4387
  476MOL0     H64193   1.411   4.067   7.940  0.2389  0.5622 -0.1721
  476MOL0     H64194   1.601   4.031   8.071  1.8694  1.9352  1.1801
  476MOL0     H64195   1.846   4.107   8.063 -0.3097  0.2978  0.9960
  476MOL0     H64196   1.883   4.284   8.067  0.3125  0.0610 -1.2506
  476MOL0     H64197   1.963   4.060   8.255 -0.1332 -0.5949 -3.6297
  476MOL0     H64198   1.986   4.234   8.308 -1.0374 -1.1630  0.5844
  476MOL0     H64199   2.133   4.269   8.121 -0.7196  0.4197  0.0661
  476MOL0     H64200   2.125   4.100   8.065 -3.0715  1.3543  0.1013
  476MOL0     H64201   2.236   4.205   8.334 -0.0094  0.9501 -0.3025
  476MOL0     H64202   2.195   4.034   8.312  1.8144  0.3336  2.6311
  476MOL0     H64203   2.422   4.055   8.297 -1.1421  0.1549  0.4551
  476MOL0     H64204   2.355   4.008   8.133 -0.3330  0.0801 -1.5344
  476MOL0     H64205   2.373   4.202   8.027 -0.3326  0.5007  1.1478
  476MOL0     H64206   2.424   4.298   8.171 -0.8086  1.4338 -1.4061
  476MOL0     H64207   2.603   4.247   7.998  3.2939  0.3176 -0.4732
  476MOL0     H64208   2.585   4.086   8.041  2.6311  0.9686 -0.7161
  476MOL0     H64209   2.621   4.289   8.273  0.6421 -1.8967  3.0462
  476MOL0     H64210   2.646   4.121   8.273 -3.4786 -0.1809 -1.3986
  476MOL0     H64211   2.868   4.114   8.018  0.0075  2.2240 -2.2777
  476MOL0     H64212   3.172   4.169   7.973  0.5522 -0.1391 -0.2004
  476MOL0     H64213   3.219   4.290   8.083 -1.3532  1.5506  5.7011
  476MOL0     H64214   3.332   4.084   8.156  0.2834  1.6875 -2.9096
  476MOL0     H64215   3.238   4.159   8.273 -1.9246 -3.0405  2.7314
  476MOL0     H64216   3.054   3.978   8.246  1.0270 -0.9843  5.7495
  476MOL0     H64217   3.217   3.925   8.293 -0.8963 -2.5716 -1.1765
  476MOL0     H64218   3.188   3.769   8.154 -0.6214 -1.6261 -2.8207
  476MOL0     H64219   3.267   3.882   8.051  0.0075  1.3391 -0.4508
  476MOL0     H64220   3.010   3.684   8.239 -0.3816  0.9907  1.9975
  476MOL0     H64221   2.769   3.639   8.341  0.8219  1.4169  2.2468
  476MOL0     H64222   2.313   3.660   7.882 -1.0284  0.7961 -0.4141
  476MOL0     H64223   2.075   3.665   7.859 -1.2371 -0.9200  0.1844
  476MOL0     H64224   1.816   3.841   8.135 -1.0445 -1.7009 -0.0681
  476MOL0     H64225   1.866   3.860   7.963 -0.0378 -0.3988 -0.8179
  476MOL0     H64226   1.674   3.639   8.030 -1.9381  0.5339  1.1590
  476MOL0     H64227   1.619   3.803   8.044 -0.2117 -0.8183 -0.2134
  476MOL0     H64228   1.773   3.722   7.801  0.4379  0.7244  1.6454
  476MOL0     H64229   1.620   3.639   7.817  1.3709 -0.9735  1.6712
  476MOL0     H64230   1.665   3.945   7.830 -2.2648  0.8877  0.0217
  476MOL0     H64231   1.518   3.850   7.868 -0.2999 -0.9759 -0.8536
  476MOL0     H64232   1.524   3.764   7.639 -0.6711 -0.0556  1.4023
  476MOL0     H64233   1.681   3.841   7.602 -1.0244 -3.3339 -0.4628
  476MOL0     H64234   1.421   4.001   7.660  0.5229  1.0360  0.4488
  476MOL0     H64235   1.575   4.070   7.624 -0.8635  1.0753 -1.3454
  476MOL0     H64236   1.501   4.075   7.407  1.5962  0.7014  1.2445
  476MOL0     H64237   1.379   3.947   7.438  0.6193 -1.1500 -1.8319
  476MOL0     H64238   1.677   3.872   7.378  0.9209  0.6908 -0.7799
  476MOL0     H64239   1.531   3.773   7.401 -4.6146  1.6312  0.1738
  476MOL0     H64240   2.011   3.720   8.277 -0.7771 -0.2445 -0.3455
  476MOL0     H64241   2.265   3.723   8.311 -2.0466  0.0897  1.8344
  476MOL0     H64242   2.614   3.839   7.983  0.2487 -0.7616 -1.4543
  476MOL0     H64243   2.855   3.920   7.936  2.0396  1.9729  1.8664
  476MOL0     H64244   1.650   4.464   8.077 -0.3781  0.7190 -0.8335
  476MOL0     H64245   1.444   4.489   7.975 -1.9294  0.2440  0.5226
  476MOL0     H64246   1.162   4.546   7.821  0.5771 -0.9744  1.0233
  476MOL0     H64247   0.986   4.652   7.709  0.8692 -0.7548  0.9838
  476MOL0     H64248   0.876   4.542   7.333 -0.5392 -0.2930  0.0995
  476MOL0     H64249   0.908   4.695   7.422 -0.2675  1.5114 -2.6053
  476MOL0     H64250   0.635   4.584   7.342 -0.4440  0.0270 -0.4117
  476MOL0     H64251   0.741   4.724   7.291  1.3594 -0.0553  0.6015
  476MOL0     H64252   0.716   4.843   7.483 -0.3647  0.3119  2.5315
  476MOL0     H64253   0.658   4.708   7.586  0.2801 -1.9171 -1.2630
  476MOL0     H64254   0.433   4.729   7.494  0.5052 -0.0600  2.6923
  476MOL0     H64255   0.504   4.885   7.547  0.1777 -2.1831  1.6017
  476MOL0     H64256   0.428   4.910   7.121  0.1029 -1.2059 -0.6621
  476MOL0     H64257   0.909   4.302   7.475 -0.5669  2.1385 -1.7293
  476MOL0     H64258   1.253   4.160   7.571  0.7856 -0.2446 -2.6104
  476MOL0     H64259   1.101   4.088   7.603  0.2391  0.6554  0.2868
  476MOL0     H64260   1.133   4.148   7.440  1.5482  0.4297  0.3021
  477MOL0     O64261   4.827   6.403   0.838 -0.4271 -0.3297  0.3226
  477MOL0     C64262   4.731   6.416   0.769  0.3781 -0.3841 -0.4296
  477MOL0     O64263   4.616   6.484   0.807 -0.5372  0.2672 -0.4132
  477MOL0     C64264   4.637   6.561   0.917 -0.2108 -0.0579  0.2582
  477MOL0     C64265   4.553   6.531   1.025  1.0517  0.2857  0.4291
  477MOL0     C64266   4.563   6.606   1.147  0.5388  0.0653 -0.8165
  477MOL0     C64267   4.656   6.708   1.154 -0.3064 -1.0174  1.0284
  477MOL0     O64268   4.666   6.786   1.264 -0.6315  0.1851  0.4533
  477MOL0     C64269   4.549   6.855   1.311  0.9995  0.0024 -0.4415
  477MOL0     C64270   4.513   6.972   1.231 -1.0160 -0.2994  0.4676
  477MOL0     C64271   4.366   7.009   1.243  0.4324  0.2672  0.5374
  477MOL0     C64272   4.318   7.137   1.170 -0.7999  0.2457  0.4124
  477MOL0     C64273   4.183   7.183   1.232  0.6640  0.3075 -0.2811
  477MOL0     C64274   4.150   7.312   1.164 -0.1686 -0.9089  0.2684
  477MOL0     C64275   4.064   7.409   1.251 -0.4725  0.2242 -0.5653
  477MOL0     C64276   4.032   7.542   1.186 -0.7357 -0.0682  1.6309
  477MOL0     N64277   3.950   7.630   1.280 -0.5219  0.0417 -0.2191
  477MOL0     C64278   4.001   7.680   1.400 -0.0550  0.4784  1.1602
  477MOL0     C64279   3.892   7.692   1.478  0.3405  0.0683  0.6050
  477MOL0     C64280   3.885   7.762   1.603  0.3250  0.1924  0.5018
  477MOL0     C64281   3.787   7.888   1.617 -0.6370  0.6035 -0.1229
  477MOL0     C64282   3.779   7.988   1.504 -0.2717  0.7299 -0.1698
  477MOL0     C64283   3.803   8.137   1.544  0.3624  0.1947  0.2964
  477MOL0     O64284   3.933   8.176   1.588  0.3563  0.1560 -0.0671
  477MOL0     C64285   3.952   8.310   1.629 -0.3293 -0.0861 -0.2355
  477MOL0     C64286   4.087   8.345   1.656 -0.0843 -0.0170  0.5349
  477MOL0     C64287   4.128   8.483   1.666  0.0679  0.2728 -0.1953
  477MOL0     C64288   4.039   8.585   1.638 -0.5206 -0.5740  0.1815
  477MOL0     C64289   4.088   8.725   1.631 -0.4634  0.6584 -0.5755
  477MOL0     O64290   4.002   8.823   1.602  0.0988  0.6489  0.7858
  477MOL0     C64291   4.045   8.946   1.631 -0.2615 -0.7631  0.3232
  477MOL0     C64292   4.087   9.037   1.525  0.2269  0.1443 -0.1851
  477MOL0     C64293   4.105   9.174   1.559 -0.4353  0.5625  0.4194
  477MOL0     C64294   4.083   9.225   1.695 -1.0883  0.8238 -0.5038
  477MOL0     O64295   4.094   9.360   1.729 -0.4221 -0.0981  0.8088
  477MOL0     C64296   3.987   9.418   1.804  0.2784 -0.8479 -0.2364
  477MOL0     C64297   4.001   9.572   1.810 -0.8290 -0.0143  0.2677
  477MOL0     C64298   3.923   9.619   1.934 -0.7871 -0.7462 -0.0541
  477MOL0     C64299   3.909   9.768   1.934 -0.0905  0.1298  0.2015
  477MOL0     C64300   3.854   9.806   2.075  0.0905 -0.4127 -1.1306
  477MOL0     C64301   3.757   9.918   2.067  0.2359 -0.4728 -0.2174
  477MOL0     C64302   3.729   9.963   2.218  0.0152 -0.5738  0.1310
  477MOL0     C64303   3.778  10.098   2.255 -0.2013  0.0541 -0.6268
  477MOL0    Cl64304   3.954  10.122   2.245  0.3688  0.6414  0.1790
  477MOL0     C64305   4.053   9.125   1.792 -0.4084 -0.5308 -0.0952
  477MOL0     C64306   4.032   8.991   1.763 -1.2916  0.3061  0.3464
  477MOL0     O64307   4.202   8.746   1.671  0.0982  0.5869  0.6145
  477MOL0     C64308   3.905   8.554   1.610 -1.3360  0.0380 -0.3508
  477MOL0     C64309   3.868   8.419   1.613  0.0111  1.0721 -0.6148
  477MOL0     N64310   3.779   7.648   1.412  0.1040  0.1768  0.5752
  477MOL0     N64311   3.812   7.621   1.287 -0.2045 -0.0386 -0.1531
  477MOL0     C64312   4.739   6.736   1.049  0.3516 -0.4015 -0.0044
  477MOL0     C64313   4.729   6.667   0.923  0.0233  0.5798 -0.5769
  477MOL0     C64314   4.716   6.332   0.645  0.0914  0.1815 -0.0871
  477MOL0     C64315   4.583   6.275   0.611  0.0259 -0.1195  0.9636
  477MOL0     C64316   4.564   6.192   0.499  0.4970 -0.1660 -0.0740
  477MOL0     C64317   4.678   6.143   0.428 -0.1590  0.2057  0.5501
  477MOL0     O64318   4.676   6.047   0.325  0.4873 -0.2230 -0.6095
  477MOL0     C64319   4.549   5.982   0.287 -0.7045 -0.0112 -0.5987
  477MOL0     C64320   4.564   5.893   0.161  0.0206  0.8073 -0.1123
  477MOL0     C64321   4.694   5.806   0.162 -0.0746  0.2828  0.7146
  477MOL0     C64322   4.679   5.702   0.276 -0.1920  0.2577 -0.0946
  477MOL0     C64323   4.577   5.599   0.230  0.0786 -1.1277 -0.3640
  477MOL0     C64324   4.518   5.514   0.175  0.3867 -0.6103  0.9228
  477MOL0     C64325   4.803   6.196   0.465  0.6340  0.1175  0.0346
  477MOL0     C64326   4.825   6.289   0.567  0.4638  0.2026 -1.0640
  477MOL0     C64327   4.963   6.349   0.587  0.4156 -0.7244 -0.3890
  477MOL0     H64328   4.481   6.449   1.024 -0.3475  1.4179 -2.1276
  477MOL0     H64329   4.490   6.598   1.227 -1.1619 -1.0102 -2.4027
  477MOL0     H64330   4.460   6.804   1.349  0.8498  0.0911 -0.6697
  477MOL0     H64331   4.596   6.883   1.406  2.9655 -2.3434 -0.6351
  477MOL0     H64332   4.545   6.967   1.126 -1.0035  0.4874  0.4307
  477MOL0     H64333   4.577   7.054   1.265  1.9121 -0.4777 -3.8276
  477MOL0     H64334   4.339   7.009   1.349 -4.0112 -1.9658 -0.3765
  477MOL0     H64335   4.312   6.923   1.204  0.1261  1.6832 -2.3985
  477MOL0     H64336   4.391   7.215   1.193  0.4219 -0.8672  0.5047
  477MOL0     H64337   4.306   7.125   1.062  2.3570  3.2703 -0.4626
  477MOL0     H64338   4.104   7.109   1.217 -0.4894  1.2859  0.8343
  477MOL0     H64339   4.194   7.188   1.340 -1.3463 -1.1014  0.0545
  477MOL0     H64340   4.240   7.367   1.137 -1.5281  1.6925  0.7036
  477MOL0     H64341   4.094   7.297   1.071  0.3105  1.0908 -0.3932
  477MOL0     H64342   4.115   7.431   1.345  0.2249  0.0625 -0.9031
  477MOL0     H64343   3.978   7.360   1.297 -0.4457  2.0679  1.6338
  477MOL0     H64344   4.124   7.588   1.148  0.2856 -0.0999  3.8733
  477MOL0     H64345   3.980   7.518   1.094  2.8967 -1.5103 -0.2307
  477MOL0     H64346   4.104   7.702   1.425  0.6304  0.8367 -1.5807
  477MOL0     H64347   3.868   7.678   1.672  2.4154 -0.3557  0.4045
  477MOL0     H64348   3.982   7.798   1.637  0.5061 -1.4269  1.8563
  477MOL0     H64349   3.688   7.849   1.645 -0.2072  0.3360  1.0947
  477MOL0     H64350   3.823   7.948   1.702 -0.1446  2.5203 -1.6155
  477MOL0     H64351   3.683   7.988   1.451 -1.1897 -1.7099  1.3480
  477MOL0     H64352   3.859   7.959   1.434 -0.5649 -4.7270  1.3259
  477MOL0     H64353   3.715   8.152   1.606 -1.6154  0.2968 -2.3841
  477MOL0     H64354   3.784   8.197   1.454  0.5354  5.9554  3.5869
  477MOL0     H64355   4.160   8.268   1.674 -0.3227  0.4149  3.8565
  477MOL0     H64356   4.230   8.502   1.698  0.1296 -0.6563  0.1973
  477MOL0     H64357   4.087   9.005   1.421  1.4585  2.2537 -0.8938
  477MOL0     H64358   4.138   9.242   1.480  0.8028 -1.0613 -0.5093
  477MOL0     H64359   3.890   9.410   1.753 -1.1806 -1.1349  2.3900
  477MOL0     H64360   3.976   9.375   1.904  0.3643  1.1331  0.6809
  477MOL0     H64361   4.105   9.602   1.800 -0.8092 -0.5431 -1.6271
  477MOL0     H64362   3.947   9.620   1.728 -0.8803  2.9448  1.9012
  477MOL0     H64363   3.822   9.577   1.943 -2.0759  2.4944  3.2441
  477MOL0     H64364   3.970   9.592   2.029 -1.6730 -2.3186 -0.0238
  477MOL0     H64365   3.834   9.802   1.861  0.4073  0.2665 -0.2475
  477MOL0     H64366   4.006   9.812   1.912 -0.6514  1.1686 -0.2902
  477MOL0     H64367   3.941   9.852   2.123 -1.3132  3.6600 -2.0819
  477MOL0     H64368   3.813   9.723   2.133  1.0303 -1.4538 -1.8968
  477MOL0     H64369   3.789  10.003   2.006  0.7491  0.2891  1.0612
  477MOL0     H64370   3.660   9.881   2.030 -1.4295  3.9561 -0.9211
  477MOL0     H64371   3.774   9.897   2.292  3.0887 -0.6522 -1.6314
  477MOL0     H64372   3.620   9.964   2.231  0.3040  0.7043  3.0620
  477MOL0     H64373   3.716  10.171   2.201 -0.5546 -1.0767 -1.8129
  477MOL0     H64374   3.760  10.102   2.363  0.3655  0.6515 -0.5461
  477MOL0     H64375   4.055   9.144   1.899 -1.7493  0.0489 -0.1591
  477MOL0     H64376   4.009   8.914   1.835  1.2699 -1.6954 -0.8081
  477MOL0     H64377   3.836   8.632   1.580 -3.3381 -1.7245 -0.5907
  477MOL0     H64378   3.770   8.398   1.571 -0.4937  2.7113 -0.3582
  477MOL0     H64379   4.819   6.808   1.054  1.1684 -0.6956 -4.3651
  477MOL0     H64380   4.796   6.688   0.840 -1.5281  0.4217 -1.9267
  477MOL0     H64381   4.502   6.306   0.676  0.4892 -0.6250  1.8069
  477MOL0     H64382   4.467   6.155   0.466  1.2875 -2.2493 -0.1987
  477MOL0     H64383   4.462   6.048   0.276 -0.1598  0.6333 -1.0821
  477MOL0     H64384   4.530   5.906   0.364 -0.8094 -2.5005 -2.9094
  477MOL0     H64385   4.564   5.957   0.071  2.7407  1.7076  0.4247
  477MOL0     H64386   4.472   5.837   0.142 -1.9483  4.3952 -2.2866
  477MOL0     H64387   4.778   5.871   0.187 -0.3806  0.1673  2.1469
  477MOL0     H64388   4.716   5.773   0.060 -0.4255  0.6613  0.5103
  477MOL0     H64389   4.773   5.648   0.288 -1.2867 -1.1433  4.1907
  477MOL0     H64390   4.649   5.741   0.375  0.8749  0.2661  0.2364
  477MOL0     H64391   4.454   5.454   0.114  1.1711 -0.1864 -0.3631
  477MOL0     H64392   4.890   6.169   0.405 -0.2179  1.5703 -1.9657
  477MOL0     H64393   4.967   6.449   0.632  3.3360 -1.0982  0.3492
  477MOL0     H64394   5.024   6.285   0.652  1.9057  0.9698 -0.0393
  477MOL0     H64395   5.026   6.348   0.498  1.3996 -2.3521  0.2926
  478MOL0     O64396  10.252   8.515   5.610  0.3944  0.1050  0.3969
  478MOL0     C64397  10.215   8.466   5.718 -0.3360 -0.4726  0.4407
  478MOL0     O64398  10.290   8.384   5.801 -0.3167  0.1012  0.3572
  478MOL0     C64399  10.423   8.355   5.777  0.4035  0.1412 -0.2732
  478MOL0     C64400  10.471   8.236   5.838  0.7233 -0.7259  0.2947
  478MOL0     C64401  10.601   8.203   5.836  0.4820  0.0007 -0.7252
  478MOL0     C64402  10.692   8.291   5.781  1.1265 -0.1710 -0.3035
  478MOL0     O64403  10.812   8.254   5.799 -0.3013  0.3794 -0.1919
  478MOL0     C64404  10.912   8.333   5.733  0.3888  0.5518  0.2862
  478MOL0     C64405  11.045   8.278   5.773  0.0114  0.2139  0.8457
  478MOL0     C64406  11.162   8.375   5.746 -0.7162 -0.1650 -0.1500
  478MOL0     C64407  11.161   8.503   5.841  0.7580 -0.3817  0.4430
  478MOL0     C64408  11.275   8.603   5.828 -0.5356  0.4694  1.0287
  478MOL0     C64409  11.258   8.725   5.911  0.1139  0.6912  0.1153
  478MOL0     C64410  11.301   8.845   5.840  0.8163 -0.0279  0.9824
  478MOL0     C64411  11.452   8.860   5.811 -0.5384 -0.7883 -0.1703
  478MOL0     N64412  11.544   8.841   5.927  0.0026 -0.6979 -0.6493
  478MOL0     C64413  11.607   8.945   5.988  0.4824  0.0051  0.4671
  478MOL0     C64414  11.706   8.885   6.051 -0.7691 -0.0638 -0.9668
  478MOL0     C64415  11.835   8.943   6.109 -0.1060 -0.5043  0.1911
  478MOL0     C64416  11.854   9.086   6.061 -0.0355 -0.9272 -1.1780
  478MOL0     C64417  11.982   9.163   6.104 -0.4591  0.4280 -0.2086
  478MOL0     C64418  12.021   9.161   6.247 -0.4168 -0.4230 -0.1195
  478MOL0     O64419  11.899   9.169   6.321 -0.8257 -0.5959 -0.0797
  478MOL0     C64420  11.890   9.250   6.428 -0.3563 -0.4624  0.3456
  478MOL0     C64421  11.762   9.288   6.483  0.1977 -1.0876 -0.3531
  478MOL0     C64422  11.747   9.363   6.597 -0.0782  0.0451  0.5099
  478MOL0     C64423  11.862   9.404   6.669  0.4475  0.1916  0.3657
  478MOL0     C64424  11.851   9.481   6.787  0.4158  0.2767  0.0466
  478MOL0     O64425  11.744   9.466   6.870 -0.1627  0.2941  0.3621
  478MOL0     C64426  11.739   9.524   6.992  0.2851 -0.4900 -0.7289
  478MOL0     C64427  11.675   9.443   7.097  0.1034  0.4980  0.9970
  478MOL0     C64428  11.641   9.506   7.220  0.0418 -0.3871 -0.1212
  478MOL0     C64429  11.681   9.638   7.247 -0.0129 -0.7632  0.3678
  478MOL0     O64430  11.633   9.712   7.355  0.0937  1.1490  0.1943
  478MOL0     C64431  11.631   9.642   7.479  0.5177  0.8957  0.4615
  478MOL0     C64432  11.678   9.757   7.570  1.1119  0.3397  0.0342
  478MOL0     C64433  11.587   9.885   7.570 -0.5706  0.5054  0.9705
  478MOL0     C64434  11.446   9.847   7.619 -1.1455 -0.7341  0.6876
  478MOL0     C64435  11.356   9.965   7.596  0.1491  0.3193 -0.4457
  478MOL0     C64436  11.361  10.068   7.476 -0.6816 -0.4957 -0.4470
  478MOL0     C64437  11.329  10.005   7.330 -0.2372 -0.4698 -0.8763
  478MOL0     C64438  11.402  10.088   7.222  0.1531 -0.1516 -0.1940
  478MOL0    Cl64439  11.577  10.129   7.247  0.4012  0.1432 -0.3511
  478MOL0     C64440  11.743   9.713   7.150 -0.1724  0.3829  0.4788
  478MOL0     C64441  11.775   9.658   7.026 -0.0074  0.3444  0.0098
  478MOL0     O64442  11.949   9.559   6.814 -0.0204  0.4698  0.4531
  478MOL0     C64443  11.988   9.367   6.623  0.5138  0.1636 -1.2177
  478MOL0     C64444  11.999   9.292   6.508  0.4828 -0.1646 -0.0767
  478MOL0     N64445  11.694   8.745   6.040 -0.1353  0.1976  0.1057
  478MOL0     N64446  11.591   8.720   5.978  0.1233  0.1570  0.0054
  478MOL0     C64447  10.646   8.407   5.717 -0.9243 -0.3479 -0.4914
  478MOL0     C64448  10.511   8.448   5.721 -1.0194  0.0144 -0.4156
  478MOL0     C64449  10.076   8.482   5.757 -0.5425 -0.6948 -0.4591
  478MOL0     C64450  10.041   8.437   5.884 -0.3497 -0.1033  0.0515
  478MOL0     C64451   9.910   8.422   5.924 -0.1402  0.8543  0.2133
  478MOL0     C64452   9.803   8.453   5.839 -0.7655  0.3824 -0.1466
  478MOL0     O64453   9.669   8.470   5.884  0.1480  0.1582  0.3309
  478MOL0     C64454   9.632   8.450   6.015 -1.0410  0.8708  0.4827
  478MOL0     C64455   9.630   8.304   6.051 -0.5191  0.7671  0.3150
  478MOL0     C64456   9.498   8.225   6.024 -0.5721 -0.8862  0.1126
  478MOL0     C64457   9.449   8.220   5.877 -0.2572  0.9719 -0.2280
  478MOL0     C64458   9.525   8.139   5.785 -0.2343 -0.7106  0.1352
  478MOL0     C64459   9.587   8.066   5.708 -0.8210  0.2240  0.4145
  478MOL0     C64460   9.832   8.483   5.712 -0.4963 -0.6399 -0.7802
  478MOL0     C64461   9.969   8.508   5.671  0.2848  0.1057 -0.5491
  478MOL0     C64462   9.995   8.545   5.525  0.1985 -0.1691 -0.1279
  478MOL0     H64463  10.386   8.184   5.882 -0.1298 -0.3144 -0.8351
  478MOL0     H64464  10.629   8.111   5.886 -1.2851 -1.1046 -1.6714
  478MOL0     H64465  10.903   8.341   5.624  1.0750  2.3971  0.3403
  478MOL0     H64466  10.907   8.436   5.768  0.5991 -0.2081  2.7654
  478MOL0     H64467  11.069   8.183   5.724  2.1834  1.6787 -1.1632
  478MOL0     H64468  11.038   8.255   5.879  0.3875  2.8106  1.5007
  478MOL0     H64469  11.161   8.408   5.641 -0.5290  1.9540  0.4727
  478MOL0     H64470  11.256   8.330   5.779 -0.1628  1.2634  0.3188
  478MOL0     H64471  11.076   8.570   5.825  2.3561  1.8764  0.8319
  478MOL0     H64472  11.168   8.470   5.945 -1.4350  0.2107  0.8144
  478MOL0     H64473  11.372   8.558   5.854 -0.8929 -1.1470 -0.2486
  478MOL0     H64474  11.283   8.631   5.722 -0.0022  2.1967  1.4979
  478MOL0     H64475  11.155   8.748   5.939  0.7799  2.1631  1.5470
  478MOL0     H64476  11.314   8.702   6.002 -0.5916 -0.1045  0.3589
  478MOL0     H64477  11.255   8.926   5.898 -1.8945 -0.1470 -0.7955
  478MOL0     H64478  11.245   8.855   5.746  0.5391  3.6333  1.3744
  478MOL0     H64479  11.489   8.791   5.735 -1.9338 -1.5490 -0.1828
  478MOL0     H64480  11.458   8.957   5.760  1.1561 -1.2385 -0.9129
  478MOL0     H64481  11.586   9.051   5.970  0.1814 -0.1523 -0.1648
  478MOL0     H64482  11.828   8.936   6.218 -0.1638  1.4481  0.3515
  478MOL0     H64483  11.927   8.890   6.084  1.9427  3.7771 -2.6582
  478MOL0     H64484  11.851   9.082   5.951 -1.5129 -1.8687 -1.1234
  478MOL0     H64485  11.772   9.149   6.094  2.3408  1.5073  0.5545
  478MOL0     H64486  11.979   9.268   6.071 -1.1168  1.3123  2.4615
  478MOL0     H64487  12.063   9.113   6.050 -0.3655  0.3035  0.0502
  478MOL0     H64488  12.078   9.252   6.262 -1.7965  1.0629 -3.1119
  478MOL0     H64489  12.087   9.078   6.275 -0.3784 -0.0251  1.0386
  478MOL0     H64490  11.666   9.245   6.456 -2.4253  0.4923  4.8628
  478MOL0     H64491  11.651   9.394   6.638 -0.3882  0.3104 -0.3767
  478MOL0     H64492  11.642   9.340   7.093 -1.2982  0.9538  0.1790
  478MOL0     H64493  11.592   9.448   7.299  0.1776 -1.8334 -1.0586
  478MOL0     H64494  11.535   9.604   7.517 -0.2772  2.2101 -0.1368
  478MOL0     H64495  11.703   9.563   7.502  1.5387  2.2738  2.2457
  478MOL0     H64496  11.688   9.704   7.665 -0.0326 -0.5749 -0.3196
  478MOL0     H64497  11.778   9.788   7.540  1.1492 -1.1607 -1.5366
  478MOL0     H64498  11.622   9.953   7.648  0.9115  1.4322 -0.4317
  478MOL0     H64499  11.586   9.923   7.467 -2.8517 -3.8709 -0.8945
  478MOL0     H64500  11.441   9.811   7.722  0.1700 -1.4348  0.5270
  478MOL0     H64501  11.394   9.765   7.568 -2.5166  1.8347 -2.3971
  478MOL0     H64502  11.339  10.014   7.693 -1.1365 -1.9565  0.5709
  478MOL0     H64503  11.255   9.924   7.587 -1.1441  2.9417  0.9228
  478MOL0     H64504  11.284  10.143   7.497  1.6760  1.9659 -0.0427
  478MOL0     H64505  11.459  10.116   7.472  0.0240 -1.9725 -3.0327
  478MOL0     H64506  11.220  10.004   7.322 -0.7327  1.9816  2.9696
  478MOL0     H64507  11.372   9.905   7.325 -0.3081 -0.5466 -0.1155
  478MOL0     H64508  11.387  10.036   7.127 -2.5890 -0.0675  0.1151
  478MOL0     H64509  11.353  10.184   7.202  2.0043  0.1655 -4.0748
  478MOL0     H64510  11.749   9.816   7.185 -2.1548 -0.2327  2.9241
  478MOL0     H64511  11.813   9.729   6.953  0.8885 -0.3208 -0.1917
  478MOL0     H64512  12.078   9.388   6.679  1.8665 -4.8812 -1.0467
  478MOL0     H64513  12.096   9.258   6.474  2.8601  4.2415  1.5276
  478MOL0     H64514  10.725   8.475   5.688  0.2409 -1.5427 -0.2196
  478MOL0     H64515  10.469   8.539   5.680  2.6103  1.9076 -0.3013
  478MOL0     H64516  10.113   8.402   5.958 -3.1686  0.6077  3.4247
  478MOL0     H64517   9.890   8.416   6.030  1.1405 -0.7989  0.3877
  478MOL0     H64518   9.534   8.495   6.030 -1.1390  0.4187  1.2224
  478MOL0     H64519   9.702   8.514   6.070  0.5104 -1.7745  1.7461
  478MOL0     H64520   9.655   8.296   6.157  0.4257 -0.7493  0.0068
  478MOL0     H64521   9.712   8.253   6.000  1.5624  2.5370  1.7364
  478MOL0     H64522   9.415   8.271   6.079 -2.4876 -2.5551 -1.2019
  478MOL0     H64523   9.521   8.132   6.076 -0.2072  0.7529  3.1082
  478MOL0     H64524   9.357   8.162   5.877  1.1647 -1.4835  1.4573
  478MOL0     H64525   9.422   8.315   5.830  0.4430  0.2678 -2.1257
  478MOL0     H64526   9.643   8.010   5.636  0.2010  1.9114 -0.1852
  478MOL0     H64527   9.754   8.497   5.639 -1.4008 -0.6847  0.1630
  478MOL0     H64528  10.077   8.616   5.518  0.3568 -0.3305  0.0640
  478MOL0     H64529  10.028   8.458   5.467 -0.4436 -0.9885  0.7107
  478MOL0     H64530   9.910   8.586   5.469 -0.8072 -0.2431  1.2740
  479MOL0     O64531   0.371   2.771   0.971 -0.3820  0.4385 -0.4432
  479MOL0     C64532   0.398   2.834   0.872 -0.4289 -0.2647 -0.1529
  479MOL0     O64533   0.442   2.968   0.888  0.1336  1.1680  0.5230
  479MOL0     C64534   0.399   3.039   0.998  0.4039  0.4900 -1.1103
  479MOL0     C64535   0.489   3.110   1.078  0.4932  0.1224 -0.1020
  479MOL0     C64536   0.438   3.162   1.206  0.2770 -1.1142  1.1284
  479MOL0     C64537   0.293   3.164   1.239 -0.9601  0.2229 -0.5507
  479MOL0     O64538   0.249   3.195   1.370  0.3262  0.6701 -0.6576
  479MOL0     C64539   0.212   3.093   1.450  0.4778 -0.9011  0.7735
  479MOL0     C64540   0.094   3.148   1.539  0.3561  0.0280 -0.5227
  479MOL0     C64541   0.002   3.047   1.625  0.2423 -0.1080  0.4797
  479MOL0     C64542  -0.110   3.131   1.697  0.5010  0.9569  0.6702
  479MOL0     C64543  -0.210   3.190   1.596  0.0300 -0.4085  0.1251
  479MOL0     C64544  -0.337   3.243   1.648 -0.0647  0.7534  0.4625
  479MOL0     C64545  -0.434   3.131   1.693  0.8141 -0.2170  0.7573
  479MOL0     C64546  -0.564   3.186   1.755  0.0146 -0.1145  0.3530
  479MOL0     N64547  -0.617   3.297   1.682  0.2509 -0.0384 -0.2143
  479MOL0     C64548  -0.649   3.305   1.545  0.5058 -0.0554  0.4157
  479MOL0     C64549  -0.716   3.423   1.525  0.5651  0.1350  0.4999
  479MOL0     C64550  -0.776   3.470   1.385  0.5843 -0.5602 -0.4194
  479MOL0     C64551  -0.698   3.595   1.341 -0.2667  0.0872 -0.6623
  479MOL0     C64552  -0.550   3.558   1.314  0.9658 -0.0488 -0.4153
  479MOL0     C64553  -0.516   3.452   1.210  0.0053 -0.2882 -0.0700
  479MOL0     O64554  -0.380   3.422   1.217 -0.0920  0.5196  0.0298
  479MOL0     C64555  -0.327   3.334   1.123 -0.9931 -0.3442  0.2696
  479MOL0     C64556  -0.355   3.343   0.987  0.1679  0.2420  0.1905
  479MOL0     C64557  -0.293   3.264   0.897  0.2043 -0.3225  0.0752
  479MOL0     C64558  -0.192   3.172   0.937 -0.0523 -0.2862  0.4938
  479MOL0     C64559  -0.128   3.094   0.833 -0.3889 -0.3477  0.1991
  479MOL0     O64560  -0.061   2.985   0.876 -0.2291 -0.1172 -0.6157
  479MOL0     C64561  -0.051   2.897   0.773 -0.2866  0.2868 -0.0145
  479MOL0     C64562   0.061   2.893   0.689 -0.3242  0.1400  0.1774
  479MOL0     C64563   0.066   2.800   0.583  1.0547 -0.6768 -0.2394
  479MOL0     C64564  -0.034   2.706   0.557 -0.0902  0.5340 -0.5180
  479MOL0     O64565  -0.008   2.616   0.456 -0.2380 -0.4230 -0.4743
  479MOL0     C64566  -0.072   2.488   0.456 -0.2801  0.5201  0.0650
  479MOL0     C64567   0.020   2.378   0.407  0.6512 -0.2423 -0.1165
  479MOL0     C64568   0.074   2.387   0.265  0.9823  0.5066 -0.9575
  479MOL0     C64569   0.075   2.251   0.195 -0.3030  0.4572  1.0376
  479MOL0     C64570   0.137   2.258   0.057 -0.4527  0.5186 -1.4261
  479MOL0     C64571   0.052   2.319  -0.054 -0.1935 -0.4286  0.1055
  479MOL0     C64572   0.139   2.328  -0.186  0.5191 -0.9155 -0.2663
  479MOL0     C64573   0.164   2.187  -0.241 -0.0294 -0.7940  0.2436
  479MOL0    Cl64574   0.249   2.224  -0.381 -0.0885 -0.1705  0.2741
  479MOL0     C64575  -0.152   2.716   0.640  0.2199 -0.8552 -0.2866
  479MOL0     C64576  -0.153   2.806   0.752 -0.2769 -0.7560 -0.3154
  479MOL0     O64577  -0.143   3.126   0.710  0.0483  0.3285 -0.6812
  479MOL0     C64578  -0.169   3.157   1.077 -0.5124  0.5359  0.2867
  479MOL0     C64579  -0.233   3.237   1.165 -0.7390 -1.2595 -0.1382
  479MOL0     N64580  -0.713   3.492   1.653 -0.5605  0.1369  0.0724
  479MOL0     N64581  -0.658   3.411   1.741  0.3502  0.7075  0.3633
  479MOL0     C64582   0.214   3.098   1.149 -0.2788  0.0854  0.1836
  479MOL0     C64583   0.258   3.036   1.030  0.4569  0.9766 -0.1257
  479MOL0     C64584   0.397   2.775   0.740 -0.3663  0.2150 -0.0003
  479MOL0     C64585   0.450   2.847   0.631 -1.2063  0.8818 -0.5166
  479MOL0     C64586   0.464   2.794   0.502 -0.2254  0.1694 -0.8508
  479MOL0     C64587   0.413   2.668   0.473 -0.4047  0.7059  0.3972
  479MOL0     O64588   0.393   2.620   0.343 -0.6503  0.0403 -0.8840
  479MOL0     C64589   0.460   2.687   0.236 -0.4112  0.6251  0.6669
  479MOL0     C64590   0.368   2.655   0.120  0.0387 -0.3576  1.0252
  479MOL0     C64591   0.423   2.718  -0.012 -0.3640 -0.3095  1.1096
  479MOL0     C64592   0.424   2.868  -0.019  0.7544 -0.3956 -0.1219
  479MOL0     C64593   0.527   2.925  -0.105 -0.2412  0.3450  0.6236
  479MOL0     C64594   0.617   2.954  -0.183  0.2393 -0.0533  0.7202
  479MOL0     C64595   0.350   2.601   0.580 -0.7454 -0.4758 -0.5260
  479MOL0     C64596   0.353   2.646   0.716  0.1709  0.1116  0.1063
  479MOL0     C64597   0.290   2.554   0.813  0.4879  0.2941 -0.0020
  479MOL0     H64598   0.593   3.092   1.054 -0.1132 -0.0508 -2.9632
  479MOL0     H64599   0.518   3.172   1.278  2.8186  2.5393 -1.8302
  479MOL0     H64600   0.156   3.014   1.400 -0.9327 -0.8583  2.2406
  479MOL0     H64601   0.306   3.060   1.496  1.3841  2.1388  1.3795
  479MOL0     H64602   0.029   3.201   1.469 -0.9191  0.1010  0.6672
  479MOL0     H64603   0.143   3.217   1.609  0.7565  0.5864 -1.3362
  479MOL0     H64604   0.071   3.002   1.697  2.9629 -1.1456 -2.4935
  479MOL0     H64605  -0.028   2.964   1.561  0.4959  1.0725 -1.2580
  479MOL0     H64606  -0.172   3.074   1.767  0.1011 -0.9165 -1.1202
  479MOL0     H64607  -0.069   3.213   1.756  0.4326  0.8731  0.8348
  479MOL0     H64608  -0.177   3.280   1.543  0.2325 -0.8113 -0.4468
  479MOL0     H64609  -0.223   3.107   1.527 -3.8274 -1.4668  1.8443
  479MOL0     H64610  -0.314   3.310   1.731  0.3876  2.0860 -0.7074
  479MOL0     H64611  -0.375   3.320   1.580 -1.4144  2.9082  3.4352
  479MOL0     H64612  -0.395   3.063   1.770  0.6497  0.6367  1.6163
  479MOL0     H64613  -0.462   3.072   1.605  2.6736 -1.9023  1.2179
  479MOL0     H64614  -0.633   3.102   1.772  2.7779 -2.2095  2.0897
  479MOL0     H64615  -0.543   3.209   1.860 -3.7733  1.1139  1.0146
  479MOL0     H64616  -0.628   3.240   1.461 -1.1641 -0.7803  0.5446
  479MOL0     H64617  -0.779   3.383   1.317  0.8436 -3.5533  3.0942
  479MOL0     H64618  -0.880   3.497   1.402  0.1989 -3.1251  2.0147
  479MOL0     H64619  -0.751   3.616   1.248 -0.3062 -5.1618 -2.1613
  479MOL0     H64620  -0.695   3.679   1.412 -0.1465  0.7836 -1.4781
  479MOL0     H64621  -0.522   3.521   1.413 -0.1544 -2.4085 -0.8960
  479MOL0     H64622  -0.486   3.646   1.299  0.4257  0.6969  1.3776
  479MOL0     H64623  -0.558   3.475   1.112  0.7852  0.3368 -0.2702
  479MOL0     H64624  -0.562   3.361   1.247 -1.7543  0.1562 -1.0758
  479MOL0     H64625  -0.429   3.410   0.943 -0.0310  1.0092  1.6314
  479MOL0     H64626  -0.338   3.283   0.799 -0.0578  1.5982  0.5237
  479MOL0     H64627   0.144   2.963   0.699  1.0684 -1.4002 -0.0496
  479MOL0     H64628   0.156   2.797   0.522  1.7028 -2.9922  0.6886
  479MOL0     H64629  -0.089   2.467   0.562 -0.4329  0.3492  0.0060
  479MOL0     H64630  -0.171   2.487   0.408 -0.4370 -0.5402  0.4017
  479MOL0     H64631   0.106   2.384   0.474 -0.5482  1.2809  1.3493
  479MOL0     H64632  -0.036   2.284   0.416  0.0661  0.0318 -0.7688
  479MOL0     H64633   0.001   2.451   0.215 -0.5926  0.3897  1.0646
  479MOL0     H64634   0.173   2.432   0.275  1.2342 -0.4764  2.5335
  479MOL0     H64635  -0.024   2.205   0.185 -0.9792  1.8080  1.3701
  479MOL0     H64636   0.128   2.180   0.260  0.8568  2.8729  2.8969
  479MOL0     H64637   0.164   2.159   0.019  3.8916  1.8479 -2.3662
  479MOL0     H64638   0.229   2.317   0.063  1.0503 -1.6927 -1.2451
  479MOL0     H64639  -0.036   2.256  -0.065 -0.3086 -0.3587  0.6075
  479MOL0     H64640   0.003   2.416  -0.044  1.3120  0.5738 -1.5436
  479MOL0     H64641   0.229   2.389  -0.175  0.7492 -0.4412 -3.5714
  479MOL0     H64642   0.085   2.392  -0.257  2.2813 -0.9310 -1.6826
  479MOL0     H64643   0.221   2.124  -0.172  2.2898  0.3585 -0.5025
  479MOL0     H64644   0.071   2.135  -0.265 -3.3455  4.1240  0.9432
  479MOL0     H64645  -0.231   2.647   0.612  0.7011 -2.9689  3.0800
  479MOL0     H64646  -0.240   2.816   0.816 -2.6179 -3.1963 -2.8701
  479MOL0     H64647  -0.108   3.075   1.115 -1.3807 -0.2921 -0.0592
  479MOL0     H64648  -0.213   3.237   1.272  2.8040 -0.8052 -0.7096
  479MOL0     H64649   0.110   3.099   1.181 -0.5955  1.6444 -0.7829
  479MOL0     H64650   0.179   2.985   0.976 -0.4502  0.9696  1.1514
  479MOL0     H64651   0.487   2.948   0.646 -2.8261  1.5955 -1.0674
  479MOL0     H64652   0.514   2.857   0.429 -0.2788 -1.8017 -2.7003
  479MOL0     H64653   0.565   2.662   0.222 -0.5603 -0.5030  1.4202
  479MOL0     H64654   0.449   2.795   0.248 -0.3779  0.5166  1.8346
  479MOL0     H64655   0.266   2.689   0.139 -0.0359 -0.6664  1.1826
  479MOL0     H64656   0.359   2.551   0.089 -2.0776 -1.4462  4.7231
  479MOL0     H64657   0.374   2.670  -0.098  1.5188  0.5448 -0.5125
  479MOL0     H64658   0.525   2.680  -0.017 -0.5637 -0.7320 -0.0393
  479MOL0     H64659   0.322   2.883  -0.057  1.0701  2.6164 -0.0298
  479MOL0     H64660   0.431   2.921   0.076 -2.7009  0.2739 -0.1063
  479MOL0     H64661   0.690   2.979  -0.256 -0.0819  0.4385  0.5561
  479MOL0     H64662   0.304   2.509   0.546 -0.1151  0.1150 -3.2083
  479MOL0     H64663   0.369   2.534   0.886 -1.2759  1.8771  2.4788
  479MOL0     H64664   0.202   2.593   0.865  0.4808  2.7990 -1.7033
  479MOL0     H64665   0.254   2.466   0.759 -0.8667  2.2855 -2.5522
  480MOL0     O64666   8.021   6.678   9.884 -0.0542 -0.1914 -0.0259
  480MOL0     C64667   8.029   6.616   9.991 -0.3577 -0.2643 -0.0169
  480MOL0     O64668   8.037   6.681  10.113  0.1278 -0.2184  0.4582
  480MOL0     C64669   8.018   6.817  10.117  0.1079  0.8183  0.7633
  480MOL0     C64670   8.107   6.891  10.187  0.5276 -0.3650 -0.1196
  480MOL0     C64671   8.082   7.027  10.213 -1.5534 -0.0457  0.4370
  480MOL0     C64672   7.982   7.095  10.146 -0.0013  0.3273 -0.0320
  480MOL0     O64673   7.954   7.229  10.149  0.2317 -0.5457 -0.0454
  480MOL0     C64674   8.041   7.316  10.221 -1.0636  0.0826 -0.4151
  480MOL0     C64675   7.979   7.462  10.200 -0.1469 -0.5001 -0.0083
  480MOL0     C64676   8.058   7.585  10.259 -0.1774 -0.3297  0.1061
  480MOL0     C64677   7.984   7.717  10.240 -0.1534 -0.4070 -0.0630
  480MOL0     C64678   8.076   7.836  10.244  0.5562  0.3597 -0.2516
  480MOL0     C64679   8.126   7.888  10.378  0.7036  0.0347  0.6251
  480MOL0     C64680   8.218   8.011  10.360  1.4439  0.3294 -0.6382
  480MOL0     C64681   8.309   8.036  10.478  0.7157 -0.6001 -0.9568
  480MOL0     N64682   8.255   8.091  10.612  0.5970  0.4396  0.6535
  480MOL0     C64683   8.208   8.025  10.720  0.4618  0.1431 -0.2402
  480MOL0     C64684   8.171   8.109  10.819 -0.5939  0.2602  0.2121
  480MOL0     C64685   8.113   8.068  10.949 -1.0074 -0.6033  0.3153
  480MOL0     C64686   8.014   8.162  11.017  0.0914  0.3411 -1.3014
  480MOL0     C64687   7.938   8.090  11.141  0.2833 -0.3050  0.4509
  480MOL0     C64688   7.781   8.103  11.135 -0.2350 -0.1643  0.0670
  480MOL0     O64689   7.732   8.032  11.017 -0.3464  0.2600 -0.6595
  480MOL0     C64690   7.694   7.889  11.018  0.2624  0.4342 -0.0942
  480MOL0     C64691   7.661   7.845  10.888  1.0141  0.7789 -0.0089
  480MOL0     C64692   7.592   7.717  10.875 -0.5043  0.0235 -0.2195
  480MOL0     C64693   7.580   7.633  10.990 -1.0870 -0.0677  0.4880
  480MOL0     C64694   7.517   7.498  10.965 -0.1092  0.2666 -0.6941
  480MOL0     O64695   7.534   7.446  10.838  0.5861 -0.3060  1.2420
  480MOL0     C64696   7.476   7.322  10.819  0.0712 -0.3883 -0.7174
  480MOL0     C64697   7.555   7.215  10.800  0.0541  0.6891 -0.4942
  480MOL0     C64698   7.513   7.093  10.773  0.1785  0.1175 -0.5255
  480MOL0     C64699   7.373   7.066  10.761 -0.2458 -0.6277 -0.8125
  480MOL0     O64700   7.333   6.940  10.724  0.8655 -0.5019 -0.0708
  480MOL0     C64701   7.203   6.894  10.751 -0.0462  0.4101 -0.5211
  480MOL0     C64702   7.180   6.883  10.903 -0.4806 -0.1692 -0.3356
  480MOL0     C64703   7.265   6.773  10.961 -1.0862  0.0152 -0.4493
  480MOL0     C64704   7.243   6.767  11.113 -0.2636 -0.6891 -0.2478
  480MOL0     C64705   7.325   6.665  11.191 -0.7706 -0.3039  1.0083
  480MOL0     C64706   7.262   6.534  11.172 -0.3886 -0.6929 -0.0849
  480MOL0     C64707   7.355   6.435  11.256 -0.1240  0.5576  0.3769
  480MOL0     C64708   7.327   6.295  11.202 -0.9209  0.0830  0.5457
  480MOL0    Cl64709   7.158   6.253  11.173  0.4932 -0.3105  0.7557
  480MOL0     C64710   7.286   7.170  10.795  0.6525 -0.5470 -1.0201
  480MOL0     C64711   7.340   7.301  10.825 -0.8676  0.7902  0.3803
  480MOL0     O64712   7.482   7.432  11.070 -0.1453  0.0842 -0.0615
  480MOL0     C64713   7.623   7.673  11.120  0.0325 -0.3989 -0.2722
  480MOL0     C64714   7.675   7.805  11.133 -0.3677  0.1312  0.3592
  480MOL0     N64715   8.206   8.238  10.777 -0.1702 -0.0066 -0.3296
  480MOL0     N64716   8.247   8.226  10.653 -0.0021  0.2758 -0.9689
  480MOL0     C64717   7.881   7.013  10.082 -0.2807 -0.2378 -0.3067
  480MOL0     C64718   7.901   6.879  10.064  0.1530  0.2719  0.5490
  480MOL0     C64719   8.006   6.469   9.989 -1.0513 -0.0715  0.4883
  480MOL0     C64720   7.876   6.433   9.948 -0.5481 -0.0069  0.6832
  480MOL0     C64721   7.834   6.305   9.968 -1.1064 -0.0758  0.0136
  480MOL0     C64722   7.925   6.207  10.021 -0.1373  0.7361  0.3109
  480MOL0     O64723   7.878   6.080  10.032  0.0598  0.4792 -0.4865
  480MOL0     C64724   7.968   5.971   9.994  1.1713 -0.8490  0.4940
  480MOL0     C64725   7.956   5.945   9.844  0.1475 -0.0697  0.1392
  480MOL0     C64726   7.822   5.884   9.784 -0.6656 -1.0838 -0.7987
  480MOL0     C64727   7.799   5.753   9.839 -0.1136 -0.4457 -0.7737
  480MOL0     C64728   7.723   5.682   9.745 -0.2160  0.6652 -0.2604
  480MOL0     C64729   7.664   5.625   9.654  0.1354  0.1836  0.7406
  480MOL0     C64730   8.052   6.238  10.053  0.5882  0.4269 -0.1230
  480MOL0     C64731   8.089   6.373  10.043  0.9505  0.5718  0.1238
  480MOL0     C64732   8.225   6.407  10.109  0.3107 -0.7155 -0.4299
  480MOL0     H64733   8.193   6.839  10.226  0.2651  0.3117  1.4111
  480MOL0     H64734   8.154   7.091  10.263 -1.2785 -1.1179  1.4488
  480MOL0     H64735   8.046   7.279  10.324 -2.4779  0.2191 -0.2846
  480MOL0     H64736   8.143   7.314  10.180 -0.3428 -2.5883  1.2578
  480MOL0     H64737   7.886   7.458  10.258  0.5143  0.4131  1.1629
  480MOL0     H64738   7.963   7.499  10.098  3.3055 -0.3336 -0.6075
  480MOL0     H64739   8.147   7.607  10.199 -3.7900  1.0055 -5.4442
  480MOL0     H64740   8.077   7.558  10.364 -3.9466  0.1917  1.0776
  480MOL0     H64741   7.921   7.734  10.152 -2.2458 -0.2428  1.3824
  480MOL0     H64742   7.914   7.735  10.323 -1.9888  1.7012 -1.9470
  480MOL0     H64743   8.169   7.813  10.190  1.0599  1.4652  0.1063
  480MOL0     H64744   8.042   7.926  10.192  0.5918  1.1629  1.0572
  480MOL0     H64745   8.042   7.925  10.438  1.1826  0.6126  0.9550
  480MOL0     H64746   8.171   7.804  10.432  1.8745  0.5231  0.4582
  480MOL0     H64747   8.158   8.101  10.343  0.5728  0.0487  0.8474
  480MOL0     H64748   8.290   7.995  10.279  1.6884  0.1039 -0.3746
  480MOL0     H64749   8.349   7.936  10.499  0.8176 -0.2328  0.7179
  480MOL0     H64750   8.398   8.090  10.445  1.3777 -0.8285  0.4016
  480MOL0     H64751   8.179   7.921  10.727 -0.4326  0.5001  2.4773
  480MOL0     H64752   8.066   7.974  10.918  0.2307 -0.8657 -0.8924
  480MOL0     H64753   8.187   8.055  11.029 -1.8630  0.8967  1.3897
  480MOL0     H64754   8.056   8.253  11.061 -0.5008 -0.8537  2.0795
  480MOL0     H64755   7.946   8.198  10.940 -0.5711  3.4631  0.5473
  480MOL0     H64756   7.980   8.126  11.236 -0.7408 -2.6891  1.9012
  480MOL0     H64757   7.959   7.983  11.127  2.4914  0.1171  0.1242
  480MOL0     H64758   7.750   8.208  11.134 -1.1052 -0.4132 -1.2012
  480MOL0     H64759   7.731   8.058  11.221  0.8349 -1.1049  0.2112
  480MOL0     H64760   7.659   7.925  10.814 -0.7444 -0.4137 -1.3499
  480MOL0     H64761   7.547   7.688  10.781  0.9183  0.3502 -1.0305
  480MOL0     H64762   7.661   7.242  10.804  0.7250 -0.8577 -4.1601
  480MOL0     H64763   7.595   7.023  10.758 -1.8900 -1.8759 -3.8932
  480MOL0     H64764   7.133   6.966  10.707 -2.0478 -0.4245  1.1519
  480MOL0     H64765   7.175   6.805  10.694 -1.2254  1.9001 -2.3857
  480MOL0     H64766   7.202   6.973  10.961  1.9696 -1.2823  0.5941
  480MOL0     H64767   7.075   6.862  10.928 -0.5762  2.8921  2.6064
  480MOL0     H64768   7.229   6.681  10.916 -0.0245 -0.2298 -0.8281
  480MOL0     H64769   7.368   6.785  10.926 -0.1823 -0.7960  1.7681
  480MOL0     H64770   7.136   6.754  11.136 -0.0624 -0.0917  1.1145
  480MOL0     H64771   7.263   6.864  11.160  1.5967 -1.4827  0.6645
  480MOL0     H64772   7.335   6.684  11.298  0.7982  1.5982  0.5766
  480MOL0     H64773   7.425   6.678  11.151 -1.9227  0.3981 -1.9113
  480MOL0     H64774   7.162   6.535  11.216 -1.1156 -1.2889 -1.6431
  480MOL0     H64775   7.248   6.508  11.067 -0.9370  1.3767 -0.5736
  480MOL0     H64776   7.327   6.447  11.361  0.2087  0.8330  0.4381
  480MOL0     H64777   7.462   6.458  11.251  0.4573 -2.0001 -2.4616
  480MOL0     H64778   7.390   6.285  11.113 -1.0825  0.4534  0.3852
  480MOL0     H64779   7.365   6.225  11.277  1.4204 -0.7827 -1.3198
  480MOL0     H64780   7.180   7.160  10.813  0.2825  2.5781 -0.8138
  480MOL0     H64781   7.264   7.365  10.868 -2.3872 -0.6089 -0.1159
  480MOL0     H64782   7.597   7.612  11.206  0.8548 -0.5253 -0.1062
  480MOL0     H64783   7.694   7.827  11.238 -4.5087 -0.2159  1.3286
  480MOL0     H64784   7.793   7.057  10.036 -0.4585  0.2287  0.4479
  480MOL0     H64785   7.833   6.812  10.012 -0.0289  0.2046  0.8677
  480MOL0     H64786   7.818   6.505   9.891 -1.2190 -2.0437 -1.3534
  480MOL0     H64787   7.732   6.297   9.930 -0.7458  1.4344 -1.4033
  480MOL0     H64788   7.936   5.878  10.042 -2.5667  1.2341  2.5794
  480MOL0     H64789   8.071   6.000  10.015  1.1532 -0.5887  0.2402
  480MOL0     H64790   8.039   5.876   9.824 -0.9689 -1.5382  0.3490
  480MOL0     H64791   7.972   6.037   9.787 -1.0345 -0.5530 -1.0057
  480MOL0     H64792   7.841   5.894   9.677 -0.0385  0.5640 -0.5682
  480MOL0     H64793   7.740   5.949   9.818  0.4840 -0.1579  0.3035
  480MOL0     H64794   7.896   5.703   9.844 -0.4410 -1.1815 -1.4533
  480MOL0     H64795   7.761   5.741   9.941 -0.8952  0.1781 -0.9821
  480MOL0     H64796   7.610   5.604   9.564  0.3637 -1.3321  0.9448
  480MOL0     H64797   8.115   6.163  10.100 -1.3693 -0.3724  1.3988
  480MOL0     H64798   8.288   6.325  10.144  2.8842  0.9619 -0.8233
  480MOL0     H64799   8.286   6.481  10.056 -2.6956  1.7532 -0.7504
  480MOL0     H64800   8.212   6.458  10.205 -1.1208 -1.9218  0.0432
  481MOL0     O64801   4.219   1.961  11.233 -0.0372  0.9033  1.3978
  481MOL0     C64802   4.138   2.016  11.303 -0.6874 -0.3848 -0.6151
  481MOL0     O64803   4.116   2.150  11.309 -0.7842  0.1409 -0.0039
  481MOL0     C64804   4.152   2.221  11.199  0.3627 -0.9018 -1.0079
  481MOL0     C64805   4.142   2.181  11.061  0.5835  0.7141 -0.0250
  481MOL0     C64806   4.160   2.273  10.958  0.2299  0.5811 -0.7350
  481MOL0     C64807   4.216   2.399  10.994 -0.5142 -0.7272  0.5661
  481MOL0     O64808   4.253   2.488  10.897  0.3426 -0.0546 -1.1304
  481MOL0     C64809   4.163   2.503  10.781  0.1735 -0.6566  0.3122
  481MOL0     C64810   4.210   2.631  10.715  0.7038  0.7683 -0.1860
  481MOL0     C64811   4.358   2.625  10.669  0.3068  0.5395  0.8684
  481MOL0     C64812   4.392   2.736  10.582 -0.8050  0.4821  0.6831
  481MOL0     C64813   4.540   2.731  10.542  0.5398 -0.5880  0.0451
  481MOL0     C64814   4.587   2.837  10.446  0.4622 -0.5236  0.6084
  481MOL0     C64815   4.726   2.793  10.386 -0.2885  1.5360  0.0980
  481MOL0     C64816   4.764   2.884  10.267 -0.0311  1.2209 -0.0599
  481MOL0     N64817   4.668   2.861  10.156 -0.6494 -0.7850  0.1541
  481MOL0     C64818   4.677   2.771  10.044 -0.1543 -1.1303 -0.0964
  481MOL0     C64819   4.569   2.792   9.971 -0.3229 -0.2825  0.4505
  481MOL0     C64820   4.560   2.715   9.846  0.4482 -0.6978  0.1986
  481MOL0     C64821   4.526   2.574   9.869  0.5221 -0.0632  0.4128
  481MOL0     C64822   4.535   2.479   9.739 -0.0353  0.3189  1.4864
  481MOL0     C64823   4.474   2.346   9.769 -0.0372  0.0455 -0.1751
  481MOL0     O64824   4.536   2.275   9.871 -0.8099  0.0677 -0.2678
  481MOL0     C64825   4.449   2.186   9.926 -1.4202  0.3193 -0.5856
  481MOL0     C64826   4.437   2.051   9.875  0.0452 -0.8047 -0.1087
  481MOL0     C64827   4.338   1.966   9.919 -0.0709 -0.1836  0.0447
  481MOL0     C64828   4.253   2.013  10.019  0.6827  0.3707  0.5502
  481MOL0     C64829   4.135   1.926  10.060 -0.2082 -0.0493  0.4785
  481MOL0     O64830   4.092   1.830   9.959 -0.6298  0.3564  0.4559
  481MOL0     C64831   3.985   1.747   9.985  0.3070  0.4693  0.6095
  481MOL0     C64832   3.998   1.612   9.986 -0.4312 -0.1512 -0.8615
  481MOL0     C64833   3.880   1.538   9.995  0.5102 -0.0974 -0.5184
  481MOL0     C64834   3.755   1.595  10.008 -0.0700  0.9202 -0.3254
  481MOL0     O64835   3.649   1.508  10.017  0.3570  0.1136  0.1796
  481MOL0     C64836   3.519   1.571  10.024  0.1639 -0.4863 -0.4809
  481MOL0     C64837   3.426   1.456  10.051 -0.2856 -1.1410  0.5057
  481MOL0     C64838   3.473   1.370  10.164 -0.2038 -0.0552  0.0753
  481MOL0     C64839   3.371   1.262  10.204 -0.1797 -0.6940 -0.1434
  481MOL0     C64840   3.287   1.291  10.336  0.5004  0.2478  0.6381
  481MOL0     C64841   3.240   1.166  10.403  0.3799 -0.1225  0.0453
  481MOL0     C64842   3.170   1.210  10.537  0.5861  1.0554 -0.3674
  481MOL0     C64843   3.125   1.096  10.631 -0.1220 -0.0661 -0.4515
  481MOL0    Cl64844   3.259   1.050  10.743  0.1910  0.4333  0.3233
  481MOL0     C64845   3.746   1.738  10.006 -0.6532  0.4608 -0.0795
  481MOL0     C64846   3.868   1.809   9.993 -0.5261  0.8940 -0.6850
  481MOL0     O64847   4.084   1.939  10.169 -0.7642 -0.3602 -0.7014
  481MOL0     C64848   4.273   2.130  10.076  0.5399 -0.1171 -0.3104
  481MOL0     C64849   4.368   2.223  10.033 -0.1713  0.1135  0.8920
  481MOL0     N64850   4.507   2.903  10.012 -0.0734 -0.4383 -0.2210
  481MOL0     N64851   4.551   2.936  10.132  1.0608  1.3362 -0.1646
  481MOL0     C64852   4.227   2.438  11.127  1.3863  1.1144  0.0060
  481MOL0     C64853   4.185   2.356  11.229  0.2697  0.1195 -0.1107
  481MOL0     C64854   4.056   1.924  11.389  0.3703  0.5081 -0.2527
  481MOL0     C64855   3.926   1.957  11.404 -0.0711 -0.2941 -0.2081
  481MOL0     C64856   3.837   1.870  11.465 -0.8002 -0.4278 -1.1834
  481MOL0     C64857   3.891   1.751  11.525 -0.9703  0.5537 -0.6678
  481MOL0     O64858   3.795   1.661  11.574  0.2454 -0.6574  0.2188
  481MOL0     C64859   3.723   1.593  11.470  0.8618 -0.2629  0.7378
  481MOL0     C64860   3.804   1.475  11.402 -1.1936  0.4248  0.4199
  481MOL0     C64861   3.710   1.381  11.328 -0.4774 -0.1131 -0.2624
  481MOL0     C64862   3.766   1.289  11.224 -0.2593 -0.2961  0.2638
  481MOL0     C64863   3.792   1.343  11.094  0.1628  0.4686  0.3490
  481MOL0     C64864   3.809   1.392  10.980 -0.0917  1.4986 -0.9743
  481MOL0     C64865   4.031   1.730  11.522  0.2715  0.5275 -0.1007
  481MOL0     C64866   4.112   1.823  11.466  1.2704  0.2151 -0.1993
  481MOL0     C64867   4.260   1.814  11.487  0.5099  0.2752 -0.4549
  481MOL0     H64868   4.105   2.082  11.037  5.4777 -1.8940  1.5924
  481MOL0     H64869   4.113   2.256  10.861 -0.4854 -0.0329 -0.2963
  481MOL0     H64870   4.166   2.416  10.715 -2.6242 -1.1303  0.6978
  481MOL0     H64871   4.062   2.532  10.811  1.0514  5.0066 -0.9995
  481MOL0     H64872   4.184   2.714  10.782  2.4572  0.8962  0.4038
  481MOL0     H64873   4.139   2.628  10.633 -0.8840 -2.6378  1.1212
  481MOL0     H64874   4.380   2.534  10.613  4.1707  0.9238  1.4312
  481MOL0     H64875   4.420   2.631  10.759  1.6802  0.3737 -0.0344
  481MOL0     H64876   4.330   2.734  10.492  2.0554  1.2888 -1.4270
  481MOL0     H64877   4.364   2.820  10.646 -1.0876  1.3205 -0.5207
  481MOL0     H64878   4.599   2.735  10.634  3.2859 -0.1560 -1.6223
  481MOL0     H64879   4.568   2.633  10.505 -1.5816  0.2245 -4.2956
  481MOL0     H64880   4.520   2.827  10.360  2.5310  0.7726 -1.2684
  481MOL0     H64881   4.576   2.941  10.479  2.2707 -0.8114  2.2845
  481MOL0     H64882   4.735   2.694  10.340  0.9330  1.7513 -0.1714
  481MOL0     H64883   4.799   2.797  10.467 -0.3607 -0.8425  0.3573
  481MOL0     H64884   4.751   2.991  10.285  2.3531  1.4503  0.6442
  481MOL0     H64885   4.869   2.865  10.242 -0.7785 -0.2985 -2.3995
  481MOL0     H64886   4.753   2.697  10.017  0.6168  0.0067 -1.1575
  481MOL0     H64887   4.486   2.759   9.779  0.9256 -0.8378 -0.4334
  481MOL0     H64888   4.654   2.729   9.791  2.1343  0.1678  3.0563
  481MOL0     H64889   4.580   2.532   9.954  0.2037 -1.5202 -0.0707
  481MOL0     H64890   4.419   2.567   9.892  0.1443 -2.2044 -1.5699
  481MOL0     H64891   4.639   2.470   9.706 -0.2026  2.6768  0.0543
  481MOL0     H64892   4.482   2.519   9.652 -1.9364 -0.1206  2.3999
  481MOL0     H64893   4.482   2.287   9.678 -0.2221 -0.2810  0.0179
  481MOL0     H64894   4.374   2.378   9.799  1.1690  0.9454  3.4922
  481MOL0     H64895   4.493   2.016   9.789 -1.0125  0.0709 -1.1915
  481MOL0     H64896   4.334   1.879   9.855  2.4327  0.5330 -1.2215
  481MOL0     H64897   4.101   1.580   9.973 -0.9788 -1.8274 -1.3121
  481MOL0     H64898   3.892   1.430   9.994 -0.8530 -0.2891  0.6917
  481MOL0     H64899   3.523   1.645  10.105 -1.9078  2.0251 -2.4822
  481MOL0     H64900   3.494   1.620   9.930  2.0309  2.7360  0.5567
  481MOL0     H64901   3.332   1.498  10.088 -1.5371 -3.0990 -0.3275
  481MOL0     H64902   3.403   1.403   9.958 -1.0309 -0.0065  0.0110
  481MOL0     H64903   3.549   1.310  10.113  0.4631  2.2414 -1.8034
  481MOL0     H64904   3.505   1.426  10.252 -1.8566  2.3646 -0.7618
  481MOL0     H64905   3.420   1.164  10.214  2.2069  0.3732 -0.6790
  481MOL0     H64906   3.290   1.251  10.131 -0.2018 -0.7024 -0.1173
  481MOL0     H64907   3.201   1.356  10.317  3.8639  5.0153  0.0232
  481MOL0     H64908   3.345   1.357  10.401 -0.9125  2.5643 -0.3289
  481MOL0     H64909   3.171   1.104  10.344 -2.2559 -0.6142  3.3557
  481MOL0     H64910   3.335   1.114  10.420  0.9500  1.0582  0.5424
  481MOL0     H64911   3.090   1.279  10.510  0.0187  1.0909  1.3104
  481MOL0     H64912   3.230   1.281  10.596  0.9464  0.0130  0.5622
  481MOL0     H64913   3.042   1.120  10.698  1.4833 -1.8322  2.3840
  481MOL0     H64914   3.072   1.018  10.575 -1.8793  0.8788 -0.1687
  481MOL0     H64915   3.654   1.795  10.004 -0.6363  0.4695 -1.5154
  481MOL0     H64916   3.862   1.917   9.987 -2.6828  0.8252 -0.5670
  481MOL0     H64917   4.202   2.145  10.157  1.9424 -1.0205  1.1602
  481MOL0     H64918   4.372   2.322  10.076 -0.1744 -0.1846  1.5872
  481MOL0     H64919   4.271   2.533  11.154  3.5354 -0.1526  1.2698
  481MOL0     H64920   4.185   2.378  11.336  2.9736 -0.1662  0.0353
  481MOL0     H64921   3.889   2.049  11.360  1.7724  1.3836  1.5246
  481MOL0     H64922   3.729   1.881  11.463 -0.8004 -0.4360 -1.2167
  481MOL0     H64923   3.681   1.661  11.396 -0.6915  0.9582  2.6244
  481MOL0     H64924   3.637   1.547  11.521  1.9209  0.4274  3.3340
  481MOL0     H64925   3.876   1.432  11.473 -1.2407  0.0486  0.2443
  481MOL0     H64926   3.858   1.523  11.320 -3.0242  0.6655 -0.7031
  481MOL0     H64927   3.641   1.446  11.273  1.8752  0.4865 -2.7266
  481MOL0     H64928   3.660   1.312  11.396  2.8680 -3.1421 -0.5611
  481MOL0     H64929   3.856   1.241  11.265  2.3114  1.6255 -2.6863
  481MOL0     H64930   3.700   1.201  11.223  1.4958 -1.6776  0.7343
  481MOL0     H64931   3.835   1.435  10.885  1.0744  1.7519 -0.5565
  481MOL0     H64932   4.069   1.644  11.576 -1.3895 -0.9228 -1.1373
  481MOL0     H64933   4.298   1.712  11.497  1.8980  0.8256  0.1794
  481MOL0     H64934   4.316   1.857  11.403  0.7457  1.2396  0.1782
  481MOL0     H64935   4.286   1.860  11.583 -2.9130 -1.7394  1.6458
  482MOL0     O64936   3.728   0.664   6.807 -0.6158 -0.3089  0.7135
  482MOL0     C64937   3.758   0.558   6.761 -0.0264 -0.6893  0.1608
  482MOL0     O64938   3.712   0.445   6.810 -0.1147  0.5464  0.3262
  482MOL0     C64939   3.590   0.430   6.863 -0.4499  0.6437 -0.2276
  482MOL0     C64940   3.565   0.489   6.989 -0.0503  0.0941  0.0104
  482MOL0     C64941   3.436   0.527   7.031 -0.7078  0.7928 -0.1123
  482MOL0     C64942   3.326   0.473   6.971  0.7878 -0.2488 -0.1432
  482MOL0     O64943   3.199   0.514   7.009  0.8964 -0.4557  0.3568
  482MOL0     C64944   3.130   0.458   7.131  0.0160 -0.3411 -0.2764
  482MOL0     C64945   2.982   0.517   7.140  0.5842 -0.2575  1.2608
  482MOL0     C64946   2.883   0.469   7.021 -0.5426  0.4335  0.6850
  482MOL0     C64947   2.901   0.557   6.904  0.2398 -0.0238  0.9693
  482MOL0     C64948   2.798   0.523   6.796 -0.4368  1.0829 -0.0201
  482MOL0     C64949   2.644   0.520   6.827  0.4778  0.3535 -0.1044
  482MOL0     C64950   2.571   0.524   6.698  0.0846 -0.1276  0.0288
  482MOL0     C64951   2.426   0.538   6.717  0.4407 -0.4944  0.0570
  482MOL0     N64952   2.395   0.661   6.793  0.6513  0.4157 -0.1755
  482MOL0     C64953   2.423   0.795   6.761 -1.1099 -0.0374 -0.5116
  482MOL0     C64954   2.376   0.866   6.865  0.1839  0.3650  0.3731
  482MOL0     C64955   2.397   1.011   6.886 -0.2402  0.5843  0.3409
  482MOL0     C64956   2.431   1.032   7.035 -0.5949 -0.1485 -0.5160
  482MOL0     C64957   2.302   1.007   7.130  0.2704  0.9241  0.5059
  482MOL0     C64958   2.326   1.072   7.273 -0.1797 -0.6276  0.6296
  482MOL0     O64959   2.435   0.995   7.326 -0.8438 -0.3616  0.0526
  482MOL0     C64960   2.527   1.053   7.411  0.1203  0.9690 -1.1060
  482MOL0     C64961   2.612   0.966   7.486 -0.2180 -0.0042  0.2147
  482MOL0     C64962   2.715   1.022   7.559 -0.4231  0.8896 -0.6680
  482MOL0     C64963   2.732   1.157   7.559  0.0778 -0.5626  0.4192
  482MOL0     C64964   2.841   1.210   7.645  0.1659 -0.9721  0.2652
  482MOL0     O64965   2.941   1.126   7.680  0.2801  0.0448  0.3737
  482MOL0     C64966   3.016   1.142   7.790  0.3465  0.0672 -0.3906
  482MOL0     C64967   3.146   1.123   7.750  0.2514  0.8989 -0.4313
  482MOL0     C64968   3.237   1.124   7.848 -0.1909  0.0899  0.2289
  482MOL0     C64969   3.201   1.147   7.980  0.0244  0.2218 -0.7163
  482MOL0     O64970   3.310   1.168   8.065  0.4448  0.3641  0.3988
  482MOL0     C64971   3.293   1.188   8.204  0.5475  0.4840  0.5877
  482MOL0     C64972   3.228   1.072   8.285  0.2547  1.3828  0.4457
  482MOL0     C64973   3.321   0.958   8.327  0.1423 -1.3934  0.5615
  482MOL0     C64974   3.413   0.998   8.445  0.3018  0.3091  0.5329
  482MOL0     C64975   3.520   0.892   8.468 -0.4721 -0.7909 -0.2698
  482MOL0     C64976   3.468   0.753   8.514 -0.2949  0.3077  0.9064
  482MOL0     C64977   3.557   0.673   8.603 -0.3504 -0.7111 -0.0588
  482MOL0     C64978   3.692   0.656   8.540  0.3161  0.2655 -0.4203
  482MOL0    Cl64979   3.796   0.543   8.632  0.6860 -0.0033 -0.4684
  482MOL0     C64980   3.065   1.160   8.021 -0.4169 -0.5211 -0.0988
  482MOL0     C64981   2.970   1.157   7.923  0.3304 -0.2495 -0.3008
  482MOL0     O64982   2.831   1.321   7.683 -0.0178 -0.3381 -0.9263
  482MOL0     C64983   2.647   1.241   7.496 -0.5002  0.4115  0.8572
  482MOL0     C64984   2.548   1.196   7.425  0.0530  0.4680 -0.6124
  482MOL0     N64985   2.306   0.772   6.944 -0.7943 -0.4213 -0.0328
  482MOL0     N64986   2.336   0.655   6.916 -0.2530  0.6970  0.4756
  482MOL0     C64987   3.350   0.396   6.848  0.4821 -0.3274 -0.0428
  482MOL0     C64988   3.479   0.391   6.783 -0.9560 -0.1538 -0.3916
  482MOL0     C64989   3.875   0.542   6.684  0.8109 -0.2125  1.0841
  482MOL0     C64990   3.910   0.413   6.625 -0.2550 -0.0480  0.8331
  482MOL0     C64991   4.017   0.399   6.537  0.4798  0.4747  0.5871
  482MOL0     C64992   4.112   0.499   6.518 -0.5268 -0.5834 -0.7282
  482MOL0     O64993   4.229   0.497   6.449 -0.3560 -0.5566 -0.6844
  482MOL0     C64994   4.262   0.372   6.389 -0.0194  0.3878 -0.3922
  482MOL0     C64995   4.401   0.370   6.311  0.5974  0.0583 -0.1632
  482MOL0     C64996   4.524   0.399   6.394  0.6184  0.0756 -0.5611
  482MOL0     C64997   4.658   0.370   6.330 -0.4053 -0.1535 -0.8345
  482MOL0     C64998   4.680   0.225   6.300  2.1418 -0.8263  0.3585
  482MOL0     C64999   4.719   0.117   6.262 -0.5946 -0.8480  0.3619
  482MOL0     C65000   4.076   0.622   6.580 -0.6892 -0.3288  0.2589
  482MOL0     C65001   3.965   0.645   6.663 -0.6150 -0.2630  1.3928
  482MOL0     C65002   3.932   0.789   6.696 -0.7492 -0.5517 -0.7231
  482MOL0     H65003   3.645   0.521   7.056  0.0336  0.0801 -0.0831
  482MOL0     H65004   3.428   0.589   7.119  0.9136  0.8812 -0.0021
  482MOL0     H65005   3.116   0.351   7.115 -1.1565 -0.3397  0.5361
  482MOL0     H65006   3.181   0.470   7.227 -1.8094 -0.4064  0.7466
  482MOL0     H65007   2.976   0.625   7.154 -3.0842  0.2554 -2.1114
  482MOL0     H65008   2.935   0.489   7.235 -0.2843 -0.6344  0.7396
  482MOL0     H65009   2.779   0.474   7.054 -1.5153 -2.2832 -1.6044
  482MOL0     H65010   2.897   0.364   6.996 -1.6362 -0.1892  2.4762
  482MOL0     H65011   2.882   0.661   6.931 -1.4789  0.9923 -3.3790
  482MOL0     H65012   3.003   0.546   6.869  0.6455  3.2146  0.8371
  482MOL0     H65013   2.808   0.603   6.722 -1.5606  3.9156  2.6671
  482MOL0     H65014   2.825   0.424   6.759  2.1338  1.0057  1.8017
  482MOL0     H65015   2.610   0.425   6.869 -1.1014  1.7780  2.0858
  482MOL0     H65016   2.611   0.607   6.885 -2.0358  0.7017 -1.8739
  482MOL0     H65017   2.593   0.433   6.641 -0.9047 -1.0373  1.0535
  482MOL0     H65018   2.599   0.609   6.634 -0.3529  0.7509  0.9735
  482MOL0     H65019   2.385   0.553   6.617 -0.1751 -2.4491 -0.0381
  482MOL0     H65020   2.391   0.451   6.773 -0.4018  0.9667  1.8873
  482MOL0     H65021   2.475   0.843   6.678 -0.3706 -0.2099 -0.1640
  482MOL0     H65022   2.479   1.045   6.822  1.3724  0.3534  2.1687
  482MOL0     H65023   2.311   1.075   6.866 -0.2832  0.6265  0.6577
  482MOL0     H65024   2.514   0.966   7.063 -1.0132 -1.8758 -3.0165
  482MOL0     H65025   2.463   1.135   7.054 -1.8256  0.4470 -1.4687
  482MOL0     H65026   2.280   0.900   7.140  3.9594  0.1466  1.6114
  482MOL0     H65027   2.223   1.063   7.078  0.5883  0.4774 -0.4836
  482MOL0     H65028   2.232   1.077   7.330 -0.4772 -1.1556  0.1923
  482MOL0     H65029   2.356   1.177   7.264  1.5099 -1.1046  0.4986
  482MOL0     H65030   2.602   0.858   7.481  2.5969 -0.3912  1.1888
  482MOL0     H65031   2.772   0.974   7.638 -1.4302  2.0152  0.7774
  482MOL0     H65032   3.179   1.107   7.648  3.6261  0.0602  0.6557
  482MOL0     H65033   3.340   1.118   7.816 -0.7778  1.8137 -2.3555
  482MOL0     H65034   3.395   1.218   8.231  1.7681 -1.8600 -1.1357
  482MOL0     H65035   3.227   1.274   8.220 -0.2199  0.0898 -0.3231
  482MOL0     H65036   3.163   1.100   8.369 -1.8639 -1.6737 -0.0103
  482MOL0     H65037   3.155   1.028   8.217 -0.6410  2.3442  0.7504
  482MOL0     H65038   3.262   0.871   8.356 -1.7334 -0.1463  0.6850
  482MOL0     H65039   3.377   0.925   8.239 -1.1136 -0.4522 -0.6451
  482MOL0     H65040   3.361   1.021   8.538 -1.7491  3.0699 -1.1433
  482MOL0     H65041   3.456   1.096   8.423 -1.1238  0.2282 -3.3950
  482MOL0     H65042   3.572   0.926   8.558  0.3078  0.2584 -1.0868
  482MOL0     H65043   3.591   0.895   8.385  1.4070  1.6981  1.2762
  482MOL0     H65044   3.379   0.767   8.577 -2.0279 -0.5122 -1.2414
  482MOL0     H65045   3.434   0.698   8.426 -1.9909 -0.1237  1.7807
  482MOL0     H65046   3.522   0.573   8.629  1.9950 -1.7108 -0.5181
  482MOL0     H65047   3.569   0.733   8.694  2.1659  1.0798 -1.4458
  482MOL0     H65048   3.673   0.633   8.435  1.0128 -2.3917 -0.0352
  482MOL0     H65049   3.742   0.753   8.541  1.4935 -0.2381 -2.7404
  482MOL0     H65050   3.038   1.191   8.121  1.0834 -1.1715  0.5326
  482MOL0     H65051   2.863   1.156   7.944  0.0927 -5.3743 -0.4813
  482MOL0     H65052   2.655   1.349   7.497  1.7161  0.3315 -0.7812
  482MOL0     H65053   2.487   1.270   7.374  0.7019 -0.2348 -2.4814
  482MOL0     H65054   3.269   0.359   6.786  2.5646  0.6158 -3.6282
  482MOL0     H65055   3.489   0.330   6.693  0.5089 -0.0094 -0.3551
  482MOL0     H65056   3.865   0.316   6.647 -0.8186  0.1602  0.6267
  482MOL0     H65057   4.043   0.295   6.520 -1.5253  0.2078 -1.3746
  482MOL0     H65058   4.183   0.331   6.325 -0.5540 -0.0184  0.4929
  482MOL0     H65059   4.273   0.302   6.473  0.7623  1.0951  0.0983
  482MOL0     H65060   4.386   0.430   6.221  0.1256 -1.6060 -1.2331
  482MOL0     H65061   4.408   0.263   6.291  0.9504  0.0427  0.0413
  482MOL0     H65062   4.528   0.334   6.482 -0.6917  1.9375  0.9690
  482MOL0     H65063   4.493   0.500   6.420  1.0536  0.2175 -0.5889
  482MOL0     H65064   4.686   0.430   6.243  1.7956 -1.1394 -0.8941
  482MOL0     H65065   4.741   0.400   6.394  0.4144 -3.0152 -0.3770
  482MOL0     H65066   4.769   0.034   6.216 -1.5343  1.0480 -4.8310
  482MOL0     H65067   4.145   0.700   6.549 -0.5163 -2.1503 -4.8527
  482MOL0     H65068   3.910   0.800   6.803 -1.0192 -2.2729 -0.5650
  482MOL0     H65069   4.008   0.866   6.679 -0.8519 -0.5841 -1.3565
  482MOL0     H65070   3.851   0.811   6.627  0.7380  3.3041 -1.4954
  483MOL0     O65071   6.344  11.200   3.723 -0.6358  0.5133 -0.1876
  483MOL0     C65072   6.442  11.145   3.776 -0.2532 -1.4646  0.2406
  483MOL0     O65073   6.474  11.146   3.910  0.9460 -0.2508 -0.1350
  483MOL0     C65074   6.409  11.241   3.986 -0.5304 -0.4934 -0.9421
  483MOL0     C65075   6.280  11.245   4.020  1.1619 -0.3520 -0.0038
  483MOL0     C65076   6.222  11.358   4.082 -0.3085 -0.3836  1.2060
  483MOL0     C65077   6.301  11.457   4.139  0.6287 -0.3410 -0.0800
  483MOL0     O65078   6.248  11.579   4.192  0.4153 -0.0830 -0.4037
  483MOL0     C65079   6.231  11.567   4.335  0.4472  0.2233  1.1177
  483MOL0     C65080   6.371  11.603   4.397  0.1107  0.9015 -0.0665
  483MOL0     C65081   6.348  11.585   4.551 -0.2173  0.4045 -0.9745
  483MOL0     C65082   6.474  11.588   4.632 -0.1410 -0.0278  0.4051
  483MOL0     C65083   6.463  11.519   4.767 -1.7660  0.6347 -0.1042
  483MOL0     C65084   6.608  11.487   4.817  0.9897 -0.3538  0.5136
  483MOL0     C65085   6.623  11.442   4.958  1.0890 -1.3514 -0.8822
  483MOL0     C65086   6.770  11.457   4.999  0.1375 -0.4606  0.4740
  483MOL0     N65087   6.860  11.379   4.914 -0.6377  0.0722 -0.7632
  483MOL0     C65088   6.886  11.248   4.916 -0.2096  0.8736 -0.5128
  483MOL0     C65089   6.985  11.226   4.825  0.2627 -0.6770  0.2188
  483MOL0     C65090   7.058  11.098   4.788 -0.8277 -0.0879  0.1572
  483MOL0     C65091   6.973  10.981   4.740  0.8228 -0.3759  0.0587
  483MOL0     C65092   7.043  10.852   4.697  0.7181 -0.4689 -0.3076
  483MOL0     C65093   6.932  10.741   4.679 -0.0545  0.5465  0.5830
  483MOL0     O65094   6.848  10.740   4.566 -0.3548 -0.0103 -0.0568
  483MOL0     C65095   6.774  10.630   4.533  0.3422 -0.5571 -0.0225
  483MOL0     C65096   6.770  10.496   4.582 -1.4473  0.1405 -0.2942
  483MOL0     C65097   6.660  10.415   4.540 -0.1689  0.2913 -0.8287
  483MOL0     C65098   6.564  10.455   4.446 -0.8492  0.2968  0.6211
  483MOL0     C65099   6.457  10.369   4.398  0.2424 -0.5235 -0.0328
  483MOL0     O65100   6.415  10.385   4.272  0.3484  0.0844 -0.0194
  483MOL0     C65101   6.326  10.283   4.238 -0.5079  0.7180  0.0255
  483MOL0     C65102   6.361  10.171   4.166  0.1160  0.6231 -1.2180
  483MOL0     C65103   6.261  10.078   4.120 -0.3999  0.1048  0.6344
  483MOL0     C65104   6.125  10.086   4.157  0.0208  0.1014 -0.2571
  483MOL0     O65105   6.023  10.013   4.090  0.3720 -0.2860  0.0596
  483MOL0     C65106   6.027   9.876   4.121 -0.2782  0.2473  0.6560
  483MOL0     C65107   5.983   9.831   4.254 -0.0753  0.0716  0.3342
  483MOL0     C65108   5.921   9.687   4.259  0.2853 -0.7454  0.4055
  483MOL0     C65109   5.902   9.652   4.412 -0.0263  0.0373  0.9156
  483MOL0     C65110   5.808   9.531   4.430 -0.0439  0.8601  0.0347
  483MOL0     C65111   5.781   9.493   4.578 -0.1083  0.4799  1.0428
  483MOL0     C65112   5.642   9.444   4.587 -1.1129 -0.3824  0.0107
  483MOL0     C65113   5.608   9.423   4.737 -0.1787  1.2470  0.3221
  483MOL0    Cl65114   5.692   9.286   4.814 -0.5100  0.1497  0.1090
  483MOL0     C65115   6.092  10.202   4.236 -0.8450  0.3986  0.5218
  483MOL0     C65116   6.193  10.294   4.275  0.7021  0.2072 -0.0750
  483MOL0     O65117   6.423  10.282   4.474  0.2476 -0.4528  0.0208
  483MOL0     C65118   6.586  10.576   4.382 -0.1495 -0.5237  0.4809
  483MOL0     C65119   6.681  10.663   4.432 -0.9199  1.6976 -0.0480
  483MOL0     N65120   7.032  11.343   4.779 -0.2831 -0.1930  0.2123
  483MOL0     N65121   6.966  11.440   4.837 -0.0403 -0.4438 -0.9250
  483MOL0     C65122   6.432  11.447   4.117 -0.4292  0.1460  0.5087
  483MOL0     C65123   6.489  11.341   4.043 -0.1210  1.2808 -0.1215
  483MOL0     C65124   6.547  11.075   3.693  0.7626  0.3526  0.7993
  483MOL0     C65125   6.685  11.124   3.691 -0.1899  0.3320 -0.7100
  483MOL0     C65126   6.777  11.062   3.603 -0.6522 -0.5932 -0.1000
  483MOL0     C65127   6.755  10.945   3.529  0.2050  0.1152 -0.1496
  483MOL0     O65128   6.833  10.887   3.438 -0.3648  0.3888 -0.1826
  483MOL0     C65129   6.967  10.936   3.414  0.3292 -0.0462 -0.9001
  483MOL0     C65130   7.016  10.861   3.290 -0.7993  0.3454  0.7262
  483MOL0     C65131   7.174  10.885   3.260 -0.1092  0.1611 -0.2158
  483MOL0     C65132   7.225  10.792   3.162 -1.0497 -0.0467  0.2367
  483MOL0     C65133   7.374  10.799   3.142  0.0639 -0.4801  0.4799
  483MOL0     C65134   7.492  10.790   3.107 -1.1271  0.2001 -0.5756
  483MOL0     C65135   6.623  10.898   3.533 -0.2583 -0.1519 -0.2746
  483MOL0     C65136   6.523  10.956   3.615 -0.2949  0.2205 -0.1685
  483MOL0     C65137   6.379  10.920   3.588  0.7705  0.2411  0.2458
  483MOL0     H65138   6.202  11.189   3.969 -0.7275  0.4370  1.8392
  483MOL0     H65139   6.118  11.382   4.098 -0.4941  1.9054 -2.3682
  483MOL0     H65140   6.159  11.642   4.370  0.7854  0.0511  2.2112
  483MOL0     H65141   6.198  11.467   4.362 -2.3839  0.4314 -1.1293
  483MOL0     H65142   6.387  11.706   4.366 -2.5243  0.9006 -1.6898
  483MOL0     H65143   6.452  11.537   4.363 -1.4302 -0.2317 -1.7156
  483MOL0     H65144   6.295  11.496   4.586 -0.3735  0.8141 -0.1131
  483MOL0     H65145   6.276  11.660   4.587  0.5661  0.3550  0.7836
  483MOL0     H65146   6.538  11.526   4.569  2.3602  1.8587  0.9646
  483MOL0     H65147   6.532  11.680   4.642  1.9170 -1.4235  2.1476
  483MOL0     H65148   6.410  11.592   4.829 -0.1652  1.8730 -0.1407
  483MOL0     H65149   6.398  11.432   4.755 -1.3600  0.2295  0.5438
  483MOL0     H65150   6.656  11.414   4.752  0.1724 -0.0483 -0.4491
  483MOL0     H65151   6.667  11.578   4.799  0.2904  0.2639  1.2503
  483MOL0     H65152   6.583  11.340   4.962  1.2035 -1.3844 -0.5884
  483MOL0     H65153   6.569  11.511   5.023  2.5246 -2.6840  1.8926
  483MOL0     H65154   6.806  11.560   4.998 -2.8834  0.6969 -1.2878
  483MOL0     H65155   6.786  11.424   5.102 -1.7796 -0.2659  0.8752
  483MOL0     H65156   6.840  11.171   4.978 -0.2181  2.3251  1.4034
  483MOL0     H65157   7.132  11.107   4.708 -0.4646  0.0567  0.5049
  483MOL0     H65158   7.103  11.056   4.879 -0.8204  0.1098  0.2440
  483MOL0     H65159   6.893  10.955   4.809  0.1739 -2.2202 -1.2909
  483MOL0     H65160   6.922  11.012   4.648  2.8400 -0.3140 -1.0937
  483MOL0     H65161   7.118  10.813   4.767 -1.3793 -1.9976  1.2214
  483MOL0     H65162   7.093  10.870   4.601 -1.6156  0.5733 -1.3925
  483MOL0     H65163   6.862  10.741   4.764 -2.7800 -1.2228 -1.4653
  483MOL0     H65164   6.983  10.646   4.696  1.4121  1.5597  2.0981
  483MOL0     H65165   6.842  10.462   4.656  0.0317  0.8703 -1.3631
  483MOL0     H65166   6.665  10.315   4.582  4.4559  2.0881  3.9797
  483MOL0     H65167   6.463  10.149   4.135  0.9053 -0.6197  1.8799
  483MOL0     H65168   6.286   9.999   4.049 -1.1157  1.1246 -0.8236
  483MOL0     H65169   5.965   9.831   4.042  1.3145 -1.3926  0.2747
  483MOL0     H65170   6.125   9.836   4.097 -0.3418  1.7794 -2.7571
  483MOL0     H65171   6.070   9.837   4.319  2.7358  0.0293 -3.1288
  483MOL0     H65172   5.911   9.908   4.285  3.4973  3.8341  0.2395
  483MOL0     H65173   5.830   9.684   4.199  0.5545 -2.0984  0.0463
  483MOL0     H65174   5.991   9.616   4.216 -0.3697 -1.1335 -0.0323
  483MOL0     H65175   5.872   9.744   4.463 -2.6197 -0.4670  0.4803
  483MOL0     H65176   5.997   9.620   4.455 -0.2626 -0.5862  0.9903
  483MOL0     H65177   5.840   9.440   4.378 -0.7401  1.3018 -1.2106
  483MOL0     H65178   5.709   9.542   4.384 -0.4707  0.8052  0.9206
  483MOL0     H65179   5.852   9.416   4.610 -0.3429 -0.6168 -0.9567
  483MOL0     H65180   5.794   9.583   4.639 -0.7234 -0.4071  2.5298
  483MOL0     H65181   5.628   9.353   4.529  1.5849  0.8184 -2.7739
  483MOL0     H65182   5.565   9.514   4.554 -1.5524 -0.1511  1.4284
  483MOL0     H65183   5.617   9.514   4.795  2.0682  0.8789  0.6252
  483MOL0     H65184   5.502   9.396   4.745 -0.2269  1.6422  1.0080
  483MOL0     H65185   5.990  10.214   4.270 -0.9152  0.4576  0.2941
  483MOL0     H65186   6.152  10.381   4.327 -2.0958 -1.7062  1.1534
  483MOL0     H65187   6.530  10.619   4.300 -0.4170 -3.3889 -0.9683
  483MOL0     H65188   6.694  10.748   4.366  0.2364 -0.2717 -2.5130
  483MOL0     H65189   6.503  11.524   4.145  0.7864 -2.0725  4.2101
  483MOL0     H65190   6.596  11.345   4.022  0.0057  1.3283  0.5044
  483MOL0     H65191   6.726  11.204   3.752  0.7471 -1.7566  1.5349
  483MOL0     H65192   6.877  11.099   3.588  0.2917 -2.6936  0.5829
  483MOL0     H65193   7.031  10.912   3.499  0.5071 -2.0050 -1.5275
  483MOL0     H65194   6.955  11.043   3.397 -3.7944  0.8275  4.7591
  483MOL0     H65195   6.960  10.915   3.213 -1.1372 -0.3725  0.4566
  483MOL0     H65196   6.988  10.755   3.292  0.1043  0.1020  2.1129
  483MOL0     H65197   7.234  10.887   3.351  1.8414 -0.3845 -1.4390
  483MOL0     H65198   7.195  10.985   3.223  1.2616  0.0017  0.1076
  483MOL0     H65199   7.205  10.690   3.195  1.2093 -0.6783 -0.2176
  483MOL0     H65200   7.175  10.819   3.069 -1.5382  0.1943  0.5664
  483MOL0     H65201   7.597  10.784   3.086 -0.9622 -0.3849  0.3602
  483MOL0     H65202   6.590  10.818   3.468 -1.8034  1.1081 -1.1074
  483MOL0     H65203   6.326  10.982   3.515 -2.2590 -1.8660  0.5099
  483MOL0     H65204   6.368  10.815   3.563 -2.4607 -0.0058  2.2070
  483MOL0     H65205   6.312  10.932   3.674 -1.3202 -0.0002 -1.2800
  484MOL0     O65206   1.230  10.403   0.058  0.6899  0.7372  0.8226
  484MOL0     C65207   1.312  10.406   0.143  0.4728  0.1984  0.0065
  484MOL0     O65208   1.435  10.470   0.133  0.9052  0.2004 -0.1722
  484MOL0     C65209   1.450  10.566   0.038  0.0277  0.4473  0.8824
  484MOL0     C65210   1.465  10.529  -0.100  0.5311  0.8878  0.1959
  484MOL0     C65211   1.473  10.625  -0.200 -1.1848 -0.1133  0.6712
  484MOL0     C65212   1.471  10.762  -0.167  0.0945  0.9525  0.4697
  484MOL0     O65213   1.493  10.855  -0.258  0.4959  0.2313  0.2309
  484MOL0     C65214   1.422  10.980  -0.218  0.0338 -0.1037  0.2107
  484MOL0     C65215   1.519  11.092  -0.160 -0.2772 -0.3004 -0.7923
  484MOL0     C65216   1.475  11.231  -0.149 -0.8867 -0.4642 -0.0806
  484MOL0     C65217   1.410  11.273  -0.019 -0.4997 -0.7994  0.2866
  484MOL0     C65218   1.261  11.259  -0.029 -0.2557  0.9737 -0.3536
  484MOL0     C65219   1.190  11.351  -0.127 -0.0634  0.1908  0.6578
  484MOL0     C65220   1.050  11.374  -0.091 -0.2857  0.3035 -0.0116
  484MOL0     C65221   0.952  11.426  -0.197  0.2033  1.3746  0.5726
  484MOL0     N65222   0.960  11.575  -0.220 -0.5731 -0.1147 -0.3279
  484MOL0     C65223   0.927  11.628  -0.339 -0.3493  0.0734  0.7610
  484MOL0     C65224   0.931  11.766  -0.326 -0.7039  0.4833 -0.2803
  484MOL0     C65225   0.913  11.874  -0.430 -0.2101  0.0290  0.9215
  484MOL0     C65226   0.860  12.010  -0.374 -0.2643 -0.5011  0.6221
  484MOL0     C65227   0.702  12.004  -0.338  1.2582 -0.7216  0.2213
  484MOL0     C65228   0.647  12.137  -0.287 -0.6277 -0.7124  0.2967
  484MOL0     O65229   0.696  12.241  -0.369  0.2283 -0.3707  0.4498
  484MOL0     C65230   0.629  12.262  -0.493  0.0514  0.5299  0.3839
  484MOL0     C65231   0.694  12.355  -0.581 -0.2473  0.0331  0.0612
  484MOL0     C65232   0.661  12.361  -0.713  0.5137 -0.5100 -0.0151
  484MOL0     C65233   0.545  12.302  -0.761  0.8163  0.0900  0.2899
  484MOL0     C65234   0.505  12.317  -0.899  1.2031  1.1294 -0.2609
  484MOL0     O65235   0.548  12.411  -0.979  0.7688 -0.3498  0.1087
  484MOL0     C65236   0.519  12.413  -1.110  0.1962  0.4399 -0.0971
  484MOL0     C65237   0.536  12.303  -1.197  0.0219  0.1786  0.9715
  484MOL0     C65238   0.504  12.302  -1.337  0.2992  0.3426 -0.2069
  484MOL0     C65239   0.433  12.418  -1.377  1.1466 -0.6749  0.7421
  484MOL0     O65240   0.390  12.446  -1.506  0.3293  0.4071 -0.5430
  484MOL0     C65241   0.392  12.339  -1.601  0.5086  0.2973 -0.5595
  484MOL0     C65242   0.280  12.381  -1.704  0.2419  0.5226 -0.5492
  484MOL0     C65243   0.137  12.354  -1.651  0.0581  0.4053  0.5922
  484MOL0     C65244   0.039  12.326  -1.771 -0.1659 -0.2662 -0.1863
  484MOL0     C65245  -0.103  12.276  -1.714 -0.6215  0.3606  0.8189
  484MOL0     C65246  -0.190  12.399  -1.682 -0.7380  0.2204 -0.8091
  484MOL0     C65247  -0.304  12.364  -1.590 -0.0334  0.8541  0.3168
  484MOL0     C65248  -0.417  12.469  -1.582  0.7811 -1.0821 -0.0101
  484MOL0    Cl65249  -0.525  12.411  -1.446  0.0470  0.1067 -0.3818
  484MOL0     C65250   0.401  12.522  -1.289  0.0996  0.4387  0.5721
  484MOL0     C65251   0.454  12.533  -1.163  0.0970  0.5142 -0.1206
  484MOL0     O65252   0.432  12.221  -0.930 -0.2293  0.7214  0.1847
  484MOL0     C65253   0.474  12.222  -0.667 -0.2894 -1.0687  0.0163
  484MOL0     C65254   0.522  12.189  -0.540  0.0970  0.6201  0.6262
  484MOL0     N65255   0.953  11.789  -0.184  0.4477 -0.4010 -0.2372
  484MOL0     N65256   0.973  11.679  -0.127  0.0432  0.4474  0.1588
  484MOL0     C65257   1.449  10.788  -0.031 -0.0722 -0.3477 -0.6536
  484MOL0     C65258   1.445  10.696   0.073 -0.7101 -0.3163  0.4232
  484MOL0     C65259   1.277  10.356   0.278 -1.2580 -0.3016 -0.2161
  484MOL0     C65260   1.374  10.353   0.377 -0.2737 -0.4238 -0.2502
  484MOL0     C65261   1.347  10.315   0.503  0.4723  0.9712 -0.0541
  484MOL0     C65262   1.221  10.270   0.548  0.8572 -0.7004 -0.2079
  484MOL0     O65263   1.183  10.233   0.673  0.5114 -0.0647 -0.9052
  484MOL0     C65264   1.275  10.248   0.783 -0.4553 -0.0207  1.2733
  484MOL0     C65265   1.386  10.130   0.787 -0.1198 -0.0482 -0.8761
  484MOL0     C65266   1.493  10.157   0.889 -0.3397  0.6797 -0.6433
  484MOL0     C65267   1.560  10.027   0.916  0.5854  0.4535 -0.2130
  484MOL0     C65268   1.691  10.044   0.988 -0.8469 -0.5320  0.2638
  484MOL0     C65269   1.796  10.059   1.052 -0.1058  0.2867  0.2936
  484MOL0     C65270   1.121  10.257   0.450 -0.4304 -0.0752 -0.8752
  484MOL0     C65271   1.149  10.310   0.314 -0.3616  0.6500  0.3311
  484MOL0     C65272   1.033  10.276   0.216 -0.1305  0.4011 -0.3992
  484MOL0     H65273   1.453  10.423  -0.121 -2.5669  1.6338 -2.7547
  484MOL0     H65274   1.491  10.589  -0.300 -2.6257  2.1825 -0.5013
  484MOL0     H65275   1.381  11.030  -0.306 -1.1984 -1.3103  0.0598
  484MOL0     H65276   1.327  10.962  -0.166  0.0809 -0.0866  0.3020
  484MOL0     H65277   1.613  11.092  -0.215  0.6943 -0.7897  0.8070
  484MOL0     H65278   1.544  11.063  -0.057 -3.6818  2.8832  1.2182
  484MOL0     H65279   1.419  11.255  -0.240  0.5292 -0.9299 -1.1148
  484MOL0     H65280   1.567  11.290  -0.152 -0.9303 -0.3287  0.8910
  484MOL0     H65281   1.458  11.208   0.054  0.5585 -2.6831 -1.9530
  484MOL0     H65282   1.438  11.377   0.001 -2.5174  0.1754 -1.4825
  484MOL0     H65283   1.245  11.155  -0.059  0.2867  1.1043 -1.1331
  484MOL0     H65284   1.219  11.268   0.071 -0.7165 -0.2250 -0.4214
  484MOL0     H65285   1.232  11.451  -0.134 -0.6892  0.4975  1.2110
  484MOL0     H65286   1.207  11.313  -0.228  3.0557 -1.6289  1.7247
  484MOL0     H65287   1.036  11.430   0.002  1.3992 -0.1673  0.5833
  484MOL0     H65288   1.019  11.272  -0.064  1.0168 -0.6969 -2.0074
  484MOL0     H65289   0.978  11.367  -0.285  2.7792  0.8821  1.5713
  484MOL0     H65290   0.847  11.405  -0.176 -0.6759  0.1756 -3.9860
  484MOL0     H65291   0.901  11.575  -0.430  1.2663  1.0498 -0.3177
  484MOL0     H65292   1.014  11.890  -0.469 -0.1206 -1.2947  0.5742
  484MOL0     H65293   0.854  11.850  -0.519 -0.5783 -2.2398  1.7106
  484MOL0     H65294   0.920  12.047  -0.291 -2.5783  1.2304  1.6321
  484MOL0     H65295   0.870  12.082  -0.456  0.2179  2.1713  2.9123
  484MOL0     H65296   0.671  11.936  -0.259  0.2482 -0.2511  0.2413
  484MOL0     H65297   0.645  11.963  -0.421 -1.8130  3.4438 -0.0405
  484MOL0     H65298   0.689  12.143  -0.186 -0.3060 -0.1120  0.1298
  484MOL0     H65299   0.538  12.142  -0.278 -0.8929  0.3029 -2.5330
  484MOL0     H65300   0.768  12.417  -0.531 -1.0092  1.1994 -0.2079
  484MOL0     H65301   0.725  12.410  -0.785  2.1118 -2.2890  0.1115
  484MOL0     H65302   0.579  12.215  -1.151 -0.1541  0.6738  2.1144
  484MOL0     H65303   0.540  12.219  -1.397  0.2114  0.8848 -1.0239
  484MOL0     H65304   0.488  12.336  -1.653  1.5650 -1.4916  1.3665
  484MOL0     H65305   0.363  12.239  -1.566 -0.6102  0.3494 -1.2666
  484MOL0     H65306   0.292  12.486  -1.733  3.2961  0.4684  0.1940
  484MOL0     H65307   0.302  12.324  -1.795  0.7483  2.4457 -1.6869
  484MOL0     H65308   0.131  12.278  -1.572 -0.5588  1.1161  1.2480
  484MOL0     H65309   0.099  12.447  -1.609 -0.0719  1.6501 -2.1354
  484MOL0     H65310   0.080  12.244  -1.831  0.2549  0.3421 -0.7381
  484MOL0     H65311   0.024  12.414  -1.833 -0.9081 -0.3906 -0.1936
  484MOL0     H65312  -0.104  12.196  -1.639 -3.7374 -2.3216 -1.7154
  484MOL0     H65313  -0.159  12.232  -1.797  1.4429  3.2721 -2.3843
  484MOL0     H65314  -0.126  12.470  -1.629 -0.2953 -0.7916  0.0544
  484MOL0     H65315  -0.239  12.435  -1.773 -3.4691 -0.5344  0.2418
  484MOL0     H65316  -0.275  12.350  -1.485 -1.7112 -0.9793  0.5878
  484MOL0     H65317  -0.357  12.274  -1.620  0.3832  0.9013 -0.5730
  484MOL0     H65318  -0.382  12.570  -1.560 -3.0668  0.7148 -1.3308
  484MOL0     H65319  -0.461  12.471  -1.683  2.6779  2.2475 -0.9154
  484MOL0     H65320   0.340  12.606  -1.322  1.8686  1.7385  0.4655
  484MOL0     H65321   0.430  12.616  -1.096  4.0253  0.6581  1.3948
  484MOL0     H65322   0.387  12.167  -0.703 -2.1399  1.9106 -0.4412
  484MOL0     H65323   0.474  12.113  -0.480 -2.4500 -1.5434 -3.6730
  484MOL0     H65324   1.448  10.890   0.006 -0.2336 -0.1217 -1.2785
  484MOL0     H65325   1.442  10.737   0.173  0.2862  0.5492  0.1128
  484MOL0     H65326   1.474  10.385   0.349  0.4690 -1.9599  0.5339
  484MOL0     H65327   1.436  10.311   0.566  0.3497  0.1372  0.0663
  484MOL0     H65328   1.206  10.261   0.867 -1.6301  0.1207  0.3267
  484MOL0     H65329   1.331  10.342   0.782 -2.0580  0.9950 -0.4406
  484MOL0     H65330   1.429  10.107   0.689  0.7947 -2.2638 -0.0155
  484MOL0     H65331   1.332  10.038   0.809  2.3202 -1.1406  1.0995
  484MOL0     H65332   1.447  10.205   0.976 -3.5984 -0.9326 -1.3059
  484MOL0     H65333   1.572  10.222   0.850  0.7134 -1.1029 -1.6239
  484MOL0     H65334   1.492   9.959   0.968 -0.5046 -0.1014 -2.2617
  484MOL0     H65335   1.599   9.992   0.820  0.8505  1.3516 -0.4382
  484MOL0     H65336   1.884  10.087   1.106 -0.3165 -0.2387  0.9354
  484MOL0     H65337   1.035  10.193   0.469  0.5746 -1.2000 -0.0356
  484MOL0     H65338   1.010  10.360   0.151  0.9168  0.5947 -0.5230
  484MOL0     H65339   1.062  10.190   0.154 -5.4092 -0.3673 -2.3261
  484MOL0     H65340   0.941  10.246   0.268  1.1544 -3.1703  0.1164
  485MOL0     O65341   5.661   8.859   8.781 -0.2586 -0.0066 -0.4639
  485MOL0     C65342   5.658   8.836   8.903 -0.2584  0.2424  0.0763
  485MOL0     O65343   5.619   8.714   8.967  1.0317 -0.1921 -0.3810
  485MOL0     C65344   5.604   8.608   8.887  0.3925  0.6003 -0.1891
  485MOL0     C65345   5.533   8.589   8.767 -1.2247 -0.5606 -0.1364
  485MOL0     C65346   5.527   8.467   8.701  0.2251 -0.4617 -0.5427
  485MOL0     C65347   5.581   8.354   8.761  0.2787 -0.7061 -0.8135
  485MOL0     O65348   5.578   8.248   8.669  0.4731  0.8085  0.1025
  485MOL0     C65349   5.684   8.147   8.674 -0.6230 -0.1343  0.1482
  485MOL0     C65350   5.717   8.112   8.523 -0.5309  0.0314  0.0349
  485MOL0     C65351   5.763   8.239   8.453 -0.4680  1.2576 -1.2493
  485MOL0     C65352   5.902   8.293   8.494  0.0540  0.1643  0.3552
  485MOL0     C65353   5.954   8.420   8.417 -0.8201 -0.3519  0.0774
  485MOL0     C65354   5.864   8.547   8.434 -0.1327  0.1666 -0.2045
  485MOL0     C65355   5.906   8.658   8.337 -0.1044 -1.2112 -0.6570
  485MOL0     C65356   5.807   8.778   8.339 -0.7519  0.1303 -0.6001
  485MOL0     N65357   5.668   8.745   8.320 -0.4138  0.5379  0.1723
  485MOL0     C65358   5.575   8.743   8.419  0.3543  0.0474  1.3150
  485MOL0     C65359   5.462   8.733   8.349 -0.5841 -0.0193  0.9305
  485MOL0     C65360   5.330   8.732   8.418  0.1753  0.0919 -0.4184
  485MOL0     C65361   5.271   8.599   8.394 -0.0480  0.5827  0.6025
  485MOL0     C65362   5.155   8.576   8.492  0.5517 -0.3379  0.2673
  485MOL0     C65363   5.099   8.436   8.486  0.1289 -0.8900  1.3036
  485MOL0     O65364   5.206   8.345   8.500  0.2271 -0.3383 -0.1569
  485MOL0     C65365   5.169   8.209   8.486  0.1017  0.3259  0.7692
  485MOL0     C65366   5.043   8.157   8.473 -0.4295  0.8829  0.9105
  485MOL0     C65367   5.024   8.014   8.466 -0.5849  0.9402  0.0449
  485MOL0     C65368   5.133   7.918   8.491  0.5514 -0.1873 -0.1674
  485MOL0     C65369   5.098   7.772   8.497 -0.3404  0.5890  0.7206
  485MOL0     O65370   4.965   7.736   8.485 -0.7249  0.0417 -0.3689
  485MOL0     C65371   4.922   7.603   8.495  0.2318 -0.0712  0.3595
  485MOL0     C65372   4.905   7.539   8.626  0.2608  0.4162  0.4838
  485MOL0     C65373   4.868   7.402   8.636 -0.9045 -0.4405  0.1589
  485MOL0     C65374   4.842   7.328   8.513  0.2748  0.4632 -0.0944
  485MOL0     O65375   4.801   7.196   8.504  0.0885  0.5332 -0.1556
  485MOL0     C65376   4.788   7.129   8.622 -0.0975 -0.5863  0.1942
  485MOL0     C65377   4.753   6.988   8.587 -0.8574 -0.2817  0.3390
  485MOL0     C65378   4.767   6.892   8.710 -0.3148 -0.1563  0.1529
  485MOL0     C65379   4.699   6.950   8.839 -0.8365 -0.2187 -0.0679
  485MOL0     C65380   4.656   6.840   8.944  0.7139  0.6442  0.1785
  485MOL0     C65381   4.762   6.815   9.054  0.0036 -0.3310 -0.9273
  485MOL0     C65382   4.696   6.737   9.161  0.0307  0.2180  0.8821
  485MOL0     C65383   4.793   6.657   9.248 -0.0619  0.3203  0.7634
  485MOL0    Cl65384   4.706   6.562   9.363 -0.3313 -0.1219 -0.0390
  485MOL0     C65385   4.869   7.390   8.395 -0.0950  0.0065  0.2045
  485MOL0     C65386   4.921   7.517   8.387 -0.9459  0.2300  0.0645
  485MOL0     O65387   5.192   7.691   8.513  0.3914 -0.2646  0.5344
  485MOL0     C65388   5.269   7.978   8.502 -0.5348  0.0916 -1.4830
  485MOL0     C65389   5.274   8.121   8.496  0.1176  1.1600  0.2657
  485MOL0     N65390   5.490   8.735   8.210 -0.2789 -0.5886  0.4189
  485MOL0     N65391   5.617   8.725   8.197 -1.0615 -0.4645 -0.7015
  485MOL0     C65392   5.643   8.367   8.885  0.3069  1.1058 -0.7901
  485MOL0     C65393   5.648   8.488   8.951 -0.4759  0.1014  0.4602
  485MOL0     C65394   5.674   8.948   8.997  1.2539  0.6758  1.0569
  485MOL0     C65395   5.660   8.923   9.135 -0.0207 -0.1591  0.0644
  485MOL0     C65396   5.671   9.019   9.240 -1.0597 -0.4984 -0.0395
  485MOL0     C65397   5.689   9.154   9.205 -0.3928  0.4648 -0.0594
  485MOL0     O65398   5.698   9.252   9.300 -0.5555 -0.2021 -0.7991
  485MOL0     C65399   5.580   9.332   9.311 -0.3801 -1.2242 -0.1457
  485MOL0     C65400   5.499   9.291   9.431  0.2670 -0.1020  0.0994
  485MOL0     C65401   5.355   9.346   9.434 -0.7923 -0.0264  1.0027
  485MOL0     C65402   5.300   9.275   9.558  0.1945  0.3026  0.3742
  485MOL0     C65403   5.153   9.271   9.567  0.9449  0.4616  0.1005
  485MOL0     C65404   5.027   9.263   9.571  0.5141 -0.4595 -0.0415
  485MOL0     C65405   5.710   9.181   9.067 -0.2596 -0.2152  0.1105
  485MOL0     C65406   5.708   9.081   8.968  0.9253 -0.4230  0.4948
  485MOL0     C65407   5.734   9.140   8.833  0.6337  0.1086 -0.4113
  485MOL0     H65408   5.492   8.679   8.722  0.1901  0.3599  0.3417
  485MOL0     H65409   5.477   8.465   8.605 -3.2625 -0.5119  1.1226
  485MOL0     H65410   5.781   8.177   8.714  1.5227 -3.7875 -1.7378
  485MOL0     H65411   5.651   8.063   8.736  0.2940  0.3717  1.3591
  485MOL0     H65412   5.627   8.076   8.472 -1.0150  1.1545  0.0700
  485MOL0     H65413   5.804   8.046   8.518 -2.3526 -2.3716 -1.7956
  485MOL0     H65414   5.690   8.320   8.458 -2.4716 -0.5159 -0.0251
  485MOL0     H65415   5.772   8.222   8.346 -3.4899  1.1835 -1.5860
  485MOL0     H65416   5.893   8.329   8.597 -0.1186  1.0223  0.0509
  485MOL0     H65417   5.981   8.221   8.475 -0.1483  1.0851 -6.2421
  485MOL0     H65418   6.054   8.446   8.454 -1.9149 -1.0843  4.0468
  485MOL0     H65419   5.967   8.409   8.309 -2.5974  1.1314 -0.3548
  485MOL0     H65420   5.761   8.518   8.408 -0.9781  0.7352  2.2216
  485MOL0     H65421   5.865   8.577   8.539 -1.9177 -1.0540  0.1987
  485MOL0     H65422   5.923   8.624   8.235  0.0457  1.3586 -1.5689
  485MOL0     H65423   5.999   8.703   8.373  0.2675 -4.1291  2.5698
  485MOL0     H65424   5.821   8.819   8.440  0.1054  2.4670 -1.5990
  485MOL0     H65425   5.835   8.858   8.271  1.1312  1.4391  1.5472
  485MOL0     H65426   5.576   8.764   8.526 -3.2075 -1.0392  1.6695
  485MOL0     H65427   5.346   8.757   8.524  0.1895  0.4080 -0.4929
  485MOL0     H65428   5.268   8.811   8.375  1.1292  2.3432  2.0306
  485MOL0     H65429   5.240   8.605   8.289  1.2395 -0.1479  0.1498
  485MOL0     H65430   5.352   8.526   8.400  2.8371  3.3867 -0.8603
  485MOL0     H65431   5.083   8.658   8.481 -0.8976 -1.6370 -0.3395
  485MOL0     H65432   5.199   8.585   8.591  0.2536 -0.5056  0.4154
  485MOL0     H65433   5.050   8.423   8.389  0.5129 -4.5669  1.4845
  485MOL0     H65434   5.024   8.398   8.556 -0.4542 -2.3731 -0.0431
  485MOL0     H65435   4.955   8.220   8.483  0.5842  2.5704 -0.3364
  485MOL0     H65436   4.920   7.984   8.459 -0.7294  0.3879  2.9666
  485MOL0     H65437   4.915   7.595   8.718 -1.7463  0.6679  0.5992
  485MOL0     H65438   4.852   7.354   8.732  3.4661 -0.5008  1.0924
  485MOL0     H65439   4.881   7.143   8.677 -0.4858  0.6604  0.5755
  485MOL0     H65440   4.710   7.177   8.682  3.6870  4.5855  1.6707
  485MOL0     H65441   4.651   6.995   8.548 -1.3868  1.0153  1.8281
  485MOL0     H65442   4.813   6.955   8.501 -1.3977  1.6574 -0.8571
  485MOL0     H65443   4.721   6.796   8.687  0.7086 -0.0287 -2.8952
  485MOL0     H65444   4.872   6.870   8.726  0.1024  1.4871 -0.1456
  485MOL0     H65445   4.621   7.019   8.804  1.1890  2.6645  0.7608
  485MOL0     H65446   4.768   7.018   8.890 -0.9006 -2.2197  2.8780
  485MOL0     H65447   4.627   6.755   8.882  3.4008  0.2553 -0.7002
  485MOL0     H65448   4.574   6.882   9.002  2.1514  2.8787  0.7360
  485MOL0     H65449   4.846   6.761   9.010  0.7723  0.8150 -0.9135
  485MOL0     H65450   4.802   6.899   9.112 -0.6284 -0.7573  0.1588
  485MOL0     H65451   4.641   6.654   9.116  1.8418 -0.3021 -0.4990
  485MOL0     H65452   4.636   6.808   9.219  0.7282  2.0772 -0.5790
  485MOL0     H65453   4.850   6.590   9.184 -0.2254 -0.3853  1.3428
  485MOL0     H65454   4.863   6.719   9.304 -0.8418  0.4155  1.6579
  485MOL0     H65455   4.861   7.344   8.297  0.5370  2.9874 -1.3665
  485MOL0     H65456   4.956   7.555   8.292 -3.4142  0.6074 -0.7586
  485MOL0     H65457   5.358   7.917   8.518  0.2006  1.6219  0.7793
  485MOL0     H65458   5.370   8.170   8.511  1.9280 -2.0297  0.2415
  485MOL0     H65459   5.682   8.275   8.929  0.2592  0.8431 -1.2911
  485MOL0     H65460   5.698   8.495   9.047 -0.0174 -2.8549  0.5443
  485MOL0     H65461   5.645   8.822   9.173  2.9830 -1.1021 -0.9119
  485MOL0     H65462   5.662   9.006   9.347 -0.4803  1.4254  0.2771
  485MOL0     H65463   5.516   9.331   9.222 -1.2956  0.7703  0.4345
  485MOL0     H65464   5.605   9.438   9.326  0.4007 -0.6981 -3.9510
  485MOL0     H65465   5.560   9.332   9.513 -1.6484 -1.0124  2.0966
  485MOL0     H65466   5.514   9.184   9.443  2.6069  0.0940 -0.5401
  485MOL0     H65467   5.309   9.317   9.339 -1.7224 -1.3944  1.8229
  485MOL0     H65468   5.350   9.454   9.445 -0.8022 -0.0619  1.3747
  485MOL0     H65469   5.326   9.171   9.581  2.0599  1.3761  3.7603
  485MOL0     H65470   5.340   9.322   9.648 -2.7624  1.8022  1.0195
  485MOL0     H65471   4.920   9.252   9.567  0.5534 -0.7534 -3.5655
  485MOL0     H65472   5.730   9.284   9.039  1.3863 -0.4651  0.3180
  485MOL0     H65473   5.765   9.246   8.833 -0.4300  0.4366  0.2346
  485MOL0     H65474   5.824   9.091   8.795 -2.6173 -3.0658 -5.0013
  485MOL0     H65475   5.653   9.129   8.761  3.0242 -1.9016 -2.9811
  486MOL0     O65476   1.641   2.122   1.882  0.0745  0.0296  0.7042
  486MOL0     C65477   1.761   2.118   1.881 -0.1212 -0.1561  0.1583
  486MOL0     O65478   1.840   2.092   1.993  0.5875  0.7261  0.4019
  486MOL0     C65479   1.769   2.104   2.109  0.1912 -0.3398  0.0890
  486MOL0     C65480   1.705   2.222   2.146  0.3622  0.2199  1.0101
  486MOL0     C65481   1.644   2.240   2.269  1.3618  0.2099  0.7757
  486MOL0     C65482   1.644   2.142   2.361  0.2791  0.2138  0.2569
  486MOL0     O65483   1.594   2.163   2.485  0.7523  0.5872  0.4804
  486MOL0     C65484   1.685   2.199   2.592  0.4179 -0.2189 -0.4159
  486MOL0     C65485   1.668   2.086   2.701  0.8601  0.6104 -1.1190
  486MOL0     C65486   1.771   2.106   2.812  0.8250  0.6262  0.2007
  486MOL0     C65487   1.743   2.021   2.944 -0.5733  0.3785  0.8247
  486MOL0     C65488   1.858   2.002   3.039 -0.4679  1.0843  0.3367
  486MOL0     C65489   1.827   1.940   3.181  0.5599  0.6661 -0.0759
  486MOL0     C65490   1.780   2.059   3.264 -0.2654 -0.8044 -0.9095
  486MOL0     C65491   1.892   2.128   3.342 -0.3435 -1.3326 -0.0210
  486MOL0     N65492   1.834   2.181   3.465  0.9949 -0.6389 -0.9596
  486MOL0     C65493   1.758   2.299   3.476  0.2329  0.0654 -0.0031
  486MOL0     C65494   1.757   2.333   3.607 -0.0709  0.1810 -0.1925
  486MOL0     C65495   1.719   2.464   3.664 -0.2887 -0.5676  1.0957
  486MOL0     C65496   1.823   2.573   3.689  1.0518 -0.3361  0.1138
  486MOL0     C65497   1.956   2.513   3.730  0.5387 -0.1213  0.4302
  486MOL0     C65498   2.061   2.625   3.752 -0.0411  0.7039 -1.0845
  486MOL0     O65499   2.098   2.689   3.626  0.0595  0.0306 -0.4657
  486MOL0     C65500   2.190   2.790   3.636  0.0266 -0.1808  0.6002
  486MOL0     C65501   2.162   2.908   3.561  0.1761  0.4296 -0.2014
  486MOL0     C65502   2.235   3.020   3.568  0.2676  0.8812  0.3234
  486MOL0     C65503   2.351   3.022   3.646 -0.1813 -0.3057  0.3266
  486MOL0     C65504   2.439   3.136   3.658 -0.7436  0.1307  0.5741
  486MOL0     O65505   2.422   3.241   3.559 -0.5844  0.0935  0.4562
  486MOL0     C65506   2.508   3.349   3.566 -0.5261 -0.9472  0.0765
  486MOL0     C65507   2.447   3.470   3.572  0.3324 -0.5424  0.6386
  486MOL0     C65508   2.516   3.583   3.576  0.8229 -0.3471 -0.3193
  486MOL0     C65509   2.649   3.582   3.588 -0.0178 -0.4437 -0.4989
  486MOL0     O65510   2.728   3.690   3.627  0.6184  0.8088  0.0170
  486MOL0     C65511   2.666   3.810   3.674 -0.4579  0.3279  1.2840
  486MOL0     C65512   2.785   3.895   3.707 -0.3399  0.8368 -0.2921
  486MOL0     C65513   2.742   4.039   3.748  0.7687 -0.3404  0.6464
  486MOL0     C65514   2.841   4.098   3.848 -0.5017 -0.2918  0.0145
  486MOL0     C65515   2.799   4.240   3.892 -0.1229 -0.3121 -0.1070
  486MOL0     C65516   2.894   4.286   3.996  0.3000 -0.1364  0.0315
  486MOL0     C65517   3.030   4.333   3.940 -0.1847  0.4773 -0.6952
  486MOL0     C65518   3.073   4.467   4.005  0.0014 -0.6157  0.2154
  486MOL0    Cl65519   3.120   4.442   4.169 -0.0738 -0.4026  0.0763
  486MOL0     C65520   2.721   3.467   3.562 -1.0489  0.1983 -0.3554
  486MOL0     C65521   2.653   3.343   3.564  0.1045 -0.0374  0.0755
  486MOL0     O65522   2.529   3.132   3.745  0.2959 -0.1746 -0.2267
  486MOL0     C65523   2.386   2.909   3.721 -0.3919 -0.0889  0.5530
  486MOL0     C65524   2.301   2.799   3.728  0.2887  0.0571 -1.0042
  486MOL0     N65525   1.825   2.234   3.678  0.3052 -1.0880  1.2056
  486MOL0     N65526   1.861   2.145   3.593  0.1423  0.6788 -0.6281
  486MOL0     C65527   1.693   2.020   2.319 -0.3609 -0.4341  0.2857
  486MOL0     C65528   1.760   2.000   2.198 -0.6089 -0.7501  0.3527
  486MOL0     C65529   1.826   2.103   1.750  0.0745  0.1482 -0.0841
  486MOL0     C65530   1.802   2.193   1.650  0.5203  0.6838 -0.1917
  486MOL0     C65531   1.858   2.188   1.524 -0.6337 -0.8952  0.2906
  486MOL0     C65532   1.952   2.087   1.492 -0.4276 -1.0362  0.1917
  486MOL0     O65533   2.008   2.103   1.371  0.2125  0.5302 -0.4907
  486MOL0     C65534   2.049   1.991   1.287 -0.4393  1.0497 -0.3793
  486MOL0     C65535   2.175   2.029   1.204 -0.0826 -0.1601 -0.7872
  486MOL0     C65536   2.306   2.070   1.268 -0.0757  0.1841 -0.0889
  486MOL0     C65537   2.406   2.082   1.162 -1.0465 -0.4095  0.7988
  486MOL0     C65538   2.520   2.173   1.213 -0.3974  0.5235  0.4659
  486MOL0     C65539   2.620   2.246   1.227  0.3516  0.2965 -0.5448
  486MOL0     C65540   1.964   1.987   1.583 -0.0060 -0.4187  0.0178
  486MOL0     C65541   1.910   1.994   1.721 -0.4129  0.3556  0.4779
  486MOL0     C65542   1.932   1.864   1.804  0.0301 -0.5959  0.5699
  486MOL0     H65543   1.713   2.303   2.074 -0.4084 -0.1950  0.4595
  486MOL0     H65544   1.591   2.332   2.290 -3.6917 -2.0555 -0.4407
  486MOL0     H65545   1.790   2.193   2.559  0.4491 -2.5842 -0.0589
  486MOL0     H65546   1.667   2.303   2.623  0.7574 -0.0018 -0.9289
  486MOL0     H65547   1.691   1.988   2.658 -1.2070 -0.2822 -0.3063
  486MOL0     H65548   1.569   2.092   2.746 -0.4133 -2.0515 -3.2540
  486MOL0     H65549   1.774   2.211   2.844  0.7846  0.0992  2.0296
  486MOL0     H65550   1.872   2.088   2.774  0.6643 -1.3409  0.6002
  486MOL0     H65551   1.662   2.068   2.999 -0.3892  3.0662 -1.0239
  486MOL0     H65552   1.705   1.927   2.902  0.7825  0.5904 -1.0157
  486MOL0     H65553   1.939   1.946   2.990 -2.1047 -1.7567  0.7207
  486MOL0     H65554   1.885   2.103   3.072 -0.6574  0.6824  1.7485
  486MOL0     H65555   1.744   1.871   3.164  0.4142  0.8581 -0.1465
  486MOL0     H65556   1.919   1.897   3.221  1.2957 -1.0441 -3.2214
  486MOL0     H65557   1.713   2.022   3.342 -0.1719  0.4773 -0.1997
  486MOL0     H65558   1.715   2.127   3.208 -0.3704 -1.9549 -2.2424
  486MOL0     H65559   1.973   2.057   3.361 -0.3374 -0.5927  3.3838
  486MOL0     H65560   1.938   2.210   3.287  0.1182 -2.3291 -1.1893
  486MOL0     H65561   1.718   2.364   3.399  2.0800  2.0473  0.6147
  486MOL0     H65562   1.638   2.501   3.599 -2.2830 -0.8290  3.2955
  486MOL0     H65563   1.668   2.435   3.756 -1.5186  1.2934  1.0608
  486MOL0     H65564   1.828   2.645   3.607 -0.0055  0.7837  0.9987
  486MOL0     H65565   1.769   2.632   3.765 -1.1770  1.9862 -3.0115
  486MOL0     H65566   1.990   2.451   3.646 -2.1462  0.5390 -1.2701
  486MOL0     H65567   1.952   2.460   3.826  0.2647  1.2588  1.1994
  486MOL0     H65568   2.136   2.582   3.818 -1.7297  0.2247  0.6261
  486MOL0     H65569   2.015   2.706   3.810  1.6944  1.2420 -0.3957
  486MOL0     H65570   2.077   2.914   3.494  0.3110 -0.7139 -0.4935
  486MOL0     H65571   2.201   3.112   3.522 -1.2701  1.4715  2.4682
  486MOL0     H65572   2.339   3.470   3.562  0.3813  1.5873 -0.5303
  486MOL0     H65573   2.445   3.665   3.582  0.6123 -0.5374 -0.2027
  486MOL0     H65574   2.614   3.864   3.594  3.5873  4.1824  0.8462
  486MOL0     H65575   2.608   3.795   3.766  0.3945  0.1840  1.8061
  486MOL0     H65576   2.842   3.850   3.788 -0.8994 -1.9468 -1.3372
  486MOL0     H65577   2.848   3.895   3.617 -1.3897  1.1763 -1.0557
  486MOL0     H65578   2.743   4.108   3.663  0.8338 -0.2493  0.7198
  486MOL0     H65579   2.639   4.042   3.784  0.5622  2.2341  0.0473
  486MOL0     H65580   2.943   4.098   3.810 -0.0255  0.4017  1.2576
  486MOL0     H65581   2.842   4.032   3.935  3.3427  2.4293  2.3288
  486MOL0     H65582   2.702   4.240   3.941  1.3895  0.7385  3.2142
  486MOL0     H65583   2.797   4.312   3.809  4.1959 -0.5671 -0.6800
  486MOL0     H65584   2.850   4.366   4.056  1.0875 -0.1661  0.6568
  486MOL0     H65585   2.917   4.209   4.070  1.5547  0.0419 -0.1590
  486MOL0     H65586   3.031   4.349   3.832  0.7533 -2.0406 -1.1077
  486MOL0     H65587   3.106   4.256   3.956 -1.4081 -1.0459 -1.9800
  486MOL0     H65588   3.153   4.521   3.953 -0.9024 -0.2660 -0.8635
  486MOL0     H65589   2.978   4.521   4.011 -0.8942 -2.3471  3.1568
  486MOL0     H65590   2.828   3.476   3.545 -1.4208  2.6119 -1.8224
  486MOL0     H65591   2.693   3.244   3.547 -2.3089 -0.9834 -0.5145
  486MOL0     H65592   2.460   2.910   3.800 -0.0024  0.4535  0.1854
  486MOL0     H65593   2.346   2.733   3.802  0.4625  0.2393 -0.9468
  486MOL0     H65594   1.676   1.932   2.381  0.1731 -0.0479  0.9841
  486MOL0     H65595   1.804   1.907   2.164 -1.4188 -0.1637 -2.6430
  486MOL0     H65596   1.738   2.277   1.677  1.6634  1.5502 -0.0844
  486MOL0     H65597   1.833   2.265   1.452 -4.6519 -1.8209  0.4665
  486MOL0     H65598   1.975   1.963   1.211  2.7003 -2.2367 -2.5541
  486MOL0     H65599   2.085   1.904   1.342 -0.1327  0.7372 -1.0641
  486MOL0     H65600   2.143   2.120   1.152 -2.3627  0.6058  1.7334
  486MOL0     H65601   2.194   1.952   1.129 -0.1119  0.2921 -1.2711
  486MOL0     H65602   2.346   2.007   1.348  0.3481  0.1369 -0.3359
  486MOL0     H65603   2.281   2.168   1.309 -2.2851  0.4173 -1.7932
  486MOL0     H65604   2.455   1.988   1.132  0.4779  1.1704 -2.0881
  486MOL0     H65605   2.367   2.132   1.073  1.3984  0.0110 -0.1126
  486MOL0     H65606   2.716   2.292   1.227  1.5724 -2.0309 -2.1478
  486MOL0     H65607   2.033   1.906   1.562  1.6600  0.8637  0.3326
  486MOL0     H65608   2.015   1.803   1.768  1.1152  0.2899  1.4771
  486MOL0     H65609   1.967   1.894   1.904  2.2709 -2.2211  0.3598
  486MOL0     H65610   1.838   1.814   1.826 -1.4478  1.5120 -0.6598
  487MOL0     O65611   7.491   5.005   9.761  0.0486  0.6090  0.2149
  487MOL0     C65612   7.563   4.961   9.848 -0.2243  1.0824  0.0599
  487MOL0     O65613   7.520   4.910   9.966 -0.7530 -0.5694  0.1446
  487MOL0     C65614   7.389   4.890   9.985 -0.6666 -0.1101  0.2847
  487MOL0     C65615   7.294   4.986   9.977  0.6947 -0.2135 -0.3094
  487MOL0     C65616   7.163   4.957  10.006 -0.2106  0.4611  0.4316
  487MOL0     C65617   7.118   4.829  10.044  1.0575  0.6772 -0.1456
  487MOL0     O65618   6.982   4.830  10.085 -0.5537 -0.3203  0.6437
  487MOL0     C65619   6.943   4.755  10.201 -0.8480  0.0215  0.0244
  487MOL0     C65620   6.834   4.654  10.168  0.2194 -0.1277 -0.2468
  487MOL0     C65621   6.761   4.604  10.298  0.5679  0.0660 -0.8241
  487MOL0     C65622   6.702   4.465  10.269  0.3004 -0.0423  0.2438
  487MOL0     C65623   6.597   4.400  10.352 -0.0635  0.1210 -0.7811
  487MOL0     C65624   6.479   4.498  10.387  0.6031 -0.2243  0.3842
  487MOL0     C65625   6.412   4.579  10.275  0.2528 -0.3755 -0.3277
  487MOL0     C65626   6.364   4.482  10.166 -0.0461 -0.0361  0.2677
  487MOL0     N65627   6.303   4.568  10.059  0.0048  0.1322  0.0963
  487MOL0     C65628   6.178   4.630  10.061 -0.4310  0.1687  0.5124
  487MOL0     C65629   6.189   4.710   9.949  0.4275  0.2333  0.5884
  487MOL0     C65630   6.066   4.798   9.906 -0.0859 -0.8305 -0.4481
  487MOL0     C65631   6.022   4.744   9.764 -0.6177 -0.1161  0.4103
  487MOL0     C65632   5.908   4.826   9.700 -0.5087 -1.0949  0.5486
  487MOL0     C65633   5.767   4.774   9.734 -0.4781 -1.0779  0.4723
  487MOL0     O65634   5.748   4.643   9.690  0.0738 -1.0750  0.2644
  487MOL0     C65635   5.650   4.560   9.738 -1.4990  0.9563 -0.2605
  487MOL0     C65636   5.524   4.605   9.795  0.5115 -0.0761  0.4503
  487MOL0     C65637   5.415   4.514   9.823  0.2129  0.3570 -0.1768
  487MOL0     C65638   5.438   4.377   9.808  0.5622  0.0807 -0.2942
  487MOL0     C65639   5.332   4.278   9.850  0.2033 -0.1757 -0.7860
  487MOL0     O65640   5.378   4.150   9.856 -0.3247  0.6331 -0.0262
  487MOL0     C65641   5.298   4.054   9.928 -1.5060 -1.1473 -0.6262
  487MOL0     C65642   5.199   4.000   9.852  0.1923  0.5390 -0.4015
  487MOL0     C65643   5.118   3.903   9.913 -0.6917  0.9819 -0.2496
  487MOL0     C65644   5.137   3.863  10.049 -1.3596  0.5264 -0.0613
  487MOL0     O65645   5.059   3.770  10.113  0.0037  0.4166  0.3189
  487MOL0     C65646   4.977   3.684  10.037 -0.1241 -0.3479  0.6314
  487MOL0     C65647   4.892   3.607  10.139  0.5266 -0.0587  0.1782
  487MOL0     C65648   4.779   3.686  10.200 -0.0891  0.9906 -0.7239
  487MOL0     C65649   4.715   3.628  10.328  0.5758 -0.2484 -0.1328
  487MOL0     C65650   4.638   3.739  10.416  0.7351 -1.0239 -0.0738
  487MOL0     C65651   4.520   3.693  10.501  0.0229 -0.7210  0.1756
  487MOL0     C65652   4.456   3.802  10.590 -0.5120 -0.1436 -0.6197
  487MOL0     C65653   4.364   3.745  10.689  0.2431  0.3658 -0.3009
  487MOL0    Cl65654   4.280   3.866  10.783 -0.6653  0.7316 -0.0726
  487MOL0     C65655   5.234   3.925  10.119 -0.1444 -0.5251  0.4665
  487MOL0     C65656   5.317   4.024  10.059  0.5494 -0.8538 -0.9611
  487MOL0     O65657   5.227   4.321   9.893 -0.8954 -0.2286  0.2301
  487MOL0     C65658   5.563   4.334   9.759 -0.3556  0.5592 -0.4622
  487MOL0     C65659   5.669   4.423   9.721 -0.4998  0.0561 -0.1802
  487MOL0     N65660   6.302   4.686   9.877 -0.0292 -0.3551  0.6557
  487MOL0     N65661   6.375   4.603   9.946 -0.2936  0.1581  0.5683
  487MOL0     C65662   7.214   4.719  10.050  0.1970 -0.1490  0.1682
  487MOL0     C65663   7.349   4.752  10.016  0.9722 -0.2745  0.3628
  487MOL0     C65664   7.714   4.960   9.822  0.4212 -0.7897  0.0731
  487MOL0     C65665   7.800   4.887   9.910 -0.3277  0.2773  0.7123
  487MOL0     C65666   7.931   4.876   9.887 -0.2115  0.8796  0.0584
  487MOL0     C65667   7.986   4.927   9.769  0.0771 -0.1516 -0.4259
  487MOL0     O65668   8.118   4.925   9.736  0.3958 -0.0186  0.4807
  487MOL0     C65669   8.222   4.880   9.829  0.4355 -0.1215 -0.2626
  487MOL0     C65670   8.255   4.732   9.832  0.3488 -0.2196 -0.2319
  487MOL0     C65671   8.333   4.684   9.707 -0.0045  0.4764  1.3552
  487MOL0     C65672   8.434   4.570   9.764  0.7603 -0.2773  0.0784
  487MOL0     C65673   8.358   4.460   9.822 -0.2373 -0.1464 -0.0541
  487MOL0     C65674   8.264   4.393   9.857 -0.1670  0.0921  0.6826
  487MOL0     C65675   7.908   5.001   9.686  0.3075 -0.5704  0.0067
  487MOL0     C65676   7.772   5.022   9.712  0.7492 -0.5783  0.0905
  487MOL0     C65677   7.704   5.122   9.616 -0.6509  0.9472 -1.0626
  487MOL0     H65678   7.321   5.089   9.953  0.4112 -0.1021 -0.1498
  487MOL0     H65679   7.094   5.041  10.008  2.0193  2.4040  0.7960
  487MOL0     H65680   7.033   4.709  10.243  0.2678  2.2963  0.2959
  487MOL0     H65681   6.923   4.819  10.288  0.7722  2.2173 -1.1344
  487MOL0     H65682   6.886   4.569  10.122  0.9004 -0.5816  1.2992
  487MOL0     H65683   6.755   4.706  10.114  0.6607  2.1062  1.1291
  487MOL0     H65684   6.696   4.680  10.343  2.0258 -0.7445  3.0577
  487MOL0     H65685   6.831   4.589  10.380 -0.8830 -5.4500 -0.1685
  487MOL0     H65686   6.662   4.478  10.168  2.7651 -2.0751 -1.1067
  487MOL0     H65687   6.785   4.395  10.256  0.1191 -0.1679 -0.2430
  487MOL0     H65688   6.553   4.317  10.295  0.3625  1.0646 -2.5511
  487MOL0     H65689   6.644   4.365  10.445  0.5074  0.7617 -0.8257
  487MOL0     H65690   6.405   4.437  10.439 -0.9695  0.3854 -1.0768
  487MOL0     H65691   6.515   4.578  10.453  1.5913  2.4071 -3.0433
  487MOL0     H65692   6.475   4.656  10.230  1.0191 -0.1951  1.0063
  487MOL0     H65693   6.322   4.630  10.311  0.2616 -0.0812 -0.7221
  487MOL0     H65694   6.447   4.432  10.115  0.2089 -2.0737  2.4968
  487MOL0     H65695   6.302   4.400  10.204 -0.3469  0.2799  0.4632
  487MOL0     H65696   6.096   4.602  10.127  1.7463 -2.7409  2.2246
  487MOL0     H65697   5.981   4.784   9.974  0.6330 -3.7311 -0.0122
  487MOL0     H65698   6.088   4.903   9.885 -1.2415 -0.5611 -0.3971
  487MOL0     H65699   6.105   4.764   9.696 -1.6560  0.0436 -0.8459
  487MOL0     H65700   6.011   4.635   9.770  2.4299 -0.4599  2.7192
  487MOL0     H65701   5.918   4.809   9.592  2.0106  3.6938 -0.2479
  487MOL0     H65702   5.924   4.931   9.729 -2.0228  1.1774 -5.3065
  487MOL0     H65703   5.704   4.842   9.677  0.7494  1.2761  1.7931
  487MOL0     H65704   5.741   4.784   9.840  0.6566 -1.0803  0.7604
  487MOL0     H65705   5.497   4.709   9.777 -2.5379 -0.6802  1.0560
  487MOL0     H65706   5.318   4.550   9.857  0.3944 -1.0362  2.0063
  487MOL0     H65707   5.184   4.006   9.745 -1.8907 -1.7188 -0.3269
  487MOL0     H65708   5.061   3.834   9.851  0.8004 -4.0046  3.2357
  487MOL0     H65709   4.915   3.737   9.964  0.8644  0.3523  0.2838
  487MOL0     H65710   5.052   3.621   9.988 -1.3504 -0.5665 -1.0508
  487MOL0     H65711   4.846   3.517  10.098 -2.0656  1.4894 -0.5597
  487MOL0     H65712   4.957   3.575  10.221 -2.3664 -0.6873  2.3835
  487MOL0     H65713   4.823   3.784  10.219  2.0277 -0.0055 -0.1707
  487MOL0     H65714   4.693   3.685  10.133 -1.5355 -1.8086  0.9865
  487MOL0     H65715   4.795   3.574  10.381  0.2677 -1.2969 -0.6976
  487MOL0     H65716   4.641   3.552  10.302  2.4124 -3.0429  2.2057
  487MOL0     H65717   4.602   3.823  10.356  0.2953  0.0686  1.6542
  487MOL0     H65718   4.713   3.796  10.471 -1.5291  1.4001  0.6964
  487MOL0     H65719   4.441   3.658  10.434 -1.5722  2.2333  0.3204
  487MOL0     H65720   4.566   3.623  10.571  1.8386 -0.4797 -0.7092
  487MOL0     H65721   4.402   3.877  10.531  0.7333  2.5926  1.5112
  487MOL0     H65722   4.535   3.854  10.646  1.1366 -1.1022 -1.9300
  487MOL0     H65723   4.283   3.695  10.634 -1.9273  1.7638  1.4500
  487MOL0     H65724   4.429   3.678  10.747 -0.1369  0.1300 -0.1438
  487MOL0     H65725   5.251   3.898  10.223  2.6825  1.0637  0.5320
  487MOL0     H65726   5.404   4.060  10.114  0.8987 -1.7749 -0.9004
  487MOL0     H65727   5.584   4.229   9.741  0.5721  0.6591 -0.0540
  487MOL0     H65728   5.764   4.394   9.677  1.3497  0.2143  3.3681
  487MOL0     H65729   7.187   4.614  10.064 -1.8739  0.6694  3.2416
  487MOL0     H65730   7.431   4.681  10.015  0.7814 -0.4936  0.1694
  487MOL0     H65731   7.771   4.839  10.003  2.6078 -1.2059  0.9816
  487MOL0     H65732   8.001   4.823   9.951 -1.1524  0.1328  0.4970
  487MOL0     H65733   8.181   4.913   9.925 -0.6398 -1.7911 -0.1013
  487MOL0     H65734   8.315   4.933   9.804  0.3441 -1.3578 -3.7849
  487MOL0     H65735   8.156   4.684   9.830  1.1836 -2.6241  3.5880
  487MOL0     H65736   8.314   4.704   9.920  1.1682  3.0527  0.3949
  487MOL0     H65737   8.396   4.763   9.666 -1.6052  0.6526 -0.9436
  487MOL0     H65738   8.265   4.649   9.629  3.6207  2.5810 -3.2169
  487MOL0     H65739   8.488   4.525   9.680 -1.9069  2.0918 -3.1791
  487MOL0     H65740   8.512   4.608   9.831  2.2769  0.8086 -2.1888
  487MOL0     H65741   8.178   4.339   9.891 -1.4255  1.1471 -0.7010
  487MOL0     H65742   7.949   5.044   9.596 -0.6184  2.4699  0.9032
  487MOL0     H65743   7.774   5.189   9.564 -2.1317  1.2694 -2.7537
  487MOL0     H65744   7.661   5.055   9.542 -0.4335 -0.8187  0.3458
  487MOL0     H65745   7.629   5.186   9.664 -0.1548  0.9641 -0.2788
  488MOL0     O65746   3.028   1.186   5.921 -0.2471  0.2713  0.5824
  488MOL0     C65747   3.125   1.257   5.891 -0.3400 -0.3009 -0.2768
  488MOL0     O65748   3.123   1.393   5.879 -0.0750  0.2046 -0.3073
  488MOL0     C65749   3.023   1.466   5.922  0.1748 -0.6227 -0.6815
  488MOL0     C65750   2.962   1.554   5.823  0.4243  0.0560  0.0219
  488MOL0     C65751   2.847   1.621   5.853  0.3148 -0.3312 -0.7703
  488MOL0     C65752   2.781   1.602   5.972  0.7283 -0.3614  0.8208
  488MOL0     O65753   2.676   1.682   6.011  0.2733  0.2374 -0.1851
  488MOL0     C65754   2.689   1.816   6.058  0.6010 -0.9168  0.0468
  488MOL0     C65755   2.763   1.825   6.191  0.3206  0.1739 -0.3755
  488MOL0     C65756   2.710   1.738   6.309 -0.7678  0.3171 -1.5465
  488MOL0     C65757   2.653   1.822   6.431  0.4403  0.5534 -0.4897
  488MOL0     C65758   2.767   1.864   6.524 -0.5445 -1.0536  0.2443
  488MOL0     C65759   2.734   1.993   6.605  0.5435  0.4027 -0.0819
  488MOL0     C65760   2.842   2.096   6.584  0.5020 -0.3510  0.5624
  488MOL0     C65761   2.791   2.235   6.619  0.3081  0.0097 -0.4180
  488MOL0     N65762   2.899   2.317   6.675  0.4354  0.0380  1.2303
  488MOL0     C65763   2.928   2.447   6.640  0.6930 -0.6446  0.5170
  488MOL0     C65764   3.015   2.497   6.734 -0.2103 -0.7839 -0.7576
  488MOL0     C65765   3.068   2.633   6.727  0.5279  0.0044 -0.4542
  488MOL0     C65766   3.202   2.633   6.648 -0.6999 -0.3181 -0.1601
  488MOL0     C65767   3.286   2.760   6.643  0.2283  0.1641 -0.1390
  488MOL0     C65768   3.217   2.855   6.548  0.0422 -0.4723 -0.0451
  488MOL0     O65769   3.278   2.986   6.564 -1.0643  0.5590  0.0356
  488MOL0     C65770   3.273   3.051   6.683  0.2401 -0.4104 -0.2172
  488MOL0     C65771   3.138   3.084   6.734 -1.0712  0.2898  0.5948
  488MOL0     C65772   3.135   3.133   6.858 -0.3153 -1.7102 -0.3342
  488MOL0     C65773   3.258   3.156   6.938 -0.4172 -0.5767  0.8095
  488MOL0     C65774   3.249   3.201   7.070 -0.3031  0.5155 -0.0193
  488MOL0     O65775   3.367   3.207   7.135 -0.1625  0.5537 -0.6661
  488MOL0     C65776   3.377   3.258   7.265 -0.8427 -0.6687 -0.1128
  488MOL0     C65777   3.289   3.358   7.318  0.0215  0.0844 -0.1457
  488MOL0     C65778   3.320   3.410   7.446 -0.0330 -0.2705 -0.3930
  488MOL0     C65779   3.433   3.370   7.515  0.1370 -0.5360 -0.6410
  488MOL0     O65780   3.450   3.435   7.627  0.4099  0.6779 -0.3806
  488MOL0     C65781   3.412   3.358   7.751 -0.1309 -0.3050  0.3798
  488MOL0     C65782   3.352   3.450   7.848  0.2521  0.9510 -0.6596
  488MOL0     C65783   3.325   3.369   7.980 -0.3752 -0.1460  0.8786
  488MOL0     C65784   3.272   3.465   8.086  0.4566 -0.5747 -0.4364
  488MOL0     C65785   3.263   3.412   8.232 -0.3963  0.3661  0.1841
  488MOL0     C65786   3.200   3.274   8.245 -0.0088  0.1150  0.0547
  488MOL0     C65787   3.269   3.190   8.358 -0.1099  0.2832 -1.2900
  488MOL0     C65788   3.191   3.057   8.386  0.3208 -0.3730 -0.8013
  488MOL0    Cl65789   3.175   2.946   8.241 -0.0207 -0.2050 -0.5685
  488MOL0     C65790   3.522   3.271   7.469  1.0915 -0.3619 -0.2865
  488MOL0     C65791   3.499   3.219   7.343  0.4063  0.0424 -0.2401
  488MOL0     O65792   3.142   3.211   7.114  0.3681  0.5113 -0.0972
  488MOL0     C65793   3.379   3.120   6.882  0.5267  0.7247  0.2712
  488MOL0     C65794   3.396   3.074   6.749  0.3672  0.2740 -0.4754
  488MOL0     N65795   3.028   2.399   6.829  0.2071  0.1404  0.7025
  488MOL0     N65796   2.961   2.292   6.790  0.4900 -0.9942 -0.5166
  488MOL0     C65797   2.831   1.510   6.068  1.4183 -0.2770  0.5399
  488MOL0     C65798   2.952   1.447   6.042  0.7733 -0.1193  0.1709
  488MOL0     C65799   3.260   1.190   5.854  0.1099 -0.1683  0.6184
  488MOL0     C65800   3.380   1.260   5.867  0.4912 -0.6164  0.9113
  488MOL0     C65801   3.506   1.205   5.826  0.3087 -0.0445  0.6992
  488MOL0     C65802   3.512   1.078   5.779 -0.9883  1.0701  0.7310
  488MOL0     O65803   3.639   1.036   5.738  0.0098 -0.4073  1.7037
  488MOL0     C65804   3.673   0.895   5.757 -0.6043 -0.6442  0.2908
  488MOL0     C65805   3.653   0.853   5.899 -0.3667  0.6353 -1.5633
  488MOL0     C65806   3.768   0.864   5.995 -0.1285 -0.0682  0.2472
  488MOL0     C65807   3.781   1.002   6.048 -0.5732 -0.5666  0.5494
  488MOL0     C65808   3.681   1.027   6.156 -0.0753 -0.6334  0.5027
  488MOL0     C65809   3.611   1.051   6.243 -1.0616  1.2076 -0.1766
  488MOL0     C65810   3.396   1.003   5.771 -0.1030 -0.8196  0.3412
  488MOL0     C65811   3.271   1.051   5.810 -0.9026 -0.0340 -0.5317
  488MOL0     C65812   3.154   0.961   5.791 -0.2145 -0.7116 -0.6281
  488MOL0     H65813   2.996   1.568   5.721 -1.2213 -2.5657 -0.9972
  488MOL0     H65814   2.806   1.692   5.782 -1.3150 -0.1491  0.3051
  488MOL0     H65815   2.735   1.875   5.978  0.5270  0.8082  1.2343
  488MOL0     H65816   2.594   1.867   6.076  2.1582  2.8002 -1.3145
  488MOL0     H65817   2.756   1.931   6.217 -2.7151  1.5705 -5.4174
  488MOL0     H65818   2.855   1.782   6.151 -0.8348 -0.9260 -2.0159
  488MOL0     H65819   2.795   1.681   6.349 -0.5401  1.2279 -0.6800
  488MOL0     H65820   2.625   1.680   6.274 -2.4724  0.0072  2.6038
  488MOL0     H65821   2.603   1.907   6.384  0.7864  0.6162 -0.7440
  488MOL0     H65822   2.585   1.766   6.496 -1.0384  1.4886 -1.1777
  488MOL0     H65823   2.792   1.796   6.606  0.2771  1.5001  2.2627
  488MOL0     H65824   2.860   1.885   6.471  0.3271 -2.0420  1.3358
  488MOL0     H65825   2.635   2.028   6.575 -0.7200 -3.9801 -1.7587
  488MOL0     H65826   2.743   1.966   6.710  3.1157 -1.1818 -0.6095
  488MOL0     H65827   2.885   2.090   6.483  1.2231 -0.1050  0.8418
  488MOL0     H65828   2.927   2.074   6.649  1.7692  3.4921  0.4172
  488MOL0     H65829   2.738   2.287   6.538 -3.2474  1.3569  2.5301
  488MOL0     H65830   2.724   2.224   6.704  2.7363 -1.0365  1.4825
  488MOL0     H65831   2.896   2.499   6.550 -0.6716 -4.0031 -1.1465
  488MOL0     H65832   2.986   2.697   6.696 -0.3643 -0.9920 -0.2298
  488MOL0     H65833   3.088   2.670   6.828  1.2471 -2.0319  0.2008
  488MOL0     H65834   3.262   2.542   6.661  0.2200  0.4241  0.8747
  488MOL0     H65835   3.165   2.629   6.545 -0.8934  1.0639 -0.1640
  488MOL0     H65836   3.386   2.727   6.615  1.1633  1.4094  1.5784
  488MOL0     H65837   3.296   2.805   6.742  0.4284 -3.1812  1.4912
  488MOL0     H65838   3.109   2.864   6.557  0.1715  1.3408  0.0842
  488MOL0     H65839   3.236   2.826   6.444  0.9766  0.9290 -0.2932
  488MOL0     H65840   3.051   3.064   6.671  2.0061 -1.1985 -3.6972
  488MOL0     H65841   3.041   3.147   6.911  0.2581  0.7930  0.1254
  488MOL0     H65842   3.204   3.399   7.264  1.3470  0.8595 -1.7045
  488MOL0     H65843   3.254   3.490   7.479  1.3332  0.0762  1.6152
  488MOL0     H65844   3.348   3.271   7.734 -0.1945 -0.1162 -0.3617
  488MOL0     H65845   3.509   3.326   7.791  0.1799  2.1378  1.8217
  488MOL0     H65846   3.423   3.528   7.876  2.8015 -1.8129  1.3000
  488MOL0     H65847   3.263   3.503   7.815  0.0381  2.5484  2.1712
  488MOL0     H65848   3.259   3.284   7.959 -4.5924  2.8110  0.9475
  488MOL0     H65849   3.415   3.328   8.026 -1.3372 -1.3783  1.7374
  488MOL0     H65850   3.171   3.482   8.049  0.1962  0.2678  0.6059
  488MOL0     H65851   3.321   3.563   8.078 -0.7300  0.6674  4.3263
  488MOL0     H65852   3.204   3.479   8.296 -0.9995  1.2794 -1.2787
  488MOL0     H65853   3.364   3.401   8.272 -0.5416  0.3732  0.5608
  488MOL0     H65854   3.093   3.280   8.265 -0.7159  1.0649 -3.2699
  488MOL0     H65855   3.221   3.230   8.147  2.5492  1.4162 -0.0959
  488MOL0     H65856   3.281   3.240   8.454  2.2380 -1.4516 -0.5868
  488MOL0     H65857   3.370   3.166   8.322  1.5069  2.0027  1.7117
  488MOL0     H65858   3.236   3.004   8.471 -2.2481 -0.0823  0.8327
  488MOL0     H65859   3.089   3.086   8.412 -0.4662 -0.5351 -3.4397
  488MOL0     H65860   3.602   3.244   7.537  0.1037 -1.1186  0.6132
  488MOL0     H65861   3.574   3.154   7.300  2.3494  4.4537 -4.3524
  488MOL0     H65862   3.469   3.119   6.942  2.3385 -3.7640 -2.0406
  488MOL0     H65863   3.492   3.044   6.710  1.0333 -0.3197  1.5161
  488MOL0     H65864   2.781   1.493   6.163  0.7215 -0.9263  0.0675
  488MOL0     H65865   2.985   1.380   6.121 -3.6581  1.8453  4.1325
  488MOL0     H65866   3.401   1.358   5.909 -1.6435 -0.5299  1.8785
  488MOL0     H65867   3.594   1.269   5.825  3.1723 -3.5597  2.8437
  488MOL0     H65868   3.779   0.887   5.732  0.3420  1.0746  3.2421
  488MOL0     H65869   3.622   0.830   5.685 -2.4602  0.6381  0.3748
  488MOL0     H65870   3.634   0.745   5.898  0.5347  0.4421 -0.2479
  488MOL0     H65871   3.563   0.884   5.954 -1.1915  1.2662 -3.2083
  488MOL0     H65872   3.855   0.820   5.946 -0.3068 -0.2826  0.1247
  488MOL0     H65873   3.759   0.796   6.080 -1.2455 -0.4798 -0.1852
  488MOL0     H65874   3.878   1.014   6.097  0.6931 -2.7721 -1.2171
  488MOL0     H65875   3.765   1.070   5.964 -3.5479 -4.3966 -2.3720
  488MOL0     H65876   3.554   1.090   6.324  1.4661  1.5216  1.5702
  488MOL0     H65877   3.405   0.902   5.731 -1.4355 -0.9440  0.2974
  488MOL0     H65878   3.188   0.878   5.728  2.6448  1.7888 -2.6814
  488MOL0     H65879   3.098   0.936   5.882 -0.6024 -1.8362 -1.1544
  488MOL0     H65880   3.073   1.002   5.730 -0.8161 -1.1029 -0.1111
  489MOL0     O65881   9.669   2.211   3.329  0.0156  0.9212  0.7561
  489MOL0     C65882   9.726   2.109   3.268  0.0680 -0.0586  0.2914
  489MOL0     O65883   9.669   2.019   3.180  0.4810 -0.5397  0.1995
  489MOL0     C65884   9.545   2.048   3.133 -0.2155  0.8722 -0.6995
  489MOL0     C65885   9.527   2.152   3.049 -0.4126 -0.5602 -0.4268
  489MOL0     C65886   9.403   2.189   3.006 -0.8884  0.0660 -0.1013
  489MOL0     C65887   9.295   2.095   3.024  0.5041 -0.4298 -0.0509
  489MOL0     O65888   9.175   2.137   2.973 -0.3999 -0.2576  0.1264
  489MOL0     C65889   9.133   2.063   2.855 -0.5591  0.6384 -0.2383
  489MOL0     C65890   8.999   2.103   2.792  0.5163  0.3850 -0.3583
  489MOL0     C65891   9.027   2.237   2.726 -0.2028 -0.5833  0.4620
  489MOL0     C65892   8.890   2.306   2.711  0.1511  0.3190 -0.5021
  489MOL0     C65893   8.877   2.417   2.613  0.0032  0.1511  0.3426
  489MOL0     C65894   8.985   2.523   2.653 -0.5664  0.5220 -0.3151
  489MOL0     C65895   8.952   2.646   2.577  0.4921  0.3544  0.5018
  489MOL0     C65896   8.960   2.632   2.429 -0.6935 -1.0489 -0.0150
  489MOL0     N65897   9.028   2.739   2.359 -0.2285 -0.3995 -0.1952
  489MOL0     C65898   8.994   2.872   2.368 -0.3173  0.1415 -0.0527
  489MOL0     C65899   9.072   2.944   2.278 -0.1659  0.1674 -0.8563
  489MOL0     C65900   9.074   3.088   2.249  0.2531 -0.2779 -0.0604
  489MOL0     C65901   9.136   3.168   2.366  0.0323  0.2632  0.2692
  489MOL0     C65902   9.284   3.137   2.373  0.3784  0.4996  0.1268
  489MOL0     C65903   9.366   3.263   2.409 -0.1193 -0.7261  0.5483
  489MOL0     O65904   9.347   3.275   2.553 -0.1969  0.1669  0.2494
  489MOL0     C65905   9.392   3.377   2.625 -0.5548  0.1135  1.5957
  489MOL0     C65906   9.400   3.354   2.764  0.8432 -0.5798  0.4764
  489MOL0     C65907   9.455   3.455   2.840  0.0009 -0.4665 -0.6762
  489MOL0     C65908   9.505   3.576   2.787 -0.3501  0.3863 -0.8761
  489MOL0     C65909   9.543   3.687   2.878 -1.0088  1.7228  0.0862
  489MOL0     O65910   9.633   3.659   2.979 -0.5301 -0.4657  0.7096
  489MOL0     C65911   9.701   3.765   3.045  0.0134 -0.2012  0.3053
  489MOL0     C65912   9.722   3.897   2.986 -0.2483  0.9992  0.1926
  489MOL0     C65913   9.782   3.992   3.071 -0.1671  0.1306 -0.3589
  489MOL0     C65914   9.835   3.961   3.200  0.4000 -0.6471  0.7498
  489MOL0     O65915   9.905   4.068   3.257 -0.7092 -0.5901 -0.6429
  489MOL0     C65916   9.905   4.078   3.400  0.3858  0.3011  0.5481
  489MOL0     C65917   9.808   4.180   3.460 -0.2712  0.0130  0.4947
  489MOL0     C65918   9.822   4.329   3.407  1.3857  0.6972  0.3382
  489MOL0     C65919   9.694   4.409   3.432  0.3970  1.1377 -0.0871
  489MOL0     C65920   9.667   4.501   3.316  0.2026  0.2950 -0.1990
  489MOL0     C65921   9.774   4.601   3.269 -0.4080 -0.5827 -0.3371
  489MOL0     C65922   9.840   4.683   3.391  0.1973  0.7656  0.2009
  489MOL0     C65923   9.958   4.770   3.347 -0.7202 -0.2073 -0.2110
  489MOL0    Cl65924  10.102   4.649   3.314  0.2245 -0.6350 -0.1235
  489MOL0     C65925   9.819   3.828   3.238  0.1867  0.7561 -1.1694
  489MOL0     C65926   9.738   3.738   3.176 -0.1923  0.3411  0.7019
  489MOL0     O65927   9.484   3.789   2.859  0.4740 -0.8862  0.3036
  489MOL0     C65928   9.489   3.593   2.645  0.3686  0.6622 -0.3654
  489MOL0     C65929   9.448   3.487   2.566 -0.0576  0.3438  0.0833
  489MOL0     N65930   9.155   2.856   2.223 -0.3913  0.4749  0.4161
  489MOL0     N65931   9.140   2.737   2.281  0.5531  0.5922  0.6958
  489MOL0     C65932   9.312   1.980   3.101  0.2212 -0.0838 -0.6956
  489MOL0     C65933   9.438   1.963   3.165  0.7137  0.6044  0.3219
  489MOL0     C65934   9.866   2.080   3.314  1.0095  0.3938 -0.0683
  489MOL0     C65935   9.906   2.147   3.429  0.0758  0.2300  0.3648
  489MOL0     C65936  10.034   2.120   3.481  0.5145 -0.8354  0.7492
  489MOL0     C65937  10.129   2.048   3.420 -0.9458 -0.8082 -0.5269
  489MOL0     O65938  10.257   2.049   3.468  0.7167  0.1016  0.5539
  489MOL0     C65939  10.297   1.925   3.521 -0.2664  0.1275  0.0156
  489MOL0     C65940  10.269   1.910   3.673 -1.1007  0.2064 -0.5733
  489MOL0     C65941  10.149   1.840   3.712  0.6075 -0.1895 -0.4766
  489MOL0     C65942  10.085   1.882   3.849  0.2744  0.4174 -0.8240
  489MOL0     C65943  10.160   1.831   3.958  0.3528  0.4677 -0.2016
  489MOL0     C65944  10.232   1.774   4.043 -0.5385 -0.8313 -0.4070
  489MOL0     C65945  10.086   1.974   3.312 -0.0942 -0.0780  0.4162
  489MOL0     C65946   9.960   1.988   3.257  0.3081  0.6124  0.0167
  489MOL0     C65947   9.929   1.907   3.135 -0.0016  0.3505 -0.2022
  489MOL0     H65948   9.608   2.223   3.037 -0.8153  0.2306  1.1714
  489MOL0     H65949   9.376   2.285   2.963 -2.6310 -0.0832  0.5891
  489MOL0     H65950   9.215   2.080   2.783  0.3759 -0.1693  0.6097
  489MOL0     H65951   9.124   1.960   2.888  2.3568 -0.0315 -1.2008
  489MOL0     H65952   8.928   2.121   2.873  1.4172  2.3327  0.0825
  489MOL0     H65953   8.958   2.035   2.717  2.7606 -0.8111 -0.5813
  489MOL0     H65954   9.079   2.217   2.632 -0.8403 -0.3000  0.0438
  489MOL0     H65955   9.091   2.295   2.794  3.7213 -0.8748 -2.6226
  489MOL0     H65956   8.817   2.228   2.687  1.5065 -1.3910  0.6851
  489MOL0     H65957   8.863   2.344   2.810  2.9573 -1.5764  1.1569
  489MOL0     H65958   8.883   2.376   2.511 -1.8250  1.5852 -0.3935
  489MOL0     H65959   8.782   2.470   2.609 -0.1514 -0.1020  0.5908
  489MOL0     H65960   8.981   2.543   2.761 -0.0524 -0.3382 -0.1268
  489MOL0     H65961   9.086   2.494   2.623 -0.5025 -0.0700  0.4432
  489MOL0     H65962   9.030   2.712   2.615  1.1944 -1.5914  2.6801
  489MOL0     H65963   8.850   2.677   2.602 -0.5801 -1.2722 -1.4745
  489MOL0     H65964   8.998   2.532   2.409  3.5279  0.0637  1.4083
  489MOL0     H65965   8.859   2.645   2.389  0.7283  2.1078 -3.1959
  489MOL0     H65966   8.907   2.907   2.422 -2.6508 -1.3674 -2.5706
  489MOL0     H65967   9.143   3.100   2.165  0.1759  1.6444  0.1124
  489MOL0     H65968   8.971   3.120   2.228  0.7589 -0.5735 -3.7511
  489MOL0     H65969   9.118   3.275   2.351 -5.0117 -0.1827  1.4249
  489MOL0     H65970   9.097   3.152   2.467 -5.4150 -2.6115 -1.8179
  489MOL0     H65971   9.327   3.081   2.289  1.6112  2.6255 -0.7614
  489MOL0     H65972   9.286   3.068   2.457 -1.9077  1.5388  1.1233
  489MOL0     H65973   9.341   3.351   2.349  1.3818 -0.3921  0.3755
  489MOL0     H65974   9.472   3.247   2.385 -0.3114  0.4898 -1.3793
  489MOL0     H65975   9.362   3.261   2.806 -0.4405 -1.7031 -2.8131
  489MOL0     H65976   9.483   3.431   2.942 -1.5388  1.2070  0.1861
  489MOL0     H65977   9.701   3.914   2.881  0.4481  2.2552  0.2291
  489MOL0     H65978   9.813   4.086   3.026 -1.9329  1.4744  1.1013
  489MOL0     H65979   9.881   3.982   3.447  0.0183 -1.8014 -3.4330
  489MOL0     H65980  10.007   4.089   3.436  0.4377 -0.9089  0.8284
  489MOL0     H65981   9.714   4.131   3.433 -0.1064 -1.1351  1.8477
  489MOL0     H65982   9.801   4.173   3.569 -4.3088 -0.2214  0.3990
  489MOL0     H65983   9.908   4.378   3.453  2.5042 -0.8979  0.0224
  489MOL0     H65984   9.843   4.320   3.300  1.9862 -4.5519  0.6083
  489MOL0     H65985   9.694   4.460   3.529 -0.1669 -1.3193  1.3093
  489MOL0     H65986   9.607   4.343   3.435  1.7472 -0.7015  0.5220
  489MOL0     H65987   9.588   4.563   3.359  2.8168  2.3573  2.0134
  489MOL0     H65988   9.619   4.448   3.233 -0.8955  1.6924 -0.4860
  489MOL0     H65989   9.858   4.551   3.220  0.4465 -0.4181  0.9061
  489MOL0     H65990   9.713   4.660   3.201 -1.8374 -2.2644 -0.5860
  489MOL0     H65991   9.863   4.619   3.476  0.4276  0.8013  0.1646
  489MOL0     H65992   9.768   4.751   3.438  0.6664  0.7504  0.9427
  489MOL0     H65993   9.934   4.820   3.253  1.3925  3.3395  0.9562
  489MOL0     H65994   9.991   4.844   3.420  1.9931 -2.6247  1.1705
  489MOL0     H65995   9.878   3.795   3.323  3.8772  0.3798 -3.6403
  489MOL0     H65996   9.708   3.640   3.214 -1.4998 -0.4145 -2.0860
  489MOL0     H65997   9.519   3.687   2.599  4.0094  0.3737  1.1118
  489MOL0     H65998   9.430   3.507   2.460 -1.6347 -1.2174  0.0069
  489MOL0     H65999   9.229   1.919   3.136  0.0254  0.9724  0.7804
  489MOL0     H66000   9.446   1.886   3.241  0.4252 -0.2590 -0.4904
  489MOL0     H66001   9.835   2.203   3.488 -4.7528 -4.8798  0.2691
  489MOL0     H66002  10.054   2.181   3.569 -0.8919 -1.4582  1.5333
  489MOL0     H66003  10.405   1.920   3.501 -0.7883  0.8073 -3.6163
  489MOL0     H66004  10.259   1.844   3.459 -1.1949  0.4019  0.2143
  489MOL0     H66005  10.278   2.008   3.721 -2.1146  0.9816 -1.9068
  489MOL0     H66006  10.356   1.850   3.703 -0.2221  2.8956  2.8070
  489MOL0     H66007  10.154   1.731   3.712 -3.3341 -0.4987 -0.6752
  489MOL0     H66008  10.071   1.881   3.647 -2.0781  3.3833  4.3371
  489MOL0     H66009  10.070   1.989   3.864 -0.6362  0.3155 -0.9291
  489MOL0     H66010   9.986   1.835   3.855 -0.2788  1.2197 -2.6683
  489MOL0     H66011  10.295   1.732   4.119 -0.6565  1.5900  1.1253
  489MOL0     H66012  10.163   1.912   3.267  0.7990 -0.4420  2.3634
  489MOL0     H66013   9.998   1.829   3.103 -1.2253 -1.0973  0.5794
  489MOL0     H66014   9.841   1.844   3.150  0.7438 -0.6276  0.1963
  489MOL0     H66015   9.914   1.976   3.052 -2.0157 -0.1538 -0.2989
  490MOL0     O66016   2.398   0.519  10.478  0.1174  0.4841  0.5190
  490MOL0     C66017   2.498   0.490  10.411  0.4712  0.6990 -0.1112
  490MOL0     O66018   2.510   0.497  10.279  0.3205  0.4372 -0.6396
  490MOL0     C66019   2.413   0.565  10.204 -0.0159  0.3454 -0.4011
  490MOL0     C66020   2.338   0.480  10.118 -0.6819 -0.3719 -0.9163
  490MOL0     C66021   2.225   0.532  10.058 -0.8999 -0.0643  1.2585
  490MOL0     C66022   2.189   0.666  10.070 -0.7246  0.2437 -0.7233
  490MOL0     O66023   2.089   0.708   9.986  0.2079  1.9249 -0.2037
  490MOL0     C66024   2.108   0.821   9.902  0.3412  0.6824 -0.0928
  490MOL0     C66025   1.978   0.876   9.862  0.4093  0.1933  0.4040
  490MOL0     C66026   1.895   0.921   9.983 -0.5890 -0.0607 -0.4925
  490MOL0     C66027   1.812   1.049   9.967  0.3434  0.1390  0.0972
  490MOL0     C66028   1.759   1.099  10.099  0.4983  0.3907  0.2400
  490MOL0     C66029   1.647   1.015  10.162  0.9182 -0.0066  0.0002
  490MOL0     C66030   1.515   1.091  10.117  0.3058  0.1628 -0.5844
  490MOL0     C66031   1.487   1.231  10.202 -0.3444  0.2473 -0.2571
  490MOL0     N66032   1.434   1.195  10.343 -0.4672 -0.2714 -0.0921
  490MOL0     C66033   1.500   1.226  10.462 -0.4425  0.1069  0.0955
  490MOL0     C66034   1.413   1.187  10.559  0.2783  0.3292  0.5149
  490MOL0     C66035   1.425   1.216  10.703  0.2294 -0.2476  0.2116
  490MOL0     C66036   1.454   1.083  10.773  0.7630 -1.1020  0.6261
  490MOL0     C66037   1.467   1.106  10.926 -0.5586 -0.0018  0.3801
  490MOL0     C66038   1.577   1.212  10.952  0.1331  0.2988  0.4880
  490MOL0     O66039   1.528   1.344  10.954 -0.3047  0.1235  0.0079
  490MOL0     C66040   1.612   1.449  10.923 -0.4222  1.4797  0.7135
  490MOL0     C66041   1.559   1.577  10.904 -0.4210  2.4556 -0.3275
  490MOL0     C66042   1.641   1.679  10.869 -0.1297  0.4425  0.1827
  490MOL0     C66043   1.784   1.665  10.840 -0.3024 -1.2525 -0.4012
  490MOL0     C66044   1.868   1.777  10.790  0.4688 -0.8042  1.1696
  490MOL0     O66045   1.817   1.909  10.786  0.1377 -0.3879 -0.5820
  490MOL0     C66046   1.916   2.001  10.771  0.1105  0.4452 -1.0320
  490MOL0     C66047   1.930   2.061  10.646  1.2267  0.5021 -0.3240
  490MOL0     C66048   2.012   2.174  10.625  0.3958  0.5749 -0.0719
  490MOL0     C66049   2.083   2.229  10.736  0.1893  0.1749  0.4099
  490MOL0     O66050   2.166   2.339  10.728 -0.3533 -0.3096 -0.6574
  490MOL0     C66051   2.156   2.422  10.616 -0.4765 -0.3864  0.4984
  490MOL0     C66052   2.243   2.544  10.626 -0.2809 -0.3179  0.4364
  490MOL0     C66053   2.340   2.554  10.739  0.0687 -0.4285 -0.5477
  490MOL0     C66054   2.372   2.702  10.745  0.4352 -0.3382 -0.4918
  490MOL0     C66055   2.401   2.734  10.888 -0.7917  0.1402 -0.0858
  490MOL0     C66056   2.552   2.696  10.917 -0.0139 -0.3794 -0.2207
  490MOL0     C66057   2.578   2.689  11.070 -0.9423  0.3617  0.3385
  490MOL0     C66058   2.710   2.633  11.116  0.1621  0.8214  0.2341
  490MOL0    Cl66059   2.733   2.468  11.082 -0.0359  0.0050  0.0923
  490MOL0     C66060   2.079   2.168  10.860  0.1633 -0.6676 -0.0265
  490MOL0     C66061   1.984   2.060  10.877 -0.1032 -0.2028 -0.6153
  490MOL0     O66062   1.982   1.746  10.756 -0.7609  0.1324  0.2542
  490MOL0     C66063   1.833   1.546  10.887  0.0055  0.3766  0.4009
  490MOL0     C66064   1.748   1.438  10.920  0.7562  0.2333 -0.0135
  490MOL0     N66065   1.296   1.138  10.507  0.0140  0.2899  0.1850
  490MOL0     N66066   1.320   1.128  10.374  0.4387 -0.6632 -0.3225
  490MOL0     C66067   2.259   0.745  10.157 -0.6487  0.0748  0.4162
  490MOL0     C66068   2.381   0.700  10.219  1.1698  0.1347  0.2955
  490MOL0     C66069   2.611   0.433  10.486  0.7476  0.3149  0.4067
  490MOL0     C66070   2.713   0.389  10.410 -0.8084  0.9127 -0.3446
  490MOL0     C66071   2.814   0.300  10.456 -0.5407  0.1179 -0.3182
  490MOL0     C66072   2.814   0.259  10.588 -0.7046  0.1938  1.0417
  490MOL0     O66073   2.914   0.181  10.653 -0.1395  0.9477  0.2355
  490MOL0     C66074   3.018   0.132  10.567 -0.2498  0.2041 -0.5420
  490MOL0     C66075   3.092   0.030  10.646  0.1769 -0.4520 -0.5691
  490MOL0     C66076   3.230   0.009  10.592  0.0813 -0.3955  0.4357
  490MOL0     C66077   3.322  -0.083  10.675  0.3679 -0.4755 -0.1046
  490MOL0     C66078   3.325  -0.213  10.611  0.0925 -0.4740  0.5848
  490MOL0     C66079   3.341  -0.313  10.549  0.7843 -0.6407 -0.2247
  490MOL0     C66080   2.711   0.303  10.670  0.2046  0.7935  0.5364
  490MOL0     C66081   2.615   0.400  10.628  0.0751 -0.2906  0.2749
  490MOL0     C66082   2.515   0.450  10.732 -0.5610  0.0336 -0.0041
  490MOL0     H66083   2.363   0.375  10.121 -0.8714 -0.4002  0.6010
  490MOL0     H66084   2.166   0.474   9.987 -3.6831 -0.7334  3.9011
  490MOL0     H66085   2.163   0.895   9.961 -0.5015 -0.0104  1.6521
  490MOL0     H66086   2.170   0.795   9.817  1.0751  0.2734  0.5566
  490MOL0     H66087   1.929   0.800   9.801 -0.6874  1.4887 -0.3903
  490MOL0     H66088   2.007   0.960   9.797  0.4837 -1.0586 -1.2648
  490MOL0     H66089   1.970   0.944  10.059  1.1866 -0.4079 -2.0675
  490MOL0     H66090   1.834   0.836  10.017  0.5132 -0.6751  0.0275
  490MOL0     H66091   1.871   1.132   9.927 -0.4492  1.8308  2.1867
  490MOL0     H66092   1.732   1.033   9.895  3.0099 -0.8072 -2.8628
  490MOL0     H66093   1.842   1.091  10.170  1.5471 -0.8286 -1.0517
  490MOL0     H66094   1.731   1.204  10.096  1.9519  0.8109  0.6144
  490MOL0     H66095   1.671   0.911  10.137  0.9244  0.0641 -0.2907
  490MOL0     H66096   1.653   1.028  10.270  2.4623  1.8442 -0.2536
  490MOL0     H66097   1.427   1.027  10.132  1.5414 -1.3517  0.5885
  490MOL0     H66098   1.523   1.105  10.009 -2.9478 -0.3340 -0.9913
  490MOL0     H66099   1.578   1.290  10.215  0.6898 -0.7967 -2.3268
  490MOL0     H66100   1.415   1.294  10.149  1.5910  2.1775 -0.6997
  490MOL0     H66101   1.585   1.291  10.476  0.4326 -0.7661 -1.0378
  490MOL0     H66102   1.502   1.294  10.708 -0.3254  0.5148 -1.9461
  490MOL0     H66103   1.331   1.259  10.740  0.6913  0.1170  0.9871
  490MOL0     H66104   1.372   1.012  10.755  0.0685 -0.2977  0.5484
  490MOL0     H66105   1.546   1.033  10.741  0.3773 -0.7963 -1.0432
  490MOL0     H66106   1.510   1.015  10.969 -1.7722 -1.2584 -0.9397
  490MOL0     H66107   1.369   1.135  10.967  0.2857 -0.0401  2.5476
  490MOL0     H66108   1.658   1.202  10.880  0.7701  0.1571  1.2070
  490MOL0     H66109   1.621   1.191  11.050 -0.2386 -0.3725  0.5185
  490MOL0     H66110   1.451   1.590  10.907 -0.8078 -0.2032 -0.1581
  490MOL0     H66111   1.582   1.765  10.839 -0.8215 -0.8198 -2.3166
  490MOL0     H66112   1.865   2.018  10.571  3.1020 -1.7575 -0.7604
  490MOL0     H66113   2.012   2.209  10.522 -1.6136 -0.2442 -0.4019
  490MOL0     H66114   2.177   2.366  10.524 -0.5027 -0.1101  0.3247
  490MOL0     H66115   2.054   2.459  10.627  0.3203  1.4094  2.6848
  490MOL0     H66116   2.292   2.563  10.530 -0.4270 -0.4829  0.3278
  490MOL0     H66117   2.176   2.631  10.636  2.4350  1.9428  0.2794
  490MOL0     H66118   2.285   2.527  10.829 -0.8568  0.3334 -0.8757
  490MOL0     H66119   2.431   2.492  10.741 -1.8781 -3.5180 -1.2589
  490MOL0     H66120   2.279   2.759  10.732  0.5232  0.5434  2.1539
  490MOL0     H66121   2.453   2.743  10.684 -0.1479  0.7965 -0.5373
  490MOL0     H66122   2.331   2.693  10.962  0.0961 -0.4195  0.4594
  490MOL0     H66123   2.386   2.840  10.908  0.5740 -0.1725  3.2728
  490MOL0     H66124   2.570   2.595  10.879 -2.5289 -0.0903 -2.4715
  490MOL0     H66125   2.630   2.754  10.867 -0.3891  0.5990  0.2963
  490MOL0     H66126   2.491   2.634  11.107 -0.9937  0.0923 -0.1785
  490MOL0     H66127   2.570   2.790  11.112 -0.3570  0.7369 -0.4411
  490MOL0     H66128   2.794   2.695  11.083  2.5092 -1.9289  0.6254
  490MOL0     H66129   2.704   2.631  11.225  0.5924 -2.5082  0.2924
  490MOL0     H66130   2.145   2.208  10.936  2.0706  3.7482 -3.5635
  490MOL0     H66131   1.976   1.994  10.962  5.7124  2.9890  3.1703
  490MOL0     H66132   1.941   1.534  10.890  0.2159  2.1619  1.5694
  490MOL0     H66133   1.804   1.345  10.926  1.8862  0.7143 -1.9550
  490MOL0     H66134   2.228   0.849  10.168 -1.0397  0.0755 -0.6171
  490MOL0     H66135   2.446   0.768  10.274  0.8672  0.0893  0.7077
  490MOL0     H66136   2.732   0.407  10.304 -1.0615  0.2222 -0.5116
  490MOL0     H66137   2.886   0.277  10.378  0.6237  1.6931  0.2484
  490MOL0     H66138   3.080   0.216  10.534 -0.1845 -0.5386 -2.4389
  490MOL0     H66139   2.984   0.090  10.472  2.4965  0.4259 -1.7434
  490MOL0     H66140   3.021  -0.048  10.677 -1.3151  1.6228  1.6342
  490MOL0     H66141   3.124   0.087  10.734  1.6575  0.9994 -1.9806
  490MOL0     H66142   3.286   0.103  10.594 -0.2731 -0.1509  3.5239
  490MOL0     H66143   3.229  -0.029  10.489 -0.2531  2.9313 -0.9140
  490MOL0     H66144   3.420  -0.037  10.688 -0.6493  1.0862  3.2256
  490MOL0     H66145   3.274  -0.102  10.772 -2.0801  1.4271 -0.8283
  490MOL0     H66146   3.354  -0.406  10.497  1.9706  0.9242 -2.9223
  490MOL0     H66147   2.715   0.267  10.772 -0.9893  1.7218  0.9364
  490MOL0     H66148   2.549   0.437  10.835 -0.1485  1.2406  0.0234
  490MOL0     H66149   2.482   0.554  10.724 -4.5583 -0.7955  2.7029
  490MOL0     H66150   2.422   0.398  10.706 -0.6029  0.7061 -1.2881
  491MOL0     O66151   7.918   9.447   0.781 -0.1919 -0.2763  0.0955
  491MOL0     C66152   7.810   9.394   0.755  0.6494  0.2396  0.1986
  491MOL0     O66153   7.691   9.463   0.757 -1.1009  0.8349  1.0237
  491MOL0     C66154   7.694   9.600   0.766 -0.3100 -0.6802 -0.9600
  491MOL0     C66155   7.705   9.676   0.648 -0.7890  0.1109 -0.8882
  491MOL0     C66156   7.712   9.816   0.667 -0.0778  0.1240 -0.5352
  491MOL0     C66157   7.695   9.871   0.803 -0.0913  0.4550  0.1975
  491MOL0     O66158   7.691  10.009   0.811  0.2115 -0.2793 -0.2338
  491MOL0     C66159   7.787  10.066   0.900  0.2479  0.4099 -0.1075
  491MOL0     C66160   7.815  10.207   0.850  0.0862 -1.3760 -0.3837
  491MOL0     C66161   7.821  10.313   0.966 -0.8180  1.0070 -0.6457
  491MOL0     C66162   7.932  10.292   1.067  0.7516 -0.3551 -0.8575
  491MOL0     C66163   7.992  10.413   1.121  0.7525 -0.5022 -0.1639
  491MOL0     C66164   8.096  10.378   1.228 -0.2599 -1.5885 -0.7686
  491MOL0     C66165   8.151  10.500   1.290  0.2667 -0.2011  0.6391
  491MOL0     C66166   8.244  10.464   1.411  0.0785 -0.5130 -0.7635
  491MOL0     N66167   8.356  10.373   1.380 -0.1112  0.3594 -0.4055
  491MOL0     C66168   8.377  10.244   1.428  1.3968  0.4341 -0.5263
  491MOL0     C66169   8.493  10.208   1.366  0.1929 -0.0485 -0.8075
  491MOL0     C66170   8.554  10.078   1.367 -0.1469  0.1293  0.5939
  491MOL0     C66171   8.489  10.008   1.248  0.4825 -0.0896 -0.1929
  491MOL0     C66172   8.529   9.856   1.281  0.3360 -0.2015  0.3522
  491MOL0     C66173   8.479   9.758   1.167  0.3799 -0.3488 -0.3158
  491MOL0     O66174   8.494   9.621   1.194  0.5018  0.7076 -0.4692
  491MOL0     C66175   8.430   9.522   1.121 -0.4124  0.3124  1.1197
  491MOL0     C66176   8.349   9.539   1.003  0.3073 -0.0138  0.2115
  491MOL0     C66177   8.293   9.424   0.946  0.4683  1.6284  0.2692
  491MOL0     C66178   8.314   9.297   1.007  0.0819 -1.1302 -0.2319
  491MOL0     C66179   8.246   9.187   0.952 -0.4095  0.1955 -0.4911
  491MOL0     O66180   8.195   9.089   1.053  0.0990 -0.1175  0.0574
  491MOL0     C66181   8.144   8.960   1.029 -0.1978 -0.0300  0.0215
  491MOL0     C66182   8.122   8.884   1.143  0.5064  0.2572  0.0019
  491MOL0     C66183   8.065   8.754   1.126  0.5948  0.0084 -0.0553
  491MOL0     C66184   8.066   8.690   0.998  0.4010  0.8471 -0.0888
  491MOL0     O66185   8.025   8.560   0.987 -0.4008  0.1931  0.1178
  491MOL0     C66186   8.063   8.460   1.092  0.9205  0.3226  0.0393
  491MOL0     C66187   7.929   8.386   1.128 -0.1940 -0.4394 -0.4860
  491MOL0     C66188   7.863   8.434   1.266 -0.0880 -1.1716 -0.3510
  491MOL0     C66189   7.726   8.365   1.287  0.4783  0.2435  0.0024
  491MOL0     C66190   7.643   8.418   1.404  1.5055  0.4228 -1.5503
  491MOL0     C66191   7.508   8.331   1.423  0.5063  0.4271  0.3322
  491MOL0     C66192   7.403   8.361   1.313  0.3008 -0.1601  0.3744
  491MOL0     C66193   7.293   8.250   1.300 -0.0712 -0.4813 -0.1728
  491MOL0    Cl66194   7.141   8.357   1.281  0.0881 -0.1290 -0.1248
  491MOL0     C66195   8.110   8.766   0.888  0.4230 -0.4600  0.9798
  491MOL0     C66196   8.148   8.896   0.900 -0.9455  1.1538  1.0045
  491MOL0     O66197   8.223   9.188   0.830 -1.1488  0.1750 -0.5409
  491MOL0     C66198   8.380   9.286   1.123 -0.3050  0.0460  0.3044
  491MOL0     C66199   8.439   9.399   1.179 -0.5226 -0.4691 -0.0914
  491MOL0     N66200   8.534  10.305   1.283 -0.0266  0.7514 -0.0960
  491MOL0     N66201   8.453  10.401   1.299 -0.1539 -0.5047 -0.2954
  491MOL0     C66202   7.688   9.786   0.918 -0.0736 -0.6038  0.7529
  491MOL0     C66203   7.687   9.649   0.895  0.9521  0.1747 -0.9770
  491MOL0     C66204   7.792   9.244   0.732  0.2236  0.7424 -0.6143
  491MOL0     C66205   7.684   9.170   0.768  0.9325 -0.3085 -0.7159
  491MOL0     C66206   7.655   9.032   0.734  0.4581 -0.2586 -0.1424
  491MOL0     C66207   7.755   8.956   0.675  0.1618 -0.3787 -0.0650
  491MOL0     O66208   7.738   8.831   0.616 -0.2420 -0.1427  0.6266
  491MOL0     C66209   7.605   8.783   0.606  0.5046 -0.7766  0.7088
  491MOL0     C66210   7.578   8.646   0.540 -0.7586  0.0785  0.4391
  491MOL0     C66211   7.648   8.533   0.618  0.7925 -0.0056 -0.0570
  491MOL0     C66212   7.743   8.450   0.530  0.0106  0.5213  1.1391
  491MOL0     C66213   7.680   8.394   0.409 -0.2189 -0.6175 -0.1814
  491MOL0     C66214   7.619   8.362   0.303  0.8181  0.4632 -0.1164
  491MOL0     C66215   7.877   9.025   0.658  0.6828  0.0926  0.5328
  491MOL0     C66216   7.890   9.159   0.671  0.3450 -0.7612  0.7330
  491MOL0     C66217   8.005   9.230   0.596 -0.4175 -0.2362  0.3279
  491MOL0     H66218   7.719   9.644   0.546  0.6163 -0.1788 -0.6207
  491MOL0     H66219   7.733   9.893   0.593 -0.5986  0.1798 -0.6337
  491MOL0     H66220   7.746  10.064   1.001 -0.5193 -1.3430 -0.4206
  491MOL0     H66221   7.878  10.006   0.906 -0.7872 -1.2265 -0.3065
  491MOL0     H66222   7.727  10.239   0.794 -0.9468 -0.6193  1.5679
  491MOL0     H66223   7.909  10.210   0.793  0.6593  3.7432  0.3448
  491MOL0     H66224   7.720  10.309   1.007  0.6846  0.6740  3.4931
  491MOL0     H66225   7.831  10.411   0.919 -1.4910  1.7756  0.7392
  491MOL0     H66226   7.889  10.228   1.144  2.9372  0.4075  1.1295
  491MOL0     H66227   7.997  10.225   1.009 -2.7817 -3.7322 -1.3426
  491MOL0     H66228   8.051  10.461   1.043  1.6281  1.4853  1.6393
  491MOL0     H66229   7.915  10.478   1.161 -0.9613 -2.7019  0.3232
  491MOL0     H66230   8.055  10.312   1.305 -0.7171  0.2256  0.6139
  491MOL0     H66231   8.179  10.327   1.179  1.2355 -0.2267  0.2178
  491MOL0     H66232   8.064  10.563   1.311 -0.8285 -0.3070 -2.8684
  491MOL0     H66233   8.211  10.548   1.212  0.5555 -1.1309  0.2696
  491MOL0     H66234   8.278  10.563   1.444 -2.5279  1.3166 -3.1093
  491MOL0     H66235   8.193  10.439   1.505 -2.2428  3.9304 -0.6049
  491MOL0     H66236   8.316  10.184   1.494  2.0348 -4.8455 -4.1231
  491MOL0     H66237   8.660  10.095   1.346 -1.0318  1.5931 -3.6452
  491MOL0     H66238   8.539  10.017   1.456  0.8873 -0.1552  0.5902
  491MOL0     H66239   8.380  10.021   1.240 -0.0204 -1.0141  3.3680
  491MOL0     H66240   8.546  10.028   1.157  1.4844 -2.0880 -0.0671
  491MOL0     H66241   8.493   9.805   1.371 -2.3004  1.0939  0.1309
  491MOL0     H66242   8.637   9.863   1.301  0.7071  0.4261 -1.6387
  491MOL0     H66243   8.523   9.778   1.069  1.5600 -3.5441 -0.5600
  491MOL0     H66244   8.371   9.774   1.159  0.1857 -1.1684  0.5774
  491MOL0     H66245   8.314   9.635   0.964  0.1390 -0.1682 -0.0229
  491MOL0     H66246   8.233   9.424   0.856  0.4737  1.5816  0.2654
  491MOL0     H66247   8.140   8.930   1.239 -0.6265  1.8808 -0.5260
  491MOL0     H66248   8.019   8.705   1.211 -1.7723  2.2794  0.0951
  491MOL0     H66249   8.130   8.386   1.047 -0.7044 -2.3442  1.7574
  491MOL0     H66250   8.102   8.504   1.184 -2.2523 -3.5084  3.6230
  491MOL0     H66251   7.861   8.391   1.042 -1.8170  1.7945  0.8132
  491MOL0     H66252   7.956   8.280   1.134  3.7530  0.4292 -0.0297
  491MOL0     H66253   7.932   8.415   1.349 -2.2870 -2.0604  1.3602
  491MOL0     H66254   7.854   8.543   1.269  0.2024 -1.0138  5.2517
  491MOL0     H66255   7.746   8.259   1.300  1.5916  0.7151  3.0213
  491MOL0     H66256   7.665   8.370   1.196  1.2411  1.3975 -0.4840
  491MOL0     H66257   7.619   8.521   1.379  2.2817  1.0498  0.1205
  491MOL0     H66258   7.686   8.413   1.505 -0.6832  0.5211 -0.5525
  491MOL0     H66259   7.540   8.227   1.424  2.0790  0.8866  0.6707
  491MOL0     H66260   7.472   8.354   1.524  1.9414 -1.6184  1.3768
  491MOL0     H66261   7.449   8.378   1.216 -2.1942  0.1130 -0.8418
  491MOL0     H66262   7.353   8.454   1.345 -0.6612  1.0687 -4.0498
  491MOL0     H66263   7.306   8.191   1.209 -2.9121  2.3227 -2.6081
  491MOL0     H66264   7.292   8.187   1.389  1.4115 -1.4977 -0.8341
  491MOL0     H66265   8.115   8.711   0.794  0.7839  0.0346  0.7065
  491MOL0     H66266   8.170   8.963   0.818  3.6562  1.6767  2.4011
  491MOL0     H66267   8.396   9.189   1.168  3.3001  0.7902  0.9847
  491MOL0     H66268   8.506   9.394   1.264  0.6917 -1.1653 -1.0680
  491MOL0     H66269   7.660   9.825   1.015 -2.1524 -1.4414  0.5340
  491MOL0     H66270   7.665   9.578   0.975 -1.6348 -0.0944 -1.8270
  491MOL0     H66271   7.605   9.230   0.812  1.8452  1.2572 -1.1311
  491MOL0     H66272   7.570   8.979   0.776 -1.4220  0.5787 -2.6762
  491MOL0     H66273   7.560   8.862   0.545  0.4022 -1.1329  0.3150
  491MOL0     H66274   7.565   8.784   0.707 -0.7739 -0.4019  0.2211
  491MOL0     H66275   7.617   8.646   0.438  1.6656  3.1771  1.1828
  491MOL0     H66276   7.475   8.609   0.534 -0.3328 -0.9417 -0.7399
  491MOL0     H66277   7.578   8.461   0.660  2.8498 -1.3851  1.1448
  491MOL0     H66278   7.707   8.575   0.700  0.6189  0.3787 -0.1254
  491MOL0     H66279   7.838   8.493   0.500 -0.7839  2.0656  0.7320
  491MOL0     H66280   7.772   8.364   0.592  1.0050  0.9648  1.3091
  491MOL0     H66281   7.575   8.341   0.207 -0.9159 -2.2501  1.1519
  491MOL0     H66282   7.953   8.962   0.612 -1.9224 -1.0133 -2.6830
  491MOL0     H66283   8.072   9.163   0.541  0.4407  1.2170 -0.4611
  491MOL0     H66284   7.951   9.291   0.523  1.3111 -0.3234 -1.1096
  491MOL0     H66285   8.062   9.296   0.663  0.3547 -1.2934  0.7402
  492MOL0     O66286   3.835  10.518   3.195  0.4529 -0.2524  0.0608
  492MOL0     C66287   3.782  10.459   3.287  0.4924 -0.3237  0.7426
  492MOL0     O66288   3.831  10.336   3.334  0.3352 -0.5245 -0.0476
  492MOL0     C66289   3.917  10.256   3.259  0.2191 -0.7654 -0.1075
  492MOL0     C66290   3.915  10.257   3.123 -0.4100  0.6557  0.3402
  492MOL0     C66291   4.014  10.185   3.054  0.5958  0.8101  0.1021
  492MOL0     C66292   4.107  10.105   3.117 -0.3781  0.1805 -0.2480
  492MOL0     O66293   4.209  10.034   3.061 -0.0719  0.3511 -0.4434
  492MOL0     C66294   4.184   9.990   2.928  0.8060  0.2195  0.3655
  492MOL0     C66295   4.059   9.901   2.914 -0.6687  0.6431  0.5225
  492MOL0     C66296   4.039   9.872   2.764 -0.1290 -1.1472 -0.6420
  492MOL0     C66297   4.094   9.738   2.701 -0.1255 -0.9727 -0.0796
  492MOL0     C66298   4.077   9.742   2.550  0.0516 -0.2162 -0.7189
  492MOL0     C66299   4.176   9.825   2.466 -0.4351 -0.6622 -0.2306
  492MOL0     C66300   4.133   9.804   2.318  0.0283  1.5106 -0.0762
  492MOL0     C66301   4.246   9.885   2.236 -0.2229  0.6170 -0.5376
  492MOL0     N66302   4.270   9.848   2.101 -0.0857 -0.6767  1.1573
  492MOL0     C66303   4.323   9.728   2.063 -0.4213 -0.3375  0.3838
  492MOL0     C66304   4.350   9.734   1.934 -1.3513  0.3609  0.3725
  492MOL0     C66305   4.425   9.627   1.853  0.3319  0.2738 -0.0224
  492MOL0     C66306   4.564   9.605   1.913  0.1094 -0.7818 -0.4126
  492MOL0     C66307   4.661   9.717   1.855 -0.4978 -0.3158 -1.2287
  492MOL0     C66308   4.734   9.679   1.717  0.5918  1.1172  0.9796
  492MOL0     O66309   4.795   9.550   1.740 -0.2774  0.1817 -0.1085
  492MOL0     C66310   4.841   9.479   1.634 -0.4040  0.0254  0.0009
  492MOL0     C66311   4.835   9.509   1.499  1.0687  0.2831  0.4852
  492MOL0     C66312   4.895   9.418   1.408  0.0401 -0.3794  0.7547
  492MOL0     C66313   4.951   9.294   1.454  0.2099 -0.1584 -0.0892
  492MOL0     C66314   4.988   9.189   1.350 -0.4079 -0.7632 -0.1907
  492MOL0     O66315   4.962   9.215   1.218  0.0913 -0.6065 -0.4706
  492MOL0     C66316   4.979   9.119   1.126 -1.3431  0.4865  0.7527
  492MOL0     C66317   4.894   9.006   1.123  0.6169  0.1275 -1.1822
  492MOL0     C66318   4.900   8.912   1.019 -0.6856 -0.0472  0.1077
  492MOL0     C66319   5.006   8.935   0.925  0.1358  0.8218  0.0205
  492MOL0     O66320   5.025   8.834   0.830  0.0135 -0.1228  0.0163
  492MOL0     C66321   5.149   8.778   0.829 -0.7957  0.4516 -0.4874
  492MOL0     C66322   5.156   8.636   0.777  0.2278 -0.1489 -0.1419
  492MOL0     C66323   5.124   8.618   0.625  0.5397  0.2941  0.0836
  492MOL0     C66324   5.211   8.712   0.537  0.0855  0.3773 -0.6358
  492MOL0     C66325   5.171   8.684   0.386 -1.0597 -0.5069 -0.7714
  492MOL0     C66326   5.276   8.593   0.324  0.6819 -0.9484 -0.3755
  492MOL0     C66327   5.247   8.529   0.178  0.0445 -0.5024  0.2698
  492MOL0     C66328   5.344   8.410   0.148 -0.8782 -0.7039  1.0407
  492MOL0    Cl66329   5.299   8.345  -0.015 -0.6286 -0.2728 -0.3123
  492MOL0     C66330   5.071   9.053   0.914 -0.0494 -0.6331  0.2651
  492MOL0     C66331   5.069   9.141   1.022 -0.6336 -0.7816  0.2294
  492MOL0     O66332   5.042   9.088   1.387  0.1867 -0.0081  0.2153
  492MOL0     C66333   4.955   9.263   1.592 -0.4465 -0.9636  0.0333
  492MOL0     C66334   4.895   9.358   1.676 -0.1919  0.4716  0.2032
  492MOL0     N66335   4.311   9.851   1.884  0.2058 -0.6095 -0.8948
  492MOL0     N66336   4.263   9.920   1.988  0.0440 -0.0118  0.2665
  492MOL0     C66337   4.108  10.115   3.253  0.2259 -0.7756 -0.7473
  492MOL0     C66338   4.016  10.189   3.334 -0.2932  0.2545  0.3048
  492MOL0     C66339   3.638  10.489   3.311  0.9629 -0.3337 -0.0376
  492MOL0     C66340   3.561  10.385   3.373  0.8556  0.7816  0.2754
  492MOL0     C66341   3.419  10.387   3.369  1.0293  0.2269  0.0673
  492MOL0     C66342   3.350  10.488   3.305  0.1575  0.0812  0.3742
  492MOL0     O66343   3.215  10.480   3.305  0.5507  0.9834  0.1046
  492MOL0     C66344   3.135  10.548   3.205  0.2349 -0.4307  0.1889
  492MOL0     C66345   3.005  10.561   3.279  0.4339 -1.0349 -0.0187
  492MOL0     C66346   2.897  10.601   3.181 -0.0856 -0.7472  0.0037
  492MOL0     C66347   2.774  10.654   3.257 -0.4574  0.9898 -0.1453
  492MOL0     C66348   2.651  10.603   3.194 -0.1135  0.2939 -0.2105
  492MOL0     C66349   2.549  10.559   3.137 -0.9305  0.1608  0.2442
  492MOL0     C66350   3.423  10.606   3.270  0.8199  0.0996 -0.0789
  492MOL0     C66351   3.564  10.607   3.274 -0.5046 -1.0356  0.3105
  492MOL0     C66352   3.634  10.738   3.246 -0.6347  0.4837  0.0349
  492MOL0     H66353   3.850  10.321   3.065 -0.7312  1.3894  1.4698
  492MOL0     H66354   4.019  10.203   2.947 -0.1301  2.1759  0.2843
  492MOL0     H66355   4.196  10.077   2.862  1.6344 -0.4921 -0.4357
  492MOL0     H66356   4.251   9.908   2.902 -2.9981 -2.2781 -2.7277
  492MOL0     H66357   3.973   9.962   2.943 -0.6145  1.2229 -0.4903
  492MOL0     H66358   4.054   9.800   2.954 -1.1317 -1.2838 -3.7997
  492MOL0     H66359   4.066   9.958   2.702  0.2392  0.7380  1.9676
  492MOL0     H66360   3.930   9.871   2.750 -0.1031  1.3610 -1.7298
  492MOL0     H66361   4.200   9.736   2.730 -0.0739 -0.3684 -0.2205
  492MOL0     H66362   4.046   9.651   2.748 -0.7133 -0.4525  0.2942
  492MOL0     H66363   4.085   9.637   2.519 -1.3835 -2.0199  4.1440
  492MOL0     H66364   3.977   9.783   2.530  0.1485  1.7560  2.2672
  492MOL0     H66365   4.163   9.928   2.499 -0.9032 -0.3116 -1.4499
  492MOL0     H66366   4.279   9.792   2.481 -0.7282 -3.5415 -3.2597
  492MOL0     H66367   4.029   9.833   2.306 -0.2280  0.3067 -0.8852
  492MOL0     H66368   4.140   9.699   2.289 -0.3978  2.2686 -3.2139
  492MOL0     H66369   4.225   9.989   2.261 -1.5366 -0.1941  2.1179
  492MOL0     H66370   4.338   9.864   2.292 -1.2351  0.2798  1.0600
  492MOL0     H66371   4.344   9.645   2.129 -2.9830 -0.5645  1.0068
  492MOL0     H66372   4.367   9.535   1.861 -0.4309  0.6436 -1.0892
  492MOL0     H66373   4.420   9.661   1.749  0.5675  0.8390  0.1458
  492MOL0     H66374   4.556   9.613   2.022 -3.0594 -1.7663 -0.4582
  492MOL0     H66375   4.608   9.506   1.901  1.5896  0.1362 -3.8110
  492MOL0     H66376   4.742   9.737   1.926 -0.4007  1.6252 -1.8312
  492MOL0     H66377   4.612   9.814   1.852  0.8214  0.3644 -1.5183
  492MOL0     H66378   4.814   9.744   1.679 -0.5923  2.1175  0.1267
  492MOL0     H66379   4.653   9.687   1.645 -0.7215 -0.4594  2.2139
  492MOL0     H66380   4.785   9.603   1.481 -2.3932 -1.6011 -0.6950
  492MOL0     H66381   4.889   9.439   1.302  0.7415 -0.4300  0.7000
  492MOL0     H66382   4.842   8.980   1.215  0.4683  1.1557 -0.9733
  492MOL0     H66383   4.851   8.816   1.007 -0.9958 -0.1869  2.1680
  492MOL0     H66384   5.198   8.851   0.764 -2.2064  2.0952  0.2449
  492MOL0     H66385   5.194   8.781   0.929 -1.4485  1.1715 -0.2115
  492MOL0     H66386   5.263   8.618   0.787  0.7723  3.1602  1.4897
  492MOL0     H66387   5.089   8.579   0.843 -0.6608  1.5177  0.4444
  492MOL0     H66388   5.146   8.514   0.600 -0.0793  0.2922 -0.4548
  492MOL0     H66389   5.018   8.635   0.605  0.5231 -1.0589 -1.1334
  492MOL0     H66390   5.318   8.698   0.555  0.4704  2.2235 -1.3318
  492MOL0     H66391   5.198   8.817   0.566  1.8938  1.5092 -3.5560
  492MOL0     H66392   5.170   8.782   0.337  3.7264 -0.3667 -1.0516
  492MOL0     H66393   5.075   8.632   0.385 -0.8396 -1.1023 -4.0173
  492MOL0     H66394   5.372   8.646   0.331 -0.1621  0.7071 -0.8357
  492MOL0     H66395   5.277   8.505   0.388 -2.1498 -0.5286  0.3546
  492MOL0     H66396   5.255   8.601   0.096 -1.2558 -0.0026  0.5543
  492MOL0     H66397   5.147   8.488   0.166  0.1620 -0.7428  0.1157
  492MOL0     H66398   5.441   8.459   0.139 -0.7847  0.1791  4.9163
  492MOL0     H66399   5.352   8.335   0.227  1.5937  0.2314  1.7613
  492MOL0     H66400   5.126   9.081   0.825 -0.5960 -1.6527 -0.4188
  492MOL0     H66401   5.124   9.234   1.029  0.9377 -1.7277  1.1121
  492MOL0     H66402   5.008   9.174   1.624 -1.0154 -0.8393  1.3665
  492MOL0     H66403   4.925   9.337   1.778  1.4329 -0.7538 -0.4920
  492MOL0     H66404   4.197  10.072   3.297 -0.2873 -3.3367 -1.9905
  492MOL0     H66405   4.025  10.196   3.442  1.2257  2.0311  0.1317
  492MOL0     H66406   3.610  10.294   3.405 -0.3319  0.1644  0.3868
  492MOL0     H66407   3.357  10.309   3.411  1.3730  0.4566  1.0183
  492MOL0     H66408   3.135  10.498   3.108  2.6873 -2.6999  1.2251
  492MOL0     H66409   3.179  10.648   3.194 -0.6119 -0.0382  0.3372
  492MOL0     H66410   3.018  10.635   3.358 -2.5476 -1.1781  0.7481
  492MOL0     H66411   2.974  10.467   3.324  0.9419 -1.9248 -1.4663
  492MOL0     H66412   2.869  10.519   3.114 -1.0510  0.8469 -1.6563
  492MOL0     H66413   2.929  10.683   3.116 -1.5863 -0.1137  0.0268
  492MOL0     H66414   2.776  10.602   3.354 -2.1014 -0.4845 -0.8446
  492MOL0     H66415   2.778  10.760   3.281  1.4807  0.7493  0.7461
  492MOL0     H66416   2.469  10.516   3.080 -0.3708 -0.0987 -0.3643
  492MOL0     H66417   3.365  10.690   3.235  0.1289 -1.8666 -4.2882
  492MOL0     H66418   3.630  10.757   3.139  0.6620  0.9572  0.0530
  492MOL0     H66419   3.599  10.822   3.307 -1.6917 -0.7552  1.1982
  492MOL0     H66420   3.742  10.736   3.267  0.1068  3.2682 -2.8086
  493MOL0     O66421   6.646   0.571   4.085 -0.1796  0.4737  0.2114
  493MOL0     C66422   6.580   0.656   4.145  0.5378  0.4070  0.7976
  493MOL0     O66423   6.618   0.789   4.170 -0.3878 -0.3030  0.3861
  493MOL0     C66424   6.737   0.827   4.108 -0.3053  1.0299 -0.1486
  493MOL0     C66425   6.855   0.813   4.176 -0.4429  0.6242  0.6549
  493MOL0     C66426   6.981   0.845   4.115  0.8470  1.0545 -0.2493
  493MOL0     C66427   6.987   0.876   3.981  0.5916 -0.2942  0.0364
  493MOL0     O66428   7.100   0.899   3.916  0.4111  0.5762  0.1464
  493MOL0     C66429   7.137   1.032   3.884  0.2522 -0.5049 -0.0782
  493MOL0     C66430   7.260   1.027   3.794  0.7592 -0.6837 -1.0552
  493MOL0     C66431   7.385   1.006   3.880  0.6908 -0.3025  0.0317
  493MOL0     C66432   7.429   0.869   3.883 -0.7789 -0.7244 -0.5189
  493MOL0     C66433   7.528   0.844   4.004 -0.1162 -0.0188 -0.1604
  493MOL0     C66434   7.655   0.925   4.023 -0.4107 -0.0226 -0.2917
  493MOL0     C66435   7.716   0.885   4.162 -0.2638 -0.0328  0.6717
  493MOL0     C66436   7.844   0.948   4.213  0.7493  0.2951 -0.3268
  493MOL0     N66437   7.956   0.889   4.145 -0.1173  0.8631 -0.0718
  493MOL0     C66438   8.030   0.777   4.176  0.5361 -0.2738 -0.6539
  493MOL0     C66439   8.119   0.765   4.075  0.8358 -0.6802 -0.2015
  493MOL0     C66440   8.226   0.667   4.069  0.3174  0.4962  0.6315
  493MOL0     C66441   8.334   0.699   4.171  0.4152 -0.4561  0.1042
  493MOL0     C66442   8.405   0.575   4.210  0.0283 -0.4898 -0.3543
  493MOL0     C66443   8.330   0.504   4.315  0.3209  0.1197  0.6309
  493MOL0     O66444   8.253   0.594   4.399  0.1521 -0.6593  0.1932
  493MOL0     C66445   8.195   0.539   4.504  0.3771 -0.4587  0.3774
  493MOL0     C66446   8.055   0.526   4.510 -0.6940 -0.4282 -0.0980
  493MOL0     C66447   7.999   0.472   4.623 -0.9620  0.8777 -0.7219
  493MOL0     C66448   8.074   0.433   4.734 -0.5432 -0.3226 -0.1050
  493MOL0     C66449   8.017   0.400   4.873  0.4535 -0.1621 -0.0893
  493MOL0     O66450   7.880   0.410   4.883 -0.7605 -0.4228  0.1340
  493MOL0     C66451   7.823   0.377   5.002  0.3915  0.7732  0.5762
  493MOL0     C66452   7.743   0.478   5.067  0.0553 -0.2587  0.2726
  493MOL0     C66453   7.673   0.442   5.190  0.7347 -0.7232  0.3566
  493MOL0     C66454   7.675   0.310   5.241 -0.2251 -1.3216 -0.2061
  493MOL0     O66455   7.622   0.259   5.356  0.0298 -0.4574 -0.3533
  493MOL0     C66456   7.506   0.334   5.398 -0.4519 -0.2723 -0.6180
  493MOL0     C66457   7.455   0.259   5.513  0.1137 -1.0356 -0.1027
  493MOL0     C66458   7.423   0.112   5.497 -0.1429 -1.0636  0.1424
  493MOL0     C66459   7.377   0.034   5.611  0.4035  0.7004 -0.5445
  493MOL0     C66460   7.344  -0.122   5.569  0.5414 -1.2815 -0.3077
  493MOL0     C66461   7.250  -0.192   5.665 -0.3602 -0.8406 -0.0123
  493MOL0     C66462   7.318  -0.228   5.803  0.3942  1.3299  0.4629
  493MOL0     C66463   7.434  -0.322   5.782 -0.2441 -0.6817 -0.9662
  493MOL0    Cl66464   7.450  -0.409   5.935 -0.7220 -0.2425 -0.1080
  493MOL0     C66465   7.737   0.216   5.163  0.1283  0.6206  0.0285
  493MOL0     C66466   7.812   0.245   5.048 -0.6448 -0.1082 -0.2562
  493MOL0     O66467   8.088   0.371   4.960 -0.4006  0.9831  0.3044
  493MOL0     C66468   8.210   0.426   4.721  0.5045 -0.0541 -0.0886
  493MOL0     C66469   8.273   0.498   4.612  0.0368 -0.1429 -0.0347
  493MOL0     N66470   8.097   0.863   3.978 -0.8100 -0.0094  0.4248
  493MOL0     N66471   7.996   0.937   4.015  0.0573  0.1147 -0.0515
  493MOL0     C66472   6.865   0.884   3.904 -0.0082  0.1818 -1.0148
  493MOL0     C66473   6.742   0.859   3.972  1.3569  0.2959 -0.8477
  493MOL0     C66474   6.437   0.625   4.186 -0.3938 -0.4216 -1.3080
  493MOL0     C66475   6.377   0.725   4.267  0.1414  0.9647  0.2321
  493MOL0     C66476   6.238   0.725   4.286  0.5995  0.9280 -0.1253
  493MOL0     C66477   6.156   0.609   4.258  0.6749 -1.0285 -0.1371
  493MOL0     O66478   6.020   0.592   4.302  0.7771  0.6490  0.0203
  493MOL0     C66479   5.965   0.694   4.379 -0.6598  0.2865 -0.6029
  493MOL0     C66480   5.826   0.671   4.410  0.0782  0.1845  0.6832
  493MOL0     C66481   5.801   0.571   4.519  0.1401  0.3459  0.6032
  493MOL0     C66482   5.646   0.555   4.544 -0.0497 -0.6546 -0.1119
  493MOL0     C66483   5.575   0.508   4.422 -0.3048  0.9542  0.3300
  493MOL0     C66484   5.528   0.449   4.333 -0.2242  0.0873 -0.0469
  493MOL0     C66485   6.222   0.505   4.189 -0.3380 -0.4898  0.0404
  493MOL0     C66486   6.357   0.514   4.145 -0.7045  0.0673  0.8204
  493MOL0     C66487   6.405   0.388   4.069 -0.3934  0.6593 -0.1556
  493MOL0     H66488   6.847   0.775   4.277  1.2967  2.7392  1.6601
  493MOL0     H66489   7.072   0.839   4.173  0.2261 -0.4758  0.6130
  493MOL0     H66490   7.060   1.066   3.814  1.3523 -0.6557 -1.3940
  493MOL0     H66491   7.138   1.095   3.973 -2.2375  1.0569 -1.0578
  493MOL0     H66492   7.268   1.107   3.719 -0.5938 -2.3771 -3.1404
  493MOL0     H66493   7.247   0.930   3.745 -1.5908 -1.3657  0.7562
  493MOL0     H66494   7.359   1.030   3.983 -1.7630 -0.6649 -0.4193
  493MOL0     H66495   7.466   1.071   3.846  0.7381  0.1155  0.9188
  493MOL0     H66496   7.354   0.789   3.889 -1.5414  0.0183  0.1278
  493MOL0     H66497   7.491   0.859   3.794  2.2386 -0.6213  1.4162
  493MOL0     H66498   7.478   0.859   4.100  1.5738 -0.5911  0.8691
  493MOL0     H66499   7.555   0.738   4.004 -0.6939 -0.1691  0.2044
  493MOL0     H66500   7.716   0.909   3.933  3.0974  0.4795  1.7984
  493MOL0     H66501   7.632   1.032   4.025  0.9036  0.3150  2.9122
  493MOL0     H66502   7.728   0.777   4.167 -0.1076  0.0335  4.9435
  493MOL0     H66503   7.633   0.904   4.231 -0.9548  0.0596 -0.1642
  493MOL0     H66504   7.838   1.053   4.186 -0.4676  0.0547 -1.0366
  493MOL0     H66505   7.841   0.936   4.322 -0.6325  1.4905 -0.2182
  493MOL0     H66506   8.016   0.719   4.267 -1.1349  1.8028  0.4773
  493MOL0     H66507   8.177   0.575   4.103 -0.4827  0.0557 -1.5331
  493MOL0     H66508   8.274   0.650   3.972 -0.3633  0.1635  0.3531
  493MOL0     H66509   8.398   0.772   4.121  0.9641  1.5434  3.4490
  493MOL0     H66510   8.302   0.759   4.256  1.4850 -0.5120  0.5589
  493MOL0     H66511   8.504   0.606   4.246 -0.2759 -0.9782  0.9888
  493MOL0     H66512   8.409   0.508   4.124 -1.6670 -0.7061 -0.2948
  493MOL0     H66513   8.393   0.446   4.383  1.2121 -2.2702 -2.0257
  493MOL0     H66514   8.275   0.424   4.265 -1.1613  0.6731  1.3168
  493MOL0     H66515   7.984   0.538   4.429 -1.8297  0.5358  1.0035
  493MOL0     H66516   7.890   0.478   4.624 -0.9471  1.3420  0.4899
  493MOL0     H66517   7.727   0.580   5.034  4.1907  1.0027  1.5867
  493MOL0     H66518   7.633   0.524   5.249 -0.4551 -0.5671 -0.6215
  493MOL0     H66519   7.546   0.424   5.446 -0.1570 -0.7762  0.1095
  493MOL0     H66520   7.429   0.356   5.323 -1.9918 -0.4562  0.8303
  493MOL0     H66521   7.524   0.286   5.594  0.7305  0.7075 -1.1574
  493MOL0     H66522   7.369   0.316   5.549  2.4833  3.6582 -1.0212
  493MOL0     H66523   7.343   0.101   5.422 -1.4371 -1.8598  1.5747
  493MOL0     H66524   7.509   0.063   5.450 -0.9256  0.1130 -2.7834
  493MOL0     H66525   7.289   0.087   5.648  0.0385  0.4063 -0.9802
  493MOL0     H66526   7.456   0.049   5.685  2.9638 -0.4414 -2.8233
  493MOL0     H66527   7.437  -0.176   5.548  0.4509 -1.9923  1.0256
  493MOL0     H66528   7.289  -0.129   5.475  1.6851 -1.3186 -1.0039
  493MOL0     H66529   7.171  -0.118   5.688  0.4751  0.6664 -1.7260
  493MOL0     H66530   7.217  -0.277   5.605  2.6437  0.4280 -3.8425
  493MOL0     H66531   7.243  -0.286   5.857 -1.4349  2.1874 -1.0587
  493MOL0     H66532   7.341  -0.137   5.859  1.1393  0.3560  1.7899
  493MOL0     H66533   7.420  -0.387   5.696 -3.4126  1.3479 -2.1740
  493MOL0     H66534   7.524  -0.260   5.772 -0.8989  0.4724  0.0168
  493MOL0     H66535   7.735   0.112   5.191 -2.7572  0.6925  0.3745
  493MOL0     H66536   7.864   0.168   4.991 -0.7969  0.4085 -1.1154
  493MOL0     H66537   8.271   0.412   4.809  1.3733 -1.7725 -0.9152
  493MOL0     H66538   8.378   0.522   4.625  0.3187  0.6863 -3.2059
  493MOL0     H66539   6.865   0.906   3.798  0.3790  2.1383 -0.6481
  493MOL0     H66540   6.655   0.861   3.906  0.8445  0.9188 -0.1671
  493MOL0     H66541   6.441   0.801   4.310  1.3621  0.1390 -0.0908
  493MOL0     H66542   6.206   0.813   4.339  0.9476  2.3376 -2.1160
  493MOL0     H66543   5.973   0.780   4.311 -0.4484 -0.2695 -1.2902
  493MOL0     H66544   6.016   0.713   4.474 -1.7010 -0.2753  0.0840
  493MOL0     H66545   5.774   0.670   4.314  1.5523  1.4738 -0.1832
  493MOL0     H66546   5.789   0.767   4.447  0.6167  0.0089  1.7166
  493MOL0     H66547   5.859   0.590   4.610 -2.9119  0.6797  2.6478
  493MOL0     H66548   5.839   0.474   4.486  1.6592  0.3633  2.2042
  493MOL0     H66549   5.628   0.485   4.626  1.7814 -0.1838  0.7563
  493MOL0     H66550   5.616   0.658   4.566  2.0319  0.0388 -0.2620
  493MOL0     H66551   5.484   0.373   4.273  0.7838 -0.6201  0.0896
  493MOL0     H66552   6.167   0.412   4.185  0.7434 -1.1322 -2.3575
  493MOL0     H66553   6.474   0.423   3.991  3.2237  0.7449  2.8534
  493MOL0     H66554   6.454   0.327   4.145 -3.7163 -0.3586  1.3335
  493MOL0     H66555   6.327   0.327   4.022  0.3376 -0.2650 -0.2074
  494MOL0     O66556   8.691  10.693   8.784 -0.9953 -0.2126  0.6031
  494MOL0     C66557   8.728  10.793   8.722  0.2894  0.4169  0.2604
  494MOL0     O66558   8.736  10.791   8.582  0.0230 -0.1479 -0.6732
  494MOL0     C66559   8.710  10.671   8.519  0.4560  0.0502 -0.3640
  494MOL0     C66560   8.815  10.618   8.443  0.6979 -1.2819 -0.3960
  494MOL0     C66561   8.812  10.489   8.377  0.2149 -0.0486 -0.7451
  494MOL0     C66562   8.694  10.422   8.384 -0.5523  0.3386 -0.5755
  494MOL0     O66563   8.686  10.296   8.334 -0.5731  0.0689 -0.2593
  494MOL0     C66564   8.794  10.200   8.346  0.3712  0.2511 -0.0050
  494MOL0     C66565   8.810  10.123   8.478  1.0960 -0.0942  0.7256
  494MOL0     C66566   8.691  10.023   8.490  0.2681  0.1544 -0.0372
  494MOL0     C66567   8.732   9.907   8.576 -0.3928  1.1434  0.1824
  494MOL0     C66568   8.622   9.805   8.594 -0.6583  1.1026 -1.2431
  494MOL0     C66569   8.688   9.663   8.610 -0.3611 -0.5150 -0.4068
  494MOL0     C66570   8.585   9.556   8.655  0.0082 -0.5762 -0.0835
  494MOL0     C66571   8.469   9.529   8.567  0.9901  1.1633  0.3640
  494MOL0     N66572   8.516   9.514   8.425  0.6772  0.5989 -0.0832
  494MOL0     C66573   8.508   9.606   8.325 -0.8572  0.8805  0.4969
  494MOL0     C66574   8.550   9.542   8.208  0.1323 -0.9726 -0.1545
  494MOL0     C66575   8.586   9.599   8.071 -0.1035 -0.5867 -0.9115
  494MOL0     C66576   8.713   9.675   8.060  0.5854  0.4742 -0.2352
  494MOL0     C66577   8.735   9.799   8.150 -0.0492  0.8019 -0.1958
  494MOL0     C66578   8.644   9.914   8.113  0.4733  1.3017 -0.5117
  494MOL0     O66579   8.517   9.892   8.176  0.3856  0.5091  0.2290
  494MOL0     C66580   8.413   9.956   8.116  0.5526 -0.4048 -0.4329
  494MOL0     C66581   8.307   9.898   8.048 -0.2547  0.2273  0.0304
  494MOL0     C66582   8.192   9.961   8.020 -0.6460 -0.3405 -0.5585
  494MOL0     C66583   8.190  10.097   8.037  0.3223  0.1508  1.4800
  494MOL0     C66584   8.086  10.183   7.983 -0.1078 -0.9089  0.4658
  494MOL0     O66585   8.018  10.121   7.881  0.1103 -0.7785  0.5103
  494MOL0     C66586   7.905  10.178   7.828  0.2545 -0.0519  0.1654
  494MOL0     C66587   7.803  10.227   7.911  0.2597 -0.2770 -1.0688
  494MOL0     C66588   7.690  10.266   7.847  0.6225 -0.7846 -1.0085
  494MOL0     C66589   7.672  10.282   7.711  0.0435 -0.2712  0.3549
  494MOL0     O66590   7.556  10.342   7.674  0.7307 -0.4772  0.1860
  494MOL0     C66591   7.479  10.249   7.598 -0.1918  0.0267 -0.4671
  494MOL0     C66592   7.334  10.293   7.602 -0.3945  0.7039  0.3548
  494MOL0     C66593   7.296  10.422   7.530  0.5138 -0.7796  0.5633
  494MOL0     C66594   7.346  10.431   7.384 -0.5699  0.0178 -0.5065
  494MOL0     C66595   7.284  10.549   7.305 -0.0397 -0.7529  0.0359
  494MOL0     C66596   7.338  10.555   7.162 -0.0085 -0.2901  1.3486
  494MOL0     C66597   7.308  10.695   7.104  0.7262  0.1526 -0.1748
  494MOL0     C66598   7.396  10.730   6.987 -0.2482  0.0568  0.0174
  494MOL0    Cl66599   7.364  10.614   6.860 -0.0154  0.2208 -0.0977
  494MOL0     C66600   7.786  10.247   7.630  0.8503 -0.3524  0.7758
  494MOL0     C66601   7.898  10.180   7.686 -0.4876 -0.6108  0.3942
  494MOL0     O66602   8.083  10.301   8.023 -0.1920 -0.5226 -0.3024
  494MOL0     C66603   8.284  10.160   8.112 -0.0905  0.5885  0.2400
  494MOL0     C66604   8.396  10.090   8.147 -0.2399  0.4423  0.2529
  494MOL0     N66605   8.596   9.418   8.234  0.0823  0.3131 -0.2999
  494MOL0     N66606   8.577   9.402   8.365  0.1922 -0.1414  0.7430
  494MOL0     C66607   8.583  10.480   8.441 -0.3079  0.0762 -0.0114
  494MOL0     C66608   8.595  10.600   8.509  0.2353  0.2251 -0.4931
  494MOL0     C66609   8.772  10.912   8.800  0.0334  0.0583  0.2664
  494MOL0     C66610   8.816  11.019   8.720  0.6259 -1.0600  0.1830
  494MOL0     C66611   8.852  11.146   8.770 -0.5425  0.3033 -0.0918
  494MOL0     C66612   8.876  11.153   8.912 -0.6025 -0.4061 -0.8762
  494MOL0     O66613   8.920  11.269   8.982 -0.3860  1.0988 -0.0597
  494MOL0     C66614   9.064  11.276   9.002  0.2125 -0.7370 -0.6264
  494MOL0     C66615   9.101  11.390   9.109  0.6886  0.3386 -0.0213
  494MOL0     C66616   9.262  11.392   9.126  0.8629 -0.1571  0.9007
  494MOL0     C66617   9.319  11.520   9.195  0.0427  1.1812  0.8254
  494MOL0     C66618   9.464  11.518   9.182 -0.6203  0.5100 -0.2678
  494MOL0     C66619   9.583  11.515   9.174 -0.1120 -0.3346 -0.5366
  494MOL0     C66620   8.833  11.052   8.998 -0.7349 -0.7021  0.7181
  494MOL0     C66621   8.775  10.935   8.941  0.3149 -0.1770  0.0234
  494MOL0     C66622   8.715  10.830   9.035  0.5023 -0.8227 -0.5589
  494MOL0     H66623   8.906  10.678   8.435  0.5010 -0.8710  0.3656
  494MOL0     H66624   8.894  10.455   8.315  0.5795  0.8417 -0.7683
  494MOL0     H66625   8.782  10.139   8.256 -1.3166  1.6352 -0.7774
  494MOL0     H66626   8.887  10.258   8.340 -1.1038  2.6732 -0.5427
  494MOL0     H66627   8.823  10.191   8.563  0.9074  0.6287  0.1839
  494MOL0     H66628   8.907  10.076   8.459  2.6970  3.7919 -2.0575
  494MOL0     H66629   8.659   9.988   8.391  1.5481  2.6371 -1.4203
  494MOL0     H66630   8.603  10.068   8.538  0.3513 -0.1394  0.4016
  494MOL0     H66631   8.813   9.861   8.519 -2.6792 -2.6782 -0.3006
  494MOL0     H66632   8.771   9.936   8.674  1.0775 -2.2455  0.7168
  494MOL0     H66633   8.565   9.815   8.687  1.7362  1.1136  0.3159
  494MOL0     H66634   8.541   9.814   8.521 -3.9678  0.8010  2.0541
  494MOL0     H66635   8.719   9.649   8.506 -1.6537  0.8799 -1.0158
  494MOL0     H66636   8.773   9.652   8.678 -0.1458 -2.3323 -0.9129
  494MOL0     H66637   8.562   9.572   8.761  3.1956 -0.1297  0.6235
  494MOL0     H66638   8.655   9.473   8.660  2.7746  1.6256 -0.1332
  494MOL0     H66639   8.427   9.434   8.600 -0.6661  1.3997 -0.9206
  494MOL0     H66640   8.403   9.614   8.582  1.0079  1.1860  0.3199
  494MOL0     H66641   8.472   9.709   8.324 -0.5966  0.9861  1.2714
  494MOL0     H66642   8.582   9.517   7.999 -4.0808 -0.5711 -0.9215
  494MOL0     H66643   8.501   9.666   8.055  0.8673  1.3316  1.2127
  494MOL0     H66644   8.797   9.609   8.079  0.6159  0.5214 -0.2065
  494MOL0     H66645   8.721   9.701   7.954 -1.1107 -1.6028 -0.9469
  494MOL0     H66646   8.842   9.820   8.139 -0.2606  1.7102 -0.5851
  494MOL0     H66647   8.726   9.773   8.256 -0.7544  0.8506 -0.2366
  494MOL0     H66648   8.610   9.922   8.010 -1.2450 -4.4872 -0.7430
  494MOL0     H66649   8.678  10.011   8.151  0.5045  1.1104 -0.0467
  494MOL0     H66650   8.309   9.790   8.045 -2.1602  0.0104  3.0200
  494MOL0     H66651   8.110   9.911   7.970 -1.2501 -0.3552  0.4400
  494MOL0     H66652   7.837  10.236   8.014  1.4261 -0.1543 -1.4621
  494MOL0     H66653   7.612  10.298   7.915  0.4342 -1.7772 -0.7418
  494MOL0     H66654   7.526  10.250   7.500  1.7150 -1.3408  0.3848
  494MOL0     H66655   7.486  10.155   7.653  0.9131  2.5597  4.2107
  494MOL0     H66656   7.278  10.214   7.551  0.4451  0.2190  0.1604
  494MOL0     H66657   7.295  10.306   7.703  0.1915  1.9122  0.4390
  494MOL0     H66658   7.187  10.425   7.521  0.5833 -0.1760 -0.1053
  494MOL0     H66659   7.332  10.502   7.595  0.1490  1.4665 -1.8425
  494MOL0     H66660   7.327  10.335   7.336 -3.9025 -0.2840  1.1524
  494MOL0     H66661   7.454  10.444   7.393 -0.1778 -2.7326 -0.5103
  494MOL0     H66662   7.306  10.642   7.359 -3.3046  0.1867 -0.0336
  494MOL0     H66663   7.176  10.532   7.309 -0.1163 -0.3360 -0.2718
  494MOL0     H66664   7.447  10.545   7.158  0.1960  1.7379 -2.0943
  494MOL0     H66665   7.277  10.487   7.102 -0.1899  1.8245 -1.0213
  494MOL0     H66666   7.309  10.776   7.178 -0.9995 -1.1777  1.3993
  494MOL0     H66667   7.201  10.684   7.083  1.0254 -2.1116 -0.7928
  494MOL0     H66668   7.368  10.822   6.936  3.2784  0.4865 -1.4435
  494MOL0     H66669   7.502  10.749   7.005 -0.5995  1.9587  0.2468
  494MOL0     H66670   7.794  10.273   7.525 -2.9971  2.4231  0.9279
  494MOL0     H66671   7.989  10.158   7.632  0.0904  1.8643  0.2410
  494MOL0     H66672   8.264  10.266   8.124 -3.6601  0.3523 -1.9876
  494MOL0     H66673   8.476  10.134   8.206  1.1678 -1.5452 -0.0660
  494MOL0     H66674   8.491  10.423   8.442  1.6453 -3.3835 -0.7118
  494MOL0     H66675   8.515  10.627   8.577  1.3133  1.5454  0.2891
  494MOL0     H66676   8.838  10.999   8.616  1.3989 -1.9672  0.5092
  494MOL0     H66677   8.880  11.231   8.708  1.6202 -0.1003  0.2475
  494MOL0     H66678   9.114  11.311   8.911  1.0840 -0.8073 -0.1864
  494MOL0     H66679   9.100  11.178   9.035  1.9013 -1.2800 -3.7323
  494MOL0     H66680   9.052  11.352   9.199 -2.6838  0.4486 -1.6581
  494MOL0     H66681   9.074  11.491   9.077 -1.9341 -0.7098 -1.4548
  494MOL0     H66682   9.291  11.386   9.021  1.3208 -3.0897  1.0862
  494MOL0     H66683   9.296  11.294   9.161 -2.6447 -1.2952  1.5430
  494MOL0     H66684   9.264  11.596   9.139  0.0862 -0.1542 -1.1050
  494MOL0     H66685   9.283  11.522   9.298 -1.5199  5.4520  0.3893
  494MOL0     H66686   9.689  11.531   9.182 -0.5044  4.1634 -1.7451
  494MOL0     H66687   8.848  11.052   9.105 -3.5025 -3.1445  1.2182
  494MOL0     H66688   8.607  10.812   9.024  0.5948 -2.5739  0.8781
  494MOL0     H66689   8.763  10.734   9.016  0.4185 -0.6418 -1.7901
  494MOL0     H66690   8.721  10.874   9.135 -0.5882 -0.5529 -0.5973
  495MOL0     O66691   0.755   3.228  11.453 -0.2620 -0.1519 -0.9574
  495MOL0     C66692   0.847   3.169  11.502 -1.0350 -0.0146  0.3085
  495MOL0     O66693   0.967   3.151  11.444  0.3457 -0.3065 -0.3392
  495MOL0     C66694   0.982   3.212  11.325  0.4963 -0.0475  0.3289
  495MOL0     C66695   1.101   3.284  11.317  0.6067 -0.1178  0.0168
  495MOL0     C66696   1.134   3.351  11.197 -0.4827 -0.0118  0.6896
  495MOL0     C66697   1.047   3.352  11.079 -0.3579 -0.0545 -0.1568
  495MOL0     O66698   1.077   3.401  10.951 -0.4916 -0.3701 -1.0546
  495MOL0     C66699   1.202   3.482  10.941 -0.1093  0.0138  0.4116
  495MOL0     C66700   1.225   3.524  10.788  0.0105  0.7560 -0.1164
  495MOL0     C66701   1.215   3.670  10.774  0.0380 -0.9784 -0.3929
  495MOL0     C66702   1.261   3.708  10.636 -0.2292 -0.1954  0.2659
  495MOL0     C66703   1.219   3.846  10.606 -0.0400 -0.5176  0.3958
  495MOL0     C66704   1.235   3.871  10.453 -0.2695  0.0196  0.3393
  495MOL0     C66705   1.143   3.980  10.405  0.1766 -0.2420  0.0009
  495MOL0     C66706   1.159   4.004  10.253 -0.1514 -0.0664  0.8571
  495MOL0     N66707   1.073   4.119  10.206 -0.2287 -0.1728  0.1826
  495MOL0     C66708   1.042   4.234  10.277  0.1182 -0.3731  0.0188
  495MOL0     C66709   0.979   4.317  10.190 -0.1679  0.2096  0.1864
  495MOL0     C66710   0.911   4.446  10.215  0.0205 -0.3445 -0.3996
  495MOL0     C66711   0.938   4.557  10.107 -0.0632  0.6161  0.9675
  495MOL0     C66712   1.082   4.569  10.088 -0.0991 -1.1934 -0.6599
  495MOL0     C66713   1.120   4.691  10.008  0.6817 -0.3413 -0.6083
  495MOL0     O66714   1.263   4.709  10.000  0.6360 -0.5110  0.0203
  495MOL0     C66715   1.301   4.820   9.920  0.8934  0.5491 -1.0558
  495MOL0     C66716   1.418   4.877   9.960  0.1891  0.0792 -0.3694
  495MOL0     C66717   1.465   4.992   9.890  0.4062  0.4154  0.2181
  495MOL0     C66718   1.397   5.031   9.767 -0.6927 -0.4524  0.4072
  495MOL0     C66719   1.447   5.153   9.705  0.6168  0.1871 -0.5741
  495MOL0     O66720   1.400   5.185   9.582 -0.1492  1.6840 -0.0238
  495MOL0     C66721   1.396   5.316   9.549 -0.1233 -0.9344 -0.7659
  495MOL0     C66722   1.383   5.341   9.414 -1.0032  0.0711  0.7363
  495MOL0     C66723   1.354   5.467   9.356  0.0216 -0.1783  0.2539
  495MOL0     C66724   1.357   5.576   9.439  0.6574  0.0072 -1.5786
  495MOL0     O66725   1.389   5.707   9.395  0.2622  0.7324  0.0196
  495MOL0     C66726   1.469   5.724   9.272  0.4227  0.6937  0.7156
  495MOL0     C66727   1.533   5.860   9.261 -0.1499  0.1232  0.8233
  495MOL0     C66728   1.429   5.970   9.302  0.1402  0.6149 -0.1525
  495MOL0     C66729   1.495   6.095   9.276  0.1289 -0.2636  0.6273
  495MOL0     C66730   1.411   6.217   9.328  0.5753 -0.2643 -0.1964
  495MOL0     C66731   1.476   6.345   9.286  0.0271  0.4767  0.7015
  495MOL0     C66732   1.406   6.467   9.349  0.1714  0.4156  0.3150
  495MOL0     C66733   1.267   6.506   9.292 -0.2934  0.6174  0.6950
  495MOL0    Cl66734   1.213   6.657   9.358  0.6591  0.0509  0.0102
  495MOL0     C66735   1.355   5.555   9.583  0.0276  0.3613  0.1758
  495MOL0     C66736   1.368   5.427   9.635 -0.5417 -0.1399 -0.2813
  495MOL0     O66737   1.517   5.220   9.781  0.1837  0.1586 -0.0871
  495MOL0     C66738   1.286   4.964   9.721 -0.7052  0.2407  0.0261
  495MOL0     C66739   1.238   4.855   9.801 -0.8036 -0.0946 -0.4773
  495MOL0     N66740   0.997   4.260  10.067  0.6484 -0.5508 -0.5650
  495MOL0     N66741   1.057   4.143  10.075  0.4062  0.9559 -0.1470
  495MOL0     C66742   0.922   3.294  11.094 -0.5469 -0.0257 -0.3231
  495MOL0     C66743   0.896   3.204  11.210 -0.2565  0.5271  0.3969
  495MOL0     C66744   0.825   3.098  11.631 -0.1370 -0.2941 -0.8136
  495MOL0     C66745   0.912   2.992  11.666  0.9435  0.5258 -0.1547
  495MOL0     C66746   0.898   2.920  11.780  0.5974 -0.3202 -0.8139
  495MOL0     C66747   0.796   2.950  11.872  0.0860  0.0067 -0.6690
  495MOL0     O66748   0.794   2.884  11.998 -0.5177 -0.0560  0.1322
  495MOL0     C66749   0.839   2.754  12.012  0.3875  0.3312  0.5201
  495MOL0     C66750   0.791   2.660  12.133 -0.3301  0.4453 -0.8916
  495MOL0     C66751   0.789   2.515  12.094  1.1492  0.1870  0.1022
  495MOL0     C66752   0.806   2.405  12.204  0.0224  0.1195  1.0824
  495MOL0     C66753   0.693   2.391  12.293 -0.1229 -0.1001 -0.0521
  495MOL0     C66754   0.611   2.375  12.378  0.6223  0.1013  0.5120
  495MOL0     C66755   0.711   3.052  11.842  0.6750  0.2735  0.5793
  495MOL0     C66756   0.718   3.122  11.719  1.2603 -0.3485 -0.5729
  495MOL0     C66757   0.604   3.222  11.687  0.0538  0.6915 -0.2073
  495MOL0     H66758   1.160   3.300  11.406 -1.3189 -1.4248  1.6183
  495MOL0     H66759   1.227   3.402  11.218  0.4578 -0.8387 -1.1937
  495MOL0     H66760   1.208   3.571  11.004  1.1088  1.4117 -1.5449
  495MOL0     H66761   1.282   3.415  10.973 -1.3914 -2.2285 -0.8222
  495MOL0     H66762   1.150   3.472  10.727  0.6760  0.5639 -0.7778
  495MOL0     H66763   1.324   3.488  10.761  1.1753  2.6615  1.4224
  495MOL0     H66764   1.277   3.726  10.845 -1.3118  0.3416 -0.2168
  495MOL0     H66765   1.114   3.708  10.789  1.1374  1.5289  1.2453
  495MOL0     H66766   1.367   3.684  10.626 -0.3530 -0.1750 -1.3622
  495MOL0     H66767   1.205   3.643  10.568  1.4515  0.4192 -1.7994
  495MOL0     H66768   1.111   3.860  10.621 -0.3377 -2.7555  0.6859
  495MOL0     H66769   1.270   3.925  10.662  1.4374  0.3667 -2.0649
  495MOL0     H66770   1.340   3.894  10.431  0.2578 -0.2742  2.3328
  495MOL0     H66771   1.201   3.782  10.402  0.2006  0.0055  0.0410
  495MOL0     H66772   1.160   4.076  10.455 -1.4584  0.7469 -1.2207
  495MOL0     H66773   1.040   3.947  10.422  1.0115 -3.2648 -0.2619
  495MOL0     H66774   1.266   4.015  10.229  0.2838  0.1679  2.7540
  495MOL0     H66775   1.123   3.918  10.196  0.8719 -0.2155  0.4032
  495MOL0     H66776   1.050   4.255  10.383 -1.8708  1.3286 -0.0998
  495MOL0     H66777   0.804   4.424  10.221  0.1067 -0.4100  3.5299
  495MOL0     H66778   0.934   4.481  10.316  0.4028 -0.6446 -0.3791
  495MOL0     H66779   0.897   4.521  10.012  0.2930  1.5925  0.4255
  495MOL0     H66780   0.890   4.646  10.148 -3.1472 -1.9964  3.5784
  495MOL0     H66781   1.127   4.480  10.042 -0.2724 -1.0519 -1.1052
  495MOL0     H66782   1.127   4.583  10.187  0.3675  1.9825 -1.2216
  495MOL0     H66783   1.068   4.773  10.058  1.6190  1.0996 -1.8751
  495MOL0     H66784   1.074   4.671   9.911 -1.1655 -3.5044  0.7885
  495MOL0     H66785   1.481   4.837  10.039  1.4787 -3.7282 -3.0180
  495MOL0     H66786   1.547   5.053   9.927  0.7164  0.8817 -1.2020
  495MOL0     H66787   1.376   5.263   9.339  0.1658  1.3472 -0.7934
  495MOL0     H66788   1.357   5.470   9.248  4.4609 -0.0759  0.2365
  495MOL0     H66789   1.549   5.650   9.263 -0.8003 -0.4462 -1.8198
  495MOL0     H66790   1.409   5.716   9.181  1.2962 -0.8070  0.2349
  495MOL0     H66791   1.613   5.861   9.335 -0.8970  1.4766  1.6464
  495MOL0     H66792   1.560   5.874   9.156 -0.8117  0.8711  0.7404
  495MOL0     H66793   1.330   5.948   9.261 -2.1905  1.8290  4.2034
  495MOL0     H66794   1.404   5.965   9.409  2.7297 -2.9286  0.4685
  495MOL0     H66795   1.506   6.111   9.169  1.4838  1.4110  0.9778
  495MOL0     H66796   1.597   6.094   9.314  1.0555 -0.8565 -1.7215
  495MOL0     H66797   1.409   6.215   9.438  3.2432  1.5254 -0.0217
  495MOL0     H66798   1.307   6.213   9.294  0.6628  0.5986 -0.5828
  495MOL0     H66799   1.578   6.343   9.325  0.1141  0.9041  0.4927
  495MOL0     H66800   1.486   6.363   9.178  0.4155 -2.2675  0.1952
  495MOL0     H66801   1.479   6.546   9.331 -0.2475  0.5115 -1.0247
  495MOL0     H66802   1.405   6.449   9.458  2.0778 -0.5894  0.2065
  495MOL0     H66803   1.274   6.515   9.183  3.4640  2.8628  0.9686
  495MOL0     H66804   1.191   6.429   9.309  0.0663  0.1735  0.3144
  495MOL0     H66805   1.358   5.636   9.655  2.3943  1.4636 -1.0401
  495MOL0     H66806   1.367   5.412   9.742 -4.2716 -0.3298 -0.2144
  495MOL0     H66807   1.239   4.995   9.629  1.3569  1.5161 -0.6414
  495MOL0     H66808   1.159   4.793   9.760 -0.5680 -1.2393  0.7333
  495MOL0     H66809   0.846   3.294  11.017 -0.2377  1.1770 -0.6406
  495MOL0     H66810   0.805   3.146  11.195 -0.3561  0.2499  1.9768
  495MOL0     H66811   1.005   2.970  11.613 -0.6823 -2.3619 -2.0503
  495MOL0     H66812   0.971   2.841  11.794 -0.4221 -0.7580  3.8030
  495MOL0     H66813   0.948   2.748  12.016  0.7473 -0.3042 -4.1412
  495MOL0     H66814   0.821   2.715  11.911 -0.7596  1.1867  0.3696
  495MOL0     H66815   0.698   2.700  12.172  1.1937  1.7556  1.6654
  495MOL0     H66816   0.871   2.667  12.208 -1.4482 -2.4730  0.7515
  495MOL0     H66817   0.868   2.488  12.024  2.0210 -1.9473  1.7941
  495MOL0     H66818   0.691   2.507  12.046  1.3363  0.0353 -0.2550
  495MOL0     H66819   0.811   2.319  12.136  0.3884  0.2844  0.8946
  495MOL0     H66820   0.895   2.419  12.266 -0.5598  2.8591  1.4063
  495MOL0     H66821   0.524   2.366  12.440  1.0949 -2.5261  0.9142
  495MOL0     H66822   0.630   3.080  11.909  2.0007  0.4521  2.1806
  495MOL0     H66823   0.639   3.322  11.658 -3.0699  2.2008  0.8299
  495MOL0     H66824   0.543   3.189  11.603  2.5952 -0.3544 -1.7883
  495MOL0     H66825   0.542   3.240  11.775  2.9281 -1.7582  2.5859
  496MOL0     O66826   7.324  10.733   5.729 -0.2793  0.1251 -0.5059
  496MOL0     C66827   7.377  10.695   5.627 -0.4400  0.3751  1.0725
  496MOL0     O66828   7.509  10.721   5.596  0.3258  0.3613 -0.2444
  496MOL0     C66829   7.591  10.808   5.675  0.3688  1.0382 -0.1613
  496MOL0     C66830   7.609  10.795   5.810  0.8915 -0.4796  0.9067
  496MOL0     C66831   7.686  10.892   5.870 -0.4044  0.1730  0.7772
  496MOL0     C66832   7.750  10.991   5.801 -0.0961 -0.0362 -0.0728
  496MOL0     O66833   7.821  11.082   5.882 -1.1877  0.5690  0.4175
  496MOL0     C66834   7.890  11.198   5.831  0.0496  1.1747 -0.6970
  496MOL0     C66835   7.958  11.279   5.941 -0.9252  0.2867 -0.2387
  496MOL0     C66836   7.860  11.321   6.053 -0.3681  0.6304  0.7241
  496MOL0     C66837   7.750  11.419   5.995  0.4527  0.2445 -1.0505
  496MOL0     C66838   7.676  11.484   6.111 -0.1101  0.1402 -0.6432
  496MOL0     C66839   7.588  11.386   6.196  0.4549 -0.0814  0.5890
  496MOL0     C66840   7.502  11.451   6.308 -0.3777  0.5206  1.0253
  496MOL0     C66841   7.434  11.348   6.395  0.4435  0.6557 -0.9177
  496MOL0     N66842   7.347  11.253   6.315 -0.9186  0.8454  1.0469
  496MOL0     C66843   7.280  11.155   6.380  0.2866 -0.3121 -0.8217
  496MOL0     C66844   7.184  11.116   6.295 -0.1379 -0.2267  0.0464
  496MOL0     C66845   7.102  10.999   6.323  1.2549  1.5535  0.1821
  496MOL0     C66846   6.958  11.041   6.363 -0.0272  0.2504 -1.0769
  496MOL0     C66847   6.875  10.922   6.419 -0.3032  1.3398 -0.6611
  496MOL0     C66848   6.891  10.903   6.566 -0.4066  0.9115  0.3477
  496MOL0     O66849   6.851  11.024   6.641 -0.7596  0.2535  0.3365
  496MOL0     C66850   6.719  11.050   6.640  0.8891  0.0550  0.2139
  496MOL0     C66851   6.683  11.171   6.695 -0.6240  0.5914  1.1740
  496MOL0     C66852   6.563  11.221   6.709  0.1840  0.7200 -0.3080
  496MOL0     C66853   6.456  11.143   6.661  0.1186  0.8286 -0.3785
  496MOL0     C66854   6.316  11.193   6.653 -0.1067 -0.3203 -1.0978
  496MOL0     O66855   6.205  11.104   6.663 -0.9513 -0.0029  0.4745
  496MOL0     C66856   6.079  11.144   6.687 -0.6098  0.3059  0.9712
  496MOL0     C66857   6.031  11.257   6.762  0.5070  0.4694 -0.3013
  496MOL0     C66858   5.891  11.286   6.755 -0.1912 -0.4308  0.2049
  496MOL0     C66859   5.797  11.209   6.682  0.4180 -0.2429  0.7250
  496MOL0     O66860   5.662  11.237   6.661 -0.6416 -0.3129 -1.0373
  496MOL0     C66861   5.607  11.352   6.722  0.2480 -0.7429 -0.9922
  496MOL0     C66862   5.483  11.390   6.658  0.0663  0.4116  0.2419
  496MOL0     C66863   5.453  11.543   6.695  0.0348 -0.9614  0.3195
  496MOL0     C66864   5.536  11.653   6.622 -0.0939  0.1009  0.3107
  496MOL0     C66865   5.497  11.681   6.475 -0.4808  0.0930 -0.4390
  496MOL0     C66866   5.586  11.790   6.418  0.6295  0.4118 -0.2537
  496MOL0     C66867   5.562  11.845   6.280 -0.2413 -0.2340  0.2087
  496MOL0     C66868   5.668  11.963   6.258  0.1564  0.1273  0.4003
  496MOL0    Cl66869   5.598  12.113   6.328  0.2257  0.3558  0.1009
  496MOL0     C66870   5.846  11.094   6.618 -0.0476  0.6472  0.5692
  496MOL0     C66871   5.983  11.066   6.615  0.5943 -0.5284  0.3386
  496MOL0     O66872   6.307  11.312   6.657  0.4130 -0.1446 -0.2343
  496MOL0     C66873   6.482  11.020   6.607  0.1398 -0.2797 -0.4433
  496MOL0     C66874   6.612  10.970   6.606  0.4651  0.6209  1.2974
  496MOL0     N66875   7.208  11.188   6.174  0.8953  0.2668 -0.1620
  496MOL0     N66876   7.309  11.261   6.183 -0.3304  0.1210 -0.3483
  496MOL0     C66877   7.729  10.997   5.660 -0.8414  0.1174 -0.6968
  496MOL0     C66878   7.662  10.902   5.600  0.4617  0.3726  0.0122
  496MOL0     C66879   7.299  10.615   5.536 -1.0390  1.3796 -0.3438
  496MOL0     C66880   7.335  10.475   5.518  0.0394 -0.6124  0.3272
  496MOL0     C66881   7.272  10.397   5.432 -0.1740  0.5503  0.3609
  496MOL0     C66882   7.160  10.444   5.362  0.3118  0.4184 -0.4720
  496MOL0     O66883   7.105  10.362   5.270 -1.0006  0.1529  1.1943
  496MOL0     C66884   7.007  10.270   5.314  0.5024 -1.0477  0.4681
  496MOL0     C66885   7.056  10.127   5.290  0.2250  1.1119 -0.2188
  496MOL0     C66886   7.077  10.089   5.146  1.2032 -0.3065  0.5458
  496MOL0     C66887   7.147   9.955   5.130  0.3306 -0.3735 -0.4866
  496MOL0     C66888   7.294   9.976   5.115 -0.3875  0.3043 -0.2349
  496MOL0     C66889   7.409   9.999   5.094 -0.6037 -0.6996 -0.0188
  496MOL0     C66890   7.109  10.578   5.391  0.9800  0.8637  0.6193
  496MOL0     C66891   7.182  10.663   5.475  0.0716 -0.6603 -0.2696
  496MOL0     C66892   7.136  10.801   5.505  0.2913 -0.3498 -0.8334
  496MOL0     H66893   7.565  10.711   5.863  0.1321  0.1172  1.2311
  496MOL0     H66894   7.689  10.877   5.977 -0.4828 -2.6712  0.4592
  496MOL0     H66895   7.968  11.165   5.761 -0.2245  0.3124 -0.5974
  496MOL0     H66896   7.831  11.265   5.767  0.7369  1.8216 -0.6687
  496MOL0     H66897   8.016  11.360   5.896  0.5965  0.5185  1.9364
  496MOL0     H66898   8.031  11.202   5.968 -0.3921  0.2185 -1.7820
  496MOL0     H66899   7.919  11.369   6.132  1.3275  0.2828 -0.2838
  496MOL0     H66900   7.826  11.227   6.098 -0.8730  0.7199  0.5340
  496MOL0     H66901   7.813  11.493   5.946 -0.5912  2.2955  0.5636
  496MOL0     H66902   7.680  11.376   5.922 -1.5323  1.9958 -0.2794
  496MOL0     H66903   7.754  11.535   6.167  0.8125 -1.7191 -0.1604
  496MOL0     H66904   7.595  11.549   6.075 -0.8802 -0.0939  0.6023
  496MOL0     H66905   7.520  11.329   6.132 -3.5078  0.1172  4.2158
  496MOL0     H66906   7.644  11.310   6.251 -1.9760 -1.1669  1.7200
  496MOL0     H66907   7.420  11.509   6.263  0.5108  0.3562 -0.9240
  496MOL0     H66908   7.573  11.510   6.365  0.3055  0.6414  0.0869
  496MOL0     H66909   7.510  11.288   6.446 -2.6303  1.2389  5.3908
  496MOL0     H66910   7.373  11.392   6.475  0.0889 -2.0260  0.4184
  496MOL0     H66911   7.308  11.112   6.475  1.9903 -0.8006 -1.4999
  496MOL0     H66912   7.079  10.951   6.228 -3.8525 -2.2341  2.8730
  496MOL0     H66913   7.144  10.928   6.395  2.0624  2.7861  0.9727
  496MOL0     H66914   6.969  11.112   6.445  4.4540 -0.7924 -0.5081
  496MOL0     H66915   6.909  11.083   6.274 -3.3024  0.0536  0.4793
  496MOL0     H66916   6.908  10.831   6.369 -3.2536  0.1763 -0.6831
  496MOL0     H66917   6.771  10.921   6.385  0.0041  0.8612 -1.6313
  496MOL0     H66918   6.993  10.887   6.603 -1.2288 -2.3052  1.5098
  496MOL0     H66919   6.835  10.813   6.591  1.8550 -0.3105  1.3109
  496MOL0     H66920   6.764  11.233   6.731  0.3701 -0.8184  1.4704
  496MOL0     H66921   6.543  11.315   6.759  0.7825  0.0728  1.1876
  496MOL0     H66922   6.088  11.323   6.827 -0.1146  0.5667  0.1519
  496MOL0     H66923   5.850  11.369   6.812 -2.8771 -0.8230 -1.0108
  496MOL0     H66924   5.597  11.331   6.829 -0.7631  0.0220 -0.9183
  496MOL0     H66925   5.674  11.438   6.733  0.0679 -0.8338  1.1504
  496MOL0     H66926   5.491  11.384   6.549 -1.0239  1.3190  0.0945
  496MOL0     H66927   5.404  11.320   6.688 -0.1541 -0.0971 -1.4172
  496MOL0     H66928   5.345  11.559   6.685  0.1862 -0.7514 -1.2402
  496MOL0     H66929   5.474  11.557   6.802  2.1774  1.8632 -0.3409
  496MOL0     H66930   5.641  11.625   6.607 -0.3868  0.4828 -3.4349
  496MOL0     H66931   5.532  11.742   6.684  1.5728  0.6041 -0.2514
  496MOL0     H66932   5.393  11.712   6.485 -0.7637 -0.1285 -2.2295
  496MOL0     H66933   5.505  11.589   6.415  1.3790 -2.1469  2.9201
  496MOL0     H66934   5.579  11.875   6.487 -0.6911 -1.3307  1.8905
  496MOL0     H66935   5.687  11.749   6.427  0.8930  1.4801  3.5209
  496MOL0     H66936   5.459  11.879   6.273  0.0805  0.7153 -0.0664
  496MOL0     H66937   5.584  11.756   6.219  2.5054  0.2362  0.3990
  496MOL0     H66938   5.753  11.934   6.320  0.3970 -1.5537 -0.6330
  496MOL0     H66939   5.702  11.984   6.156  0.8901 -0.0577  0.6036
  496MOL0     H66940   5.771  11.036   6.565 -1.4720  3.1939 -0.4293
  496MOL0     H66941   6.005  10.983   6.549 -0.1461  1.0420 -2.0334
  496MOL0     H66942   6.410  10.945   6.576  3.3207 -2.8698 -2.2505
  496MOL0     H66943   6.627  10.871   6.565  2.3646  1.2047  0.4739
  496MOL0     H66944   7.752  11.079   5.593  1.6305  0.2368  0.1955
  496MOL0     H66945   7.650  10.904   5.492  0.0207  2.5587  0.0407
  496MOL0     H66946   7.417  10.434   5.576 -0.8387 -0.7235  1.5312
  496MOL0     H66947   7.314  10.300   5.408 -0.9685 -0.0582  1.3878
  496MOL0     H66948   6.911  10.280   5.262 -1.0879 -0.4156  3.3209
  496MOL0     H66949   6.977  10.291   5.416 -1.7870  1.7053 -0.6455
  496MOL0     H66950   6.979  10.054   5.320  2.9434 -3.3054 -2.9105
  496MOL0     H66951   7.145  10.101   5.348 -0.8044  0.4732  1.1377
  496MOL0     H66952   7.139  10.167   5.102  0.4482 -0.5504 -0.9951
  496MOL0     H66953   6.977  10.099   5.102  0.4573 -0.2562  2.1821
  496MOL0     H66954   7.129   9.877   5.204 -0.9459 -0.8579 -1.2662
  496MOL0     H66955   7.109   9.916   5.035  2.4599  0.4700 -1.7637
  496MOL0     H66956   7.515  10.007   5.081 -0.7455 -0.1500 -0.9122
  496MOL0     H66957   7.008  10.599   5.356  1.0917  2.0332  0.9526
  496MOL0     H66958   7.100  10.815   5.607  2.4485 -0.1771 -0.0519
  496MOL0     H66959   7.214  10.876   5.490 -0.6418  0.4822 -1.7796
  496MOL0     H66960   7.067  10.838   5.427  2.6798  1.4770 -2.2246
  497MOL0     O66961   3.351   9.742   9.215 -0.1949  0.2450  0.5207
  497MOL0     C66962   3.275   9.728   9.308  0.7893 -0.2828  0.6803
  497MOL0     O66963   3.274   9.826   9.409 -0.0953  0.1467  0.3499
  497MOL0     C66964   3.183   9.809   9.512 -0.0611 -0.2990  0.1165
  497MOL0     C66965   3.194   9.690   9.599 -0.7158 -0.4961  0.2336
  497MOL0     C66966   3.098   9.683   9.706 -0.2123 -0.8893  0.0956
  497MOL0     C66967   2.996   9.775   9.713 -0.5246  0.3677 -0.6404
  497MOL0     O66968   2.902   9.757   9.805  0.0261  0.3202  0.0867
  497MOL0     C66969   2.766   9.780   9.770  0.9853  0.3984 -0.6154
  497MOL0     C66970   2.674   9.667   9.830 -0.9363 -0.2169 -0.7775
  497MOL0     C66971   2.711   9.525   9.780  0.1555 -0.2953  0.6940
  497MOL0     C66972   2.608   9.424   9.817  0.4690  0.0261  0.2690
  497MOL0     C66973   2.633   9.283   9.765  0.1034 -0.9599  0.3350
  497MOL0     C66974   2.512   9.198   9.792 -1.0268  0.8946 -0.3447
  497MOL0     C66975   2.512   9.140   9.931  0.3939  0.1418  0.2280
  497MOL0     C66976   2.364   9.121   9.984  0.1735  0.7795  0.2951
  497MOL0     N66977   2.299   9.254   9.988  1.0801 -0.0314  0.7366
  497MOL0     C66978   2.321   9.371  10.069  0.5417 -0.4595  0.5009
  497MOL0     C66979   2.233   9.457  10.019 -0.2825 -0.6155 -0.6157
  497MOL0     C66980   2.202   9.607  10.054 -0.7749 -0.7997  0.2730
  497MOL0     C66981   2.297   9.715   9.986  0.9428  0.2880  0.3855
  497MOL0     C66982   2.209   9.844   9.967  0.1631 -0.3062  0.2191
  497MOL0     C66983   2.285   9.952   9.899  0.7259 -1.0281  0.0658
  497MOL0     O66984   2.365   9.887   9.795  0.3072 -0.0148 -0.5325
  497MOL0     C66985   2.336   9.903   9.662  1.1730  0.2901 -0.5314
  497MOL0     C66986   2.280  10.011   9.596  0.2409 -0.5818  0.5171
  497MOL0     C66987   2.260  10.002   9.461  0.1601  0.4461  0.4532
  497MOL0     C66988   2.306   9.894   9.382 -0.1777 -0.0019  0.0819
  497MOL0     C66989   2.290   9.880   9.240  0.4688 -0.8514  0.0814
  497MOL0     O66990   2.355   9.774   9.186  0.5678  0.5868  0.9893
  497MOL0     C66991   2.352   9.757   9.052  0.1830  0.5029  0.0790
  497MOL0     C66992   2.313   9.635   8.996  0.5580  0.1522 -0.2896
  497MOL0     C66993   2.313   9.619   8.859 -0.5216 -0.3387 -0.7489
  497MOL0     C66994   2.334   9.725   8.764  0.0525 -0.7788  0.7976
  497MOL0     O66995   2.329   9.696   8.630  0.3210  0.3584 -0.2141
  497MOL0     C66996   2.324   9.813   8.543 -0.5412 -0.1438 -0.1918
  497MOL0     C66997   2.297   9.767   8.400 -0.2901  0.3572  0.0565
  497MOL0     C66998   2.151   9.809   8.354 -0.6885  0.8699  0.9471
  497MOL0     C66999   2.107   9.760   8.215  0.0560 -0.3252 -0.3447
  497MOL0     C67000   1.966   9.817   8.174  0.3216 -0.3404  0.1398
  497MOL0     C67001   1.850   9.755   8.249 -0.6001  0.3687 -1.4548
  497MOL0     C67002   1.716   9.815   8.199 -0.0174 -0.2880 -0.3103
  497MOL0     C67003   1.605   9.783   8.282  0.1207 -0.3514 -0.5560
  497MOL0    Cl67004   1.447   9.878   8.225 -0.0628  0.3042 -0.1314
  497MOL0     C67005   2.359   9.849   8.823 -0.1814  0.1682 -0.9691
  497MOL0     C67006   2.380   9.862   8.968 -0.6384  0.0899  0.1075
  497MOL0     O67007   2.227   9.963   9.180  0.9493 -1.2244  0.4388
  497MOL0     C67008   2.360   9.780   9.445 -0.3825  0.0414 -0.0947
  497MOL0     C67009   2.370   9.788   9.589  0.8760  0.1599  0.3251
  497MOL0     N67010   2.164   9.400   9.921 -0.7582  0.6138  1.3733
  497MOL0     N67011   2.204   9.279   9.898 -0.4112 -0.4999  0.4887
  497MOL0     C67012   2.996   9.887   9.638 -0.1432  0.7232  1.3935
  497MOL0     C67013   3.095   9.911   9.537  1.0352  0.9828  0.2094
  497MOL0     C67014   3.165   9.624   9.284  0.1651  0.1101 -0.1711
  497MOL0     C67015   3.025   9.645   9.312 -0.2839 -0.1792 -0.1706
  497MOL0     C67016   2.930   9.545   9.285  0.2734  0.1422  0.3241
  497MOL0     C67017   2.969   9.432   9.219  0.1637  0.1308 -0.2046
  497MOL0     O67018   2.882   9.340   9.163 -0.4425 -0.9937  0.6463
  497MOL0     C67019   2.845   9.382   9.031  0.9713 -0.6761 -0.2365
  497MOL0     C67020   2.799   9.262   8.949  0.0534 -0.4583  0.3381
  497MOL0     C67021   2.657   9.219   8.981  1.2189  0.4446 -1.0647
  497MOL0     C67022   2.553   9.326   8.959 -0.3003 -0.5037  0.3091
  497MOL0     C67023   2.417   9.281   8.980  0.0939 -0.2226  0.4743
  497MOL0     C67024   2.307   9.236   8.986  0.5805  0.3877  0.4113
  497MOL0     C67025   3.101   9.406   9.194  1.6738  0.4716 -0.2687
  497MOL0     C67026   3.198   9.495   9.226 -1.3244 -0.7114  0.1755
  497MOL0     C67027   3.333   9.461   9.188 -0.5776  0.7266 -0.4441
  497MOL0     H67028   3.259   9.606   9.579 -1.7176 -0.9056 -1.5333
  497MOL0     H67029   3.088   9.596   9.769  0.4981 -1.5258 -0.6416
  497MOL0     H67030   2.724   9.877   9.797  0.1318 -0.1711  0.1821
  497MOL0     H67031   2.758   9.774   9.661  1.8133 -0.9417 -0.6320
  497MOL0     H67032   2.565   9.679   9.826 -1.1991 -2.1959 -0.9977
  497MOL0     H67033   2.690   9.671   9.938  0.1835  1.2806 -0.9672
  497MOL0     H67034   2.809   9.497   9.821  0.4252 -2.5174 -1.2605
  497MOL0     H67035   2.732   9.510   9.674  1.0544 -3.6124  1.2243
  497MOL0     H67036   2.595   9.422   9.926 -1.7861  3.0960  0.1796
  497MOL0     H67037   2.508   9.456   9.788  0.2890  0.6267  1.4787
  497MOL0     H67038   2.637   9.285   9.656  1.4384 -3.1138  0.2895
  497MOL0     H67039   2.732   9.243   9.789  1.7393  1.6769 -1.5484
  497MOL0     H67040   2.427   9.260   9.761 -1.1794  1.2424  0.7231
  497MOL0     H67041   2.498   9.119   9.718 -3.0977 -0.3427  1.2779
  497MOL0     H67042   2.564   9.211   9.996 -1.5142  2.7266 -0.8840
  497MOL0     H67043   2.541   9.034   9.930 -3.9748 -1.2667  0.8235
  497MOL0     H67044   2.311   9.046   9.925  0.1176  0.3628  0.8676
  497MOL0     H67045   2.369   9.075  10.083  4.0396  2.6872  1.2052
  497MOL0     H67046   2.397   9.395  10.142  1.4998  3.4714 -1.4533
  497MOL0     H67047   2.099   9.635  10.028  0.4347  3.4757 -0.6774
  497MOL0     H67048   2.202   9.622  10.162  1.7419  1.6015  0.0435
  497MOL0     H67049   2.385   9.741  10.046  0.4871  3.4520 -0.1683
  497MOL0     H67050   2.320   9.676   9.886 -2.8754 -0.5092 -0.3312
  497MOL0     H67051   2.160   9.878  10.059 -2.2185 -0.7622 -0.7994
  497MOL0     H67052   2.118   9.820   9.911 -0.5526 -0.4620  1.3992
  497MOL0     H67053   2.333  10.012   9.977 -0.9282  1.4495 -0.7120
  497MOL0     H67054   2.204  10.017   9.864  2.0444  2.3508  2.6975
  497MOL0     H67055   2.250  10.107   9.637  1.1442 -0.0395 -0.0625
  497MOL0     H67056   2.220  10.089   9.409  0.9146  2.6096  3.1964
  497MOL0     H67057   2.289   9.549   9.057 -1.7629  1.5124  0.8919
  497MOL0     H67058   2.302   9.517   8.823  0.9346 -0.4583 -0.9200
  497MOL0     H67059   2.255   9.896   8.561  0.1011  0.7783 -1.7539
  497MOL0     H67060   2.419   9.868   8.546 -0.6532  0.0029  1.0279
  497MOL0     H67061   2.360   9.821   8.328 -0.1102  1.7788  1.2450
  497MOL0     H67062   2.299   9.659   8.381 -1.4224  0.4854 -0.9712
  497MOL0     H67063   2.087   9.765   8.432  0.2657 -2.2640  0.1355
  497MOL0     H67064   2.139   9.917   8.351 -2.0897  0.7148 -0.2127
  497MOL0     H67065   2.109   9.651   8.210 -3.5695 -0.5146 -0.5902
  497MOL0     H67066   2.162   9.800   8.129 -1.0192  0.9661 -0.4895
  497MOL0     H67067   1.950   9.807   8.066  2.7512  0.9990 -0.4121
  497MOL0     H67068   1.959   9.924   8.194 -1.2991 -0.5784  1.0904
  497MOL0     H67069   1.844   9.647   8.233 -2.4551  0.0072  1.0313
  497MOL0     H67070   1.862   9.763   8.357 -1.7968  2.5495 -1.4169
  497MOL0     H67071   1.701   9.791   8.093  1.9053  1.5569 -1.0795
  497MOL0     H67072   1.732   9.923   8.212  0.6127 -0.4087 -0.0743
  497MOL0     H67073   1.585   9.676   8.286 -2.0378  0.0505  2.9944
  497MOL0     H67074   1.620   9.817   8.384 -2.8087 -0.3136 -0.0605
  497MOL0     H67075   2.391   9.929   8.757  2.6452 -1.4447 -1.7093
  497MOL0     H67076   2.414   9.956   9.009 -0.9539 -0.1550  0.9484
  497MOL0     H67077   2.388   9.683   9.404 -0.0386 -0.4065  1.1394
  497MOL0     H67078   2.403   9.710   9.656 -0.0429 -1.3438 -0.8973
  497MOL0     H67079   2.923   9.966   9.652 -2.3020 -0.5514 -1.5283
  497MOL0     H67080   3.102  10.002   9.478 -0.2901  0.9838  0.0227
  497MOL0     H67081   2.994   9.743   9.345  3.6089  0.3542  2.4303
  497MOL0     H67082   2.825   9.567   9.301 -0.1567 -0.3127 -1.6377
  497MOL0     H67083   2.933   9.430   8.988  1.6145 -0.7462  0.9589
  497MOL0     H67084   2.764   9.456   9.032  1.4602 -0.1261  1.0069
  497MOL0     H67085   2.851   9.167   8.960  1.4458  0.2371 -0.0201
  497MOL0     H67086   2.815   9.294   8.846  3.4663  1.1198  1.2035
  497MOL0     H67087   2.654   9.202   9.089 -1.7713  0.9951 -0.9774
  497MOL0     H67088   2.642   9.125   8.928  1.4753 -1.2669  1.6906
  497MOL0     H67089   2.577   9.405   9.031  0.4386  0.5231 -1.0179
  497MOL0     H67090   2.567   9.346   8.852  0.9052 -0.8911  0.3782
  497MOL0     H67091   2.202   9.215   8.988  0.2812  1.6145 -0.9144
  497MOL0     H67092   3.131   9.319   9.137 -3.9164 -2.4416  0.5218
  497MOL0     H67093   3.344   9.352   9.191  1.3663  0.7617 -2.9076
  497MOL0     H67094   3.359   9.488   9.085  0.9256  0.5180 -0.1460
  497MOL0     H67095   3.411   9.502   9.252  0.6037 -0.8754 -0.7916
  498MOL0     O67096   3.771   2.841  10.120  0.1496  0.2984  0.7250
  498MOL0     C67097   3.747   2.849  10.238 -0.0162  0.1762 -0.3341
  498MOL0     O67098   3.769   2.967  10.311 -0.7367  0.5826  0.4440
  498MOL0     C67099   3.865   3.052  10.263 -0.1040  0.0379 -0.4549
  498MOL0     C67100   3.994   3.016  10.292  0.8988 -0.4196  0.3948
  498MOL0     C67101   4.096   3.108  10.262  0.2698  0.4836 -0.8204
  498MOL0     C67102   4.069   3.221  10.186  0.9048 -0.5814  0.3063
  498MOL0     O67103   4.164   3.307  10.139 -0.2272 -0.5956  0.4380
  498MOL0     C67104   4.269   3.252  10.069  0.1540  1.5020 -0.1240
  498MOL0     C67105   4.307   3.328   9.950 -0.2881 -0.8913  0.7684
  498MOL0     C67106   4.408   3.252   9.864  0.3415  0.9200  1.0116
  498MOL0     C67107   4.559   3.247   9.915  0.9689  0.2823 -0.0282
  498MOL0     C67108   4.667   3.302   9.830 -0.4580 -0.7054  0.5136
  498MOL0     C67109   4.643   3.454   9.801 -0.1717 -0.6676  0.0202
  498MOL0     C67110   4.744   3.509   9.693  1.0286  0.2412  0.2056
  498MOL0     C67111   4.888   3.524   9.743 -0.6121 -0.3469 -0.0701
  498MOL0     N67112   4.987   3.515   9.629  0.2546 -0.0776 -0.9699
  498MOL0     C67113   5.092   3.416   9.619  0.7235 -0.9934  0.6610
  498MOL0     C67114   5.139   3.447   9.498  0.2418 -0.3881 -1.0894
  498MOL0     C67115   5.258   3.372   9.433  0.1857 -0.6928 -0.7833
  498MOL0     C67116   5.248   3.345   9.278  0.3406 -0.2320  0.5324
  498MOL0     C67117   5.382   3.366   9.200 -0.3657  0.4496 -1.1537
  498MOL0     C67118   5.477   3.256   9.255 -0.8953 -0.2330  1.1020
  498MOL0     O67119   5.441   3.139   9.183 -0.1024 -0.0966  0.2524
  498MOL0     C67120   5.531   3.042   9.181 -0.0217 -0.0266  0.3452
  498MOL0     C67121   5.552   2.968   9.295 -0.3939 -0.1042  0.2168
  498MOL0     C67122   5.640   2.861   9.305  0.3182 -0.4377  0.2197
  498MOL0     C67123   5.700   2.818   9.188  0.3717  0.3479  0.0604
  498MOL0     C67124   5.788   2.702   9.191  0.3828  0.6279 -0.3858
  498MOL0     O67125   5.827   2.642   9.073 -0.2211  0.0842 -0.2839
  498MOL0     C67126   5.919   2.538   9.078  0.3913 -0.0100  0.0571
  498MOL0     C67127   5.897   2.414   9.010 -0.3436  0.6975  0.6406
  498MOL0     C67128   5.974   2.304   9.039  0.2697  0.2828 -0.5463
  498MOL0     C67129   6.089   2.295   9.120  0.1884 -0.5775 -0.4564
  498MOL0     O67130   6.163   2.184   9.163  0.4757  0.3564  1.1416
  498MOL0     C67131   6.143   2.066   9.079  0.9308 -0.0428  0.5542
  498MOL0     C67132   6.269   1.983   9.111 -0.2440 -0.4324 -0.4338
  498MOL0     C67133   6.295   1.870   9.015  0.9720 -0.5871 -0.8503
  498MOL0     C67134   6.361   1.921   8.888 -0.6352  0.4973 -0.3369
  498MOL0     C67135   6.416   1.809   8.800 -0.1719 -0.2986 -0.3066
  498MOL0     C67136   6.525   1.715   8.863  0.3723  0.2843 -0.2003
  498MOL0     C67137   6.601   1.629   8.756 -0.1739 -0.6097  0.6203
  498MOL0     C67138   6.740   1.678   8.713 -0.0819  0.3134  0.6901
  498MOL0    Cl67139   6.732   1.860   8.727  0.2124  0.2372  0.5108
  498MOL0     C67140   6.125   2.425   9.166 -0.3715  0.5717  0.7587
  498MOL0     C67141   6.039   2.538   9.146 -1.1910 -0.1082 -0.7996
  498MOL0     O67142   5.792   2.648   9.301 -0.2021  0.2651  0.2354
  498MOL0     C67143   5.669   2.881   9.067  0.3370  0.9334  0.6186
  498MOL0     C67144   5.587   3.000   9.065 -0.2302 -0.6288 -0.1540
  498MOL0     N67145   5.099   3.575   9.463 -0.0134 -0.6005 -0.6573
  498MOL0     N67146   5.003   3.616   9.536 -0.9479  0.0082  0.4670
  498MOL0     C67147   3.936   3.262  10.164  0.1618 -0.2620 -0.3396
  498MOL0     C67148   3.834   3.176  10.204 -0.3517  0.7231 -0.5250
  498MOL0     C67149   3.676   2.728  10.292  0.3452  0.5670  0.8246
  498MOL0     C67150   3.740   2.611  10.331  0.3588 -0.6560 -0.4090
  498MOL0     C67151   3.655   2.509  10.381  0.6856  0.5906  0.2414
  498MOL0     C67152   3.513   2.525  10.387  0.2395  0.0841 -0.3218
  498MOL0     O67153   3.443   2.416  10.432 -0.4260  0.5151  0.0247
  498MOL0     C67154   3.433   2.395  10.573  0.3852  0.4334 -0.7718
  498MOL0     C67155   3.347   2.262  10.590 -0.5432  0.0998  0.0952
  498MOL0     C67156   3.326   2.227  10.734  0.8068  0.6173  0.1753
  498MOL0     C67157   3.241   2.097  10.746  0.2139  0.7729 -0.2836
  498MOL0     C67158   3.323   1.990  10.796  0.0372  0.7548 -0.1996
  498MOL0     C67159   3.384   1.891  10.839 -0.1183  0.0348  0.0681
  498MOL0     C67160   3.456   2.641  10.344  0.7468  0.2413 -0.2706
  498MOL0     C67161   3.537   2.732  10.288 -0.1855 -0.3708 -0.3500
  498MOL0     C67162   3.468   2.854  10.228 -0.9775 -0.2907 -0.0744
  498MOL0     H67163   4.027   2.924  10.340 -1.1451 -0.0171  2.7595
  498MOL0     H67164   4.196   3.077  10.292 -0.6142 -0.6582  1.1314
  498MOL0     H67165   4.361   3.256  10.128  0.4750  1.7584 -0.6408
  498MOL0     H67166   4.248   3.150  10.035  3.2733 -0.2317  2.6119
  498MOL0     H67167   4.348   3.423   9.985 -0.8032 -0.6677  0.7799
  498MOL0     H67168   4.224   3.354   9.884  1.7449  0.3873 -1.4613
  498MOL0     H67169   4.410   3.293   9.763  1.0667  1.3674  1.1988
  498MOL0     H67170   4.372   3.152   9.838 -0.5293  2.1356 -3.2099
  498MOL0     H67171   4.565   3.296  10.013  0.8954  5.7572 -2.4351
  498MOL0     H67172   4.575   3.141   9.939 -1.6628 -0.4374 -1.0866
  498MOL0     H67173   4.760   3.283   9.884 -0.2037  1.6276  0.9945
  498MOL0     H67174   4.668   3.239   9.741  1.0216  0.5775 -0.4397
  498MOL0     H67175   4.549   3.464   9.746 -1.0775  0.9379  1.7558
  498MOL0     H67176   4.646   3.512   9.894  3.2307 -1.3265  0.4729
  498MOL0     H67177   4.716   3.612   9.671 -2.6176 -0.7411 -0.3723
  498MOL0     H67178   4.746   3.452   9.600 -1.5553  1.5155 -0.7047
  498MOL0     H67179   4.894   3.625   9.784 -1.0930  0.0994 -1.0570
  498MOL0     H67180   4.905   3.450   9.822 -2.1121 -2.8579 -1.9474
  498MOL0     H67181   5.109   3.320   9.667 -1.5749 -2.7495 -1.7150
  498MOL0     H67182   5.343   3.440   9.444  0.3557 -0.5683 -2.5986
  498MOL0     H67183   5.295   3.279   9.477  1.5060  0.2737  0.2622
  498MOL0     H67184   5.191   3.254   9.258 -0.2792  0.3655 -0.5164
  498MOL0     H67185   5.190   3.428   9.237 -0.3939 -1.3926 -0.8426
  498MOL0     H67186   5.427   3.465   9.211 -2.5018  1.6766 -2.8278
  498MOL0     H67187   5.355   3.371   9.094  0.8215  3.3665 -1.3978
  498MOL0     H67188   5.466   3.253   9.363 -2.6919 -0.0653  0.9492
  498MOL0     H67189   5.576   3.289   9.223 -1.2884 -0.3310 -0.3215
  498MOL0     H67190   5.496   2.994   9.384 -0.7180  2.2694 -0.6069
  498MOL0     H67191   5.655   2.823   9.406  2.8679  3.7696  1.7085
  498MOL0     H67192   5.807   2.400   8.952 -1.2976 -3.2208  2.7099
  498MOL0     H67193   5.942   2.216   8.983 -0.1947  2.3158 -3.7166
  498MOL0     H67194   6.044   2.021   9.088 -0.2643  2.6482  2.0464
  498MOL0     H67195   6.145   2.105   8.976  1.0190  1.1588  0.9933
  498MOL0     H67196   6.359   2.045   9.112  0.9260 -2.0012 -2.1207
  498MOL0     H67197   6.246   1.946   9.212  1.0186  1.3105  0.5379
  498MOL0     H67198   6.350   1.791   9.067  1.4079 -0.2277 -0.7589
  498MOL0     H67199   6.197   1.834   8.982 -0.8550  1.2351  2.1627
  498MOL0     H67200   6.449   1.984   8.906 -0.3570  1.3984 -4.0212
  498MOL0     H67201   6.283   1.969   8.828 -0.7008 -1.1761 -1.6505
  498MOL0     H67202   6.450   1.863   8.711 -5.8228  0.2038 -2.5549
  498MOL0     H67203   6.336   1.741   8.769  0.7350 -4.2370  4.7404
  498MOL0     H67204   6.600   1.766   8.925 -1.7893  0.9004  2.0423
  498MOL0     H67205   6.474   1.642   8.926  2.3977  0.0913  1.3257
  498MOL0     H67206   6.535   1.638   8.669 -1.1609 -0.6960  1.3395
  498MOL0     H67207   6.593   1.523   8.782 -0.3992 -2.1816 -4.7689
  498MOL0     H67208   6.822   1.631   8.767  1.3933 -0.7848 -2.2443
  498MOL0     H67209   6.754   1.644   8.610 -0.3157 -2.2433  1.4329
  498MOL0     H67210   6.215   2.423   9.225 -1.4805  0.2756  2.5223
  498MOL0     H67211   6.076   2.625   9.200  2.2200 -2.1848  0.5382
  498MOL0     H67212   5.710   2.847   8.972 -1.7435  0.7700 -0.2855
  498MOL0     H67213   5.555   3.052   8.975 -0.6787 -1.9690 -0.7964
  498MOL0     H67214   3.941   3.358  10.112  5.8486  0.6373  1.2242
  498MOL0     H67215   3.732   3.209  10.183 -1.7328 -2.2037  1.1020
  498MOL0     H67216   3.848   2.607  10.325  0.4503  1.3779 -0.8495
  498MOL0     H67217   3.699   2.418  10.422  1.7125  1.8792  2.1355
  498MOL0     H67218   3.378   2.477  10.620 -1.6220  0.3264 -2.7836
  498MOL0     H67219   3.535   2.389  10.612  0.1064 -1.0289 -0.1899
  498MOL0     H67220   3.401   2.178  10.545 -1.3747 -0.2844 -0.2115
  498MOL0     H67221   3.252   2.272  10.537 -0.5274 -0.9746 -0.1620
  498MOL0     H67222   3.262   2.309  10.768  0.0629  0.7979 -1.5674
  498MOL0     H67223   3.420   2.244  10.787 -1.1895  1.3586  3.8546
  498MOL0     H67224   3.159   2.118  10.815  1.1251 -2.1984  1.9192
  498MOL0     H67225   3.195   2.057  10.655  4.0319 -0.9725 -1.6656
  498MOL0     H67226   3.432   1.803  10.877 -0.7235 -0.5602 -0.5129
  498MOL0     H67227   3.349   2.659  10.349  1.0985  2.1736  2.6121
  498MOL0     H67228   3.446   2.928  10.306  0.8335 -0.8841  1.0924
  498MOL0     H67229   3.526   2.897  10.145  0.0833 -1.9134 -0.2214
  498MOL0     H67230   3.376   2.827  10.177 -1.4763  2.7777 -0.9788
  499MOL0     O67231   1.941   3.365   7.781  0.6104  0.1260  0.4570
  499MOL0     C67232   2.029   3.374   7.694 -0.4375 -0.9210  0.9460
  499MOL0     O67233   2.008   3.409   7.561 -0.5174 -0.3499 -0.4048
  499MOL0     C67234   1.881   3.404   7.512  0.0077 -0.1332  0.7914
  499MOL0     C67235   1.854   3.305   7.413  0.1508  0.3302 -0.0504
  499MOL0     C67236   1.735   3.305   7.345  0.2533 -0.4503  0.2745
  499MOL0     C67237   1.633   3.409   7.386 -0.0184 -0.5452  1.9990
  499MOL0     O67238   1.514   3.397   7.309  0.2911  0.7139 -0.5194
  499MOL0     C67239   1.421   3.504   7.289 -0.3185  0.0626  0.3512
  499MOL0     C67240   1.310   3.461   7.183  0.1089  0.2860 -0.2074
  499MOL0     C67241   1.367   3.388   7.054  0.2675 -0.0740 -0.9034
  499MOL0     C67242   1.273   3.298   6.968 -0.4349 -1.0685  0.2564
  499MOL0     C67243   1.159   3.387   6.909  0.4371 -0.2476 -0.1382
  499MOL0     C67244   1.062   3.307   6.841 -0.7877  0.7119 -0.1606
  499MOL0     C67245   0.972   3.379   6.749 -0.4883 -1.1315  1.0901
  499MOL0     C67246   0.844   3.307   6.717  0.3651 -1.2012  0.2431
  499MOL0     N67247   0.873   3.182   6.669  0.5664  1.4847  0.3932
  499MOL0     C67248   0.894   3.066   6.745  0.9102  0.9501 -0.2278
  499MOL0     C67249   0.882   2.965   6.657  0.4930  0.1414 -0.9125
  499MOL0     C67250   0.932   2.829   6.702 -0.1345  0.5951 -0.4834
  499MOL0     C67251   0.825   2.730   6.663  0.2433  0.8542 -0.6541
  499MOL0     C67252   0.850   2.684   6.515 -1.0563  0.2266 -0.0316
  499MOL0     C67253   0.748   2.581   6.461  0.7493  0.6741  0.0159
  499MOL0     O67254   0.752   2.450   6.528  0.0640  0.5873 -0.0975
  499MOL0     C67255   0.630   2.402   6.563  0.2269  0.0188 -0.2038
  499MOL0     C67256   0.599   2.357   6.690 -0.4542 -0.9222 -0.6497
  499MOL0     C67257   0.466   2.318   6.725  0.0018  0.0186  0.2438
  499MOL0     C67258   0.367   2.315   6.623  0.3026  0.3403 -0.1771
  499MOL0     C67259   0.235   2.254   6.657  1.0237 -0.0648  0.0003
  499MOL0     O67260   0.144   2.239   6.554 -0.1409  0.4150  0.1605
  499MOL0     C67261   0.046   2.149   6.572 -0.4221 -0.4426 -0.0328
  499MOL0     C67262   0.066   2.005   6.557  0.8124 -0.5925 -0.2133
  499MOL0     C67263  -0.044   1.924   6.584 -0.4625 -0.6139 -0.4104
  499MOL0     C67264  -0.164   1.976   6.619 -0.0069  0.8408 -0.3201
  499MOL0     O67265  -0.280   1.910   6.625  0.6035  0.4364  0.0804
  499MOL0     C67266  -0.297   1.812   6.514  0.6988 -0.0760  0.6315
  499MOL0     C67267  -0.372   1.687   6.572 -0.5813 -0.3567  0.2411
  499MOL0     C67268  -0.502   1.717   6.637  0.8382 -0.2866 -0.5809
  499MOL0     C67269  -0.612   1.780   6.550 -0.3445 -0.0118  0.4900
  499MOL0     C67270  -0.652   1.929   6.595 -0.3357  0.4439 -0.2322
  499MOL0     C67271  -0.764   1.997   6.507  0.1886  1.0990  0.0442
  499MOL0     C67272  -0.827   2.128   6.562 -0.7727  0.2833 -0.0736
  499MOL0     C67273  -0.923   2.188   6.456  0.1514 -0.3980 -0.4752
  499MOL0    Cl67274  -0.960   2.361   6.508 -0.0966 -0.1083  0.2140
  499MOL0     C67275  -0.181   2.112   6.644 -0.5574 -0.7003 -0.2763
  499MOL0     C67276  -0.074   2.203   6.626 -0.6207  0.3997  0.9068
  499MOL0     O67277   0.209   2.220   6.776  0.3928 -0.2897  1.0641
  499MOL0     C67278   0.409   2.337   6.491  0.0372 -0.3634 -0.6041
  499MOL0     C67279   0.535   2.393   6.463 -0.4908  0.2638 -0.3132
  499MOL0     N67280   0.866   3.013   6.524  0.3612  0.3606  0.2652
  499MOL0     N67281   0.858   3.139   6.542  0.5651 -0.1949  0.1879
  499MOL0     C67282   1.655   3.507   7.483 -0.1148 -0.1553  0.3253
  499MOL0     C67283   1.785   3.502   7.542  0.9103  0.0111 -1.3579
  499MOL0     C67284   2.170   3.333   7.740  0.3748  0.6205  0.0055
  499MOL0     C67285   2.188   3.262   7.865 -1.3583  0.8935  0.4000
  499MOL0     C67286   2.317   3.223   7.911  0.0098 -0.6544  1.4678
  499MOL0     C67287   2.434   3.245   7.836 -0.0249 -0.3875  0.4014
  499MOL0     O67288   2.549   3.189   7.892  0.5210 -0.9886  0.1613
  499MOL0     C67289   2.672   3.219   7.827 -0.5158 -0.3917  0.2809
  499MOL0     C67290   2.732   3.367   7.832  0.6080 -0.3497 -0.3160
  499MOL0     C67291   2.710   3.435   7.969 -0.0587 -0.2215  0.2374
  499MOL0     C67292   2.824   3.411   8.064  0.2919  0.1050 -0.2625
  499MOL0     C67293   2.839   3.273   8.097  0.4848 -0.8995  0.1721
  499MOL0     C67294   2.874   3.163   8.134  0.0800  0.0740  0.2518
  499MOL0     C67295   2.412   3.312   7.713 -0.3416 -0.0162 -0.1216
  499MOL0     C67296   2.290   3.344   7.663  0.5359  0.3026  0.0927
  499MOL0     C67297   2.302   3.428   7.537 -0.1332  1.2120 -0.2329
  499MOL0     H67298   1.932   3.230   7.407  0.6617  0.9221 -4.6412
  499MOL0     H67299   1.728   3.219   7.279 -2.8284  1.2562 -1.8648
  499MOL0     H67300   1.373   3.529   7.385 -0.3108  0.0400  0.3611
  499MOL0     H67301   1.469   3.594   7.249 -0.8815 -0.9090 -2.7748
  499MOL0     H67302   1.249   3.552   7.169 -1.0713  0.2849  3.8092
  499MOL0     H67303   1.241   3.390   7.230  2.6059 -1.2930  1.2614
  499MOL0     H67304   1.431   3.307   7.091 -1.2606 -1.0754 -0.3536
  499MOL0     H67305   1.426   3.460   6.996  1.3669  2.5340  3.0582
  499MOL0     H67306   1.328   3.253   6.885 -1.8157  0.4764 -1.5719
  499MOL0     H67307   1.221   3.222   7.027 -2.9207  1.9963  2.4002
  499MOL0     H67308   1.123   3.447   6.992  2.8282  1.9420 -0.5394
  499MOL0     H67309   1.203   3.455   6.836  1.8062 -2.0421 -1.0782
  499MOL0     H67310   1.111   3.225   6.789 -0.1421  0.8139  0.2727
  499MOL0     H67311   1.009   3.266   6.928 -3.2260  0.4469 -1.6712
  499MOL0     H67312   1.035   3.381   6.659  0.9859 -2.2513  2.0332
  499MOL0     H67313   0.959   3.483   6.780  0.0411 -0.4392 -0.8607
  499MOL0     H67314   0.788   3.303   6.811  0.8433  2.4278  0.8275
  499MOL0     H67315   0.787   3.360   6.640  3.6559  3.7288  0.7044
  499MOL0     H67316   0.914   3.048   6.851  0.6659 -3.6872 -0.7852
  499MOL0     H67317   1.025   2.813   6.647 -3.1363 -0.7264 -5.9127
  499MOL0     H67318   0.964   2.845   6.805  1.0614  2.3526 -1.0765
  499MOL0     H67319   0.829   2.634   6.717  1.1105  0.6088 -1.1348
  499MOL0     H67320   0.725   2.773   6.674  1.9065  4.9720  0.3075
  499MOL0     H67321   0.951   2.646   6.502 -1.8317 -1.8983 -0.2369
  499MOL0     H67322   0.843   2.776   6.456  1.6379  2.3452  2.6694
  499MOL0     H67323   0.766   2.574   6.353 -4.1048  0.3585 -1.0173
  499MOL0     H67324   0.653   2.636   6.463  1.1682  1.6601 -2.5310
  499MOL0     H67325   0.677   2.350   6.765 -1.2548 -2.0683  0.1171
  499MOL0     H67326   0.451   2.281   6.826 -0.8502  0.2957  0.2273
  499MOL0     H67327   0.169   1.980   6.537  0.4190  0.5867 -4.7923
  499MOL0     H67328  -0.022   1.818   6.572 -0.1723 -0.8487  1.7454
  499MOL0     H67329  -0.361   1.849   6.432 -3.7730 -3.3717  2.2255
  499MOL0     H67330  -0.203   1.775   6.472  0.5301  1.7220 -1.5342
  499MOL0     H67331  -0.392   1.624   6.485  2.8764 -0.7535 -0.3705
  499MOL0     H67332  -0.293   1.641   6.632 -0.8296 -2.4931 -0.9852
  499MOL0     H67333  -0.543   1.627   6.683  1.0642 -0.1458 -0.0937
  499MOL0     H67334  -0.486   1.781   6.724 -3.0611  0.1879 -0.0606
  499MOL0     H67335  -0.699   1.714   6.561 -0.7069  0.6213  1.6462
  499MOL0     H67336  -0.575   1.765   6.448  1.6085 -0.5439  1.2403
  499MOL0     H67337  -0.562   1.991   6.593 -0.5876  0.8152 -2.1833
  499MOL0     H67338  -0.685   1.924   6.699 -0.0344  1.6296 -0.0628
  499MOL0     H67339  -0.730   2.012   6.404 -0.1781  0.3885 -0.1778
  499MOL0     H67340  -0.839   1.918   6.515  0.1769  0.4723 -4.1417
  499MOL0     H67341  -0.751   2.202   6.592 -2.9585  1.5809  2.7556
  499MOL0     H67342  -0.893   2.100   6.645  2.1300  1.4714  2.8588
  499MOL0     H67343  -0.875   2.181   6.358 -0.8492 -1.9872 -0.8876
  499MOL0     H67344  -1.010   2.121   6.459  2.5060 -3.7165 -0.2894
  499MOL0     H67345  -0.281   2.152   6.660  0.4997  1.8867  0.3893
  499MOL0     H67346  -0.097   2.308   6.611  0.3848  0.2813 -2.2159
  499MOL0     H67347   0.339   2.322   6.409  0.9646 -1.9651 -1.1437
  499MOL0     H67348   0.561   2.403   6.358 -0.8096  0.6333 -0.3590
  499MOL0     H67349   1.587   3.580   7.525  0.8857 -0.2002  2.1057
  499MOL0     H67350   1.815   3.578   7.614  1.8970  0.1734 -1.9316
  499MOL0     H67351   2.107   3.230   7.929 -2.8155  2.0495 -0.7918
  499MOL0     H67352   2.313   3.176   8.009  1.3369 -2.1408  0.8492
  499MOL0     H67353   2.668   3.197   7.720 -0.5120 -2.1282  0.6028
  499MOL0     H67354   2.737   3.141   7.869 -1.3944 -1.3209 -0.0524
  499MOL0     H67355   2.701   3.432   7.750 -1.7742 -0.6691  0.2566
  499MOL0     H67356   2.839   3.344   7.827  1.0157  0.2831  3.0997
  499MOL0     H67357   2.613   3.398   8.002  1.1063 -2.4064  1.4227
  499MOL0     H67358   2.704   3.544   7.954  2.7904  0.0349  0.4697
  499MOL0     H67359   2.914   3.436   8.008  2.0757 -1.8052  1.5833
  499MOL0     H67360   2.819   3.475   8.152 -1.3467  1.7569 -1.4640
  499MOL0     H67361   2.912   3.064   8.139 -0.1407  0.0209  0.9472
  499MOL0     H67362   2.504   3.341   7.663  1.2042 -3.0393  0.7418
  499MOL0     H67363   2.270   3.531   7.556  2.0330  1.5225  2.2834
  499MOL0     H67364   2.400   3.421   7.490 -0.5055 -2.0542 -0.7313
  499MOL0     H67365   2.240   3.387   7.456 -0.3673  1.0329  0.0333
  500MOL0     O67366   2.308   1.707   7.432  0.1672 -0.0465 -0.5139
  500MOL0     C67367   2.322   1.672   7.549 -0.9533  0.8439  0.6848
  500MOL0     O67368   2.236   1.577   7.602  0.4390  0.2047 -0.3818
  500MOL0     C67369   2.139   1.520   7.525  0.0380 -0.4017 -0.0387
  500MOL0     C67370   2.173   1.413   7.432  0.2263 -0.3471 -0.0704
  500MOL0     C67371   2.082   1.381   7.336  0.0522 -0.1585 -0.2279
  500MOL0     C67372   1.954   1.437   7.324  0.2128  0.1203 -0.8439
  500MOL0     O67373   1.880   1.398   7.214  0.4793  0.7302  0.6633
  500MOL0     C67374   1.739   1.410   7.240 -0.3655 -1.3627 -1.1046
  500MOL0     C67375   1.665   1.362   7.126  0.0013  1.2828 -0.1548
  500MOL0     C67376   1.513   1.346   7.159  0.0111 -0.7165  0.1232
  500MOL0     C67377   1.441   1.278   7.039  0.3390 -0.1399  0.1942
  500MOL0     C67378   1.279   1.282   7.073  0.1068  0.1300  0.5337
  500MOL0     C67379   1.195   1.232   6.954  0.0729 -0.4154 -1.2109
  500MOL0     C67380   1.206   1.328   6.831 -0.0233 -0.7303 -0.7539
  500MOL0     C67381   1.113   1.291   6.719  0.0198  0.4644  1.4355
  500MOL0     N67382   1.121   1.387   6.605 -0.9665  0.3644  0.4687
  500MOL0     C67383   1.112   1.531   6.606 -0.3904  0.3741 -1.1723
  500MOL0     C67384   1.159   1.581   6.488  0.5844  0.4900  0.5925
  500MOL0     C67385   1.174   1.718   6.433  0.2549  0.3078 -0.4015
  500MOL0     C67386   1.049   1.793   6.436  0.4271 -0.0517 -0.0828
  500MOL0     C67387   1.055   1.894   6.559 -0.7729  0.7091  0.6825
  500MOL0     C67388   0.925   1.977   6.557 -0.6635  0.4215  0.7151
  500MOL0     O67389   0.913   2.065   6.669  0.2384 -0.4635 -0.1512
  500MOL0     C67390   0.968   2.187   6.679 -1.1604  0.8405  0.8554
  500MOL0     C67391   0.932   2.272   6.787  0.2046 -0.4086  1.1708
  500MOL0     C67392   0.987   2.395   6.809  0.4805 -1.1871  1.1041
  500MOL0     C67393   1.088   2.449   6.720 -0.1374  0.3805  0.3232
  500MOL0     C67394   1.150   2.588   6.738  0.0362  0.3210 -1.1079
  500MOL0     O67395   1.220   2.656   6.637 -0.5286 -0.8082  0.2074
  500MOL0     C67396   1.320   2.747   6.662  0.6988  0.1913 -0.8630
  500MOL0     C67397   1.299   2.860   6.744  0.9727 -0.3577 -1.0677
  500MOL0     C67398   1.409   2.948   6.780  1.4179  0.2978  0.4556
  500MOL0     C67399   1.529   2.927   6.717 -0.0813  0.0694  0.8008
  500MOL0     O67400   1.636   2.999   6.754  0.2611 -0.3362 -0.1837
  500MOL0     C67401   1.743   3.013   6.664 -0.0988  0.2957  0.6477
  500MOL0     C67402   1.847   3.111   6.723  0.8335  0.8258 -0.1073
  500MOL0     C67403   1.760   3.241   6.759  0.5443 -0.4058  0.3775
  500MOL0     C67404   1.831   3.372   6.799  0.1522  0.5058  0.6209
  500MOL0     C67405   1.727   3.484   6.823  0.4618  0.6249  0.3097
  500MOL0     C67406   1.795   3.622   6.827  0.6827 -0.2482 -0.3818
  500MOL0     C67407   1.691   3.736   6.832  0.2866  0.5198  1.0008
  500MOL0     C67408   1.743   3.882   6.821 -0.1812  0.0829  0.2848
  500MOL0    Cl67409   1.869   3.935   6.940  0.1664  0.0233  0.2940
  500MOL0     C67410   1.548   2.827   6.619  0.4610 -0.8151  1.2343
  500MOL0     C67411   1.444   2.734   6.590 -1.2451  0.0506 -0.8510
  500MOL0     O67412   1.138   2.641   6.849  0.7022  0.2889  0.4160
  500MOL0     C67413   1.129   2.372   6.608  0.4626  0.1667 -0.2063
  500MOL0     C67414   1.056   2.245   6.582 -1.1694 -0.0682 -0.6061
  500MOL0     N67415   1.215   1.474   6.424  0.4674 -0.0649 -0.2117
  500MOL0     N67416   1.182   1.364   6.485 -0.0424 -1.2988  0.8778
  500MOL0     C67417   1.930   1.550   7.415 -1.0952 -0.2663  0.2608
  500MOL0     C67418   2.020   1.587   7.507 -0.1058 -0.9544  0.8836
  500MOL0     C67419   2.450   1.722   7.619  1.0840  0.8117  1.2597
  500MOL0     C67420   2.537   1.809   7.536  0.0207  0.4001 -0.7381
  500MOL0     C67421   2.654   1.865   7.586  0.7590  0.7183 -0.5497
  500MOL0     C67422   2.673   1.868   7.722 -0.0122  0.6582 -0.1945
  500MOL0     O67423   2.779   1.951   7.770  0.3371 -0.1856  1.4091
  500MOL0     C67424   2.822   1.950   7.903  0.4086  0.1752 -0.6763
  500MOL0     C67425   2.972   1.995   7.902  0.2727  0.6413  0.3093
  500MOL0     C67426   3.013   2.131   7.833 -0.7044 -0.4274  0.6575
  500MOL0     C67427   3.030   2.146   7.678  0.7475  0.8897 -0.0968
  500MOL0     C67428   3.153   2.080   7.638 -0.5307  0.9966  0.0117
  500MOL0     C67429   3.241   1.999   7.610 -0.0295 -0.5317 -0.2970
  500MOL0     C67430   2.577   1.805   7.809 -0.9449  0.2144  0.3077
  500MOL0     C67431   2.472   1.729   7.759  0.0150  0.4702 -0.1133
  500MOL0     C67432   2.371   1.675   7.854  0.2128 -0.8998 -1.6231
  500MOL0     H67433   2.269   1.362   7.422  0.2942 -0.2834  0.2469
  500MOL0     H67434   2.127   1.321   7.258 -0.4359 -0.4526 -0.2893
  500MOL0     H67435   1.731   1.342   7.326  3.7874 -2.0277 -1.0031
  500MOL0     H67436   1.727   1.514   7.272  1.4086 -0.8732 -1.8726
  500MOL0     H67437   1.699   1.264   7.090  0.0250  1.4736 -0.6632
  500MOL0     H67438   1.686   1.432   7.045  1.9493 -0.0658 -0.8946
  500MOL0     H67439   1.471   1.447   7.165 -0.1570 -0.6421 -1.7522
  500MOL0     H67440   1.496   1.273   7.239  1.8051 -2.9236 -1.3684
  500MOL0     H67441   1.468   1.343   6.956  2.4350  4.5451  4.0440
  500MOL0     H67442   1.465   1.173   7.021  0.2814  0.0887 -1.3404
  500MOL0     H67443   1.256   1.215   7.156 -1.6635 -2.8135 -2.1115
  500MOL0     H67444   1.254   1.383   7.106 -0.2142 -0.4543  2.1726
  500MOL0     H67445   1.213   1.128   6.927 -0.3201 -0.5642 -0.9178
  500MOL0     H67446   1.093   1.230   6.993  0.0171 -0.0406 -1.3298
  500MOL0     H67447   1.303   1.311   6.783  0.1428 -1.5924 -0.1394
  500MOL0     H67448   1.180   1.429   6.863 -3.4201 -1.6198 -0.3419
  500MOL0     H67449   1.134   1.189   6.685 -0.7383  1.3746 -2.1712
  500MOL0     H67450   1.010   1.281   6.754 -0.5763  1.6635  0.1340
  500MOL0     H67451   1.068   1.589   6.688 -0.8776  1.7608 -2.3731
  500MOL0     H67452   1.249   1.769   6.495 -0.4563  0.9838 -0.0956
  500MOL0     H67453   1.213   1.701   6.332  2.5593  1.2012  0.2565
  500MOL0     H67454   1.033   1.853   6.346 -0.7146  0.6496  0.5636
  500MOL0     H67455   0.963   1.726   6.439 -1.2342  1.9386 -0.9620
  500MOL0     H67456   1.142   1.959   6.549  0.8263 -1.2924  0.7887
  500MOL0     H67457   1.063   1.844   6.656 -0.4017  0.4997  0.5469
  500MOL0     H67458   0.832   1.919   6.559 -0.7394  0.4866 -0.3264
  500MOL0     H67459   0.926   2.031   6.461 -0.0783  1.5398  1.3323
  500MOL0     H67460   0.845   2.240   6.843 -0.5686  1.4116  1.0780
  500MOL0     H67461   0.946   2.448   6.895 -0.2053 -2.1459  1.3723
  500MOL0     H67462   1.211   2.878   6.805  1.6712  0.9025 -0.3878
  500MOL0     H67463   1.402   3.028   6.853 -0.9686 -0.8183  1.5636
  500MOL0     H67464   1.787   2.916   6.641  2.7810  2.1175 -2.3677
  500MOL0     H67465   1.711   3.063   6.572  3.6113  3.2294  0.7385
  500MOL0     H67466   1.904   3.068   6.806 -1.3029  1.1167  1.5890
  500MOL0     H67467   1.927   3.131   6.651 -0.3688  1.5870 -1.2860
  500MOL0     H67468   1.693   3.267   6.676 -0.4784  1.4733  1.7118
  500MOL0     H67469   1.697   3.211   6.844  0.0759 -1.5545 -0.3525
  500MOL0     H67470   1.911   3.405   6.732  0.3010 -0.0325  0.5244
  500MOL0     H67471   1.875   3.352   6.897 -1.1290  0.4165  1.1974
  500MOL0     H67472   1.684   3.471   6.922 -0.8223 -0.6775 -0.3931
  500MOL0     H67473   1.659   3.478   6.738  2.4982  2.7152 -1.6162
  500MOL0     H67474   1.850   3.630   6.921 -0.3892  0.1459  0.2256
  500MOL0     H67475   1.864   3.636   6.743  1.6502  1.8593  0.6861
  500MOL0     H67476   1.648   3.728   6.933  2.3792 -0.3365  1.8865
  500MOL0     H67477   1.620   3.713   6.753  0.2240  0.9709  0.9263
  500MOL0     H67478   1.800   3.882   6.728 -0.4435  0.5452  0.1234
  500MOL0     H67479   1.667   3.960   6.821 -0.6635 -0.3810 -0.0750
  500MOL0     H67480   1.636   2.793   6.564 -0.3296 -2.5772  1.0110
  500MOL0     H67481   1.455   2.647   6.526 -1.3860 -1.0344  0.5502
  500MOL0     H67482   1.193   2.407   6.528 -0.6945 -1.5103 -1.9549
  500MOL0     H67483   1.094   2.192   6.495  0.5401 -0.3652  0.2714
  500MOL0     H67484   1.842   1.613   7.411 -1.4407 -0.5931  1.9321
  500MOL0     H67485   1.997   1.682   7.555  2.9825  0.2045  0.3409
  500MOL0     H67486   2.510   1.825   7.433  0.9692  1.4394 -0.8482
  500MOL0     H67487   2.718   1.913   7.514  2.1693  2.7319  1.8943
  500MOL0     H67488   2.809   1.846   7.932  0.6236  0.2279 -0.3902
  500MOL0     H67489   2.754   2.012   7.963 -2.5803 -2.0069 -1.5275
  500MOL0     H67490   3.028   1.912   7.858  1.6642  2.2854 -1.1175
  500MOL0     H67491   3.014   1.994   8.003  1.9532  1.3357 -0.3470
  500MOL0     H67492   3.113   2.157   7.866  0.4120 -2.1869 -1.1150
  500MOL0     H67493   2.938   2.199   7.875 -0.1168  1.2596 -0.9354
  500MOL0     H67494   2.950   2.099   7.618 -0.2153  0.3452  1.5420
  500MOL0     H67495   3.028   2.254   7.662 -0.0048  1.4129  2.9405
  500MOL0     H67496   3.310   1.921   7.585 -0.0531 -0.8166  0.5154
  500MOL0     H67497   2.586   1.824   7.916  1.6451 -2.8410  0.7887
  500MOL0     H67498   2.277   1.731   7.850  1.4971  1.3618 -1.5748
  500MOL0     H67499   2.334   1.572   7.845 -1.3907 -0.7502  1.5527
  500MOL0     H67500   2.410   1.698   7.954  1.1642  0.1279 -2.2223
  501MOL0     O67501   1.412   7.666   0.392 -0.2041 -0.0762 -0.5770
  501MOL0     C67502   1.464   7.732   0.304 -0.4101 -0.2828 -0.0452
  501MOL0     O67503   1.399   7.787   0.206  0.3154 -0.2448  0.2279
  501MOL0     C67504   1.276   7.733   0.169 -0.8841 -1.3159  0.6318
  501MOL0     C67505   1.155   7.785   0.225  0.4665  0.8152 -0.5432
  501MOL0     C67506   1.023   7.735   0.195 -0.3185 -0.3710  0.1793
  501MOL0     C67507   1.015   7.632   0.108 -0.0018  0.0045  0.2822
  501MOL0     O67508   0.894   7.573   0.118  0.4092 -1.1151  0.0009
  501MOL0     C67509   0.851   7.492   0.011 -0.6806  0.2423 -0.3959
  501MOL0     C67510   0.878   7.339   0.043 -0.2581  0.3527  0.2692
  501MOL0     C67511   0.775   7.276   0.134  0.1972 -0.3370 -0.0313
  501MOL0     C67512   0.789   7.123   0.146  0.6199  0.0826  0.4463
  501MOL0     C67513   0.693   7.068   0.255 -0.2317  0.1404 -0.8622
  501MOL0     C67514   0.751   7.078   0.401  0.0871 -0.0359  0.0016
  501MOL0     C67515   0.638   7.063   0.502 -0.2334 -0.5876 -0.1730
  501MOL0     C67516   0.676   7.039   0.647 -0.7138  0.9037 -0.1888
  501MOL0     N67517   0.555   7.016   0.730 -0.2363 -0.4313  0.9812
  501MOL0     C67518   0.482   6.909   0.741 -0.1836  0.6756  1.2870
  501MOL0     C67519   0.375   6.939   0.830  0.0361 -0.1625 -0.5112
  501MOL0     C67520   0.267   6.840   0.862 -0.7095 -0.1205 -0.5743
  501MOL0     C67521   0.141   6.872   0.779 -0.1053 -0.0565  0.6576
  501MOL0     C67522   0.138   6.822   0.632 -0.1055 -0.1133 -0.3509
  501MOL0     C67523   0.195   6.918   0.528 -0.1202 -0.0297  0.6459
  501MOL0     O67524   0.181   6.853   0.400  0.5564 -0.6653 -0.1358
  501MOL0     C67525   0.218   6.926   0.294  0.7939  0.0438  0.2691
  501MOL0     C67526   0.207   6.884   0.162  1.4530  0.4719  0.0346
  501MOL0     C67527   0.258   6.949   0.045 -0.1613  1.0912 -0.3812
  501MOL0     C67528   0.317   7.073   0.061 -0.1295  0.3072 -0.8599
  501MOL0     C67529   0.384   7.130  -0.060 -0.0606  0.3456  0.1686
  501MOL0     O67530   0.441   7.035  -0.143 -0.0630  0.6483 -0.0023
  501MOL0     C67531   0.535   7.074  -0.225 -0.1849 -0.0370  1.0669
  501MOL0     C67532   0.650   7.010  -0.205 -0.8326 -0.5845  0.2387
  501MOL0     C67533   0.763   7.028  -0.289  1.1731  0.7471  0.2059
  501MOL0     C67534   0.762   7.133  -0.377 -0.2922 -0.5488 -0.8084
  501MOL0     O67535   0.888   7.159  -0.428  0.4141 -0.5216 -0.8310
  501MOL0     C67536   0.886   7.246  -0.540 -0.2623  0.3385  0.2661
  501MOL0     C67537   1.020   7.217  -0.617 -0.1163  0.1998  0.3196
  501MOL0     C67538   1.138   7.256  -0.518  0.2215  1.0103  0.2583
  501MOL0     C67539   1.273   7.245  -0.582 -0.5085 -0.6927  0.2064
  501MOL0     C67540   1.392   7.262  -0.478  0.2944  0.4789  0.7391
  501MOL0     C67541   1.519   7.194  -0.514 -0.1540 -0.0835  0.7982
  501MOL0     C67542   1.636   7.265  -0.443  0.2849 -0.0735  0.2208
  501MOL0     C67543   1.643   7.210  -0.302 -1.1545  0.0753  0.2416
  501MOL0    Cl67544   1.757   7.321  -0.226  0.3143  0.1626 -0.0996
  501MOL0     C67545   0.647   7.204  -0.393 -0.2397 -0.1679  0.4462
  501MOL0     C67546   0.532   7.173  -0.322  0.1551 -0.6335 -0.7832
  501MOL0     O67547   0.399   7.256  -0.072 -0.1481  0.8266  0.0538
  501MOL0     C67548   0.327   7.121   0.194  0.2833  0.1456  0.2085
  501MOL0     C67549   0.280   7.056   0.311 -0.0451 -0.0371  0.4775
  501MOL0     N67550   0.398   7.066   0.870 -0.0428 -0.3003  1.0686
  501MOL0     N67551   0.493   7.111   0.800  1.0274 -0.0467  0.6449
  501MOL0     C67552   1.132   7.580   0.045 -0.1590 -0.1887  0.2727
  501MOL0     C67553   1.262   7.635   0.077 -0.4477  0.2151 -0.0601
  501MOL0     C67554   1.609   7.747   0.312 -0.1898 -0.2269 -0.5658
  501MOL0     C67555   1.674   7.655   0.398 -0.0252  0.0940 -0.2143
  501MOL0     C67556   1.813   7.655   0.422 -0.2462 -0.4797  0.4257
  501MOL0     C67557   1.891   7.746   0.351  0.3066 -0.3819 -0.1252
  501MOL0     O67558   2.025   7.743   0.362  0.1834  0.1357 -0.0178
  501MOL0     C67559   2.097   7.724   0.246 -0.0542  0.4703  0.4060
  501MOL0     C67560   2.210   7.814   0.221 -0.0147  0.4482 -0.4152
  501MOL0     C67561   2.291   7.783   0.100  0.4149 -0.9747 -0.2617
  501MOL0     C67562   2.423   7.858   0.093 -0.1659 -0.5681 -0.7412
  501MOL0     C67563   2.521   7.795   0.011  0.1157  0.7306  0.0414
  501MOL0     C67564   2.607   7.735  -0.045  0.0106  0.4467 -0.2037
  501MOL0     C67565   1.831   7.836   0.264 -0.0953 -0.0141  0.4434
  501MOL0     C67566   1.693   7.841   0.241 -0.6845 -0.6004 -0.3522
  501MOL0     C67567   1.645   7.945   0.141  0.6279 -0.0781  0.3541
  501MOL0     H67568   1.164   7.863   0.300 -0.3751 -0.8156  1.3648
  501MOL0     H67569   0.933   7.769   0.245 -0.5840  0.5035 -0.8444
  501MOL0     H67570   0.742   7.496   0.006 -0.7452  3.2440  1.1132
  501MOL0     H67571   0.885   7.529  -0.085 -3.9827  3.7184 -0.4851
  501MOL0     H67572   0.980   7.325   0.080 -0.8910 -2.0393  1.3510
  501MOL0     H67573   0.871   7.281  -0.049 -0.7021  1.3195 -0.3222
  501MOL0     H67574   0.674   7.307   0.106  0.5451  0.5965 -0.2595
  501MOL0     H67575   0.797   7.324   0.230 -0.8541  0.0920  0.0082
  501MOL0     H67576   0.756   7.076   0.053 -1.7582  1.9599  0.2324
  501MOL0     H67577   0.891   7.092   0.169  0.1747 -1.9389 -0.1136
  501MOL0     H67578   0.596   7.117   0.247 -1.6588 -1.7162  2.6013
  501MOL0     H67579   0.658   6.964   0.248 -4.8862  1.5995 -3.8920
  501MOL0     H67580   0.821   6.996   0.421 -0.0970 -0.0651  0.5285
  501MOL0     H67581   0.803   7.174   0.395  0.3092 -0.1858 -0.5998
  501MOL0     H67582   0.583   6.975   0.469  0.4581 -0.3273 -2.1316
  501MOL0     H67583   0.578   7.153   0.488  0.0193 -0.6682 -1.9084
  501MOL0     H67584   0.748   6.957   0.647 -0.4127  1.1303 -1.8527
  501MOL0     H67585   0.738   7.119   0.688  0.1793 -0.2104  0.6908
  501MOL0     H67586   0.515   6.819   0.691  2.4870  2.5256 -0.5330
  501MOL0     H67587   0.304   6.741   0.834 -0.9899 -0.7706  1.2141
  501MOL0     H67588   0.242   6.830   0.969 -3.0596 -1.1349 -1.1511
  501MOL0     H67589   0.059   6.821   0.831  0.4346 -1.3151  0.3031
  501MOL0     H67590   0.108   6.977   0.779 -0.6168 -0.1520 -1.8587
  501MOL0     H67591   0.032   6.810   0.605  0.2234 -2.0159 -0.9390
  501MOL0     H67592   0.192   6.728   0.616  1.2309  0.4389  0.7883
  501MOL0     H67593   0.299   6.922   0.561 -0.2338 -4.3096  2.0133
  501MOL0     H67594   0.142   7.014   0.525  1.3496  0.8203 -2.4924
  501MOL0     H67595   0.164   6.785   0.150 -1.2438  1.3941  1.2691
  501MOL0     H67596   0.252   6.906  -0.055  2.8665  0.7131 -0.4986
  501MOL0     H67597   0.667   6.936  -0.127 -1.3073 -2.9376 -1.7790
  501MOL0     H67598   0.858   6.980  -0.268  1.4288  1.2238  0.1608
  501MOL0     H67599   0.804   7.214  -0.604  0.1666  2.4976 -1.4925
  501MOL0     H67600   0.873   7.353  -0.522 -0.2990  0.8634 -2.4852
  501MOL0     H67601   1.029   7.113  -0.649  2.1407 -0.2159  2.0065
  501MOL0     H67602   1.028   7.290  -0.698  1.1089  3.1230  2.8583
  501MOL0     H67603   1.102   7.357  -0.501 -2.6064  0.7899 -3.2633
  501MOL0     H67604   1.136   7.185  -0.435 -0.8467 -0.5276 -1.0067
  501MOL0     H67605   1.286   7.326  -0.655  1.3230  0.0322  1.2677
  501MOL0     H67606   1.291   7.149  -0.631  0.0610  0.7613 -2.6705
  501MOL0     H67607   1.360   7.222  -0.382  2.7381 -1.7787  0.7248
  501MOL0     H67608   1.413   7.367  -0.455  1.0924  0.9672 -1.8398
  501MOL0     H67609   1.523   7.092  -0.476  0.5105  0.8275  3.3661
  501MOL0     H67610   1.539   7.194  -0.622  0.9903 -1.6489  0.9704
  501MOL0     H67611   1.629   7.373  -0.460  0.7812 -0.1380 -0.4293
  501MOL0     H67612   1.719   7.229  -0.505  1.1229 -0.0361  1.2991
  501MOL0     H67613   1.548   7.206  -0.247 -2.5963  0.7421 -2.0825
  501MOL0     H67614   1.686   7.111  -0.316 -0.0882  0.6516 -0.7927
  501MOL0     H67615   0.642   7.274  -0.476 -4.2203  1.3244  1.6898
  501MOL0     H67616   0.454   7.247  -0.333 -1.1230 -1.5758  1.4258
  501MOL0     H67617   0.365   7.222   0.197  1.9828 -0.4212 -0.9097
  501MOL0     H67618   0.302   7.114   0.399  0.0365  3.0683 -1.4496
  501MOL0     H67619   1.123   7.500  -0.028 -2.6539  1.8230 -1.8207
  501MOL0     H67620   1.348   7.593   0.027 -1.1645  0.3518 -1.4435
  501MOL0     H67621   1.610   7.581   0.446 -5.5606  4.3592 -0.1028
  501MOL0     H67622   1.867   7.591   0.492  4.1726  2.2073 -0.0894
  501MOL0     H67623   2.024   7.719   0.164 -0.3347 -0.5751  0.7023
  501MOL0     H67624   2.136   7.623   0.237 -2.6272 -0.4780 -1.5162
  501MOL0     H67625   2.281   7.809   0.304  1.5380  1.0254 -1.6438
  501MOL0     H67626   2.175   7.918   0.227  0.7605  0.6295  2.7078
  501MOL0     H67627   2.240   7.810   0.008  1.3971  0.4193 -0.4278
  501MOL0     H67628   2.305   7.674   0.101 -1.5134 -1.3016 -2.4132
  501MOL0     H67629   2.412   7.952   0.038  0.1381  1.3811  2.2473
  501MOL0     H67630   2.465   7.876   0.193 -0.5296 -1.7492 -0.3607
  501MOL0     H67631   2.686   7.686  -0.099  0.9089  1.4509  0.1650
  501MOL0     H67632   1.895   7.912   0.219 -1.5214  1.2014  0.3978
  501MOL0     H67633   1.702   8.037   0.160 -1.9915  1.4275  1.3980
  501MOL0     H67634   1.662   7.902   0.042  3.7480  0.1928  0.6723
  501MOL0     H67635   1.537   7.963   0.143  0.8755  1.7876 -0.6591
  502MOL0     O67636   5.468   6.299   5.923  0.1780 -0.5862 -0.8564
  502MOL0     C67637   5.383   6.298   5.835 -0.4487 -0.1295  0.4292
  502MOL0     O67638   5.410   6.321   5.695  0.7560  0.0774 -0.1752
  502MOL0     C67639   5.539   6.339   5.669  0.2795 -0.2681 -0.4456
  502MOL0     C67640   5.581   6.465   5.657 -0.2255 -0.2376  0.7911
  502MOL0     C67641   5.718   6.482   5.622  0.7429  0.2884 -0.4773
  502MOL0     C67642   5.800   6.375   5.597 -0.8040  0.0498  0.5600
  502MOL0     O67643   5.925   6.401   5.559 -0.2218  0.6221 -0.4819
  502MOL0     C67644   6.027   6.437   5.656  0.6245 -0.0804 -0.2886
  502MOL0     C67645   6.158   6.356   5.625  1.4576 -0.2939 -0.5285
  502MOL0     C67646   6.145   6.220   5.709 -0.0913  0.1510 -0.0473
  502MOL0     C67647   6.287   6.162   5.714 -0.3431 -0.0417  0.8468
  502MOL0     C67648   6.289   6.014   5.777  0.3179  0.4776  0.7508
  502MOL0     C67649   6.425   5.950   5.753  0.8164  0.4379 -0.4351
  502MOL0     C67650   6.443   5.807   5.791 -0.7869  0.2274 -0.3873
  502MOL0     C67651   6.468   5.803   5.946  0.0391  0.4323  0.1376
  502MOL0     N67652   6.603   5.841   5.992 -0.6519 -0.0650  0.3297
  502MOL0     C67653   6.728   5.826   5.924 -0.6251 -0.1516 -0.3313
  502MOL0     C67654   6.818   5.858   6.016 -1.2169  0.0912  0.4426
  502MOL0     C67655   6.972   5.866   6.000 -1.7388 -0.6396  0.7317
  502MOL0     C67656   7.017   6.009   5.965  0.0225  0.3422 -0.6204
  502MOL0     C67657   7.153   6.020   5.926  0.1611  0.2656 -0.7484
  502MOL0     C67658   7.262   6.028   6.039 -0.3235 -0.5315 -0.2567
  502MOL0     O67659   7.387   6.071   5.989  0.4506  0.2268  0.0195
  502MOL0     C67660   7.469   5.983   5.928 -0.4002  0.2156  0.6775
  502MOL0     C67661   7.472   5.847   5.956 -0.4455 -0.7747 -0.3414
  502MOL0     C67662   7.572   5.767   5.908 -0.4469  0.4122  0.1581
  502MOL0     C67663   7.669   5.808   5.817  0.1252  0.5436  0.3121
  502MOL0     C67664   7.776   5.719   5.766 -0.7271  0.2114 -0.4458
  502MOL0     O67665   7.801   5.613   5.858 -0.0633  0.3603 -0.0439
  502MOL0     C67666   7.920   5.545   5.854 -0.6418  0.9281  0.3268
  502MOL0     C67667   8.041   5.610   5.877 -0.2676  1.1629 -0.2676
  502MOL0     C67668   8.160   5.530   5.863 -0.3597 -0.9600 -0.2418
  502MOL0     C67669   8.155   5.404   5.823  0.0834 -0.6917 -0.0870
  502MOL0     O67670   8.275   5.346   5.812  0.5805 -1.2765 -0.2783
  502MOL0     C67671   8.287   5.229   5.725  0.1978 -0.2507  0.0290
  502MOL0     C67672   8.433   5.180   5.714  0.5530 -1.2733 -0.2198
  502MOL0     C67673   8.454   5.069   5.610 -0.2617 -0.0349 -0.3184
  502MOL0     C67674   8.526   4.949   5.664 -0.1397 -0.3278  0.8328
  502MOL0     C67675   8.572   4.840   5.565 -0.3616 -0.2299 -1.0400
  502MOL0     C67676   8.670   4.739   5.629  0.3261 -0.0521 -0.5947
  502MOL0     C67677   8.680   4.623   5.527 -1.2966  0.2103  0.0105
  502MOL0     C67678   8.747   4.502   5.585  0.2726  0.1312  0.6386
  502MOL0    Cl67679   8.678   4.446   5.739 -0.4127  0.4937  0.0755
  502MOL0     C67680   8.034   5.329   5.803  0.6073 -0.2971  0.1280
  502MOL0     C67681   7.915   5.411   5.808 -1.4017 -0.1633  0.9159
  502MOL0     O67682   7.828   5.737   5.660  0.1374 -0.0407 -0.8160
  502MOL0     C67683   7.675   5.943   5.784  0.5554 -0.3042  0.2532
  502MOL0     C67684   7.566   6.028   5.834 -0.3859  1.4383  1.0170
  502MOL0     N67685   6.751   5.886   6.136 -0.3788  0.5294 -0.7574
  502MOL0     N67686   6.626   5.871   6.118  0.0199  0.0279 -0.5175
  502MOL0     C67687   5.754   6.245   5.616 -0.1572  0.4817  0.8602
  502MOL0     C67688   5.622   6.225   5.646  0.2424 -0.6207  0.5186
  502MOL0     C67689   5.248   6.275   5.876  0.8397 -0.1279  0.3306
  502MOL0     C67690   5.217   6.147   5.925 -0.2215  0.1711  0.1151
  502MOL0     C67691   5.087   6.100   5.952  0.5603 -0.4608 -0.6296
  502MOL0     C67692   4.980   6.194   5.944  0.0130 -0.2077  0.8922
  502MOL0     O67693   4.850   6.161   5.981  0.3752  0.0032 -0.4166
  502MOL0     C67694   4.820   6.034   6.041  0.4633  0.1048  0.6464
  502MOL0     C67695   4.677   5.985   6.037 -0.6038  0.3941  0.0962
  502MOL0     C67696   4.583   6.091   6.083 -0.5591 -0.4289 -0.2465
  502MOL0     C67697   4.440   6.026   6.093  0.7513 -0.2907  0.2308
  502MOL0     C67698   4.391   5.977   5.964  1.4012  0.2179  1.1349
  502MOL0     C67699   4.363   5.912   5.864  0.8254  0.3286 -0.9012
  502MOL0     C67700   5.010   6.321   5.891 -0.0933 -0.0880 -0.7141
  502MOL0     C67701   5.141   6.367   5.851  0.2330 -0.0240 -0.2355
  502MOL0     C67702   5.164   6.509   5.804 -0.1346  1.5502  0.1757
  502MOL0     H67703   5.517   6.551   5.674  0.3747  0.6405 -1.1268
  502MOL0     H67704   5.749   6.585   5.610  0.8703  0.3561  0.3556
  502MOL0     H67705   6.055   6.543   5.657 -0.2068  0.1401  0.0449
  502MOL0     H67706   6.001   6.413   5.759 -0.4903 -1.7617 -0.9147
  502MOL0     H67707   6.248   6.404   5.665  1.5001 -0.3303 -0.5812
  502MOL0     H67708   6.166   6.343   5.517  0.5297 -1.5986 -0.4628
  502MOL0     H67709   6.078   6.145   5.665 -3.0836  2.5960 -0.0464
  502MOL0     H67710   6.113   6.235   5.812  2.1601 -1.1808  0.9124
  502MOL0     H67711   6.328   6.161   5.613  1.3861 -2.3253  1.4767
  502MOL0     H67712   6.361   6.214   5.777  2.1205 -2.7310  0.3988
  502MOL0     H67713   6.261   6.031   5.881  0.3819  2.9773  0.4386
  502MOL0     H67714   6.211   5.949   5.736 -0.6508  0.0775  3.1083
  502MOL0     H67715   6.452   5.962   5.648  2.4473  1.4250  0.0669
  502MOL0     H67716   6.502   5.992   5.819 -0.5584 -0.4460  1.8737
  502MOL0     H67717   6.530   5.762   5.744 -1.9549 -0.9100 -1.5365
  502MOL0     H67718   6.357   5.744   5.766 -1.5575  1.4565 -0.9011
  502MOL0     H67719   6.390   5.857   6.000 -1.6760  0.4490 -2.2028
  502MOL0     H67720   6.460   5.697   5.972 -2.7878  0.4562 -0.3316
  502MOL0     H67721   6.743   5.800   5.820  0.7960 -0.2854 -0.1168
  502MOL0     H67722   7.019   5.832   6.092  1.3496  1.2880 -0.0146
  502MOL0     H67723   7.017   5.816   5.913  0.8823  2.4455  0.1341
  502MOL0     H67724   6.954   6.043   5.882 -0.7442  0.1482 -0.1281
  502MOL0     H67725   6.989   6.078   6.045  0.3523  1.0124 -1.0846
  502MOL0     H67726   7.177   6.114   5.875  0.7356  1.1659  1.0893
  502MOL0     H67727   7.183   5.938   5.860  1.5763 -1.0248  1.3687
  502MOL0     H67728   7.262   5.926   6.077 -0.6571 -0.6975 -0.6901
  502MOL0     H67729   7.243   6.085   6.130 -0.2115  1.2859 -1.3238
  502MOL0     H67730   7.402   5.796   6.022  1.5399 -0.6985  1.9465
  502MOL0     H67731   7.569   5.661   5.930  1.0052 -0.2198 -2.3621
  502MOL0     H67732   8.050   5.713   5.910  0.0549  0.9294  0.3940
  502MOL0     H67733   8.254   5.569   5.898 -1.1743  0.2617  0.6643
  502MOL0     H67734   8.225   5.141   5.744  1.5776 -1.3568 -0.4162
  502MOL0     H67735   8.258   5.263   5.625  1.6126 -3.0511 -1.4596
  502MOL0     H67736   8.495   5.264   5.681 -0.2386 -0.5108  0.1861
  502MOL0     H67737   8.460   5.159   5.818 -0.0620 -1.3089 -0.0668
  502MOL0     H67738   8.362   5.051   5.553 -0.5666  1.3058 -0.2834
  502MOL0     H67739   8.527   5.107   5.538  0.3745 -2.0728 -0.8184
  502MOL0     H67740   8.471   4.903   5.747  0.2653 -0.9591  0.7580
  502MOL0     H67741   8.620   4.985   5.707  2.1209 -3.0789 -1.3783
  502MOL0     H67742   8.625   4.888   5.481 -1.2690 -2.1432 -2.7901
  502MOL0     H67743   8.486   4.783   5.529 -1.2604  1.6093 -1.9899
  502MOL0     H67744   8.765   4.793   5.644 -1.6750  3.0718  2.5455
  502MOL0     H67745   8.633   4.710   5.727  2.0282  0.1129  0.1395
  502MOL0     H67746   8.745   4.669   5.453 -1.8325 -1.4174 -1.5603
  502MOL0     H67747   8.582   4.598   5.485 -2.0826  2.9522  0.0138
  502MOL0     H67748   8.748   4.419   5.514 -1.9834  1.0821 -0.6147
  502MOL0     H67749   8.853   4.524   5.594  0.8712 -0.6380 -3.1711
  502MOL0     H67750   8.029   5.222   5.786  0.4735 -0.9166  3.3320
  502MOL0     H67751   7.827   5.362   5.766 -0.3827 -1.7139  0.5013
  502MOL0     H67752   7.754   5.984   5.722 -0.9228  1.2309 -0.7272
  502MOL0     H67753   7.556   6.135   5.816 -0.7493  1.2137 -0.2340
  502MOL0     H67754   5.825   6.165   5.596  2.1293  2.2843  1.2875
  502MOL0     H67755   5.580   6.125   5.647  0.7726 -0.8746 -0.8880
  502MOL0     H67756   5.298   6.075   5.931  1.7769  2.4171  2.6601
  502MOL0     H67757   5.075   5.998   5.986 -0.1117 -0.4568 -0.8453
  502MOL0     H67758   4.857   6.039   6.143  1.2295  0.1948  0.3661
  502MOL0     H67759   4.882   5.959   5.990  2.5188  2.0691  0.1263
  502MOL0     H67760   4.670   5.904   6.111 -0.9525  2.6423  2.7070
  502MOL0     H67761   4.657   5.960   5.933  1.9525  3.0021 -1.1689
  502MOL0     H67762   4.583   6.157   5.996  0.4351 -2.6366 -2.0223
  502MOL0     H67763   4.614   6.147   6.172 -2.4873 -0.7430  0.6946
  502MOL0     H67764   4.439   5.948   6.169  1.3783  0.8774  1.4909
  502MOL0     H67765   4.374   6.106   6.127 -0.1553 -0.5354 -0.9117
  502MOL0     H67766   4.340   5.874   5.767  0.4491 -0.4458 -0.5178
  502MOL0     H67767   4.918   6.373   5.867 -1.9136 -2.0669  1.5428
  502MOL0     H67768   5.214   6.509   5.707  0.1218 -0.7904  0.2412
  502MOL0     H67769   5.069   6.561   5.812 -0.6347  0.8973 -1.3161
  502MOL0     H67770   5.228   6.551   5.882 -0.3781 -0.9189  1.8378
  503MOL0     O67771   6.116   4.729   8.778 -0.0602 -0.2859  0.1400
  503MOL0     C67772   6.170   4.631   8.727 -0.7387  0.9545  0.7444
  503MOL0     O67773   6.276   4.564   8.779  0.7331 -0.8989 -0.2596
  503MOL0     C67774   6.332   4.644   8.881 -1.1191 -0.8472  0.1613
  503MOL0     C67775   6.301   4.613   9.011 -0.2258 -0.6415  0.4593
  503MOL0     C67776   6.382   4.675   9.108  0.1853  0.3037 -0.8066
  503MOL0     C67777   6.473   4.772   9.081  0.0409  0.1264  0.0577
  503MOL0     O67778   6.534   4.839   9.180 -0.9259 -0.9363 -0.3476
  503MOL0     C67779   6.638   4.767   9.253 -0.0871  0.3846 -0.5077
  503MOL0     C67780   6.766   4.737   9.180  0.0185 -0.7333 -1.1174
  503MOL0     C67781   6.848   4.649   9.280  0.4616  0.8062 -0.9072
  503MOL0     C67782   6.993   4.613   9.231  0.4451  0.0948  0.0276
  503MOL0     C67783   6.989   4.539   9.097 -0.0345  0.6066  0.0162
  503MOL0     C67784   7.127   4.522   9.044 -0.6671 -0.6006 -0.7704
  503MOL0     C67785   7.136   4.447   8.915  1.6220 -0.4024  0.0485
  503MOL0     C67786   7.270   4.465   8.846 -0.0915 -1.0339  0.6660
  503MOL0     N67787   7.276   4.365   8.737  0.3522  0.5109  1.0005
  503MOL0     C67788   7.313   4.240   8.748  0.4714 -0.2041  0.4090
  503MOL0     C67789   7.290   4.178   8.625 -0.0130  0.0268  0.9037
  503MOL0     C67790   7.373   4.050   8.600  0.2387 -0.5235 -0.2818
  503MOL0     C67791   7.482   4.082   8.505 -0.5628 -0.2387 -0.4641
  503MOL0     C67792   7.563   3.956   8.470  0.4405 -0.2197  0.0887
  503MOL0     C67793   7.676   3.997   8.378  0.3596  0.3483  0.4541
  503MOL0     O67794   7.761   4.067   8.457  0.4241 -0.1610  0.1685
  503MOL0     C67795   7.864   4.141   8.403 -0.8305  1.0892  1.2952
  503MOL0     C67796   7.918   4.128   8.274  0.3703  0.5554  0.6890
  503MOL0     C67797   8.013   4.216   8.222  0.6980 -0.0025 -0.2370
  503MOL0     C67798   8.077   4.296   8.314 -0.9161 -0.3900  0.1783
  503MOL0     C67799   8.182   4.396   8.270 -0.5110 -0.6627 -0.1281
  503MOL0     O67800   8.164   4.426   8.138  0.4382 -0.3441  0.6667
  503MOL0     C67801   8.246   4.528   8.094  0.1170 -0.2287  0.0680
  503MOL0     C67802   8.259   4.649   8.164  0.1887  0.4407  0.5149
  503MOL0     C67803   8.333   4.761   8.117 -0.3135  0.3838 -0.1693
  503MOL0     C67804   8.410   4.745   7.998  0.6968 -0.1520  0.2109
  503MOL0     O67805   8.512   4.839   7.966 -1.3534  0.6273 -1.1734
  503MOL0     C67806   8.563   4.922   8.077  0.4854  0.4811  0.3705
  503MOL0     C67807   8.703   4.980   8.038 -0.0872 -0.0844 -0.6752
  503MOL0     C67808   8.687   5.073   7.918 -0.5597 -0.4976  0.9746
  503MOL0     C67809   8.808   5.121   7.850  0.2213 -0.4386 -0.0385
  503MOL0     C67810   8.785   5.222   7.733  0.0850 -0.1819  0.7770
  503MOL0     C67811   8.925   5.277   7.675 -0.5023  0.1923 -0.2701
  503MOL0     C67812   8.982   5.369   7.774 -0.1905 -0.7103 -0.5166
  503MOL0     C67813   9.028   5.496   7.706 -0.4202 -0.5421  0.4382
  503MOL0    Cl67814   9.110   5.607   7.822 -0.2530  0.0839  0.3735
  503MOL0     C67815   8.395   4.626   7.925 -0.9259  0.2819 -1.2209
  503MOL0     C67816   8.320   4.518   7.977 -0.4732  0.1206  0.4864
  503MOL0     O67817   8.275   4.430   8.341 -0.0405  0.3392  0.2155
  503MOL0     C67818   8.032   4.302   8.447 -0.1233  0.0501  1.5921
  503MOL0     C67819   7.930   4.226   8.496  0.7642  0.0273  0.1885
  503MOL0     N67820   7.238   4.280   8.530  0.3524 -0.9497 -0.5949
  503MOL0     N67821   7.232   4.385   8.610  0.8342 -0.0505  0.0257
  503MOL0     C67822   6.503   4.801   8.946  0.0605 -0.2852 -0.4242
  503MOL0     C67823   6.438   4.728   8.848  0.8179 -0.1845  0.1704
  503MOL0     C67824   6.120   4.565   8.603 -0.1713  0.3286  0.0683
  503MOL0     C67825   6.172   4.443   8.577  0.1427 -0.1623 -0.2474
  503MOL0     C67826   6.129   4.367   8.465 -0.4099  0.4638  0.7886
  503MOL0     C67827   6.028   4.416   8.376 -0.5224 -1.2673  0.1022
  503MOL0     O67828   5.977   4.355   8.266  0.5424  0.2727 -0.2341
  503MOL0     C67829   5.980   4.213   8.248 -0.6472  0.2329  0.1136
  503MOL0     C67830   5.925   4.153   8.114 -0.5268 -0.3755 -0.2398
  503MOL0     C67831   5.968   4.242   7.997  0.5963 -0.8092  0.9007
  503MOL0     C67832   6.115   4.235   7.980 -0.4277  1.0427  0.0673
  503MOL0     C67833   6.160   4.256   7.844 -0.2219  0.0393 -0.7615
  503MOL0     C67834   6.178   4.264   7.723 -1.1945 -0.1082  0.5736
  503MOL0     C67835   5.979   4.536   8.413 -0.1080 -0.1829 -0.2493
  503MOL0     C67836   6.010   4.603   8.527 -0.1834 -0.1507  0.5839
  503MOL0     C67837   5.928   4.728   8.555 -0.4500  0.0840 -0.7254
  503MOL0     H67838   6.215   4.551   9.033 -1.2276  0.2737 -0.7252
  503MOL0     H67839   6.352   4.647   9.209  2.9014 -1.2613 -0.3495
  503MOL0     H67840   6.669   4.818   9.345 -0.9286  1.2696 -0.6947
  503MOL0     H67841   6.594   4.678   9.299  1.2396 -0.1914 -0.3083
  503MOL0     H67842   6.815   4.833   9.163  1.6557 -1.3564 -0.1515
  503MOL0     H67843   6.738   4.707   9.079 -2.6310  0.7950 -0.9337
  503MOL0     H67844   6.815   4.544   9.282 -0.7449  1.1411 -1.9026
  503MOL0     H67845   6.853   4.700   9.376  0.2606 -1.0562  0.1491
  503MOL0     H67846   7.050   4.707   9.230 -0.5876  0.7474  0.4596
  503MOL0     H67847   7.031   4.532   9.294  3.7163 -1.9886 -4.1038
  503MOL0     H67848   6.944   4.439   9.105 -1.6024  1.1636 -1.2971
  503MOL0     H67849   6.927   4.587   9.021 -0.6673  1.1237  0.8395
  503MOL0     H67850   7.181   4.617   9.046  2.2416 -2.1503  0.1527
  503MOL0     H67851   7.188   4.465   9.115 -1.2208  1.7672  1.8001
  503MOL0     H67852   7.059   4.476   8.842  1.0645 -2.6111 -0.3234
  503MOL0     H67853   7.108   4.342   8.928 -0.1389 -0.1518 -1.3305
  503MOL0     H67854   7.275   4.565   8.800  5.4420 -0.5831  1.5714
  503MOL0     H67855   7.357   4.465   8.912  0.2832  1.6176  0.3123
  503MOL0     H67856   7.372   4.203   8.832  1.6535  3.3814  1.3194
  503MOL0     H67857   7.410   4.017   8.697  0.7917  2.5767  0.6844
  503MOL0     H67858   7.305   3.980   8.550 -2.0867  0.6016  1.1144
  503MOL0     H67859   7.444   4.121   8.411  3.3288 -0.6080 -2.4222
  503MOL0     H67860   7.540   4.167   8.543 -1.0390  0.1816 -0.6700
  503MOL0     H67861   7.501   3.873   8.434 -0.0542 -1.2766  3.0489
  503MOL0     H67862   7.610   3.925   8.564  1.9263  1.1689 -0.1502
  503MOL0     H67863   7.645   4.059   8.294 -0.9059  2.0802  2.0902
  503MOL0     H67864   7.720   3.912   8.325  0.2784  1.3636 -1.3112
  503MOL0     H67865   7.849   4.073   8.211 -0.6203  1.7734  0.6607
  503MOL0     H67866   8.029   4.229   8.115 -3.5245  4.3241 -0.6448
  503MOL0     H67867   8.201   4.665   8.255 -0.5168  2.1497 -0.1911
  503MOL0     H67868   8.339   4.849   8.180  0.4733 -0.9094  1.6415
  503MOL0     H67869   8.494   5.006   8.082 -0.6068 -0.3312 -0.4198
  503MOL0     H67870   8.572   4.874   8.175 -1.5429 -1.2952 -0.2250
  503MOL0     H67871   8.737   5.035   8.126 -1.3110  1.7406 -1.2898
  503MOL0     H67872   8.775   4.901   8.013 -3.0067 -2.3896 -2.5527
  503MOL0     H67873   8.641   5.011   7.841 -1.1660  1.2710 -0.1629
  503MOL0     H67874   8.620   5.158   7.938  0.5362  0.4343  0.7718
  503MOL0     H67875   8.872   5.040   7.813 -0.0325  0.4366 -2.5718
  503MOL0     H67876   8.865   5.161   7.935 -0.9369  0.7350  0.2249
  503MOL0     H67877   8.709   5.299   7.747  0.4465  1.1537 -3.1827
  503MOL0     H67878   8.746   5.165   7.648 -2.0004 -0.6420  1.9860
  503MOL0     H67879   8.993   5.192   7.660  0.7022  1.3421 -1.6306
  503MOL0     H67880   8.920   5.311   7.571  1.4219 -2.3704 -1.3047
  503MOL0     H67881   9.068   5.320   7.819 -0.8839 -3.3048 -1.8271
  503MOL0     H67882   8.910   5.392   7.853  2.4896 -2.5587  2.7230
  503MOL0     H67883   9.097   5.476   7.624 -1.1181  2.5919 -1.0611
  503MOL0     H67884   8.941   5.545   7.662  2.3594  2.4626 -2.3489
  503MOL0     H67885   8.436   4.629   7.824  0.3649 -1.7718 -0.8083
  503MOL0     H67886   8.315   4.424   7.923  0.4721  0.7958 -0.8456
  503MOL0     H67887   8.100   4.365   8.504  0.3634  2.3957 -1.3473
  503MOL0     H67888   7.912   4.242   8.601  3.0162  2.1145  0.3452
  503MOL0     H67889   6.578   4.873   8.914  0.0917 -0.0998  0.0442
  503MOL0     H67890   6.462   4.734   8.742 -0.4273 -2.5913 -0.3034
  503MOL0     H67891   6.248   4.394   8.636  1.1812 -1.4056 -2.5063
  503MOL0     H67892   6.171   4.269   8.448  1.3454  1.6485 -2.6359
  503MOL0     H67893   5.928   4.166   8.332 -1.8210  0.4539 -0.4638
  503MOL0     H67894   6.081   4.172   8.261 -0.7285  0.1993  0.6525
  503MOL0     H67895   5.816   4.153   8.113 -0.5625 -0.5719  1.1591
  503MOL0     H67896   5.951   4.051   8.087 -2.2431 -0.8447 -0.2465
  503MOL0     H67897   5.933   4.344   8.016  1.5719 -0.8454  3.2381
  503MOL0     H67898   5.912   4.208   7.909 -2.2071  1.1839  1.7619
  503MOL0     H67899   6.175   4.308   8.035 -0.1044  1.5438 -0.9223
  503MOL0     H67900   6.144   4.138   8.023 -3.9378 -0.1316  0.0749
  503MOL0     H67901   6.224   4.263   7.626 -0.2560 -1.6575  1.0083
  503MOL0     H67902   5.906   4.575   8.343  0.6600 -0.7050 -1.3710
  503MOL0     H67903   5.878   4.758   8.462  0.4935 -2.0402 -1.9932
  503MOL0     H67904   5.858   4.714   8.638  1.6214 -0.0278  1.1125
  503MOL0     H67905   5.992   4.810   8.589 -1.5840  0.0915  1.6043
  504MOL0     O67906   9.164   6.395   7.442 -0.1949 -0.1079 -0.1942
  504MOL0     C67907   9.273   6.347   7.432  0.4198  0.0355  0.4935
  504MOL0     O67908   9.385   6.406   7.486 -0.1507  0.6620 -0.4987
  504MOL0     C67909   9.380   6.505   7.588 -0.3062 -0.0746 -0.8344
  504MOL0     C67910   9.493   6.516   7.670  0.2993  0.0530  0.6554
  504MOL0     C67911   9.494   6.597   7.787 -0.6474 -0.2295 -0.2106
  504MOL0     C67912   9.393   6.679   7.830  0.7229 -0.5024  0.4066
  504MOL0     O67913   9.418   6.744   7.947  0.6942  0.2881  0.1647
  504MOL0     C67914   9.330   6.855   7.977 -0.0097  0.2551 -0.5159
  504MOL0     C67915   9.332   6.906   8.110 -0.8060 -0.1847  0.6796
  504MOL0     C67916   9.319   6.778   8.189 -0.2229 -0.6088 -0.6113
  504MOL0     C67917   9.258   6.813   8.327 -0.1086  0.8610 -0.9590
  504MOL0     C67918   9.228   6.683   8.404 -0.6457 -0.6294 -0.7445
  504MOL0     C67919   9.167   6.697   8.542 -0.2452  0.8504 -0.8030
  504MOL0     C67920   9.261   6.758   8.641  0.2012  0.4411  0.7411
  504MOL0     C67921   9.177   6.813   8.762 -0.9301  0.1147  0.5070
  504MOL0     N67922   9.130   6.704   8.851 -0.1290  0.0218 -0.2803
  504MOL0     C67923   9.209   6.621   8.930 -0.3944 -0.3694  1.3513
  504MOL0     C67924   9.120   6.555   9.017  0.4850 -0.4870  0.0959
  504MOL0     C67925   9.138   6.431   9.094 -0.0672 -0.1617 -0.1866
  504MOL0     C67926   9.055   6.316   9.044  0.6353  0.5483 -0.2220
  504MOL0     C67927   9.085   6.195   9.133 -0.0250  0.4682  0.7680
  504MOL0     C67928   9.017   6.064   9.088  0.6830  0.0835  0.2391
  504MOL0     O67929   9.105   6.008   8.997  0.6986  0.9410 -0.1316
  504MOL0     C67930   9.039   5.935   8.893 -0.5938 -0.0499  0.0202
  504MOL0     C67931   9.011   6.004   8.772  0.3612  0.3824  0.0113
  504MOL0     C67932   8.956   5.938   8.666  0.0613  0.0532  0.0537
  504MOL0     C67933   8.925   5.798   8.678  0.2162  0.8207  0.8327
  504MOL0     C67934   8.853   5.725   8.573  0.7758  0.1135 -0.1404
  504MOL0     O67935   8.869   5.778   8.448 -0.1283  0.2166  0.0488
  504MOL0     C67936   8.800   5.712   8.348  0.1056 -0.7651  0.8986
  504MOL0     C67937   8.660   5.727   8.340  0.3262  0.3415  0.4247
  504MOL0     C67938   8.583   5.663   8.236 -0.5621 -0.3984  0.0806
  504MOL0     C67939   8.662   5.593   8.137  0.5026 -0.7922  0.0274
  504MOL0     O67940   8.592   5.537   8.036 -0.7193 -0.4889  0.8255
  504MOL0     C67941   8.627   5.562   7.900  0.4443 -0.0730  1.6307
  504MOL0     C67942   8.518   5.504   7.802 -0.7358  0.3892 -0.4980
  504MOL0     C67943   8.570   5.518   7.655  0.0971 -0.0130  0.5685
  504MOL0     C67944   8.459   5.457   7.571 -0.3613  0.5097 -0.7380
  504MOL0     C67945   8.495   5.450   7.420 -0.3004 -0.6674  0.1430
  504MOL0     C67946   8.621   5.368   7.382  0.4676 -0.5475  1.0712
  504MOL0     C67947   8.671   5.417   7.236  0.2992  0.0426  0.2002
  504MOL0     C67948   8.603   5.343   7.129 -0.1090  0.5088 -0.4173
  504MOL0    Cl67949   8.657   5.396   6.960  0.2507  0.0484 -0.4407
  504MOL0     C67950   8.809   5.597   8.143  0.4260  0.3713  1.0712
  504MOL0     C67951   8.871   5.650   8.246  1.2661  0.3134  0.2208
  504MOL0     O67952   8.811   5.613   8.603  0.8129 -0.2426  0.3060
  504MOL0     C67953   8.957   5.724   8.795 -1.0244 -0.9613  0.0278
  504MOL0     C67954   9.023   5.793   8.897  0.8162  0.0818 -0.0408
  504MOL0     N67955   8.994   6.619   8.992 -0.0589  0.2997 -0.1018
  504MOL0     N67956   9.006   6.711   8.903 -0.1163  0.1220  0.3159
  504MOL0     C67957   9.276   6.667   7.742  0.1337 -0.7191 -1.2105
  504MOL0     C67958   9.274   6.594   7.620 -0.4987  0.5797 -0.9304
  504MOL0     C67959   9.291   6.218   7.349  0.1328 -0.8026 -0.3472
  504MOL0     C67960   9.426   6.198   7.309 -0.2268 -0.2508 -0.0577
  504MOL0     C67961   9.457   6.099   7.213  0.0307 -0.3384 -0.2003
  504MOL0     C67962   9.356   6.025   7.158 -0.3029  0.8279  0.5347
  504MOL0     O67963   9.382   5.950   7.050 -0.5132 -0.0475  0.0211
  504MOL0     C67964   9.394   5.816   7.080  0.5651 -0.0175  0.4856
  504MOL0     C67965   9.455   5.742   6.966  0.2892  0.8145 -0.3599
  504MOL0     C67966   9.506   5.597   6.996 -0.1584  0.1064  0.3373
  504MOL0     C67967   9.628   5.603   7.098 -0.4231  0.3661  0.6658
  504MOL0     C67968   9.713   5.483   7.101 -0.5304 -0.2735  0.3854
  504MOL0     C67969   9.776   5.382   7.109 -0.2154 -0.2308  0.3050
  504MOL0     C67970   9.224   6.045   7.201  0.1125  0.4349 -0.2459
  504MOL0     C67971   9.189   6.146   7.292  0.0248  0.4028 -0.2352
  504MOL0     C67972   9.042   6.162   7.322 -1.3764  0.3451  0.4424
  504MOL0     H67973   9.584   6.458   7.654  3.0160  4.0016  0.5257
  504MOL0     H67974   9.586   6.598   7.845  0.3872  3.7525 -1.6170
  504MOL0     H67975   9.349   6.942   7.914 -0.5362  2.1654  1.8042
  504MOL0     H67976   9.227   6.824   7.957 -0.9814  2.5340  0.5737
  504MOL0     H67977   9.242   6.964   8.133 -1.8671 -2.2500  2.0403
  504MOL0     H67978   9.424   6.959   8.138 -0.2424 -1.0809  0.5590
  504MOL0     H67979   9.415   6.727   8.206  0.8052  1.2164 -0.6299
  504MOL0     H67980   9.245   6.709   8.148 -5.7881  2.7325  2.6015
  504MOL0     H67981   9.337   6.858   8.387 -1.1833  2.2635 -0.5399
  504MOL0     H67982   9.160   6.863   8.329 -1.2990 -1.3529 -0.5913
  504MOL0     H67983   9.157   6.625   8.344 -2.4028  2.8625 -2.3607
  504MOL0     H67984   9.323   6.630   8.416 -0.1059 -0.4789 -3.5740
  504MOL0     H67985   9.082   6.763   8.528  0.6110  1.6129 -2.8580
  504MOL0     H67986   9.153   6.593   8.574  1.3937  0.9121  0.2172
  504MOL0     H67987   9.314   6.843   8.597  0.2159  1.0617  1.9205
  504MOL0     H67988   9.334   6.689   8.683  0.1947  1.1065  1.8598
  504MOL0     H67989   9.242   6.877   8.822  0.1674 -1.2414  0.8186
  504MOL0     H67990   9.090   6.874   8.734 -1.9140 -0.8124  1.4432
  504MOL0     H67991   9.314   6.602   8.909 -0.7579 -0.9139 -0.1557
  504MOL0     H67992   9.245   6.410   9.092  0.3758  1.8204  1.0507
  504MOL0     H67993   9.116   6.447   9.200 -0.2469  1.6251 -0.4627
  504MOL0     H67994   8.946   6.322   9.035  0.4327 -1.6121  0.2174
  504MOL0     H67995   9.092   6.289   8.945  0.0128 -0.7341 -0.1335
  504MOL0     H67996   9.037   6.225   9.227 -0.0301 -1.5159  1.4304
  504MOL0     H67997   9.191   6.176   9.148 -0.5057 -2.1804  1.2594
  504MOL0     H67998   8.911   6.076   9.062  0.7126 -1.7653 -0.8801
  504MOL0     H67999   9.025   5.990   9.168 -1.4094 -1.5034 -0.9242
  504MOL0     H68000   9.038   6.109   8.771  1.7237  0.0425 -0.3928
  504MOL0     H68001   8.941   5.991   8.573  2.5882 -1.8021 -1.5386
  504MOL0     H68002   8.601   5.781   8.413 -2.2414  3.6269 -3.6658
  504MOL0     H68003   8.477   5.683   8.229 -0.3787 -0.1061 -3.6430
  504MOL0     H68004   8.641   5.669   7.881 -1.3318  0.3118  2.2928
  504MOL0     H68005   8.725   5.517   7.879  0.1856  0.4416 -0.9693
  504MOL0     H68006   8.501   5.396   7.809  0.4324  0.1118 -1.5486
  504MOL0     H68007   8.424   5.550   7.833 -0.9501 -0.0761 -0.4365
  504MOL0     H68008   8.579   5.626   7.642  1.0298 -0.1036  0.4173
  504MOL0     H68009   8.670   5.482   7.631  1.2047  0.5022  3.8791
  504MOL0     H68010   8.372   5.518   7.597 -0.3467  0.1935  0.0751
  504MOL0     H68011   8.438   5.353   7.596 -0.0416  0.7164  0.4782
  504MOL0     H68012   8.505   5.553   7.386 -0.4448 -0.2140  1.4395
  504MOL0     H68013   8.408   5.409   7.367 -1.1861 -0.1981  1.2047
  504MOL0     H68014   8.713   5.384   7.439  2.3155  0.1491 -1.8625
  504MOL0     H68015   8.592   5.262   7.382  0.0651 -0.5614 -2.4534
  504MOL0     H68016   8.773   5.389   7.208 -0.5451 -0.2679 -2.9069
  504MOL0     H68017   8.655   5.525   7.234 -2.8171 -0.3204  0.4397
  504MOL0     H68018   8.628   5.236   7.131 -0.7899  0.2115 -3.1629
  504MOL0     H68019   8.495   5.343   7.144 -0.1271 -3.0114  0.3261
  504MOL0     H68020   8.852   5.550   8.055  0.7528  1.8619  0.4070
  504MOL0     H68021   8.978   5.634   8.245  1.2412 -0.5620 -4.0876
  504MOL0     H68022   8.954   5.616   8.787 -1.6493 -0.9495  0.1075
  504MOL0     H68023   9.070   5.746   8.983 -1.0737 -1.7217  0.0770
  504MOL0     H68024   9.180   6.712   7.766 -0.6300 -2.6997 -0.3061
  504MOL0     H68025   9.182   6.586   7.563  0.1517 -0.3795 -1.8927
  504MOL0     H68026   9.508   6.262   7.339  0.6786 -2.1675  1.7870
  504MOL0     H68027   9.562   6.092   7.188  0.3170  2.2537 -0.0137
  504MOL0     H68028   9.290   5.787   7.093  0.2166  1.6331  1.7547
  504MOL0     H68029   9.449   5.798   7.173 -1.7509  3.2524  2.6949
  504MOL0     H68030   9.537   5.806   6.932  2.3193 -2.3736 -2.0763
  504MOL0     H68031   9.379   5.732   6.889  1.0656 -3.2355 -0.8574
  504MOL0     H68032   9.537   5.547   6.903  1.0347  1.3222  0.0435
  504MOL0     H68033   9.430   5.542   7.052 -0.4064  1.3572  1.2697
  504MOL0     H68034   9.702   5.682   7.080 -0.1068 -0.4105 -1.7360
  504MOL0     H68035   9.597   5.631   7.200  1.5172  2.4849  0.7614
  504MOL0     H68036   9.820   5.284   7.105 -0.0083 -0.1172 -0.4187
  504MOL0     H68037   9.146   5.985   7.154  0.7790 -1.2676  0.7698
  504MOL0     H68038   9.034   6.161   7.431 -1.5680 -0.1080  0.4264
  504MOL0     H68039   9.007   6.260   7.288  0.1817  1.1484  1.0827
  504MOL0     H68040   8.996   6.072   7.280  0.7316  0.0968 -1.5190
  505MOL0     O68041   3.554   8.582   1.595  0.2559 -0.3469 -0.6962
  505MOL0     C68042   3.441   8.544   1.618  0.5918 -0.4093  0.5631
  505MOL0     O68043   3.371   8.446   1.545  0.2912  0.0485 -0.5126
  505MOL0     C68044   3.415   8.400   1.424 -0.9857  0.0730 -0.0056
  505MOL0     C68045   3.403   8.481   1.311 -0.0775 -0.1254  0.5333
  505MOL0     C68046   3.428   8.446   1.176  0.0906  0.1544  1.0768
  505MOL0     C68047   3.479   8.314   1.159 -0.5846  0.2282  0.1686
  505MOL0     O68048   3.521   8.260   1.039 -0.2047 -0.1881 -0.1525
  505MOL0     C68049   3.547   8.345   0.920 -0.0103  1.5658  0.6644
  505MOL0     C68050   3.559   8.259   0.800 -0.4879  0.1347  0.3519
  505MOL0     C68051   3.428   8.195   0.758  0.4445  0.2677  0.2059
  505MOL0     C68052   3.399   8.258   0.616  0.1097  0.4706  0.8569
  505MOL0     C68053   3.260   8.217   0.558 -0.7305  0.1630 -0.0490
  505MOL0     C68054   3.161   8.313   0.622  0.4967  0.8417 -1.0889
  505MOL0     C68055   3.023   8.284   0.563  0.1582  0.2322 -0.3699
  505MOL0     C68056   2.918   8.332   0.664 -0.2166  1.2729  0.0750
  505MOL0     N68057   2.779   8.335   0.614 -0.0424 -0.0061 -0.1594
  505MOL0     C68058   2.715   8.226   0.557 -0.0537  0.3584 -0.8131
  505MOL0     C68059   2.586   8.245   0.561 -0.2559  0.4614  1.4260
  505MOL0     C68060   2.471   8.163   0.511 -0.1348 -0.0580  0.2823
  505MOL0     C68061   2.367   8.143   0.622  0.4384  0.5759 -0.6149
  505MOL0     C68062   2.247   8.062   0.574  0.1570  0.0055  0.2531
  505MOL0     C68063   2.123   8.086   0.665  0.3068  0.4146  0.3485
  505MOL0     O68064   2.064   8.218   0.654  0.0170 -0.1099 -0.1944
  505MOL0     C68065   1.981   8.245   0.548 -0.7472  0.2730  0.3916
  505MOL0     C68066   1.963   8.167   0.433 -0.4193 -0.4053  0.3847
  505MOL0     C68067   1.875   8.212   0.330  0.0218  0.9728  0.1030
  505MOL0     C68068   1.814   8.339   0.340  0.2600 -0.3080 -0.5289
  505MOL0     C68069   1.721   8.403   0.234  0.8303 -1.4020  0.5845
  505MOL0     O68070   1.640   8.509   0.276  0.0467  0.2059  0.2314
  505MOL0     C68071   1.551   8.569   0.190 -0.6609  1.0947  0.7219
  505MOL0     C68072   1.589   8.653   0.088 -1.3239 -0.1061  0.6700
  505MOL0     C68073   1.504   8.694  -0.014  1.3344 -0.8889 -0.5810
  505MOL0     C68074   1.375   8.647  -0.014  0.9911  0.2097  0.6544
  505MOL0     O68075   1.297   8.712  -0.109 -0.1154  0.0741 -0.3291
  505MOL0     C68076   1.165   8.660  -0.138 -0.1771 -0.1684 -0.1448
  505MOL0     C68077   1.125   8.704  -0.276  0.0035 -0.7767  0.5051
  505MOL0     C68078   1.122   8.858  -0.281  0.0635 -0.0194  0.4832
  505MOL0     C68079   1.058   8.911  -0.406 -0.2514 -0.2070 -0.7911
  505MOL0     C68080   1.055   9.061  -0.398 -0.3903  0.1105 -0.3333
  505MOL0     C68081   0.979   9.128  -0.516 -1.0340 -0.5820  0.4912
  505MOL0     C68082   0.963   9.266  -0.470  0.0283  0.0504 -0.5644
  505MOL0     C68083   0.882   9.338  -0.573  0.4509  0.6238  1.0352
  505MOL0    Cl68084   0.884   9.517  -0.535 -0.3858  0.2613  0.4329
  505MOL0     C68085   1.325   8.556   0.086 -0.3181 -0.5415 -0.8860
  505MOL0     C68086   1.415   8.516   0.190 -0.5107 -1.1635  0.6976
  505MOL0     O68087   1.713   8.355   0.126  0.0626  0.6848 -0.4934
  505MOL0     C68088   1.821   8.410   0.463 -0.8422  0.3384  0.2287
  505MOL0     C68089   1.910   8.361   0.559 -0.3847  0.4945 -0.4120
  505MOL0     N68090   2.571   8.371   0.615 -0.8996 -0.3397 -0.7941
  505MOL0     N68091   2.690   8.431   0.636  0.2058  0.3540 -0.4624
  505MOL0     C68092   3.492   8.232   1.266  0.9359  0.6350 -1.1909
  505MOL0     C68093   3.458   8.268   1.394 -1.5397 -0.5626 -0.1686
  505MOL0     C68094   3.373   8.598   1.730 -0.7113 -0.2045  0.0304
  505MOL0     C68095   3.263   8.527   1.785  0.5304 -0.4833  0.2691
  505MOL0     C68096   3.207   8.579   1.901  0.5605  0.8192 -0.6357
  505MOL0     C68097   3.242   8.705   1.957 -0.4446  0.2049 -0.3069
  505MOL0     O68098   3.174   8.726   2.067  0.5981 -0.3536 -0.4917
  505MOL0     C68099   3.192   8.845   2.139 -0.0187 -0.1999 -0.4917
  505MOL0     C68100   3.320   8.831   2.217  0.7607  0.3480  1.0905
  505MOL0     C68101   3.301   8.745   2.346 -1.2578  1.5561 -0.6835
  505MOL0     C68102   3.286   8.596   2.314 -0.0294  1.3642 -0.0481
  505MOL0     C68103   3.304   8.518   2.443  0.0900 -0.6434 -0.5661
  505MOL0     C68104   3.320   8.456   2.541 -0.3386 -0.5450 -0.0867
  505MOL0     C68105   3.338   8.778   1.891  0.0397 -0.7853 -0.1238
  505MOL0     C68106   3.403   8.725   1.774 -0.8527 -0.7440 -0.5433
  505MOL0     C68107   3.498   8.828   1.707  0.8020 -0.1624 -0.7624
  505MOL0     H68108   3.372   8.584   1.325 -1.3280  0.0211 -2.4609
  505MOL0     H68109   3.404   8.520   1.101 -1.2778 -0.4227  0.9024
  505MOL0     H68110   3.470   8.422   0.907 -0.6442  1.0313  1.1912
  505MOL0     H68111   3.642   8.394   0.943  0.5033  1.3653 -0.8935
  505MOL0     H68112   3.619   8.170   0.821  0.6628  0.7719 -0.1596
  505MOL0     H68113   3.602   8.321   0.720  1.3556 -1.5561 -0.0575
  505MOL0     H68114   3.347   8.232   0.821 -0.9796 -1.2246 -0.6629
  505MOL0     H68115   3.426   8.086   0.745  0.2847  0.1489  1.1497
  505MOL0     H68116   3.418   8.366   0.620  6.0176 -0.1850 -0.1783
  505MOL0     H68117   3.479   8.226   0.549 -0.5126  0.5482  0.0702
  505MOL0     H68118   3.263   8.229   0.450 -0.5037 -4.0627 -0.6649
  505MOL0     H68119   3.237   8.113   0.583 -0.6805  0.1802  0.0676
  505MOL0     H68120   3.159   8.295   0.730 -2.2429 -0.1932 -1.2114
  505MOL0     H68121   3.186   8.419   0.610  0.2527  0.8224 -1.8093
  505MOL0     H68122   3.004   8.179   0.543 -1.5058  0.1000  1.6088
  505MOL0     H68123   3.024   8.339   0.468  2.6145  1.7201  0.4003
  505MOL0     H68124   2.923   8.263   0.748  2.0746 -2.1872 -2.6537
  505MOL0     H68125   2.938   8.429   0.712  3.1249 -1.3927  4.9045
  505MOL0     H68126   2.756   8.134   0.517 -3.6565 -1.2517 -1.2017
  505MOL0     H68127   2.436   8.220   0.425  2.9644  3.4932  1.1195
  505MOL0     H68128   2.509   8.068   0.471 -0.1147 -0.3245  0.9096
  505MOL0     H68129   2.420   8.095   0.705 -1.3185  0.3655  0.4312
  505MOL0     H68130   2.330   8.239   0.660 -0.7091  0.2838 -0.9780
  505MOL0     H68131   2.265   7.954   0.582  1.7509  0.2214  0.0724
  505MOL0     H68132   2.229   8.074   0.467 -0.3851  1.1742  0.4661
  505MOL0     H68133   2.165   8.082   0.766 -0.8218  1.1945  0.8649
  505MOL0     H68134   2.046   8.010   0.680  1.4888 -0.9423 -0.1826
  505MOL0     H68135   2.017   8.072   0.427  0.9303  0.3809 -0.4898
  505MOL0     H68136   1.868   8.156   0.237 -2.4052 -1.6844  1.7216
  505MOL0     H68137   1.695   8.674   0.077 -1.6202  0.5196 -1.5540
  505MOL0     H68138   1.536   8.764  -0.090 -1.8260  2.2188  0.6967
  505MOL0     H68139   1.161   8.551  -0.143  1.8587 -0.3291  0.8364
  505MOL0     H68140   1.094   8.695  -0.062  0.8924  0.8378  0.4383
  505MOL0     H68141   1.195   8.660  -0.348 -1.3607 -3.4896  0.6817
  505MOL0     H68142   1.022   8.672  -0.291 -0.9253  2.5019 -0.9589
  505MOL0     H68143   1.067   8.894  -0.194  1.5607  1.1451  0.9983
  505MOL0     H68144   1.217   8.909  -0.263  1.7593 -2.6969 -0.3194
  505MOL0     H68145   0.957   8.873  -0.425 -1.2529  1.2863  1.3050
  505MOL0     H68146   1.126   8.886  -0.489  0.0486 -2.5124  0.0664
  505MOL0     H68147   1.155   9.104  -0.387  0.2249 -1.8683  4.1874
  505MOL0     H68148   0.999   9.083  -0.306 -3.1492 -2.4366 -1.2469
  505MOL0     H68149   1.030   9.108  -0.611 -4.0920  2.0354 -1.9275
  505MOL0     H68150   0.877   9.091  -0.530 -2.3711  2.5793  0.8908
  505MOL0     H68151   1.061   9.314  -0.460  0.0048 -0.0515  0.2685
  505MOL0     H68152   0.907   9.267  -0.376 -0.5059 -3.1188 -0.7495
  505MOL0     H68153   0.934   9.318  -0.667 -0.0441 -0.0791  0.9035
  505MOL0     H68154   0.776   9.316  -0.591  0.7239 -0.2686  0.5212
  505MOL0     H68155   1.222   8.522   0.092 -1.4286  2.0358 -3.0484
  505MOL0     H68156   1.391   8.444   0.267 -2.0416 -0.1756  1.1918
  505MOL0     H68157   1.764   8.501   0.476 -1.7522  0.0444 -1.4429
  505MOL0     H68158   1.911   8.410   0.656  1.6609 -0.9939  0.3816
  505MOL0     H68159   3.519   8.127   1.259 -3.7141 -0.7870 -1.1504
  505MOL0     H68160   3.460   8.200   1.478 -2.8418 -1.5140 -0.8751
  505MOL0     H68161   3.234   8.434   1.738  0.4946 -0.0557 -0.5636
  505MOL0     H68162   3.128   8.522   1.948  1.7953  0.3624  0.9908
  505MOL0     H68163   3.098   8.856   2.194 -0.8075 -1.6582 -1.4908
  505MOL0     H68164   3.202   8.930   2.071  5.0142  0.2005  0.3570
  505MOL0     H68165   3.354   8.933   2.233  0.3601  0.6558  0.0273
  505MOL0     H68166   3.393   8.779   2.155 -1.1871 -3.6037  1.7595
  505MOL0     H68167   3.215   8.766   2.409  0.3191 -0.3045  2.2845
  505MOL0     H68168   3.389   8.758   2.410 -3.1652  0.6365  2.2911
  505MOL0     H68169   3.186   8.581   2.273  0.3280 -1.2690 -0.1699
  505MOL0     H68170   3.369   8.564   2.249  0.0053  0.5111  0.3971
  505MOL0     H68171   3.351   8.400   2.627  3.1864 -0.4319 -1.1241
  505MOL0     H68172   3.348   8.880   1.927 -3.5291 -0.7085  1.0122
  505MOL0     H68173   3.598   8.799   1.742 -0.1718 -3.0632 -0.0674
  505MOL0     H68174   3.492   8.832   1.598 -0.5120 -1.8332 -0.8011
  505MOL0     H68175   3.468   8.927   1.740  1.6747  0.2885 -1.2917
  506MOL0     O68176   0.258   9.883   7.969 -0.2188 -0.4467 -0.1762
  506MOL0     C68177   0.164   9.899   8.049 -0.5452 -0.1610 -0.2255
  506MOL0     O68178   0.092  10.018   8.056 -0.0723 -0.9676 -0.3599
  506MOL0     C68179   0.134  10.118   7.967 -0.2692 -0.6048 -0.7006
  506MOL0     C68180   0.081  10.132   7.839 -0.4322 -0.1122  0.1079
  506MOL0     C68181   0.126  10.225   7.751 -0.2068 -0.2409 -0.4090
  506MOL0     C68182   0.236  10.311   7.783 -0.3666  0.8988  0.2518
  506MOL0     O68183   0.290  10.384   7.677 -0.5142 -0.6580 -0.0890
  506MOL0     C68184   0.368  10.497   7.724  0.2393  0.0103 -0.7353
  506MOL0     C68185   0.372  10.609   7.611 -0.2761 -0.0518  0.0710
  506MOL0     C68186   0.397  10.560   7.469  0.1541  0.7531  1.0855
  506MOL0     C68187   0.541  10.511   7.446 -0.0165 -1.0230 -0.0139
  506MOL0     C68188   0.571  10.451   7.302  0.4158 -0.6530  0.9409
  506MOL0     C68189   0.619  10.309   7.308  0.3272 -0.2493  0.1728
  506MOL0     C68190   0.771  10.309   7.353  0.7848  0.4616  0.8388
  506MOL0     C68191   0.869  10.303   7.231 -0.6188 -1.3305 -0.0721
  506MOL0     N68192   0.864  10.421   7.146 -0.5776 -0.5803 -0.4038
  506MOL0     C68193   0.943  10.537   7.163 -0.1297  0.3282  0.2074
  506MOL0     C68194   0.937  10.604   7.047 -0.2266  0.4847  0.1269
  506MOL0     C68195   1.000  10.740   7.010 -0.5176 -0.1180 -0.0891
  506MOL0     C68196   0.893  10.853   7.016 -0.0500 -0.3023 -0.9013
  506MOL0     C68197   0.943  10.976   7.095  0.1873  0.5646 -0.2493
  506MOL0     C68198   1.049  11.052   7.011  0.2441  0.3266 -0.1721
  506MOL0     O68199   1.152  10.976   6.975 -0.2230 -0.3117 -0.3309
  506MOL0     C68200   1.257  11.033   6.909 -1.2229  0.3431 -0.0113
  506MOL0     C68201   1.375  10.951   6.892 -0.3700 -0.2031 -0.3105
  506MOL0     C68202   1.476  10.995   6.808 -0.9425  0.1971 -0.4380
  506MOL0     C68203   1.474  11.118   6.743  0.0196 -0.0045  1.0976
  506MOL0     C68204   1.581  11.148   6.639 -0.6313  1.2707 -0.3069
  506MOL0     O68205   1.694  11.072   6.633  1.1057 -0.2193  0.0365
  506MOL0     C68206   1.779  11.101   6.527 -0.7715  0.7469  0.6753
  506MOL0     C68207   1.758  11.114   6.391  0.0812 -1.0642  0.7680
  506MOL0     C68208   1.870  11.120   6.304  0.4612  0.0950 -0.7111
  506MOL0     C68209   2.001  11.102   6.349  0.6592  0.9561 -0.8663
  506MOL0     O68210   2.112  11.096   6.260 -0.1503 -0.2974 -0.4293
  506MOL0     C68211   2.158  11.227   6.215 -0.0704 -0.1163 -0.2488
  506MOL0     C68212   2.305  11.240   6.254  0.1932 -1.2251 -0.9724
  506MOL0     C68213   2.370  11.360   6.179  0.8469 -0.5120 -0.6193
  506MOL0     C68214   2.412  11.328   6.039  0.0218  0.0568 -0.1696
  506MOL0     C68215   2.469  11.447   5.967 -0.1965 -0.1422 -0.0732
  506MOL0     C68216   2.599  11.512   6.024  0.1306 -0.4317 -0.6224
  506MOL0     C68217   2.657  11.634   5.949 -1.0962  0.3008  0.1924
  506MOL0     C68218   2.797  11.674   6.019  0.7278  0.9635  0.0760
  506MOL0    Cl68219   2.756  11.729   6.197  0.0369  0.5920 -0.4607
  506MOL0     C68220   2.020  11.091   6.486 -0.8063  0.0244 -0.1111
  506MOL0     C68221   1.906  11.089   6.571 -0.3843  0.8933  0.0446
  506MOL0     O68222   1.558  11.252   6.578 -0.2120  0.1693  0.9012
  506MOL0     C68223   1.367  11.202   6.767  0.0405 -0.2370 -0.0895
  506MOL0     C68224   1.261  11.160   6.856  0.5224 -0.2239 -0.1464
  506MOL0     N68225   0.855  10.531   6.964 -0.1471  0.4090 -0.9516
  506MOL0     N68226   0.802  10.431   7.031 -0.7168  0.0334 -0.6069
  506MOL0     C68227   0.281  10.307   7.917 -1.0429 -0.2246 -0.2940
  506MOL0     C68228   0.236  10.207   8.000  0.0043  0.1833  0.2099
  506MOL0     C68229   0.132   9.793   8.148 -0.6395  0.4203 -0.0821
  506MOL0     C68230   0.234   9.690   8.163  0.3850  0.2610  0.4466
  506MOL0     C68231   0.208   9.580   8.248  0.7962 -0.7066 -0.3173
  506MOL0     C68232   0.083   9.570   8.310  0.3673  0.1633  0.3739
  506MOL0     O68233   0.039   9.460   8.376  0.3235 -0.1688 -0.5170
  506MOL0     C68234   0.138   9.371   8.430  0.8797  0.2020  0.6491
  506MOL0     C68235   0.219   9.451   8.533 -0.0280  0.3934 -0.4829
  506MOL0     C68236   0.325   9.372   8.603  0.0208 -0.2850 -0.5492
  506MOL0     C68237   0.416   9.449   8.695 -0.6232  0.0614  0.2363
  506MOL0     C68238   0.517   9.359   8.755  1.1709 -0.2965  0.2110
  506MOL0     C68239   0.608   9.305   8.809  0.3310  0.6706  0.1995
  506MOL0     C68240  -0.008   9.677   8.309  0.0745  0.0213  0.3233
  506MOL0     C68241   0.011   9.791   8.227  1.0859  1.1679 -0.0605
  506MOL0     C68242  -0.098   9.898   8.218  0.5546 -1.1808 -0.2435
  506MOL0     H68243   0.009  10.059   7.804 -0.5081 -1.0474  2.0820
  506MOL0     H68244   0.086  10.211   7.651  0.8961 -2.2344 -0.6110
  506MOL0     H68245   0.307  10.540   7.804 -1.3345 -0.0810 -1.8494
  506MOL0     H68246   0.464  10.460   7.761  0.0848 -1.9752 -2.1746
  506MOL0     H68247   0.442  10.689   7.638 -0.2367  0.0089 -0.2033
  506MOL0     H68248   0.269  10.645   7.624 -1.3890 -2.9561  0.0339
  506MOL0     H68249   0.380  10.644   7.402  2.6554  1.0045  0.6391
  506MOL0     H68250   0.336  10.469   7.461  0.4530  0.1473  4.2564
  506MOL0     H68251   0.604  10.597   7.472 -2.8778  1.5567 -1.0329
  506MOL0     H68252   0.554  10.431   7.519 -1.3514  0.3279  1.7957
  506MOL0     H68253   0.481  10.468   7.242 -0.1892  2.5727  2.5450
  506MOL0     H68254   0.646  10.507   7.244 -0.8557 -0.9370 -1.0869
  506MOL0     H68255   0.555  10.259   7.381 -1.0715 -0.7604 -1.3366
  506MOL0     H68256   0.617  10.243   7.221  1.1051 -1.7834  1.2889
  506MOL0     H68257   0.776  10.217   7.411  2.8691  0.7041  1.1203
  506MOL0     H68258   0.794  10.387   7.427  1.1880  0.8213  0.3437
  506MOL0     H68259   0.967  10.274   7.269  0.1774 -0.1929 -1.1634
  506MOL0     H68260   0.843  10.223   7.161  1.0277 -2.1816  0.2449
  506MOL0     H68261   0.991  10.581   7.250 -2.5955  1.0486  1.2796
  506MOL0     H68262   1.073  10.769   7.086 -0.0254  2.1618 -1.3316
  506MOL0     H68263   1.052  10.741   6.914  2.4235  3.7229  1.2809
  506MOL0     H68264   0.848  10.877   6.920 -0.2771  0.5133 -0.5992
  506MOL0     H68265   0.811  10.810   7.074  0.1909 -2.5103 -2.1075
  506MOL0     H68266   0.981  10.933   7.188  1.1914  1.0801 -0.4042
  506MOL0     H68267   0.860  11.039   7.128 -1.0439 -0.1684 -1.8597
  506MOL0     H68268   1.082  11.141   7.066 -0.6844 -0.0820  1.0829
  506MOL0     H68269   0.996  11.074   6.918  4.1291  1.3528 -2.3813
  506MOL0     H68270   1.365  10.850   6.932  1.6235 -0.1976  0.3046
  506MOL0     H68271   1.558  10.924   6.805 -2.5466 -1.7198 -1.4779
  506MOL0     H68272   1.659  11.121   6.348  1.5877  0.8275 -2.7820
  506MOL0     H68273   1.865  11.126   6.196 -1.3734 -2.9578 -0.9248
  506MOL0     H68274   2.168  11.226   6.106  0.5195 -3.0859 -0.2478
  506MOL0     H68275   2.095  11.307   6.255  0.0084 -0.2783  0.2132
  506MOL0     H68276   2.317  11.259   6.361 -2.3700 -1.1210 -0.6542
  506MOL0     H68277   2.367  11.153   6.226  1.8649 -0.2844 -0.3561
  506MOL0     H68278   2.298  11.442   6.178  1.0578 -0.0737  3.3705
  506MOL0     H68279   2.461  11.389   6.233  0.4122 -0.5062  0.1251
  506MOL0     H68280   2.323  11.300   5.982 -0.2644 -1.7628  1.0817
  506MOL0     H68281   2.483  11.245   6.044  2.5948  2.1742  0.1070
  506MOL0     H68282   2.387  11.519   5.980  1.1830  1.3500  0.7219
  506MOL0     H68283   2.480  11.420   5.862  0.4706  0.6663 -0.2197
  506MOL0     H68284   2.580  11.539   6.128 -3.5502  1.0318 -1.5333
  506MOL0     H68285   2.669  11.429   6.036  1.8978  0.6236 -2.8546
  506MOL0     H68286   2.591  11.719   5.968 -2.5529 -0.7026 -0.1591
  506MOL0     H68287   2.655  11.611   5.842 -0.9995 -0.3840  0.3351
  506MOL0     H68288   2.869  11.592   6.018  0.7198  0.9478 -1.1774
  506MOL0     H68289   2.842  11.759   5.967 -3.3381  2.0464 -2.1804
  506MOL0     H68290   2.120  11.082   6.525 -0.9917 -2.7469 -0.1153
  506MOL0     H68291   1.935  11.087   6.676  0.1833  1.8243 -0.0842
  506MOL0     H68292   1.340  11.297   6.724  0.2784  0.0685  0.4285
  506MOL0     H68293   1.174  11.226   6.858  2.4640  2.5831 -1.1163
  506MOL0     H68294   0.357  10.380   7.942 -0.2360 -0.2660 -2.3565
  506MOL0     H68295   0.279  10.193   8.099 -1.9393 -0.6264  0.9962
  506MOL0     H68296   0.328   9.722   8.118 -0.0999  0.3725 -0.5117
  506MOL0     H68297   0.283   9.503   8.237  2.1083  0.7824 -2.4664
  506MOL0     H68298   0.194   9.316   8.354 -2.5628 -1.8480 -0.6695
  506MOL0     H68299   0.075   9.299   8.484 -0.8944  2.6070  1.9472
  506MOL0     H68300   0.146   9.491   8.604 -4.0012 -2.7190 -2.3827
  506MOL0     H68301   0.273   9.533   8.486 -3.0629  0.9305 -3.4745
  506MOL0     H68302   0.392   9.333   8.526  1.1556 -0.3694  0.4507
  506MOL0     H68303   0.275   9.299   8.665 -0.5713  0.7418  0.2160
  506MOL0     H68304   0.451   9.541   8.647 -0.3165  0.3855  1.0598
  506MOL0     H68305   0.359   9.487   8.781 -1.7128 -2.8773  0.9455
  506MOL0     H68306   0.687   9.260   8.866  2.3892  1.3455 -1.9957
  506MOL0     H68307  -0.090   9.671   8.380  0.3764  1.6742  0.8685
  506MOL0     H68308  -0.178   9.881   8.291  0.0007 -2.2086 -1.0437
  506MOL0     H68309  -0.058   9.992   8.255 -3.2925 -0.4494  2.6864
  506MOL0     H68310  -0.137   9.900   8.115 -2.1174 -1.0944  0.6911
  507MOL0     O68311   8.467   7.378   8.287  0.0157  0.0702  0.4988
  507MOL0     C68312   8.566   7.390   8.357 -0.0435 -0.5847  1.4749
  507MOL0     O68313   8.615   7.515   8.396  0.0961 -0.2211 -0.3283
  507MOL0     C68314   8.573   7.643   8.358  0.2718 -0.5621  0.5572
  507MOL0     C68315   8.461   7.673   8.287 -0.6088  0.6307  0.8533
  507MOL0     C68316   8.419   7.797   8.257 -0.5729 -0.3405 -0.3732
  507MOL0     C68317   8.500   7.910   8.300  0.5367 -0.4885  0.4289
  507MOL0     O68318   8.478   8.047   8.273  0.2507  0.1833  0.0314
  507MOL0     C68319   8.364   8.085   8.191 -0.5842 -0.5060  1.3944
  507MOL0     C68320   8.378   8.237   8.150 -0.3712  0.4139  0.5094
  507MOL0     C68321   8.360   8.331   8.269  0.5559  0.0045  0.7049
  507MOL0     C68322   8.218   8.337   8.331 -0.3666 -0.4876 -0.3190
  507MOL0     C68323   8.195   8.429   8.447  0.1521 -0.8865 -0.3531
  507MOL0     C68324   8.254   8.390   8.580  0.0129 -0.6810  0.0405
  507MOL0     C68325   8.196   8.489   8.687  0.4295 -0.3474  0.6950
  507MOL0     C68326   8.054   8.464   8.730 -0.2497  0.2575  1.1107
  507MOL0     N68327   8.022   8.501   8.866  0.6716 -1.0497 -0.0278
  507MOL0     C68328   8.095   8.586   8.943 -0.3503  0.2480  0.0662
  507MOL0     C68329   8.008   8.627   9.037  0.7936  0.6901  0.6502
  507MOL0     C68330   8.049   8.719   9.150 -0.8177 -0.2952 -0.2097
  507MOL0     C68331   8.047   8.865   9.112  0.3458  0.5004 -0.0422
  507MOL0     C68332   7.891   8.911   9.117 -0.1876 -0.3048  0.6535
  507MOL0     C68333   7.879   9.066   9.101  0.2888 -0.5294  0.0721
  507MOL0     O68334   7.965   9.124   8.999  0.3344 -0.3152 -0.2238
  507MOL0     C68335   8.082   9.186   9.036 -0.0556 -0.2502 -0.2040
  507MOL0     C68336   8.157   9.178   9.161 -0.4207 -0.0549  0.5191
  507MOL0     C68337   8.294   9.241   9.166 -0.1371 -0.3691  0.4774
  507MOL0     C68338   8.347   9.300   9.043  1.3868 -1.1923 -0.0293
  507MOL0     C68339   8.478   9.352   9.045 -0.8980 -0.4867  0.3434
  507MOL0     O68340   8.521   9.416   9.156 -0.2278 -0.3164 -0.3873
  507MOL0     C68341   8.622   9.508   9.141  0.5745  0.3627 -0.5075
  507MOL0     C68342   8.720   9.508   9.235 -0.7312 -0.8058 -0.1576
  507MOL0     C68343   8.828   9.603   9.209  0.3589  0.4921  0.4279
  507MOL0     C68344   8.819   9.713   9.118  1.0895  0.6742  1.0845
  507MOL0     O68345   8.912   9.813   9.105  0.3224  0.8437  0.0665
  507MOL0     C68346   8.872   9.936   9.156  0.0663  0.2978 -0.2405
  507MOL0     C68347   8.967   9.967   9.282 -0.5295 -0.0789  0.7597
  507MOL0     C68348   9.112   9.952   9.261 -0.3097 -0.0766 -0.3819
  507MOL0     C68349   9.162   9.999   9.397  2.2004  0.3560  1.2742
  507MOL0     C68350   9.307   9.964   9.398 -0.0292  0.4072 -0.1439
  507MOL0     C68351   9.400  10.037   9.301  0.8631  0.2710  0.4097
  507MOL0     C68352   9.410   9.963   9.166  1.3709 -0.0827 -0.0069
  507MOL0     C68353   9.552   9.958   9.111 -0.3903  0.0372 -1.1189
  507MOL0    Cl68354   9.551   9.841   8.973 -0.2597  0.1218  0.2261
  507MOL0     C68355   8.706   9.706   9.026  0.0159 -0.0416 -0.5391
  507MOL0     C68356   8.611   9.605   9.039 -0.4225  0.1731 -0.0615
  507MOL0     O68357   8.552   9.340   8.943 -0.0109  0.2001 -0.8070
  507MOL0     C68358   8.269   9.296   8.921 -0.5105  0.3559  0.1182
  507MOL0     C68359   8.138   9.245   8.928 -0.0449  1.1447  0.9395
  507MOL0     N68360   7.881   8.561   9.012 -0.3722  0.1291 -0.4516
  507MOL0     N68361   7.899   8.495   8.908  0.0498  0.4218  0.6638
  507MOL0     C68362   8.608   7.889   8.377  0.4341 -0.3709  0.4124
  507MOL0     C68363   8.649   7.750   8.404 -1.1540  0.1459 -0.3439
  507MOL0     C68364   8.649   7.269   8.398 -0.3533  0.4661  0.2633
  507MOL0     C68365   8.724   7.288   8.515  0.4006  0.8148  0.9068
  507MOL0     C68366   8.771   7.180   8.585  0.6741 -0.4026  0.6864
  507MOL0     C68367   8.743   7.048   8.552  0.1660  0.3815 -0.4238
  507MOL0     O68368   8.799   6.944   8.625  0.7246 -0.2301  0.3649
  507MOL0     C68369   8.701   6.849   8.658 -0.3622  1.4611 -0.2995
  507MOL0     C68370   8.677   6.866   8.809  0.1916 -0.1505  1.1611
  507MOL0     C68371   8.582   6.975   8.853  0.2584  0.1245  0.3092
  507MOL0     C68372   8.611   7.025   8.996  0.1391 -0.4026  0.9053
  507MOL0     C68373   8.518   7.134   9.031 -0.1841  0.3547  0.5850
  507MOL0     C68374   8.446   7.216   9.075  1.4705  0.1915 -0.3337
  507MOL0     C68375   8.678   7.029   8.430  0.2975 -0.5207  0.0081
  507MOL0     C68376   8.627   7.137   8.355 -0.4078  0.2703 -0.9194
  507MOL0     C68377   8.541   7.103   8.226 -0.1148 -1.0450  0.3921
  507MOL0     H68378   8.391   7.596   8.256 -1.8143  1.8665  0.4185
  507MOL0     H68379   8.325   7.819   8.208 -1.1514  2.6848  1.7918
  507MOL0     H68380   8.363   8.017   8.105  2.8538  0.6521  0.2507
  507MOL0     H68381   8.270   8.067   8.243 -1.0789 -2.7256 -0.1231
  507MOL0     H68382   8.308   8.266   8.071  0.4247 -0.6815 -0.6338
  507MOL0     H68383   8.479   8.254   8.110 -0.9684 -0.0534 -1.3085
  507MOL0     H68384   8.395   8.432   8.245 -2.2205  0.1105 -4.0320
  507MOL0     H68385   8.445   8.309   8.335  2.3786 -0.2665 -1.6281
  507MOL0     H68386   8.146   8.360   8.252 -1.0629  0.5161  0.5779
  507MOL0     H68387   8.196   8.233   8.359 -1.1161  0.2569  2.0598
  507MOL0     H68388   8.226   8.529   8.413 -1.2499 -0.4835 -0.5194
  507MOL0     H68389   8.090   8.458   8.464  1.1606  3.1946 -0.0577
  507MOL0     H68390   8.224   8.289   8.609 -0.9784  0.3200  2.9187
  507MOL0     H68391   8.361   8.404   8.560 -0.5399  2.2034 -1.5295
  507MOL0     H68392   8.211   8.597   8.676  2.5219 -0.5224  1.5012
  507MOL0     H68393   8.270   8.473   8.766  0.6431 -2.1969  0.1596
  507MOL0     H68394   7.983   8.515   8.665 -2.1939 -0.5685  2.4761
  507MOL0     H68395   8.038   8.355   8.727 -0.0144  0.2125  1.4428
  507MOL0     H68396   8.198   8.613   8.924 -0.7012  1.2119 -0.5043
  507MOL0     H68397   7.967   8.699   9.219 -0.8376 -0.3215 -0.2413
  507MOL0     H68398   8.142   8.705   9.205 -0.3640  0.7680 -0.6884
  507MOL0     H68399   8.091   8.926   9.193 -2.7526  0.1527  2.0773
  507MOL0     H68400   8.096   8.882   9.016  2.0983 -0.0157  0.7163
  507MOL0     H68401   7.829   8.876   9.200 -0.0494 -0.5183  0.6691
  507MOL0     H68402   7.833   8.868   9.034 -0.2467 -0.7926  0.9474
  507MOL0     H68403   7.900   9.111   9.199  2.1750 -1.5498  0.1850
  507MOL0     H68404   7.773   9.083   9.079  0.6977  0.3890 -1.3692
  507MOL0     H68405   8.125   9.139   9.258 -0.0837  0.8959  1.0201
  507MOL0     H68406   8.371   9.238   9.243  0.4317  1.2200  0.0037
  507MOL0     H68407   8.743   9.428   9.305  2.0491  1.2290  1.4609
  507MOL0     H68408   8.925   9.585   9.253 -0.6540 -0.6098  2.3905
  507MOL0     H68409   8.884  10.017   9.083  1.7172  0.1056 -0.2033
  507MOL0     H68410   8.771   9.929   9.198  0.3806  2.0498  0.9437
  507MOL0     H68411   8.930  10.055   9.335 -0.4751  0.5713 -0.2742
  507MOL0     H68412   8.937   9.890   9.355 -1.9314  0.3883  0.7155
  507MOL0     H68413   9.144   9.855   9.223 -2.4395 -0.6838 -0.7383
  507MOL0     H68414   9.139  10.023   9.182  2.4577 -0.8796 -0.2476
  507MOL0     H68415   9.111   9.951   9.481  2.7811 -2.3012  0.1969
  507MOL0     H68416   9.157  10.108   9.399 -3.0568  0.3362  1.0568
  507MOL0     H68417   9.306   9.856   9.387 -3.5466  0.5134 -2.3642
  507MOL0     H68418   9.348   9.991   9.496 -0.9592  0.9275  0.1112
  507MOL0     H68419   9.356  10.135   9.281 -0.2054  0.0710  1.7035
  507MOL0     H68420   9.501  10.047   9.343  2.0396  0.1871 -2.1445
  507MOL0     H68421   9.335  10.002   9.097  1.7849  0.3758 -0.2082
  507MOL0     H68422   9.390   9.856   9.178  1.1055 -0.1374 -0.8793
  507MOL0     H68423   9.592  10.059   9.099  2.8360 -0.7192  1.8277
  507MOL0     H68424   9.625   9.913   9.178  1.3445 -2.0007 -4.1279
  507MOL0     H68425   8.684   9.782   8.952  3.1795 -0.5571 -2.2164
  507MOL0     H68426   8.525   9.613   8.973  0.2113  0.2591 -0.8832
  507MOL0     H68427   8.309   9.330   8.826  2.3853  3.1095  2.1621
  507MOL0     H68428   8.074   9.247   8.841  0.2724  0.4902  0.6848
  507MOL0     H68429   8.668   7.970   8.419  0.3925 -1.8791  3.6720
  507MOL0     H68430   8.736   7.733   8.467  0.4538  2.0350 -1.8999
  507MOL0     H68431   8.727   7.384   8.566 -2.4990  0.4318  2.0418
  507MOL0     H68432   8.837   7.202   8.668  0.3954 -0.8638  1.0382
  507MOL0     H68433   8.757   6.755   8.660  0.8056  2.0535  3.2418
  507MOL0     H68434   8.611   6.852   8.596 -0.0173  3.7372 -0.7858
  507MOL0     H68435   8.772   6.876   8.863  0.6753 -1.5500  0.6201
  507MOL0     H68436   8.630   6.777   8.853  1.3796 -2.1165 -1.3322
  507MOL0     H68437   8.478   6.943   8.860 -0.5063  2.3330 -0.1082
  507MOL0     H68438   8.589   7.070   8.800 -2.0768 -1.3104 -2.8447
  507MOL0     H68439   8.608   6.947   9.072  2.0772 -1.4170  0.0141
  507MOL0     H68440   8.710   7.068   8.978  1.2933 -2.7205  1.3450
  507MOL0     H68441   8.378   7.291   9.110 -2.6483 -1.8341 -3.2387
  507MOL0     H68442   8.663   6.927   8.397  1.7811 -0.8385  0.2419
  507MOL0     H68443   8.555   7.014   8.163  1.8817  0.3168 -1.2215
  507MOL0     H68444   8.437   7.112   8.257 -0.5312  4.8590 -1.5402
  507MOL0     H68445   8.556   7.193   8.166 -0.0188 -0.7091  0.9209
  508MOL0     O68446   3.960   6.365   3.506 -0.7612  0.5795 -0.6225
  508MOL0     C68447   3.999   6.341   3.625  0.6402 -1.1199  0.7993
  508MOL0     O68448   4.125   6.361   3.672  0.1041 -0.3374  0.8207
  508MOL0     C68449   4.194   6.470   3.616  0.2253  0.5147  0.3144
  508MOL0     C68450   4.137   6.601   3.605  0.2831  0.0954  0.0393
  508MOL0     C68451   4.198   6.697   3.537  0.0158 -0.3213  0.2318
  508MOL0     C68452   4.328   6.672   3.477  0.3451  0.7021 -0.0665
  508MOL0     O68453   4.387   6.778   3.410  0.8565 -0.1418 -0.0701
  508MOL0     C68454   4.532   6.781   3.410 -0.4567  0.0693  0.8604
  508MOL0     C68455   4.590   6.830   3.276  0.0320 -0.7905  0.5141
  508MOL0     C68456   4.746   6.865   3.268  0.1178  0.7027  0.5224
  508MOL0     C68457   4.815   6.911   3.134  0.6172  0.0413 -0.5601
  508MOL0     C68458   4.747   7.031   3.073 -0.1777  0.0872  0.4414
  508MOL0     C68459   4.770   7.081   2.920 -0.3707  0.8639  0.9149
  508MOL0     C68460   4.677   7.192   2.871 -0.1812  0.6873 -0.2166
  508MOL0     C68461   4.557   7.142   2.784 -0.1561 -0.0228  0.2376
  508MOL0     N68462   4.439   7.148   2.869  0.9432  0.1969 -0.5923
  508MOL0     C68463   4.377   7.049   2.935 -0.0347  0.3218  1.3627
  508MOL0     C68464   4.267   7.103   2.997  0.1507 -0.3834  0.2923
  508MOL0     C68465   4.175   7.043   3.096  0.9863 -0.4919  0.4006
  508MOL0     C68466   4.231   7.023   3.231  0.3351 -0.7938  0.2779
  508MOL0     C68467   4.123   7.013   3.332  0.5574  0.2143 -0.6804
  508MOL0     C68468   4.173   7.050   3.470 -0.3375  0.1318 -0.2894
  508MOL0     O68469   4.084   7.005   3.573  0.6854 -0.9502 -0.9349
  508MOL0     C68470   3.954   7.050   3.581 -0.0259 -0.5926 -0.3637
  508MOL0     C68471   3.916   7.185   3.531  0.0586 -0.0324 -0.3150
  508MOL0     C68472   3.783   7.226   3.525  0.1677  0.2850  0.1992
  508MOL0     C68473   3.682   7.147   3.583 -0.2541  0.4085 -1.1386
  508MOL0     C68474   3.544   7.197   3.563  0.5087  0.1099 -0.1363
  508MOL0     O68475   3.446   7.109   3.603 -0.2809 -0.1499  0.0529
  508MOL0     C68476   3.334   7.121   3.531 -0.4524 -0.0246  0.9304
  508MOL0     C68477   3.237   7.217   3.571 -0.3296  1.1409 -0.4342
  508MOL0     C68478   3.134   7.250   3.484 -0.1017 -0.3980 -0.1462
  508MOL0     C68479   3.116   7.185   3.359 -0.0293  0.9494 -0.0699
  508MOL0     O68480   3.010   7.230   3.290 -0.5057  0.0086 -0.0727
  508MOL0     C68481   2.969   7.167   3.169 -0.7243  0.1934 -0.1260
  508MOL0     C68482   2.825   7.207   3.139 -0.3034  0.1526 -0.9059
  508MOL0     C68483   2.814   7.220   2.984  0.0962 -0.9850  0.4577
  508MOL0     C68484   2.871   7.101   2.909  0.0092 -0.5096  0.5714
  508MOL0     C68485   2.797   7.089   2.768 -0.2219 -0.0843  0.1062
  508MOL0     C68486   2.866   6.980   2.684  0.0619 -0.3386  0.3121
  508MOL0     C68487   2.884   6.847   2.758 -0.1201  0.1676 -0.2411
  508MOL0     C68488   2.934   6.736   2.661 -0.7068 -0.6431  0.1096
  508MOL0    Cl68489   2.990   6.602   2.758  0.8433  0.3432 -0.1219
  508MOL0     C68490   3.210   7.092   3.317  0.1069 -0.0300  0.4078
  508MOL0     C68491   3.318   7.070   3.400  0.9256  0.4683  0.9004
  508MOL0     O68492   3.522   7.300   3.499  0.4292 -0.1961 -0.8647
  508MOL0     C68493   3.711   7.020   3.647 -0.8646  0.4967 -0.5632
  508MOL0     C68494   3.848   6.976   3.646 -0.6097  0.4089  0.7546
  508MOL0     N68495   4.268   7.234   2.960 -0.5447  0.2461  0.2678
  508MOL0     N68496   4.368   7.260   2.879  0.1978 -0.6190 -0.6080
  508MOL0     C68497   4.389   6.542   3.500  0.9405 -0.6608 -0.2166
  508MOL0     C68498   4.318   6.445   3.566 -0.4301 -0.5854  0.0154
  508MOL0     C68499   3.890   6.296   3.719  0.3933 -1.1119  0.5843
  508MOL0     C68500   3.918   6.313   3.860 -0.8202 -0.1663 -0.1832
  508MOL0     C68501   3.805   6.299   3.949 -1.0860 -0.1567 -0.8607
  508MOL0     C68502   3.680   6.253   3.908 -0.2137 -1.0964  0.4495
  508MOL0     O68503   3.572   6.266   3.993  0.4208  0.0496  0.3140
  508MOL0     C68504   3.511   6.139   4.008  0.7796  0.0676  0.0539
  508MOL0     C68505   3.351   6.163   4.022 -0.4601 -0.1199  0.1250
  508MOL0     C68506   3.300   6.242   4.145 -0.1642  0.8361 -0.2404
  508MOL0     C68507   3.351   6.211   4.287  0.2174 -0.8967  0.0618
  508MOL0     C68508   3.285   6.294   4.385  0.2769  1.4424 -1.4062
  508MOL0     C68509   3.228   6.364   4.468 -0.2264  0.6968 -0.7993
  508MOL0     C68510   3.664   6.233   3.772 -0.2034  0.4706  0.1058
  508MOL0     C68511   3.764   6.240   3.679  0.7911 -0.2950 -1.1285
  508MOL0     C68512   3.730   6.206   3.534  0.1786  0.3296  0.0365
  508MOL0     H68513   4.038   6.616   3.646 -0.7425  0.3284 -2.3520
  508MOL0     H68514   4.163   6.798   3.515  0.6936  0.3460  2.0571
  508MOL0     H68515   4.570   6.843   3.492  2.5317  0.0363 -0.3519
  508MOL0     H68516   4.573   6.681   3.427 -0.8173 -0.4551 -1.0592
  508MOL0     H68517   4.537   6.918   3.238 -0.1374 -1.1154 -0.0186
  508MOL0     H68518   4.565   6.762   3.194  3.8582  1.4889 -2.9343
  508MOL0     H68519   4.801   6.776   3.300 -2.9218 -1.5981 -0.1712
  508MOL0     H68520   4.760   6.949   3.338 -1.3144  0.2619  1.3786
  508MOL0     H68521   4.921   6.928   3.152  0.1846  0.1895  2.3318
  508MOL0     H68522   4.798   6.824   3.069  1.0315  0.3487 -1.0869
  508MOL0     H68523   4.640   7.004   3.069 -0.3061  0.3159  1.9078
  508MOL0     H68524   4.752   7.117   3.139  1.7122  1.3362 -1.2256
  508MOL0     H68525   4.874   7.115   2.914 -0.9027  2.4083 -0.9744
  508MOL0     H68526   4.755   6.997   2.851  0.2344 -0.0322  1.8472
  508MOL0     H68527   4.732   7.254   2.800  1.6091  0.1906  0.6719
  508MOL0     H68528   4.642   7.254   2.954 -5.0898 -2.5949  0.5615
  508MOL0     H68529   4.545   7.211   2.700  3.4738  1.6530  0.9180
  508MOL0     H68530   4.571   7.039   2.750 -2.0746  0.1524 -1.2612
  508MOL0     H68531   4.405   6.945   2.947  0.2007 -0.1939 -2.4928
  508MOL0     H68532   4.084   7.104   3.107  2.5126  1.7868  1.0120
  508MOL0     H68533   4.135   6.947   3.061  0.6796 -0.3782  0.4280
  508MOL0     H68534   4.307   6.945   3.228  1.4265  0.2372  0.2658
  508MOL0     H68535   4.287   7.115   3.252  2.0799 -1.8832  0.5769
  508MOL0     H68536   4.069   6.918   3.329 -1.7765  1.1347  3.5426
  508MOL0     H68537   4.044   7.087   3.317  0.5529  0.3185 -0.1671
  508MOL0     H68538   4.190   7.157   3.464 -1.1243  0.5526  3.0358
  508MOL0     H68539   4.272   7.007   3.490 -0.7315 -2.9135 -3.7487
  508MOL0     H68540   3.991   7.238   3.473 -0.3458 -0.3144 -1.1219
  508MOL0     H68541   3.756   7.321   3.480  0.4110  0.0851 -0.3688
  508MOL0     H68542   3.242   7.275   3.663  1.5167  0.4943 -0.0875
  508MOL0     H68543   3.064   7.328   3.513  1.5791  0.6980  1.2469
  508MOL0     H68544   3.043   7.202   3.096 -2.9975  6.5789 -0.0521
  508MOL0     H68545   2.974   7.058   3.173 -0.7665  0.2106  0.5857
  508MOL0     H68546   2.752   7.133   3.175 -3.3923  2.7136 -1.4843
  508MOL0     H68547   2.814   7.306   3.184  0.2096  0.4592 -1.4463
  508MOL0     H68548   2.710   7.225   2.951  0.7332 -0.9754 -1.7128
  508MOL0     H68549   2.869   7.304   2.941 -1.6224  0.0881  0.2674
  508MOL0     H68550   2.844   7.009   2.962 -0.9895 -0.4111  0.2590
  508MOL0     H68551   2.980   7.100   2.903  0.0764 -3.5127  0.7343
  508MOL0     H68552   2.804   7.186   2.718 -0.8817 -0.1845 -0.1836
  508MOL0     H68553   2.691   7.066   2.783 -0.5474  0.0927 -1.7863
  508MOL0     H68554   2.795   6.970   2.602 -0.6685  0.3109  0.8584
  508MOL0     H68555   2.961   7.005   2.634  0.1500 -0.7572  0.2666
  508MOL0     H68556   2.795   6.807   2.807 -1.8985  0.5686 -2.9248
  508MOL0     H68557   2.965   6.868   2.828  1.0929 -1.0947 -1.2143
  508MOL0     H68558   2.862   6.694   2.590 -1.7826  0.1197  0.7205
  508MOL0     H68559   3.023   6.770   2.605  0.1709 -2.6003  0.2241
  508MOL0     H68560   3.207   7.047   3.218 -0.3507 -2.9162  1.6365
  508MOL0     H68561   3.383   6.989   3.368  0.6089  1.1179 -1.6207
  508MOL0     H68562   3.638   6.950   3.686  0.7973 -2.4560 -2.3619
  508MOL0     H68563   3.875   6.881   3.691  1.0468  0.6696  0.3854
  508MOL0     H68564   4.481   6.503   3.456  0.7358  2.1831 -3.5460
  508MOL0     H68565   4.367   6.351   3.589  2.1369  0.2269 -1.7136
  508MOL0     H68566   4.013   6.340   3.904 -0.8750 -2.1141  1.2827
  508MOL0     H68567   3.821   6.328   4.052  0.4268 -0.4308 -0.9924
  508MOL0     H68568   3.540   6.083   4.097  3.1056  0.2500 -0.5294
  508MOL0     H68569   3.530   6.073   3.923  0.3601  0.5309 -0.4127
  508MOL0     H68570   3.293   6.071   4.018 -0.6107  0.0203 -1.4547
  508MOL0     H68571   3.333   6.228   3.936 -1.9539  0.0117  0.5093
  508MOL0     H68572   3.191   6.239   4.150 -0.1832  2.0544  0.6559
  508MOL0     H68573   3.332   6.346   4.130  2.3260  0.2903  0.7750
  508MOL0     H68574   3.349   6.102   4.301  3.7372 -1.0481  0.1801
  508MOL0     H68575   3.456   6.239   4.297 -0.3056  1.0121  0.4674
  508MOL0     H68576   3.190   6.433   4.540 -0.9330 -0.5752  0.0688
  508MOL0     H68577   3.562   6.221   3.736 -0.6287  4.6342 -0.5859
  508MOL0     H68578   3.720   6.301   3.480 -1.5401 -0.6783 -1.5348
  508MOL0     H68579   3.800   6.133   3.492 -2.1208 -1.0058 -1.7189
  508MOL0     H68580   3.635   6.157   3.513  0.2806  0.4031 -0.6096
  509MOL0     O68581   6.952   8.849   9.761  0.4239 -0.3075 -0.5098
  509MOL0     C68582   6.982   8.731   9.785  0.4999 -0.2809  0.9204
  509MOL0     O68583   7.105   8.681   9.808 -0.2567 -0.9449  0.3668
  509MOL0     C68584   7.208   8.765   9.816  0.3501 -0.8542  0.4199
  509MOL0     C68585   7.214   8.881   9.893  0.8465 -0.0794 -0.4659
  509MOL0     C68586   7.321   8.968   9.913  0.6695  0.2622 -0.4728
  509MOL0     C68587   7.438   8.942   9.850 -0.7051  0.8717  0.7297
  509MOL0     O68588   7.559   9.003   9.860  0.0809  0.3450  0.5580
  509MOL0     C68589   7.560   9.146   9.832  0.7950 -0.1160  1.2653
  509MOL0     C68590   7.669   9.222   9.908  0.3615  0.3833  0.1336
  509MOL0     C68591   7.816   9.194   9.866  0.6598  0.2535 -0.2508
  509MOL0     C68592   7.866   9.056   9.899 -0.1832 -0.0264  0.0757
  509MOL0     C68593   8.017   9.055   9.880 -0.3684 -0.7436 -0.0111
  509MOL0     C68594   8.080   8.926   9.927  0.2771  0.1550 -0.1521
  509MOL0     C68595   8.232   8.941   9.931  0.3910 -0.5474 -0.4742
  509MOL0     C68596   8.297   8.808   9.961  0.4236  0.2083 -0.4075
  509MOL0     N68597   8.294   8.741   9.830  0.0397 -0.6334  0.3303
  509MOL0     C68598   8.250   8.613   9.803 -0.9804  0.2689 -1.0107
  509MOL0     C68599   8.280   8.597   9.673 -0.4989  0.7054 -0.5122
  509MOL0     C68600   8.249   8.481   9.580  0.3863 -0.0854 -0.3836
  509MOL0     C68601   8.346   8.372   9.603 -0.3641  0.4259 -0.1969
  509MOL0     C68602   8.489   8.434   9.576  0.0198  0.4237 -1.0881
  509MOL0     C68603   8.585   8.334   9.524 -0.0618 -0.1407 -0.5596
  509MOL0     O68604   8.653   8.248   9.618  1.1341  0.4687 -0.6043
  509MOL0     C68605   8.600   8.127   9.653 -0.2043  0.1576  0.3567
  509MOL0     C68606   8.492   8.058   9.592  0.4599  0.0594 -1.1461
  509MOL0     C68607   8.462   7.925   9.629 -0.5484 -0.4384  0.8320
  509MOL0     C68608   8.533   7.858   9.729  0.9239  1.2477  0.9205
  509MOL0     C68609   8.485   7.731   9.777 -0.3451  0.8593  0.4018
  509MOL0     O68610   8.364   7.700   9.723 -0.2639 -0.4943 -0.1090
  509MOL0     C68611   8.311   7.575   9.749 -1.1423  0.1066  0.2924
  509MOL0     C68612   8.209   7.551   9.837  0.7000  1.1936 -0.6659
  509MOL0     C68613   8.143   7.425   9.846  0.4729 -0.5761 -0.2540
  509MOL0     C68614   8.192   7.318   9.765  0.0894  0.4821 -0.5622
  509MOL0     O68615   8.157   7.191   9.768 -0.7274 -0.5681 -0.8219
  509MOL0     C68616   8.035   7.156   9.712 -0.2546 -0.1410  0.5287
  509MOL0     C68617   8.023   7.002   9.684  0.9541 -0.1116  0.1942
  509MOL0     C68618   8.075   6.953   9.554 -0.8740  0.4766 -0.5722
  509MOL0     C68619   8.229   6.941   9.539  0.8006 -0.2760  0.3306
  509MOL0     C68620   8.268   6.898   9.402  0.2723 -1.8002  0.9346
  509MOL0     C68621   8.419   6.938   9.396  0.4395  0.1284  0.2975
  509MOL0     C68622   8.501   6.858   9.497 -0.2322 -0.1399  0.4860
  509MOL0     C68623   8.649   6.863   9.474 -0.8395 -0.7311 -0.6366
  509MOL0    Cl68624   8.740   6.752   9.574 -0.6206 -0.5149  0.4591
  509MOL0     C68625   8.293   7.351   9.672  0.0365 -0.5733  0.3703
  509MOL0     C68626   8.349   7.474   9.660  0.1186 -1.0593  0.1726
  509MOL0     O68627   8.547   7.670   9.859 -0.1001  0.6770  1.0123
  509MOL0     C68628   8.639   7.926   9.781  0.5565 -0.0683  0.3421
  509MOL0     C68629   8.664   8.056   9.748 -1.0701 -0.4894 -0.1507
  509MOL0     N68630   8.331   8.715   9.622 -0.4606 -0.1521  0.2099
  509MOL0     N68631   8.342   8.796   9.716 -0.2370  0.0353  0.7733
  509MOL0     C68632   7.444   8.830   9.760 -1.5220  0.8675  0.3641
  509MOL0     C68633   7.335   8.744   9.753 -0.2606  0.1859  0.4108
  509MOL0     C68634   6.870   8.629   9.778 -0.9223 -0.7654  0.5350
  509MOL0     C68635   6.748   8.653   9.705 -0.5424 -0.3986  0.3443
  509MOL0     C68636   6.647   8.561   9.713 -0.2243 -0.2036  1.1648
  509MOL0     C68637   6.670   8.432   9.770  0.6664 -0.1685  0.9531
  509MOL0     O68638   6.580   8.333   9.752 -0.5443 -1.0032  0.2537
  509MOL0     C68639   6.512   8.318   9.621 -0.0274  0.2428 -0.1435
  509MOL0     C68640   6.359   8.303   9.656 -0.1981  0.7542  0.7654
  509MOL0     C68641   6.315   8.165   9.710  0.2559  0.6574  0.6438
  509MOL0     C68642   6.155   8.142   9.723 -0.2235 -0.1838 -0.2138
  509MOL0     C68643   6.105   8.240   9.826  0.3426  1.2686 -0.1665
  509MOL0     C68644   6.062   8.323   9.908 -0.3781 -0.4340 -0.3501
  509MOL0     C68645   6.778   8.412   9.859 -0.7548  1.0176  0.0377
  509MOL0     C68646   6.869   8.516   9.868 -0.3709 -0.4230 -0.5910
  509MOL0     C68647   6.980   8.496   9.969 -0.3933  0.1899 -0.5380
  509MOL0     H68648   7.113   8.908   9.925  2.0433  2.9996  1.2082
  509MOL0     H68649   7.320   9.050   9.984 -1.3761  1.1385 -1.4115
  509MOL0     H68650   7.590   9.162   9.728 -0.9875 -1.4089  0.5185
  509MOL0     H68651   7.463   9.192   9.850  1.3129  0.8902  1.5875
  509MOL0     H68652   7.664   9.212  10.017 -0.0592  5.1649  0.7629
  509MOL0     H68653   7.654   9.325   9.877  1.6077  1.0366  1.5909
  509MOL0     H68654   7.872   9.262   9.932 -2.9344  4.1092 -0.7637
  509MOL0     H68655   7.848   9.229   9.768  6.3364  2.1497  1.8393
  509MOL0     H68656   7.840   9.032  10.002 -0.3029 -1.3169 -0.2376
  509MOL0     H68657   7.828   8.970   9.843 -2.4623  0.1724  1.2188
  509MOL0     H68658   8.053   9.075   9.779 -4.5376  1.6958 -1.2309
  509MOL0     H68659   8.050   9.134   9.948 -1.7529  0.4147 -0.6337
  509MOL0     H68660   8.040   8.891  10.022 -2.2580  0.9759 -0.8275
  509MOL0     H68661   8.061   8.852   9.849 -0.4433  0.9339 -0.7405
  509MOL0     H68662   8.238   9.007  10.019 -1.1232 -3.1049  1.7177
  509MOL0     H68663   8.261   8.988   9.837 -0.3861 -2.0331 -1.4856
  509MOL0     H68664   8.400   8.822   9.993  0.1875 -2.2389  1.7786
  509MOL0     H68665   8.243   8.743  10.031  2.8426 -2.8778 -1.1522
  509MOL0     H68666   8.211   8.533   9.864 -1.4362  1.4868  0.3429
  509MOL0     H68667   8.148   8.448   9.604  0.8636 -0.9693  0.4832
  509MOL0     H68668   8.253   8.505   9.474  0.8703  0.0073 -0.3471
  509MOL0     H68669   8.346   8.338   9.707 -0.8711  1.7012  0.2415
  509MOL0     H68670   8.319   8.286   9.541 -1.6419  0.4412  0.3032
  509MOL0     H68671   8.512   8.476   9.674 -0.6257 -3.0932  0.7354
  509MOL0     H68672   8.485   8.521   9.510  0.7955  2.5530  1.4906
  509MOL0     H68673   8.668   8.390   9.478  3.5111 -1.6197  3.4076
  509MOL0     H68674   8.531   8.269   9.455 -2.6603  2.6326 -1.3468
  509MOL0     H68675   8.426   8.107   9.522 -1.3103  1.4600  1.3481
  509MOL0     H68676   8.374   7.897   9.573  0.1722 -1.8236  0.3386
  509MOL0     H68677   8.160   7.642   9.872  1.7554  3.3494 -4.2180
  509MOL0     H68678   8.061   7.416   9.916 -0.9488 -0.5525 -1.8619
  509MOL0     H68679   7.949   7.193   9.771 -0.1092  0.1064  0.5888
  509MOL0     H68680   8.019   7.208   9.617  3.9444 -0.7093 -0.6467
  509MOL0     H68681   8.081   6.972   9.772  2.7199  2.3487 -0.0044
  509MOL0     H68682   7.916   6.982   9.690  1.2063 -2.2258 -1.2656
  509MOL0     H68683   8.024   6.857   9.542 -1.7068  0.6051  1.5010
  509MOL0     H68684   8.043   7.018   9.473 -1.6650 -0.4557 -1.0274
  509MOL0     H68685   8.256   6.873   9.620 -0.0797 -1.0671 -0.0191
  509MOL0     H68686   8.265   7.041   9.567  1.8441 -1.0847  2.0087
  509MOL0     H68687   8.212   6.959   9.330  3.1231 -0.4932 -0.3448
  509MOL0     H68688   8.241   6.794   9.384 -1.5388 -0.9643 -1.9947
  509MOL0     H68689   8.445   6.900   9.297  1.9632  3.8167 -0.8607
  509MOL0     H68690   8.439   7.044   9.411  0.4892 -0.1622  2.8143
  509MOL0     H68691   8.464   6.755   9.499  1.1819 -0.6818  2.6345
  509MOL0     H68692   8.488   6.901   9.596 -0.8469 -1.7929  1.1623
  509MOL0     H68693   8.663   6.854   9.366 -3.7563  3.2993 -1.5961
  509MOL0     H68694   8.683   6.965   9.492 -0.0232 -1.2032  0.6112
  509MOL0     H68695   8.330   7.277   9.602 -0.1218  0.1832 -0.5384
  509MOL0     H68696   8.421   7.510   9.587 -0.0019  1.5043  1.2029
  509MOL0     H68697   8.698   7.889   9.865 -0.6420  0.0915  1.2799
  509MOL0     H68698   8.740   8.103   9.810 -2.2134 -0.3432  1.1830
  509MOL0     H68699   7.537   8.811   9.707 -1.1036 -0.5768  1.5442
  509MOL0     H68700   7.342   8.656   9.689  2.1719  0.7525 -0.1940
  509MOL0     H68701   6.749   8.753   9.662 -1.6848  0.3884  2.0327
  509MOL0     H68702   6.567   8.575   9.642  1.4670  0.6004 -0.6985
  509MOL0     H68703   6.536   8.222   9.575 -1.1097  0.5156 -1.3274
  509MOL0     H68704   6.532   8.393   9.543 -2.7410  0.3908 -0.8010
  509MOL0     H68705   6.302   8.317   9.564 -2.0640 -1.2106  1.5230
  509MOL0     H68706   6.328   8.377   9.730 -0.2405 -0.1342  1.6637
  509MOL0     H68707   6.350   8.146   9.812 -0.0753 -0.3830  0.5689
  509MOL0     H68708   6.345   8.093   9.633  2.5029  0.7449  1.3564
  509MOL0     H68709   6.103   8.186   9.638 -0.5684  2.7662  1.4044
  509MOL0     H68710   6.137   8.038   9.751 -1.3026  0.2765  0.8605
  509MOL0     H68711   6.034   8.386   9.990  0.0365  1.7187 -1.7640
  509MOL0     H68712   6.793   8.321   9.916 -0.6467  1.3212  0.5004
  509MOL0     H68713   6.942   8.442  10.057  2.0137 -1.2821 -0.3245
  509MOL0     H68714   7.051   8.435   9.913 -1.3344 -0.0491 -1.5009
  509MOL0     H68715   7.028   8.584  10.012 -1.6326  0.2444  0.8067
  510MOL0     O68716   9.516   1.908   7.905 -0.4950  0.9986 -0.3043
  510MOL0     C68717   9.572   1.825   7.833 -0.7193  1.4142  0.2851
  510MOL0     O68718   9.557   1.686   7.842  0.6957 -0.4009  0.0124
  510MOL0     C68719   9.528   1.618   7.961 -0.6113 -0.2526 -0.5090
  510MOL0     C68720   9.550   1.671   8.092  0.6613  0.8199  0.5446
  510MOL0     C68721   9.530   1.585   8.201 -0.3494 -0.9212  0.1380
  510MOL0     C68722   9.486   1.449   8.197 -0.0230  0.8499  0.6572
  510MOL0     O68723   9.479   1.369   8.312  0.1727  0.0502  0.6762
  510MOL0     C68724   9.362   1.288   8.325 -0.5485  0.0536  0.5534
  510MOL0     C68725   9.363   1.217   8.458 -0.7327  0.2659 -0.6906
  510MOL0     C68726   9.243   1.146   8.499 -0.2521  0.2949  0.0707
  510MOL0     C68727   9.253   1.091   8.651  0.3698  0.3648 -0.8568
  510MOL0     C68728   9.116   1.030   8.697  0.0159  0.6465  0.2239
  510MOL0     C68729   9.112   1.016   8.858 -0.1350  0.5546  1.6727
  510MOL0     C68730   9.208   0.903   8.890 -0.1926 -0.2289 -0.5308
  510MOL0     C68731   9.154   0.759   8.906  0.5959  0.6159 -0.2205
  510MOL0     N68732   9.056   0.751   9.015 -0.3426  0.0701 -0.1746
  510MOL0     C68733   8.926   0.704   9.004 -0.0993  0.1437  0.7384
  510MOL0     C68734   8.881   0.687   9.127  0.1846 -0.5061  0.5481
  510MOL0     C68735   8.755   0.635   9.172 -0.0729  0.0833 -0.1601
  510MOL0     C68736   8.633   0.708   9.130 -1.0126 -0.3281 -0.8705
  510MOL0     C68737   8.529   0.693   9.244  0.7283 -0.2300 -0.9664
  510MOL0     C68738   8.405   0.772   9.221 -0.5302  0.2257 -0.4322
  510MOL0     O68739   8.407   0.909   9.274  0.0039 -0.0584 -0.8514
  510MOL0     C68740   8.302   0.986   9.233 -0.0706  0.4199 -0.0416
  510MOL0     C68741   8.181   0.933   9.194  0.6166  0.9722  0.8280
  510MOL0     C68742   8.085   1.000   9.120  0.4235 -0.2943 -0.3032
  510MOL0     C68743   8.106   1.134   9.107 -0.8848  0.3053 -0.6631
  510MOL0     C68744   8.001   1.217   9.060  0.4101 -0.5322 -0.7299
  510MOL0     O68745   8.027   1.353   9.032  0.5421 -0.3876  0.3888
  510MOL0     C68746   7.919   1.441   9.008 -0.9160 -0.7218  0.2194
  510MOL0     C68747   7.786   1.425   9.057 -0.3363 -0.3927  0.1565
  510MOL0     C68748   7.694   1.521   9.022 -1.2926  0.1054 -0.8707
  510MOL0     C68749   7.732   1.636   8.952  0.1418  0.9884 -0.6601
  510MOL0     O68750   7.635   1.726   8.922 -0.4331 -0.4227  1.1523
  510MOL0     C68751   7.676   1.855   8.948 -0.4993  0.0275 -0.8869
  510MOL0     C68752   7.535   1.913   8.978 -0.6157  0.3757 -0.4884
  510MOL0     C68753   7.548   2.071   8.973  0.8785  0.1921  0.3768
  510MOL0     C68754   7.486   2.131   8.840 -0.4320  0.1155  0.4615
  510MOL0     C68755   7.335   2.133   8.859 -0.2432  0.5874 -0.1831
  510MOL0     C68756   7.279   2.208   8.728 -0.3108  0.5421  1.0096
  510MOL0     C68757   7.117   2.202   8.714 -0.3110  0.4923  0.5066
  510MOL0     C68758   7.075   2.327   8.636  0.4767  1.4541  0.9046
  510MOL0    Cl68759   6.901   2.296   8.611 -0.3365 -0.6376 -0.0536
  510MOL0     C68760   7.868   1.652   8.907 -0.6044 -0.7256  0.1191
  510MOL0     C68761   7.960   1.556   8.936 -0.5316  0.6914 -0.7286
  510MOL0     O68762   7.892   1.165   9.041 -0.7164  0.2262 -0.2717
  510MOL0     C68763   8.213   1.202   9.163  0.3598  0.0530 -0.1659
  510MOL0     C68764   8.320   1.121   9.215  0.4063  0.4025  0.1519
  510MOL0     N68765   8.984   0.728   9.211 -0.1364  0.2113 -0.5200
  510MOL0     N68766   9.090   0.766   9.151 -0.9126  0.7481 -0.7279
  510MOL0     C68767   9.458   1.396   8.070  0.3914 -0.0888  0.4642
  510MOL0     C68768   9.477   1.487   7.957  0.1423 -0.4027 -0.5096
  510MOL0     C68769   9.639   1.869   7.715 -0.0638 -0.1160  0.3187
  510MOL0     C68770   9.749   1.959   7.739  0.6975  0.3117  0.0772
  510MOL0     C68771   9.840   1.994   7.640  0.4944 -0.0314  0.6042
  510MOL0     C68772   9.831   1.947   7.510  0.1695 -0.4415  0.8504
  510MOL0     O68773   9.926   1.968   7.408  0.9328  0.0337  0.0650
  510MOL0     C68774  10.025   2.076   7.424  0.5629 -0.2968  0.6801
  510MOL0     C68775  10.091   2.122   7.294 -0.5976  0.1628 -0.4311
  510MOL0     C68776  10.186   2.239   7.325  0.5555 -0.7139  0.1472
  510MOL0     C68777  10.238   2.286   7.193  0.2902 -0.2201 -0.4878
  510MOL0     C68778  10.343   2.384   7.218  0.2641 -0.3561 -0.4140
  510MOL0     C68779  10.445   2.443   7.231 -0.6562 -0.9559 -0.2848
  510MOL0     C68780   9.727   1.860   7.487 -0.8866  0.4448  0.5595
  510MOL0     C68781   9.626   1.829   7.578  0.3686  1.0058 -0.3834
  510MOL0     C68782   9.516   1.728   7.551 -0.3433  0.9618  0.9362
  510MOL0     H68783   9.582   1.774   8.108 -3.3771  2.3078  0.2205
  510MOL0     H68784   9.548   1.625   8.300  0.3584 -0.9620  0.0352
  510MOL0     H68785   9.268   1.343   8.317 -0.5671 -0.0400  0.1224
  510MOL0     H68786   9.347   1.215   8.245  1.9563 -1.5123  1.3916
  510MOL0     H68787   9.383   1.300   8.526 -1.0527 -1.4865  1.6752
  510MOL0     H68788   9.438   1.143   8.488 -0.4693  0.6365 -0.4248
  510MOL0     H68789   9.212   1.062   8.437 -2.5433 -0.1009  1.6081
  510MOL0     H68790   9.161   1.218   8.491  0.8882  1.4508 -1.8441
  510MOL0     H68791   9.340   1.025   8.664  1.6083  2.1992  0.8697
  510MOL0     H68792   9.277   1.177   8.715 -0.1645 -1.4551  1.9849
  510MOL0     H68793   9.033   1.099   8.679 -0.0703  0.4228 -0.2602
  510MOL0     H68794   9.105   0.937   8.641  0.4973  1.2224 -0.8599
  510MOL0     H68795   9.130   1.112   8.906  2.1071  1.6271 -1.0237
  510MOL0     H68796   9.009   0.987   8.883 -2.0864  0.7712 -4.3096
  510MOL0     H68797   9.257   0.932   8.983 -1.3201  0.7193 -0.2149
  510MOL0     H68798   9.273   0.889   8.803  0.2314 -1.4781 -0.0358
  510MOL0     H68799   9.099   0.736   8.814  1.7766 -0.7744 -0.6270
  510MOL0     H68800   9.237   0.689   8.919 -2.1764 -3.1678 -1.1363
  510MOL0     H68801   8.871   0.679   8.914 -1.1793  0.9922  1.1420
  510MOL0     H68802   8.745   0.533   9.135  1.8989  0.1242 -0.9218
  510MOL0     H68803   8.761   0.628   9.281  3.0926  1.9085 -0.1002
  510MOL0     H68804   8.659   0.813   9.117 -0.1486 -0.3100  0.7564
  510MOL0     H68805   8.592   0.673   9.034 -0.4215 -0.0057 -1.2466
  510MOL0     H68806   8.568   0.717   9.343 -0.0407  0.6340 -0.8546
  510MOL0     H68807   8.504   0.588   9.256 -0.5988  0.3444  2.5903
  510MOL0     H68808   8.329   0.713   9.274  0.6107 -0.7379  0.1795
  510MOL0     H68809   8.375   0.784   9.117  0.3245 -0.4693 -0.7716
  510MOL0     H68810   8.157   0.830   9.221 -1.6919  1.1988 -0.1345
  510MOL0     H68811   7.988   0.955   9.104  0.0245  0.3733  0.1855
  510MOL0     H68812   7.758   1.341   9.120 -1.1888 -0.3580 -0.1641
  510MOL0     H68813   7.597   1.508   9.067 -1.1082  0.6581 -0.3012
  510MOL0     H68814   7.743   1.851   9.034  0.2467 -0.8591 -1.4930
  510MOL0     H68815   7.722   1.892   8.856  0.9895 -0.3606 -0.3224
  510MOL0     H68816   7.459   1.887   8.903  0.2957  1.0207 -1.6685
  510MOL0     H68817   7.496   1.878   9.074  1.9918 -0.2839  0.4232
  510MOL0     H68818   7.505   2.110   9.066  0.5573 -1.2712  0.8684
  510MOL0     H68819   7.654   2.091   8.992  1.2801 -2.1632  1.0287
  510MOL0     H68820   7.508   2.064   8.757 -5.1954  0.3588 -1.3267
  510MOL0     H68821   7.523   2.233   8.827  0.0587  0.1972  2.2139
  510MOL0     H68822   7.294   2.193   8.941 -2.2889  0.7452 -1.2509
  510MOL0     H68823   7.285   2.036   8.867 -0.5568  0.6929 -0.7801
  510MOL0     H68824   7.312   2.311   8.744  3.1107 -0.2497 -0.2031
  510MOL0     H68825   7.323   2.177   8.633 -0.7720  4.0002 -0.4697
  510MOL0     H68826   7.083   2.203   8.818 -0.5238 -0.3964  0.4528
  510MOL0     H68827   7.083   2.112   8.662  3.1308 -2.2478  2.5486
  510MOL0     H68828   7.096   2.416   8.696  1.1420  0.9007  1.5152
  510MOL0     H68829   7.135   2.355   8.549  4.5095  0.5853  3.1688
  510MOL0     H68830   7.897   1.750   8.870 -0.8937 -2.1812 -4.5764
  510MOL0     H68831   8.066   1.546   8.914 -0.5105  2.1292 -1.3668
  510MOL0     H68832   8.223   1.310   9.153 -2.2784  0.8042  3.2836
  510MOL0     H68833   8.404   1.159   9.274  0.4290 -1.0455  1.1064
  510MOL0     H68834   9.435   1.293   8.044  0.4976  0.4947 -2.2517
  510MOL0     H68835   9.444   1.450   7.861 -1.7363 -3.6230  1.2169
  510MOL0     H68836   9.769   1.993   7.840 -1.1612  0.4699  0.4317
  510MOL0     H68837   9.921   2.061   7.665  2.7569 -1.3756 -2.5447
  510MOL0     H68838  10.098   2.041   7.498 -0.7333 -0.3890  1.9519
  510MOL0     H68839   9.987   2.164   7.476 -0.3283 -1.0257  1.3046
  510MOL0     H68840  10.006   2.150   7.232  0.2297  2.9961 -0.3941
  510MOL0     H68841  10.150   2.038   7.255  1.5700  1.5590 -0.3637
  510MOL0     H68842  10.270   2.215   7.392  1.4882 -0.1497 -0.7932
  510MOL0     H68843  10.132   2.326   7.364  0.0891  0.3860 -2.7392
  510MOL0     H68844  10.270   2.203   7.129 -1.7779 -0.7395 -0.9312
  510MOL0     H68845  10.163   2.346   7.141  2.1254  2.3669 -0.3142
  510MOL0     H68846  10.543   2.484   7.244  0.7008 -3.7288 -0.9268
  510MOL0     H68847   9.733   1.808   7.392 -3.3870  1.1547 -0.0466
  510MOL0     H68848   9.487   1.726   7.445  1.7686 -0.1366  0.3284
  510MOL0     H68849   9.557   1.631   7.580 -0.3678  0.2641 -1.1579
  510MOL0     H68850   9.421   1.747   7.602 -2.7525 -1.5539 -2.1732
  511MOL0     O68851   1.385  10.277   7.758  0.9330 -0.0942  0.1265
  511MOL0     C68852   1.339  10.283   7.876 -0.8374  0.3811  0.9399
  511MOL0     O68853   1.414  10.268   7.990 -0.7342  0.4570  0.5433
  511MOL0     C68854   1.549  10.253   7.976  0.2822 -0.3289  0.2389
  511MOL0     C68855   1.619  10.378   7.958 -0.9207  0.5700  0.3804
  511MOL0     C68856   1.757  10.388   7.948  0.2407 -0.9893 -1.7183
  511MOL0     C68857   1.835  10.279   7.968 -0.2283  0.1562  0.9875
  511MOL0     O68858   1.965  10.308   7.962 -0.4100 -0.3464 -0.0196
  511MOL0     C68859   2.070  10.229   8.022 -0.1751  0.5308 -0.5441
  511MOL0     C68860   2.072  10.255   8.177  0.5765 -0.4076 -0.0922
  511MOL0     C68861   2.207  10.212   8.238  0.5823  0.1394 -0.2199
  511MOL0     C68862   2.296  10.118   8.152  0.5738  0.0748 -0.1624
  511MOL0     C68863   2.417  10.061   8.227 -0.2295 -0.1438 -0.2379
  511MOL0     C68864   2.509  10.181   8.246  0.0366  0.1750  0.1430
  511MOL0     C68865   2.649  10.127   8.285  0.5848  0.4252  0.4744
  511MOL0     C68866   2.761  10.229   8.281 -0.1662 -0.2588 -0.1431
  511MOL0     N68867   2.767  10.303   8.409 -0.3541  0.4386 -0.0870
  511MOL0     C68868   2.845  10.263   8.513  0.1901 -0.9858  0.1287
  511MOL0     C68869   2.842  10.362   8.606 -0.6807  0.3589  0.1224
  511MOL0     C68870   2.903  10.357   8.743 -0.2073 -1.0054  0.1659
  511MOL0     C68871   2.863  10.478   8.832 -0.2396 -0.1466  0.2598
  511MOL0     C68872   2.926  10.458   8.972  0.6136 -0.5581  0.6838
  511MOL0     C68873   2.880  10.320   9.041 -1.4923  0.0062  0.5795
  511MOL0     O68874   2.741  10.291   9.011 -0.2446 -0.2613  0.4313
  511MOL0     C68875   2.651  10.314   9.105 -0.0020  0.0036 -0.4530
  511MOL0     C68876   2.553  10.221   9.125 -0.2598 -0.1512  0.4195
  511MOL0     C68877   2.441  10.268   9.188 -0.1619 -0.3331  0.8683
  511MOL0     C68878   2.431  10.383   9.262  0.1562  0.0765 -0.0378
  511MOL0     C68879   2.322  10.424   9.350 -0.6537  0.1541 -0.3130
  511MOL0     O68880   2.349  10.521   9.436  0.4445 -0.0766  0.7205
  511MOL0     C68881   2.251  10.555   9.525  0.3063  0.0590 -0.3417
  511MOL0     C68882   2.232  10.474   9.632  0.5987 -0.8762  0.1092
  511MOL0     C68883   2.130  10.511   9.720  0.5424 -0.1411 -0.2680
  511MOL0     C68884   2.069  10.633   9.711  0.3577  0.9563  0.0458
  511MOL0     O68885   1.976  10.687   9.801 -0.3629  0.5854 -0.2272
  511MOL0     C68886   1.835  10.648   9.797  0.2464  0.3044  0.4657
  511MOL0     C68887   1.736  10.738   9.878  0.0993  0.5196  0.1087
  511MOL0     C68888   1.697  10.866   9.805 -0.2773 -0.4771 -0.0967
  511MOL0     C68889   1.814  10.968   9.800 -1.1225 -0.5036 -0.0583
  511MOL0     C68890   1.790  11.106   9.736  0.3319  0.2796 -0.1526
  511MOL0     C68891   1.920  11.171   9.720  0.9839 -0.4973  0.0460
  511MOL0     C68892   1.902  11.312   9.674  1.6014 -0.8661  1.0966
  511MOL0     C68893   2.034  11.368   9.617 -0.3605  0.6951 -0.2344
  511MOL0    Cl68894   2.009  11.540   9.544  0.6129 -0.6490 -0.5490
  511MOL0     C68895   2.103  10.716   9.607 -1.1959  0.1279  0.0590
  511MOL0     C68896   2.190  10.676   9.505 -0.5791 -0.2542  0.7741
  511MOL0     O68897   2.219  10.355   9.346 -0.0042  0.1971 -0.4439
  511MOL0     C68898   2.537  10.474   9.252  0.4901 -0.0674 -0.2960
  511MOL0     C68899   2.645  10.444   9.170 -0.8601  0.1049  0.4153
  511MOL0     N68900   2.763  10.464   8.547  0.1197 -0.0125 -0.4826
  511MOL0     N68901   2.726  10.426   8.435 -0.1802 -0.1001  0.3376
  511MOL0     C68902   1.776  10.150   7.980 -0.5291 -0.2395 -0.7267
  511MOL0     C68903   1.629  10.144   7.995  0.1038 -0.3045 -0.7881
  511MOL0     C68904   1.198  10.330   7.887 -0.0673  0.4209 -0.6101
  511MOL0     C68905   1.160  10.366   8.017 -0.2564  0.1464 -0.5996
  511MOL0     C68906   1.030  10.411   8.040 -0.7920 -0.2989 -0.3737
  511MOL0     C68907   0.938  10.430   7.939  0.6072  0.1950  1.0158
  511MOL0     O68908   0.813  10.480   7.971 -0.4042 -0.0833 -1.0401
  511MOL0     C68909   0.740  10.558   7.881  0.1889  0.5572  0.3955
  511MOL0     C68910   0.791  10.700   7.862 -0.6459  0.6084 -0.1668
  511MOL0     C68911   0.800  10.792   7.985 -0.3969 -0.3518 -0.0215
  511MOL0     C68912   0.840  10.939   7.944 -0.5526 -0.5363  0.0424
  511MOL0     C68913   0.745  10.999   7.859  0.3074 -0.3526 -0.6363
  511MOL0     C68914   0.657  11.055   7.797 -0.9772 -0.4357  0.4313
  511MOL0     C68915   0.979  10.416   7.808 -0.9411  0.1263 -0.0529
  511MOL0     C68916   1.111  10.359   7.779  1.5196 -1.2140 -0.8401
  511MOL0     C68917   1.147  10.335   7.634 -0.3840  0.5791  0.7059
  511MOL0     H68918   1.572  10.475   7.946 -1.1867  0.3217 -0.6818
  511MOL0     H68919   1.789  10.491   7.937 -1.0051 -0.0987  1.6631
  511MOL0     H68920   2.043  10.130   7.983 -3.2653  1.4572 -0.9673
  511MOL0     H68921   2.163  10.263   7.976  0.6580 -1.5146 -0.5057
  511MOL0     H68922   2.000  10.194   8.232  2.3754 -0.2007  2.6689
  511MOL0     H68923   2.069  10.362   8.199  2.8574 -0.6925  1.9753
  511MOL0     H68924   2.187  10.156   8.330  2.2222  2.9000  1.9778
  511MOL0     H68925   2.269  10.295   8.273  2.8605 -1.2560 -0.7014
  511MOL0     H68926   2.244  10.029   8.116  0.0202  0.1286  0.4834
  511MOL0     H68927   2.327  10.169   8.060 -0.7266 -0.3811 -0.8777
  511MOL0     H68928   2.371  10.024   8.319 -2.5502  1.6976 -0.5559
  511MOL0     H68929   2.467   9.985   8.167  3.1159  0.1657  1.9018
  511MOL0     H68930   2.511  10.249   8.161  0.0487 -1.2691 -1.0644
  511MOL0     H68931   2.473  10.249   8.324  1.9638  1.3641  0.0475
  511MOL0     H68932   2.668  10.047   8.213 -0.8579  0.1263  0.3960
  511MOL0     H68933   2.649  10.084   8.386 -1.8521 -2.4702 -0.5964
  511MOL0     H68934   2.860  10.185   8.264  1.2703  3.3993 -2.7162
  511MOL0     H68935   2.747  10.295   8.195  3.3178 -1.0452 -1.4784
  511MOL0     H68936   2.885  10.162   8.516  1.9421 -0.3440 -0.8107
  511MOL0     H68937   2.862  10.261   8.775 -0.2357 -1.0797 -0.0867
  511MOL0     H68938   3.011  10.344   8.737 -0.2844 -3.1613  1.9675
  511MOL0     H68939   2.898  10.569   8.782  1.5646 -0.9885 -0.1117
  511MOL0     H68940   2.756  10.481   8.853  0.2076  1.8353  2.8827
  511MOL0     H68941   2.887  10.546   9.024 -0.2594  0.6622 -1.8941
  511MOL0     H68942   3.035  10.469   8.969  0.5638 -0.0129  0.8262
  511MOL0     H68943   2.887  10.352   9.145 -0.8747 -1.5146  1.0434
  511MOL0     H68944   2.950  10.236   9.029  0.1594  1.5306 -1.0014
  511MOL0     H68945   2.545  10.128   9.069  1.1164 -0.9401  1.5001
  511MOL0     H68946   2.347  10.213   9.186  0.4307 -1.4408  1.7865
  511MOL0     H68947   2.296  10.391   9.662 -0.2391 -0.9721  1.7469
  511MOL0     H68948   2.101  10.441   9.797 -0.4835  0.5601  0.0169
  511MOL0     H68949   1.785  10.628   9.702 -1.7018  0.9557  1.3133
  511MOL0     H68950   1.831  10.552   9.848 -3.0981  1.1761  2.1708
  511MOL0     H68951   1.648  10.686   9.918 -2.9199  1.9426 -4.0088
  511MOL0     H68952   1.793  10.759   9.970 -2.6929 -0.8360  2.2901
  511MOL0     H68953   1.657  10.854   9.704 -2.2058  1.6255  0.3127
  511MOL0     H68954   1.613  10.915   9.856 -0.9310  1.0928 -2.5081
  511MOL0     H68955   1.881  10.915   9.732 -1.9529 -0.2534 -1.0936
  511MOL0     H68956   1.846  10.970   9.905 -1.5275  0.5721  0.0598
  511MOL0     H68957   1.723  11.154   9.808  2.1860 -3.1578  4.3645
  511MOL0     H68958   1.743  11.089   9.639 -2.0951 -0.9845  1.1575
  511MOL0     H68959   1.969  11.178   9.817 -0.0808 -0.4408  0.5996
  511MOL0     H68960   1.979  11.110   9.651  2.3977 -0.2579  1.0193
  511MOL0     H68961   1.855  11.373   9.751 -0.1093 -1.1133  0.3146
  511MOL0     H68962   1.833  11.314   9.589  0.4669 -1.9465  1.9439
  511MOL0     H68963   2.116  11.377   9.689 -0.0233  0.9546 -0.6444
  511MOL0     H68964   2.059  11.297   9.537 -0.4902 -0.3194  0.6003
  511MOL0     H68965   2.051  10.812   9.601 -2.4745 -0.6226 -2.5067
  511MOL0     H68966   2.207  10.746   9.424 -0.3646 -0.3664  0.7232
  511MOL0     H68967   2.535  10.561   9.316  0.3937 -1.9156  2.3970
  511MOL0     H68968   2.717  10.524   9.154 -0.9094  0.7065  2.8515
  511MOL0     H68969   1.837  10.063   8.003 -0.2000 -0.2076 -1.4547
  511MOL0     H68970   1.576  10.052   8.019  2.3558 -0.8434  2.7305
  511MOL0     H68971   1.237  10.367   8.093  0.5521  2.5846 -1.3711
  511MOL0     H68972   0.992  10.432   8.139 -0.4999 -4.0400  0.7045
  511MOL0     H68973   0.639  10.560   7.924 -1.0188  2.5090 -2.2440
  511MOL0     H68974   0.730  10.505   7.785  0.9964 -2.4005  1.8232
  511MOL0     H68975   0.737  10.740   7.775 -1.3324  1.9889  0.8603
  511MOL0     H68976   0.887  10.688   7.811 -1.3620  0.6176 -1.5598
  511MOL0     H68977   0.877  10.758   8.054 -0.0521 -0.7140 -0.5833
  511MOL0     H68978   0.705  10.802   8.039  0.6293  1.9878  1.5282
  511MOL0     H68979   0.874  11.003   8.027  2.2915  1.6185 -2.5468
  511MOL0     H68980   0.938  10.931   7.895 -0.7856  1.2534 -0.8005
  511MOL0     H68981   0.601  11.124   7.737  0.8961  1.4321  0.7169
  511MOL0     H68982   0.909  10.427   7.726 -1.1583 -4.1607 -0.6664
  511MOL0     H68983   1.068  10.341   7.559  0.6110 -1.5639 -0.6122
  511MOL0     H68984   1.217  10.414   7.604  0.4790  0.0782  1.3589
  511MOL0     H68985   1.197  10.238   7.626  0.6390  1.0956  0.6659
  512MOL0     O68986   4.133   1.283   5.099 -0.5344  0.7088 -0.2061
  512MOL0     C68987   4.221   1.197   5.101  0.5547 -0.3277 -0.8772
  512MOL0     O68988   4.325   1.205   5.185  0.0430 -0.6047  1.5276
  512MOL0     C68989   4.357   1.326   5.239 -0.3397 -0.2299 -1.1225
  512MOL0     C68990   4.272   1.390   5.328 -0.3200 -0.6363 -0.0334
  512MOL0     C68991   4.294   1.529   5.364 -0.5304 -0.8433 -0.0472
  512MOL0     C68992   4.405   1.601   5.316 -0.4834  0.1477  0.4055
  512MOL0     O68993   4.434   1.731   5.339  0.3506 -0.1661 -0.0585
  512MOL0     C68994   4.382   1.786   5.457 -1.4470 -0.7153 -0.9632
  512MOL0     C68995   4.481   1.893   5.515  0.1783  0.0761 -0.1878
  512MOL0     C68996   4.427   1.970   5.632  0.9390 -0.0511  0.6637
  512MOL0     C68997   4.538   2.041   5.704  0.1706  0.9350  0.1638
  512MOL0     C68998   4.463   2.151   5.788 -0.2852 -0.0541  0.3127
  512MOL0     C68999   4.546   2.188   5.905  1.0931 -0.1705  0.2274
  512MOL0     C69000   4.441   2.238   6.006 -0.2837  0.4852 -0.0614
  512MOL0     C69001   4.392   2.126   6.094  0.6125  0.4446 -0.2986
  512MOL0     N69002   4.280   2.157   6.183 -0.3144  0.4994 -0.8564
  512MOL0     C69003   4.285   2.256   6.285  0.1735  0.0534 -0.0554
  512MOL0     C69004   4.157   2.276   6.320 -1.4477 -0.3698  0.0865
  512MOL0     C69005   4.115   2.344   6.452 -0.6276  0.4289 -0.0362
  512MOL0     C69006   4.009   2.460   6.425  0.0595 -0.4861 -0.1534
  512MOL0     C69007   4.046   2.552   6.302  0.8209  0.6857  0.0286
  512MOL0     C69008   4.185   2.602   6.310  0.9784 -1.1467  0.7101
  512MOL0     O69009   4.233   2.640   6.436 -0.4471  0.5727  0.1365
  512MOL0     C69010   4.372   2.663   6.461  0.0179 -0.1014  1.1978
  512MOL0     C69011   4.413   2.687   6.592 -0.7148 -0.3570 -0.3587
  512MOL0     C69012   4.550   2.703   6.634 -0.1069 -0.6057 -1.0443
  512MOL0     C69013   4.648   2.707   6.537  0.1902  0.2634 -0.6006
  512MOL0     C69014   4.792   2.740   6.572  0.3759 -0.0887  0.6966
  512MOL0     O69015   4.861   2.736   6.459 -0.7166 -0.4687 -0.4036
  512MOL0     C69016   4.994   2.778   6.477 -0.0082  0.5180 -1.4254
  512MOL0     C69017   5.026   2.914   6.452 -0.4305 -0.2851  0.9592
  512MOL0     C69018   5.160   2.947   6.441  0.7524 -0.1598 -0.2298
  512MOL0     C69019   5.264   2.867   6.481 -0.0913 -0.2746 -0.3875
  512MOL0     O69020   5.396   2.894   6.477  0.4106  0.3926  0.3981
  512MOL0     C69021   5.433   3.000   6.394  0.1732 -1.4152  0.1089
  512MOL0     C69022   5.398   2.993   6.239 -1.3443  0.4456 -0.3156
  512MOL0     C69023   5.401   3.124   6.161  0.8371  0.0163 -0.0496
  512MOL0     C69024   5.528   3.199   6.175 -0.8089 -0.0642 -0.3787
  512MOL0     C69025   5.508   3.349   6.148 -0.8266  0.3147  0.1413
  512MOL0     C69026   5.639   3.415   6.162 -0.1373  0.1882 -0.5294
  512MOL0     C69027   5.689   3.445   6.302  0.3580  0.3918  0.4847
  512MOL0     C69028   5.834   3.490   6.320 -0.3012 -0.3488  0.4178
  512MOL0    Cl69029   5.895   3.624   6.210 -0.0562  0.3531 -0.3024
  512MOL0     C69030   5.232   2.740   6.531  1.4425  0.5285 -0.1224
  512MOL0     C69031   5.094   2.697   6.534  0.2774 -0.1465 -0.0146
  512MOL0     O69032   4.826   2.769   6.685 -0.1189 -1.0769  0.5548
  512MOL0     C69033   4.611   2.687   6.401  1.1283  0.8952 -0.2962
  512MOL0     C69034   4.478   2.661   6.361  0.1379  0.2570 -1.1512
  512MOL0     N69035   4.080   2.195   6.241  0.1927 -0.2265  1.3106
  512MOL0     N69036   4.151   2.129   6.155  0.3006 -0.0933 -0.1418
  512MOL0     C69037   4.484   1.538   5.222  0.0065 -0.7713  1.2047
  512MOL0     C69038   4.467   1.398   5.200  0.1095  0.5516  0.0398
  512MOL0     C69039   4.194   1.085   5.012 -0.5364  0.0238 -0.3299
  512MOL0     C69040   4.074   1.018   5.010  0.3172 -0.1561  0.1925
  512MOL0     C69041   4.045   0.928   4.913  0.4922  1.3360  0.3812
  512MOL0     C69042   4.142   0.883   4.814  0.3809 -0.6862 -0.2958
  512MOL0     O69043   4.112   0.767   4.740  0.0891 -0.4606 -0.1697
  512MOL0     C69044   4.220   0.689   4.676  0.1959  0.3951 -0.2963
  512MOL0     C69045   4.166   0.540   4.661  0.5854 -1.0951  0.2664
  512MOL0     C69046   4.257   0.442   4.593  0.1213 -0.3167  0.4042
  512MOL0     C69047   4.336   0.504   4.482  0.0342 -0.3232 -1.0937
  512MOL0     C69048   4.254   0.562   4.378 -0.3557  0.7228 -0.6920
  512MOL0     C69049   4.168   0.619   4.304 -0.4315  0.9388  0.7035
  512MOL0     C69050   4.267   0.944   4.822 -1.3680 -0.0025 -0.6047
  512MOL0     C69051   4.293   1.045   4.917  0.2098 -1.0820  0.4462
  512MOL0     C69052   4.422   1.137   4.907 -1.1268  0.2662 -0.0736
  512MOL0     H69053   4.181   1.339   5.359 -0.0844 -0.4544  0.9861
  512MOL0     H69054   4.227   1.576   5.435 -0.7497  2.6686 -2.3396
  512MOL0     H69055   4.282   1.829   5.441 -1.0053  0.2144 -1.2929
  512MOL0     H69056   4.370   1.709   5.535  1.4189 -0.1133  0.1705
  512MOL0     H69057   4.490   1.961   5.429 -1.4105  0.0381 -0.4123
  512MOL0     H69058   4.579   1.853   5.543  0.3122  0.2498 -0.3993
  512MOL0     H69059   4.386   1.900   5.705 -0.4764  0.7180  0.6425
  512MOL0     H69060   4.356   2.042   5.591 -1.3525  0.0905  4.4025
  512MOL0     H69061   4.590   1.966   5.764 -2.5942 -1.1431  0.1318
  512MOL0     H69062   4.609   2.090   5.637 -0.9414  1.1621 -0.8885
  512MOL0     H69063   4.446   2.241   5.728 -2.5299 -0.6849 -0.1021
  512MOL0     H69064   4.365   2.109   5.812 -0.8078 -0.4299 -2.2101
  512MOL0     H69065   4.588   2.101   5.956 -1.9882 -1.7862  0.2340
  512MOL0     H69066   4.628   2.255   5.880  2.5939 -1.0942  2.4051
  512MOL0     H69067   4.347   2.285   5.975 -0.8251 -0.6733 -0.2598
  512MOL0     H69068   4.494   2.308   6.072  1.7279  0.6204 -1.7206
  512MOL0     H69069   4.372   2.042   6.026  2.4520 -0.2704 -0.0194
  512MOL0     H69070   4.476   2.103   6.161  0.1226  0.1572  0.2311
  512MOL0     H69071   4.368   2.313   6.325  0.6361  1.9913 -3.3966
  512MOL0     H69072   4.078   2.265   6.518  0.6292 -1.1210 -1.1086
  512MOL0     H69073   4.204   2.386   6.499  0.7567 -0.0953 -2.0441
  512MOL0     H69074   3.919   2.403   6.403  1.1595 -1.2565 -3.1590
  512MOL0     H69075   4.003   2.524   6.514  1.5669  1.4732 -1.3706
  512MOL0     H69076   3.982   2.640   6.310  0.5721  0.5325 -0.2449
  512MOL0     H69077   4.012   2.508   6.208  0.3056 -0.4215  0.7123
  512MOL0     H69078   4.192   2.689   6.245  0.7530 -0.3798  1.6934
  512MOL0     H69079   4.251   2.524   6.272  1.7540 -1.7311  3.0358
  512MOL0     H69080   4.328   2.690   6.660 -1.8224 -1.4264 -1.6364
  512MOL0     H69081   4.571   2.727   6.737  2.2974 -1.9119 -1.1596
  512MOL0     H69082   4.962   2.982   6.397  0.9369  1.4173  1.3636
  512MOL0     H69083   5.164   3.046   6.398 -1.7810 -0.3831 -1.1267
  512MOL0     H69084   5.397   3.095   6.435 -0.7728 -0.5771 -2.4165
  512MOL0     H69085   5.541   3.000   6.411  0.3661  3.0200  0.2380
  512MOL0     H69086   5.473   2.922   6.205 -0.6551 -1.2252  4.1022
  512MOL0     H69087   5.300   2.949   6.215 -2.0811  1.8307  0.0112
  512MOL0     H69088   5.378   3.098   6.057  5.8611 -1.0161 -1.1694
  512MOL0     H69089   5.317   3.186   6.194 -1.1272 -2.3698 -0.3274
  512MOL0     H69090   5.605   3.169   6.104 -1.5928 -1.2699 -0.7465
  512MOL0     H69091   5.572   3.180   6.273 -0.1209  0.3602 -0.5978
  512MOL0     H69092   5.448   3.377   6.235 -2.0255 -2.5489  0.3487
  512MOL0     H69093   5.459   3.379   6.055  2.5882  2.2250 -1.2178
  512MOL0     H69094   5.717   3.358   6.109 -0.4029 -0.4796 -0.2167
  512MOL0     H69095   5.646   3.511   6.111  4.4240  0.6236  0.4171
  512MOL0     H69096   5.684   3.347   6.350 -1.3585  0.1941 -0.0036
  512MOL0     H69097   5.615   3.511   6.349 -0.9126 -0.2807 -0.4995
  512MOL0     H69098   5.835   3.526   6.423  3.0465 -1.1495  0.8077
  512MOL0     H69099   5.893   3.398   6.312 -3.9853 -2.7805 -2.0076
  512MOL0     H69100   5.313   2.686   6.580 -0.9970 -3.0237  0.3273
  512MOL0     H69101   5.068   2.600   6.576 -0.1863  0.2851  0.7160
  512MOL0     H69102   4.686   2.687   6.322 -1.2573  2.7877 -2.7271
  512MOL0     H69103   4.459   2.646   6.255 -0.0553  0.1066 -1.0942
  512MOL0     H69104   4.551   1.612   5.178 -2.2137 -0.4736 -2.0522
  512MOL0     H69105   4.532   1.358   5.122  1.4276  0.9838  0.8900
  512MOL0     H69106   4.008   1.048   5.092  3.3892  1.8660  2.1236
  512MOL0     H69107   3.953   0.871   4.918  1.7487 -1.0685 -1.4697
  512MOL0     H69108   4.313   0.698   4.732 -0.4619  2.7418  0.5267
  512MOL0     H69109   4.246   0.729   4.577 -0.0451 -2.1958 -1.5021
  512MOL0     H69110   4.068   0.540   4.613  0.5860  2.3627  0.0288
  512MOL0     H69111   4.139   0.509   4.762 -2.2621  0.3925  0.0641
  512MOL0     H69112   4.203   0.358   4.549  1.7073 -0.2585 -1.8429
  512MOL0     H69113   4.330   0.404   4.665  2.1311 -0.8153 -1.7634
  512MOL0     H69114   4.393   0.593   4.508  1.0279 -1.0086 -0.8856
  512MOL0     H69115   4.397   0.428   4.433 -3.0372 -3.2224 -0.7544
  512MOL0     H69116   4.091   0.656   4.239 -0.4785  1.4903  1.0652
  512MOL0     H69117   4.349   0.903   4.764  0.8836  2.2049  0.7939
  512MOL0     H69118   4.403   1.245   4.908  3.1893  1.3000  3.3647
  512MOL0     H69119   4.480   1.106   4.995 -2.2956  0.6854  0.8742
  512MOL0     H69120   4.477   1.114   4.816 -0.3473 -4.1655  1.3090
  513MOL0     O69121  11.419   8.471   7.014  0.0430 -1.0326 -0.3523
  513MOL0     C69122  11.521   8.423   7.052 -0.4820 -0.0382  0.6794
  513MOL0     O69123  11.529   8.309   7.124  0.9737 -0.2548 -0.2765
  513MOL0     C69124  11.408   8.258   7.162  0.5153  0.5393  0.5432
  513MOL0     C69125  11.359   8.292   7.291  1.0688  0.8544 -0.0363
  513MOL0     C69126  11.234   8.246   7.333 -0.5802 -0.2753 -0.3368
  513MOL0     C69127  11.159   8.168   7.244 -0.2524 -0.3013  0.2291
  513MOL0     O69128  11.039   8.124   7.280 -0.6499 -0.2656  0.7482
  513MOL0     C69129  11.045   8.030   7.386  0.7248 -0.1589  0.3048
  513MOL0     C69130  10.908   7.960   7.395  0.6612 -0.2297 -0.3070
  513MOL0     C69131  10.943   7.818   7.386 -0.3976  0.4605  0.0827
  513MOL0     C69132  10.989   7.774   7.245 -0.2411  0.3758 -0.6601
  513MOL0     C69133  10.980   7.621   7.225 -0.6395  0.6417  0.0684
  513MOL0     C69134  11.099   7.534   7.262 -0.0083  0.4136  0.9091
  513MOL0     C69135  11.065   7.392   7.198 -1.0643 -0.6290 -0.9992
  513MOL0     C69136  10.983   7.300   7.294 -0.4282  0.5058  0.3667
  513MOL0     N69137  10.900   7.191   7.237 -0.0270  0.3787  0.0744
  513MOL0     C69138  10.934   7.101   7.134 -0.5010 -0.0734  0.5801
  513MOL0     C69139  10.830   7.013   7.125  0.0325 -0.1176 -0.6903
  513MOL0     C69140  10.845   6.898   7.033 -0.2024  0.8468 -0.5119
  513MOL0     C69141  10.766   6.915   6.906 -0.0015 -0.8514 -0.4781
  513MOL0     C69142  10.624   6.850   6.929 -0.3024 -0.2878 -0.1443
  513MOL0     C69143  10.530   6.842   6.815  0.2200 -0.0185 -0.1039
  513MOL0     O69144  10.510   6.964   6.742  0.7402 -0.0276  0.6522
  513MOL0     C69145  10.579   6.982   6.629 -1.3828 -0.4710  0.5365
  513MOL0     C69146  10.655   6.885   6.557 -0.3792 -0.0434  0.3215
  513MOL0     C69147  10.710   6.926   6.432  0.0251 -0.2911 -0.1041
  513MOL0     C69148  10.711   7.062   6.390  0.3046  0.0217 -0.1029
  513MOL0     C69149  10.803   7.103   6.281  0.8418 -0.1480  0.1995
  513MOL0     O69150  10.804   7.017   6.172 -0.1047 -0.0047 -0.3230
  513MOL0     C69151  10.871   7.060   6.062 -1.2809  0.0562 -0.7322
  513MOL0     C69152  10.993   7.005   6.028 -0.6220 -0.0255 -0.0896
  513MOL0     C69153  11.057   7.042   5.914  0.3124 -0.1141  0.0713
  513MOL0     C69154  11.004   7.132   5.822 -0.4880 -0.3092  1.1491
  513MOL0     O69155  11.068   7.141   5.701  0.0583  0.2464 -0.4418
  513MOL0     C69156  11.029   7.253   5.621 -0.4764 -0.5973 -0.3398
  513MOL0     C69157  11.133   7.258   5.502 -0.1673 -0.4073 -0.3204
  513MOL0     C69158  11.125   7.398   5.435  0.4969  0.1427 -0.2943
  513MOL0     C69159  11.207   7.418   5.307 -0.1306 -1.5102 -0.9883
  513MOL0     C69160  11.193   7.561   5.264 -1.0786 -0.2232  0.7061
  513MOL0     C69161  11.066   7.607   5.180  0.5846  0.0163 -1.0268
  513MOL0     C69162  11.019   7.753   5.217 -0.0278 -0.6521 -0.5074
  513MOL0     C69163  10.882   7.788   5.163  0.3533  0.0849 -0.9326
  513MOL0    Cl69164  10.757   7.721   5.280 -0.4145 -0.2785  0.2361
  513MOL0     C69165  10.880   7.188   5.856  0.1710 -0.0494 -0.9703
  513MOL0     C69166  10.810   7.156   5.976 -0.8010  0.1027  0.1803
  513MOL0     O69167  10.854   7.217   6.288  0.2942 -0.5402 -0.1847
  513MOL0     C69168  10.634   7.150   6.464  0.4132  0.9912 -0.5621
  513MOL0     C69169  10.578   7.116   6.586  0.7480  1.1402  0.9932
  513MOL0     N69170  10.733   7.053   7.214  0.6410  0.5356  0.3111
  513MOL0     N69171  10.771   7.161   7.274 -0.1676  0.2169 -0.5263
  513MOL0     C69172  11.192   8.142   7.115 -0.3251 -0.0244  0.0936
  513MOL0     C69173  11.322   8.184   7.072  0.0153 -0.4356  0.0470
  513MOL0     C69174  11.658   8.473   6.996  0.0748  0.0882  0.2158
  513MOL0     C69175  11.745   8.373   6.948 -0.2814  0.5555 -1.2130
  513MOL0     C69176  11.868   8.403   6.885  0.7901 -0.1519  0.0209
  513MOL0     C69177  11.916   8.536   6.895 -0.4577  0.4441  0.6552
  513MOL0     O69178  12.043   8.568   6.857 -0.2889  0.3734 -0.1970
  513MOL0     C69179  12.134   8.656   6.933  0.9641  1.0293  0.2671
  513MOL0     C69180  12.212   8.580   7.040 -0.3677 -0.2030  0.0828
  513MOL0     C69181  12.340   8.530   6.973  0.3647 -0.6042  0.1034
  513MOL0     C69182  12.405   8.417   7.061  0.8937 -0.4329 -0.0618
  513MOL0     C69183  12.328   8.291   7.053 -0.5035  0.0699  0.1714
  513MOL0     C69184  12.252   8.199   7.050 -0.1778  1.0756 -0.0152
  513MOL0     C69185  11.833   8.636   6.953  0.4072  0.2218  0.6121
  513MOL0     C69186  11.699   8.613   7.001 -0.1910  0.3171  0.6810
  513MOL0     C69187  11.610   8.727   7.051 -1.0394  0.7027  0.3747
  513MOL0     H69188  11.414   8.361   7.354 -1.3676  3.4305 -0.5376
  513MOL0     H69189  11.184   8.280   7.423  1.6102  0.0672  0.8083
  513MOL0     H69190  11.123   7.955   7.373  0.4861 -0.6759  1.7441
  513MOL0     H69191  11.061   8.079   7.482 -0.7220 -2.6870  1.9495
  513MOL0     H69192  10.840   7.992   7.315 -1.1316  1.6583  1.8297
  513MOL0     H69193  10.864   7.984   7.493  1.8172 -0.7659  0.3552
  513MOL0     H69194  10.856   7.761   7.422  1.0895 -1.8299  0.2992
  513MOL0     H69195  11.019   7.789   7.459  2.2156  2.5418 -1.6359
  513MOL0     H69196  10.925   7.818   7.167 -4.5496 -1.2032  1.6605
  513MOL0     H69197  11.091   7.810   7.235  0.0660  0.3647  1.8399
  513MOL0     H69198  10.893   7.590   7.282 -0.7653  0.6849 -0.0973
  513MOL0     H69199  10.951   7.599   7.122  3.0480 -1.5727 -0.6739
  513MOL0     H69200  11.192   7.565   7.213 -0.1857 -0.5654 -0.0811
  513MOL0     H69201  11.116   7.527   7.370 -0.1984  0.4357  0.9406
  513MOL0     H69202  11.165   7.351   7.181  0.0560  0.9791  1.2009
  513MOL0     H69203  11.017   7.398   7.100 -0.7388 -1.7330 -1.2393
  513MOL0     H69204  11.064   7.256   7.353  1.2584  2.5075 -0.3536
  513MOL0     H69205  10.915   7.360   7.356  0.4042 -1.5668  3.5751
  513MOL0     H69206  11.024   7.103   7.073 -0.8376 -4.1264 -0.3338
  513MOL0     H69207  10.948   6.870   7.008  0.6058  2.6760  0.5649
  513MOL0     H69208  10.804   6.820   7.097 -0.9551  0.7576 -1.0855
  513MOL0     H69209  10.780   7.017   6.871  1.7000 -0.6333  0.7328
  513MOL0     H69210  10.811   6.865   6.820  1.8773  2.1662 -1.3951
  513MOL0     H69211  10.561   6.897   7.005 -1.7454 -1.6833 -0.4134
  513MOL0     H69212  10.640   6.747   6.962  1.2476 -0.8190 -2.3229
  513MOL0     H69213  10.437   6.810   6.862  1.8390 -0.2184  3.2724
  513MOL0     H69214  10.576   6.763   6.754  3.9897  3.4147 -2.2101
  513MOL0     H69215  10.642   6.779   6.578  0.8655  0.0426  1.6477
  513MOL0     H69216  10.771   6.857   6.374  2.3882  0.8424  0.9067
  513MOL0     H69217  11.047   6.935   6.091 -0.9071 -0.5776 -0.4596
  513MOL0     H69218  11.152   6.994   5.892  1.0894  0.9098  1.0990
  513MOL0     H69219  10.930   7.237   5.577 -0.7219  0.2939 -0.1293
  513MOL0     H69220  11.046   7.340   5.685  1.0295  0.0905 -1.6147
  513MOL0     H69221  11.232   7.250   5.548 -1.1789  0.0764  2.1312
  513MOL0     H69222  11.119   7.169   5.440 -0.4605 -1.5315  1.2894
  513MOL0     H69223  11.022   7.419   5.405 -0.0890 -0.4980  1.1432
  513MOL0     H69224  11.153   7.473   5.510 -1.6502 -0.3879  1.1253
  513MOL0     H69225  11.171   7.349   5.231 -0.2527 -3.2194  0.5630
  513MOL0     H69226  11.311   7.389   5.321 -0.5486 -2.8052 -0.4295
  513MOL0     H69227  11.283   7.588   5.208 -1.6263  0.9899  0.3888
  513MOL0     H69228  11.203   7.629   5.349  1.6743  0.9000 -0.3820
  513MOL0     H69229  11.080   7.605   5.072 -2.1834 -0.4462 -1.4526
  513MOL0     H69230  10.979   7.542   5.196 -0.1860  0.3699 -3.3561
  513MOL0     H69231  11.090   7.828   5.180 -0.1445  1.3428  2.9368
  513MOL0     H69232  11.008   7.768   5.324 -2.9381 -0.0983 -0.8097
  513MOL0     H69233  10.863   7.895   5.156 -0.3503  0.3215  2.5089
  513MOL0     H69234  10.884   7.736   5.067  1.3643 -0.0670 -0.8397
  513MOL0     H69235  10.820   7.252   5.792 -2.5444 -1.5221 -0.0525
  513MOL0     H69236  10.723   7.201   6.025 -1.2412  1.4369 -1.7345
  513MOL0     H69237  10.617   7.255   6.445  1.6698  1.7613  2.1686
  513MOL0     H69238  10.541   7.185   6.661 -2.8532  0.5634 -0.0517
  513MOL0     H69239  11.129   8.093   7.041  1.6359 -0.5215 -1.3308
  513MOL0     H69240  11.354   8.154   6.973  0.4794 -0.3828  0.1765
  513MOL0     H69241  11.718   8.269   6.938  1.0558  0.1820 -1.1093
  513MOL0     H69242  11.931   8.336   6.828  0.3935  1.0239 -1.8960
  513MOL0     H69243  12.080   8.734   6.988 -2.4032 -1.5411  0.9342
  513MOL0     H69244  12.202   8.700   6.859  0.6819  0.2771 -0.4580
  513MOL0     H69245  12.156   8.496   7.083  1.1608 -0.0319  2.6195
  513MOL0     H69246  12.238   8.646   7.124 -0.0848 -0.9672  0.6026
  513MOL0     H69247  12.409   8.615   6.976 -0.1696 -0.1722  0.1164
  513MOL0     H69248  12.304   8.493   6.877 -1.1366  0.9654  0.0181
  513MOL0     H69249  12.500   8.394   7.012  0.7526 -2.0848  0.3932
  513MOL0     H69250  12.421   8.459   7.161  0.6264  1.7233 -0.8620
  513MOL0     H69251  12.193   8.111   7.039  0.4691  0.4440  1.2891
  513MOL0     H69252  11.873   8.737   6.946  1.6054 -0.2257  0.8009
  513MOL0     H69253  11.658   8.819   7.015  3.3742 -1.0413  1.1974
  513MOL0     H69254  11.504   8.714   7.027 -1.6294  2.2511  1.8751
  513MOL0     H69255  11.610   8.737   7.160 -2.4301 -1.0857  0.5863
  514MOL0     O69256   9.009   0.861   2.949 -0.1022 -0.5239  0.4267
  514MOL0     C69257   9.072   0.964   2.922 -0.0353  0.4988  0.6456
  514MOL0     O69258   9.056   1.036   2.804 -0.3909  0.2750  0.1163
  514MOL0     C69259   8.945   1.015   2.722  0.1838 -0.0323 -0.3572
  514MOL0     C69260   8.962   1.058   2.588  0.6446 -0.3810 -0.3946
  514MOL0     C69261   8.856   1.062   2.495 -1.2377 -0.1405 -0.5340
  514MOL0     C69262   8.736   0.994   2.522  0.0739 -0.0328  0.0825
  514MOL0     O69263   8.625   0.978   2.441 -1.0361 -0.8330 -0.6205
  514MOL0     C69264   8.648   0.981   2.294  0.1392 -1.1627  0.5110
  514MOL0     C69265   8.522   0.926   2.221 -0.4780  0.2321 -0.5510
  514MOL0     C69266   8.547   0.899   2.072 -0.3772  0.0174 -1.0228
  514MOL0     C69267   8.424   0.833   2.006  0.3537  0.2052  0.2289
  514MOL0     C69268   8.428   0.690   2.020 -0.6879  0.2792  1.1341
  514MOL0     C69269   8.294   0.615   1.956  1.0219  0.4566  0.1857
  514MOL0     C69270   8.313   0.475   1.905  0.1209 -0.0722  0.1192
  514MOL0     C69271   8.194   0.408   1.836  0.1410 -0.1242 -0.0528
  514MOL0     N69272   8.219   0.290   1.759 -0.0965 -0.2851 -0.9393
  514MOL0     C69273   8.149   0.252   1.646 -0.4421  0.2477 -0.8511
  514MOL0     C69274   8.193   0.126   1.615 -0.6463 -0.6282  0.0610
  514MOL0     C69275   8.168   0.065   1.487  0.4372 -0.5542 -0.2162
  514MOL0     C69276   8.057  -0.048   1.494  0.5601 -0.0764 -0.3703
  514MOL0     C69277   8.030  -0.084   1.348  0.8146  0.2425 -0.3007
  514MOL0     C69278   7.900  -0.163   1.329 -0.6459 -0.9865  0.7795
  514MOL0     O69279   7.886  -0.269   1.418  0.2896 -0.3725  0.3585
  514MOL0     C69280   7.797  -0.374   1.384  0.8982  0.0020  0.4469
  514MOL0     C69281   7.682  -0.360   1.299 -0.0043  0.5265  0.7708
  514MOL0     C69282   7.615  -0.472   1.246  0.2128 -0.3603 -0.5833
  514MOL0     C69283   7.649  -0.605   1.303 -0.0877 -0.6440  1.2896
  514MOL0     C69284   7.582  -0.723   1.250  1.1647  0.0333  0.3431
  514MOL0     O69285   7.633  -0.849   1.249  0.1339  0.3806  0.7098
  514MOL0     C69286   7.563  -0.943   1.175 -0.6593  0.6740 -0.3439
  514MOL0     C69287   7.550  -0.924   1.039 -1.2312  0.6587  0.6699
  514MOL0     C69288   7.475  -1.024   0.961  0.6362 -1.0714  0.0473
  514MOL0     C69289   7.423  -1.135   1.027 -0.3583  0.6012 -0.2180
  514MOL0     O69290   7.379  -1.239   0.947 -0.2400 -0.6610  0.4659
  514MOL0     C69291   7.249  -1.292   0.970 -0.4387 -0.7358  0.7474
  514MOL0     C69292   7.241  -1.434   1.042 -0.0798 -0.8102 -0.6058
  514MOL0     C69293   7.311  -1.551   0.971  0.2185  0.0373 -0.7314
  514MOL0     C69294   7.268  -1.685   1.027 -1.2009 -0.4317  0.5199
  514MOL0     C69295   7.318  -1.792   0.935 -0.6766 -0.0693 -0.8808
  514MOL0     C69296   7.242  -1.908   0.944  1.1670  0.3166  0.0205
  514MOL0     C69297   7.301  -2.021   0.851 -0.2728 -0.4319  0.2191
  514MOL0     C69298   7.326  -2.140   0.942 -0.0598  0.9722 -0.3780
  514MOL0    Cl69299   7.164  -2.202   1.008 -0.0436  0.2859  0.0409
  514MOL0     C69300   7.454  -1.157   1.163  0.1132  0.3745 -0.6988
  514MOL0     C69301   7.518  -1.057   1.241 -0.4283  0.6960  0.2125
  514MOL0     O69302   7.474  -0.698   1.192  0.3746 -0.2039  0.3138
  514MOL0     C69303   7.767  -0.614   1.388  1.1586  0.8860  0.4804
  514MOL0     C69304   7.833  -0.505   1.438  0.5105 -0.4310  0.4371
  514MOL0     N69305   8.279   0.088   1.718 -0.1207  0.1428 -0.2114
  514MOL0     N69306   8.299   0.188   1.797 -0.2596 -0.3031  0.6381
  514MOL0     C69307   8.721   0.938   2.652  0.3776 -0.3402  1.0871
  514MOL0     C69308   8.815   0.960   2.756  0.1252 -0.6470  0.5229
  514MOL0     C69309   9.195   0.991   3.005 -0.2332 -0.0240 -0.5190
  514MOL0     C69310   9.241   0.892   3.088 -0.1364 -0.7299  0.0492
  514MOL0     C69311   9.364   0.895   3.165 -0.0636  0.0962  1.0059
  514MOL0     C69312   9.439   1.021   3.160  0.4442  0.2826  0.6646
  514MOL0     O69313   9.553   1.055   3.223 -0.2849 -0.8847 -0.1481
  514MOL0     C69314   9.585   0.984   3.343 -0.8049  0.4008  0.4202
  514MOL0     C69315   9.505   1.027   3.462 -0.3447  0.6150 -0.2134
  514MOL0     C69316   9.540   1.170   3.510  0.2394 -0.8140 -0.8256
  514MOL0     C69317   9.687   1.203   3.550 -0.5356  0.3152  0.5480
  514MOL0     C69318   9.727   1.129   3.665  0.1456 -0.4977  0.6096
  514MOL0     C69319   9.753   1.061   3.764 -0.1773  1.0571 -0.4930
  514MOL0     C69320   9.397   1.111   3.061 -0.3998  0.3121 -0.4562
  514MOL0     C69321   9.285   1.106   2.988  0.9430  0.0614  0.3681
  514MOL0     C69322   9.263   1.214   2.883  0.0499  0.4710 -0.4123
  514MOL0     H69323   9.059   1.098   2.559  1.0350 -1.2535 -0.3395
  514MOL0     H69324   8.899   1.099   2.403 -2.2957 -2.1068 -1.9145
  514MOL0     H69325   8.673   1.081   2.257 -1.8992 -0.3418  1.1997
  514MOL0     H69326   8.738   0.921   2.278  1.4946  0.5707  1.3084
  514MOL0     H69327   8.443   1.001   2.230  0.5051  1.1064  1.5150
  514MOL0     H69328   8.496   0.835   2.276 -1.3587  1.0081  0.3624
  514MOL0     H69329   8.639   0.841   2.059  0.3999  1.2533 -1.1009
  514MOL0     H69330   8.552   0.997   2.023 -3.6720  0.6871 -0.2603
  514MOL0     H69331   8.328   0.874   2.038 -1.0209 -1.4704 -1.5125
  514MOL0     H69332   8.424   0.849   1.898  0.1814 -0.2963  0.1515
  514MOL0     H69333   8.521   0.648   1.982 -0.4235  0.0333  2.0353
  514MOL0     H69334   8.436   0.657   2.124 -1.4020 -1.0944  0.7727
  514MOL0     H69335   8.216   0.631   2.031 -0.7329  2.0824 -1.8811
  514MOL0     H69336   8.248   0.668   1.873  0.1209 -0.4992  0.0632
  514MOL0     H69337   8.355   0.410   1.982 -0.8129  3.5403  4.0649
  514MOL0     H69338   8.392   0.490   1.831  0.3369  0.6791  0.4834
  514MOL0     H69339   8.125   0.363   1.908 -0.4541 -0.6327 -0.9240
  514MOL0     H69340   8.156   0.484   1.767  2.4743  0.4613 -0.7778
  514MOL0     H69341   8.087   0.318   1.586  0.6316  2.6130  0.4885
  514MOL0     H69342   8.148   0.145   1.415 -1.3219 -1.1232 -0.4011
  514MOL0     H69343   8.268   0.031   1.457  0.0943 -2.5204  0.7774
  514MOL0     H69344   8.089  -0.137   1.548  1.9972  1.7181  1.9590
  514MOL0     H69345   7.968  -0.001   1.537  2.6318  2.3065  1.6462
  514MOL0     H69346   8.110  -0.149   1.310  0.1598 -1.8643  1.6662
  514MOL0     H69347   8.015  -0.006   1.273  0.4648 -0.0935 -0.5845
  514MOL0     H69348   7.907  -0.200   1.226 -1.5879  2.0924 -0.4721
  514MOL0     H69349   7.818  -0.092   1.330  1.4359  1.5725  1.3584
  514MOL0     H69350   7.656  -0.263   1.258  1.1454  0.5442  0.0335
  514MOL0     H69351   7.525  -0.472   1.186 -0.4630  1.2832  0.3771
  514MOL0     H69352   7.606  -0.839   1.003  0.4108 -0.3652  0.7246
  514MOL0     H69353   7.448  -1.007   0.857  0.4859  3.0439  0.6213
  514MOL0     H69354   7.192  -1.220   1.028 -0.6404  1.3802 -1.8496
  514MOL0     H69355   7.211  -1.301   0.868  2.3018 -1.1103 -0.3385
  514MOL0     H69356   7.289  -1.425   1.140 -1.0942  2.1800 -0.2925
  514MOL0     H69357   7.134  -1.455   1.056 -0.0394 -1.9228 -1.7743
  514MOL0     H69358   7.284  -1.538   0.866  2.0695  1.1937 -1.1259
  514MOL0     H69359   7.420  -1.539   0.963  0.1552 -0.0543 -2.0463
  514MOL0     H69360   7.160  -1.698   1.038 -1.7860  1.8879 -1.5701
  514MOL0     H69361   7.316  -1.699   1.125 -2.9142 -0.6909  1.3679
  514MOL0     H69362   7.421  -1.825   0.953 -0.9313 -1.3492 -1.6484
  514MOL0     H69363   7.317  -1.753   0.832  0.6373  1.3909 -0.3853
  514MOL0     H69364   7.239  -1.943   1.048 -3.9652 -2.3443 -0.6780
  514MOL0     H69365   7.137  -1.888   0.922  0.3777  2.4868  4.5627
  514MOL0     H69366   7.397  -1.999   0.805 -1.5973 -0.4078 -2.8130
  514MOL0     H69367   7.217  -2.058   0.790  0.4167 -2.5496  0.4915
  514MOL0     H69368   7.372  -2.220   0.884  1.9435  1.6141  0.2303
  514MOL0     H69369   7.394  -2.118   1.025  0.6920 -0.7363 -0.4949
  514MOL0     H69370   7.428  -1.252   1.209 -0.4902  0.8689  0.0071
  514MOL0     H69371   7.528  -1.080   1.347 -0.8976  1.6253  0.4682
  514MOL0     H69372   7.784  -0.715   1.424  0.9683  0.1589 -1.3450
  514MOL0     H69373   7.924  -0.506   1.497 -0.1551  1.1224  1.5575
  514MOL0     H69374   8.625   0.896   2.679  1.5804 -4.2182  0.0254
  514MOL0     H69375   8.798   0.930   2.859 -1.1191  3.0417  1.5338
  514MOL0     H69376   9.186   0.800   3.100  1.4168 -1.3354  3.7286
  514MOL0     H69377   9.390   0.810   3.227  4.9350 -2.7453 -4.0411
  514MOL0     H69378   9.691   0.996   3.366 -0.8338 -0.3445  1.0088
  514MOL0     H69379   9.581   0.876   3.325  4.8980  0.5839 -6.5746
  514MOL0     H69380   9.532   0.955   3.539  3.4935  0.5959 -1.3430
  514MOL0     H69381   9.397   1.039   3.447 -0.8495 -0.7967  1.8188
  514MOL0     H69382   9.487   1.197   3.602  1.1190 -1.0643 -0.2299
  514MOL0     H69383   9.519   1.254   3.443  2.9109  0.9014  0.2886
  514MOL0     H69384   9.742   1.173   3.460  1.1830 -0.3942  1.7748
  514MOL0     H69385   9.713   1.308   3.567  0.8922  0.2458 -0.9082
  514MOL0     H69386   9.769   0.991   3.843  0.3065 -0.3257 -1.7672
  514MOL0     H69387   9.463   1.194   3.036 -1.0614  0.7350 -0.8189
  514MOL0     H69388   9.326   1.301   2.905 -1.6193  1.5782  0.1464
  514MOL0     H69389   9.292   1.183   2.782  1.4469  0.0996  0.0798
  514MOL0     H69390   9.160   1.249   2.886  0.4648  1.7080  1.6822
  515MOL0     O69391   3.097   2.208  11.294  0.0479  0.4745 -0.3161
  515MOL0     C69392   3.106   2.274  11.191 -0.0559  0.3233  0.4443
  515MOL0     O69393   3.043   2.249  11.067 -0.1593 -0.6392 -0.7945
  515MOL0     C69394   2.962   2.143  11.068 -0.4437 -0.6253  0.4034
  515MOL0     C69395   3.008   2.020  11.027  0.3400  0.0653 -0.4775
  515MOL0     C69396   2.937   1.908  11.018  0.5804 -0.2937 -0.3447
  515MOL0     C69397   2.803   1.910  11.058 -0.8720 -0.2418  0.4666
  515MOL0     O69398   2.728   1.802  11.055  0.8941  0.3923 -0.5002
  515MOL0     C69399   2.795   1.686  11.117  1.0653 -0.2706 -0.0046
  515MOL0     C69400   2.690   1.587  11.163  0.4828 -0.2240  0.2614
  515MOL0     C69401   2.591   1.656  11.265 -0.1796  1.1728  0.3701
  515MOL0     C69402   2.487   1.558  11.315 -0.8655 -0.6249 -0.4460
  515MOL0     C69403   2.372   1.637  11.387  1.0056  1.0930 -0.1527
  515MOL0     C69404   2.305   1.561  11.489  0.3734  0.0732 -0.2870
  515MOL0     C69405   2.198   1.656  11.566  0.8085  0.1298 -0.5309
  515MOL0     C69406   2.147   1.585  11.695  0.9066  0.3801  1.2298
  515MOL0     N69407   2.251   1.573  11.784 -1.1653  0.0632 -0.5523
  515MOL0     C69408   2.343   1.657  11.841 -0.1028 -0.3139  0.1460
  515MOL0     C69409   2.412   1.582  11.929 -0.1042  0.4154  0.1875
  515MOL0     C69410   2.517   1.625  12.028 -0.3658 -0.0389 -0.6674
  515MOL0     C69411   2.460   1.613  12.173 -1.3794 -0.1892  0.4034
  515MOL0     C69412   2.567   1.603  12.274 -0.2514 -0.5177 -0.4520
  515MOL0     C69413   2.522   1.649  12.414  0.1156 -0.4332  0.4233
  515MOL0     O69414   2.395   1.585  12.456 -0.6067  0.1510  0.4314
  515MOL0     C69415   2.362   1.591  12.590 -0.0110 -0.0607 -0.4284
  515MOL0     C69416   2.230   1.578  12.617  0.6072 -0.7585  0.8773
  515MOL0     C69417   2.169   1.592  12.736 -0.3058  0.6325 -1.0642
  515MOL0     C69418   2.252   1.613  12.854  0.1329  0.0169  0.9022
  515MOL0     C69419   2.193   1.612  12.992 -0.3163  0.3209  0.6130
  515MOL0     O69420   2.098   1.519  13.011  0.9870 -0.2727 -0.6820
  515MOL0     C69421   2.038   1.503  13.133 -0.2436  0.0724 -0.3399
  515MOL0     C69422   1.902   1.476  13.129  0.3163 -0.7436 -0.1235
  515MOL0     C69423   1.820   1.460  13.244 -0.4508 -0.2161  0.6501
  515MOL0     C69424   1.876   1.469  13.364  0.7922  0.0484 -0.0262
  515MOL0     O69425   1.800   1.450  13.471 -0.1087  0.0601 -0.6935
  515MOL0     C69426   1.827   1.528  13.584 -1.3867  0.0857  1.1444
  515MOL0     C69427   1.748   1.492  13.707  0.2732  0.6574  0.3355
  515MOL0     C69428   1.747   1.605  13.816  0.3366  0.2221  0.5846
  515MOL0     C69429   1.693   1.537  13.938  0.5318 -0.4589 -0.8039
  515MOL0     C69430   1.622   1.639  14.026 -0.9504 -0.6455  0.0753
  515MOL0     C69431   1.485   1.679  13.969 -0.9470  0.4389  0.2269
  515MOL0     C69432   1.391   1.756  14.064 -0.0056 -0.2345  0.2397
  515MOL0     C69433   1.309   1.663  14.169 -0.0019 -0.2807  0.0503
  515MOL0    Cl69434   1.204   1.763  14.277  0.0188  0.1292 -0.4701
  515MOL0     C69435   2.017   1.467  13.375  0.1746  1.5931  0.6405
  515MOL0     C69436   2.102   1.477  13.258  0.5061  0.4399  0.0854
  515MOL0     O69437   2.251   1.690  13.076 -0.6127  0.2739 -0.0353
  515MOL0     C69438   2.385   1.623  12.835  0.1856  0.0300 -0.2915
  515MOL0     C69439   2.448   1.613  12.701  0.4354 -0.2150  0.5459
  515MOL0     N69440   2.378   1.448  11.921  0.3987 -0.0072  0.2018
  515MOL0     N69441   2.277   1.449  11.834 -0.7567  0.2019 -0.5500
  515MOL0     C69442   2.748   2.031  11.098  0.4296 -0.2995  0.3529
  515MOL0     C69443   2.823   2.149  11.096 -0.3188 -0.3727  0.2019
  515MOL0     C69444   3.207   2.384  11.208  0.1580 -0.5953  0.2899
  515MOL0     C69445   3.307   2.407  11.111  0.9013  0.6418 -0.2607
  515MOL0     C69446   3.407   2.499  11.135  0.3630  0.0590 -0.0031
  515MOL0     C69447   3.417   2.562  11.263  0.6237  0.0455 -0.1883
  515MOL0     O69448   3.521   2.643  11.319 -0.5221 -0.1627  0.3327
  515MOL0     C69449   3.609   2.701  11.223 -0.5378 -1.0304  0.4590
  515MOL0     C69450   3.596   2.858  11.211 -0.9306 -0.8330 -0.1471
  515MOL0     C69451   3.736   2.926  11.198  0.3519  0.2436  0.2546
  515MOL0     C69452   3.742   3.075  11.206  0.2818 -0.3625 -0.4178
  515MOL0     C69453   3.874   3.135  11.185 -0.2629  0.2809 -0.8789
  515MOL0     C69454   3.989   3.185  11.194 -0.6756 -0.6465  0.4180
  515MOL0     C69455   3.317   2.543  11.351  0.0079 -0.0060  1.1653
  515MOL0     C69456   3.214   2.458  11.325 -0.9025  0.2157  0.4100
  515MOL0     C69457   3.125   2.451  11.446  0.8094  0.5795  0.3659
  515MOL0     H69458   3.114   2.011  11.005  0.1086 -3.7124 -0.8004
  515MOL0     H69459   2.993   1.819  10.991  1.0696  0.3615 -1.5773
  515MOL0     H69460   2.856   1.627  11.048 -4.6402 -2.3426 -4.0107
  515MOL0     H69461   2.842   1.715  11.212 -1.5169 -1.7308  1.8577
  515MOL0     H69462   2.732   1.494  11.204  1.6410  1.7572  4.0995
  515MOL0     H69463   2.647   1.545  11.072  1.5537 -1.3956  0.2647
  515MOL0     H69464   2.534   1.734  11.214  1.7300  3.4238  1.5301
  515MOL0     H69465   2.643   1.705  11.347 -1.6464  1.9928  0.8443
  515MOL0     H69466   2.460   1.506  11.223  1.5214  0.1534 -1.6767
  515MOL0     H69467   2.531   1.487  11.385  0.2033  2.5739  2.4397
  515MOL0     H69468   2.416   1.728  11.428 -0.3317  1.8504 -0.3227
  515MOL0     H69469   2.303   1.668  11.308  0.9329  1.1425 -0.0702
  515MOL0     H69470   2.262   1.478  11.432 -2.1336  1.6967 -0.9163
  515MOL0     H69471   2.389   1.528  11.550 -0.2801 -0.9042  0.1113
  515MOL0     H69472   2.114   1.679  11.500 -0.4407 -0.0258  0.9422
  515MOL0     H69473   2.251   1.749  11.590  0.8006  0.7707 -2.7289
  515MOL0     H69474   2.065   1.640  11.741 -0.9809 -3.8018  3.3621
  515MOL0     H69475   2.106   1.487  11.670 -3.3409  2.6837 -2.2767
  515MOL0     H69476   2.350   1.766  11.838  1.7467 -0.3983  0.2811
  515MOL0     H69477   2.602   1.557  12.019  2.1331  2.9855 -1.8367
  515MOL0     H69478   2.560   1.723  12.006  0.8649 -0.7745 -1.6569
  515MOL0     H69479   2.411   1.705  12.206  0.3151  2.0901 -2.7854
  515MOL0     H69480   2.398   1.524  12.175  0.2696 -1.4612 -1.1234
  515MOL0     H69481   2.658   1.658  12.249 -1.4698  1.6431 -0.3198
  515MOL0     H69482   2.586   1.495  12.285  0.4701 -0.1899  2.6676
  515MOL0     H69483   2.516   1.758  12.425 -1.1888 -0.2235 -1.7541
  515MOL0     H69484   2.594   1.598  12.478 -0.7816 -1.2397  0.8210
  515MOL0     H69485   2.163   1.548  12.537 -2.7055  0.4421  3.0268
  515MOL0     H69486   2.064   1.574  12.757  0.0989 -3.3192 -1.6249
  515MOL0     H69487   1.850   1.468  13.034 -0.0735 -1.9135  0.1660
  515MOL0     H69488   1.719   1.435  13.211 -0.6078  0.9194  0.2065
  515MOL0     H69489   1.929   1.503  13.613 -0.6907 -1.0526 -1.8521
  515MOL0     H69490   1.826   1.636  13.568 -0.2606 -0.0994 -0.4101
  515MOL0     H69491   1.644   1.471  13.681  0.8496 -4.3791  1.2036
  515MOL0     H69492   1.791   1.401  13.749 -2.2892 -0.7261  0.1459
  515MOL0     H69493   1.839   1.663  13.825  0.1448  0.9185 -1.4130
  515MOL0     H69494   1.676   1.676  13.773 -1.8395 -1.8388  0.5913
  515MOL0     H69495   1.774   1.493  13.996  1.5661  0.5127 -1.4639
  515MOL0     H69496   1.627   1.450  13.932 -2.1840  1.2326  1.5058
  515MOL0     H69497   1.704   1.710  14.038  0.7018 -2.5242  0.4982
  515MOL0     H69498   1.601   1.587  14.120  1.2526 -0.5204  0.6756
  515MOL0     H69499   1.520   1.747  13.891 -0.2468  1.3239  1.2745
  515MOL0     H69500   1.426   1.596  13.929 -0.3526  0.4140 -0.6380
  515MOL0     H69501   1.317   1.813  14.008  0.1684  2.1536  2.2991
  515MOL0     H69502   1.433   1.834  14.128 -0.9940 -0.1975  0.8598
  515MOL0     H69503   1.232   1.607  14.115  0.4924  0.7204 -1.7544
  515MOL0     H69504   1.373   1.594  14.224  0.6385 -1.1852 -1.7587
  515MOL0     H69505   2.070   1.467  13.470  0.8290  0.9920  0.2872
  515MOL0     H69506   2.210   1.488  13.251  0.4126  0.5205 -1.5481
  515MOL0     H69507   2.458   1.640  12.914 -0.9313  1.1210  0.5492
  515MOL0     H69508   2.552   1.634  12.678  0.2368 -2.0358 -2.5937
  515MOL0     H69509   2.642   2.044  11.116  0.1351 -0.1981 -1.2997
  515MOL0     H69510   2.778   2.243  11.125 -2.0570 -0.7566 -1.0863
  515MOL0     H69511   3.304   2.333  11.032  2.4469 -2.5732  2.4495
  515MOL0     H69512   3.476   2.520  11.054  0.9942  1.0851  0.7673
  515MOL0     H69513   3.605   2.651  11.126 -2.2623  1.1276 -0.6786
  515MOL0     H69514   3.712   2.693  11.258 -0.9206  0.7880  2.1624
  515MOL0     H69515   3.559   2.899  11.306  1.6805 -1.6630  1.3299
  515MOL0     H69516   3.540   2.892  11.123  1.6916  1.6009 -1.0247
  515MOL0     H69517   3.774   2.902  11.099 -1.3644 -5.0407  0.5140
  515MOL0     H69518   3.797   2.886  11.280 -1.3499 -0.5592  1.2085
  515MOL0     H69519   3.673   3.110  11.129 -1.1665 -0.8455  0.6068
  515MOL0     H69520   3.705   3.116  11.301  0.4351  1.0349 -0.9407
  515MOL0     H69521   4.078   3.240  11.214 -0.5255  0.3553 -2.4910
  515MOL0     H69522   3.320   2.585  11.452 -1.7645  2.7269  0.2109
  515MOL0     H69523   3.084   2.548  11.474 -0.5276 -0.1314  0.9916
  515MOL0     H69524   3.033   2.398  11.418  1.1180  1.4945 -2.6597
  515MOL0     H69525   3.178   2.428  11.539  3.6784  2.2726 -0.7366
  516MOL0     O69526   6.253   5.633   3.295  0.7940 -0.3743  0.3029
  516MOL0     C69527   6.232   5.747   3.248  0.0689  0.4160  0.6450
  516MOL0     O69528   6.117   5.821   3.251  0.0329 -0.4945  0.1316
  516MOL0     C69529   6.002   5.760   3.286 -0.1368 -0.0875  0.0681
  516MOL0     C69530   5.956   5.782   3.413  0.6727 -0.3571  0.5021
  516MOL0     C69531   5.835   5.714   3.462 -1.0416  0.8522  0.3883
  516MOL0     C69532   5.769   5.620   3.378  0.0950 -0.6656 -0.2507
  516MOL0     O69533   5.663   5.541   3.415 -0.1051  0.3891  0.6785
  516MOL0     C69534   5.574   5.588   3.511 -0.0552 -0.0440 -0.6200
  516MOL0     C69535   5.489   5.703   3.455 -0.4059  0.2178  0.8553
  516MOL0     C69536   5.396   5.656   3.339  0.0772 -0.1178 -0.3243
  516MOL0     C69537   5.292   5.763   3.324  0.0763 -0.5080  0.3367
  516MOL0     C69538   5.156   5.721   3.260  0.1282  0.1468  0.3022
  516MOL0     C69539   5.139   5.758   3.118 -0.1021 -0.0242  0.0404
  516MOL0     C69540   4.997   5.733   3.068  0.0537 -0.4971  0.9042
  516MOL0     C69541   4.884   5.836   3.102 -1.2532 -0.3156 -0.7254
  516MOL0     N69542   4.901   5.956   3.012 -0.0236  0.1366  0.2469
  516MOL0     C69543   4.870   5.960   2.872  0.8129 -0.5557 -0.1280
  516MOL0     C69544   4.873   6.093   2.845  0.6966 -0.0767  0.3610
  516MOL0     C69545   4.839   6.168   2.719 -0.7704  0.4456  0.3746
  516MOL0     C69546   4.961   6.181   2.624 -0.3036  0.1816 -0.7808
  516MOL0     C69547   4.913   6.189   2.473 -0.4472  0.4164  0.0784
  516MOL0     C69548   5.018   6.123   2.386 -0.4628  0.3567 -0.6225
  516MOL0     O69549   4.953   6.053   2.275  0.7029 -1.0611 -0.2957
  516MOL0     C69550   5.029   5.963   2.201  0.7780 -0.0825 -0.1931
  516MOL0     C69551   5.173   5.949   2.216 -0.2433  0.1388 -0.4206
  516MOL0     C69552   5.236   5.849   2.143 -1.1026  1.2298 -0.4857
  516MOL0     C69553   5.175   5.776   2.044 -0.9482 -0.6604 -0.6781
  516MOL0     C69554   5.251   5.694   1.941  0.1607  0.3884  0.2891
  516MOL0     O69555   5.366   5.756   1.898  0.2893 -0.8334 -0.4221
  516MOL0     C69556   5.447   5.684   1.811  0.5855 -0.0594 -0.3195
  516MOL0     C69557   5.551   5.600   1.860  0.3211  1.1042  0.3866
  516MOL0     C69558   5.636   5.526   1.768  0.1501 -0.8515  0.0257
  516MOL0     C69559   5.602   5.536   1.633 -0.6995  0.8646  0.1547
  516MOL0     O69560   5.645   5.443   1.542 -0.0785 -0.2647 -0.3391
  516MOL0     C69561   5.785   5.400   1.552  1.0005 -1.1030  0.9879
  516MOL0     C69562   5.810   5.322   1.418 -0.2212 -0.0577 -0.4357
  516MOL0     C69563   5.952   5.285   1.416  0.0330 -1.3215  1.1204
  516MOL0     C69564   5.968   5.143   1.467  0.0735 -0.7733 -0.4300
  516MOL0     C69565   6.116   5.093   1.444 -0.3239  0.3163  0.6366
  516MOL0     C69566   6.132   4.935   1.455 -0.9588 -0.2178  0.1745
  516MOL0     C69567   6.276   4.914   1.408 -0.5209 -0.3087 -0.6745
  516MOL0     C69568   6.317   4.776   1.449 -0.4976  0.5830  0.7101
  516MOL0    Cl69569   6.247   4.649   1.351 -0.1064 -0.2939 -0.8490
  516MOL0     C69570   5.497   5.615   1.585 -0.2061  0.1888 -0.6767
  516MOL0     C69571   5.424   5.694   1.675 -0.3521  0.4652  0.2694
  516MOL0     O69572   5.206   5.581   1.910  0.1319 -0.7835 -0.5072
  516MOL0     C69573   5.042   5.800   2.023  1.0603  1.0258 -0.5769
  516MOL0     C69574   4.969   5.895   2.095  0.2121 -0.2910  0.4175
  516MOL0     N69575   4.906   6.170   2.958 -0.1754 -0.6700 -0.5398
  516MOL0     N69576   4.938   6.083   3.052 -0.2641  0.1454 -0.1356
  516MOL0     C69577   5.812   5.614   3.247  0.5622 -0.5894  0.7863
  516MOL0     C69578   5.923   5.686   3.200  0.1869 -0.7773 -0.0128
  516MOL0     C69579   6.347   5.839   3.218 -0.5954  0.2949 -0.8852
  516MOL0     C69580   6.343   5.980   3.250 -0.9429  1.0624  0.4852
  516MOL0     C69581   6.443   6.067   3.211 -0.1491  1.1310 -0.2584
  516MOL0     C69582   6.555   6.015   3.144  0.1604 -0.0454  0.4834
  516MOL0     O69583   6.639   6.114   3.114 -0.4637 -1.0581 -0.3983
  516MOL0     C69584   6.777   6.082   3.090 -0.0587  0.6694  0.6251
  516MOL0     C69585   6.847   6.046   3.218  1.2174 -0.3231 -0.1879
  516MOL0     C69586   6.830   6.150   3.337  0.5138  0.1413 -0.2140
  516MOL0     C69587   6.840   6.296   3.288  0.7296  0.1363 -0.3575
  516MOL0     C69588   6.819   6.384   3.405 -0.6463  0.6773  0.1298
  516MOL0     C69589   6.794   6.463   3.497 -0.0403 -0.1363  0.0741
  516MOL0     C69590   6.565   5.877   3.113 -0.3124 -0.8571  0.8494
  516MOL0     C69591   6.465   5.792   3.151 -0.7599  0.0751 -0.9714
  516MOL0     C69592   6.494   5.650   3.114  0.0349  0.1390  0.1560
  516MOL0     H69593   6.013   5.846   3.480  0.8989 -1.0697  0.9978
  516MOL0     H69594   5.802   5.732   3.564 -1.4866  0.5064  0.3123
  516MOL0     H69595   5.502   5.508   3.532 -0.8573  0.3864 -1.6590
  516MOL0     H69596   5.630   5.612   3.602  2.3639 -1.1635 -1.7209
  516MOL0     H69597   5.559   5.777   3.415  0.0290 -0.2157  0.8033
  516MOL0     H69598   5.427   5.748   3.533  0.2766  1.0612  0.9360
  516MOL0     H69599   5.353   5.562   3.377 -1.0542  0.4275 -0.2184
  516MOL0     H69600   5.450   5.633   3.247  1.7746  0.1424  0.5598
  516MOL0     H69601   5.254   5.780   3.425 -4.5245 -4.1944 -0.4078
  516MOL0     H69602   5.323   5.860   3.284  0.5969 -1.0708 -0.6561
  516MOL0     H69603   5.152   5.613   3.276 -0.5747 -0.4047 -2.9691
  516MOL0     H69604   5.072   5.765   3.316  0.6966  1.4798  0.1485
  516MOL0     H69605   5.160   5.865   3.110 -1.1601  0.1285 -1.0936
  516MOL0     H69606   5.210   5.702   3.056 -2.2190 -1.4821 -1.2146
  516MOL0     H69607   4.964   5.630   3.086  1.3773 -1.1662 -0.3022
  516MOL0     H69608   5.011   5.739   2.960  3.6326 -4.7343  0.8493
  516MOL0     H69609   4.781   5.808   3.082 -2.1410  1.6788  0.7292
  516MOL0     H69610   4.875   5.855   3.209 -0.7797  0.4560 -0.8107
  516MOL0     H69611   4.860   5.892   2.787 -0.0894 -0.4610 -0.1063
  516MOL0     H69612   4.759   6.111   2.671  0.1718  1.0523 -2.0818
  516MOL0     H69613   4.789   6.261   2.746 -2.9623 -1.0924  1.8851
  516MOL0     H69614   5.026   6.265   2.651 -0.4210  0.5204 -1.5392
  516MOL0     H69615   5.011   6.084   2.639 -1.3251 -0.3924 -1.0289
  516MOL0     H69616   4.904   6.294   2.443 -1.4185  0.6625  1.1464
  516MOL0     H69617   4.820   6.137   2.449  0.5080  0.3435 -4.3283
  516MOL0     H69618   5.067   6.045   2.445  0.0353  1.2764  0.2180
  516MOL0     H69619   5.085   6.197   2.342  3.4566 -1.9620  0.9321
  516MOL0     H69620   5.232   6.018   2.274 -0.5245  0.6609 -0.7469
  516MOL0     H69621   5.343   5.836   2.162 -1.9426 -0.9907  4.0199
  516MOL0     H69622   5.558   5.591   1.968  0.0441 -2.2706  0.2330
  516MOL0     H69623   5.705   5.450   1.802  2.2357 -0.3966 -2.7787
  516MOL0     H69624   5.843   5.490   1.574 -2.1013  1.5500 -0.7688
  516MOL0     H69625   5.798   5.324   1.629 -2.3479 -2.6034  0.2468
  516MOL0     H69626   5.745   5.235   1.409 -1.0269  0.3293  1.1265
  516MOL0     H69627   5.784   5.378   1.327  2.1000 -1.3775 -1.9889
  516MOL0     H69628   5.987   5.298   1.313  0.9046 -0.6313  1.4881
  516MOL0     H69629   6.011   5.349   1.484  0.9558 -1.0459  0.0838
  516MOL0     H69630   5.889   5.085   1.419  0.0954  0.6536 -2.2908
  516MOL0     H69631   5.944   5.126   1.573 -1.6622  0.0996 -0.6373
  516MOL0     H69632   6.181   5.145   1.515 -2.6427 -0.2725  3.4131
  516MOL0     H69633   6.142   5.118   1.341  0.9359 -3.4725 -0.1257
  516MOL0     H69634   6.120   4.902   1.559  2.2833  2.1031  1.4332
  516MOL0     H69635   6.062   4.888   1.386  0.3678  0.0223 -1.3767
  516MOL0     H69636   6.341   4.988   1.456 -0.6717 -0.7900  0.2928
  516MOL0     H69637   6.282   4.922   1.299  3.1942  0.4124 -0.5530
  516MOL0     H69638   6.423   4.777   1.423 -1.3263  1.2309 -3.3982
  516MOL0     H69639   6.299   4.759   1.555 -1.4810 -3.4908  0.0658
  516MOL0     H69640   5.471   5.595   1.482  0.9632 -5.2383 -0.2487
  516MOL0     H69641   5.351   5.763   1.634 -1.5113 -1.4195 -0.9894
  516MOL0     H69642   4.988   5.747   1.946  3.6871 -1.5466 -0.8414
  516MOL0     H69643   4.863   5.906   2.075  0.3487  0.2890 -0.0192
  516MOL0     H69644   5.746   5.562   3.179  1.0769  0.8852 -0.9230
  516MOL0     H69645   5.951   5.689   3.095 -1.4901  0.0955 -0.4798
  516MOL0     H69646   6.253   6.013   3.300 -1.1295  2.4407 -0.7088
  516MOL0     H69647   6.463   6.167   3.248  1.1240  0.7148  0.2091
  516MOL0     H69648   6.827   6.172   3.052 -1.2384  0.5946 -1.2329
  516MOL0     H69649   6.774   6.012   3.006 -3.6636  0.8649  0.4497
  516MOL0     H69650   6.954   6.051   3.195  0.8561  0.4284 -1.8902
  516MOL0     H69651   6.823   5.943   3.241  1.0644 -0.5602 -1.3141
  516MOL0     H69652   6.914   6.128   3.404  1.2691 -1.9836 -1.7420
  516MOL0     H69653   6.734   6.139   3.388 -1.6217  0.6926 -3.8036
  516MOL0     H69654   6.937   6.314   3.240  0.6147  0.9180 -0.3096
  516MOL0     H69655   6.758   6.309   3.217 -1.9014  0.3915  2.5436
  516MOL0     H69656   6.777   6.517   3.588  1.3564  1.1867 -0.4122
  516MOL0     H69657   6.651   5.831   3.064  0.6224 -1.2812  2.7733
  516MOL0     H69658   6.583   5.612   3.165  1.0619 -1.0967 -2.3943
  516MOL0     H69659   6.408   5.584   3.131  0.6904 -0.5711  0.8161
  516MOL0     H69660   6.503   5.643   3.006 -2.1286  1.6122 -0.1885
  517MOL0     O69661   7.073   5.831   8.153 -0.4010 -0.4056  0.5704
  517MOL0     C69662   7.137   5.918   8.209 -0.6247 -0.0253  0.2865
  517MOL0     O69663   7.211   6.009   8.147 -0.4788 -0.2465 -0.4427
  517MOL0     C69664   7.257   5.970   8.019  1.0818 -0.4019  0.0627
  517MOL0     C69665   7.158   5.962   7.910 -0.6405  0.5671  0.8439
  517MOL0     C69666   7.202   5.913   7.787 -0.3442 -0.5533 -0.2749
  517MOL0     C69667   7.342   5.899   7.761  0.0862 -0.6943  0.1908
  517MOL0     O69668   7.378   5.848   7.637  0.1375 -0.7416 -0.0723
  517MOL0     C69669   7.519   5.866   7.597 -0.2525  0.4239 -0.2144
  517MOL0     C69670   7.523   5.825   7.445  0.8181  0.1367 -0.4057
  517MOL0     C69671   7.465   5.935   7.352 -1.4259  0.7526  0.6484
  517MOL0     C69672   7.575   6.038   7.323  0.1954  0.4234 -0.5367
  517MOL0     C69673   7.510   6.153   7.243 -0.0056  0.1367  0.4253
  517MOL0     C69674   7.622   6.244   7.180  0.4616 -0.3364 -0.2620
  517MOL0     C69675   7.575   6.319   7.042 -0.8651 -0.0063 -0.6582
  517MOL0     C69676   7.475   6.439   7.060 -0.1302  0.0251  0.4840
  517MOL0     N69677   7.423   6.508   6.946 -0.1753  0.7843 -0.0224
  517MOL0     C69678   7.292   6.518   6.930 -0.0557 -0.5541 -0.3135
  517MOL0     C69679   7.282   6.544   6.792  0.4344 -0.5189  0.0990
  517MOL0     C69680   7.162   6.566   6.708  0.1935 -0.3507  0.3599
  517MOL0     C69681   7.186   6.673   6.595 -0.4266  0.7033 -0.0828
  517MOL0     C69682   7.058   6.742   6.540  0.0868 -0.1274 -0.6433
  517MOL0     C69683   7.068   6.886   6.504 -0.2194  0.8834 -0.0259
  517MOL0     O69684   6.939   6.951   6.476 -0.2749  0.7072 -0.6034
  517MOL0     C69685   6.928   7.058   6.559  0.2936 -0.3086  0.2288
  517MOL0     C69686   6.992   7.179   6.510  0.5827  1.2015  0.9727
  517MOL0     C69687   6.991   7.297   6.593 -0.8773  0.2764 -0.1497
  517MOL0     C69688   6.942   7.293   6.719 -0.3897  0.2640 -0.2499
  517MOL0     C69689   6.981   7.400   6.806 -0.1167  1.3292  0.4261
  517MOL0     O69690   6.988   7.521   6.746  0.4424 -0.0642  0.7502
  517MOL0     C69691   7.006   7.632   6.826 -0.1129 -0.0574 -0.4702
  517MOL0     C69692   7.076   7.650   6.949  0.3395  0.8948 -0.2417
  517MOL0     C69693   7.092   7.777   7.006  0.6800 -0.4307  0.3510
  517MOL0     C69694   7.042   7.895   6.954 -0.6197 -0.2798  0.7041
  517MOL0     O69695   7.061   8.028   6.996  0.6820  0.7059 -0.1136
  517MOL0     C69696   7.109   8.046   7.130  0.1561 -1.1712 -0.8887
  517MOL0     C69697   7.143   8.193   7.147 -0.4160  1.3638  0.3877
  517MOL0     C69698   7.277   8.237   7.077 -1.1604  0.1504  0.5127
  517MOL0     C69699   7.274   8.386   7.037  0.5482 -0.1715 -0.6513
  517MOL0     C69700   7.390   8.421   6.938  0.2701  0.0436 -0.4637
  517MOL0     C69701   7.386   8.551   6.851 -0.1631 -0.2822  0.3311
  517MOL0     C69702   7.374   8.681   6.930 -0.4210  0.6749 -0.2893
  517MOL0     C69703   7.335   8.792   6.835  0.0195 -0.0916 -0.0286
  517MOL0    Cl69704   7.484   8.853   6.744 -0.1952  0.2914 -0.3205
  517MOL0     C69705   6.996   7.881   6.829  0.0451 -0.0566  1.0554
  517MOL0     C69706   6.968   7.759   6.766  0.3260 -0.1588 -0.0200
  517MOL0     O69707   6.990   7.379   6.927 -0.5853  0.6253  0.0931
  517MOL0     C69708   6.869   7.180   6.760 -0.0878 -0.1191  0.7151
  517MOL0     C69709   6.860   7.060   6.677 -0.5675 -0.0595 -0.0908
  517MOL0     N69710   7.410   6.553   6.736  0.4193 -0.2055  0.3941
  517MOL0     N69711   7.499   6.541   6.834  0.0866  0.0110  0.2498
  517MOL0     C69712   7.423   5.919   7.864 -0.0080 -0.6150 -0.1875
  517MOL0     C69713   7.388   5.943   8.004 -0.8015  0.5876  0.6729
  517MOL0     C69714   7.145   5.908   8.362 -0.5061  0.1071  0.1172
  517MOL0     C69715   7.237   5.988   8.425  0.3787  0.0762  0.5272
  517MOL0     C69716   7.259   5.980   8.564 -0.3919  0.3977  0.2382
  517MOL0     C69717   7.161   5.915   8.648 -0.8151  0.1544 -0.3164
  517MOL0     O69718   7.186   5.926   8.784 -0.3269  0.1845 -0.1786
  517MOL0     C69719   7.080   5.896   8.873 -0.5571  0.4531  0.1152
  517MOL0     C69720   7.130   5.880   9.011 -1.2790 -0.0933 -0.5814
  517MOL0     C69721   7.172   5.996   9.104 -0.3920  0.9544 -0.1888
  517MOL0     C69722   7.305   6.060   9.056 -0.9879  0.6879 -0.3175
  517MOL0     C69723   7.345   6.178   9.135  0.6820 -0.1081 -0.3301
  517MOL0     C69724   7.387   6.278   9.195  0.1809 -0.2877  0.3356
  517MOL0     C69725   7.052   5.840   8.585 -0.1504 -0.5282  0.5798
  517MOL0     C69726   7.057   5.834   8.447 -0.7128 -0.5092 -0.0039
  517MOL0     C69727   6.945   5.747   8.388  0.4856  0.0769 -0.6733
  517MOL0     H69728   7.055   5.994   7.926 -0.9727 -0.3781  0.6924
  517MOL0     H69729   7.125   5.915   7.710  0.2867  2.6991 -0.9984
  517MOL0     H69730   7.561   5.966   7.598  0.1346  0.2742 -0.9408
  517MOL0     H69731   7.586   5.801   7.654  1.2317  1.1683 -1.0694
  517MOL0     H69732   7.464   5.735   7.423 -1.3165  1.5166 -0.6413
  517MOL0     H69733   7.630   5.815   7.422  1.5682  0.0768  2.7354
  517MOL0     H69734   7.386   5.988   7.406 -1.6784  1.7944 -0.6855
  517MOL0     H69735   7.428   5.910   7.252 -1.8489  1.2185  0.6801
  517MOL0     H69736   7.617   6.069   7.419  0.0267 -1.7428  0.2978
  517MOL0     H69737   7.653   5.980   7.273 -0.8912 -1.9194  0.3289
  517MOL0     H69738   7.450   6.111   7.162 -1.1367  3.2480 -0.4490
  517MOL0     H69739   7.446   6.220   7.302 -0.3090 -0.2892  0.5881
  517MOL0     H69740   7.654   6.324   7.248  0.1203 -1.2913  1.0745
  517MOL0     H69741   7.713   6.184   7.165 -0.2126 -0.9396 -2.2384
  517MOL0     H69742   7.543   6.240   6.973  0.7516 -0.3004 -1.1061
  517MOL0     H69743   7.660   6.374   7.000  0.2115 -0.0489  1.3187
  517MOL0     H69744   7.394   6.392   7.116 -1.3799  0.7445 -0.6471
  517MOL0     H69745   7.516   6.516   7.126  1.6884  1.3273 -1.9935
  517MOL0     H69746   7.213   6.526   7.004 -2.2955  0.9053 -2.7125
  517MOL0     H69747   7.140   6.470   6.659  2.3244 -1.5640  1.6178
  517MOL0     H69748   7.079   6.599   6.770 -1.3509 -2.1832 -0.6172
  517MOL0     H69749   7.241   6.758   6.637  0.1823  0.3174 -0.0822
  517MOL0     H69750   7.242   6.627   6.514  0.6803  0.7908  0.6130
  517MOL0     H69751   6.972   6.737   6.608 -3.0464  1.1043 -4.1832
  517MOL0     H69752   7.013   6.685   6.458 -3.2314  1.9512 -0.4656
  517MOL0     H69753   7.140   6.895   6.421 -0.0540  2.2573  0.2404
  517MOL0     H69754   7.120   6.933   6.588 -2.0747  0.2530  1.5515
  517MOL0     H69755   7.035   7.175   6.411 -1.8726  2.1259 -0.2187
  517MOL0     H69756   7.044   7.387   6.562  0.6541  0.5311  2.8337
  517MOL0     H69757   7.123   7.558   6.983  1.4924  0.8437 -1.8625
  517MOL0     H69758   7.136   7.786   7.105 -0.7162  1.3332  0.8714
  517MOL0     H69759   7.046   8.001   7.207 -0.5033 -0.1395 -0.8111
  517MOL0     H69760   7.210   8.003   7.138  0.0516 -1.5024 -1.3157
  517MOL0     H69761   7.060   8.242   7.095 -2.9129  1.2422  3.8976
  517MOL0     H69762   7.153   8.215   7.253  3.0601  0.5217  0.3329
  517MOL0     H69763   7.365   8.209   7.136  1.3509  0.2200 -2.8485
  517MOL0     H69764   7.304   8.174   6.991  1.6780 -0.2049  1.5358
  517MOL0     H69765   7.288   8.443   7.129  0.6555  0.7523 -1.2132
  517MOL0     H69766   7.173   8.415   7.008  0.1438 -1.0252 -0.1021
  517MOL0     H69767   7.404   8.337   6.870  1.2442  1.8104 -2.5384
  517MOL0     H69768   7.481   8.433   6.997  0.9108  1.4869 -1.6852
  517MOL0     H69769   7.473   8.559   6.786 -0.4045  0.6904  0.1098
  517MOL0     H69770   7.300   8.534   6.786  0.0913 -4.7940  0.8600
  517MOL0     H69771   7.471   8.701   6.977 -0.6927 -1.9432  1.6485
  517MOL0     H69772   7.302   8.664   7.010 -1.0564 -2.6188 -1.3920
  517MOL0     H69773   7.255   8.749   6.774  1.8375 -0.2362 -2.4568
  517MOL0     H69774   7.290   8.867   6.901  1.9588  0.4482  0.7553
  517MOL0     H69775   6.979   7.979   6.785 -1.0453  0.3466  2.2801
  517MOL0     H69776   6.921   7.749   6.668  5.4365 -0.7563 -2.7448
  517MOL0     H69777   6.830   7.168   6.860  2.7332 -1.1700  1.7901
  517MOL0     H69778   6.813   6.969   6.713 -0.8798 -0.1050 -0.6060
  517MOL0     H69779   7.529   5.912   7.842 -0.2209 -2.8631 -0.7208
  517MOL0     H69780   7.459   5.963   8.085 -0.4929  3.2785 -0.1446
  517MOL0     H69781   7.297   6.051   8.360  0.0915 -1.7717 -1.6331
  517MOL0     H69782   7.331   6.042   8.616 -3.3095  1.5137  3.3334
  517MOL0     H69783   7.047   5.796   8.845 -0.8170  0.4556  0.4172
  517MOL0     H69784   6.992   5.962   8.868 -1.8843 -1.1124  1.7285
  517MOL0     H69785   7.214   5.809   9.010 -0.9625  0.1790  1.2906
  517MOL0     H69786   7.066   5.813   9.069 -1.6266  0.2074 -0.6144
  517MOL0     H69787   7.181   5.966   9.209  1.2556  0.1558 -0.5266
  517MOL0     H69788   7.094   6.072   9.096 -0.1023  1.3891  0.9765
  517MOL0     H69789   7.388   5.989   9.064 -0.8790  0.9968  2.3814
  517MOL0     H69790   7.286   6.099   8.955 -2.1122 -2.7890 -1.5822
  517MOL0     H69791   7.427   6.362   9.248  1.6947 -0.9328  0.2698
  517MOL0     H69792   6.985   5.772   8.636  1.8651 -1.6560  1.8767
  517MOL0     H69793   6.889   5.790   8.305  0.1638  2.3398  0.6462
  517MOL0     H69794   6.979   5.649   8.352 -2.0938 -2.3298  2.7286
  517MOL0     H69795   6.866   5.719   8.457 -0.0238  3.4017  0.2632
  518MOL0     O69796   6.557   5.418   5.216 -0.4105 -0.0487 -0.0553
  518MOL0     C69797   6.665   5.445   5.154 -0.1407  0.0780 -0.1236
  518MOL0     O69798   6.789   5.455   5.206  0.8654 -0.2689  0.5799
  518MOL0     C69799   6.820   5.438   5.336  0.1362  0.1411 -0.0796
  518MOL0     C69800   6.895   5.333   5.391 -0.5762  0.3867 -0.6516
  518MOL0     C69801   6.908   5.330   5.528  0.5853  0.3479 -1.0829
  518MOL0     C69802   6.872   5.445   5.605  0.6817  0.3735  0.1986
  518MOL0     O69803   6.890   5.435   5.742  0.2248  0.0463 -0.0289
  518MOL0     C69804   6.775   5.437   5.830 -0.4553 -0.0330 -0.4336
  518MOL0     C69805   6.814   5.455   5.976  0.1020 -0.7343 -0.0384
  518MOL0     C69806   6.680   5.470   6.043 -0.0744 -0.3983 -0.7078
  518MOL0     C69807   6.692   5.453   6.198  0.9932  0.3676  0.9330
  518MOL0     C69808   6.547   5.483   6.242  0.7415  0.4209  0.2031
  518MOL0     C69809   6.532   5.479   6.399 -0.0865 -0.7694  0.0962
  518MOL0     C69810   6.599   5.369   6.475  0.4163  0.8541 -0.3490
  518MOL0     C69811   6.567   5.366   6.622  0.7749 -0.2700 -0.5088
  518MOL0     N69812   6.423   5.322   6.636 -0.2893 -0.1568 -0.6422
  518MOL0     C69813   6.370   5.208   6.584  0.7981  0.2877  0.7411
  518MOL0     C69814   6.247   5.203   6.637  0.8581  0.8614  0.4153
  518MOL0     C69815   6.151   5.074   6.617 -0.0853 -0.1116 -0.0503
  518MOL0     C69816   6.065   5.083   6.496  0.7077 -1.0383 -0.7241
  518MOL0     C69817   5.997   4.953   6.449 -0.1199 -0.1931 -0.0134
  518MOL0     C69818   5.882   4.904   6.540  0.4824  0.9257  0.0963
  518MOL0     O69819   5.932   4.831   6.655  0.3864  0.1703 -0.2019
  518MOL0     C69820   5.948   4.689   6.655 -0.1074 -0.4988 -0.5414
  518MOL0     C69821   5.911   4.610   6.551  0.5727  0.2738 -0.0545
  518MOL0     C69822   5.940   4.472   6.560  0.5515  1.2810  0.1930
  518MOL0     C69823   6.027   4.415   6.655  0.1209  0.0687 -1.6751
  518MOL0     C69824   6.074   4.275   6.653 -0.0031 -0.8347  0.7796
  518MOL0     O69825   6.054   4.205   6.546  0.7759 -0.4204 -0.3269
  518MOL0     C69826   6.115   4.087   6.513  0.6052  0.2432 -0.7211
  518MOL0     C69827   6.227   4.042   6.576 -0.7470  0.2413  0.5426
  518MOL0     C69828   6.265   3.904   6.556 -0.6914 -0.5350 -0.2054
  518MOL0     C69829   6.185   3.821   6.469  0.1497  0.3538 -0.3343
  518MOL0     O69830   6.217   3.685   6.449 -0.2474 -0.5899  0.7932
  518MOL0     C69831   6.343   3.668   6.386 -0.1428 -0.1240  0.3083
  518MOL0     C69832   6.390   3.527   6.426  0.0683  0.1243 -0.4854
  518MOL0     C69833   6.398   3.516   6.583 -0.5976 -0.6453  0.5333
  518MOL0     C69834   6.492   3.401   6.635  0.4779 -0.5587 -0.3950
  518MOL0     C69835   6.474   3.355   6.784 -0.8172  0.0293 -0.4448
  518MOL0     C69836   6.568   3.239   6.803 -0.2663  0.0269 -0.6431
  518MOL0     C69837   6.715   3.272   6.822 -0.1177 -0.7870  0.9362
  518MOL0     C69838   6.805   3.152   6.834 -0.0429 -0.2001  0.7533
  518MOL0    Cl69839   6.774   3.059   6.975 -0.2260  0.1172 -0.1127
  518MOL0     C69840   6.064   3.869   6.413 -0.3185 -0.5966 -0.8324
  518MOL0     C69841   6.032   4.008   6.432 -0.2160  1.0824  0.5928
  518MOL0     O69842   6.142   4.241   6.751 -0.8103  0.7582  0.4587
  518MOL0     C69843   6.061   4.501   6.761 -0.5990 -0.3206  0.2896
  518MOL0     C69844   6.028   4.636   6.760 -0.2224 -0.1880 -0.2418
  518MOL0     N69845   6.223   5.311   6.713 -0.2177  0.1479  0.3234
  518MOL0     N69846   6.329   5.388   6.707  0.1357 -0.3938 -0.1214
  518MOL0     C69847   6.798   5.546   5.553 -0.2203 -0.3742 -0.0330
  518MOL0     C69848   6.765   5.533   5.417 -0.2267 -0.9836 -1.2629
  518MOL0     C69849   6.651   5.441   5.007  0.1682 -0.9785 -0.4852
  518MOL0     C69850   6.773   5.421   4.941 -0.4090  0.6067 -0.0320
  518MOL0     C69851   6.769   5.414   4.799  0.3531 -0.8284  0.3969
  518MOL0     C69852   6.653   5.414   4.729 -0.3418 -0.0024 -0.2740
  518MOL0     O69853   6.664   5.400   4.594 -0.5008  0.8999  0.8404
  518MOL0     C69854   6.586   5.471   4.499  0.2717 -0.1461  0.0004
  518MOL0     C69855   6.663   5.488   4.361  0.1736 -1.0408 -1.0308
  518MOL0     C69856   6.745   5.371   4.308  1.3527  0.4680 -0.2141
  518MOL0     C69857   6.875   5.334   4.378  0.0955  0.4995 -0.1695
  518MOL0     C69858   6.975   5.436   4.401 -0.0354  0.1818  0.1728
  518MOL0     C69859   7.069   5.514   4.394 -0.2197  0.2598 -0.6311
  518MOL0     C69860   6.533   5.437   4.789  0.7124  0.0195 -0.6136
  518MOL0     C69861   6.529   5.461   4.932 -1.0835  0.3875  0.7559
  518MOL0     C69862   6.402   5.521   4.986 -0.1880 -0.2569 -0.5040
  518MOL0     H69863   6.929   5.251   5.329  0.7431 -0.0159  0.5578
  518MOL0     H69864   6.956   5.248   5.579 -0.6939 -0.6216 -1.3735
  518MOL0     H69865   6.701   5.514   5.810  0.3493  0.5059 -1.4157
  518MOL0     H69866   6.734   5.336   5.817 -0.1097 -0.7228  2.9284
  518MOL0     H69867   6.883   5.540   5.989  0.4083 -0.9712 -0.1069
  518MOL0     H69868   6.860   5.363   6.013  0.7599 -0.7478 -0.8592
  518MOL0     H69869   6.605   5.396   6.014 -0.2868 -0.1002 -0.9177
  518MOL0     H69870   6.651   5.573   6.020  1.4434  0.2927  0.2340
  518MOL0     H69871   6.710   5.347   6.218 -0.9449 -0.1791 -0.0006
  518MOL0     H69872   6.756   5.526   6.249 -0.3440  0.9232  1.8872
  518MOL0     H69873   6.500   5.573   6.202  1.1979  0.0839 -1.1698
  518MOL0     H69874   6.489   5.403   6.193  1.7066 -0.8612  1.0795
  518MOL0     H69875   6.576   5.572   6.437 -2.5456  0.5065  0.0449
  518MOL0     H69876   6.429   5.482   6.435  0.7894 -2.8986  3.2017
  518MOL0     H69877   6.708   5.381   6.467  0.3197  1.7085 -0.5186
  518MOL0     H69878   6.574   5.274   6.429  1.2955  1.1185 -1.4346
  518MOL0     H69879   6.622   5.289   6.677  0.3540 -1.4756 -1.7048
  518MOL0     H69880   6.583   5.464   6.668 -1.4266 -0.4340  0.7907
  518MOL0     H69881   6.416   5.129   6.525 -1.3033 -1.7144  1.5908
  518MOL0     H69882   6.223   4.992   6.612  2.8873  2.1918  1.6657
  518MOL0     H69883   6.086   5.053   6.703 -1.6453  1.3260 -0.8234
  518MOL0     H69884   5.991   5.161   6.519  0.8858 -0.5339 -1.7897
  518MOL0     H69885   6.128   5.127   6.418  3.3764  0.1692  1.8970
  518MOL0     H69886   6.078   4.879   6.449  0.8082  0.7845  0.6086
  518MOL0     H69887   5.972   4.961   6.343  4.8665 -3.7096 -1.8663
  518MOL0     H69888   5.807   4.852   6.481  3.2548 -1.6863 -1.3854
  518MOL0     H69889   5.840   4.997   6.580 -1.0025  1.2304 -2.0283
  518MOL0     H69890   5.851   4.629   6.463 -1.4095 -1.3922  0.8616
  518MOL0     H69891   5.910   4.415   6.473  1.7223  4.6341 -2.6392
  518MOL0     H69892   6.294   4.100   6.638 -2.2274  1.1950  1.3021
  518MOL0     H69893   6.354   3.860   6.598 -1.5593 -0.6802  1.5768
  518MOL0     H69894   6.330   3.686   6.279 -1.0752  4.7193  1.0325
  518MOL0     H69895   6.411   3.745   6.423 -0.8596  0.4267  0.5085
  518MOL0     H69896   6.309   3.460   6.395  0.1103  0.8999 -2.4422
  518MOL0     H69897   6.484   3.522   6.371 -0.0774  3.2426 -1.2552
  518MOL0     H69898   6.426   3.611   6.628 -2.2035 -0.5202  1.3527
  518MOL0     H69899   6.296   3.494   6.618 -0.8064 -1.1088 -0.3333
  518MOL0     H69900   6.595   3.435   6.619 -0.2311  2.3524  0.6876
  518MOL0     H69901   6.470   3.314   6.573  1.9047 -0.9663 -0.3834
  518MOL0     H69902   6.373   3.312   6.792 -0.3704 -0.9418  0.0765
  518MOL0     H69903   6.487   3.441   6.850 -1.1517 -1.3416  1.4641
  518MOL0     H69904   6.527   3.182   6.887  0.4626  0.4516  0.0251
  518MOL0     H69905   6.569   3.181   6.711  0.7891  0.7078 -1.0805
  518MOL0     H69906   6.730   3.338   6.908 -2.6029 -0.8743  1.4889
  518MOL0     H69907   6.753   3.323   6.733  0.0978 -1.0125  0.8982
  518MOL0     H69908   6.805   3.086   6.747  4.3713  1.2126 -0.6136
  518MOL0     H69909   6.907   3.192   6.844 -0.0473 -0.6511  3.7544
  518MOL0     H69910   6.005   3.805   6.349  1.4904 -0.7825 -2.4003
  518MOL0     H69911   5.941   4.041   6.384  0.0870  2.5677  0.9966
  518MOL0     H69912   6.120   4.465   6.845 -1.5414 -1.4362  0.4995
  518MOL0     H69913   6.069   4.698   6.839 -0.3224  1.2653 -1.2963
  518MOL0     H69914   6.765   5.637   5.602  1.0354 -0.3103  0.7449
  518MOL0     H69915   6.709   5.614   5.371 -2.5959 -0.4797  2.0759
  518MOL0     H69916   6.873   5.422   4.984 -0.8871  1.9673  1.1451
  518MOL0     H69917   6.865   5.408   4.748 -0.8316 -2.2129 -1.8319
  518MOL0     H69918   6.535   5.562   4.531  1.9778  0.7501  0.3243
  518MOL0     H69919   6.496   5.415   4.474 -0.2228 -0.7452  2.8261
  518MOL0     H69920   6.735   5.567   4.383  2.7800 -2.9469 -2.2818
  518MOL0     H69921   6.602   5.528   4.280 -1.0108  2.2404  1.2488
  518MOL0     H69922   6.762   5.376   4.200 -1.4112 -2.0600 -0.8794
  518MOL0     H69923   6.699   5.272   4.316  5.5902 -1.5770  2.1809
  518MOL0     H69924   6.856   5.297   4.479  1.9166  0.7580  0.3128
  518MOL0     H69925   6.919   5.245   4.332 -0.5804 -0.3581  0.7827
  518MOL0     H69926   7.153   5.579   4.379  0.4437 -0.7232 -1.3549
  518MOL0     H69927   6.441   5.439   4.732 -0.0376 -0.2268  0.5588
  518MOL0     H69928   6.421   5.625   5.014 -1.6246 -0.3581  1.0278
  518MOL0     H69929   6.321   5.528   4.912  0.9526 -0.1933 -1.7786
  518MOL0     H69930   6.365   5.460   5.069  1.1021 -2.3999 -1.4287
  519MOL0     O69931   2.742   6.766   7.554  1.1938  0.5647 -0.8753
  519MOL0     C69932   2.732   6.681   7.641 -0.3576 -0.4338  0.4977
  519MOL0     O69933   2.622   6.629   7.685 -0.4066  0.6606  0.3176
  519MOL0     C69934   2.500   6.669   7.653 -0.1073 -0.6650 -0.5925
  519MOL0     C69935   2.472   6.806   7.630  0.2091 -0.5138  0.2487
  519MOL0     C69936   2.347   6.849   7.578  0.2414  0.1088 -0.0886
  519MOL0     C69937   2.233   6.769   7.592 -0.3805  0.4836 -0.4727
  519MOL0     O69938   2.108   6.827   7.578 -0.0222 -0.3758  0.3616
  519MOL0     C69939   1.986   6.742   7.588  0.5967 -0.6298  0.6507
  519MOL0     C69940   1.862   6.828   7.565  0.5390 -0.2677  0.6090
  519MOL0     C69941   1.743   6.739   7.534  0.0057  0.6919 -0.0775
  519MOL0     C69942   1.633   6.812   7.448 -0.6014 -0.8351 -1.6728
  519MOL0     C69943   1.502   6.728   7.469 -0.6147  0.2359  0.4967
  519MOL0     C69944   1.384   6.777   7.390  0.3488 -0.0446  0.7840
  519MOL0     C69945   1.354   6.930   7.405  0.1248  0.6178  0.2683
  519MOL0     C69946   1.259   6.973   7.295  0.2013 -0.0008 -0.3920
  519MOL0     N69947   1.134   6.895   7.311  0.1692 -0.3412  0.9477
  519MOL0     C69948   1.051   6.889   7.425  0.0383 -0.5870  0.6328
  519MOL0     C69949   0.954   6.801   7.387  1.0351  0.5681  1.0173
  519MOL0     C69950   0.824   6.760   7.449  0.6481  0.0241 -0.3062
  519MOL0     C69951   0.819   6.774   7.601 -0.8450  0.0879 -0.0308
  519MOL0     C69952   0.669   6.796   7.643  0.2281  0.2418 -0.0549
  519MOL0     C69953   0.587   6.665   7.661  0.5795  0.1071  0.8328
  519MOL0     O69954   0.625   6.601   7.783 -0.6867  0.0040 -0.1290
  519MOL0     C69955   0.656   6.472   7.799 -0.6157  0.0379 -0.3333
  519MOL0     C69956   0.649   6.426   7.926  0.5124  0.0838  0.3317
  519MOL0     C69957   0.687   6.294   7.970  0.9750 -0.1207 -0.4316
  519MOL0     C69958   0.733   6.209   7.875  0.0979  0.1367 -0.8157
  519MOL0     C69959   0.782   6.074   7.918 -0.0020 -0.6206 -0.9260
  519MOL0     O69960   0.772   6.052   8.056 -0.6008  0.3818 -0.4059
  519MOL0     C69961   0.823   5.930   8.101  0.6896  0.2446 -0.9549
  519MOL0     C69962   0.741   5.854   8.189  0.0359  0.2755 -0.0656
  519MOL0     C69963   0.807   5.739   8.240  0.6386 -0.4298 -0.1020
  519MOL0     C69964   0.928   5.700   8.195 -0.4698  0.7471 -0.1324
  519MOL0     O69965   0.967   5.570   8.236  0.5972 -0.2535 -0.0784
  519MOL0     C69966   1.070   5.490   8.157 -0.1106  0.1700 -0.5923
  519MOL0     C69967   1.009   5.444   8.025  1.5339 -0.4630  0.3745
  519MOL0     C69968   1.094   5.343   7.945  0.0275 -0.4049 -0.6209
  519MOL0     C69969   1.227   5.398   7.911 -0.1137 -0.3772 -0.8175
  519MOL0     C69970   1.272   5.339   7.771 -0.8586 -0.0757  0.2291
  519MOL0     C69971   1.418   5.288   7.761 -0.0678 -0.0327  0.6760
  519MOL0     C69972   1.458   5.227   7.624  0.6613  0.5743  0.0657
  519MOL0     C69973   1.601   5.182   7.622  0.7757  0.4204  0.3039
  519MOL0    Cl69974   1.707   5.318   7.662 -0.5228  0.1346 -0.0629
  519MOL0     C69975   1.010   5.782   8.115  0.4200 -0.1855 -0.9010
  519MOL0     C69976   0.958   5.905   8.079 -0.2774  1.2251  0.2515
  519MOL0     O69977   0.818   5.990   7.837 -0.6108  0.7635 -0.5358
  519MOL0     C69978   0.732   6.245   7.737  0.9661 -0.6529  1.2604
  519MOL0     C69979   0.692   6.375   7.703  0.2748 -0.4857 -0.2924
  519MOL0     N69980   0.969   6.762   7.261 -0.3572  0.0231  0.4415
  519MOL0     N69981   1.072   6.825   7.208 -0.1547  0.4068  0.7356
  519MOL0     C69982   2.250   6.640   7.642 -0.3720  0.3410 -0.1009
  519MOL0     C69983   2.377   6.588   7.656 -0.4466  0.0890  0.1606
  519MOL0     C69984   2.858   6.662   7.706  0.0070  0.3800  0.6104
  519MOL0     C69985   2.894   6.530   7.730  0.3206  0.2920  0.5647
  519MOL0     C69986   3.027   6.490   7.781  0.3076 -1.0963  0.6633
  519MOL0     C69987   3.126   6.590   7.816 -0.4855  0.4529  1.2764
  519MOL0     O69988   3.240   6.560   7.874 -0.1574 -0.1517 -0.5126
  519MOL0     C69989   3.288   6.431   7.923 -0.4333 -0.3170 -0.4128
  519MOL0     C69990   3.347   6.341   7.813  0.8498  0.3946 -0.0472
  519MOL0     C69991   3.361   6.198   7.875  0.3353 -0.5883  0.2954
  519MOL0     C69992   3.396   6.108   7.760 -0.6840 -0.8157 -0.4594
  519MOL0     C69993   3.438   5.974   7.806 -0.3101 -0.4404 -0.4031
  519MOL0     C69994   3.480   5.867   7.847 -0.2147  0.4256 -0.1305
  519MOL0     C69995   3.089   6.727   7.796 -0.1573  0.2254 -0.8947
  519MOL0     C69996   2.953   6.761   7.742 -0.6036  0.1172 -0.0380
  519MOL0     C69997   2.922   6.908   7.725 -0.9177 -0.3074 -0.3187
  519MOL0     H69998   2.548   6.882   7.647  1.5296 -2.2456  2.6210
  519MOL0     H69999   2.345   6.954   7.549 -0.5599  0.4996  1.2572
  519MOL0     H70000   1.990   6.653   7.525  1.4155 -1.3086  1.6245
  519MOL0     H70001   1.962   6.691   7.682  2.8505  0.2368  1.7587
  519MOL0     H70002   1.887   6.902   7.487 -1.7144  0.0187  0.0988
  519MOL0     H70003   1.836   6.884   7.655 -0.1822 -2.3042  1.7187
  519MOL0     H70004   1.704   6.697   7.627 -2.2719  1.4967 -0.6167
  519MOL0     H70005   1.767   6.653   7.470 -3.0780 -0.4665  0.1656
  519MOL0     H70006   1.626   6.905   7.506 -0.3734 -1.3425 -0.8186
  519MOL0     H70007   1.674   6.831   7.348  2.1859  2.3185 -0.1620
  519MOL0     H70008   1.513   6.631   7.419 -0.0561  2.1789 -3.6389
  519MOL0     H70009   1.463   6.719   7.571  0.6760  0.7871  1.0520
  519MOL0     H70010   1.413   6.754   7.287  0.8988  0.5703  0.7945
  519MOL0     H70011   1.302   6.713   7.421  1.7975 -2.2515  0.2667
  519MOL0     H70012   1.447   6.988   7.394 -0.1505  1.0827  0.3527
  519MOL0     H70013   1.307   6.944   7.503  0.6707  0.1374  0.6073
  519MOL0     H70014   1.241   7.076   7.327  2.6173  0.2120  0.4215
  519MOL0     H70015   1.298   6.957   7.195 -0.5115 -0.9130 -0.5365
  519MOL0     H70016   1.072   6.942   7.518 -1.8153  2.4923 -0.5557
  519MOL0     H70017   0.749   6.831   7.414  0.5931  1.1804  1.9591
  519MOL0     H70018   0.802   6.656   7.426  3.4699 -1.4476  2.7147
  519MOL0     H70019   0.866   6.684   7.643  2.5553  0.5735 -2.3287
  519MOL0     H70020   0.880   6.858   7.636 -0.7370  1.4637 -3.1300
  519MOL0     H70021   0.626   6.871   7.576 -2.0829 -0.7612  0.1819
  519MOL0     H70022   0.652   6.852   7.735  1.0250  0.1833  0.1317
  519MOL0     H70023   0.597   6.602   7.572 -2.5024  1.1415 -0.3642
  519MOL0     H70024   0.483   6.698   7.666  1.3314  2.7151  0.6535
  519MOL0     H70025   0.613   6.498   7.999  2.3415  1.4455 -0.0257
  519MOL0     H70026   0.675   6.265   8.073  0.6182 -0.4755 -0.5699
  519MOL0     H70027   0.640   5.892   8.202  0.1673  0.8931 -0.7539
  519MOL0     H70028   0.737   5.684   8.302 -1.3037  0.7253 -1.1247
  519MOL0     H70029   1.153   5.557   8.131 -0.5761  1.3702  0.9041
  519MOL0     H70030   1.117   5.415   8.222  2.9484  2.5922  0.2663
  519MOL0     H70031   0.911   5.398   8.043  2.1505 -2.1823 -0.4315
  519MOL0     H70032   0.997   5.529   7.958  0.9590 -1.3034 -0.6221
  519MOL0     H70033   1.107   5.256   8.011  0.0224  1.9859  2.7895
  519MOL0     H70034   1.045   5.324   7.849  1.9328 -2.4317 -1.2774
  519MOL0     H70035   1.298   5.370   7.990  0.8758 -4.1821 -2.8123
  519MOL0     H70036   1.225   5.508   7.906  1.3756 -0.2120  1.0062
  519MOL0     H70037   1.272   5.420   7.698 -0.4902 -0.2469  0.0352
  519MOL0     H70038   1.201   5.259   7.746 -1.8423  0.3130  1.6449
  519MOL0     H70039   1.487   5.373   7.767  0.7198 -0.6399  0.3866
  519MOL0     H70040   1.444   5.223   7.845  2.9441  0.0635 -0.0718
  519MOL0     H70041   1.441   5.292   7.537  3.5844  1.7824  0.2725
  519MOL0     H70042   1.385   5.147   7.613  2.0600 -0.8721  0.9417
  519MOL0     H70043   1.610   5.099   7.694 -1.0964  0.4863  0.6768
  519MOL0     H70044   1.628   5.127   7.532  1.9759 -2.5817  2.3309
  519MOL0     H70045   1.106   5.747   8.079  2.0080  0.0841  2.6937
  519MOL0     H70046   1.019   5.967   8.014 -0.0560 -0.4203 -1.1939
  519MOL0     H70047   0.766   6.187   7.652 -0.1401 -0.8831  0.9551
  519MOL0     H70048   0.677   6.391   7.597 -1.4236  0.7534  0.0848
  519MOL0     H70049   2.176   6.566   7.670  2.1412 -2.2656  0.1627
  519MOL0     H70050   2.372   6.484   7.687  3.0026 -1.0041 -2.3655
  519MOL0     H70051   2.822   6.450   7.717  1.1568 -0.2568 -0.8734
  519MOL0     H70052   3.060   6.387   7.788  0.6691 -0.9434  1.3621
  519MOL0     H70053   3.203   6.378   7.968  0.0626  0.1506  1.1322
  519MOL0     H70054   3.366   6.445   7.998 -0.7168 -1.1086  0.0422
  519MOL0     H70055   3.439   6.389   7.781 -0.0011  1.2632 -1.2865
  519MOL0     H70056   3.278   6.328   7.729  1.0265  0.1827 -0.1615
  519MOL0     H70057   3.267   6.173   7.927  1.6432  0.1221  3.2096
  519MOL0     H70058   3.429   6.206   7.960 -1.4642  1.0728  1.6826
  519MOL0     H70059   3.306   6.095   7.700 -2.6764 -0.6230  2.3143
  519MOL0     H70060   3.476   6.149   7.698  0.9710 -2.4269  0.4939
  519MOL0     H70061   3.518   5.768   7.860  1.8222  0.9747 -1.3938
  519MOL0     H70062   3.157   6.801   7.834 -1.5758  1.4162 -0.5727
  519MOL0     H70063   2.956   6.967   7.810  1.4007 -1.4098 -0.3945
  519MOL0     H70064   2.966   6.941   7.630  1.1039  1.8558  1.2454
  519MOL0     H70065   2.813   6.919   7.723 -1.3598 -3.4077  0.8095
  520MOL0     O70066  11.081   7.699   7.813 -0.8860 -0.2766 -0.3690
  520MOL0     C70067  11.158   7.698   7.712  1.1640  0.0102  0.3054
  520MOL0     O70068  11.182   7.580   7.638  0.2797 -0.1293 -0.6085
  520MOL0     C70069  11.137   7.463   7.691 -0.0641  0.2713  0.1713
  520MOL0     C70070  11.223   7.369   7.750 -0.4518 -0.7188  0.4155
  520MOL0     C70071  11.179   7.244   7.793  0.3372 -0.7131 -1.0385
  520MOL0     C70072  11.047   7.206   7.773  0.0369  0.5599 -0.2848
  520MOL0     O70073  11.008   7.083   7.817 -0.7362  0.3948 -0.2417
  520MOL0     C70074  10.873   7.057   7.835  0.1142  0.5785 -0.2369
  520MOL0     C70075  10.864   6.935   7.923  0.4563  0.5440 -0.0094
  520MOL0     C70076  10.909   6.813   7.842  0.9844  0.6765  0.2347
  520MOL0     C70077  11.044   6.763   7.885 -0.1213  0.4799  0.7415
  520MOL0     C70078  11.089   6.637   7.805  0.4412  0.7356 -0.2623
  520MOL0     C70079  10.996   6.509   7.818  0.9615 -0.3981  0.6262
  520MOL0     C70080  11.005   6.441   7.953 -0.7041  0.2075  0.1467
  520MOL0     C70081  11.131   6.353   7.988 -0.6550  0.5215  0.2253
  520MOL0     N70082  11.133   6.313   8.127 -0.1194 -0.2367 -0.0572
  520MOL0     C70083  11.121   6.180   8.166  0.2247 -0.3721  0.6375
  520MOL0     C70084  11.148   6.182   8.297 -0.3142 -0.7702 -0.4527
  520MOL0     C70085  11.147   6.067   8.387  0.0876 -0.1002 -0.1365
  520MOL0     C70086  11.234   5.951   8.344 -0.6167  0.5213 -1.4258
  520MOL0     C70087  11.174   5.843   8.251  0.2622 -0.8190 -0.1179
  520MOL0     C70088  11.284   5.733   8.219  0.1421  0.1186  0.2499
  520MOL0     O70089  11.253   5.602   8.283 -0.5700 -0.1237  0.2778
  520MOL0     C70090  11.330   5.497   8.229  0.7703 -0.9829 -0.4116
  520MOL0     C70091  11.281   5.368   8.264 -0.2132 -0.1651 -0.9081
  520MOL0     C70092  11.366   5.256   8.232  0.7857 -0.0740  0.1275
  520MOL0     C70093  11.470   5.266   8.146  0.3759  0.3772  0.4461
  520MOL0     C70094  11.543   5.144   8.106  0.5238  0.8819 -0.0401
  520MOL0     O70095  11.652   5.160   8.019 -0.4977 -0.0369 -0.0089
  520MOL0     C70096  11.696   5.064   7.936  0.6163  0.4002  0.3043
  520MOL0     C70097  11.614   4.963   7.878 -0.5182  0.6027 -0.4826
  520MOL0     C70098  11.672   4.851   7.817 -0.2593 -0.3836 -0.1544
  520MOL0     C70099  11.811   4.841   7.818  1.2311  0.9461  0.6589
  520MOL0     O70100  11.868   4.729   7.756 -0.0227  0.5131  0.3098
  520MOL0     C70101  11.985   4.675   7.816  0.2218 -1.3015  0.0541
  520MOL0     C70102  12.026   4.546   7.748  1.0579  0.1876 -0.3761
  520MOL0     C70103  12.151   4.488   7.824 -0.0639 -0.7696 -0.6977
  520MOL0     C70104  12.176   4.354   7.765  0.2082 -0.0398 -1.1320
  520MOL0     C70105  12.259   4.256   7.850 -0.5897 -0.5263  0.2715
  520MOL0     C70106  12.261   4.118   7.785 -0.1587  0.1729  0.3167
  520MOL0     C70107  12.348   4.032   7.866  0.0065  0.5981  0.8294
  520MOL0     C70108  12.335   3.894   7.820 -0.0381  0.6211 -1.2040
  520MOL0    Cl70109  12.415   3.860   7.660  0.2206  0.0699  0.0246
  520MOL0     C70110  11.889   4.941   7.874  0.3693  0.3569  0.1926
  520MOL0     C70111  11.831   5.046   7.940 -0.0825  0.6690  0.3235
  520MOL0     O70112  11.493   5.036   8.133  0.1743 -0.1907 -0.4976
  520MOL0     C70113  11.523   5.390   8.116 -0.0728 -0.2325  0.7067
  520MOL0     C70114  11.453   5.508   8.152 -0.0367 -0.3136 -0.3055
  520MOL0     N70115  11.152   6.317   8.343 -0.4970 -0.2470  0.7166
  520MOL0     N70116  11.147   6.390   8.234  0.1704  0.1196  0.1020
  520MOL0     C70117  10.966   7.296   7.705 -0.4181 -0.2928 -0.9936
  520MOL0     C70118  11.005   7.430   7.674  0.4932 -0.1417  0.2140
  520MOL0     C70119  11.230   7.823   7.674  0.3306  0.1111  0.2857
  520MOL0     C70120  11.225   7.933   7.780  0.7588  1.4678  0.6471
  520MOL0     C70121  11.286   8.061   7.770 -0.7298  0.3869  0.6553
  520MOL0     C70122  11.355   8.080   7.656 -0.0853 -0.4013  0.3744
  520MOL0     O70123  11.424   8.194   7.621  0.2088 -0.6406 -0.5488
  520MOL0     C70124  11.460   8.284   7.729 -0.1509 -0.1643  0.2170
  520MOL0     C70125  11.555   8.395   7.682 -0.2421 -0.3813 -0.7913
  520MOL0     C70126  11.693   8.398   7.743  0.2677 -0.2283 -1.0573
  520MOL0     C70127  11.753   8.533   7.694  0.4958 -0.0513 -0.4891
  520MOL0     C70128  11.897   8.541   7.730  1.1730 -0.4677 -0.2070
  520MOL0     C70129  12.018   8.543   7.771  0.7811 -0.1836 -0.2823
  520MOL0     C70130  11.356   7.989   7.551 -0.1273  0.7039 -0.1722
  520MOL0     C70131  11.301   7.852   7.558 -0.1864 -1.2467  0.9293
  520MOL0     C70132  11.327   7.761   7.438  0.8695  0.8949  0.1006
  520MOL0     H70133  11.328   7.395   7.759 -0.1659 -2.2591  2.0554
  520MOL0     H70134  11.251   7.183   7.846 -0.4983 -0.6470  0.2196
  520MOL0     H70135  10.819   7.138   7.886  0.6846  0.3353  0.7929
  520MOL0     H70136  10.820   7.043   7.740  1.1574 -1.6242 -0.5570
  520MOL0     H70137  10.758   6.916   7.944 -0.0718  1.4757 -1.6335
  520MOL0     H70138  10.930   6.932   8.010 -0.6275  0.4952  0.8296
  520MOL0     H70139  10.909   6.830   7.734  2.6361 -0.6399 -0.0190
  520MOL0     H70140  10.840   6.729   7.856  1.0809  0.4786 -0.4346
  520MOL0     H70141  11.113   6.845   7.865  0.3865 -0.2467 -0.6571
  520MOL0     H70142  11.050   6.732   7.990  2.4278  1.9484  1.1062
  520MOL0     H70143  11.109   6.667   7.702 -0.4587 -0.7782 -0.9147
  520MOL0     H70144  11.186   6.607   7.846  1.3752 -0.7039 -3.2690
  520MOL0     H70145  10.893   6.540   7.796  1.4178  0.9023  0.2720
  520MOL0     H70146  11.022   6.437   7.739  0.7509 -0.1158  0.2982
  520MOL0     H70147  10.922   6.370   7.956 -0.3689 -0.1877  0.3017
  520MOL0     H70148  10.983   6.518   8.028  0.2083  2.3541 -1.6777
  520MOL0     H70149  11.120   6.274   7.913 -1.5642  2.0376 -1.3097
  520MOL0     H70150  11.219   6.411   7.959 -0.3097  0.2190  0.6600
  520MOL0     H70151  11.076   6.102   8.106 -3.3157  0.9230  1.3600
  520MOL0     H70152  11.179   6.095   8.488 -0.0434 -1.4606  0.3102
  520MOL0     H70153  11.046   6.024   8.395  1.1425 -3.1924 -1.6209
  520MOL0     H70154  11.333   5.982   8.307  1.2850  1.0526  3.4276
  520MOL0     H70155  11.259   5.903   8.439 -0.4840  2.1955 -0.5805
  520MOL0     H70156  11.155   5.886   8.152  1.3235 -2.0353 -0.8843
  520MOL0     H70157  11.086   5.806   8.304 -1.2578  2.6444  0.0261
  520MOL0     H70158  11.389   5.756   8.239  0.9102 -3.8606  1.9202
  520MOL0     H70159  11.282   5.710   8.112 -1.3951 -1.4689  0.5651
  520MOL0     H70160  11.209   5.343   8.341  0.4289 -1.6558 -0.7486
  520MOL0     H70161  11.342   5.157   8.270  0.9668 -0.7085 -1.3261
  520MOL0     H70162  11.507   4.979   7.884 -0.9350 -2.0159  0.2493
  520MOL0     H70163  11.617   4.773   7.764  2.2914 -0.8157 -2.3373
  520MOL0     H70164  12.064   4.750   7.802  1.0573 -2.0504  0.6610
  520MOL0     H70165  11.972   4.668   7.924  1.8555  0.1285  0.4024
  520MOL0     H70166  11.943   4.475   7.744  1.6763 -0.5533 -0.3592
  520MOL0     H70167  12.055   4.566   7.645  3.4875  2.4448  0.6371
  520MOL0     H70168  12.237   4.552   7.805 -0.3865 -0.3393 -0.7291
  520MOL0     H70169  12.123   4.483   7.929  1.3235 -3.7076 -0.3679
  520MOL0     H70170  12.207   4.360   7.661  2.1950 -0.3667 -0.5957
  520MOL0     H70171  12.079   4.305   7.755  0.5615 -1.0063  0.0459
  520MOL0     H70172  12.220   4.248   7.952  0.4666 -1.4957  0.6172
  520MOL0     H70173  12.363   4.291   7.860 -1.4496  2.0662  1.0167
  520MOL0     H70174  12.158   4.084   7.794 -2.0058  4.2446 -2.3062
  520MOL0     H70175  12.291   4.128   7.680  3.6754 -1.9879  1.0101
  520MOL0     H70176  12.300   4.039   7.964  1.0254  4.6687  1.2191
  520MOL0     H70177  12.452   4.066   7.864 -0.4850  2.2656  2.0614
  520MOL0     H70178  12.383   3.834   7.897 -0.8701 -0.4192 -1.4735
  520MOL0     H70179  12.227   3.880   7.819  0.0267  0.0244 -0.3257
  520MOL0     H70180  11.996   4.933   7.890  1.1306  4.7666 -1.4457
  520MOL0     H70181  11.896   5.107   8.002 -0.9403  1.6159  0.3263
  520MOL0     H70182  11.618   5.403   8.065  0.0093  0.6528  1.0577
  520MOL0     H70183  11.495   5.603   8.119 -0.8202 -0.6209 -2.3292
  520MOL0     H70184  10.860   7.275   7.688 -2.5275  4.1091  3.7914
  520MOL0     H70185  10.935   7.501   7.631 -0.8504 -0.6749  1.4280
  520MOL0     H70186  11.166   7.909   7.868  1.5480 -3.0036  0.2246
  520MOL0     H70187  11.285   8.140   7.845  3.6888  0.7859  0.5649
  520MOL0     H70188  11.506   8.241   7.818  1.1323  0.1672 -0.2740
  520MOL0     H70189  11.369   8.327   7.772 -2.2915 -1.6926 -2.4371
  520MOL0     H70190  11.500   8.481   7.722  2.7926  0.8467  1.1549
  520MOL0     H70191  11.570   8.382   7.575 -0.2900  1.9791 -1.1457
  520MOL0     H70192  11.751   8.311   7.713  0.0541 -0.5987 -0.4132
  520MOL0     H70193  11.673   8.403   7.850 -0.1074 -0.6556 -1.1030
  520MOL0     H70194  11.739   8.558   7.589 -0.6615 -1.1439 -0.6321
  520MOL0     H70195  11.702   8.611   7.753 -1.7208 -1.9935  0.3678
  520MOL0     H70196  12.116   8.512   7.802 -0.8256 -4.1079  1.4175
  520MOL0     H70197  11.416   8.007   7.462 -2.1311  2.0037 -1.3303
  520MOL0     H70198  11.391   7.685   7.484  0.1640  0.2114 -0.0319
  520MOL0     H70199  11.235   7.712   7.405  1.1423  0.3491  0.1355
  520MOL0     H70200  11.379   7.821   7.364  0.9558 -1.0221 -1.4847
  521MOL0     O70201  10.508   1.095   8.197  0.1374 -0.4202  0.6744
  521MOL0     C70202  10.567   1.145   8.096  0.2463 -0.2698 -0.4208
  521MOL0     O70203  10.538   1.121   7.962  0.8138  0.5931 -0.2708
  521MOL0     C70204  10.435   1.034   7.935  0.1615 -0.7494  0.1515
  521MOL0     C70205  10.435   0.902   7.975 -0.0947  0.2639 -0.1739
  521MOL0     C70206  10.336   0.808   7.929  0.3158 -0.5301  0.2476
  521MOL0     C70207  10.245   0.843   7.842  0.6346 -0.0421  0.8911
  521MOL0     O70208  10.149   0.759   7.794 -0.1613  0.2656  0.2124
  521MOL0     C70209  10.006   0.757   7.837  0.9679 -0.6820 -0.6240
  521MOL0     C70210   9.913   0.664   7.767  0.3124  0.4763 -0.6038
  521MOL0     C70211   9.771   0.682   7.837 -0.7706  1.0646 -0.1954
  521MOL0     C70212   9.663   0.644   7.727 -0.4812  0.6831  0.1349
  521MOL0     C70213   9.532   0.636   7.797 -0.2150 -0.4423 -0.3054
  521MOL0     C70214   9.503   0.507   7.857  0.6513 -0.2378 -0.1681
  521MOL0     C70215   9.371   0.491   7.928 -0.5973 -0.2396 -0.4661
  521MOL0     C70216   9.250   0.515   7.833 -0.2572  0.2604  0.4803
  521MOL0     N70217   9.132   0.448   7.888  1.2591  0.4888 -0.2996
  521MOL0     C70218   9.109   0.316   7.907 -0.2134  0.1071  0.0115
  521MOL0     C70219   9.003   0.304   7.984  0.2869  0.6814 -0.1321
  521MOL0     C70220   8.923   0.185   8.000 -0.0281  0.7724 -0.0428
  521MOL0     C70221   8.845   0.138   7.875 -0.2009  0.6931 -0.3867
  521MOL0     C70222   8.750   0.017   7.899 -0.4659 -0.9441  0.8634
  521MOL0     C70223   8.808  -0.097   7.974  0.9387  0.6430  0.1915
  521MOL0     O70224   8.897  -0.162   7.880  0.2207  0.3695  1.0532
  521MOL0     C70225   8.925  -0.298   7.903  0.3890  0.0864  0.1054
  521MOL0     C70226   8.883  -0.377   8.015  0.0329 -0.0391 -0.2287
  521MOL0     C70227   8.900  -0.504   8.021  0.2638 -0.1887 -1.2003
  521MOL0     C70228   8.963  -0.575   7.924 -0.0211 -0.5205 -0.0686
  521MOL0     C70229   8.980  -0.722   7.925 -0.8222 -0.1484  0.4282
  521MOL0     O70230   8.973  -0.778   7.807 -0.1504  0.0725  0.3155
  521MOL0     C70231   8.964  -0.918   7.798  0.0588  0.0166 -0.1079
  521MOL0     C70232   9.029  -0.984   7.688  0.1178 -0.3083  0.8744
  521MOL0     C70233   9.032  -1.133   7.682  0.4184  0.0890  0.6097
  521MOL0     C70234   8.955  -1.202   7.777 -1.0040 -0.2809 -0.1440
  521MOL0     O70235   8.974  -1.338   7.772  0.2001  0.0109  0.7818
  521MOL0     C70236   8.898  -1.410   7.666 -0.8487  0.3444 -0.7227
  521MOL0     C70237   8.903  -1.561   7.686  0.4284  0.4673 -1.1132
  521MOL0     C70238   9.037  -1.616   7.751  0.2499  0.1169 -0.9374
  521MOL0     C70239   9.017  -1.773   7.781 -0.0229 -0.2048  0.1949
  521MOL0     C70240   9.148  -1.845   7.824 -0.2801  0.8731  0.2658
  521MOL0     C70241   9.116  -2.004   7.842 -0.3852 -0.3492 -0.0448
  521MOL0     C70242   9.226  -2.081   7.912  0.1032  0.2459 -0.6165
  521MOL0     C70243   9.367  -2.068   7.858  0.4362 -0.3366 -0.0715
  521MOL0    Cl70244   9.455  -2.174   7.955 -0.1766 -0.3818 -0.2294
  521MOL0     C70245   8.874  -1.133   7.876 -0.3064  0.3273 -0.6082
  521MOL0     C70246   8.885  -0.997   7.889  0.4431 -0.0594 -0.1424
  521MOL0     O70247   8.993  -0.780   8.035  0.2174  0.2417 -0.0740
  521MOL0     C70248   9.020  -0.506   7.809 -0.1876 -0.0572  0.3738
  521MOL0     C70249   8.985  -0.374   7.797 -0.2764  0.3538 -0.9195
  521MOL0     N70250   8.950   0.430   7.993  0.0114 -0.6377 -0.1130
  521MOL0     N70251   9.023   0.521   7.943  0.3733  0.2792 -0.0436
  521MOL0     C70252  10.242   0.975   7.802 -1.1094  0.3663  0.7626
  521MOL0     C70253  10.346   1.066   7.831 -0.4925 -0.0253  0.2790
  521MOL0     C70254  10.688   1.218   8.129  1.4550  1.0028  0.5818
  521MOL0     C70255  10.680   1.317   8.233 -0.7675  0.0942 -0.8626
  521MOL0     C70256  10.795   1.399   8.258  1.1538  0.9051 -0.1134
  521MOL0     C70257  10.917   1.379   8.187  0.0394  0.6336  0.9814
  521MOL0     O70258  11.022   1.463   8.212  0.0992 -0.2715  0.1937
  521MOL0     C70259  11.101   1.501   8.099  0.2285  0.6731 -0.4519
  521MOL0     C70260  11.201   1.600   8.146  0.2448 -0.0045 -0.2416
  521MOL0     C70261  11.144   1.710   8.232 -0.1327 -2.0218 -0.2126
  521MOL0     C70262  11.241   1.834   8.249 -0.2213  0.3536  0.4523
  521MOL0     C70263  11.187   1.924   8.353  0.9867 -0.3583  0.8700
  521MOL0     C70264  11.140   1.991   8.440  0.3818 -0.2656 -0.1612
  521MOL0     C70265  10.921   1.262   8.101 -0.7027 -0.4925 -0.5536
  521MOL0     C70266  10.806   1.192   8.064 -0.4158  0.5302 -0.1184
  521MOL0     C70267  10.832   1.096   7.949 -0.8406 -0.6850  0.6135
  521MOL0     H70268  10.511   0.872   8.047  2.7756  1.9202 -2.2982
  521MOL0     H70269  10.338   0.706   7.965 -0.5788  0.4666  3.4268
  521MOL0     H70270   9.998   0.749   7.946 -1.6772  1.1876 -0.5865
  521MOL0     H70271   9.967   0.855   7.807 -2.3235 -2.2324 -1.8320
  521MOL0     H70272   9.955   0.565   7.785  0.0726  0.8162  2.2486
  521MOL0     H70273   9.918   0.696   7.662 -0.1485  0.2650 -0.6941
  521MOL0     H70274   9.770   0.788   7.863  1.2560  1.4783 -1.6024
  521MOL0     H70275   9.767   0.614   7.923 -1.9607  3.2008  1.5375
  521MOL0     H70276   9.656   0.730   7.661 -2.8077  1.6137  1.4663
  521MOL0     H70277   9.695   0.551   7.678  0.7243  0.9228  0.4126
  521MOL0     H70278   9.525   0.718   7.869 -5.3792 -0.8249  0.0429
  521MOL0     H70279   9.462   0.651   7.714  1.2938 -3.7705 -2.3991
  521MOL0     H70280   9.495   0.445   7.767 -0.7563  0.2900 -0.4379
  521MOL0     H70281   9.582   0.476   7.925  0.2316  1.5616  1.2087
  521MOL0     H70282   9.363   0.562   8.011  0.7494 -0.1461 -0.3834
  521MOL0     H70283   9.380   0.391   7.971  1.1140  0.4923  1.0319
  521MOL0     H70284   9.249   0.623   7.811  1.6919  0.1710 -0.3065
  521MOL0     H70285   9.280   0.467   7.740  0.3538  0.1382  0.7349
  521MOL0     H70286   9.164   0.233   7.864  0.4716  0.4526  0.2082
  521MOL0     H70287   8.994   0.114   8.043 -0.0136  1.8181  1.7459
  521MOL0     H70288   8.857   0.190   8.087  0.4970 -3.8479  0.8787
  521MOL0     H70289   8.779   0.216   7.837 -2.5325 -1.6429 -1.3903
  521MOL0     H70290   8.907   0.105   7.791 -0.7745 -0.1351 -0.4911
  521MOL0     H70291   8.703  -0.018   7.807 -1.1526 -2.4558  1.7463
  521MOL0     H70292   8.666   0.065   7.949 -1.9035  0.2356 -2.3852
  521MOL0     H70293   8.725  -0.157   8.014  2.1919 -0.1946  1.6475
  521MOL0     H70294   8.856  -0.074   8.070 -0.2720  1.5746  0.5992
  521MOL0     H70295   8.836  -0.325   8.099 -1.9325 -2.5134  0.3451
  521MOL0     H70296   8.862  -0.551   8.111 -1.4654  0.0903 -1.7493
  521MOL0     H70297   9.089  -0.925   7.619 -0.8473  0.3770  0.6080
  521MOL0     H70298   9.094  -1.173   7.602  2.4159  2.8019  0.6652
  521MOL0     H70299   8.791  -1.392   7.659 -1.0638 -1.2618 -2.1745
  521MOL0     H70300   8.951  -1.402   7.571 -0.1037 -0.3275 -0.3744
  521MOL0     H70301   8.820  -1.577   7.755  0.7175 -1.8559 -1.2101
  521MOL0     H70302   8.882  -1.618   7.595  1.2877 -0.9114 -0.4813
  521MOL0     H70303   9.121  -1.601   7.683  1.3936 -2.2661 -0.1907
  521MOL0     H70304   9.061  -1.558   7.840 -1.2675 -0.3907 -0.1591
  521MOL0     H70305   8.989  -1.820   7.686 -1.9793  0.5506  0.3370
  521MOL0     H70306   8.947  -1.788   7.863  1.1840  0.4434  1.3713
  521MOL0     H70307   9.184  -1.800   7.917 -0.7149 -3.3351  2.6878
  521MOL0     H70308   9.232  -1.833   7.755 -0.1666  1.4313  0.4955
  521MOL0     H70309   9.031  -2.016   7.911 -1.4618  2.5100 -0.7461
  521MOL0     H70310   9.093  -2.056   7.749  1.9805 -2.8164  0.6190
  521MOL0     H70311   9.199  -2.186   7.909  0.1540  0.2193 -0.2525
  521MOL0     H70312   9.227  -2.044   8.016 -2.7656 -0.8749 -0.0909
  521MOL0     H70313   9.379  -2.100   7.754 -3.3527 -1.8380 -0.2177
  521MOL0     H70314   9.402  -1.967   7.882  3.6928 -1.1688 -0.8139
  521MOL0     H70315   8.836  -1.195   7.956  1.1722 -0.8539 -0.7906
  521MOL0     H70316   8.826  -0.946   7.964 -2.3299 -1.9031 -0.9246
  521MOL0     H70317   9.084  -0.554   7.735 -0.1029 -0.6360  0.8131
  521MOL0     H70318   9.003  -0.321   7.704 -0.6365  4.6812  1.2713
  521MOL0     H70319  10.153   1.005   7.747 -2.0123  0.0996  2.0525
  521MOL0     H70320  10.336   1.167   7.792 -3.0960 -0.6240 -0.8242
  521MOL0     H70321  10.592   1.326   8.295  0.7648  2.5327  1.1856
  521MOL0     H70322  10.768   1.484   8.320  0.0692  2.1224 -2.1446
  521MOL0     H70323  11.043   1.545   8.017  0.6993  0.6159 -0.8158
  521MOL0     H70324  11.158   1.416   8.062  1.7044  0.6359  1.7173
  521MOL0     H70325  11.244   1.642   8.055 -1.8615 -0.0871 -1.3243
  521MOL0     H70326  11.282   1.547   8.198 -2.8705 -2.7289  2.3121
  521MOL0     H70327  11.119   1.675   8.333 -0.4257 -0.7768  0.1581
  521MOL0     H70328  11.050   1.744   8.189  1.5409 -0.3180 -2.8481
  521MOL0     H70329  11.340   1.795   8.276  0.6993  2.0872 -0.2604
  521MOL0     H70330  11.260   1.889   8.156  4.7634  0.9424  1.5597
  521MOL0     H70331  11.104   2.031   8.533 -1.7019  0.5591 -1.2420
  521MOL0     H70332  11.014   1.217   8.067  1.1737  1.1272  2.0173
  521MOL0     H70333  10.782   0.999   7.960 -2.0042 -0.3181 -0.9178
  521MOL0     H70334  10.799   1.135   7.852 -1.8159  2.7347  2.1936
  521MOL0     H70335  10.939   1.079   7.939  0.3533  4.7797  1.3988
  522MOL0     O70336   6.449   5.442   8.616 -0.8631  0.1114 -0.5531
  522MOL0     C70337   6.418   5.350   8.686 -0.6431  0.5201  0.3738
  522MOL0     O70338   6.452   5.346   8.817 -0.3194 -0.3467  0.0465
  522MOL0     C70339   6.410   5.450   8.897 -0.1799  0.5939 -0.3901
  522MOL0     C70340   6.490   5.483   9.011 -0.6592 -0.3125 -0.6063
  522MOL0     C70341   6.448   5.581   9.106  0.4000  0.6381  0.2912
  522MOL0     C70342   6.324   5.645   9.087 -0.8113 -0.2731 -0.4467
  522MOL0     O70343   6.281   5.722   9.192 -0.1924  0.0835  0.8719
  522MOL0     C70344   6.248   5.646   9.312 -1.0090 -0.3592  1.0908
  522MOL0     C70345   6.219   5.740   9.428 -0.8283 -0.2280 -0.1862
  522MOL0     C70346   6.177   5.654   9.547  0.3012 -0.7691 -0.3722
  522MOL0     C70347   6.123   5.740   9.664  0.4844  0.2322  0.6651
  522MOL0     C70348   5.987   5.700   9.719  0.4715  0.3523 -0.7627
  522MOL0     C70349   5.859   5.760   9.659  0.0548  0.1064 -0.0050
  522MOL0     C70350   5.736   5.699   9.727  0.8900 -0.3098 -0.2216
  522MOL0     C70351   5.700   5.555   9.701 -0.1044  0.4501  0.4881
  522MOL0     N70352   5.690   5.514   9.556 -0.6113  0.2940  0.4849
  522MOL0     C70353   5.582   5.475   9.484 -0.6439  0.1592 -0.8424
  522MOL0     C70354   5.648   5.397   9.386  0.5747 -1.1077  0.0312
  522MOL0     C70355   5.581   5.320   9.277  0.0189  0.3469 -0.6390
  522MOL0     C70356   5.458   5.240   9.334  0.0202  0.1860  0.7556
  522MOL0     C70357   5.402   5.136   9.236  0.4195 -0.6333  0.2763
  522MOL0     C70358   5.290   5.069   9.307  1.1887 -0.2583  0.1598
  522MOL0     O70359   5.196   5.010   9.221 -0.6893  0.4403 -0.5281
  522MOL0     C70360   5.101   4.919   9.268 -0.7853  0.3161 -0.4869
  522MOL0     C70361   5.047   4.921   9.397 -0.1623 -0.2922  0.1057
  522MOL0     C70362   4.965   4.813   9.432 -0.0046 -0.2498  0.0609
  522MOL0     C70363   4.928   4.714   9.338  0.1982  0.2276 -0.1097
  522MOL0     C70364   4.828   4.614   9.379 -0.4427  0.2866 -0.6088
  522MOL0     O70365   4.803   4.522   9.293 -0.4037 -0.1476 -0.2546
  522MOL0     C70366   4.685   4.449   9.312  0.4750 -0.5818 -0.3754
  522MOL0     C70367   4.561   4.503   9.293  0.1166  0.1296 -0.1762
  522MOL0     C70368   4.439   4.438   9.337 -0.7969  0.6695  1.0737
  522MOL0     C70369   4.447   4.313   9.391  1.4549  0.7858  0.4886
  522MOL0     O70370   4.328   4.243   9.412 -0.1057 -0.5717  0.1463
  522MOL0     C70371   4.334   4.126   9.496  0.0449  0.1614  1.3116
  522MOL0     C70372   4.202   4.052   9.513  0.4385 -0.7335  0.3260
  522MOL0     C70373   4.197   3.970   9.640 -0.1124  0.3590 -0.6795
  522MOL0     C70374   4.059   3.906   9.664 -0.5726  0.1487 -0.4149
  522MOL0     C70375   4.026   3.860   9.804 -0.4742  0.0528 -0.0101
  522MOL0     C70376   3.896   3.778   9.805 -0.5518 -0.2603  0.5761
  522MOL0     C70377   3.766   3.858   9.782  0.2970  0.9911  0.0159
  522MOL0     C70378   3.646   3.775   9.780 -0.0173 -0.3883  0.4405
  522MOL0    Cl70379   3.514   3.840   9.692 -0.3699 -0.8145  0.0306
  522MOL0     C70380   4.569   4.249   9.408 -0.4157  0.7117  1.4692
  522MOL0     C70381   4.684   4.318   9.373  0.7108 -0.2509  0.2567
  522MOL0     O70382   4.775   4.628   9.491  0.6050 -0.0347  0.1385
  522MOL0     C70383   4.986   4.714   9.214  1.4348 -0.1298 -0.0724
  522MOL0     C70384   5.065   4.816   9.182  0.0320 -0.5779  0.0020
  522MOL0     N70385   5.784   5.396   9.408  0.7437  0.6509 -0.4125
  522MOL0     N70386   5.813   5.472   9.509  0.2396  0.1971  1.4137
  522MOL0     C70387   6.244   5.617   8.974 -0.1109 -0.0791 -1.3728
  522MOL0     C70388   6.290   5.516   8.889  0.3917  0.3378 -0.9208
  522MOL0     C70389   6.378   5.218   8.627  0.2590 -0.5440  0.4777
  522MOL0     C70390   6.351   5.211   8.483 -0.1243  0.5579 -0.8382
  522MOL0     C70391   6.306   5.098   8.429  0.0826  0.2794  0.4181
  522MOL0     C70392   6.293   4.983   8.499  0.0784 -0.3151 -0.0972
  522MOL0     O70393   6.273   4.859   8.445  0.2015 -0.4422 -0.1769
  522MOL0     C70394   6.274   4.859   8.303  0.2009 -0.9210 -0.1729
  522MOL0     C70395   6.284   4.719   8.245 -0.3818 -0.1789  0.6903
  522MOL0     C70396   6.307   4.728   8.087 -0.4495 -0.4091  0.7736
  522MOL0     C70397   6.276   4.595   8.027 -0.3506  1.2347 -0.9823
  522MOL0     C70398   6.341   4.575   7.898 -0.1501  0.2545 -0.4790
  522MOL0     C70399   6.391   4.559   7.795 -0.5341 -0.2164 -0.2276
  522MOL0     C70400   6.300   4.987   8.642 -0.1442  0.4474 -0.0161
  522MOL0     C70401   6.336   5.111   8.706 -0.2878  0.1620 -0.4352
  522MOL0     C70402   6.326   5.113   8.859 -0.4235  0.6444  0.8531
  522MOL0     H70403   6.586   5.443   9.041 -0.5613  2.6941  4.1336
  522MOL0     H70404   6.506   5.614   9.192  0.9098  2.5883 -0.7485
  522MOL0     H70405   6.171   5.575   9.282  1.3960 -1.7857 -2.2584
  522MOL0     H70406   6.325   5.580   9.353 -1.4858 -1.8105 -0.2629
  522MOL0     H70407   6.143   5.814   9.400 -2.2230 -2.3880 -2.5830
  522MOL0     H70408   6.310   5.798   9.447 -0.5705 -1.0298  1.0996
  522MOL0     H70409   6.263   5.588   9.565 -0.9972 -3.8401 -3.9720
  522MOL0     H70410   6.095   5.589   9.514 -2.0026  1.3625  0.8931
  522MOL0     H70411   6.199   5.730   9.743  1.8444  0.4691 -0.5735
  522MOL0     H70412   6.127   5.847   9.642 -2.3241  1.0644  3.4691
  522MOL0     H70413   5.973   5.592   9.719  1.2466  0.2329  0.0198
  522MOL0     H70414   5.997   5.717   9.827  1.1599 -2.1284 -0.3700
  522MOL0     H70415   5.863   5.869   9.661  1.0234  0.2481 -3.2137
  522MOL0     H70416   5.835   5.746   9.553 -3.1328  2.3729  0.2725
  522MOL0     H70417   5.647   5.761   9.709  0.5435 -0.5758  0.5284
  522MOL0     H70418   5.752   5.713   9.834  0.3042  0.9211 -0.2819
  522MOL0     H70419   5.783   5.502   9.749  2.0932  3.1437 -0.1249
  522MOL0     H70420   5.601   5.519   9.729  0.6212 -1.2106  1.0975
  522MOL0     H70421   5.478   5.501   9.501  0.3271  2.4426  2.6021
  522MOL0     H70422   5.548   5.389   9.200 -2.5082  0.2185  0.2509
  522MOL0     H70423   5.655   5.250   9.236 -1.8241 -2.5986  0.7442
  522MOL0     H70424   5.499   5.198   9.426 -0.9715  1.0959  1.6396
  522MOL0     H70425   5.375   5.307   9.359  0.4780  0.2840  2.0668
  522MOL0     H70426   5.471   5.064   9.190 -0.1547 -0.4108 -0.9520
  522MOL0     H70427   5.360   5.192   9.152  0.3120 -2.1314 -0.7117
  522MOL0     H70428   5.231   5.141   9.365 -0.7456 -2.1154  0.5939
  522MOL0     H70429   5.334   5.000   9.380  0.5074 -0.2279  0.6083
  522MOL0     H70430   5.080   5.012   9.447  1.7331  0.1186 -1.7260
  522MOL0     H70431   4.926   4.810   9.534  1.2815  0.6804  0.6083
  522MOL0     H70432   4.576   4.597   9.241  4.9438 -0.9545 -1.2253
  522MOL0     H70433   4.343   4.487   9.326 -4.0063 -5.0056 -0.3820
  522MOL0     H70434   4.402   4.053   9.452  0.0071  0.3729  0.8951
  522MOL0     H70435   4.367   4.155   9.596  2.3577 -1.5714  1.1319
  522MOL0     H70436   4.123   4.128   9.509  0.3792 -0.7075  1.6146
  522MOL0     H70437   4.198   3.973   9.437  0.9584 -1.1874  0.7629
  522MOL0     H70438   4.266   3.885   9.631 -1.8746 -1.8868  3.7140
  522MOL0     H70439   4.228   4.032   9.725 -1.3569  1.3011 -0.8877
  522MOL0     H70440   4.055   3.824   9.592 -0.1624  0.1961 -0.4927
  522MOL0     H70441   3.979   3.978   9.644 -1.8053 -1.0903 -0.0374
  522MOL0     H70442   4.019   3.941   9.877 -0.6224  1.0054 -1.0528
  522MOL0     H70443   4.102   3.789   9.838 -1.1007 -0.7108 -0.1523
  522MOL0     H70444   3.903   3.704   9.724 -2.0324  1.3615 -1.1387
  522MOL0     H70445   3.894   3.718   9.896 -1.5404 -2.0699 -0.5690
  522MOL0     H70446   3.772   3.914   9.688 -2.8559  0.6932 -0.4906
  522MOL0     H70447   3.753   3.930   9.864  2.4654  2.8925 -1.1808
  522MOL0     H70448   3.664   3.682   9.726 -2.4728 -0.0566 -1.0896
  522MOL0     H70449   3.624   3.745   9.883  0.9919  2.2998  1.5435
  522MOL0     H70450   4.579   4.149   9.449  1.6193 -0.4340 -1.4766
  522MOL0     H70451   4.778   4.267   9.393  0.2202 -1.6742 -0.8630
  522MOL0     H70452   4.952   4.641   9.142  0.9521 -2.1840  2.1025
  522MOL0     H70453   5.114   4.811   9.085 -2.8029 -1.1250 -1.5383
  522MOL0     H70454   6.147   5.664   8.961 -0.5986  0.2636  2.2639
  522MOL0     H70455   6.221   5.488   8.810  1.2879 -1.6669 -1.0683
  522MOL0     H70456   6.376   5.299   8.424 -0.3778  0.1556 -1.5663
  522MOL0     H70457   6.295   5.105   8.321  0.3504  0.3359  0.3923
  522MOL0     H70458   6.359   4.913   8.260  0.8618 -2.2958 -0.6379
  522MOL0     H70459   6.178   4.907   8.283 -0.7992 -1.9487  1.8864
  522MOL0     H70460   6.195   4.660   8.268 -0.1709 -1.6928 -1.9655
  522MOL0     H70461   6.366   4.661   8.289 -0.4617  1.1017  2.6762
  522MOL0     H70462   6.402   4.777   8.065 -0.6918 -0.1577  0.2629
  522MOL0     H70463   6.230   4.790   8.039  1.6842  2.6849  1.1223
  522MOL0     H70464   6.308   4.513   8.091 -2.7641 -0.3493 -1.6601
  522MOL0     H70465   6.167   4.590   8.033 -0.1977 -1.8505  2.1315
  522MOL0     H70466   6.438   4.529   7.704  0.4754  0.6142  0.0019
  522MOL0     H70467   6.266   4.905   8.704  2.0847 -0.2969  0.2991
  522MOL0     H70468   6.258   5.196   8.880  1.7194  2.5442  0.6327
  522MOL0     H70469   6.281   5.018   8.887  3.8854 -2.6585 -1.9733
  522MOL0     H70470   6.425   5.119   8.906  1.4089  1.9533 -2.7675
  523MOL0     O70471   2.678   3.754   7.169  0.0789 -0.2675  0.3216
  523MOL0     C70472   2.620   3.848   7.103  1.0070  0.9002  0.1621
  523MOL0     O70473   2.540   3.831   6.995 -0.1187  0.0544 -1.1675
  523MOL0     C70474   2.508   3.721   6.922  0.2228 -0.5039 -1.4787
  523MOL0     C70475   2.518   3.593   6.960  0.0576 -0.5509 -0.5596
  523MOL0     C70476   2.486   3.483   6.870  0.1975 -0.1887 -0.2520
  523MOL0     C70477   2.415   3.508   6.752 -0.2081  1.0329  0.2517
  523MOL0     O70478   2.362   3.399   6.692  0.3213 -0.5052  0.7313
  523MOL0     C70479   2.254   3.434   6.601  0.0889 -0.3511  0.2581
  523MOL0     C70480   2.229   3.298   6.516 -0.1290 -0.5954  0.0078
  523MOL0     C70481   2.097   3.310   6.425  0.5334 -0.4760  0.4668
  523MOL0     C70482   2.080   3.194   6.329  0.4774  0.0966 -0.4451
  523MOL0     C70483   1.997   3.225   6.208 -0.0094 -0.1871  0.3248
  523MOL0     C70484   2.083   3.275   6.094 -0.2688 -0.2994  0.2446
  523MOL0     C70485   2.002   3.284   5.961 -0.2421 -0.0321  1.0568
  523MOL0     C70486   2.060   3.381   5.855 -0.4893 -0.6438 -0.4467
  523MOL0     N70487   2.012   3.513   5.882 -1.5252 -0.1184 -0.0758
  523MOL0     C70488   2.078   3.612   5.965  0.1930 -0.5975 -0.4200
  523MOL0     C70489   1.995   3.721   5.951  0.7552  0.8832 -0.6043
  523MOL0     C70490   2.027   3.862   5.988  0.6716 -0.3712 -0.5264
  523MOL0     C70491   2.108   3.930   5.886 -0.0733 -0.6140  0.1664
  523MOL0     C70492   2.121   4.084   5.911 -0.8881  0.6056  0.2135
  523MOL0     C70493   2.204   4.146   5.805  0.6546 -0.1820 -0.8501
  523MOL0     O70494   2.222   4.289   5.838 -0.1225  0.2040  0.0312
  523MOL0     C70495   2.206   4.381   5.743  0.6999  0.0560 -0.6147
  523MOL0     C70496   2.152   4.505   5.782  0.1966  0.2656 -0.3636
  523MOL0     C70497   2.093   4.591   5.693 -0.5176 -0.5696  0.0191
  523MOL0     C70498   2.078   4.555   5.560  0.3981 -0.2331  1.5570
  523MOL0     C70499   1.995   4.632   5.461 -0.0926  1.4072  0.2071
  523MOL0     O70500   1.920   4.732   5.509  1.1298 -0.1424 -0.2842
  523MOL0     C70501   1.857   4.802   5.411 -0.1298  0.4723  0.4908
  523MOL0     C70502   1.731   4.738   5.373 -1.1685  0.5017 -0.9873
  523MOL0     C70503   1.643   4.819   5.301 -0.4474  0.3360  0.5877
  523MOL0     C70504   1.675   4.949   5.257 -0.6846 -0.4099 -0.2929
  523MOL0     O70505   1.587   5.030   5.179  0.6928  0.2228 -0.5350
  523MOL0     C70506   1.524   4.962   5.071  0.2807  0.6955  0.6078
  523MOL0     C70507   1.369   4.972   5.083 -0.2775  1.0380  0.7766
  523MOL0     C70508   1.317   4.871   4.973  0.1460 -0.3503  0.6797
  523MOL0     C70509   1.159   4.854   4.962  0.1569 -0.4086  0.4653
  523MOL0     C70510   1.095   4.753   4.867  0.9559 -0.1080 -0.8106
  523MOL0     C70511   1.156   4.749   4.722  1.6094  0.9751 -0.5465
  523MOL0     C70512   1.063   4.660   4.634 -0.0741 -1.3186 -0.5033
  523MOL0     C70513   1.063   4.510   4.672 -0.2382 -0.9848  0.5151
  523MOL0    Cl70514   0.993   4.423   4.539 -0.5467  0.4142 -0.4084
  523MOL0     C70515   1.796   5.008   5.290 -0.0103 -0.0173  0.1706
  523MOL0     C70516   1.887   4.931   5.364 -0.8180  0.3470  0.5122
  523MOL0     O70517   2.008   4.600   5.343  0.0940 -0.3983  0.2396
  523MOL0     C70518   2.139   4.443   5.507 -0.1576 -0.0464  0.0429
  523MOL0     C70519   2.209   4.367   5.600 -0.4548  0.6176 -0.6226
  523MOL0     N70520   1.888   3.686   5.866 -0.0006  0.4721 -0.1799
  523MOL0     N70521   1.902   3.572   5.817 -0.4319  0.2293  0.8492
  523MOL0     C70522   2.409   3.647   6.711 -0.9282  0.0285  0.1681
  523MOL0     C70523   2.457   3.747   6.797 -0.5606 -0.7842  0.4686
  523MOL0     C70524   2.632   3.988   7.138  0.5199  0.2937  0.6345
  523MOL0     C70525   2.562   4.088   7.058  0.2331 -0.3435 -0.7506
  523MOL0     C70526   2.573   4.225   7.091  0.5847  0.4009 -0.3190
  523MOL0     C70527   2.659   4.273   7.188 -0.0837  0.5902 -0.0599
  523MOL0     O70528   2.682   4.407   7.214  0.6097  0.9912 -0.2648
  523MOL0     C70529   2.588   4.509   7.169 -0.3274 -0.5072  0.3137
  523MOL0     C70530   2.604   4.624   7.267  0.0150 -0.1945  0.3471
  523MOL0     C70531   2.519   4.613   7.400 -0.5722 -0.7263  0.9157
  523MOL0     C70532   2.576   4.708   7.499 -0.0484 -0.1497 -0.4675
  523MOL0     C70533   2.506   4.680   7.625  0.2701 -0.1220 -0.4047
  523MOL0     C70534   2.443   4.679   7.731  0.7739  0.0519  0.2861
  523MOL0     C70535   2.737   4.176   7.257 -0.0131 -0.3479 -0.4703
  523MOL0     C70536   2.727   4.034   7.234 -0.4069 -0.5125 -0.2679
  523MOL0     C70537   2.809   3.955   7.342 -0.0374 -0.2858  0.5584
  523MOL0     H70538   2.538   3.553   7.059  0.2889  1.0459  0.0704
  523MOL0     H70539   2.488   3.383   6.914  0.8294 -0.0052  0.1374
  523MOL0     H70540   2.164   3.463   6.656 -2.4258 -0.4977 -3.3995
  523MOL0     H70541   2.275   3.510   6.526 -0.3774  1.1394  1.5927
  523MOL0     H70542   2.196   3.226   6.592  1.7030 -1.9376 -0.3893
  523MOL0     H70543   2.318   3.267   6.460  3.7406  2.7743  3.5672
  523MOL0     H70544   2.123   3.405   6.380 -1.2665  0.4973  1.3468
  523MOL0     H70545   2.010   3.312   6.492  1.4669  0.8441  1.6782
  523MOL0     H70546   2.180   3.168   6.295  2.0426  0.1080  3.5881
  523MOL0     H70547   2.034   3.109   6.382  1.5933 -0.1490  0.1647
  523MOL0     H70548   1.938   3.138   6.176 -0.6778 -0.1341  1.3556
  523MOL0     H70549   1.923   3.304   6.228 -2.2000 -2.0527  0.0334
  523MOL0     H70550   2.134   3.369   6.120  0.7333 -1.5330  3.2421
  523MOL0     H70551   2.170   3.209   6.079  1.1051  1.6579 -0.9500
  523MOL0     H70552   1.899   3.308   5.990 -0.3998 -2.1603  2.4008
  523MOL0     H70553   1.991   3.186   5.916 -0.9109 -0.2005  1.5652
  523MOL0     H70554   2.169   3.378   5.862 -0.3909  1.2553 -0.5613
  523MOL0     H70555   2.021   3.354   5.756 -1.8023  0.0140 -0.1380
  523MOL0     H70556   2.174   3.586   6.008 -0.2789 -0.1834  0.9091
  523MOL0     H70557   1.932   3.914   6.002  1.2073  0.5009 -0.0619
  523MOL0     H70558   2.079   3.861   6.084  0.4674 -0.5009 -0.4162
  523MOL0     H70559   2.208   3.888   5.871  0.3519  0.5384 -0.3445
  523MOL0     H70560   2.057   3.918   5.790 -0.8218  3.0818 -0.0800
  523MOL0     H70561   2.166   4.105   6.009 -1.7965 -1.6187  1.1533
  523MOL0     H70562   2.020   4.125   5.903 -2.0335 -2.3339 -3.7078
  523MOL0     H70563   2.156   4.124   5.709 -2.3149  0.8114  0.2935
  523MOL0     H70564   2.303   4.101   5.817  0.5672  0.1163  1.4598
  523MOL0     H70565   2.135   4.541   5.883 -1.0626 -0.0735 -0.4404
  523MOL0     H70566   2.053   4.681   5.740 -0.9207 -1.0201  0.5422
  523MOL0     H70567   1.707   4.633   5.387  2.8106 -0.8849 -2.9689
  523MOL0     H70568   1.549   4.783   5.261 -1.0289  2.2867  0.0847
  523MOL0     H70569   1.559   4.997   4.974 -0.0924 -2.4768 -0.7767
  523MOL0     H70570   1.549   4.856   5.061 -3.9439 -0.2967 -2.1243
  523MOL0     H70571   1.324   4.933   5.175 -0.0562  0.7713  0.7728
  523MOL0     H70572   1.338   5.073   5.053 -0.4023  0.1994 -2.1900
  523MOL0     H70573   1.351   4.890   4.871  2.4341 -2.6145  0.9020
  523MOL0     H70574   1.360   4.775   5.005  1.0753 -0.0841  0.2577
  523MOL0     H70575   1.122   4.954   4.939 -2.1527 -0.5757  2.9169
  523MOL0     H70576   1.124   4.850   5.066  2.7041  1.9609  1.5530
  523MOL0     H70577   0.991   4.783   4.850  2.0310  2.4355 -4.1909
  523MOL0     H70578   1.091   4.653   4.910  0.6541 -0.0659 -0.7378
  523MOL0     H70579   1.151   4.843   4.667 -2.8782  1.4321  0.2527
  523MOL0     H70580   1.260   4.716   4.718  1.6436  1.2178 -2.9740
  523MOL0     H70581   1.093   4.666   4.529 -1.5096 -2.0619 -0.9751
  523MOL0     H70582   0.964   4.706   4.641  0.6452  0.7896 -2.7040
  523MOL0     H70583   1.168   4.485   4.689 -0.2873 -0.5496  1.5119
  523MOL0     H70584   1.008   4.490   4.764 -0.3898  0.1198  0.6823
  523MOL0     H70585   1.812   5.110   5.258  1.3946 -0.4201 -0.5376
  523MOL0     H70586   1.978   4.979   5.401 -1.4929  1.8379  0.3125
  523MOL0     H70587   2.137   4.422   5.400 -0.9192  1.6747 -0.3269
  523MOL0     H70588   2.257   4.276   5.567  3.1174  2.5788 -1.3408
  523MOL0     H70589   2.370   3.675   6.614  1.6498  0.7244 -0.7434
  523MOL0     H70590   2.469   3.852   6.771  0.9848  0.1825  4.2565
  523MOL0     H70591   2.501   4.056   6.975  2.0843 -1.1922 -1.8385
  523MOL0     H70592   2.520   4.304   7.038  3.5458  3.2219  0.5560
  523MOL0     H70593   2.485   4.478   7.150  0.4447 -3.0727 -0.0855
  523MOL0     H70594   2.633   4.552   7.079 -0.2032 -0.2976  0.4778
  523MOL0     H70595   2.559   4.701   7.203  1.3336 -0.1662 -0.6086
  523MOL0     H70596   2.710   4.648   7.280  0.4154 -1.9295  0.5851
  523MOL0     H70597   2.514   4.508   7.432 -0.4550 -1.6983 -1.9142
  523MOL0     H70598   2.419   4.643   7.366  1.0928  2.5763 -1.6239
  523MOL0     H70599   2.683   4.688   7.512  0.2896  0.9934 -1.3329
  523MOL0     H70600   2.565   4.812   7.468  0.2012  1.7157  4.7203
  523MOL0     H70601   2.371   4.660   7.807 -0.5669  1.1461 -0.6566
  523MOL0     H70602   2.818   4.217   7.315  1.2547 -2.2733 -0.7679
  523MOL0     H70603   2.748   3.949   7.432  2.3793  1.1962  2.4317
  523MOL0     H70604   2.857   3.864   7.305  1.3640  0.5066  0.3441
  523MOL0     H70605   2.892   4.014   7.382 -0.2664 -1.9943  3.8989
  524MOL0     O70606   8.098   4.903  10.190  0.3176 -0.4820  0.2151
  524MOL0     C70607   8.048   4.889  10.297  0.4168 -0.9178 -0.5364
  524MOL0     O70608   7.930   4.945  10.339  0.6772 -0.6269  0.6785
  524MOL0     C70609   7.845   5.032  10.278  0.5391  0.7923  0.8795
  524MOL0     C70610   7.727   5.051  10.352 -0.2926 -0.9430  0.3461
  524MOL0     C70611   7.611   5.122  10.310 -0.1702  0.6789  0.5357
  524MOL0     C70612   7.615   5.189  10.190 -0.2586 -1.1731  1.1730
  524MOL0     O70613   7.506   5.242  10.125  0.5554  0.7840  0.5898
  524MOL0     C70614   7.438   5.354  10.189 -0.2167  0.0216  0.5208
  524MOL0     C70615   7.329   5.409  10.099 -0.3179  0.4394 -0.1921
  524MOL0     C70616   7.215   5.486  10.174 -0.3289  0.1214  0.5187
  524MOL0     C70617   7.121   5.391  10.250 -0.3326 -1.0187  1.8682
  524MOL0     C70618   7.011   5.471  10.307 -0.1394 -0.3554  0.4073
  524MOL0     C70619   6.912   5.381  10.389  0.1345 -0.6595 -0.0555
  524MOL0     C70620   6.924   5.397  10.541  0.1656 -0.6861  0.2193
  524MOL0     C70621   7.051   5.328  10.597  0.3701 -0.1369 -0.7354
  524MOL0     N70622   7.031   5.182  10.605 -0.4550  0.2197 -0.6541
  524MOL0     C70623   7.094   5.094  10.517  0.5580  0.7240 -0.6824
  524MOL0     C70624   7.102   4.983  10.592  0.5152 -0.3607 -0.3398
  524MOL0     C70625   7.199   4.863  10.559  0.3089 -0.1749  0.1502
  524MOL0     C70626   7.123   4.732  10.563 -0.9015  0.3236  0.3910
  524MOL0     C70627   7.132   4.655  10.698 -0.1251 -0.2552  0.9409
  524MOL0     C70628   7.008   4.589  10.746  0.1796  0.3422  0.3171
  524MOL0     O70629   6.903   4.679  10.775 -0.4454 -0.2435  1.1619
  524MOL0     C70630   6.776   4.624  10.772  0.2371  0.6584  0.2404
  524MOL0     C70631   6.682   4.718  10.755  0.7092  0.4105 -0.0074
  524MOL0     C70632   6.555   4.682  10.756  0.1102  0.5055 -0.7429
  524MOL0     C70633   6.514   4.550  10.771  0.2245  0.0913  0.3817
  524MOL0     C70634   6.372   4.518  10.764 -0.2839  0.6964 -0.6877
  524MOL0     O70635   6.288   4.616  10.727 -0.1905 -0.1452 -0.1014
  524MOL0     C70636   6.154   4.580  10.705  0.5639 -0.9135  0.3833
  524MOL0     C70637   6.095   4.623  10.575 -0.2056  0.0348 -0.4479
  524MOL0     C70638   5.962   4.590  10.554 -0.7706 -0.4432 -0.2191
  524MOL0     C70639   5.887   4.518  10.647 -0.8105  0.3283  0.2900
  524MOL0     O70640   5.761   4.475  10.620 -0.0229 -1.2935  0.7063
  524MOL0     C70641   5.665   4.585  10.604 -0.2783 -0.1739 -1.1666
  524MOL0     C70642   5.521   4.522  10.621 -0.1109 -0.2952 -0.7198
  524MOL0     C70643   5.414   4.627  10.677 -1.3109  0.3492 -0.6095
  524MOL0     C70644   5.283   4.564  10.653  0.4549  0.0144  0.5795
  524MOL0     C70645   5.265   4.457  10.763  0.7357 -0.1038 -0.6989
  524MOL0     C70646   5.125   4.396  10.762  0.4089 -0.0773 -0.4809
  524MOL0     C70647   5.009   4.491  10.782 -0.2627 -0.7636 -0.4654
  524MOL0     C70648   4.888   4.419  10.826  0.1252 -1.0332  0.4631
  524MOL0    Cl70649   4.749   4.533  10.832 -0.2430 -0.6442 -0.4613
  524MOL0     C70650   5.948   4.469  10.760  0.1652 -0.0999 -0.4166
  524MOL0     C70651   6.072   4.506  10.789  0.0427  0.1029 -0.0860
  524MOL0     O70652   6.339   4.405  10.813 -0.3002  0.3694  0.1020
  524MOL0     C70653   6.615   4.456  10.793 -0.0817  0.3462 -0.3035
  524MOL0     C70654   6.744   4.495  10.785 -0.1119 -0.0506  0.0836
  524MOL0     N70655   7.042   5.000  10.713  0.6166  0.6226 -0.0830
  524MOL0     N70656   6.996   5.124  10.723 -0.6056  0.0841 -0.2000
  524MOL0     C70657   7.735   5.163  10.109 -0.4519  0.1389 -0.8141
  524MOL0     C70658   7.849   5.096  10.153 -0.0273  0.4871  0.1260
  524MOL0     C70659   8.136   4.847  10.408 -1.0840 -0.3757 -0.7647
  524MOL0     C70660   8.275   4.867  10.387  0.7670 -0.9048  0.3565
  524MOL0     C70661   8.358   4.833  10.488 -0.0644  0.7073  0.6734
  524MOL0     C70662   8.331   4.775  10.607 -0.4512  0.3246  0.2410
  524MOL0     O70663   8.424   4.739  10.706  0.5175  0.5189 -0.5909
  524MOL0     C70664   8.562   4.709  10.660 -0.5030  0.2941 -0.2174
  524MOL0     C70665   8.563   4.581  10.572 -0.0181  0.3868  0.5599
  524MOL0     C70666   8.526   4.445  10.641  0.2283  0.1072 -0.6794
  524MOL0     C70667   8.566   4.318  10.572  0.4639 -1.0135 -0.2360
  524MOL0     C70668   8.520   4.292  10.434  0.6848 -0.3986  0.6856
  524MOL0     C70669   8.509   4.290  10.310  0.1272 -0.4463  0.1789
  524MOL0     C70670   8.199   4.766  10.636  0.5272  0.5610 -0.0262
  524MOL0     C70671   8.098   4.794  10.544 -0.4470  0.5385  0.4332
  524MOL0     C70672   7.952   4.775  10.570  0.0946  1.3227  0.3583
  524MOL0     H70673   7.724   4.998  10.446 -3.5444 -3.9771 -1.2470
  524MOL0     H70674   7.532   5.121  10.384 -2.8514  2.3819 -2.0585
  524MOL0     H70675   7.391   5.323  10.283  1.0812 -0.0254  1.1712
  524MOL0     H70676   7.506   5.436  10.213 -1.0480  1.4022 -1.5861
  524MOL0     H70677   7.285   5.327  10.043 -2.6631  2.5702 -1.6585
  524MOL0     H70678   7.382   5.460  10.018  1.0585 -1.0674 -0.2883
  524MOL0     H70679   7.154   5.531  10.095 -0.2844 -2.8853 -1.3775
  524MOL0     H70680   7.250   5.568  10.238 -1.5035 -1.4181  3.3372
  524MOL0     H70681   7.093   5.315  10.177  1.9146  1.1750 -1.5849
  524MOL0     H70682   7.178   5.332  10.322  0.7591 -0.0531  1.8275
  524MOL0     H70683   7.050   5.549  10.372  3.0055 -1.4761  0.0336
  524MOL0     H70684   6.953   5.521  10.229 -2.4174 -0.4540  1.9263
  524MOL0     H70685   6.814   5.417  10.356 -0.2407 -0.5930  1.0907
  524MOL0     H70686   6.918   5.277  10.355 -5.7620 -1.3412  0.0518
  524MOL0     H70687   6.831   5.361  10.585 -1.2963  1.4930 -0.8939
  524MOL0     H70688   6.925   5.505  10.559 -1.8073 -0.3331 -1.4816
  524MOL0     H70689   7.144   5.354  10.546 -0.2570  2.1485 -0.8196
  524MOL0     H70690   7.061   5.361  10.701 -0.1078 -0.7923 -0.4726
  524MOL0     H70691   7.121   5.107  10.413 -3.6485 -1.2054 -2.2224
  524MOL0     H70692   7.228   4.865  10.453  0.1666 -1.2831  0.0727
  524MOL0     H70693   7.289   4.865  10.621 -1.1181  0.0734  2.3131
  524MOL0     H70694   7.018   4.759  10.547 -0.6991  3.2419  3.0004
  524MOL0     H70695   7.160   4.681  10.473  1.7671  0.1122  1.5269
  524MOL0     H70696   7.151   4.732  10.774  2.8992  1.6410 -1.4720
  524MOL0     H70697   7.219   4.590  10.708 -1.4735 -1.8238  4.0123
  524MOL0     H70698   7.025   4.540  10.843 -0.5580  2.3011  1.5085
  524MOL0     H70699   6.973   4.510  10.680  0.8499  0.5099 -0.2499
  524MOL0     H70700   6.725   4.817  10.746  0.0265  0.6019 -1.3741
  524MOL0     H70701   6.484   4.759  10.728  0.1419  0.6694 -0.3842
  524MOL0     H70702   6.158   4.669  10.500 -0.4568 -2.3002 -2.1811
  524MOL0     H70703   5.916   4.619  10.460  2.4702  1.9946 -1.2508
  524MOL0     H70704   5.670   4.662  10.681 -2.0075  0.8967 -2.0680
  524MOL0     H70705   5.668   4.644  10.512  0.7374  0.4027 -0.7826
  524MOL0     H70706   5.487   4.484  10.524 -1.3090  1.8587 -1.2108
  524MOL0     H70707   5.531   4.437  10.690  0.2436 -0.3442 -0.8287
  524MOL0     H70708   5.432   4.633  10.785  2.4025 -0.3863 -1.0637
  524MOL0     H70709   5.421   4.726  10.631  2.8264  2.5114  3.7611
  524MOL0     H70710   5.278   4.521  10.552  1.9562  1.3497 -0.1106
  524MOL0     H70711   5.216   4.651  10.656  1.1579  1.2517 -5.6882
  524MOL0     H70712   5.288   4.500  10.861  0.8915  2.1092 -1.6548
  524MOL0     H70713   5.334   4.375  10.739  4.7539  2.2595  1.5390
  524MOL0     H70714   5.110   4.355  10.661  0.2779 -2.1257  0.3387
  524MOL0     H70715   5.119   4.312  10.830 -0.8587 -0.6848 -1.3029
  524MOL0     H70716   4.982   4.552  10.695  1.4028  1.0992  0.2469
  524MOL0     H70717   5.041   4.556  10.864  0.7490  0.4407 -1.7622
  524MOL0     H70718   4.867   4.329  10.768 -2.5178 -1.1386  1.4542
  524MOL0     H70719   4.910   4.377  10.924 -1.9906 -1.7161  0.6985
  524MOL0     H70720   5.890   4.399  10.819 -1.1570 -0.3389 -1.9435
  524MOL0     H70721   6.110   4.465  10.882  1.0109 -1.8731 -1.2741
  524MOL0     H70722   6.576   4.357  10.817 -1.6461  1.0940  0.3783
  524MOL0     H70723   6.828   4.435  10.819 -1.0182 -1.4426 -0.0829
  524MOL0     H70724   7.741   5.200  10.007 -2.1915  0.0167 -0.9984
  524MOL0     H70725   7.943   5.091  10.099 -0.5393 -2.2515 -0.6585
  524MOL0     H70726   8.304   4.904  10.289 -1.6498 -0.5516 -0.2874
  524MOL0     H70727   8.462   4.835  10.458 -0.5301  0.2079 -1.0728
  524MOL0     H70728   8.626   4.686  10.746 -2.8231 -0.7258  1.3469
  524MOL0     H70729   8.599   4.800  10.612 -3.7238  1.7417 -0.2223
  524MOL0     H70730   8.660   4.566  10.523 -0.4498  1.2748 -0.5956
  524MOL0     H70731   8.483   4.598  10.500 -2.0183 -4.7877  1.1225
  524MOL0     H70732   8.420   4.442  10.668 -0.3224 -5.8508 -2.1851
  524MOL0     H70733   8.585   4.456  10.733 -0.6006 -0.8537 -0.0194
  524MOL0     H70734   8.675   4.313  10.575  0.6113  1.0659 -0.3262
  524MOL0     H70735   8.534   4.235  10.636 -2.0613 -1.0206 -1.3757
  524MOL0     H70736   8.501   4.287  10.204  1.0847 -1.4723  0.1251
  524MOL0     H70737   8.173   4.731  10.735 -0.0088 -0.6151 -0.5643
  524MOL0     H70738   7.890   4.746  10.485  2.5756  2.3576 -1.9391
  524MOL0     H70739   7.942   4.695  10.643  1.4245  0.1926 -0.6442
  524MOL0     H70740   7.905   4.869  10.601 -0.7339  1.6969 -1.8546
  525MOL0     O70741   3.863   7.790   5.474  0.3253  0.4626 -0.0847
  525MOL0     C70742   3.805   7.825   5.366  0.3764 -0.2778 -1.3680
  525MOL0     O70743   3.684   7.879   5.358  0.3271  0.2462  0.5323
  525MOL0     C70744   3.590   7.898   5.458 -0.0440 -0.6062  1.0045
  525MOL0     C70745   3.510   8.009   5.430 -0.8293  0.5773 -0.5656
  525MOL0     C70746   3.381   8.011   5.499 -0.7910 -0.2445 -0.8378
  525MOL0     C70747   3.350   7.924   5.605 -0.7179 -1.0125 -0.0543
  525MOL0     O70748   3.234   7.943   5.679 -0.0776 -0.5827  0.0955
  525MOL0     C70749   3.182   7.837   5.754  0.9613 -0.1778 -0.2096
  525MOL0     C70750   3.066   7.884   5.846  1.1565 -0.0279 -0.4961
  525MOL0     C70751   2.944   7.929   5.758  0.7986 -0.1471  0.7628
  525MOL0     C70752   2.816   7.888   5.823  0.4317  0.3203 -0.7720
  525MOL0     C70753   2.683   7.893   5.742 -0.0404  0.6787  0.0550
  525MOL0     C70754   2.570   7.842   5.846  0.2816 -0.5932 -0.3648
  525MOL0     C70755   2.442   7.788   5.771  0.2974 -0.1510 -0.7193
  525MOL0     C70756   2.456   7.672   5.669  0.3983  0.1369  0.0950
  525MOL0     N70757   2.528   7.550   5.719 -0.1473  0.4348  0.9252
  525MOL0     C70758   2.651   7.504   5.685 -0.6008  0.1200  0.1012
  525MOL0     C70759   2.678   7.396   5.754 -0.2079 -1.1307 -0.3982
  525MOL0     C70760   2.811   7.323   5.764  0.8166 -0.0048  1.4067
  525MOL0     C70761   2.893   7.291   5.634  0.4300 -0.4603 -0.4943
  525MOL0     C70762   2.803   7.216   5.534 -0.2132  0.1478  0.5276
  525MOL0     C70763   2.898   7.190   5.413 -0.7054  0.3449 -0.4507
  525MOL0     O70764   2.998   7.106   5.458  0.9189 -0.2532  0.1244
  525MOL0     C70765   3.107   7.081   5.379  0.9163  0.7668  0.2659
  525MOL0     C70766   3.120   7.121   5.237  0.5072 -0.3381 -0.3470
  525MOL0     C70767   3.240   7.083   5.170 -0.0428  0.4155  0.0247
  525MOL0     C70768   3.345   7.007   5.235  1.0027  0.3886 -0.4940
  525MOL0     C70769   3.463   6.967   5.152 -0.1668 -0.9573  0.0769
  525MOL0     O70770   3.545   6.869   5.210  0.5195  0.1473 -0.2537
  525MOL0     C70771   3.654   6.835   5.132 -0.2602  0.9607 -0.2754
  525MOL0     C70772   3.765   6.909   5.105 -0.6690  0.0551  0.1574
  525MOL0     C70773   3.864   6.858   5.017  0.9275 -0.3095 -1.1046
  525MOL0     C70774   3.859   6.731   4.965  0.4013  0.9212  0.3898
  525MOL0     O70775   3.965   6.693   4.897 -0.1637  0.8059  0.1249
  525MOL0     C70776   3.945   6.592   4.793 -0.1711 -0.4619 -1.1000
  525MOL0     C70777   4.050   6.612   4.687  0.1303 -0.4288 -0.2343
  525MOL0     C70778   4.010   6.732   4.597 -0.0021 -0.3365 -0.2651
  525MOL0     C70779   4.123   6.760   4.504  1.3613  0.0133 -0.0294
  525MOL0     C70780   4.102   6.885   4.428 -0.9516 -0.5521  0.3565
  525MOL0     C70781   4.226   6.894   4.330  0.2000 -0.4249  0.1758
  525MOL0     C70782   4.349   6.938   4.417 -0.1858  0.2036 -0.1859
  525MOL0     C70783   4.462   7.004   4.330 -0.1032 -0.1612 -0.2033
  525MOL0    Cl70784   4.596   7.021   4.441  0.2084 -0.3407 -0.2546
  525MOL0     C70785   3.745   6.649   4.994 -0.5454  0.1836  0.6277
  525MOL0     C70786   3.656   6.706   5.079 -0.0642  0.6209  0.2780
  525MOL0     O70787   3.474   7.013   5.043  0.1707 -0.9398  1.0915
  525MOL0     C70788   3.330   6.958   5.363 -0.0334 -0.0344  0.9392
  525MOL0     C70789   3.211   7.001   5.435  0.0152  0.6941  0.5658
  525MOL0     N70790   2.563   7.368   5.824  0.0879 -0.2945  0.3339
  525MOL0     N70791   2.475   7.453   5.797 -0.9870  0.7967 -0.4652
  525MOL0     C70792   3.440   7.823   5.633 -0.2410  0.2597 -0.1583
  525MOL0     C70793   3.563   7.809   5.558  0.8194 -0.0976 -0.4043
  525MOL0     C70794   3.882   7.802   5.236  0.5629  0.7607 -0.4514
  525MOL0     C70795   3.999   7.724   5.244 -0.0761  0.0207  0.1320
  525MOL0     C70796   4.063   7.675   5.122  0.7064  0.0818 -0.0664
  525MOL0     C70797   4.008   7.707   4.992 -0.4082  0.2836 -0.7801
  525MOL0     O70798   4.071   7.680   4.878  0.1747 -0.9633  0.8423
  525MOL0     C70799   4.186   7.590   4.872 -0.1735 -1.2052 -0.1823
  525MOL0     C70800   4.212   7.570   4.720 -0.4381 -0.6557  0.1859
  525MOL0     C70801   4.164   7.433   4.675  0.8817 -0.0869 -0.2231
  525MOL0     C70802   4.209   7.403   4.535  0.1868 -0.8680  0.8567
  525MOL0     C70803   4.343   7.353   4.522 -0.7667  0.1445 -0.2190
  525MOL0     C70804   4.466   7.332   4.532 -0.5515  0.5272 -0.4390
  525MOL0     C70805   3.887   7.780   4.989  0.1003 -0.6688  0.0426
  525MOL0     C70806   3.828   7.827   5.102 -0.1631  0.4156  0.1290
  525MOL0     C70807   3.714   7.922   5.084  0.0140 -0.8394  0.7102
  525MOL0     H70808   3.537   8.074   5.347 -1.0550  5.1486  2.5989
  525MOL0     H70809   3.307   8.087   5.477 -1.2880 -0.7080 -0.7739
  525MOL0     H70810   3.146   7.750   5.697  1.1102 -0.8039  0.6347
  525MOL0     H70811   3.263   7.806   5.820  1.6435  0.0586 -0.9131
  525MOL0     H70812   3.082   7.959   5.924 -3.8740 -2.9042  4.0014
  525MOL0     H70813   3.028   7.800   5.904 -3.8407 -0.7845 -4.2482
  525MOL0     H70814   2.937   7.883   5.659  0.0495 -1.9264  1.5909
  525MOL0     H70815   2.959   8.037   5.748  3.9486 -0.5762 -0.0039
  525MOL0     H70816   2.836   7.786   5.858  1.1500  1.4801  2.5164
  525MOL0     H70817   2.806   7.947   5.914  1.2749  0.0229 -0.4684
  525MOL0     H70818   2.657   7.988   5.696 -2.5146 -0.4587 -1.0742
  525MOL0     H70819   2.691   7.825   5.657 -0.4965  2.0128 -1.0986
  525MOL0     H70820   2.615   7.755   5.894  1.2028 -0.7075 -1.4102
  525MOL0     H70821   2.534   7.912   5.922 -3.3188 -4.0953  1.5291
  525MOL0     H70822   2.392   7.876   5.730  1.5473  1.1278  0.3885
  525MOL0     H70823   2.373   7.752   5.848  0.8564 -1.5410 -0.8377
  525MOL0     H70824   2.364   7.637   5.620  0.3017  2.0768 -1.2753
  525MOL0     H70825   2.522   7.710   5.590 -0.5923 -2.3836 -2.1253
  525MOL0     H70826   2.726   7.569   5.642 -1.0693  0.7237  0.1705
  525MOL0     H70827   2.885   7.380   5.821  3.2758 -1.7975  0.2188
  525MOL0     H70828   2.796   7.237   5.830  0.6848 -1.2045 -0.1303
  525MOL0     H70829   2.928   7.385   5.590 -0.6695  0.0336 -0.3418
  525MOL0     H70830   2.983   7.237   5.665 -0.1064 -1.0540  0.0855
  525MOL0     H70831   2.722   7.276   5.492 -0.7578  0.5760  2.1197
  525MOL0     H70832   2.753   7.130   5.580  2.8450 -0.7150  2.5528
  525MOL0     H70833   2.941   7.289   5.395 -1.0116  1.9965  5.6339
  525MOL0     H70834   2.842   7.147   5.329 -1.9721  2.0262 -0.5108
  525MOL0     H70835   3.045   7.168   5.175  0.3713 -3.2827 -2.6375
  525MOL0     H70836   3.263   7.110   5.067 -0.1513  0.3376 -0.0207
  525MOL0     H70837   3.769   7.010   5.144  1.9982 -0.9399  2.8195
  525MOL0     H70838   3.941   6.930   4.988 -1.1633  2.0659 -1.1123
  525MOL0     H70839   3.957   6.496   4.843  0.8835 -0.4670 -1.3468
  525MOL0     H70840   3.849   6.599   4.742 -0.9800  1.6362  0.5434
  525MOL0     H70841   4.152   6.631   4.722  0.2612 -1.0205 -0.2844
  525MOL0     H70842   4.054   6.527   4.619 -3.1224 -1.6783  0.9399
  525MOL0     H70843   3.916   6.717   4.543 -0.0025 -3.0627  0.3394
  525MOL0     H70844   4.002   6.826   4.652  0.8451 -0.1058 -0.5295
  525MOL0     H70845   4.138   6.675   4.437 -1.1945 -0.8160  0.3357
  525MOL0     H70846   4.211   6.763   4.569 -0.0493 -0.5478  2.0317
  525MOL0     H70847   4.076   6.968   4.494 -3.3548 -1.4576  0.6544
  525MOL0     H70848   4.023   6.868   4.354  1.3343  2.2686 -3.0649
  525MOL0     H70849   4.247   6.798   4.282  1.2850 -1.8729  3.2599
  525MOL0     H70850   4.203   6.968   4.253  0.2656  0.4902  1.0152
  525MOL0     H70851   4.391   6.844   4.454 -2.4036 -0.3627  1.0072
  525MOL0     H70852   4.324   6.999   4.504  0.7348 -1.1964  1.1023
  525MOL0     H70853   4.491   6.931   4.254 -1.5209 -1.2759  0.2843
  525MOL0     H70854   4.441   7.102   4.286 -4.9045 -1.2464 -0.8503
  525MOL0     H70855   3.745   6.552   4.945  0.4480 -1.4494  3.6443
  525MOL0     H70856   3.567   6.649   5.105  0.6900 -0.4554  0.5879
  525MOL0     H70857   3.400   6.898   5.420  1.4010  1.9905  1.4425
  525MOL0     H70858   3.193   6.959   5.533 -1.1239  0.1526  0.1504
  525MOL0     H70859   3.426   7.744   5.707  2.1232  2.1768  2.5254
  525MOL0     H70860   3.621   7.720   5.582 -2.1994 -2.6141 -1.7512
  525MOL0     H70861   4.052   7.691   5.333  0.4414  1.0994  0.2410
  525MOL0     H70862   4.149   7.609   5.137  1.1886  0.8671  0.7401
  525MOL0     H70863   4.155   7.495   4.916  0.0150 -1.7529 -1.1883
  525MOL0     H70864   4.264   7.649   4.920 -3.8827  4.4440 -0.1529
  525MOL0     H70865   4.320   7.567   4.703  0.4752 -1.5664  4.8133
  525MOL0     H70866   4.166   7.654   4.666  2.6663  1.2719  0.2770
  525MOL0     H70867   4.055   7.430   4.673  0.8826 -2.1056 -1.7012
  525MOL0     H70868   4.197   7.361   4.750  1.3154  2.0014  1.6700
  525MOL0     H70869   4.158   7.320   4.483  2.6151 -0.3628 -2.7280
  525MOL0     H70870   4.197   7.496   4.478 -2.7715  0.0891  2.8484
  525MOL0     H70871   4.572   7.320   4.542 -0.5318  1.3985  0.5676
  525MOL0     H70872   3.859   7.808   4.888 -1.0422 -0.9748  0.2641
  525MOL0     H70873   3.725   8.007   5.151  2.0309 -2.1760  2.2171
  525MOL0     H70874   3.716   7.956   4.980  0.6370 -3.3064 -0.1780
  525MOL0     H70875   3.616   7.875   5.095  0.7291 -2.8988 -0.8892
  526MOL0     O70876   5.197   6.494   8.827 -0.2922  0.4115  0.4122
  526MOL0     C70877   5.251   6.458   8.727 -0.3275 -0.8725  0.1303
  526MOL0     O70878   5.248   6.328   8.682  0.2356 -0.5277 -0.2666
  526MOL0     C70879   5.207   6.233   8.775 -0.2195 -0.5275 -0.2968
  526MOL0     C70880   5.070   6.203   8.793 -0.7821 -0.6056  0.7408
  526MOL0     C70881   5.029   6.119   8.894 -0.3275  0.4473  0.3146
  526MOL0     C70882   5.124   6.074   8.990 -0.8236  0.1807  0.3964
  526MOL0     O70883   5.088   5.998   9.102  0.0537 -0.0667 -0.5467
  526MOL0     C70884   5.077   5.857   9.061 -0.5472  0.3023  0.3819
  526MOL0     C70885   5.043   5.751   9.174 -0.7403  0.8719  0.1362
  526MOL0     C70886   4.960   5.637   9.127 -0.1528  0.7158 -0.2904
  526MOL0     C70887   4.909   5.556   9.247 -0.3523 -0.1242  0.6065
  526MOL0     C70888   4.842   5.428   9.199  1.0548 -0.6773  0.3628
  526MOL0     C70889   4.946   5.346   9.112  0.7990 -1.0682 -0.3048
  526MOL0     C70890   4.901   5.199   9.101 -0.2763  0.2490  0.3693
  526MOL0     C70891   4.764   5.190   9.038 -0.6104 -0.3164 -0.3052
  526MOL0     N70892   4.728   5.049   9.015  0.4442 -0.8413  0.7419
  526MOL0     C70893   4.633   5.013   8.928 -0.7769  0.2881  0.8166
  526MOL0     C70894   4.579   4.893   8.974 -0.7565 -0.0694  0.6543
  526MOL0     C70895   4.459   4.817   8.914  0.3774 -0.3177  0.5124
  526MOL0     C70896   4.379   4.745   9.030 -0.0850 -0.7319  0.1949
  526MOL0     C70897   4.241   4.692   8.967 -0.1758 -0.3446 -0.3611
  526MOL0     C70898   4.177   4.600   9.075  0.4811 -0.4210 -0.3785
  526MOL0     O70899   4.061   4.536   9.017  0.4579  0.3678 -0.0305
  526MOL0     C70900   3.998   4.426   9.081 -0.5387  0.7888  0.4696
  526MOL0     C70901   3.925   4.357   8.985 -0.6083  0.5030 -0.2824
  526MOL0     C70902   3.890   4.227   9.014  0.2592 -0.1671 -0.3850
  526MOL0     C70903   3.920   4.176   9.145 -0.0006 -0.0469 -0.2116
  526MOL0     C70904   3.873   4.042   9.191 -0.7374 -0.5288  0.5755
  526MOL0     O70905   3.922   3.993   9.304 -0.2489  0.2388 -0.6232
  526MOL0     C70906   3.899   3.857   9.340 -0.0808 -0.4167  0.0182
  526MOL0     C70907   3.983   3.757   9.286  0.8211 -0.7485  0.1262
  526MOL0     C70908   3.948   3.621   9.307  0.1867 -0.4133  0.1946
  526MOL0     C70909   3.832   3.581   9.382  1.1464 -0.0872  0.6465
  526MOL0     O70910   3.781   3.449   9.412  0.3586 -0.1859 -0.0816
  526MOL0     C70911   3.695   3.390   9.314  0.6555 -0.8501  0.0877
  526MOL0     C70912   3.659   3.248   9.337  0.3041 -0.4280 -0.2037
  526MOL0     C70913   3.792   3.171   9.357 -0.0733 -0.2090 -0.0449
  526MOL0     C70914   3.774   3.022   9.352  1.2287 -0.6057 -0.4162
  526MOL0     C70915   3.685   2.950   9.462  0.2415 -0.4153 -0.3121
  526MOL0     C70916   3.723   2.964   9.608 -0.8831  0.9218  0.6726
  526MOL0     C70917   3.676   3.092   9.668  0.3618  0.5491 -0.6642
  526MOL0     C70918   3.692   3.089   9.822 -0.2271 -0.5299  0.8618
  526MOL0    Cl70919   3.552   2.978   9.883 -0.3214 -0.2004  0.3462
  526MOL0     C70920   3.760   3.689   9.446  0.1823 -0.5309 -1.0956
  526MOL0     C70921   3.783   3.824   9.411 -0.2452 -0.6888 -1.3116
  526MOL0     O70922   3.799   3.983   9.114 -0.2363 -0.8887 -0.8392
  526MOL0     C70923   3.989   4.254   9.236  0.6166 -0.7744  0.0187
  526MOL0     C70924   4.044   4.371   9.200 -0.5025  0.2551 -1.0813
  526MOL0     N70925   4.654   4.858   9.088  0.3648  0.0176  0.4696
  526MOL0     N70926   4.738   4.954   9.111  0.1337  0.2026 -0.6281
  526MOL0     C70927   5.258   6.099   8.968 -0.4294 -0.2645 -0.0846
  526MOL0     C70928   5.299   6.172   8.860 -0.1753  0.4381  0.0715
  526MOL0     C70929   5.310   6.564   8.634 -0.9288 -0.0946  0.3849
  526MOL0     C70930   5.313   6.539   8.497 -0.3529 -1.3512 -0.6371
  526MOL0     C70931   5.376   6.629   8.408 -0.5416 -0.0201  0.7051
  526MOL0     C70932   5.441   6.751   8.452 -0.0580  1.1140  0.1048
  526MOL0     O70933   5.504   6.848   8.369 -0.2908  0.4688  0.0180
  526MOL0     C70934   5.573   6.796   8.253 -0.2895  0.7080 -1.2433
  526MOL0     C70935   5.519   6.796   8.118 -1.5060 -0.2585  0.7920
  526MOL0     C70936   5.531   6.934   8.046 -0.0484 -0.3103 -0.2332
  526MOL0     C70937   5.450   6.941   7.917 -0.6025  0.6095  0.5868
  526MOL0     C70938   5.501   6.861   7.814  0.0278  0.3477  0.5195
  526MOL0     C70939   5.547   6.794   7.723 -0.0877 -0.2292 -0.3752
  526MOL0     C70940   5.430   6.783   8.584 -0.3131  0.2940  0.4613
  526MOL0     C70941   5.368   6.689   8.678 -0.2494 -0.0805  0.3629
  526MOL0     C70942   5.354   6.736   8.825 -0.7599  0.1951  0.1332
  526MOL0     H70943   5.008   6.246   8.715  2.8820 -1.1890 -2.8607
  526MOL0     H70944   4.926   6.082   8.896 -0.7126  1.2923 -1.5736
  526MOL0     H70945   5.002   5.854   8.982 -1.2996 -4.5758  0.9470
  526MOL0     H70946   5.168   5.824   9.012 -0.5988  1.6004 -0.6155
  526MOL0     H70947   4.985   5.794   9.256  1.7137  0.9414  1.9332
  526MOL0     H70948   5.135   5.720   9.225 -1.3068  0.8344  1.1720
  526MOL0     H70949   5.033   5.573   9.077 -0.4682 -2.7700  3.2057
  526MOL0     H70950   4.878   5.687   9.075  0.5049  0.0483 -2.0425
  526MOL0     H70951   4.992   5.546   9.317 -1.1854 -1.3209  1.4602
  526MOL0     H70952   4.825   5.603   9.300  0.3864 -0.3980  2.0820
  526MOL0     H70953   4.798   5.379   9.286 -2.5663  2.7721  0.7816
  526MOL0     H70954   4.755   5.460   9.141 -0.6571  2.5810  4.2718
  526MOL0     H70955   4.955   5.375   9.007 -0.7111 -0.2138 -0.2251
  526MOL0     H70956   5.047   5.358   9.153  1.1156  0.1996 -1.4038
  526MOL0     H70957   4.888   5.148   9.197  0.5669  0.8251  0.7968
  526MOL0     H70958   4.965   5.138   9.037 -2.6429  0.1137 -2.0482
  526MOL0     H70959   4.688   5.245   9.094  0.2788  0.9157 -0.2560
  526MOL0     H70960   4.780   5.240   8.942  1.5997 -0.8454 -0.2764
  526MOL0     H70961   4.601   5.070   8.841  0.7956 -1.7207 -1.1849
  526MOL0     H70962   4.393   4.879   8.853 -0.6730 -0.9647  0.9723
  526MOL0     H70963   4.496   4.737   8.850 -1.2144 -0.0089 -0.8635
  526MOL0     H70964   4.433   4.657   9.066 -0.5450 -0.7022  0.9797
  526MOL0     H70965   4.365   4.817   9.111 -0.6417 -1.3962  0.6973
  526MOL0     H70966   4.267   4.640   8.875  1.5357  0.4549 -0.3624
  526MOL0     H70967   4.175   4.770   8.929 -1.5593 -2.7800 -3.3906
  526MOL0     H70968   4.153   4.655   9.165  1.9208 -0.1684 -0.1217
  526MOL0     H70969   4.260   4.535   9.106  6.3731  5.1187 -2.1851
  526MOL0     H70970   3.906   4.420   8.899  0.4580  1.3317  0.0644
  526MOL0     H70971   3.830   4.171   8.944 -1.6814  1.6580 -0.3025
  526MOL0     H70972   4.062   3.787   9.218 -1.8329  0.9483 -2.4154
  526MOL0     H70973   4.008   3.550   9.250  2.0378 -0.0965  1.6546
  526MOL0     H70974   3.604   3.449   9.304  1.2753 -0.1595 -1.8119
  526MOL0     H70975   3.749   3.390   9.219 -0.8250  1.2892 -0.8117
  526MOL0     H70976   3.601   3.248   9.430 -0.7277  2.0723 -0.7673
  526MOL0     H70977   3.605   3.200   9.255  0.8884  0.3524 -1.0530
  526MOL0     H70978   3.855   3.208   9.276  0.3712  0.7542  0.7240
  526MOL0     H70979   3.841   3.203   9.449  3.0076  1.0917 -1.9972
  526MOL0     H70980   3.875   2.980   9.362  0.2039 -3.0976  0.2796
  526MOL0     H70981   3.744   2.993   9.251 -1.1354  0.2012  0.0129
  526MOL0     H70982   3.693   2.844   9.438 -0.1604 -0.4949 -0.1093
  526MOL0     H70983   3.579   2.974   9.451  0.1553 -1.3224 -1.6429
  526MOL0     H70984   3.675   2.879   9.658 -0.7736 -0.7236 -1.8596
  526MOL0     H70985   3.829   2.944   9.628 -1.5964 -2.3002  2.0513
  526MOL0     H70986   3.571   3.105   9.640  0.5909  0.3382 -1.6572
  526MOL0     H70987   3.734   3.179   9.635 -1.8860  1.5185 -2.3256
  526MOL0     H70988   3.793   3.058   9.850  1.4386  2.0995 -1.6718
  526MOL0     H70989   3.675   3.194   9.849  1.8967  0.3320 -0.8539
  526MOL0     H70990   3.670   3.673   9.505  0.1578 -3.3921 -1.7562
  526MOL0     H70991   3.710   3.901   9.436  1.5761  1.5110 -2.4465
  526MOL0     H70992   4.013   4.205   9.329  0.4354 -0.9682 -0.0330
  526MOL0     H70993   4.124   4.420   9.253 -1.6301 -0.9949  2.0149
  526MOL0     H70994   5.331   6.071   9.043 -1.1809  0.2061  0.8412
  526MOL0     H70995   5.402   6.203   8.849  0.5334 -1.9878 -0.8848
  526MOL0     H70996   5.265   6.455   8.447 -1.3869 -0.2489 -1.5437
  526MOL0     H70997   5.389   6.597   8.305  2.6284  1.2134  0.6003
  526MOL0     H70998   5.608   6.695   8.274 -2.4856 -0.1071 -1.2727
  526MOL0     H70999   5.664   6.853   8.233 -0.4211  0.5957 -2.2298
  526MOL0     H71000   5.414   6.768   8.111 -0.7501 -3.3191 -0.1415
  526MOL0     H71001   5.579   6.725   8.060 -2.3432 -1.1948  1.0535
  526MOL0     H71002   5.637   6.945   8.021 -0.2545  1.8879 -0.3139
  526MOL0     H71003   5.497   7.012   8.114  1.6189  1.2136 -1.0567
  526MOL0     H71004   5.344   6.916   7.926 -0.7389  1.3473  1.1087
  526MOL0     H71005   5.461   7.042   7.878 -0.4431 -0.5181 -2.5513
  526MOL0     H71006   5.575   6.728   7.643  0.3854 -2.2557  1.3719
  526MOL0     H71007   5.479   6.873   8.618 -0.3228  1.1489 -1.6864
  526MOL0     H71008   5.386   6.655   8.891  0.1336 -0.1863 -0.7296
  526MOL0     H71009   5.416   6.824   8.842  0.3900 -0.4553 -0.5764
  526MOL0     H71010   5.252   6.770   8.845 -0.4710  0.2041  1.6529
  527MOL0     O71011   0.729   6.609   5.544  0.1955 -0.1835 -0.7281
  527MOL0     C71012   0.621   6.577   5.592 -0.4553 -0.0081  0.3166
  527MOL0     O71013   0.571   6.634   5.703  0.5673 -0.0418  0.1487
  527MOL0     C71014   0.623   6.753   5.754 -0.0955 -0.4562 -0.0047
  527MOL0     C71015   0.748   6.751   5.819  0.4016 -1.1533 -0.5255
  527MOL0     C71016   0.801   6.862   5.893  0.7193 -0.0501 -0.3604
  527MOL0     C71017   0.736   6.985   5.873 -0.6052 -0.6956 -0.7501
  527MOL0     O71018   0.782   7.101   5.931  0.0625 -0.5813 -0.0453
  527MOL0     C71019   0.906   7.134   5.885 -0.2304  0.0070 -0.2683
  527MOL0     C71020   0.957   7.271   5.933  1.0442  0.9193  1.2102
  527MOL0     C71021   1.094   7.298   5.877 -0.7336  0.1327  0.8428
  527MOL0     C71022   1.157   7.426   5.929  0.6362 -0.9778  0.7713
  527MOL0     C71023   1.293   7.459   5.870  0.1991 -0.3014 -0.0364
  527MOL0     C71024   1.341   7.596   5.927 -0.1826  0.0693 -0.4649
  527MOL0     C71025   1.456   7.648   5.848 -0.0880 -0.1883 -0.1793
  527MOL0     C71026   1.576   7.551   5.850 -0.8714 -0.1208  0.6192
  527MOL0     N71027   1.672   7.602   5.740 -0.1984  0.2011  0.3112
  527MOL0     C71028   1.664   7.542   5.615  0.4563  0.5266 -0.3029
  527MOL0     C71029   1.766   7.604   5.543  0.4938 -0.1557 -1.2226
  527MOL0     C71030   1.804   7.587   5.406 -1.3530 -0.8140 -0.4535
  527MOL0     C71031   1.902   7.471   5.399  0.5319  0.1026 -0.0084
  527MOL0     C71032   2.043   7.521   5.441 -0.2393  1.0978 -0.0417
  527MOL0     C71033   2.134   7.399   5.462  0.5481 -0.5028  0.5705
  527MOL0     O71034   2.089   7.317   5.570 -0.7672  1.1915  0.5262
  527MOL0     C71035   2.143   7.194   5.580  0.0329 -0.6393 -0.2735
  527MOL0     C71036   2.255   7.152   5.505  0.2217 -0.3232 -0.7220
  527MOL0     C71037   2.295   7.017   5.509 -0.2570  0.1277 -0.2830
  527MOL0     C71038   2.224   6.920   5.590  0.9060  0.5873  0.1097
  527MOL0     C71039   2.244   6.771   5.585  0.2884 -0.7341  0.5104
  527MOL0     O71040   2.166   6.691   5.666  0.3828  0.2577  0.7339
  527MOL0     C71041   2.168   6.553   5.661  0.5192  0.6300 -0.1809
  527MOL0     C71042   2.124   6.499   5.776 -0.2278  1.0153 -0.8128
  527MOL0     C71043   2.118   6.359   5.803 -0.3546 -0.2575  1.2870
  527MOL0     C71044   2.182   6.271   5.713  0.5139 -0.1297  0.5493
  527MOL0     O71045   2.201   6.138   5.751  0.0915  0.8109  0.3654
  527MOL0     C71046   2.143   6.078   5.868 -0.4500  0.4344  0.0229
  527MOL0     C71047   2.149   5.928   5.881 -0.2707  1.5579 -0.4339
  527MOL0     C71048   2.294   5.865   5.897 -0.8478  0.0508  0.2352
  527MOL0     C71049   2.314   5.720   5.843  0.4873  0.4234  0.1300
  527MOL0     C71050   2.284   5.598   5.940  0.4052 -0.0395 -0.3152
  527MOL0     C71051   2.137   5.590   5.983 -0.4798 -0.2513 -0.2949
  527MOL0     C71052   2.109   5.481   6.074  1.1573  0.4822 -0.0539
  527MOL0     C71053   1.954   5.475   6.102  0.1190 -0.3658 -0.2067
  527MOL0    Cl71054   1.921   5.327   6.201 -0.0160 -0.4592  0.0748
  527MOL0     C71055   2.233   6.328   5.597  0.4918 -0.1841 -0.8063
  527MOL0     C71056   2.230   6.467   5.568  0.0787 -0.0825 -0.2025
  527MOL0     O71057   2.310   6.740   5.487  0.2356 -0.5890 -0.4126
  527MOL0     C71058   2.113   6.970   5.670  0.4928 -0.0616 -0.1194
  527MOL0     C71059   2.080   7.110   5.659  0.7093  0.3407  0.2642
  527MOL0     N71060   1.828   7.689   5.631 -0.0868 -0.6179  1.5272
  527MOL0     N71061   1.771   7.693   5.747 -0.3325 -0.0390 -0.2006
  527MOL0     C71062   0.617   6.994   5.803  0.2107  0.0849  0.4868
  527MOL0     C71063   0.562   6.877   5.742 -0.2493 -0.6053 -0.1795
  527MOL0     C71064   0.551   6.455   5.535  0.0996 -0.8017 -0.7634
  527MOL0     C71065   0.422   6.423   5.574  0.3705 -0.5679  0.7401
  527MOL0     C71066   0.353   6.315   5.516  0.1191 -0.3311 -0.2233
  527MOL0     C71067   0.403   6.251   5.403  0.0189 -0.5351  0.7493
  527MOL0     O71068   0.333   6.148   5.349 -0.1209 -0.9633  0.0482
  527MOL0     C71069   0.407   6.017   5.372 -0.6558 -0.6719 -0.7032
  527MOL0     C71070   0.308   5.902   5.429  0.5477  0.8429  0.2724
  527MOL0     C71071   0.233   5.849   5.308  0.2178  0.1725 -0.4336
  527MOL0     C71072   0.108   5.774   5.352  0.3739 -0.2618  0.9005
  527MOL0     C71073   0.146   5.669   5.448 -0.2546 -0.5935  1.1384
  527MOL0     C71074   0.204   5.580   5.515 -0.1439 -0.0695 -0.1406
  527MOL0     C71075   0.539   6.270   5.372 -0.2571  0.7368  0.3752
  527MOL0     C71076   0.614   6.368   5.439 -0.5947 -1.2670  0.1405
  527MOL0     C71077   0.765   6.371   5.404 -0.0648 -0.0556 -0.0107
  527MOL0     H71078   0.791   6.651   5.823  1.2291 -0.7858  0.4926
  527MOL0     H71079   0.884   6.839   5.960 -1.0159 -3.1889  0.9488
  527MOL0     H71080   0.979   7.057   5.910  0.0799  0.2099 -0.5480
  527MOL0     H71081   0.905   7.128   5.776  0.3946 -1.5433 -0.2017
  527MOL0     H71082   0.951   7.267   6.043 -3.2714  2.4622  1.2192
  527MOL0     H71083   0.880   7.342   5.902 -2.1167 -1.5638  2.7460
  527MOL0     H71084   1.079   7.306   5.769  0.3391 -0.9861  0.5860
  527MOL0     H71085   1.167   7.221   5.905 -1.0126 -0.6817 -0.5514
  527MOL0     H71086   1.089   7.510   5.913  3.1500  1.2125  0.9532
  527MOL0     H71087   1.171   7.415   6.037 -0.7404  0.4845  1.1350
  527MOL0     H71088   1.359   7.373   5.889 -0.4256 -0.4873  1.4366
  527MOL0     H71089   1.287   7.457   5.761  2.3106 -3.3918 -0.2356
  527MOL0     H71090   1.261   7.669   5.938  0.1772  0.0642  5.0958
  527MOL0     H71091   1.375   7.592   6.031  1.1199  0.1324 -0.8688
  527MOL0     H71092   1.473   7.750   5.882 -2.1244 -0.6414  2.5717
  527MOL0     H71093   1.422   7.652   5.744 -1.1804 -0.5243  0.1513
  527MOL0     H71094   1.622   7.557   5.950  0.8582  0.1933 -0.1529
  527MOL0     H71095   1.555   7.445   5.835 -0.0707 -0.4784  1.8208
  527MOL0     H71096   1.604   7.460   5.576  1.8942 -0.9437  0.4408
  527MOL0     H71097   1.723   7.551   5.341 -0.1524 -2.6993 -0.9969
  527MOL0     H71098   1.853   7.677   5.370  0.0012 -0.1912  2.6188
  527MOL0     H71099   1.861   7.392   5.463  0.1239  0.3460  0.0378
  527MOL0     H71100   1.912   7.427   5.299  0.2806  0.4952 -0.2079
  527MOL0     H71101   2.053   7.580   5.533  1.4117  1.2195 -0.2640
  527MOL0     H71102   2.090   7.588   5.369  2.2350  0.5348  0.9262
  527MOL0     H71103   2.236   7.437   5.473 -0.2310  2.3829 -1.1974
  527MOL0     H71104   2.113   7.347   5.368 -0.8080  2.0961 -0.6459
  527MOL0     H71105   2.307   7.222   5.440  1.9466  0.3145  1.2181
  527MOL0     H71106   2.368   6.989   5.433  1.4471 -1.7751  1.9112
  527MOL0     H71107   2.087   6.569   5.850 -1.8179 -0.1337 -0.4627
  527MOL0     H71108   2.077   6.328   5.899 -0.2660 -0.1791  1.3506
  527MOL0     H71109   2.181   6.128   5.958  0.1872  2.5848 -1.3596
  527MOL0     H71110   2.035   6.091   5.870 -0.4522  0.3219  0.7892
  527MOL0     H71111   2.091   5.900   5.970 -0.6593 -1.6150 -1.5511
  527MOL0     H71112   2.097   5.883   5.796 -1.7719  3.4012 -0.5575
  527MOL0     H71113   2.367   5.920   5.838  2.1130  0.3804  3.8558
  527MOL0     H71114   2.334   5.871   5.999  0.7760 -1.2163 -0.2896
  527MOL0     H71115   2.418   5.709   5.810  0.3513  1.8639 -0.8605
  527MOL0     H71116   2.264   5.702   5.748 -0.0904  2.2636  0.0396
  527MOL0     H71117   2.342   5.609   6.032  0.0260 -1.8903  0.1877
  527MOL0     H71118   2.318   5.504   5.894  0.7151 -0.5159  0.8427
  527MOL0     H71119   2.105   5.687   6.022  0.1348 -0.1891  0.0630
  527MOL0     H71120   2.080   5.577   5.891 -2.8854  0.6558  0.9890
  527MOL0     H71121   2.168   5.495   6.165  0.5800 -0.7802  0.5436
  527MOL0     H71122   2.142   5.382   6.041 -0.0791  0.1320 -0.2848
  527MOL0     H71123   1.904   5.564   6.142  1.6379  0.4237 -0.0107
  527MOL0     H71124   1.906   5.461   6.004  3.7597 -2.6213 -1.8922
  527MOL0     H71125   2.278   6.261   5.524 -3.1955 -4.3765  0.2675
  527MOL0     H71126   2.262   6.510   5.474  0.0190  0.1160 -0.1318
  527MOL0     H71127   2.069   6.898   5.738  0.4881 -1.8735 -1.9721
  527MOL0     H71128   1.992   7.140   5.715 -0.6116 -3.6914  0.6220
  527MOL0     H71129   0.574   7.086   5.764  1.0635 -0.0951 -0.9527
  527MOL0     H71130   0.477   6.890   5.676  0.0741 -1.0881 -0.7101
  527MOL0     H71131   0.374   6.483   5.651 -2.1625 -2.5729  0.8349
  527MOL0     H71132   0.250   6.292   5.542  0.1515 -1.6080 -1.1320
  527MOL0     H71133   0.480   6.036   5.451  0.3526 -0.6597 -1.6172
  527MOL0     H71134   0.462   5.981   5.284 -1.4057 -1.6800 -0.7803
  527MOL0     H71135   0.233   5.929   5.504  1.2833 -2.0412  2.2149
  527MOL0     H71136   0.365   5.818   5.470 -0.5626 -0.8119 -1.4523
  527MOL0     H71137   0.296   5.782   5.249  0.3776 -2.0930  2.1062
  527MOL0     H71138   0.202   5.923   5.234  3.4468 -0.2680 -2.3871
  527MOL0     H71139   0.030   5.836   5.400 -2.9422 -1.5729 -2.3332
  527MOL0     H71140   0.049   5.723   5.275  0.0812 -0.4937  1.2730
  527MOL0     H71141   0.252   5.520   5.589 -0.5010 -0.2017 -0.0136
  527MOL0     H71142   0.588   6.209   5.296  3.0737  1.4819  1.7404
  527MOL0     H71143   0.831   6.399   5.486  1.5891  1.6824 -1.8431
  527MOL0     H71144   0.805   6.274   5.370 -3.2938 -3.4279  4.5146
  527MOL0     H71145   0.784   6.450   5.331 -4.6807 -1.4038 -3.1017
  528MOL0     O71146  11.131   8.200  10.509 -0.2292 -0.1401  0.6033
  528MOL0     C71147  11.213   8.243  10.590  0.1155 -0.5239  0.8818
  528MOL0     O71148  11.323   8.295  10.555 -0.0945  0.4854  0.2629
  528MOL0     C71149  11.364   8.323  10.421  0.5530  0.4976 -0.1178
  528MOL0     C71150  11.293   8.308  10.304 -0.3483  0.1341  0.4729
  528MOL0     C71151  11.336   8.365  10.184  0.0580  0.1258  0.3338
  528MOL0     C71152  11.447   8.436  10.174  0.3447  0.3694  0.3832
  528MOL0     O71153  11.479   8.490  10.052  0.0310  0.4526  0.8457
  528MOL0     C71154  11.565   8.602  10.035  0.1103 -0.0318  0.5691
  528MOL0     C71155  11.703   8.536  10.017 -0.2242 -0.6181  0.1103
  528MOL0     C71156  11.813   8.646  10.002  1.3095 -0.6938 -0.3072
  528MOL0     C71157  11.960   8.599  10.007  0.1018 -0.1556  0.3482
  528MOL0     C71158  12.047   8.711  10.032 -0.3870  0.8951  0.5174
  528MOL0     C71159  12.190   8.692   9.989  0.4995 -0.3334  1.4790
  528MOL0     C71160  12.291   8.805  10.032  0.2690 -0.2304  0.7693
  528MOL0     C71161  12.325   8.811  10.183  0.3521  0.7872  0.0537
  528MOL0     N71162  12.379   8.681  10.232 -0.3626  0.4334  0.5240
  528MOL0     C71163  12.514   8.645  10.239  0.0198  0.0589  0.4662
  528MOL0     C71164  12.514   8.516  10.288 -0.1937  0.0839  0.6991
  528MOL0     C71165  12.636   8.430  10.322  0.9148 -0.0650  1.2002
  528MOL0     C71166  12.718   8.512  10.421 -0.0743  0.2300  0.1065
  528MOL0     C71167  12.650   8.508  10.560  1.0149 -0.6135 -0.1434
  528MOL0     C71168  12.728   8.569  10.672 -0.8863 -0.1665 -0.0512
  528MOL0     O71169  12.721   8.711  10.638  0.2839  0.0243 -0.3026
  528MOL0     C71170  12.757   8.805  10.735  0.1925  0.1090  0.3418
  528MOL0     C71171  12.844   8.777  10.840 -0.4199  0.5709  0.1041
  528MOL0     C71172  12.895   8.889  10.919  0.2487  0.3460  0.9812
  528MOL0     C71173  12.870   9.018  10.889 -0.7148  1.0028 -0.7525
  528MOL0     C71174  12.942   9.130  10.969  0.7893 -0.0196  0.9565
  528MOL0     O71175  13.014   9.088  11.081  0.4883 -0.3488  0.5011
  528MOL0     C71176  13.038   9.175  11.180 -0.1647 -0.5844  0.3180
  528MOL0     C71177  13.162   9.175  11.252 -0.5759  0.4343 -1.0284
  528MOL0     C71178  13.184   9.250  11.370  0.6839 -0.0291  0.3827
  528MOL0     C71179  13.077   9.324  11.439 -0.3380 -0.5202 -0.8531
  528MOL0     O71180  13.101   9.376  11.568  0.4434  0.2745 -0.1791
  528MOL0     C71181  13.027   9.497  11.593 -0.2227  0.0749  0.9235
  528MOL0     C71182  13.098   9.560  11.704 -0.8433 -0.6902  0.0583
  528MOL0     C71183  13.230   9.620  11.652 -0.0406  0.1901  0.7565
  528MOL0     C71184  13.352   9.640  11.761  0.6652  0.2142  0.6714
  528MOL0     C71185  13.459   9.723  11.704  0.1128  0.4741  0.2448
  528MOL0     C71186  13.561   9.770  11.806 -0.1998  0.8033 -0.2636
  528MOL0     C71187  13.654   9.872  11.740  0.0800  0.3932  0.7459
  528MOL0     C71188  13.599  10.015  11.706  1.1620 -0.6849  0.1716
  528MOL0    Cl71189  13.707  10.148  11.742  0.4612  0.2456 -0.0527
  528MOL0     C71190  12.950   9.319  11.380 -0.4667  0.5862  0.3215
  528MOL0     C71191  12.933   9.249  11.246  0.0349 -0.6169  0.4594
  528MOL0     O71192  12.909   9.245  10.951  0.1959 -0.2540  0.1819
  528MOL0     C71193  12.799   9.035  10.776 -0.2610 -0.3662  1.2323
  528MOL0     C71194  12.748   8.932  10.698 -0.0067  0.1530  0.0154
  528MOL0     N71195  12.380   8.489  10.326 -0.8675 -0.4283  0.5073
  528MOL0     N71196  12.311   8.580  10.289 -0.9355 -0.8098 -0.7760
  528MOL0     C71197  11.528   8.440  10.291  0.3263 -0.1466 -0.1984
  528MOL0     C71198  11.484   8.380  10.403  0.9989 -0.4357 -1.4314
  528MOL0     C71199  11.176   8.223  10.732 -0.6375 -0.2364 -0.6243
  528MOL0     C71200  11.255   8.298  10.816  0.5334  0.2788 -0.2988
  528MOL0     C71201  11.230   8.270  10.950  0.2920  0.0465  0.0696
  528MOL0     C71202  11.144   8.179  11.010  0.3987  0.1742  0.1596
  528MOL0     O71203  11.122   8.151  11.144  0.2741  0.6914 -0.8882
  528MOL0     C71204  11.199   8.229  11.233 -0.5767  0.1887  0.1676
  528MOL0     C71205  11.209   8.170  11.373  0.3783 -0.8006 -0.9800
  528MOL0     C71206  11.234   8.279  11.485  0.1366  0.4345  0.3834
  528MOL0     C71207  11.382   8.310  11.500 -0.0749 -0.2514  0.5601
  528MOL0     C71208  11.439   8.378  11.379 -0.5192 -0.0118  0.1362
  528MOL0     C71209  11.486   8.436  11.282  0.1746 -0.6229 -0.5045
  528MOL0     C71210  11.056   8.128  10.915  0.3524 -0.7406 -0.9064
  528MOL0     C71211  11.067   8.141  10.779 -0.7753 -1.0650  0.0501
  528MOL0     C71212  10.970   8.062  10.701 -0.4068  0.3229  1.0810
  528MOL0     H71213  11.192   8.270  10.299 -0.0406 -0.5653 -0.9680
  528MOL0     H71214  11.255   8.352  10.112 -2.2226  3.0687  2.0989
  528MOL0     H71215  11.510   8.655   9.956 -2.5068 -0.7830  1.7462
  528MOL0     H71216  11.560   8.664  10.125 -1.6289  2.2477 -0.9602
  528MOL0     H71217  11.691   8.487   9.919 -0.7500  2.0976 -1.2819
  528MOL0     H71218  11.729   8.466  10.097 -1.7355  1.2369  2.3652
  528MOL0     H71219  11.782   8.717  10.080 -0.9545 -0.9880 -0.8615
  528MOL0     H71220  11.802   8.697   9.906 -0.0415 -1.2413 -0.4671
  528MOL0     H71221  11.985   8.524  10.082  2.1405  0.3322  0.2239
  528MOL0     H71222  11.991   8.577   9.904 -2.4816 -2.0600 -0.1352
  528MOL0     H71223  12.023   8.811   9.994 -2.3604 -0.3296 -1.7802
  528MOL0     H71224  12.044   8.721  10.141  3.6334 -0.8538  0.9364
  528MOL0     H71225  12.217   8.591  10.023 -0.4638  0.2958  4.3295
  528MOL0     H71226  12.189   8.696   9.880  0.5712 -1.5621  1.4167
  528MOL0     H71227  12.266   8.907  10.002  1.0238 -0.5652 -1.1213
  528MOL0     H71228  12.388   8.788   9.984 -0.0740 -0.8137  0.2765
  528MOL0     H71229  12.404   8.886  10.189  0.5821  0.4894  0.8277
  528MOL0     H71230  12.234   8.833  10.240  1.2105  2.0580  0.9745
  528MOL0     H71231  12.600   8.704  10.209  0.3230  1.2031  3.2661
  528MOL0     H71232  12.602   8.340  10.374  4.1896 -0.4678  2.9022
  528MOL0     H71233  12.695   8.414  10.231  1.4042  2.1979  1.0831
  528MOL0     H71234  12.813   8.458  10.423  0.2011  0.6885 -0.3590
  528MOL0     H71235  12.738   8.610  10.377 -1.6343 -1.0129 -3.7947
  528MOL0     H71236  12.632   8.410  10.605 -0.3024  1.0638  3.3917
  528MOL0     H71237  12.551   8.553  10.545  1.2602 -0.4982 -1.5703
  528MOL0     H71238  12.831   8.532  10.672 -0.3937  0.9312 -2.8819
  528MOL0     H71239  12.672   8.549  10.763 -0.0971 -1.7603  0.1111
  528MOL0     H71240  12.877   8.675  10.855 -0.9855  0.5592  1.3531
  528MOL0     H71241  12.958   8.861  11.003 -1.2296 -1.2226  1.6257
  528MOL0     H71242  13.247   9.126  11.204  0.8635  0.1370  1.6508
  528MOL0     H71243  13.284   9.248  11.412  1.6438 -1.0230 -1.7611
  528MOL0     H71244  13.022   9.562  11.505 -1.0359 -0.5928  0.4537
  528MOL0     H71245  12.924   9.478  11.625 -0.5055  0.1009  0.0503
  528MOL0     H71246  13.034   9.637  11.748 -0.5901  0.1004 -0.9228
  528MOL0     H71247  13.117   9.488  11.785  3.3397 -0.9818 -0.9528
  528MOL0     H71248  13.268   9.556  11.572  0.4670  2.7780 -1.1881
  528MOL0     H71249  13.218   9.723  11.620  1.0637  1.1349  3.1093
  528MOL0     H71250  13.410   9.554  11.795  2.5593  1.8943  1.9522
  528MOL0     H71251  13.302   9.667  11.855 -2.8989 -1.3015 -0.5866
  528MOL0     H71252  13.412   9.811  11.658 -1.5385 -0.2146  0.5213
  528MOL0     H71253  13.514   9.664  11.631  0.0078  0.2794  0.3224
  528MOL0     H71254  13.521   9.824  11.893  2.6146  0.0300  1.6406
  528MOL0     H71255  13.605   9.687  11.862 -1.2405 -0.1986 -0.8875
  528MOL0     H71256  13.700   9.830  11.651 -2.8717 -0.6611 -0.3806
  528MOL0     H71257  13.738   9.892  11.808  1.0712  0.9372 -0.5972
  528MOL0     H71258  13.563  10.022  11.603  2.0055  1.8929 -0.0315
  528MOL0     H71259  13.515  10.031  11.775  2.2539  1.7379  1.0590
  528MOL0     H71260  12.868   9.371  11.429 -2.6844 -1.1508 -1.3283
  528MOL0     H71261  12.835   9.241  11.201 -1.0445 -1.2980  2.7849
  528MOL0     H71262  12.772   9.131  10.734 -1.2509 -0.6947  1.0861
  528MOL0     H71263  12.681   8.941  10.614  0.8694  1.6597 -0.5578
  528MOL0     H71264  11.629   8.481  10.288 -0.3082  1.6966  1.4880
  528MOL0     H71265  11.557   8.375  10.484 -0.3322 -0.7270 -0.2040
  528MOL0     H71266  11.332   8.367  10.783  0.5505  0.5336  0.2626
  528MOL0     H71267  11.301   8.324  11.012 -0.0409 -0.2750  0.7390
  528MOL0     H71268  11.164   8.333  11.227  1.7928  0.9622 -2.3603
  528MOL0     H71269  11.301   8.224  11.194 -1.5422 -1.7584 -2.4579
  528MOL0     H71270  11.280   8.086  11.373 -2.1672 -3.0885 -0.9870
  528MOL0     H71271  11.105   8.139  11.389  0.0270  0.4028 -0.8764
  528MOL0     H71272  11.193   8.239  11.578  0.7007  0.8366  0.8046
  528MOL0     H71273  11.182   8.372  11.463  0.9544  1.3008  1.9463
  528MOL0     H71274  11.398   8.377  11.585  0.5598 -2.0918  1.9644
  528MOL0     H71275  11.441   8.219  11.515 -2.2721 -1.8330  0.2161
  528MOL0     H71276  11.531   8.477  11.193  0.8327 -0.8749 -0.2961
  528MOL0     H71277  10.964   8.087  10.956 -0.5965  3.4541  1.7689
  528MOL0     H71278  10.907   8.104  10.622  0.9824  1.1551  0.3725
  528MOL0     H71279  11.030   7.987  10.649 -1.2735  1.7636 -2.2684
  528MOL0     H71280  10.891   8.019  10.763 -0.3462  1.0048  1.6367
  529MOL0     O71281   6.090   2.675   3.611  0.1862  0.9480 -0.2387
  529MOL0     C71282   5.994   2.617   3.656  2.0663 -0.7129 -0.2352
  529MOL0     O71283   5.951   2.486   3.619 -0.4706  0.0350  1.0406
  529MOL0     C71284   6.025   2.444   3.510 -0.0583  0.4259 -0.0041
  529MOL0     C71285   6.128   2.351   3.518 -0.5930  0.5019 -0.6909
  529MOL0     C71286   6.187   2.292   3.404  0.8079 -0.7385 -0.4205
  529MOL0     C71287   6.147   2.337   3.274 -0.0648  0.6242  0.6994
  529MOL0     O71288   6.199   2.297   3.149 -0.4994  0.0540 -0.1437
  529MOL0     C71289   6.286   2.184   3.138  0.1735  0.0326 -0.1629
  529MOL0     C71290   6.354   2.165   2.995 -0.9955 -0.1378 -0.6027
  529MOL0     C71291   6.461   2.273   2.975 -0.3141 -0.4802  0.0938
  529MOL0     C71292   6.503   2.277   2.825 -0.4673  0.3337 -1.4599
  529MOL0     C71293   6.590   2.156   2.796 -0.0079  0.0548  0.5858
  529MOL0     C71294   6.652   2.160   2.665  0.0010  0.8764 -0.4384
  529MOL0     C71295   6.577   2.079   2.566  0.7774 -0.2874  0.0249
  529MOL0     C71296   6.644   2.080   2.425 -0.3779  0.2039 -0.0769
  529MOL0     N71297   6.603   1.980   2.324 -0.5896 -0.5636  0.6929
  529MOL0     C71298   6.595   1.842   2.335  0.1889 -0.8056  0.0415
  529MOL0     C71299   6.519   1.808   2.225 -0.6952 -0.1855  0.1075
  529MOL0     C71300   6.492   1.679   2.174  0.3518  0.3743  0.0514
  529MOL0     C71301   6.374   1.618   2.246  0.3226 -0.1742 -0.7902
  529MOL0     C71302   6.244   1.692   2.210  0.4202  0.0574  0.1890
  529MOL0     C71303   6.162   1.705   2.340 -0.2086  0.1840  0.6631
  529MOL0     O71304   6.021   1.715   2.289  0.8996 -0.1604 -0.5456
  529MOL0     C71305   5.968   1.840   2.297 -0.4742  0.5774  0.1604
  529MOL0     C71306   6.030   1.964   2.299 -0.3865 -0.2398  0.8265
  529MOL0     C71307   5.963   2.086   2.290 -1.6419  0.5385  0.0349
  529MOL0     C71308   5.824   2.085   2.261 -0.3694  0.0965  0.1329
  529MOL0     C71309   5.752   2.214   2.251 -0.3475  0.3387 -0.5127
  529MOL0     O71310   5.810   2.317   2.298 -0.7458  0.8924 -0.0870
  529MOL0     C71311   5.762   2.440   2.265 -1.1905  0.2746  0.3943
  529MOL0     C71312   5.717   2.476   2.136  0.1336  0.7184 -0.7412
  529MOL0     C71313   5.686   2.611   2.111  1.0314  0.0908 -0.0600
  529MOL0     C71314   5.691   2.703   2.222 -1.0951  1.0434  0.6076
  529MOL0     O71315   5.652   2.833   2.211  0.8072  0.0181  0.1270
  529MOL0     C71316   5.586   2.887   2.097 -0.6715  0.2769 -0.5040
  529MOL0     C71317   5.622   3.030   2.085 -0.0215 -0.5148 -0.2781
  529MOL0     C71318   5.513   3.123   2.149  0.1802  0.1781  0.9464
  529MOL0     C71319   5.386   3.131   2.066  0.5560  0.1400  0.9082
  529MOL0     C71320   5.400   3.177   1.918 -0.3612  0.7622 -0.4816
  529MOL0     C71321   5.251   3.219   1.869  0.9996  0.2419 -0.4616
  529MOL0     C71322   5.243   3.224   1.722 -0.2187  0.4612  0.3900
  529MOL0     C71323   5.098   3.225   1.678  1.0322  0.4519  0.3291
  529MOL0    Cl71324   5.025   3.067   1.738 -0.4272  0.1678  0.3756
  529MOL0     C71325   5.723   2.653   2.351 -0.3662  0.4984  1.1875
  529MOL0     C71326   5.766   2.524   2.372  0.4053  0.7768  0.0625
  529MOL0     O71327   5.649   2.211   2.179  0.4566  0.8537 -0.9209
  529MOL0     C71328   5.762   1.953   2.262 -0.3690  0.3069  0.0674
  529MOL0     C71329   5.832   1.835   2.273  0.4962 -0.0073 -0.6693
  529MOL0     N71330   6.506   1.917   2.134  0.3523 -0.3499 -1.2070
  529MOL0     N71331   6.550   2.017   2.204 -0.8346  0.2326  0.9074
  529MOL0     C71332   6.045   2.434   3.261 -0.4964  0.7564 -0.3301
  529MOL0     C71333   5.987   2.477   3.377  0.2162  0.3566 -0.0887
  529MOL0     C71334   5.911   2.692   3.753  0.4532  0.3866  0.3639
  529MOL0     C71335   5.806   2.619   3.805 -0.1624 -0.1775 -0.3812
  529MOL0     C71336   5.730   2.657   3.913 -0.4922  0.0414  0.3821
  529MOL0     C71337   5.750   2.783   3.964  0.0764  0.4141 -0.3764
  529MOL0     O71338   5.675   2.835   4.063  0.3034  0.4948  0.8243
  529MOL0     C71339   5.581   2.744   4.124 -0.2923 -0.2682 -0.9156
  529MOL0     C71340   5.521   2.819   4.242  0.2449  0.3289  0.4354
  529MOL0     C71341   5.405   2.918   4.209  0.1735  0.2737  0.3063
  529MOL0     C71342   5.333   2.954   4.343  0.5738 -0.0776  0.2698
  529MOL0     C71343   5.431   3.020   4.434 -0.8699 -1.0965 -1.1875
  529MOL0     C71344   5.510   3.064   4.507 -1.3823 -0.1786 -0.1056
  529MOL0     C71345   5.851   2.867   3.913 -0.7899  0.7948  0.8791
  529MOL0     C71346   5.937   2.819   3.816  0.4988  0.4529  0.1926
  529MOL0     C71347   6.046   2.916   3.763  0.3662  0.7239 -0.4371
  529MOL0     H71348   6.157   2.303   3.611 -1.0867  1.6677  0.0817
  529MOL0     H71349   6.266   2.221   3.426 -0.3324 -1.0344  3.4087
  529MOL0     H71350   6.375   2.192   3.203  1.1316 -0.2762 -1.4025
  529MOL0     H71351   6.222   2.104   3.175  0.4919 -0.4962 -0.7354
  529MOL0     H71352   6.269   2.184   2.928 -1.6073  2.7891  0.8122
  529MOL0     H71353   6.401   2.067   2.990  2.6741  0.5434  6.9033
  529MOL0     H71354   6.542   2.261   3.047  0.4408  0.7660 -0.5173
  529MOL0     H71355   6.423   2.373   2.995  1.2332 -0.4623  3.5298
  529MOL0     H71356   6.410   2.273   2.767 -1.2766  1.5518 -0.3039
  529MOL0     H71357   6.550   2.375   2.819  0.6119  0.0594  1.1618
  529MOL0     H71358   6.679   2.156   2.860 -1.0470 -1.1947  2.1085
  529MOL0     H71359   6.533   2.064   2.814  0.1027 -0.3388 -0.9878
  529MOL0     H71360   6.660   2.266   2.639 -3.4855  1.5301  0.5642
  529MOL0     H71361   6.753   2.118   2.664  0.7498  2.4297  1.6218
  529MOL0     H71362   6.475   2.120   2.556  1.7563  2.9496  1.8453
  529MOL0     H71363   6.569   1.973   2.591 -1.1451 -0.5219 -1.3205
  529MOL0     H71364   6.651   2.172   2.366  0.5255 -0.4138 -0.9593
  529MOL0     H71365   6.747   2.046   2.439 -0.4566 -0.4692 -1.0746
  529MOL0     H71366   6.640   1.769   2.401 -1.3880 -0.0260  2.0836
  529MOL0     H71367   6.470   1.682   2.067 -0.7160 -2.6316  0.0737
  529MOL0     H71368   6.578   1.612   2.183 -1.3175 -2.1598 -1.5051
  529MOL0     H71369   6.361   1.514   2.215  1.8350 -0.0661 -1.8811
  529MOL0     H71370   6.381   1.619   2.356 -3.0836  0.2759 -0.4634
  529MOL0     H71371   6.195   1.638   2.129  0.6580  2.6267 -1.8025
  529MOL0     H71372   6.259   1.791   2.166 -0.7654  0.0775 -0.1931
  529MOL0     H71373   6.196   1.789   2.401 -0.6515 -1.7218  3.7484
  529MOL0     H71374   6.158   1.615   2.402 -2.0788  0.9454  1.7319
  529MOL0     H71375   6.130   1.970   2.342 -0.6615  1.4513  1.3049
  529MOL0     H71376   6.032   2.170   2.293  0.6816 -0.8651 -4.7201
  529MOL0     H71377   5.705   2.408   2.052 -1.9548 -0.7281  0.6331
  529MOL0     H71378   5.665   2.636   2.007  1.8031  0.6269 -0.0970
  529MOL0     H71379   5.631   2.840   2.009 -1.1567  0.4758 -0.8641
  529MOL0     H71380   5.480   2.864   2.086 -1.3069  3.2157 -1.3202
  529MOL0     H71381   5.720   3.044   2.131 -1.8517  1.9952  3.3792
  529MOL0     H71382   5.623   3.065   1.982 -2.6018  1.8967  0.3889
  529MOL0     H71383   5.487   3.078   2.246 -1.3076 -1.5820 -0.2092
  529MOL0     H71384   5.552   3.225   2.161 -1.6541  0.7872  2.1532
  529MOL0     H71385   5.317   3.199   2.118 -0.7494 -1.3906  1.2527
  529MOL0     H71386   5.341   3.033   2.051 -0.6788  1.0376 -2.0950
  529MOL0     H71387   5.441   3.092   1.863  2.3011  1.4183  0.2978
  529MOL0     H71388   5.481   3.251   1.918  2.0539 -1.6204  1.8661
  529MOL0     H71389   5.183   3.148   1.916 -0.0134  3.4070  3.3805
  529MOL0     H71390   5.216   3.314   1.909  1.4881 -0.2223  1.1542
  529MOL0     H71391   5.295   3.132   1.694  0.5441 -0.8810  5.3353
  529MOL0     H71392   5.306   3.309   1.697  0.8670 -0.2039  0.7907
  529MOL0     H71393   5.043   3.310   1.720 -1.2059 -0.5576 -0.4062
  529MOL0     H71394   5.094   3.234   1.569 -0.7953  0.6206  0.3881
  529MOL0     H71395   5.729   2.725   2.432 -2.0321  1.5036  0.4615
  529MOL0     H71396   5.806   2.494   2.468  2.0451  3.1757  0.2336
  529MOL0     H71397   5.656   1.950   2.241 -0.0950  0.5374 -1.4893
  529MOL0     H71398   5.791   1.735   2.265  1.9985 -0.7298  0.1202
  529MOL0     H71399   6.012   2.468   3.164  0.5570  1.1136 -0.5834
  529MOL0     H71400   5.898   2.538   3.368 -0.9832 -1.2326  0.4691
  529MOL0     H71401   5.791   2.519   3.766 -0.1483  0.6734 -2.6756
  529MOL0     H71402   5.651   2.591   3.950 -0.9459  0.0005 -0.6268
  529MOL0     H71403   5.639   2.663   4.169  1.4295  1.0943 -0.5493
  529MOL0     H71404   5.501   2.705   4.062 -2.3136  0.4504  1.0793
  529MOL0     H71405   5.596   2.881   4.291 -0.5205  2.1188 -0.5926
  529MOL0     H71406   5.493   2.746   4.318 -0.7221 -1.5402 -1.6033
  529MOL0     H71407   5.334   2.874   4.140  1.1994  1.1405 -1.3673
  529MOL0     H71408   5.449   3.005   4.159 -0.9144  0.1501 -0.9126
  529MOL0     H71409   5.254   3.024   4.313  1.2089 -0.3223 -2.1993
  529MOL0     H71410   5.284   2.866   4.385 -1.5246  0.0731 -1.6237
  529MOL0     H71411   5.576   3.117   4.572 -3.3936 -2.0841  3.7770
  529MOL0     H71412   5.861   2.968   3.953  1.2568  1.0624 -0.1873
  529MOL0     H71413   6.020   3.014   3.804  1.6080  0.0754  2.1063
  529MOL0     H71414   6.141   2.883   3.807  0.1406  2.4322  1.5013
  529MOL0     H71415   6.044   2.927   3.654  1.4415  1.2701 -0.4176
  530MOL0     O71416   0.576   8.001   9.393 -0.1720  0.3962 -0.2864
  530MOL0     C71417   0.531   7.890   9.355 -0.2143 -0.1902 -0.1473
  530MOL0     O71418   0.480   7.801   9.440  0.5811 -0.0679 -0.2219
  530MOL0     C71419   0.507   7.799   9.578  1.3038  0.6102  0.1423
  530MOL0     C71420   0.399   7.762   9.665  0.1619 -0.1452 -0.0322
  530MOL0     C71421   0.411   7.759   9.801  0.5990 -0.3662 -0.1170
  530MOL0     C71422   0.529   7.798   9.866 -0.8273 -0.8404  1.2802
  530MOL0     O71423   0.540   7.790  10.004 -0.4861 -0.7968  0.3560
  530MOL0     C71424   0.537   7.910  10.076  0.8779  0.4980  0.8837
  530MOL0     C71425   0.664   7.912  10.168  0.3400 -0.3909  0.1184
  530MOL0     C71426   0.682   7.777  10.240 -0.4053 -0.0501 -0.9647
  530MOL0     C71427   0.776   7.811  10.370  0.1950  0.9523 -0.5799
  530MOL0     C71428   0.778   7.696  10.465  0.3450  0.0033 -0.1056
  530MOL0     C71429   0.646   7.674  10.553  0.0463  0.1684  0.3374
  530MOL0     C71430   0.645   7.532  10.615  0.1019  0.2943 -0.4549
  530MOL0     C71431   0.525   7.481  10.695  0.6605 -0.5764  0.2862
  530MOL0     N71432   0.460   7.585  10.785  0.0612  1.2415 -0.3292
  530MOL0     C71433   0.402   7.709  10.761 -0.4370 -0.1836 -0.2141
  530MOL0     C71434   0.398   7.770  10.885  0.5966  0.5083 -0.3672
  530MOL0     C71435   0.336   7.906  10.917  0.0125 -0.1159 -0.4816
  530MOL0     C71436   0.442   8.016  10.947 -0.2895 -0.3951 -0.0624
  530MOL0     C71437   0.499   8.070  10.820 -0.7840 -0.3327 -0.3115
  530MOL0     C71438   0.587   8.186  10.839 -0.7224  0.4399 -0.3828
  530MOL0     O71439   0.722   8.130  10.868  0.3183 -1.1066 -0.6263
  530MOL0     C71440   0.812   8.105  10.771  0.2448  0.1203 -0.0345
  530MOL0     C71441   0.796   8.132  10.638  0.4954  1.3967 -0.4827
  530MOL0     C71442   0.896   8.100  10.546 -0.4573 -0.2085 -0.6155
  530MOL0     C71443   1.021   8.048  10.591 -0.8836  0.0439 -0.1788
  530MOL0     C71444   1.129   8.004  10.495 -0.5974  0.2297  0.0425
  530MOL0     O71445   1.101   8.012  10.361 -0.9429  0.3323  0.5157
  530MOL0     C71446   1.197   7.968  10.275  0.1550  0.9838  0.9895
  530MOL0     C71447   1.205   7.829  10.259  0.5561  0.0715 -0.1002
  530MOL0     C71448   1.304   7.777  10.176 -0.6568  0.3015  0.4657
  530MOL0     C71449   1.386   7.861  10.106  0.1780  0.2832  0.2141
  530MOL0     O71450   1.492   7.814  10.029 -0.0104 -0.3409 -0.1787
  530MOL0     C71451   1.451   7.731   9.916  0.1162 -0.1961  0.6635
  530MOL0     C71452   1.380   7.823   9.811  0.1284  0.1592 -0.4770
  530MOL0     C71453   1.309   7.740   9.698  0.3654  0.1827 -0.2419
  530MOL0     C71454   1.248   7.840   9.596  0.0862  0.6158  0.8072
  530MOL0     C71455   1.357   7.915   9.519  0.3408 -0.0933  0.6402
  530MOL0     C71456   1.305   7.979   9.388  0.4648 -0.8180  0.4792
  530MOL0     C71457   1.392   8.086   9.329 -0.7570 -0.9618 -0.2956
  530MOL0     C71458   1.345   8.122   9.189 -0.7840  0.4655 -0.1925
  530MOL0    Cl71459   1.359   7.987   9.068 -0.2860  0.0524 -0.0696
  530MOL0     C71460   1.374   8.001  10.122  0.9233 -0.8669 -0.3752
  530MOL0     C71461   1.282   8.058  10.205  0.3502  0.1835  0.2742
  530MOL0     O71462   1.235   7.953  10.541 -0.1014  1.2227 -0.0902
  530MOL0     C71463   1.035   8.024  10.730 -0.2783  0.2754  0.0503
  530MOL0     C71464   0.929   8.050  10.814 -0.4633  0.5272 -0.2242
  530MOL0     N71465   0.444   7.684  10.978 -0.4498 -0.1326 -0.1890
  530MOL0     N71466   0.467   7.574  10.918  0.9874 -0.3748 -0.8968
  530MOL0     C71467   0.641   7.832   9.786 -0.1396  0.0021  1.2986
  530MOL0     C71468   0.624   7.828   9.643 -0.0088 -0.1587  0.3053
  530MOL0     C71469   0.517   7.862   9.212 -0.0835 -0.3176  1.2227
  530MOL0     C71470   0.501   7.727   9.173 -0.5276 -0.4387  0.2711
  530MOL0     C71471   0.471   7.696   9.037 -0.1364 -0.1501  0.4011
  530MOL0     C71472   0.443   7.803   8.941  0.3441  0.7292  0.5275
  530MOL0     O71473   0.392   7.778   8.821 -0.1351 -0.6681  1.1662
  530MOL0     C71474   0.249   7.769   8.816  0.9193  0.0617  0.1364
  530MOL0     C71475   0.192   7.750   8.679 -0.0285  0.5286  1.0998
  530MOL0     C71476   0.207   7.608   8.628 -0.6198  0.0555 -0.6461
  530MOL0     C71477   0.348   7.576   8.577  0.3068 -0.1501 -0.9820
  530MOL0     C71478   0.393   7.628   8.442 -1.4126  0.1658 -0.2919
  530MOL0     C71479   0.418   7.673   8.333  0.2492 -0.1594  1.2370
  530MOL0     C71480   0.461   7.942   8.976 -0.1935  0.5077 -0.3463
  530MOL0     C71481   0.512   7.964   9.106  0.4223 -0.8090 -0.3936
  530MOL0     C71482   0.546   8.111   9.116  0.6474  0.7640 -0.1248
  530MOL0     H71483   0.312   7.724   9.613  0.4471 -2.7789  1.2507
  530MOL0     H71484   0.330   7.716   9.859  0.6713  1.5251  1.5099
  530MOL0     H71485   0.528   7.991  10.003  0.8398 -0.7883 -0.6009
  530MOL0     H71486   0.446   7.904  10.136  1.7954 -1.4882  2.2051
  530MOL0     H71487   0.668   7.987  10.247  1.3375 -3.1017  2.8652
  530MOL0     H71488   0.758   7.938  10.117 -0.3742  1.4480 -0.3331
  530MOL0     H71489   0.729   7.704  10.173 -1.6359 -0.5161 -1.3377
  530MOL0     H71490   0.585   7.734  10.266  0.5888 -2.1240 -0.5065
  530MOL0     H71491   0.876   7.824  10.326  0.5879  1.3948  0.4119
  530MOL0     H71492   0.747   7.899  10.428  1.1443 -1.1659  3.4808
  530MOL0     H71493   0.792   7.614  10.394  0.5073  1.9845 -2.5509
  530MOL0     H71494   0.867   7.708  10.527 -0.3353 -3.1221  1.6545
  530MOL0     H71495   0.649   7.748  10.634  0.2522  0.0516  0.4385
  530MOL0     H71496   0.554   7.681  10.496  2.0352 -2.5628 -3.7018
  530MOL0     H71497   0.736   7.519  10.673  0.0906 -1.6793 -0.8164
  530MOL0     H71498   0.656   7.456  10.537  2.9106  0.2427 -0.0882
  530MOL0     H71499   0.455   7.457  10.614 -0.2550  1.4441  0.4273
  530MOL0     H71500   0.558   7.399  10.760  2.4044  1.7871  2.5600
  530MOL0     H71501   0.378   7.744  10.661  0.0060  1.0579  0.1004
  530MOL0     H71502   0.276   7.918  10.827 -0.1664  0.3939 -0.2944
  530MOL0     H71503   0.275   7.906  11.007  0.2799 -1.4620 -0.2711
  530MOL0     H71504   0.408   8.108  10.996 -1.9837  1.1304 -3.7198
  530MOL0     H71505   0.527   7.979  11.006  0.5995 -0.5111 -1.3639
  530MOL0     H71506   0.419   8.099  10.751 -1.4793 -1.7148 -0.1173
  530MOL0     H71507   0.555   7.990  10.770  1.1632 -0.3919  1.8005
  530MOL0     H71508   0.564   8.234  10.934 -0.4578  1.0820 -0.6378
  530MOL0     H71509   0.582   8.252  10.752 -0.1302 -0.6996 -1.3055
  530MOL0     H71510   0.711   8.185  10.597  0.4908  2.6846  1.0917
  530MOL0     H71511   0.873   8.117  10.442 -0.2550  1.1549 -0.4528
  530MOL0     H71512   1.142   7.760  10.314 -0.2784 -2.3164 -3.6484
  530MOL0     H71513   1.334   7.673  10.165 -1.9008  0.1027 -1.7917
  530MOL0     H71514   1.535   7.677   9.872  0.2776  0.8104 -0.3153
  530MOL0     H71515   1.391   7.644   9.944 -2.5658  1.0313 -0.8741
  530MOL0     H71516   1.318   7.897   9.862  1.3308 -1.3048  3.4497
  530MOL0     H71517   1.455   7.886   9.762 -0.4257  1.6752  0.5434
  530MOL0     H71518   1.388   7.681   9.652  2.3155  1.4604  1.3012
  530MOL0     H71519   1.227   7.680   9.738 -2.7200  4.1900  0.1250
  530MOL0     H71520   1.178   7.903   9.650 -0.6007 -0.0542  0.7165
  530MOL0     H71521   1.195   7.768   9.533 -0.4056 -1.4424  3.4354
  530MOL0     H71522   1.429   7.840   9.487 -0.8487 -0.6435 -0.8853
  530MOL0     H71523   1.412   7.990   9.577  0.7411  1.1282 -1.2183
  530MOL0     H71524   1.296   7.901   9.312 -0.2624  4.8446 -6.3724
  530MOL0     H71525   1.202   8.012   9.403  0.4929  0.7881 -2.1148
  530MOL0     H71526   1.497   8.061   9.318 -1.3349 -2.5404 -3.8710
  530MOL0     H71527   1.369   8.167   9.399 -2.6545  1.6006 -3.5800
  530MOL0     H71528   1.241   8.157   9.194 -0.5297  1.1470  0.4097
  530MOL0     H71529   1.408   8.208   9.162 -0.2258  0.7874  1.9669
  530MOL0     H71530   1.449   8.065  10.077  0.5300  0.1636  0.3971
  530MOL0     H71531   1.265   8.165  10.194  3.2118  0.4964 -2.0905
  530MOL0     H71532   1.125   7.977  10.771  0.8720  0.1324 -2.4635
  530MOL0     H71533   0.945   8.035  10.920 -0.4624  2.7759  0.1251
  530MOL0     H71534   0.739   7.864   9.822  0.2000  1.5533 -0.7820
  530MOL0     H71535   0.698   7.853   9.567 -1.2021  3.7109  0.2034
  530MOL0     H71536   0.492   7.644   9.243  0.4921 -0.1658  0.7357
  530MOL0     H71537   0.459   7.593   9.007  2.8173 -0.2173 -0.8861
  530MOL0     H71538   0.195   7.855   8.855 -1.3637 -1.1025 -0.2935
  530MOL0     H71539   0.221   7.690   8.886 -1.8450  0.6991 -0.1326
  530MOL0     H71540   0.227   7.817   8.600 -2.6948  1.4623  0.5899
  530MOL0     H71541   0.083   7.761   8.684 -0.1590  1.5409 -1.8679
  530MOL0     H71542   0.136   7.588   8.548 -1.1555  3.1003 -1.0541
  530MOL0     H71543   0.176   7.533   8.701 -2.1432 -0.0359 -1.3573
  530MOL0     H71544   0.431   7.597   8.645  1.7246  0.8759 -2.9122
  530MOL0     H71545   0.353   7.467   8.578  2.8856 -0.1080 -0.1055
  530MOL0     H71546   0.431   7.718   8.237 -1.1226  0.8471  1.5062
  530MOL0     H71547   0.458   8.026   8.907  3.5718  0.4073 -0.8782
  530MOL0     H71548   0.646   8.125   9.073  1.5374 -0.6279  1.3718
  530MOL0     H71549   0.475   8.169   9.056 -3.4440 -2.3537  1.2143
  530MOL0     H71550   0.555   8.161   9.213  1.5292  1.7088 -0.6709
  531MOL0     O71551   6.559   2.794   4.489 -0.1963 -1.0521  0.1739
  531MOL0     C71552   6.634   2.800   4.583 -0.0195  0.9035  0.3494
  531MOL0     O71553   6.663   2.914   4.658 -0.4861 -0.0382  0.3468
  531MOL0     C71554   6.595   3.033   4.623  0.2157  1.5050  0.0930
  531MOL0     C71555   6.669   3.151   4.603 -0.6800  0.4775  0.6256
  531MOL0     C71556   6.606   3.268   4.559  0.5400 -0.2102  0.2462
  531MOL0     C71557   6.468   3.281   4.553  0.2246  1.3064 -0.2425
  531MOL0     O71558   6.408   3.396   4.521 -0.3203 -0.3220  0.3744
  531MOL0     C71559   6.445   3.446   4.391  0.3391 -0.2186  0.9708
  531MOL0     C71560   6.485   3.589   4.420  0.2331  0.1631  0.1938
  531MOL0     C71561   6.521   3.684   4.302 -0.0476 -0.1561  0.5363
  531MOL0     C71562   6.666   3.656   4.245  0.3523  0.3010  0.1383
  531MOL0     C71563   6.781   3.702   4.336 -0.3608 -1.4929 -0.6657
  531MOL0     C71564   6.902   3.768   4.251 -0.1417 -0.1434 -0.2851
  531MOL0     C71565   7.033   3.771   4.313 -0.6274  0.4206  0.3437
  531MOL0     C71566   7.042   3.859   4.442  0.1542 -0.5147  0.2321
  531MOL0     N71567   7.046   4.004   4.412 -0.4035 -0.6285 -0.9681
  531MOL0     C71568   7.151   4.074   4.349  0.7427  1.1015  0.8477
  531MOL0     C71569   7.116   4.197   4.360 -0.6345 -0.8527 -0.3113
  531MOL0     C71570   7.193   4.308   4.280  0.1065  0.2853 -0.4089
  531MOL0     C71571   7.164   4.453   4.318  1.3611  1.1297  0.0196
  531MOL0     C71572   7.020   4.473   4.245 -0.1816 -0.5970  0.4145
  531MOL0     C71573   6.918   4.530   4.347 -1.1365  0.2498 -0.0334
  531MOL0     O71574   6.937   4.676   4.349  0.5012  1.0121  0.1473
  531MOL0     C71575   6.906   4.749   4.242  0.0433  0.4831 -0.3717
  531MOL0     C71576   6.965   4.865   4.205  0.8651  0.1940  0.3536
  531MOL0     C71577   6.930   4.943   4.093 -0.2290  0.2885 -0.5758
  531MOL0     C71578   6.814   4.927   4.017  0.7915  0.1400  0.4398
  531MOL0     C71579   6.784   5.026   3.913  0.0919 -0.4901 -0.7901
  531MOL0     O71580   6.821   5.152   3.933 -0.8374  0.4198 -1.2647
  531MOL0     C71581   6.761   5.257   3.869  0.6742 -0.1462  0.1634
  531MOL0     C71582   6.648   5.316   3.927  0.6129 -0.2929 -1.4606
  531MOL0     C71583   6.580   5.417   3.859  0.4816 -0.6210 -0.2657
  531MOL0     C71584   6.624   5.453   3.734 -0.4002 -0.4401  0.7441
  531MOL0     O71585   6.548   5.535   3.664  0.4558 -0.5178  0.2810
  531MOL0     C71586   6.606   5.667   3.629 -0.9818 -0.2861 -0.3530
  531MOL0     C71587   6.496   5.756   3.573 -0.3011 -0.8609  0.3167
  531MOL0     C71588   6.396   5.779   3.687 -0.4108  0.2133  0.3004
  531MOL0     C71589   6.255   5.827   3.642  0.5431  0.2073  0.2480
  531MOL0     C71590   6.164   5.880   3.755  0.2702  0.4679  0.3556
  531MOL0     C71591   6.098   5.767   3.827 -0.3336  0.7163  0.4370
  531MOL0     C71592   6.055   5.823   3.963  0.0381 -0.7961  0.9136
  531MOL0     C71593   5.979   5.716   4.043  0.3026  0.6223 -0.7813
  531MOL0    Cl71594   5.850   5.662   3.933 -0.4155  0.1055 -0.2166
  531MOL0     C71595   6.745   5.403   3.679 -0.5253  0.0435  0.3703
  531MOL0     C71596   6.813   5.303   3.749 -0.0990 -1.0610 -1.0497
  531MOL0     O71597   6.720   4.985   3.817 -0.1839 -0.5452  0.9571
  531MOL0     C71598   6.743   4.814   4.053  0.4789 -0.0119  1.2129
  531MOL0     C71599   6.789   4.728   4.157  0.7713  1.5792 -0.5233
  531MOL0     N71600   6.991   4.212   4.433 -0.6127 -0.5147  0.8795
  531MOL0     N71601   6.943   4.094   4.456 -0.5849  0.6551  0.3441
  531MOL0     C71602   6.392   3.167   4.587 -0.6592  0.2655  0.3434
  531MOL0     C71603   6.454   3.039   4.616 -0.2008 -1.0327 -1.0056
  531MOL0     C71604   6.685   2.672   4.630  0.1940  1.9204  0.4808
  531MOL0     C71605   6.735   2.667   4.763  0.3328  0.3907 -0.4369
  531MOL0     C71606   6.794   2.553   4.812 -0.0402 -0.5833 -0.5225
  531MOL0     C71607   6.821   2.440   4.726  0.3977 -0.3734 -0.6617
  531MOL0     O71608   6.891   2.322   4.759  1.1021 -1.2933  1.0397
  531MOL0     C71609   6.853   2.270   4.886 -0.7440  0.0845  0.2584
  531MOL0     C71610   6.967   2.200   4.959  0.1652  0.0012  0.0999
  531MOL0     C71611   7.024   2.080   4.879 -0.1951 -0.6331  0.5817
  531MOL0     C71612   7.177   2.038   4.911 -0.0318 -1.3600 -0.3188
  531MOL0     C71613   7.192   2.042   5.058  0.0511  1.1023  0.2942
  531MOL0     C71614   7.216   2.052   5.178  1.0248 -0.2954  0.3806
  531MOL0     C71615   6.774   2.443   4.601  0.5735 -0.3024 -0.5045
  531MOL0     C71616   6.704   2.552   4.550 -0.2204 -0.2606 -0.4437
  531MOL0     C71617   6.656   2.538   4.407 -0.3354 -0.1368  0.6303
  531MOL0     H71618   6.776   3.168   4.608 -0.7428  0.4915  2.7721
  531MOL0     H71619   6.666   3.354   4.532  2.1615 -1.0856  0.9332
  531MOL0     H71620   6.528   3.391   4.345 -0.6890 -2.8352  2.0595
  531MOL0     H71621   6.352   3.437   4.333 -0.6775  2.2877  2.0642
  531MOL0     H71622   6.572   3.572   4.483  2.3714 -4.2329 -3.3334
  531MOL0     H71623   6.416   3.639   4.488  2.6484 -2.8910  5.4351
  531MOL0     H71624   6.511   3.788   4.332  1.9949  1.5797 -3.9020
  531MOL0     H71625   6.461   3.660   4.213 -0.5366 -0.0216  0.8256
  531MOL0     H71626   6.690   3.555   4.212  1.9122  0.7528 -0.2299
  531MOL0     H71627   6.663   3.714   4.152 -0.0329  1.0953  0.6349
  531MOL0     H71628   6.739   3.770   4.411 -3.5451 -1.1996 -2.5506
  531MOL0     H71629   6.822   3.620   4.395  3.7861  0.6135 -0.2305
  531MOL0     H71630   6.908   3.716   4.155 -0.3670 -0.7770  0.0376
  531MOL0     H71631   6.873   3.873   4.244  2.1934  0.5620 -0.4350
  531MOL0     H71632   7.100   3.815   4.239 -0.9213  1.0075  0.4168
  531MOL0     H71633   7.063   3.670   4.343  3.3222  1.2086 -0.4238
  531MOL0     H71634   6.960   3.838   4.511 -0.5448  1.8613  0.1922
  531MOL0     H71635   7.136   3.839   4.496 -0.4854 -1.6059  0.9833
  531MOL0     H71636   7.239   4.035   4.299 -0.5660 -0.2588 -0.5008
  531MOL0     H71637   7.301   4.291   4.282  0.2212  0.9188  1.9839
  531MOL0     H71638   7.161   4.294   4.176 -1.7029  2.6260 -0.2752
  531MOL0     H71639   7.165   4.470   4.426 -1.1404  2.0887 -0.0487
  531MOL0     H71640   7.238   4.527   4.285 -0.4192  3.6224  1.3181
  531MOL0     H71641   6.978   4.380   4.206  0.0034  0.2570 -2.0480
  531MOL0     H71642   7.035   4.542   4.161 -1.6556 -0.3284  0.3553
  531MOL0     H71643   6.939   4.484   4.444 -0.0983  4.1371  1.7874
  531MOL0     H71644   6.811   4.508   4.341 -0.7465 -2.8623  2.2090
  531MOL0     H71645   7.057   4.879   4.261 -0.0801 -0.2683  2.0532
  531MOL0     H71646   6.998   5.021   4.063  0.6403  0.2997  1.3222
  531MOL0     H71647   6.608   5.278   4.021  0.9481  0.8192 -0.8503
  531MOL0     H71648   6.495   5.461   3.911  1.3942 -3.3106  4.1008
  531MOL0     H71649   6.668   5.698   3.713  0.3857 -1.2920 -0.9522
  531MOL0     H71650   6.683   5.654   3.551  1.2896  2.2627  1.2866
  531MOL0     H71651   6.536   5.851   3.537 -0.4428 -1.1987 -0.7736
  531MOL0     H71652   6.447   5.698   3.493 -0.9233  0.7561 -0.5104
  531MOL0     H71653   6.376   5.689   3.745  2.3461  0.5178  1.9167
  531MOL0     H71654   6.441   5.852   3.755  0.2949  0.1563 -0.0875
  531MOL0     H71655   6.198   5.742   3.604 -0.9558  0.2939  2.1459
  531MOL0     H71656   6.271   5.902   3.564  4.2621 -0.2137  0.4054
  531MOL0     H71657   6.078   5.937   3.717 -0.5602 -0.9673 -0.0273
  531MOL0     H71658   6.224   5.930   3.831  2.0088  1.9764 -1.8825
  531MOL0     H71659   6.019   5.729   3.761  0.4104  0.6974 -0.4769
  531MOL0     H71660   6.167   5.686   3.850  0.3204  1.6657  1.9583
  531MOL0     H71661   5.991   5.904   3.930 -0.6487 -0.9544  1.8094
  531MOL0     H71662   6.139   5.862   4.021 -0.1665 -0.1982  0.8112
  531MOL0     H71663   6.047   5.633   4.066  0.6913  1.0736 -0.2663
  531MOL0     H71664   5.950   5.769   4.134  1.1436  2.0638 -1.3116
  531MOL0     H71665   6.784   5.436   3.583  2.9419 -0.3796  1.4915
  531MOL0     H71666   6.908   5.265   3.713  0.8453  0.3430 -0.1436
  531MOL0     H71667   6.657   4.783   3.994 -0.9125  2.4852  1.8064
  531MOL0     H71668   6.745   4.630   4.174 -0.0614  1.7384 -1.6212
  531MOL0     H71669   6.284   3.176   4.580 -0.9575 -1.2380  2.2589
  531MOL0     H71670   6.383   2.960   4.641 -0.9542  0.0718  0.4605
  531MOL0     H71671   6.712   2.754   4.823 -0.5902  1.5959 -2.4614
  531MOL0     H71672   6.832   2.549   4.914  1.0936 -0.2144 -0.9079
  531MOL0     H71673   6.776   2.201   4.851  0.2241 -0.7612 -0.2709
  531MOL0     H71674   6.822   2.346   4.958 -0.4200 -0.9575  1.5491
  531MOL0     H71675   6.914   2.170   5.049 -0.8456  1.2296 -0.0604
  531MOL0     H71676   7.039   2.279   4.981 -0.5452 -0.0679  3.0414
  531MOL0     H71677   7.016   2.090   4.770  3.4718 -1.1121  0.1146
  531MOL0     H71678   6.961   1.993   4.899 -1.0570 -0.4944 -1.2689
  531MOL0     H71679   7.199   1.939   4.870 -2.9394 -0.7241 -3.9736
  531MOL0     H71680   7.241   2.115   4.868 -3.7960  3.6647  1.9834
  531MOL0     H71681   7.235   2.046   5.284  1.4859  2.4312  0.5151
  531MOL0     H71682   6.776   2.363   4.528 -4.4467 -0.5656 -0.7392
  531MOL0     H71683   6.681   2.622   4.341 -0.9878 -1.3377 -1.2446
  531MOL0     H71684   6.675   2.444   4.355 -3.9093 -1.1450  0.8760
  531MOL0     H71685   6.547   2.541   4.410 -0.3166  1.0621  0.6449
  532MOL0     O71686   8.340   3.347   0.504 -0.0683 -0.6512  0.4539
  532MOL0     C71687   8.343   3.475   0.512  0.3606 -0.5691 -1.1408
  532MOL0     O71688   8.254   3.552   0.593 -0.4709  0.7569  0.4271
  532MOL0     C71689   8.145   3.506   0.658 -0.5921 -0.3558 -0.4350
  532MOL0     C71690   8.073   3.400   0.614 -0.0773 -0.9787  0.7792
  532MOL0     C71691   7.957   3.352   0.671  0.9485  0.4035  0.3005
  532MOL0     C71692   7.912   3.419   0.783  0.5984  0.3017 -0.5916
  532MOL0     O71693   7.793   3.393   0.842 -0.1450  0.4351  0.3930
  532MOL0     C71694   7.777   3.255   0.879 -0.2380 -1.9353 -0.4698
  532MOL0     C71695   7.696   3.250   0.998 -0.2011  0.0112 -0.0987
  532MOL0     C71696   7.652   3.115   1.027 -0.5570 -0.4717  0.8024
  532MOL0     C71697   7.560   3.100   1.148 -0.0735  0.3914  0.4958
  532MOL0     C71698   7.482   2.969   1.157 -0.3026  0.0184 -0.3191
  532MOL0     C71699   7.566   2.837   1.168 -0.0113 -0.7474 -0.2608
  532MOL0     C71700   7.470   2.718   1.174  1.3168  1.3359  0.2121
  532MOL0     C71701   7.372   2.702   1.305  0.0086  1.0685 -0.0450
  532MOL0     N71702   7.282   2.592   1.293  0.4176  0.4586  0.8815
  532MOL0     C71703   7.163   2.591   1.363 -0.3525 -0.0622 -0.1376
  532MOL0     C71704   7.108   2.464   1.345  0.6658 -0.3390 -0.0035
  532MOL0     C71705   6.982   2.424   1.417 -0.4254  0.6203 -0.6248
  532MOL0     C71706   7.009   2.294   1.486  0.0114  0.4400  0.1669
  532MOL0     C71707   6.892   2.282   1.585  1.1020 -0.2243  0.2740
  532MOL0     C71708   6.887   2.167   1.683 -0.1048  1.2251  0.4697
  532MOL0     O71709   6.774   2.163   1.770  0.7181 -0.6117 -0.2621
  532MOL0     C71710   6.809   2.089   1.884  0.8566 -0.1676  0.2168
  532MOL0     C71711   6.901   2.134   1.983  0.0323 -0.0727 -0.1148
  532MOL0     C71712   6.942   2.044   2.094  0.6171  0.6111  0.1454
  532MOL0     C71713   6.886   1.913   2.094  0.3456 -0.2324 -0.2995
  532MOL0     C71714   6.908   1.826   2.211 -0.0490 -0.7484 -0.2301
  532MOL0     O71715   6.884   1.701   2.196 -0.6868  0.3103  0.9203
  532MOL0     C71716   6.876   1.611   2.301 -0.2114 -0.0237  0.2151
  532MOL0     C71717   6.861   1.480   2.258 -0.2271  0.0853  0.5622
  532MOL0     C71718   6.854   1.369   2.348  0.5840  0.2074  0.2768
  532MOL0     C71719   6.867   1.397   2.485 -0.3758  0.2267 -1.3315
  532MOL0     O71720   6.878   1.303   2.582  0.2159  0.6542 -0.3237
  532MOL0     C71721   6.815   1.178   2.556 -0.2069  1.1452 -0.3653
  532MOL0     C71722   6.773   1.099   2.683  0.1565 -0.2492 -0.0376
  532MOL0     C71723   6.896   1.051   2.763 -0.2605 -0.3325  0.0021
  532MOL0     C71724   6.993   1.153   2.838  0.2606 -0.6716  0.0903
  532MOL0     C71725   7.129   1.162   2.777  1.0468 -0.5159  0.4561
  532MOL0     C71726   7.231   1.056   2.801 -0.5952 -0.3340 -0.1380
  532MOL0     C71727   7.299   1.071   2.946  0.1181 -0.1272 -0.1814
  532MOL0     C71728   7.405   0.965   2.954  0.0992 -0.7085  0.3550
  532MOL0    Cl71729   7.513   0.965   2.809  0.0048  0.2786 -0.0911
  532MOL0     C71730   6.874   1.527   2.531 -0.6572 -0.7570  1.1982
  532MOL0     C71731   6.877   1.637   2.442  0.5621 -0.1272  0.0536
  532MOL0     O71732   6.954   1.882   2.312  0.4060  0.3193 -0.0209
  532MOL0     C71733   6.807   1.867   1.995 -0.4868 -0.1106 -0.6000
  532MOL0     C71734   6.770   1.951   1.886 -0.1876  0.2848 -0.1150
  532MOL0     N71735   7.206   2.387   1.280  0.3603  0.0759 -0.1040
  532MOL0     N71736   7.310   2.459   1.257 -0.6113 -0.5933  1.3162
  532MOL0     C71737   7.973   3.526   0.833  0.0208 -0.0188  0.9396
  532MOL0     C71738   8.085   3.574   0.765  1.2062  0.0732  0.3179
  532MOL0     C71739   8.430   3.549   0.418  0.3080  0.3274  0.3302
  532MOL0     C71740   8.518   3.470   0.329 -0.4624  0.1257 -0.6961
  532MOL0     C71741   8.619   3.524   0.259 -0.7645 -0.4683 -0.2349
  532MOL0     C71742   8.636   3.659   0.251  0.0911 -1.8661 -0.8883
  532MOL0     O71743   8.738   3.713   0.168  0.1117  0.4033 -0.7767
  532MOL0     C71744   8.788   3.632   0.062 -0.5399  0.1498 -0.4993
  532MOL0     C71745   8.890   3.695  -0.030 -0.6417  0.2729  0.3128
  532MOL0     C71746   8.829   3.809  -0.103 -0.1806 -0.5605  0.0829
  532MOL0     C71747   8.904   3.863  -0.215  1.3234 -0.0150  0.2500
  532MOL0     C71748   9.032   3.911  -0.185 -0.1920  0.9259  0.0322
  532MOL0     C71749   9.144   3.938  -0.152  0.3008  0.6376  0.6070
  532MOL0     C71750   8.542   3.740   0.315 -0.2787 -1.1994  0.1216
  532MOL0     C71751   8.443   3.693   0.402 -0.2445  0.7357 -0.1994
  532MOL0     C71752   8.349   3.795   0.454  0.1863 -0.8537  0.2008
  532MOL0     H71753   8.104   3.348   0.524  0.5074 -2.0927  1.5814
  532MOL0     H71754   7.900   3.271   0.625  0.4559 -0.1811  1.8820
  532MOL0     H71755   7.713   3.205   0.806 -1.6866 -2.7311  1.2812
  532MOL0     H71756   7.872   3.203   0.895  1.3029  0.0669 -2.4711
  532MOL0     H71757   7.610   3.314   0.977  0.8989  0.8345 -2.5642
  532MOL0     H71758   7.747   3.297   1.083 -1.2414  1.5154 -0.2645
  532MOL0     H71759   7.742   3.054   1.031 -0.4639 -0.7528 -2.6509
  532MOL0     H71760   7.594   3.077   0.942  0.6907 -0.5594 -0.0377
  532MOL0     H71761   7.629   3.101   1.233  2.8172 -0.1927 -1.6980
  532MOL0     H71762   7.494   3.186   1.163 -0.7796 -0.2850  1.4211
  532MOL0     H71763   7.403   2.981   1.232  0.8248  0.5272  0.8115
  532MOL0     H71764   7.436   2.957   1.058  0.7607  4.4869 -1.5541
  532MOL0     H71765   7.638   2.833   1.086  1.2066  0.6143  0.6863
  532MOL0     H71766   7.620   2.836   1.263  0.9920  1.9863 -0.6991
  532MOL0     H71767   7.533   2.629   1.161  0.1112  0.6819 -1.4948
  532MOL0     H71768   7.407   2.720   1.085  1.5139  0.9804  0.0606
  532MOL0     H71769   7.434   2.680   1.393  2.6572 -0.2294 -2.0821
  532MOL0     H71770   7.314   2.794   1.318  1.7218  2.1132  0.5543
  532MOL0     H71771   7.112   2.671   1.416 -0.9230  1.4408 -2.7847
  532MOL0     H71772   6.950   2.501   1.488  0.4830  0.2364  0.2395
  532MOL0     H71773   6.905   2.396   1.345  2.3722 -4.5206 -2.1820
  532MOL0     H71774   6.999   2.214   1.412 -0.1972  0.1804  0.4751
  532MOL0     H71775   7.104   2.288   1.541  1.3158 -2.0252 -2.0944
  532MOL0     H71776   6.796   2.282   1.532  1.8571 -0.9952 -1.1558
  532MOL0     H71777   6.896   2.376   1.641  1.7476  0.3595 -0.7266
  532MOL0     H71778   6.978   2.169   1.743 -0.6874  1.3353  1.3706
  532MOL0     H71779   6.897   2.072   1.630  1.2094  1.8928 -0.5462
  532MOL0     H71780   6.951   2.230   1.973 -0.5221  0.0991 -1.5591
  532MOL0     H71781   6.989   2.080   2.184 -1.5179  1.8201  0.8539
  532MOL0     H71782   6.857   1.457   2.152 -4.5624 -1.4920  0.9018
  532MOL0     H71783   6.841   1.269   2.306  0.6989 -0.1569  1.0888
  532MOL0     H71784   6.722   1.185   2.499 -0.2431 -0.0978 -0.4871
  532MOL0     H71785   6.885   1.117   2.497 -0.9300  0.8391 -0.9254
  532MOL0     H71786   6.716   1.154   2.758 -1.2107 -2.4558  0.6269
  532MOL0     H71787   6.712   1.014   2.654  1.5274 -1.6566  1.0072
  532MOL0     H71788   6.844   0.983   2.831 -0.2910 -0.6393 -0.3211
  532MOL0     H71789   6.959   0.994   2.694  4.0256  1.9748  1.6517
  532MOL0     H71790   6.999   1.136   2.945 -1.1240 -1.5334  0.0555
  532MOL0     H71791   6.939   1.248   2.828 -0.9648 -0.7712  4.0718
  532MOL0     H71792   7.173   1.259   2.801  1.6581 -0.4680 -0.7844
  532MOL0     H71793   7.116   1.159   2.668 -0.3770  0.1731  0.5782
  532MOL0     H71794   7.185   0.957   2.802  1.1340 -1.1956 -1.0981
  532MOL0     H71795   7.311   1.064   2.726  0.1170 -0.2325  0.6160
  532MOL0     H71796   7.227   1.035   3.020 -0.5230 -4.3295 -2.4957
  532MOL0     H71797   7.338   1.173   2.952  0.9521 -0.1439 -3.4592
  532MOL0     H71798   7.474   0.976   3.039  1.0674 -1.2314 -0.3374
  532MOL0     H71799   7.364   0.864   2.949 -3.7654  0.7540 -1.1034
  532MOL0     H71800   6.887   1.538   2.638  4.5520  1.8293  0.5990
  532MOL0     H71801   6.889   1.734   2.488  2.3970 -1.9549  3.9023
  532MOL0     H71802   6.772   1.765   2.005  1.3912 -0.6640  0.9595
  532MOL0     H71803   6.698   1.914   1.814  0.6624 -0.2935 -0.6933
  532MOL0     H71804   7.926   3.595   0.902  2.5732  2.8268  0.0447
  532MOL0     H71805   8.134   3.668   0.787 -1.3899  1.2358  1.6192
  532MOL0     H71806   8.513   3.362   0.334 -0.4564  0.1741  1.1283
  532MOL0     H71807   8.677   3.460   0.193  0.0621  0.5486 -0.5276
  532MOL0     H71808   8.707   3.586   0.005 -0.5652  1.6027 -1.7005
  532MOL0     H71809   8.839   3.543   0.101 -0.1332  0.1561 -1.0150
  532MOL0     H71810   8.929   3.617  -0.096 -0.8947  1.5181 -1.3557
  532MOL0     H71811   8.976   3.721   0.033 -0.9308 -3.4513  2.5816
  532MOL0     H71812   8.808   3.885  -0.027 -0.8379 -1.9915  1.3850
  532MOL0     H71813   8.733   3.778  -0.147  1.1762 -4.9734 -0.2513
  532MOL0     H71814   8.916   3.776  -0.280  1.0748  1.2749 -1.6287
  532MOL0     H71815   8.846   3.943  -0.263  0.3786  0.7724  2.5519
  532MOL0     H71816   9.243   3.952  -0.114 -0.3422  1.9200  1.9398
  532MOL0     H71817   8.560   3.847   0.310 -1.7619 -0.9166  0.3785
  532MOL0     H71818   8.359   3.893   0.407 -2.1452 -1.0507 -0.8377
  532MOL0     H71819   8.249   3.756   0.432 -1.8291 -0.6762  6.8042
  532MOL0     H71820   8.345   3.809   0.562  4.0482  1.1854  0.2263
  533MOL0     O71821   1.127   3.943   9.312 -0.1755 -0.2535 -0.1579
  533MOL0     C71822   1.175   3.890   9.410  0.2003  0.0132 -0.2523
  533MOL0     O71823   1.232   3.957   9.516  0.1809 -0.5410 -0.0574
  533MOL0     C71824   1.230   4.091   9.526  0.2929 -0.2632  0.3987
  533MOL0     C71825   1.196   4.163   9.645  0.9996  0.7431 -0.8059
  533MOL0     C71826   1.223   4.301   9.659 -0.4402  0.2658  0.1667
  533MOL0     C71827   1.286   4.372   9.553 -0.1767 -0.2479  0.4247
  533MOL0     O71828   1.315   4.509   9.563 -0.4196  0.4323  0.2344
  533MOL0     C71829   1.368   4.590   9.455 -0.0379  0.3931  0.0099
  533MOL0     C71830   1.378   4.737   9.522  0.0578 -0.1068  0.6755
  533MOL0     C71831   1.453   4.832   9.433 -0.6166 -0.0345 -0.4298
  533MOL0     C71832   1.597   4.815   9.440 -1.1138 -0.4977  0.6481
  533MOL0     C71833   1.664   4.901   9.329  0.3385 -0.3356 -0.6231
  533MOL0     C71834   1.657   5.054   9.346  0.4256 -0.1677  0.1461
  533MOL0     C71835   1.764   5.126   9.249 -0.5981  0.4164  0.9486
  533MOL0     C71836   1.743   5.272   9.276  0.4017 -0.6324  0.0682
  533MOL0     N71837   1.680   5.339   9.161 -0.3753  0.2974 -0.1371
  533MOL0     C71838   1.747   5.389   9.052  0.2497 -0.1365 -0.8662
  533MOL0     C71839   1.645   5.410   8.965 -0.2542 -0.0084 -0.0366
  533MOL0     C71840   1.645   5.440   8.820  0.2938 -0.1393  0.1349
  533MOL0     C71841   1.678   5.581   8.768  0.2608  0.2592 -0.2993
  533MOL0     C71842   1.597   5.697   8.831 -0.1566  0.2550 -0.0345
  533MOL0     C71843   1.442   5.692   8.815 -0.1922 -0.4980 -0.2209
  533MOL0     O71844   1.381   5.794   8.893  0.4313 -0.2007 -0.9341
  533MOL0     C71845   1.401   5.930   8.863  0.2926  0.1041 -0.4053
  533MOL0     C71846   1.485   5.990   8.771 -0.5984 -0.6079  0.0075
  533MOL0     C71847   1.506   6.130   8.760  0.2411 -0.2907  0.7413
  533MOL0     C71848   1.424   6.211   8.825  0.3866  0.1711 -0.5325
  533MOL0     C71849   1.447   6.355   8.815 -0.0655  1.0113 -0.0766
  533MOL0     O71850   1.353   6.433   8.876 -0.1151  0.4905  0.1860
  533MOL0     C71851   1.383   6.572   8.894  0.2014  0.6202 -0.2800
  533MOL0     C71852   1.486   6.603   8.990  0.1559 -0.1347  1.3084
  533MOL0     C71853   1.522   6.745   9.020 -0.2683 -0.3811  0.1226
  533MOL0     C71854   1.444   6.841   8.949  0.2596 -0.2326  0.3130
  533MOL0     O71855   1.471   6.969   8.995  0.5423 -0.0194  0.2842
  533MOL0     C71856   1.416   7.084   8.920  0.8211  0.0621  0.0637
  533MOL0     C71857   1.459   7.221   8.967  0.0763  0.0788 -0.7309
  533MOL0     C71858   1.609   7.234   8.969 -0.3668  0.0777  0.5973
  533MOL0     C71859   1.649   7.381   8.955 -0.0686 -0.4741 -0.2982
  533MOL0     C71860   1.797   7.402   8.966  0.8091 -0.1873  0.8995
  533MOL0     C71861   1.885   7.386   8.841  0.1884 -0.4744 -0.9349
  533MOL0     C71862   2.028   7.404   8.886  0.9861  0.5927 -0.5618
  533MOL0     C71863   2.067   7.558   8.901 -0.3255 -0.4417  0.4198
  533MOL0    Cl71864   2.213   7.550   9.002  0.1469 -0.0054  0.1055
  533MOL0     C71865   1.356   6.801   8.844 -0.2637 -0.3279  0.9247
  533MOL0     C71866   1.323   6.671   8.820 -0.1306  0.3389  0.2425
  533MOL0     O71867   1.549   6.396   8.758  0.0293 -0.3699 -0.6632
  533MOL0     C71868   1.320   6.154   8.904  0.2494  0.0952 -0.1724
  533MOL0     C71869   1.313   6.015   8.930 -0.2796 -0.0517 -1.0035
  533MOL0     N71870   1.519   5.378   9.016 -0.2469 -0.3540 -0.3903
  533MOL0     N71871   1.543   5.330   9.128 -0.3965 -0.6105 -1.2631
  533MOL0     C71872   1.327   4.308   9.435  0.0312  1.1421 -0.3922
  533MOL0     C71873   1.302   4.166   9.428 -0.7277  0.5098  0.7627
  533MOL0     C71874   1.163   3.743   9.417 -0.2463  0.0993 -0.6342
  533MOL0     C71875   1.123   3.685   9.542  0.1352  0.1102  0.1889
  533MOL0     C71876   1.108   3.543   9.567 -0.6497  0.5934  0.0149
  533MOL0     C71877   1.137   3.460   9.458 -0.6103 -0.1652 -0.1384
  533MOL0     O71878   1.102   3.330   9.473  0.0677 -0.6599 -0.1048
  533MOL0     C71879   1.148   3.229   9.372 -0.5243 -1.6471 -0.4879
  533MOL0     C71880   1.118   3.085   9.427 -0.6181  0.8376 -0.2551
  533MOL0     C71881   1.192   3.059   9.567 -0.2895 -0.9890 -0.7414
  533MOL0     C71882   1.340   3.070   9.559 -0.0460  0.4736 -0.2828
  533MOL0     C71883   1.405   2.982   9.452 -0.4535  0.2472 -0.4358
  533MOL0     C71884   1.465   2.913   9.372  0.4770  0.3116  0.6454
  533MOL0     C71885   1.181   3.519   9.339  0.1902 -0.9721 -0.0961
  533MOL0     C71886   1.197   3.654   9.319  0.2811 -0.2887  0.4169
  533MOL0     C71887   1.240   3.698   9.183  0.3980  0.1177  0.9565
  533MOL0     H71888   1.131   4.110   9.714 -1.8795 -0.9883 -4.4318
  533MOL0     H71889   1.178   4.355   9.742  0.8754  3.0130 -0.8031
  533MOL0     H71890   1.470   4.561   9.428 -0.9729 -2.0004 -1.2986
  533MOL0     H71891   1.303   4.590   9.367  0.9101  2.9024 -0.7691
  533MOL0     H71892   1.425   4.721   9.619 -0.0239 -2.0948  0.4338
  533MOL0     H71893   1.278   4.781   9.529  1.0900  2.9444 -1.3343
  533MOL0     H71894   1.430   4.935   9.463  2.1108 -0.0322  2.0696
  533MOL0     H71895   1.409   4.813   9.335 -1.2812 -0.0509 -0.1388
  533MOL0     H71896   1.622   4.846   9.541 -0.1175 -0.1575  0.3085
  533MOL0     H71897   1.628   4.711   9.425 -3.6426 -1.1654 -0.4502
  533MOL0     H71898   1.770   4.874   9.340  0.3332  0.1616  1.0674
  533MOL0     H71899   1.629   4.868   9.232 -2.6166  2.7269 -0.7604
  533MOL0     H71900   1.561   5.102   9.328  1.7091  2.5848  0.1952
  533MOL0     H71901   1.675   5.072   9.452  0.0613 -0.0350  0.1866
  533MOL0     H71902   1.733   5.098   9.148  0.8739 -0.8276  0.7969
  533MOL0     H71903   1.868   5.095   9.263 -0.1220  2.4314  2.2137
  533MOL0     H71904   1.685   5.291   9.366 -0.6828  0.8384 -0.8812
  533MOL0     H71905   1.841   5.318   9.291  0.6066 -1.7925  2.9862
  533MOL0     H71906   1.855   5.406   9.047  0.1664  0.7896  0.0067
  533MOL0     H71907   1.721   5.379   8.771  1.5341  0.6432  1.0080
  533MOL0     H71908   1.547   5.427   8.774 -1.2374 -1.6413  3.5174
  533MOL0     H71909   1.783   5.593   8.797  0.2238 -0.0264 -0.0431
  533MOL0     H71910   1.674   5.600   8.660 -0.0195 -0.0187 -0.3404
  533MOL0     H71911   1.648   5.780   8.782  0.3150 -2.0048 -3.7291
  533MOL0     H71912   1.612   5.676   8.937 -0.4905 -3.2688 -0.5792
  533MOL0     H71913   1.395   5.600   8.851 -1.7454  0.8741  1.4761
  533MOL0     H71914   1.416   5.703   8.710  0.3298 -0.9632 -0.4033
  533MOL0     H71915   1.549   5.935   8.702 -0.6669 -0.3075 -0.3011
  533MOL0     H71916   1.583   6.169   8.693  0.1920  0.1957  0.9695
  533MOL0     H71917   1.544   6.530   9.045 -0.9182 -2.0060  0.0808
  533MOL0     H71918   1.580   6.775   9.107  0.1844  0.8492 -0.5930
  533MOL0     H71919   1.463   7.082   8.821  2.5550  1.8055  0.7889
  533MOL0     H71920   1.308   7.065   8.920  0.9764 -0.9299 -1.0735
  533MOL0     H71921   1.421   7.290   8.891 -0.9798  0.1087 -0.1873
  533MOL0     H71922   1.429   7.259   9.065 -1.1319  2.5529 -1.9589
  533MOL0     H71923   1.640   7.199   9.068  0.2722  2.5869  1.3542
  533MOL0     H71924   1.669   7.178   8.897 -0.5064  0.2862  0.3168
  533MOL0     H71925   1.600   7.439   9.034  4.0540  3.5655 -0.3145
  533MOL0     H71926   1.608   7.419   8.861 -2.9844 -0.9096  0.6938
  533MOL0     H71927   1.836   7.332   9.041  0.2566  0.1663  1.5289
  533MOL0     H71928   1.801   7.505   9.001 -1.0553  0.0487  0.5718
  533MOL0     H71929   1.850   7.287   8.810 -1.1951 -1.3819  2.8952
  533MOL0     H71930   1.861   7.462   8.767  1.7198 -0.6851 -1.6718
  533MOL0     H71931   2.098   7.354   8.818  0.3464 -2.0045  0.5680
  533MOL0     H71932   2.035   7.358   8.985 -0.4551 -2.6675 -1.8323
  533MOL0     H71933   2.095   7.594   8.802  2.9101 -1.8325  0.6940
  533MOL0     H71934   1.985   7.626   8.924  1.1595  2.7332 -2.7968
  533MOL0     H71935   1.330   6.878   8.772  1.6323 -1.1356 -0.7606
  533MOL0     H71936   1.252   6.644   8.743  2.8407  1.6725 -3.2969
  533MOL0     H71937   1.254   6.227   8.951 -2.3933  0.4207 -3.9538
  533MOL0     H71938   1.241   5.968   8.997  0.6383 -3.5408 -2.2565
  533MOL0     H71939   1.376   4.360   9.354 -1.2898  0.7403 -1.4971
  533MOL0     H71940   1.326   4.121   9.332  0.1481  0.1251  1.1576
  533MOL0     H71941   1.097   3.753   9.623  0.2624 -0.0865  0.3968
  533MOL0     H71942   1.078   3.505   9.664 -0.3875  1.1061  0.3040
  533MOL0     H71943   1.252   3.242   9.339 -0.8535  1.8719 -0.4543
  533MOL0     H71944   1.092   3.253   9.281 -2.8021  0.8819  1.4224
  533MOL0     H71945   1.154   3.006   9.360 -0.4072  0.6657  0.0554
  533MOL0     H71946   1.010   3.076   9.441 -0.4895  1.5019  1.4075
  533MOL0     H71947   1.164   2.964   9.614 -0.5782 -0.6023 -0.1072
  533MOL0     H71948   1.145   3.131   9.634  0.8469 -3.7224  3.4353
  533MOL0     H71949   1.356   3.178   9.550 -4.0212  1.2458 -0.0013
  533MOL0     H71950   1.380   3.032   9.654 -3.1758  0.0909  0.9934
  533MOL0     H71951   1.524   2.865   9.296 -1.2896  1.5302 -1.6338
  533MOL0     H71952   1.189   3.452   9.255 -3.2124 -0.1980 -1.1942
  533MOL0     H71953   1.327   3.634   9.167  0.8758  0.7673  0.9233
  533MOL0     H71954   1.164   3.669   9.110 -1.3034  1.6809  2.0117
  533MOL0     H71955   1.272   3.802   9.174  2.8417 -0.6724 -0.5477
  534MOL0     O71956   6.546  11.499   2.224  0.8019 -0.2548  0.2563
  534MOL0     C71957   6.457  11.580   2.221  0.6624 -0.7944  0.6429
  534MOL0     O71958   6.344  11.574   2.159 -0.1317 -0.6291 -0.0713
  534MOL0     C71959   6.313  11.489   2.061  0.4116 -0.6030 -0.0464
  534MOL0     C71960   6.178  11.481   2.032  0.6378  1.0750 -0.1907
  534MOL0     C71961   6.134  11.383   1.950  0.4182 -0.7353 -0.3861
  534MOL0     C71962   6.226  11.307   1.874 -0.5620  0.9498 -0.2813
  534MOL0     O71963   6.160  11.229   1.775 -0.0110  0.5715 -1.2471
  534MOL0     C71964   6.243  11.139   1.707 -0.6243  1.3479  0.1263
  534MOL0     C71965   6.149  11.025   1.654 -0.5185 -0.3002 -0.3326
  534MOL0     C71966   6.071  11.054   1.519 -0.9139 -0.2861  0.5383
  534MOL0     C71967   6.014  10.932   1.461 -0.4816  0.5086 -0.7337
  534MOL0     C71968   5.913  10.962   1.353 -0.2063  0.4339 -0.0574
  534MOL0     C71969   5.954  11.053   1.243  0.2623 -0.2884  0.1917
  534MOL0     C71970   5.856  11.050   1.125  0.0603 -0.4749  0.9855
  534MOL0     C71971   5.725  11.120   1.143  0.0796 -0.0245  0.1814
  534MOL0     N71972   5.752  11.258   1.102 -0.2543 -0.5442  0.3497
  534MOL0     C71973   5.739  11.304   0.970 -0.6759 -0.1914 -0.3853
  534MOL0     C71974   5.728  11.440   0.980 -0.2108  1.1151  0.0814
  534MOL0     C71975   5.684  11.526   0.864  0.3670  0.5711 -0.1693
  534MOL0     C71976   5.546  11.494   0.805 -0.5968  0.4088  0.2615
  534MOL0     C71977   5.439  11.459   0.915  0.3876 -0.3491 -0.6504
  534MOL0     C71978   5.299  11.433   0.849 -0.7610 -0.0791 -0.1782
  534MOL0     O71979   5.196  11.456   0.952 -0.6626  0.6676 -0.8346
  534MOL0     C71980   5.072  11.513   0.925 -0.2298 -0.0272 -0.0799
  534MOL0     C71981   4.974  11.512   1.024  0.2730 -1.2704 -0.5575
  534MOL0     C71982   4.858  11.581   1.005 -0.0530 -0.7709  0.6513
  534MOL0     C71983   4.831  11.634   0.882 -0.4820 -0.4787  1.0192
  534MOL0     C71984   4.699  11.701   0.870 -0.1691 -0.5032 -0.4218
  534MOL0     O71985   4.650  11.696   0.750  0.3061 -0.2186 -0.0975
  534MOL0     C71986   4.532  11.766   0.737  0.4605 -0.4080  0.5904
  534MOL0     C71987   4.506  11.891   0.790  0.6123 -0.2496  0.0294
  534MOL0     C71988   4.381  11.948   0.785  0.0164 -0.5325  0.2003
  534MOL0     C71989   4.285  11.899   0.706 -0.4413 -0.4801 -1.5549
  534MOL0     O71990   4.166  11.971   0.687  0.1147 -0.0596  0.5905
  534MOL0     C71991   4.195  12.110   0.674 -0.0844 -0.4324 -0.2350
  534MOL0     C71992   4.071  12.181   0.610 -0.2258  0.7064  0.0537
  534MOL0     C71993   3.941  12.152   0.692 -0.7192 -1.1201  0.3146
  534MOL0     C71994   3.934  12.227   0.826 -0.0808 -0.5727  0.4701
  534MOL0     C71995   3.864  12.356   0.817  0.1101 -0.7074 -0.6931
  534MOL0     C71996   3.884  12.449   0.945 -0.5438  1.2909  0.6122
  534MOL0     C71997   4.023  12.504   0.953 -0.9676  0.2679 -1.1774
  534MOL0     C71998   4.032  12.659   0.972  0.2321  0.8313 -1.0047
  534MOL0    Cl71999   3.979  12.726   0.818 -0.8027  0.0348  0.2494
  534MOL0     C72000   4.299  11.772   0.652 -0.0392  1.0032 -0.2524
  534MOL0     C72001   4.427  11.712   0.663  0.1548  0.9626 -0.4320
  534MOL0     O72002   4.650  11.746   0.975  0.1780  0.0263 -0.0261
  534MOL0     C72003   4.917  11.633   0.776  0.6232  0.9046 -0.1525
  534MOL0     C72004   5.040  11.565   0.795 -0.3187 -0.5324  0.3240
  534MOL0     N72005   5.728  11.472   1.112  0.2504  0.8174 -1.2373
  534MOL0     N72006   5.750  11.368   1.186  0.2522 -0.0266 -0.5859
  534MOL0     C72007   6.360  11.324   1.898 -0.4762 -0.3474  0.0086
  534MOL0     C72008   6.411  11.418   1.982  0.0058  0.2991 -0.4323
  534MOL0     C72009   6.484  11.705   2.299  0.1100 -0.8096  0.0050
  534MOL0     C72010   6.567  11.697   2.418  0.3914 -0.0435  1.0138
  534MOL0     C72011   6.590  11.812   2.502  0.3645  0.1581 -0.4870
  534MOL0     C72012   6.534  11.934   2.459 -0.1178 -0.1938  0.2901
  534MOL0     O72013   6.548  12.059   2.523  0.6924 -0.7201 -0.6937
  534MOL0     C72014   6.665  12.089   2.609 -0.5019  0.6456 -0.4720
  534MOL0     C72015   6.802  12.111   2.541 -0.5977 -0.5094 -1.0017
  534MOL0     C72016   6.800  12.243   2.455  0.9525  0.5877  0.2614
  534MOL0     C72017   6.926  12.250   2.370  0.4177  0.8278  1.0507
  534MOL0     C72018   6.917  12.383   2.311 -0.0355 -0.5270  0.6542
  534MOL0     C72019   6.931  12.491   2.263  0.1115  0.4974 -0.4622
  534MOL0     C72020   6.455  11.941   2.347  0.2177  0.4760  0.4393
  534MOL0     C72021   6.425  11.829   2.264  0.8644 -0.6214 -0.1118
  534MOL0     C72022   6.356  11.851   2.126  0.1987 -0.1628 -0.5220
  534MOL0     H72023   6.116  11.546   2.093 -0.4930 -1.8487  2.0847
  534MOL0     H72024   6.029  11.368   1.931  0.4940 -0.7664 -0.8047
  534MOL0     H72025   6.294  11.186   1.622  1.6633  1.8595  1.7090
  534MOL0     H72026   6.318  11.087   1.768 -0.6629 -0.4762 -1.2783
  534MOL0     H72027   6.082  11.001   1.737 -1.5448  1.4609 -0.5999
  534MOL0     H72028   6.213  10.940   1.632 -1.1644 -0.8106 -0.2745
  534MOL0     H72029   6.129  11.110   1.445 -3.4489  1.4557 -0.2584
  534MOL0     H72030   5.992  11.126   1.540  0.0458  2.4700 -3.8710
  534MOL0     H72031   6.095  10.880   1.410  0.2113  0.2449  0.5991
  534MOL0     H72032   5.958  10.873   1.534  0.1674  1.8934  0.9327
  534MOL0     H72033   5.884  10.863   1.318 -1.0428  0.7036 -0.1455
  534MOL0     H72034   5.838  11.008   1.419  2.2844 -0.6356  3.8970
  534MOL0     H72035   5.955  11.153   1.287 -2.0568 -0.5311  0.8909
  534MOL0     H72036   6.056  11.029   1.209  0.1033 -1.8514  0.7057
  534MOL0     H72037   5.834  10.946   1.097  1.3560  0.3737 -4.3594
  534MOL0     H72038   5.908  11.098   1.042  0.3205  0.8074  1.8698
  534MOL0     H72039   5.656  11.072   1.073 -1.5208  3.8473 -1.1729
  534MOL0     H72040   5.679  11.115   1.242 -2.7317 -0.0466 -1.0376
  534MOL0     H72041   5.737  11.238   0.884 -1.2885  0.2075 -0.6869
  534MOL0     H72042   5.686  11.625   0.911  2.9479 -0.4872  2.2118
  534MOL0     H72043   5.765  11.522   0.791 -0.0332 -2.6380 -0.5468
  534MOL0     H72044   5.520  11.585   0.750  1.8259  0.7474 -0.4130
  534MOL0     H72045   5.557  11.405   0.741  2.2646  1.5734 -1.0160
  534MOL0     H72046   5.432  11.548   0.979  1.1117 -0.4414 -0.4341
  534MOL0     H72047   5.465  11.369   0.971 -2.4031 -1.3469 -0.8165
  534MOL0     H72048   5.292  11.328   0.818  2.5834 -1.7818  3.8453
  534MOL0     H72049   5.293  11.497   0.761  2.4138  1.8340  0.8209
  534MOL0     H72050   4.982  11.472   1.125 -2.0353 -1.8996 -0.5609
  534MOL0     H72051   4.781  11.591   1.080 -2.8787  0.7559 -2.2179
  534MOL0     H72052   4.588  11.936   0.845 -0.0861  0.2976  0.6514
  534MOL0     H72053   4.371  12.048   0.826 -1.0176 -0.2659 -0.6500
  534MOL0     H72054   4.209  12.157   0.771  1.1122  0.5214 -0.8315
  534MOL0     H72055   4.279  12.119   0.604  2.6208 -0.5701  2.7651
  534MOL0     H72056   4.090  12.287   0.630 -0.2511  0.8064 -0.4580
  534MOL0     H72057   4.055  12.160   0.504 -0.9766 -2.1529  0.6576
  534MOL0     H72058   3.852  12.183   0.637 -1.0061 -1.4110  0.6187
  534MOL0     H72059   3.920  12.050   0.723  0.3178 -1.1075  1.1388
  534MOL0     H72060   4.038  12.238   0.858  0.1618 -1.1741 -0.0741
  534MOL0     H72061   3.868  12.169   0.891 -1.1005 -0.1448 -0.1627
  534MOL0     H72062   3.758  12.341   0.794  0.3218 -0.1018 -2.1717
  534MOL0     H72063   3.900  12.409   0.729  1.0301  1.4391  0.8827
  534MOL0     H72064   3.813  12.531   0.928  0.0092  1.4152 -1.4638
  534MOL0     H72065   3.851  12.399   1.036 -1.8538  0.6503 -0.1653
  534MOL0     H72066   4.071  12.470   0.860 -0.5292  0.4047 -1.0011
  534MOL0     H72067   4.084  12.458   1.031 -1.9138 -2.7553 -2.0523
  534MOL0     H72068   3.969  12.700   1.051  0.2768 -1.5940  0.3722
  534MOL0     H72069   4.139  12.684   0.974  1.1139 -2.3816 -1.8975
  534MOL0     H72070   4.214  11.730   0.599 -1.9591  5.9841 -1.6592
  534MOL0     H72071   4.442  11.613   0.621  1.6758 -1.5139  4.9966
  534MOL0     H72072   4.877  11.661   0.679  0.3779 -0.8348 -0.5749
  534MOL0     H72073   5.104  11.556   0.708 -2.7537  0.1741 -1.6868
  534MOL0     H72074   6.431  11.283   1.826  1.6190 -1.4342  2.5434
  534MOL0     H72075   6.515  11.440   1.998 -0.3359  2.6962 -1.1817
  534MOL0     H72076   6.602  11.598   2.445 -3.5097 -1.5291  1.3036
  534MOL0     H72077   6.644  11.803   2.596  0.9637  2.6585 -0.5344
  534MOL0     H72078   6.690  12.000   2.668 -0.3728 -1.5512 -3.5657
  534MOL0     H72079   6.641  12.177   2.668  0.5982  0.1113  0.8242
  534MOL0     H72080   6.834  12.019   2.490  1.5127 -0.3858 -0.0018
  534MOL0     H72081   6.874  12.114   2.623 -0.6238  1.0909 -1.0009
  534MOL0     H72082   6.779  12.327   2.521  0.3613  0.3671  0.3620
  534MOL0     H72083   6.722  12.237   2.379  0.4958  0.8285  0.7082
  534MOL0     H72084   7.019  12.239   2.426  0.3632  1.9222  1.3766
  534MOL0     H72085   6.925  12.182   2.284 -1.2198  0.7212  1.1110
  534MOL0     H72086   6.913  12.581   2.207  0.2375  0.1989 -0.9935
  534MOL0     H72087   6.417  12.037   2.312  3.4085  1.6391 -0.1622
  534MOL0     H72088   6.255  11.807   2.126 -1.5576  3.2259  3.5078
  534MOL0     H72089   6.335  11.956   2.105  0.6793 -0.0196 -0.2912
  534MOL0     H72090   6.427  11.820   2.049  0.5522  2.5556 -1.3910
  535MOL0     O72091   9.272   8.057  11.033  0.2174  0.7786 -0.8013
  535MOL0     C72092   9.154   8.037  11.000 -0.3956 -0.0966 -0.8520
  535MOL0     O72093   9.065   8.130  10.963  1.1502 -0.2838  0.5180
  535MOL0     C72094   9.097   8.259  10.968  0.0509 -0.1709  0.8100
  535MOL0     C72095   9.147   8.328  11.077 -0.2291 -0.6017 -0.5479
  535MOL0     C72096   9.186   8.464  11.075  1.1984  1.1535 -0.4383
  535MOL0     C72097   9.184   8.537  10.953 -0.3529  0.6862 -0.0477
  535MOL0     O72098   9.227   8.667  10.931  0.4316 -0.4965 -1.2619
  535MOL0     C72099   9.265   8.749  11.049  0.4645  0.7316  0.3820
  535MOL0     C72100   9.283   8.896  11.018  0.8171  0.0035 -0.7560
  535MOL0     C72101   9.379   8.904  10.901  0.3107 -0.2937  0.7041
  535MOL0     C72102   9.415   9.053  10.880 -0.0318  0.5126  0.1263
  535MOL0     C72103   9.480   9.077  10.745  0.3167 -0.5254 -0.0742
  535MOL0     C72104   9.532   9.206  10.727 -0.8305 -0.0950  0.2537
  535MOL0     C72105   9.623   9.222  10.599 -0.7631  0.5437 -0.0283
  535MOL0     C72106   9.680   9.361  10.609  0.6962  0.6121  0.4744
  535MOL0     N72107   9.758   9.406  10.490  0.5494 -0.2109  0.2313
  535MOL0     C72108   9.714   9.433  10.359  0.7621 -0.5701  0.1346
  535MOL0     C72109   9.826   9.459  10.292  0.4890  0.4076  0.7152
  535MOL0     C72110   9.850   9.490  10.144 -0.0347  0.6186 -0.1968
  535MOL0     C72111   9.811   9.365  10.065  0.3737 -1.5086  0.0336
  535MOL0     C72112   9.839   9.349   9.917 -0.5994 -0.4133 -1.0016
  535MOL0     C72113   9.984   9.359   9.886 -0.1477  0.1550 -0.0290
  535MOL0     O72114   9.988   9.333   9.754 -0.2227  0.9795  0.8286
  535MOL0     C72115   9.983   9.433   9.661  0.0987 -0.1344 -0.3961
  535MOL0     C72116   9.977   9.393   9.528  0.3361  0.5940  0.0760
  535MOL0     C72117   9.990   9.486   9.426 -0.8623 -1.3199  0.0921
  535MOL0     C72118   9.992   9.625   9.453  0.7514  0.1717 -0.7225
  535MOL0     C72119  10.033   9.727   9.357  0.0358 -0.3083 -1.0374
  535MOL0     O72120  10.105   9.679   9.244 -0.2069  0.4581 -0.3328
  535MOL0     C72121  10.108   9.761   9.134  0.4560  0.0244 -0.3426
  535MOL0     C72122  10.235   9.802   9.077 -0.5489  0.4577 -0.4297
  535MOL0     C72123  10.238   9.890   8.975 -0.5710  0.2822  0.1654
  535MOL0     C72124  10.119   9.924   8.907  0.5667 -0.5281 -0.6757
  535MOL0     O72125  10.114  10.007   8.794  0.7405 -0.5027  0.0821
  535MOL0     C72126  10.220  10.002   8.695 -0.2860  0.7190  0.8317
  535MOL0     C72127  10.189   9.887   8.596  0.4262  0.1326  0.4296
  535MOL0     C72128  10.318   9.839   8.530  0.1849  1.0797  1.1312
  535MOL0     C72129  10.298   9.734   8.425  0.8155  0.6879  0.4045
  535MOL0     C72130  10.278   9.595   8.483  0.0252 -0.2188  0.4570
  535MOL0     C72131  10.412   9.510   8.503 -0.2033 -0.6199  0.7424
  535MOL0     C72132  10.362   9.367   8.533  1.2908  0.7543 -0.1645
  535MOL0     C72133  10.357   9.290   8.404 -0.7131 -0.0943 -0.0022
  535MOL0    Cl72134  10.333   9.112   8.431  0.1574  0.3199  0.2018
  535MOL0     C72135  10.003   9.870   8.952  0.3129 -0.5832  0.6013
  535MOL0     C72136   9.988   9.796   9.073 -0.5913 -0.9300  1.2598
  535MOL0     O72137   9.996   9.845   9.373  0.1538 -0.3614 -0.4674
  535MOL0     C72138   9.998   9.657   9.588 -0.1751 -0.4043 -0.8398
  535MOL0     C72139   9.992   9.567   9.693 -0.5229 -0.8013 -0.3050
  535MOL0     N72140   9.931   9.454  10.378 -0.2932 -0.3271 -0.2199
  535MOL0     N72141   9.891   9.424  10.497  0.3047 -0.4677  0.0058
  535MOL0     C72142   9.131   8.468  10.842 -0.3590 -0.0126  0.0591
  535MOL0     C72143   9.088   8.330  10.846 -0.2715 -0.9841  0.0093
  535MOL0     C72144   9.105   7.890  10.984 -0.5133  0.8256 -0.5233
  535MOL0     C72145   9.194   7.781  10.989  0.3959  0.1720 -0.7459
  535MOL0     C72146   9.151   7.655  10.973 -0.9234  0.5660 -1.4503
  535MOL0     C72147   9.020   7.622  10.945  0.6992  0.1097  0.8040
  535MOL0     O72148   8.966   7.493  10.926  0.2783 -0.2662  0.0547
  535MOL0     C72149   9.040   7.377  10.967  0.6069  0.3582 -0.8074
  535MOL0     C72150   9.034   7.367  11.119 -0.3669 -0.4059 -0.3430
  535MOL0     C72151   8.884   7.344  11.170  0.6057 -0.3865  0.0707
  535MOL0     C72152   8.899   7.291  11.309  0.8880 -0.3876 -0.8786
  535MOL0     C72153   8.783   7.316  11.395  0.9120 -0.3829 -0.3263
  535MOL0     C72154   8.687   7.349  11.462  0.7500 -0.3492 -0.4100
  535MOL0     C72155   8.932   7.721  10.937  0.2881 -0.2655 -0.3387
  535MOL0     C72156   8.968   7.859  10.951 -0.4294  1.0029 -0.1103
  535MOL0     C72157   8.860   7.957  10.940 -0.3521  0.3650 -0.0706
  535MOL0     H72158   9.146   8.262  11.163 -1.5952 -0.8318 -0.7254
  535MOL0     H72159   9.220   8.507  11.169 -0.4291  1.6454 -0.0532
  535MOL0     H72160   9.193   8.728  11.128  0.3422 -0.2070  0.0350
  535MOL0     H72161   9.363   8.710  11.079  0.6494 -2.1075 -3.2573
  535MOL0     H72162   9.324   8.952  11.102  1.0579  1.6702 -1.9303
  535MOL0     H72163   9.187   8.941  10.989  0.1535  0.3968  1.8422
  535MOL0     H72164   9.327   8.858  10.817  1.6036 -0.3014 -0.1093
  535MOL0     H72165   9.467   8.845  10.926  0.8773 -0.1949 -1.0004
  535MOL0     H72166   9.331   9.122  10.893  1.1157  1.8355  0.7039
  535MOL0     H72167   9.494   9.065  10.954 -0.7498 -0.6471  1.1101
  535MOL0     H72168   9.556   8.999  10.729  1.7928  0.8897 -0.2497
  535MOL0     H72169   9.403   9.056  10.671 -0.3529 -0.8904  0.7165
  535MOL0     H72170   9.449   9.278  10.725 -0.6141  0.1428 -2.1873
  535MOL0     H72171   9.587   9.227  10.820 -2.4252 -0.3832  1.3073
  535MOL0     H72172   9.567   9.197  10.508  0.7568  0.4129 -0.9617
  535MOL0     H72173   9.705   9.150  10.605 -1.6801 -0.4104  3.6014
  535MOL0     H72174   9.597   9.430  10.630  0.5834  0.4620  0.5293
  535MOL0     H72175   9.739   9.360  10.701 -0.2877 -2.3321  1.1831
  535MOL0     H72176   9.609   9.436  10.331  0.7382 -1.4059  0.0939
  535MOL0     H72177   9.789   9.577  10.122 -0.4620  0.6906  1.2144
  535MOL0     H72178   9.957   9.505  10.126 -0.4463  1.2183 -2.4692
  535MOL0     H72179   9.863   9.282  10.115  3.7453 -0.2882 -1.1411
  535MOL0     H72180   9.702   9.366  10.077  0.1473  1.3435 -1.4557
  535MOL0     H72181   9.776   9.418   9.859 -1.6255 -0.8411 -0.4228
  535MOL0     H72182   9.819   9.245   9.891 -1.3423 -0.4970 -0.1560
  535MOL0     H72183  10.037   9.281   9.941  0.9368 -0.0710 -1.3314
  535MOL0     H72184  10.030   9.453   9.918  1.0144 -0.1245 -0.8044
  535MOL0     H72185   9.988   9.288   9.503 -0.4117  0.6033 -0.3393
  535MOL0     H72186   9.994   9.449   9.324 -1.6062  1.6921 -1.1135
  535MOL0     H72187  10.330   9.770   9.119 -0.5593  1.8447  0.7697
  535MOL0     H72188  10.334   9.914   8.930 -0.6719  2.1879  0.8535
  535MOL0     H72189  10.225  10.096   8.639  0.7708 -1.4870 -3.1354
  535MOL0     H72190  10.320   9.975   8.729 -0.1646 -4.1329 -2.4075
  535MOL0     H72191  10.139   9.803   8.646  1.7247 -0.4425  0.8005
  535MOL0     H72192  10.118   9.919   8.519  2.7218 -1.3732 -2.5276
  535MOL0     H72193  10.373   9.917   8.476 -0.9850  0.3284 -1.2544
  535MOL0     H72194  10.390   9.800   8.603  3.3283  1.2624 -1.6040
  535MOL0     H72195  10.386   9.742   8.360  1.6724  1.6649  1.6359
  535MOL0     H72196  10.215   9.765   8.362  1.0435  3.1789  1.2245
  535MOL0     H72197  10.215   9.544   8.410  0.6508 -0.9715  0.4323
  535MOL0     H72198  10.215   9.594   8.573 -0.7786 -3.3828  0.0031
  535MOL0     H72199  10.470   9.507   8.410 -1.9279 -2.3602 -0.3639
  535MOL0     H72200  10.471   9.554   8.583  0.5825  1.2119 -0.7730
  535MOL0     H72201  10.267   9.383   8.585  0.9809  2.1425 -1.0937
  535MOL0     H72202  10.433   9.313   8.597  0.9809  0.2505 -0.2428
  535MOL0     H72203  10.283   9.335   8.338 -0.2597  0.5567 -0.0842
  535MOL0     H72204  10.453   9.313   8.357 -0.0402  1.7158  2.0321
  535MOL0     H72205   9.918   9.901   8.892 -0.9413 -2.7276  1.1806
  535MOL0     H72206   9.890   9.775   9.114  0.2841 -3.6374  2.1508
  535MOL0     H72207  10.011   9.760   9.620  0.9942 -1.4351  2.4315
  535MOL0     H72208   9.979   9.604   9.794  2.1337  1.9377 -0.8289
  535MOL0     H72209   9.136   8.516  10.744 -1.1096 -1.9286 -0.9681
  535MOL0     H72210   9.035   8.279  10.766  0.6393 -2.2748  0.1934
  535MOL0     H72211   9.295   7.808  11.018 -0.6259  2.2987  1.2045
  535MOL0     H72212   9.228   7.582  10.992  2.5908  3.8349 -1.8485
  535MOL0     H72213   9.139   7.368  10.923  0.5001 -2.9126 -0.6028
  535MOL0     H72214   8.984   7.293  10.925  1.9665  0.3831 -2.7715
  535MOL0     H72215   9.070   7.459  11.166 -2.0990 -1.1368  2.7471
  535MOL0     H72216   9.100   7.284  11.147 -3.4845 -2.9729  0.0107
  535MOL0     H72217   8.820   7.278  11.110  0.4334  0.4315 -0.6576
  535MOL0     H72218   8.822   7.435  11.169  0.8343 -0.2068  1.1795
  535MOL0     H72219   8.926   7.185  11.296  1.0081 -0.4804  0.0478
  535MOL0     H72220   8.977   7.347  11.362  1.1477 -2.8039  1.5300
  535MOL0     H72221   8.599   7.374  11.518  1.2769  2.4430 -0.6950
  535MOL0     H72222   8.842   7.696  10.883  0.4787 -0.7210 -0.4435
  535MOL0     H72223   8.876   8.033  10.863  3.0997  1.5772  1.6087
  535MOL0     H72224   8.767   7.907  10.913  0.6918 -1.8550  0.1230
  535MOL0     H72225   8.837   8.000  11.038  3.0928 -0.9012  1.4928
  536MOL0     O72226   6.098   7.613   5.222 -0.7352 -0.2315 -0.4684
  536MOL0     C72227   6.200   7.573   5.285  0.2888  0.8209 -0.8096
  536MOL0     O72228   6.211   7.448   5.352 -0.1945 -0.4931  0.2974
  536MOL0     C72229   6.115   7.359   5.319 -0.0581 -0.1125  0.4892
  536MOL0     C72230   5.980   7.381   5.350  0.1769 -0.2340  0.0928
  536MOL0     C72231   5.890   7.287   5.309  1.4549  0.1957  0.2320
  536MOL0     C72232   5.927   7.157   5.257  0.4851 -0.2795  0.1053
  536MOL0     O72233   5.836   7.066   5.203  0.4232 -0.0196 -0.4253
  536MOL0     C72234   5.734   7.008   5.282  0.2268 -0.1960 -0.0165
  536MOL0     C72235   5.600   7.023   5.221  0.6286 -0.3111  0.9257
  536MOL0     C72236   5.588   6.925   5.103  0.1325 -0.0383  1.1433
  536MOL0     C72237   5.460   6.942   5.034 -0.4358 -0.2493 -0.1655
  536MOL0     C72238   5.453   6.848   4.915 -0.5619  0.4139 -0.2710
  536MOL0     C72239   5.308   6.803   4.894  0.2753  0.1260  0.0475
  536MOL0     C72240   5.299   6.683   4.795  0.1543  0.2188 -0.3361
  536MOL0     C72241   5.277   6.542   4.856 -0.8788  0.4541  0.1412
  536MOL0     N72242   5.257   6.451   4.749  0.6454 -0.2208  0.6852
  536MOL0     C72243   5.349   6.424   4.644  0.5726 -0.8613  0.4111
  536MOL0     C72244   5.270   6.365   4.554  0.4468  0.0570 -0.5199
  536MOL0     C72245   5.310   6.302   4.426 -0.9524 -0.2845 -0.3496
  536MOL0     C72246   5.424   6.192   4.440  0.5454 -0.2662  0.5271
  536MOL0     C72247   5.385   6.088   4.533  0.2152 -0.3409 -0.1503
  536MOL0     C72248   5.268   6.003   4.481  0.9915  0.4827 -0.6543
  536MOL0     O72249   5.313   5.935   4.362  0.5638  0.2779  0.0322
  536MOL0     C72250   5.404   5.837   4.364  0.6545  0.2570 -0.9672
  536MOL0     C72251   5.486   5.824   4.255 -0.3759 -0.2533 -0.7949
  536MOL0     C72252   5.596   5.738   4.255  0.2806  0.0866  0.0233
  536MOL0     C72253   5.625   5.657   4.368 -1.1852 -0.0525  0.7335
  536MOL0     C72254   5.747   5.574   4.375  1.1777 -0.4737 -0.4279
  536MOL0     O72255   5.793   5.535   4.261 -0.6090  0.2186  0.0240
  536MOL0     C72256   5.910   5.464   4.259  0.6940  0.2150 -1.5149
  536MOL0     C72257   6.030   5.522   4.294 -0.6741  0.7224 -0.7509
  536MOL0     C72258   6.151   5.447   4.297 -0.1088 -0.4945  0.7591
  536MOL0     C72259   6.156   5.322   4.230 -0.4731 -0.3386  0.2959
  536MOL0     O72260   6.283   5.268   4.200 -0.6478  0.1408  0.2867
  536MOL0     C72261   6.292   5.120   4.180 -0.1982 -0.2418  0.4643
  536MOL0     C72262   6.430   5.074   4.139  0.4954  0.5743  0.1183
  536MOL0     C72263   6.527   5.068   4.257 -0.4675  0.6368  0.6202
  536MOL0     C72264   6.502   4.958   4.371 -0.7517 -0.1198 -0.5413
  536MOL0     C72265   6.618   4.932   4.454 -0.8942  0.4219  0.4025
  536MOL0     C72266   6.663   5.050   4.549  0.5500 -0.2926 -1.2619
  536MOL0     C72267   6.734   5.013   4.681  0.4052 -0.0244 -0.6285
  536MOL0     C72268   6.861   4.929   4.659 -0.5117  0.0311 -0.4607
  536MOL0    Cl72269   6.987   5.041   4.602  0.3082 -0.0629 -0.0768
  536MOL0     C72270   6.040   5.268   4.176 -0.2226 -0.9839 -0.0675
  536MOL0     C72271   5.917   5.333   4.205  0.1031  0.1656 -0.6008
  536MOL0     O72272   5.797   5.549   4.483  0.5481  0.1179 -0.3552
  536MOL0     C72273   5.543   5.668   4.485  0.4340 -0.5281  0.6810
  536MOL0     C72274   5.433   5.748   4.482 -0.0618 -0.0740 -0.0254
  536MOL0     N72275   5.132   6.354   4.601  0.8248  0.0230  0.7932
  536MOL0     N72276   5.131   6.407   4.717 -0.3540  0.5218  0.2151
  536MOL0     C72277   6.059   7.137   5.226  0.3561 -0.5669  0.8037
  536MOL0     C72278   6.151   7.242   5.253  0.2071  1.3987 -0.8544
  536MOL0     C72279   6.319   7.667   5.273 -0.3607 -0.4964 -0.8431
  536MOL0     C72280   6.302   7.774   5.181  0.1987 -0.5802  0.0577
  536MOL0     C72281   6.403   7.865   5.163 -0.1739  0.4952 -0.0671
  536MOL0     C72282   6.534   7.850   5.208  0.7298 -0.5695  0.3362
  536MOL0     O72283   6.634   7.938   5.168  0.1083  0.9957 -0.9384
  536MOL0     C72284   6.666   7.948   5.034 -0.2424  0.0704  0.9427
  536MOL0     C72285   6.658   8.094   5.002  0.6960  0.5365  0.0850
  536MOL0     C72286   6.722   8.196   5.099 -0.2932 -0.3395 -0.4469
  536MOL0     C72287   6.709   8.334   5.047  0.1699 -0.2038  1.1307
  536MOL0     C72288   6.720   8.429   5.161  0.5379  0.3338  0.0255
  536MOL0     C72289   6.742   8.507   5.256  0.5035  1.4673  0.1150
  536MOL0     C72290   6.548   7.749   5.305 -0.1361 -0.7180  1.1175
  536MOL0     C72291   6.441   7.656   5.343  0.9937 -0.2600  0.2649
  536MOL0     C72292   6.448   7.565   5.462 -0.4974 -0.0995 -0.2551
  536MOL0     H72293   5.945   7.476   5.388 -0.8267 -0.4963 -0.1394
  536MOL0     H72294   5.787   7.318   5.321  0.9955 -0.8827 -0.7633
  536MOL0     H72295   5.763   6.905   5.303  1.7048  0.4485  1.2011
  536MOL0     H72296   5.738   7.058   5.379  1.9454  0.5419 -0.4280
  536MOL0     H72297   5.589   7.125   5.181  0.4002 -1.5730 -2.5449
  536MOL0     H72298   5.524   6.996   5.295 -0.4348  0.8974  0.3192
  536MOL0     H72299   5.596   6.818   5.125 -2.8055 -1.1359 -2.0526
  536MOL0     H72300   5.673   6.941   5.036  0.4375  1.3062  1.8177
  536MOL0     H72301   5.377   6.937   5.104 -0.4669  4.4908  0.4738
  536MOL0     H72302   5.459   7.042   4.990 -1.6266  0.4189  1.3212
  536MOL0     H72303   5.503   6.891   4.828  2.1319  1.0611  1.4599
  536MOL0     H72304   5.511   6.759   4.938 -1.1775  0.7328  2.9552
  536MOL0     H72305   5.263   6.769   4.987  0.3868 -1.4994 -0.4446
  536MOL0     H72306   5.255   6.888   4.849 -0.8767 -1.4062 -1.6654
  536MOL0     H72307   5.395   6.679   4.743  0.5655  1.3763  0.2906
  536MOL0     H72308   5.211   6.703   4.733 -0.6114  4.2064  1.7047
  536MOL0     H72309   5.369   6.515   4.909 -0.1675  0.0904 -1.2384
  536MOL0     H72310   5.192   6.545   4.925 -1.2687  0.4422 -0.3329
  536MOL0     H72311   5.454   6.449   4.651 -0.0394  1.8175  1.0952
  536MOL0     H72312   5.220   6.268   4.374 -0.7003 -0.5960 -0.5808
  536MOL0     H72313   5.350   6.388   4.370  2.2185 -1.7066 -0.4622
  536MOL0     H72314   5.444   6.141   4.345 -1.0262 -1.8298  0.9886
  536MOL0     H72315   5.517   6.238   4.474  0.2422  0.7770 -0.0292
  536MOL0     H72316   5.346   6.130   4.626  0.3444  1.1174 -0.7201
  536MOL0     H72317   5.475   6.033   4.563 -1.1405 -1.4757  2.1157
  536MOL0     H72318   5.184   6.067   4.452 -1.2923 -1.4985  1.2063
  536MOL0     H72319   5.241   5.927   4.554  1.4230 -1.8397 -2.8017
  536MOL0     H72320   5.463   5.877   4.164  3.5947  2.0442 -0.7159
  536MOL0     H72321   5.656   5.719   4.166 -4.1737 -2.7514 -2.7397
  536MOL0     H72322   6.036   5.623   4.334 -3.2367  0.5442  0.2561
  536MOL0     H72323   6.241   5.499   4.328  0.3138 -1.2316  0.7842
  536MOL0     H72324   6.266   5.080   4.279  3.1083  0.6712  1.8713
  536MOL0     H72325   6.227   5.088   4.099 -2.1236 -1.4211  2.3839
  536MOL0     H72326   6.416   4.972   4.102  1.5200  1.4251 -2.8656
  536MOL0     H72327   6.473   5.136   4.061  3.2104  2.5042  2.9033
  536MOL0     H72328   6.627   5.048   4.219 -0.6427 -0.0387  0.5110
  536MOL0     H72329   6.525   5.164   4.310 -0.0739  1.7470 -1.3095
  536MOL0     H72330   6.475   4.863   4.324  2.0306 -1.5546  0.5471
  536MOL0     H72331   6.411   4.969   4.429  0.8060 -0.9218  2.2408
  536MOL0     H72332   6.706   4.901   4.397 -0.9632  0.6873  0.1526
  536MOL0     H72333   6.610   4.840   4.513  1.4967 -1.5443 -2.0850
  536MOL0     H72334   6.733   5.119   4.501  2.5362  1.0335  3.0863
  536MOL0     H72335   6.581   5.111   4.587  1.5076  1.2016 -1.5178
  536MOL0     H72336   6.664   4.954   4.741 -0.4757  1.4180 -0.1813
  536MOL0     H72337   6.755   5.101   4.743 -2.5817  0.9430 -0.8692
  536MOL0     H72338   6.894   4.889   4.756  0.5709  0.5695 -0.5883
  536MOL0     H72339   6.843   4.845   4.592  0.5232 -0.3201 -0.3127
  536MOL0     H72340   6.035   5.173   4.124  2.9284 -2.3598  1.8540
  536MOL0     H72341   5.827   5.274   4.188 -2.3675  3.8957 -1.6683
  536MOL0     H72342   5.554   5.609   4.575 -2.5418  1.5617  2.6074
  536MOL0     H72343   5.365   5.753   4.566 -0.1084 -0.6953 -0.0201
  536MOL0     H72344   6.084   7.038   5.190 -1.2878 -0.4882 -0.6866
  536MOL0     H72345   6.253   7.231   5.216  1.3546  2.5241  1.7163
  536MOL0     H72346   6.210   7.801   5.131  2.1670  4.5471 -1.4980
  536MOL0     H72347   6.383   7.960   5.115 -1.7076 -0.5048 -1.5366
  536MOL0     H72348   6.608   7.891   4.961  0.5939 -1.1784  1.2215
  536MOL0     H72349   6.772   7.922   5.029 -0.1787 -0.0138  2.2605
  536MOL0     H72350   6.554   8.122   4.987  0.4903  0.2313  0.8802
  536MOL0     H72351   6.714   8.104   4.909  2.2228  2.1120  1.1025
  536MOL0     H72352   6.829   8.175   5.112 -0.4210  0.0794  1.7280
  536MOL0     H72353   6.666   8.193   5.193 -1.4152 -0.8374 -1.1159
  536MOL0     H72354   6.780   8.357   4.967  1.4315 -0.2154  2.2134
  536MOL0     H72355   6.607   8.334   5.007 -0.1984  2.3552  1.8906
  536MOL0     H72356   6.740   8.574   5.340 -1.9900  0.7585  0.7010
  536MOL0     H72357   6.649   7.737   5.342 -0.7279 -0.3298  2.9573
  536MOL0     H72358   6.451   7.458   5.438  1.5083  0.3636 -2.4935
  536MOL0     H72359   6.547   7.579   5.507  1.2547 -1.5914 -3.2977
  536MOL0     H72360   6.354   7.590   5.513 -0.1711  4.6884 -1.5255
  537MOL0     O72361   7.835   4.689   6.927 -1.2328 -0.0943  0.4148
  537MOL0     C72362   7.835   4.730   6.810 -0.2614  0.0243  0.6804
  537MOL0     O72363   7.896   4.662   6.709  0.2142 -0.1229  0.6191
  537MOL0     C72364   7.937   4.534   6.736  0.2276 -0.3767  0.1341
  537MOL0     C72365   7.847   4.428   6.737  0.6581 -0.0732 -0.5217
  537MOL0     C72366   7.881   4.306   6.785 -1.0099  0.1307  1.2683
  537MOL0     C72367   8.013   4.283   6.843  0.0308 -0.1961 -0.2259
  537MOL0     O72368   8.056   4.159   6.885  0.0525 -0.1925 -0.5734
  537MOL0     C72369   8.014   4.041   6.814  0.3513  0.1159  0.3036
  537MOL0     C72370   8.100   3.927   6.854 -0.4902 -0.2981 -0.6417
  537MOL0     C72371   8.118   3.812   6.764 -0.0981 -0.2370 -0.3438
  537MOL0     C72372   8.220   3.721   6.835  0.4272 -0.4967  0.6628
  537MOL0     C72373   8.227   3.591   6.742  0.3671 -0.4457  1.7065
  537MOL0     C72374   8.370   3.543   6.709 -1.1673  0.0884  0.3371
  537MOL0     C72375   8.432   3.449   6.818 -0.1369 -0.1474  0.2866
  537MOL0     C72376   8.368   3.312   6.826  0.4592 -0.0286 -0.0462
  537MOL0     N72377   8.230   3.303   6.892 -0.4742  0.2721  0.2795
  537MOL0     C72378   8.123   3.243   6.830  0.0659  0.0657 -1.5522
  537MOL0     C72379   8.021   3.247   6.920  0.5130 -0.4179 -0.1319
  537MOL0     C72380   7.875   3.217   6.909  0.9843  0.3213 -0.2065
  537MOL0     C72381   7.791   3.346   6.880 -0.2452  0.2749 -0.2819
  537MOL0     C72382   7.788   3.379   6.732 -0.0742 -1.5215  0.0590
  537MOL0     C72383   7.720   3.514   6.700  0.0016 -0.0755 -0.5661
  537MOL0     O72384   7.719   3.529   6.560 -0.6305 -1.1157  0.3488
  537MOL0     C72385   7.779   3.640   6.509 -0.3291 -0.7451  0.5366
  537MOL0     C72386   7.871   3.625   6.411 -1.3241  0.0501 -0.4762
  537MOL0     C72387   7.923   3.732   6.344  0.2298  0.6330  0.7281
  537MOL0     C72388   7.892   3.862   6.383  0.3430 -0.3622  0.3080
  537MOL0     C72389   7.964   3.978   6.321 -0.6608 -0.3168 -0.4870
  537MOL0     O72390   7.932   4.106   6.372  0.0543  0.8765  1.0088
  537MOL0     C72391   7.956   4.223   6.311  0.2259 -0.5089  0.4364
  537MOL0     C72392   7.963   4.341   6.386 -0.2010  0.7555 -0.5220
  537MOL0     C72393   7.941   4.475   6.339 -1.0931 -0.0038  0.0098
  537MOL0     C72394   7.935   4.488   6.200  0.8367 -0.1009  0.0690
  537MOL0     O72395   7.928   4.602   6.118 -0.5919  0.7356  0.1605
  537MOL0     C72396   7.941   4.726   6.185  0.5667  0.3814 -0.6371
  537MOL0     C72397   7.884   4.834   6.084 -0.3875  0.3323 -0.5687
  537MOL0     C72398   7.982   4.881   5.965  0.0607  0.2660  0.3898
  537MOL0     C72399   7.941   4.820   5.831  0.2703 -0.1154 -0.0257
  537MOL0     C72400   7.975   4.905   5.704 -0.0364  0.5527  0.0532
  537MOL0     C72401   7.875   4.857   5.598  1.0457 -0.1218  1.3827
  537MOL0     C72402   7.885   4.940   5.468  0.7905 -0.1297 -0.4616
  537MOL0     C72403   8.030   4.940   5.407  0.6578 -0.0785  0.0172
  537MOL0    Cl72404   8.078   4.773   5.380  0.1327 -0.4630 -0.2517
  537MOL0     C72405   7.930   4.366   6.121 -0.5307 -0.7651  0.5218
  537MOL0     C72406   7.934   4.241   6.171  0.8555 -0.0069  0.9900
  537MOL0     O72407   8.043   3.957   6.231  0.2494 -0.7226 -0.1872
  537MOL0     C72408   7.788   3.884   6.483 -0.5445  0.0167  1.2190
  537MOL0     C72409   7.737   3.769   6.544  0.0557 -0.3439  0.1538
  537MOL0     N72410   8.073   3.296   7.036 -0.4274 -0.3326 -0.8892
  537MOL0     N72411   8.194   3.321   7.020 -0.0135 -0.7199 -0.0174
  537MOL0     C72412   8.105   4.387   6.825  0.2380  0.9091 -0.1060
  537MOL0     C72413   8.068   4.514   6.784 -0.5937  0.0636  0.8850
  537MOL0     C72414   7.753   4.847   6.788 -0.4758  0.1460 -0.2885
  537MOL0     C72415   7.745   4.951   6.891 -0.2720  0.0851  0.2728
  537MOL0     C72416   7.669   5.063   6.857 -0.5276  0.1265 -1.5113
  537MOL0     C72417   7.602   5.072   6.732  0.2853  0.5633 -0.0807
  537MOL0     O72418   7.550   5.194   6.703 -0.8698 -1.0480  0.1317
  537MOL0     C72419   7.422   5.223   6.761  0.1244 -0.0704 -0.1750
  537MOL0     C72420   7.438   5.356   6.845  0.3077  0.4928 -0.2323
  537MOL0     C72421   7.299   5.397   6.910  1.0701 -0.0324  0.6118
  537MOL0     C72422   7.315   5.536   6.966 -0.1574  0.2475  1.0179
  537MOL0     C72423   7.191   5.595   7.006 -0.8903  0.3771  0.2116
  537MOL0     C72424   7.081   5.637   7.036  0.0356 -0.1992  1.4709
  537MOL0     C72425   7.605   4.963   6.643 -0.5936 -0.4418 -0.3752
  537MOL0     C72426   7.680   4.854   6.668 -0.7319 -0.1699  0.0624
  537MOL0     C72427   7.670   4.746   6.556 -1.1587  0.1243 -0.1578
  537MOL0     H72428   7.745   4.443   6.703 -0.7971 -2.4125  2.3709
  537MOL0     H72429   7.809   4.224   6.784 -0.0035 -0.7778  1.4232
  537MOL0     H72430   7.907   4.023   6.833 -0.2637  2.9391 -0.0561
  537MOL0     H72431   8.015   4.045   6.705 -2.4264 -3.0278 -0.0221
  537MOL0     H72432   8.076   3.914   6.960  1.6825  0.2762 -0.0383
  537MOL0     H72433   8.196   3.978   6.854 -0.1912 -0.7370  1.8136
  537MOL0     H72434   8.139   3.846   6.662 -0.8635 -0.7426 -0.6785
  537MOL0     H72435   8.021   3.761   6.761 -0.2281 -0.4617  3.3213
  537MOL0     H72436   8.318   3.769   6.839  0.4559 -0.1985 -1.9391
  537MOL0     H72437   8.174   3.682   6.926  2.7694 -2.6019  1.0212
  537MOL0     H72438   8.162   3.511   6.779  1.0288 -2.3115 -0.8164
  537MOL0     H72439   8.169   3.609   6.651  1.7871  2.1694  1.2351
  537MOL0     H72440   8.373   3.488   6.614  0.4307 -2.4535  1.7367
  537MOL0     H72441   8.446   3.621   6.707  3.3919 -3.7895  1.4890
  537MOL0     H72442   8.417   3.498   6.915  3.0347 -1.1639  1.4305
  537MOL0     H72443   8.541   3.446   6.806  0.3005 -1.0962  3.4356
  537MOL0     H72444   8.369   3.278   6.722  0.7249 -2.0363  0.5676
  537MOL0     H72445   8.424   3.238   6.883 -0.3681  0.1314  1.0062
  537MOL0     H72446   8.107   3.190   6.736 -1.7392 -2.1480 -0.0879
  537MOL0     H72447   7.874   3.153   6.820 -1.2102 -1.6863  1.1439
  537MOL0     H72448   7.839   3.161   6.995 -0.4019 -0.4079 -1.2302
  537MOL0     H72449   7.689   3.337   6.918 -0.5546  1.9383 -0.6483
  537MOL0     H72450   7.834   3.432   6.932  0.8914 -1.2624  1.4522
  537MOL0     H72451   7.751   3.294   6.673 -2.4513  0.0438 -0.8745
  537MOL0     H72452   7.894   3.375   6.706  0.9261  2.6764  2.5291
  537MOL0     H72453   7.750   3.605   6.752 -2.5509  0.4647  0.1182
  537MOL0     H72454   7.618   3.525   6.740 -0.3976 -5.1829  0.5183
  537MOL0     H72455   7.928   3.537   6.381  2.9321  2.5159 -0.5017
  537MOL0     H72456   7.998   3.699   6.274 -0.5934 -0.4122  0.3080
  537MOL0     H72457   7.946   4.319   6.490 -0.0591 -1.5901 -0.9521
  537MOL0     H72458   7.947   4.561   6.405  2.5636 -0.2642  0.2344
  537MOL0     H72459   7.877   4.717   6.274 -0.1738 -1.5447 -1.3185
  537MOL0     H72460   8.044   4.748   6.214  0.7499  1.2902 -1.8746
  537MOL0     H72461   7.794   4.791   6.040  1.1459 -1.3559 -2.2664
  537MOL0     H72462   7.852   4.918   6.146 -0.0045  0.4475 -0.5238
  537MOL0     H72463   7.964   4.988   5.951 -0.8309  0.5993  3.4388
  537MOL0     H72464   8.086   4.856   5.988  0.8227  0.8205 -2.1339
  537MOL0     H72465   7.833   4.802   5.840  0.7333 -2.7327  1.4121
  537MOL0     H72466   7.997   4.728   5.811  5.9778  3.2651 -1.7132
  537MOL0     H72467   8.080   4.884   5.680 -0.5904  0.6302 -2.7454
  537MOL0     H72468   7.969   5.014   5.712 -1.1375  0.4256  1.2047
  537MOL0     H72469   7.879   4.748   5.584 -2.0974 -0.2883  1.1115
  537MOL0     H72470   7.775   4.867   5.641  0.1817 -1.1281 -0.2595
  537MOL0     H72471   7.848   5.040   5.491  0.0899 -0.3898 -0.4262
  537MOL0     H72472   7.814   4.902   5.394 -0.2003 -0.0561  0.4364
  537MOL0     H72473   8.026   4.987   5.308  0.9311  2.5218  1.1499
  537MOL0     H72474   8.115   4.980   5.463  1.7798 -0.4392 -1.3660
  537MOL0     H72475   7.922   4.367   6.013 -0.0047 -1.0693  0.4777
  537MOL0     H72476   7.934   4.153   6.108  0.2411  1.4437 -1.1281
  537MOL0     H72477   7.758   3.987   6.497  1.1485  1.1005 -1.9629
  537MOL0     H72478   7.655   3.766   6.615 -2.1924  0.4071 -2.2414
  537MOL0     H72479   8.201   4.364   6.873 -0.1134 -0.2444  0.0853
  537MOL0     H72480   8.137   4.598   6.785 -0.0158 -0.3418 -1.0890
  537MOL0     H72481   7.814   4.935   6.973  1.0902 -0.2138 -0.8842
  537MOL0     H72482   7.652   5.137   6.934  1.8660  2.5880 -3.1942
  537MOL0     H72483   7.393   5.150   6.837  1.9517  0.9071  1.5559
  537MOL0     H72484   7.343   5.227   6.685 -2.8491 -0.9182  2.6560
  537MOL0     H72485   7.468   5.432   6.773  0.3045 -0.6451 -1.4725
  537MOL0     H72486   7.515   5.335   6.920 -0.6665 -1.2099  0.3599
  537MOL0     H72487   7.282   5.328   6.993  0.8630 -1.3602 -0.5003
  537MOL0     H72488   7.219   5.389   6.837  1.0158  0.4524  0.6158
  537MOL0     H72489   7.378   5.532   7.055 -1.7346  1.4237  2.2505
  537MOL0     H72490   7.361   5.606   6.896  2.2531  0.1944  2.4314
  537MOL0     H72491   6.980   5.669   7.048 -0.7804 -2.9787  2.8010
  537MOL0     H72492   7.552   4.984   6.550  3.4430  0.4947 -2.7250
  537MOL0     H72493   7.576   4.767   6.504 -1.6983 -1.4172  0.1446
  537MOL0     H72494   7.754   4.751   6.487 -0.4679  3.0443  0.7532
  537MOL0     H72495   7.685   4.644   6.591  3.1689 -0.3158 -2.6269
  538MOL0     O72496   9.551   8.178   8.709 -0.2704 -0.6114  0.5318
  538MOL0     C72497   9.576   8.214   8.824  0.5481 -0.3271  0.2727
  538MOL0     O72498   9.622   8.332   8.857  0.6351  0.1280 -0.3353
  538MOL0     C72499   9.724   8.391   8.788 -0.8785  0.2121  0.4290
  538MOL0     C72500   9.695   8.470   8.679  0.0954 -0.1790 -0.9729
  538MOL0     C72501   9.801   8.527   8.613  0.8510 -0.1158  0.4886
  538MOL0     C72502   9.930   8.515   8.658  0.4154  0.5557  0.6420
  538MOL0     O72503  10.017   8.616   8.615 -0.0229  0.0646  0.4838
  538MOL0     C72504  10.156   8.568   8.590 -0.1547 -0.3956 -0.1909
  538MOL0     C72505  10.237   8.686   8.532 -0.6108  0.8278  0.4251
  538MOL0     C72506  10.375   8.638   8.490 -0.3965  0.4728  0.8628
  538MOL0     C72507  10.362   8.565   8.346  0.2347 -0.0469 -0.0501
  538MOL0     C72508  10.476   8.470   8.323 -0.4609  0.1615 -0.3780
  538MOL0     C72509  10.618   8.540   8.335 -0.8800 -0.1443 -1.2182
  538MOL0     C72510  10.722   8.472   8.233 -0.1502  0.1114 -0.1100
  538MOL0     C72511  10.703   8.540   8.103  0.0439 -0.1064 -0.4083
  538MOL0     N72512  10.798   8.486   8.012  0.2748  0.3302  0.7178
  538MOL0     C72513  10.835   8.349   7.990  0.1104  0.1368 -0.7088
  538MOL0     C72514  10.936   8.351   7.898 -0.1697  0.0455 -0.4284
  538MOL0     C72515  11.003   8.225   7.847  0.2603  1.0436  0.2267
  538MOL0     C72516  10.909   8.176   7.728  0.2262 -0.1517 -0.7784
  538MOL0     C72517  10.775   8.106   7.760  0.2786  0.9584 -0.1332
  538MOL0     C72518  10.789   7.960   7.802 -0.3998 -0.0688  0.0363
  538MOL0     O72519  10.862   7.945   7.925 -0.4454 -1.5008 -0.1184
  538MOL0     C72520  10.796   7.984   8.037  0.2059  0.6568  0.1950
  538MOL0     C72521  10.662   8.013   8.051 -0.2514  0.5229  0.0969
  538MOL0     C72522  10.596   8.046   8.170  0.5675  0.4748  0.0225
  538MOL0     C72523  10.676   8.048   8.282  0.2738  0.8337  0.4959
  538MOL0     C72524  10.601   8.060   8.408 -0.0927 -0.8144 -0.5970
  538MOL0     O72525  10.461   8.062   8.392  0.3391 -0.5909  0.3327
  538MOL0     C72526  10.381   8.063   8.508  0.2850 -0.0942  0.2272
  538MOL0     C72527  10.255   8.127   8.494 -0.1426 -0.4450  0.0805
  538MOL0     C72528  10.160   8.131   8.585 -0.7153 -0.3837 -0.1393
  538MOL0     C72529  10.175   8.065   8.700 -0.0016 -0.1813  0.3328
  538MOL0     O72530  10.078   8.072   8.799  0.2649  0.4381  0.4065
  538MOL0     C72531   9.939   8.046   8.771  0.1159 -0.0670 -0.1633
  538MOL0     C72532   9.927   7.895   8.814  0.5767  0.1529  0.2498
  538MOL0     C72533   9.904   7.891   8.969 -0.5002  0.4395 -0.1412
  538MOL0     C72534   9.905   7.747   9.027 -0.4162 -0.2163 -0.1593
  538MOL0     C72535   9.811   7.669   8.942  0.1120 -0.7508 -0.4590
  538MOL0     C72536   9.786   7.522   8.977  0.4773 -0.8822 -0.9334
  538MOL0     C72537   9.910   7.437   8.985  0.0490 -0.3437  0.5648
  538MOL0     C72538   9.872   7.290   8.958 -0.4273  1.0673 -0.7119
  538MOL0    Cl72539   9.735   7.247   9.071  0.0340 -0.4232 -0.3860
  538MOL0     C72540  10.295   7.991   8.724  0.6428 -0.0310  0.1589
  538MOL0     C72541  10.399   7.992   8.631  0.6052  0.3530  0.0756
  538MOL0     O72542  10.660   8.080   8.513 -0.0667 -0.5260  0.1176
  538MOL0     C72543  10.817   8.028   8.282  0.0362 -0.2578  0.5490
  538MOL0     C72544  10.874   7.990   8.155  0.3120  0.5675  0.5293
  538MOL0     N72545  10.961   8.480   7.862  0.3663 -0.2840 -0.5875
  538MOL0     N72546  10.870   8.556   7.923  0.0788 -0.8920  0.2629
  538MOL0     C72547   9.955   8.434   8.763 -0.0256  1.7571 -0.7336
  538MOL0     C72548   9.857   8.373   8.833  0.8670  0.4833 -0.5521
  538MOL0     C72549   9.541   8.124   8.934 -0.0357 -0.7474 -0.0632
  538MOL0     C72550   9.510   8.185   9.054  0.0953 -0.8275  0.4759
  538MOL0     C72551   9.466   8.119   9.165  0.1932 -0.3512 -0.2171
  538MOL0     C72552   9.449   7.984   9.172 -0.4199 -0.7508  0.6655
  538MOL0     O72553   9.409   7.915   9.276  0.6683  0.5277 -0.1882
  538MOL0     C72554   9.512   7.842   9.341  0.5036 -1.3601  0.7462
  538MOL0     C72555   9.461   7.749   9.448 -1.0047  0.6329  0.1333
  538MOL0     C72556   9.570   7.641   9.492  0.1368  0.4286  0.0692
  538MOL0     C72557   9.511   7.539   9.605 -0.6726 -0.3774 -0.7030
  538MOL0     C72558   9.493   7.608   9.734 -0.1424 -0.2064  0.1811
  538MOL0     C72559   9.496   7.644   9.853  0.2182 -0.0551  0.8394
  538MOL0     C72560   9.466   7.913   9.045  0.0310 -0.3702  0.8292
  538MOL0     C72561   9.514   7.980   8.927  0.1617 -0.8018 -0.7247
  538MOL0     C72562   9.516   7.903   8.800  1.4017 -1.0051 -0.0314
  538MOL0     H72563   9.593   8.485   8.646 -0.0503  0.4318 -0.2788
  538MOL0     H72564   9.790   8.602   8.536 -0.9023 -2.5119 -1.7705
  538MOL0     H72565  10.204   8.554   8.687 -0.2088 -1.1166 -0.2628
  538MOL0     H72566  10.167   8.484   8.522  4.4973  0.4710 -0.8443
  538MOL0     H72567  10.237   8.759   8.613 -0.0093 -0.5043  1.6863
  538MOL0     H72568  10.193   8.731   8.443 -0.1243  0.7181  0.1282
  538MOL0     H72569  10.419   8.570   8.563  0.8198  0.9028  0.5532
  538MOL0     H72570  10.447   8.720   8.487 -1.0709  1.0597  0.4052
  538MOL0     H72571  10.269   8.508   8.357 -0.0678  0.1962 -1.1690
  538MOL0     H72572  10.354   8.639   8.266 -0.3743  0.7006  0.6913
  538MOL0     H72573  10.467   8.385   8.391 -0.2319 -1.0037 -1.7695
  538MOL0     H72574  10.471   8.427   8.223  0.2814 -0.3265 -0.2149
  538MOL0     H72575  10.609   8.646   8.310 -1.8120 -0.1957 -1.1590
  538MOL0     H72576  10.656   8.528   8.437 -0.5254 -0.1702 -1.3545
  538MOL0     H72577  10.716   8.365   8.212  1.8175  0.6724 -4.6440
  538MOL0     H72578  10.821   8.483   8.279 -1.4434  1.2741  2.6811
  538MOL0     H72579  10.600   8.527   8.070 -0.8420  1.0665  1.6572
  538MOL0     H72580  10.719   8.647   8.116 -0.0066 -0.3633  2.3722
  538MOL0     H72581  10.799   8.259   8.037  0.5657 -1.6110 -3.4590
  538MOL0     H72582  11.097   8.248   7.795  0.7497 -0.8003  0.2185
  538MOL0     H72583  11.024   8.161   7.933 -0.9780  1.2093  0.6663
  538MOL0     H72584  10.885   8.264   7.667  2.5428 -0.4878 -2.3140
  538MOL0     H72585  10.982   8.119   7.669  1.8433  0.4353  0.5813
  538MOL0     H72586  10.712   8.118   7.672  0.3231  0.1312 -0.2807
  538MOL0     H72587  10.713   8.158   7.834 -0.3597  0.6566 -0.4465
  538MOL0     H72588  10.844   7.921   7.716 -2.0108 -0.2485 -0.9616
  538MOL0     H72589  10.692   7.909   7.805 -0.4337 -0.0009  3.1517
  538MOL0     H72590  10.592   8.017   7.968 -0.3701 -1.5556  0.0398
  538MOL0     H72591  10.490   8.070   8.163  0.6101  0.2116 -2.9324
  538MOL0     H72592  10.243   8.188   8.405 -6.5781 -3.4499 -1.7617
  538MOL0     H72593  10.071   8.187   8.561  1.0085  2.0440 -1.3401
  538MOL0     H72594   9.871   8.097   8.839  0.5415  0.9994 -0.5212
  538MOL0     H72595   9.920   8.058   8.664  1.1256  0.3643 -0.3038
  538MOL0     H72596   9.850   7.850   8.751  1.3961  0.1695 -0.7952
  538MOL0     H72597  10.019   7.844   8.782  0.0526 -2.7266  2.8215
  538MOL0     H72598   9.981   7.950   9.020 -0.3328  0.7171 -0.7031
  538MOL0     H72599   9.814   7.946   8.999  0.5310  2.4870 -0.5885
  538MOL0     H72600   9.884   7.743   9.135 -0.8668  1.4616 -0.1565
  538MOL0     H72601  10.009   7.718   9.013 -0.5605  0.3279 -2.9119
  538MOL0     H72602   9.844   7.656   8.839 -0.9844  1.8703 -1.2156
  538MOL0     H72603   9.716   7.723   8.937  0.2531  0.1280  3.2873
  538MOL0     H72604   9.723   7.516   9.067 -1.9554  3.9982 -1.9400
  538MOL0     H72605   9.715   7.488   8.901 -1.2626 -0.3804  0.3830
  538MOL0     H72606   9.962   7.447   9.081 -1.4324  2.4513  1.1811
  538MOL0     H72607   9.978   7.457   8.902 -0.7573 -2.1809 -0.6018
  538MOL0     H72608   9.846   7.274   8.853  1.6729  0.8069 -1.2465
  538MOL0     H72609   9.963   7.231   8.973 -0.4786  0.8424 -1.2819
  538MOL0     H72610  10.292   7.937   8.818 -3.3065 -2.4454 -1.1125
  538MOL0     H72611  10.500   7.955   8.648  2.4612  2.9988 -3.8563
  538MOL0     H72612  10.875   8.036   8.374  1.4380  1.6607 -0.4352
  538MOL0     H72613  10.975   7.953   8.143 -0.4669 -1.0347 -1.7050
  538MOL0     H72614  10.059   8.423   8.794 -0.1957  2.9736  0.3736
  538MOL0     H72615   9.867   8.312   8.922  0.4069 -2.0963 -2.1624
  538MOL0     H72616   9.506   8.293   9.067 -1.5966 -0.9321  1.0415
  538MOL0     H72617   9.418   8.170   9.248 -0.6019 -2.5938  0.7593
  538MOL0     H72618   9.581   7.910   9.393  0.6487 -0.9725  0.0561
  538MOL0     H72619   9.570   7.787   9.266  0.8136  1.0517 -0.9130
  538MOL0     H72620   9.364   7.701   9.433  0.8529 -3.8253  0.7711
  538MOL0     H72621   9.434   7.814   9.532  0.9077  0.6139  0.8292
  538MOL0     H72622   9.657   7.695   9.531  2.3186 -3.7101  1.5326
  538MOL0     H72623   9.589   7.581   9.403  0.6104  0.8897 -0.1529
  538MOL0     H72624   9.414   7.500   9.573 -0.3627  0.6068 -3.0483
  538MOL0     H72625   9.581   7.456   9.619  0.0163  0.4045  0.7020
  538MOL0     H72626   9.500   7.667   9.957 -1.1670  1.7083  0.5409
  538MOL0     H72627   9.452   7.805   9.046  1.6394 -0.6077  0.5322
  538MOL0     H72628   9.516   7.794   8.814  3.9697 -0.8185  2.3285
  538MOL0     H72629   9.434   7.929   8.733  1.2983  0.5244  0.6384
  538MOL0     H72630   9.605   7.928   8.741  0.6540  0.7956 -0.4639
  539MOL0     O72631   3.758   7.355   4.608  0.9366 -0.1139  0.2814
  539MOL0     C72632   3.712   7.276   4.693 -0.0406  0.7772 -0.5766
  539MOL0     O72633   3.675   7.135   4.677 -0.3701 -1.1382  0.8694
  539MOL0     C72634   3.654   7.089   4.547 -1.2550 -0.7057 -0.3811
  539MOL0     C72635   3.604   7.156   4.439 -0.4450 -0.4838 -0.2951
  539MOL0     C72636   3.586   7.096   4.312  0.8132 -0.6934  1.0353
  539MOL0     C72637   3.616   6.964   4.296  0.0136 -0.4163  0.5514
  539MOL0     O72638   3.566   6.910   4.179  0.0003  0.1221  0.1967
  539MOL0     C72639   3.608   6.786   4.126 -1.0667  0.7109 -0.7187
  539MOL0     C72640   3.536   6.758   3.989  0.5396 -0.1373 -0.2591
  539MOL0     C72641   3.552   6.613   3.958  0.9066  0.6518  0.2341
  539MOL0     C72642   3.470   6.565   3.831  0.7030 -0.3117 -0.9970
  539MOL0     C72643   3.483   6.636   3.694  0.0076 -0.9058  0.1541
  539MOL0     C72644   3.429   6.565   3.578  0.2572  0.1081 -0.7415
  539MOL0     C72645   3.437   6.642   3.449  0.8456  0.3850  0.8177
  539MOL0     C72646   3.494   6.547   3.345 -0.3352 -0.5168  0.3957
  539MOL0     N72647   3.414   6.422   3.325 -0.0869  0.4636 -0.3082
  539MOL0     C72648   3.285   6.410   3.281  0.3986 -0.0100  0.7853
  539MOL0     C72649   3.261   6.282   3.291  0.1553 -0.2583  0.9156
  539MOL0     C72650   3.136   6.209   3.263  0.4416  0.9888  0.3840
  539MOL0     C72651   3.006   6.253   3.339  0.1230  0.7564 -0.2245
  539MOL0     C72652   2.891   6.165   3.288 -0.6654  0.5574  0.0815
  539MOL0     C72653   2.755   6.224   3.320 -0.4364 -0.5122  0.1144
  539MOL0     O72654   2.750   6.335   3.231 -0.2090 -0.3295  0.7564
  539MOL0     C72655   2.663   6.436   3.273 -0.3598  0.7948 -0.5296
  539MOL0     C72656   2.691   6.570   3.248 -0.2269  0.6513  0.7454
  539MOL0     C72657   2.634   6.674   3.307 -0.7921 -0.1511  0.8049
  539MOL0     C72658   2.518   6.645   3.386 -0.2960  0.0522 -0.7582
  539MOL0     C72659   2.447   6.757   3.466  0.5988  0.3917 -0.1254
  539MOL0     O72660   2.320   6.723   3.513  0.3051 -0.0864  1.1643
  539MOL0     C72661   2.239   6.803   3.599  0.1123  0.3515  0.0958
  539MOL0     C72662   2.302   6.883   3.686  0.9702  0.3516 -0.6179
  539MOL0     C72663   2.231   6.959   3.784 -0.3618  0.1819  0.5837
  539MOL0     C72664   2.096   6.935   3.791 -0.4986 -0.6992  0.6753
  539MOL0     O72665   2.023   7.017   3.879 -0.3490  0.7183  0.8894
  539MOL0     C72666   1.895   6.971   3.933  0.1355  0.4275  0.2567
  539MOL0     C72667   1.835   7.085   4.014 -0.0037 -1.0376  1.1093
  539MOL0     C72668   1.871   7.070   4.159 -0.8799  0.5346 -0.5963
  539MOL0     C72669   1.801   7.196   4.230  0.5463  1.1963  0.3952
  539MOL0     C72670   1.815   7.204   4.386  0.3788  0.3313  0.0050
  539MOL0     C72671   1.755   7.082   4.466 -0.0763 -0.0477  0.0559
  539MOL0     C72672   1.809   7.080   4.607  0.5881 -0.4775 -1.2536
  539MOL0     C72673   1.751   6.968   4.700 -0.1110  0.0744  0.9753
  539MOL0    Cl72674   1.766   6.811   4.623 -0.1225 -0.5056  0.1382
  539MOL0     C72675   2.034   6.851   3.702 -0.5565 -0.1586  0.0893
  539MOL0     C72676   2.101   6.785   3.600 -0.5954 -0.2844 -0.5605
  539MOL0     O72677   2.516   6.853   3.494 -0.5236 -0.4494 -0.0500
  539MOL0     C72678   2.468   6.517   3.394 -0.1398  0.2382 -0.1214
  539MOL0     C72679   2.551   6.412   3.352 -0.0802 -0.8503 -0.6643
  539MOL0     N72680   3.375   6.229   3.352 -0.2081  0.5929 -0.9335
  539MOL0     N72681   3.467   6.306   3.365 -0.0384  0.1369  0.5045
  539MOL0     C72682   3.669   6.897   4.405 -0.2128 -0.0132  0.0288
  539MOL0     C72683   3.690   6.954   4.525  0.1528 -0.7870 -0.6128
  539MOL0     C72684   3.716   7.329   4.834 -0.3439  0.7005  0.0370
  539MOL0     C72685   3.723   7.235   4.942 -0.5849 -1.1116 -0.0818
  539MOL0     C72686   3.706   7.263   5.078 -0.0056  0.6134 -0.0833
  539MOL0     C72687   3.695   7.401   5.112 -0.0023  0.8213 -0.0451
  539MOL0     O72688   3.687   7.417   5.252 -0.4774  0.2373 -0.2415
  539MOL0     C72689   3.639   7.548   5.301  0.6056 -1.2535 -0.1021
  539MOL0     C72690   3.485   7.570   5.284 -0.3443 -0.5236 -0.4042
  539MOL0     C72691   3.420   7.443   5.345  0.4069 -0.8149  0.1578
  539MOL0     C72692   3.268   7.437   5.321  0.9666  0.5454  0.4767
  539MOL0     C72693   3.196   7.558   5.341 -0.0187 -1.5211 -0.2015
  539MOL0     C72694   3.137   7.666   5.363  0.6740  1.2921  0.5869
  539MOL0     C72695   3.689   7.495   5.012  1.9343  0.1029 -0.6937
  539MOL0     C72696   3.691   7.467   4.873 -1.2488  0.3339  0.2084
  539MOL0     C72697   3.659   7.579   4.775 -0.1855  0.4063  0.4792
  539MOL0     H72698   3.574   7.260   4.449 -0.1354 -0.3430 -0.7638
  539MOL0     H72699   3.547   7.155   4.229  2.3923  2.7311  2.4998
  539MOL0     H72700   3.714   6.793   4.103 -1.0419 -1.7690 -1.5749
  539MOL0     H72701   3.592   6.699   4.190  2.3824  0.9815  0.7115
  539MOL0     H72702   3.568   6.827   3.911  3.0833 -0.0941  0.7408
  539MOL0     H72703   3.433   6.784   4.014 -0.1233  1.0878 -3.7235
  539MOL0     H72704   3.504   6.560   4.041 -0.5212  1.5171 -0.0055
  539MOL0     H72705   3.656   6.582   3.948  1.1906  2.0367 -1.9523
  539MOL0     H72706   3.490   6.459   3.816 -4.5694 -1.8130  0.4508
  539MOL0     H72707   3.367   6.578   3.867  1.4039  0.9825  0.6799
  539MOL0     H72708   3.434   6.734   3.703  1.5476 -0.0958  0.0724
  539MOL0     H72709   3.587   6.664   3.676  0.6062 -1.8727  1.8822
  539MOL0     H72710   3.487   6.473   3.574  1.0560  0.6105 -1.0964
  539MOL0     H72711   3.325   6.536   3.597  0.1598 -1.2463 -3.0021
  539MOL0     H72712   3.510   6.723   3.455  1.0550  0.3758 -0.9775
  539MOL0     H72713   3.334   6.672   3.425  0.4365 -2.8465 -2.1913
  539MOL0     H72714   3.505   6.599   3.249 -0.5611 -0.4870  0.3855
  539MOL0     H72715   3.593   6.512   3.375  0.1248 -0.2530 -0.7506
  539MOL0     H72716   3.221   6.480   3.229 -1.3600 -1.5798  0.7330
  539MOL0     H72717   3.137   6.221   3.154  1.5125 -0.7291  0.1666
  539MOL0     H72718   3.162   6.106   3.288 -0.3828  0.8471  0.6593
  539MOL0     H72719   3.015   6.244   3.447 -0.4657  1.2765 -0.1240
  539MOL0     H72720   2.998   6.360   3.317 -4.1766  1.2219  2.4472
  539MOL0     H72721   2.901   6.071   3.343 -1.8582 -0.3604 -1.1977
  539MOL0     H72722   2.902   6.142   3.182 -0.7779  1.2873 -0.0929
  539MOL0     H72723   2.745   6.255   3.424  3.0822 -0.5807  0.5972
  539MOL0     H72724   2.681   6.146   3.299  3.1462 -3.6058 -2.3659
  539MOL0     H72725   2.759   6.598   3.169 -1.1410 -0.2890 -0.4113
  539MOL0     H72726   2.678   6.773   3.297 -2.3616  0.5574  0.6396
  539MOL0     H72727   2.408   6.907   3.683  0.3642  4.2056  1.3158
  539MOL0     H72728   2.271   7.001   3.876 -1.6769  0.2718  1.1458
  539MOL0     H72729   1.832   6.946   3.847  1.5687 -0.9473 -0.4552
  539MOL0     H72730   1.904   6.881   3.994  1.7140 -0.5946 -1.3920
  539MOL0     H72731   1.861   7.183   3.972  0.7178 -1.9658 -0.7341
  539MOL0     H72732   1.727   7.071   4.000  0.3799 -1.9196 -1.7663
  539MOL0     H72733   1.848   6.969   4.194 -0.0069  0.2905 -0.6817
  539MOL0     H72734   1.976   7.096   4.180 -1.8278  5.1864 -0.5511
  539MOL0     H72735   1.696   7.192   4.198  0.6493  0.9620  0.0779
  539MOL0     H72736   1.850   7.291   4.206 -1.1529  2.3387  1.2539
  539MOL0     H72737   1.770   7.294   4.429  2.7424  1.6301 -0.1238
  539MOL0     H72738   1.923   7.216   4.391  0.8122 -1.3317 -2.9632
  539MOL0     H72739   1.648   7.103   4.469 -0.3299 -1.2736  2.8576
  539MOL0     H72740   1.780   6.990   4.412 -2.2750  0.8031 -2.6459
  539MOL0     H72741   1.793   7.181   4.646  1.7106 -0.7809  0.0310
  539MOL0     H72742   1.918   7.075   4.597  0.6770 -0.3300 -0.4193
  539MOL0     H72743   1.807   6.952   4.793 -0.2864 -0.0294  1.0644
  539MOL0     H72744   1.650   6.979   4.740  0.0409  1.3281  1.0387
  539MOL0     H72745   1.928   6.830   3.705 -0.6750  0.5152  1.4039
  539MOL0     H72746   2.055   6.712   3.534 -1.7600  1.8533 -2.2468
  539MOL0     H72747   2.385   6.496   3.461  2.5800 -4.1328  2.3452
  539MOL0     H72748   2.518   6.310   3.367  0.7163 -0.8644  1.2193
  539MOL0     H72749   3.691   6.791   4.399  1.1864  0.1064  2.1611
  539MOL0     H72750   3.728   6.895   4.607 -1.0222 -2.7613 -1.4085
  539MOL0     H72751   3.728   7.130   4.912  0.9100 -0.6604 -1.5438
  539MOL0     H72752   3.698   7.188   5.156  0.4037  1.2479  0.5834
  539MOL0     H72753   3.694   7.632   5.259  2.9015 -1.5820  1.9867
  539MOL0     H72754   3.659   7.550   5.409 -0.7538  0.6313  0.1590
  539MOL0     H72755   3.463   7.573   5.177 -3.8646  1.5475  0.2380
  539MOL0     H72756   3.444   7.661   5.328 -1.6582 -1.0471 -0.4927
  539MOL0     H72757   3.441   7.434   5.452  0.9679 -1.9623 -0.0294
  539MOL0     H72758   3.470   7.354   5.304 -2.1719 -1.0242 -2.9028
  539MOL0     H72759   3.255   7.407   5.217 -0.0059  0.6677  0.5520
  539MOL0     H72760   3.222   7.350   5.368 -1.7808  0.3872 -2.1907
  539MOL0     H72761   3.088   7.760   5.382  0.8954  1.2455  1.4237
  539MOL0     H72762   3.671   7.596   5.045 -2.1838  0.4697 -3.4277
  539MOL0     H72763   3.590   7.538   4.701  0.8036 -2.5874  1.1019
  539MOL0     H72764   3.620   7.667   4.827  0.3223 -0.0174  1.5969
  539MOL0     H72765   3.754   7.603   4.726  0.3139 -2.6417 -0.2018
  540MOL0     O72766   5.458   4.408  11.077 -0.1000 -0.0987  0.5636
  540MOL0     C72767   5.564   4.386  11.136  0.3027 -0.4268  0.2500
  540MOL0     O72768   5.613   4.468  11.230  0.0373 -0.0146 -0.7423
  540MOL0     C72769   5.532   4.565  11.291 -1.8001  0.1074 -0.2583
  540MOL0     C72770   5.590   4.690  11.284 -0.2138 -0.1350 -0.9916
  540MOL0     C72771   5.511   4.788  11.340  0.0194  0.2088 -0.4482
  540MOL0     C72772   5.384   4.770  11.411 -0.3974  0.0763 -0.1953
  540MOL0     O72773   5.303   4.872  11.465 -0.3707  0.0956 -0.7406
  540MOL0     C72774   5.341   5.007  11.425 -0.3527 -0.0065 -0.5009
  540MOL0     C72775   5.239   5.097  11.507  0.7683  0.0783 -0.3563
  540MOL0     C72776   5.253   5.245  11.467  0.5433 -0.2680 -0.0748
  540MOL0     C72777   5.169   5.270  11.325 -0.6483 -0.0625  1.1119
  540MOL0     C72778   5.237   5.367  11.229 -0.4350  0.0735 -0.6880
  540MOL0     C72779   5.299   5.296  11.103  0.9714  0.2542 -0.6590
  540MOL0     C72780   5.352   5.395  11.006 -0.0813  0.1494 -0.7493
  540MOL0     C72781   5.375   5.311  10.885 -0.4513  0.0261 -0.3470
  540MOL0     N72782   5.420   5.393  10.765 -0.4771 -0.5694 -0.5395
  540MOL0     C72783   5.503   5.507  10.771  1.0150  0.3574  0.3513
  540MOL0     C72784   5.498   5.540  10.632  0.2548  0.4800 -1.0431
  540MOL0     C72785   5.564   5.662  10.574 -0.2564  0.6195  0.2565
  540MOL0     C72786   5.722   5.659  10.552 -0.6448  0.4940 -1.3665
  540MOL0     C72787   5.784   5.749  10.656 -1.0310  0.4754 -1.3516
  540MOL0     C72788   5.802   5.901  10.612 -0.6852  1.3437 -0.6246
  540MOL0     O72789   5.881   5.957  10.711 -0.1947 -0.3145 -0.0362
  540MOL0     C72790   6.015   5.936  10.725 -0.3346  0.0774 -0.7792
  540MOL0     C72791   6.082   6.008  10.819  0.5375 -0.3747 -0.4870
  540MOL0     C72792   6.218   5.997  10.836 -0.6141 -0.3280 -0.4595
  540MOL0     C72793   6.296   5.913  10.757 -0.4895  0.0203  0.1430
  540MOL0     C72794   6.441   5.891  10.779 -0.3871  0.7066 -0.1948
  540MOL0     O72795   6.500   5.934  10.895  0.8017 -0.4463  0.6008
  540MOL0     C72796   6.634   5.971  10.892  0.0622 -0.1054  0.5222
  540MOL0     C72797   6.729   5.905  10.962 -0.0590  0.7248 -0.1313
  540MOL0     C72798   6.868   5.952  10.946  0.0466  1.2470 -0.0597
  540MOL0     C72799   6.904   6.054  10.854  0.3177 -0.2723  0.2388
  540MOL0     O72800   7.026   6.110  10.823  0.4852  0.6426  0.0600
  540MOL0     C72801   7.143   6.052  10.871  0.0943 -0.7574 -0.4268
  540MOL0     C72802   7.267   6.123  10.817 -0.7401 -0.4493 -0.0925
  540MOL0     C72803   7.410   6.101  10.886  0.1381  0.3006  0.6107
  540MOL0     C72804   7.474   5.969  10.874 -0.1661  0.2735 -1.3182
  540MOL0     C72805   7.595   5.976  10.974 -1.1688  0.3105 -0.3322
  540MOL0     C72806   7.694   5.861  10.948 -0.1006 -0.8745 -0.1429
  540MOL0     C72807   7.793   5.898  10.844  0.1441  0.0411  0.4488
  540MOL0     C72808   7.889   5.785  10.815  0.2042 -0.1108 -0.3272
  540MOL0    Cl72809   7.825   5.658  10.696 -0.3363  0.0907  0.3790
  540MOL0     C72810   6.803   6.109  10.774  0.7329 -0.8582 -0.4998
  540MOL0     C72811   6.666   6.075  10.796  0.7838  0.2112  0.1946
  540MOL0     O72812   6.505   5.835  10.689 -0.0027 -0.4253 -0.1491
  540MOL0     C72813   6.225   5.840  10.663 -0.5481 -0.4972  0.2217
  540MOL0     C72814   6.090   5.854  10.634 -0.4148  1.1669 -0.0298
  540MOL0     N72815   5.423   5.445  10.559 -0.7014 -0.4648 -0.4724
  540MOL0     N72816   5.374   5.362  10.644 -1.0595  0.3017  0.6358
  540MOL0     C72817   5.350   4.639  11.427  1.0397 -0.0899  0.2727
  540MOL0     C72818   5.407   4.537  11.350  0.2171  0.4459  0.6283
  540MOL0     C72819   5.666   4.287  11.080  1.1820 -0.5313 -0.7890
  540MOL0     C72820   5.788   4.276  11.149 -0.1149  0.1915  0.6332
  540MOL0     C72821   5.875   4.176  11.111  0.6612  0.3799  0.4538
  540MOL0     C72822   5.845   4.088  10.995 -1.5572 -0.2387  0.4018
  540MOL0     O72823   5.938   3.992  10.972 -1.2909 -0.4208  0.4090
  540MOL0     C72824   6.071   4.027  10.936  0.2561  0.1822  0.0771
  540MOL0     C72825   6.076   4.114  10.819  0.8823  0.5302  0.3058
  540MOL0     C72826   6.170   4.051  10.711 -0.9069 -0.1611  0.1311
  540MOL0     C72827   6.118   4.110  10.579 -1.0907  0.9216 -0.4045
  540MOL0     C72828   6.212   4.089  10.475  0.6078 -0.3143  0.0999
  540MOL0     C72829   6.268   4.046  10.378  0.2400  0.2058 -0.1287
  540MOL0     C72830   5.725   4.101  10.932  0.3383  0.3153 -0.0548
  540MOL0     C72831   5.631   4.199  10.975 -0.3696  0.0015  0.4145
  540MOL0     C72832   5.498   4.180  10.915  0.5127  0.7464 -0.1073
  540MOL0     H72833   5.679   4.717  11.229  0.1357 -0.3324 -0.5371
  540MOL0     H72834   5.556   4.881  11.308  1.9932 -0.4701  0.2070
  540MOL0     H72835   5.440   5.049  11.444 -0.6657  0.4394  0.1910
  540MOL0     H72836   5.319   5.018  11.318 -1.4568 -0.4260 -0.3282
  540MOL0     H72837   5.256   5.094  11.615 -0.5741  0.7049 -0.1100
  540MOL0     H72838   5.135   5.071  11.487  0.8580 -2.0429  1.5155
  540MOL0     H72839   5.362   5.261  11.466  0.9735 -2.8018  0.9237
  540MOL0     H72840   5.200   5.309  11.537 -1.9091  0.7473 -2.6512
  540MOL0     H72841   5.139   5.176  11.279 -0.2156 -0.2780  1.2576
  540MOL0     H72842   5.074   5.315  11.352 -0.7563  0.6907 -0.4016
  540MOL0     H72843   5.152   5.425  11.193 -1.0386 -0.5308 -0.2523
  540MOL0     H72844   5.316   5.425  11.278 -0.3466  0.5650 -1.3944
  540MOL0     H72845   5.381   5.234  11.142  2.1796  0.4788 -2.7140
  540MOL0     H72846   5.219   5.233  11.063 -0.7956  2.4522 -0.7809
  540MOL0     H72847   5.436   5.445  11.057 -1.5228 -0.7600  2.8268
  540MOL0     H72848   5.276   5.468  10.978 -0.8469 -0.1609  0.4393
  540MOL0     H72849   5.441   5.228  10.912 -0.1283  0.0327 -1.0766
  540MOL0     H72850   5.286   5.250  10.867 -1.8705  0.2718  4.5241
  540MOL0     H72851   5.554   5.558  10.852  2.0113 -0.2744  0.1476
  540MOL0     H72852   5.521   5.649  10.474 -1.1406 -3.8690  1.0133
  540MOL0     H72853   5.527   5.753  10.623 -3.8904 -1.0408  0.9642
  540MOL0     H72854   5.755   5.557  10.574  0.3701  0.4429 -2.9707
  540MOL0     H72855   5.759   5.673  10.450  1.9416 -0.5667 -0.6669
  540MOL0     H72856   5.884   5.711  10.678 -1.3681  0.7491  0.9149
  540MOL0     H72857   5.726   5.749  10.748  0.0870  2.5577 -0.5779
  540MOL0     H72858   5.706   5.954  10.610 -2.5591 -1.7061  0.0324
  540MOL0     H72859   5.851   5.926  10.518 -0.3192  1.7466 -0.3304
  540MOL0     H72860   6.026   6.079  10.879  1.1293  0.1828 -0.5749
  540MOL0     H72861   6.272   6.055  10.911  1.3963 -1.9841 -0.5586
  540MOL0     H72862   6.703   5.814  11.016  2.0785  0.0283 -0.1914
  540MOL0     H72863   6.956   5.918  11.000 -0.9878  0.4532  1.1824
  540MOL0     H72864   7.158   6.069  10.978  3.4090 -1.6517 -0.6412
  540MOL0     H72865   7.156   5.944  10.855  1.2588 -0.7924  0.6802
  540MOL0     H72866   7.278   6.119  10.708  0.8397 -2.6349  0.0720
  540MOL0     H72867   7.251   6.229  10.838 -3.0000 -0.3529 -1.9426
  540MOL0     H72868   7.485   6.174  10.853  1.7693 -1.3137  0.5341
  540MOL0     H72869   7.392   6.112  10.993 -1.4384 -1.7679  0.6285
  540MOL0     H72870   7.514   5.938  10.777  0.5423 -2.0427 -0.3579
  540MOL0     H72871   7.402   5.893  10.905  1.0697  0.3850  2.2967
  540MOL0     H72872   7.557   5.961  11.076 -0.6834 -1.6827 -0.3953
  540MOL0     H72873   7.641   6.075  10.976 -1.0390  0.2907  3.0179
  540MOL0     H72874   7.741   5.832  11.043 -1.8867 -3.7687 -0.0216
  540MOL0     H72875   7.636   5.773  10.918 -0.5543 -0.4521 -0.5195
  540MOL0     H72876   7.846   5.990  10.873  3.2823 -1.5231  0.0755
  540MOL0     H72877   7.732   5.937  10.761  0.3451  2.4804  1.3652
  540MOL0     H72878   7.976   5.836  10.772  1.7081  0.2547  2.8690
  540MOL0     H72879   7.933   5.732  10.900 -0.3363 -1.7849 -1.0556
  540MOL0     H72880   6.833   6.188  10.707 -0.2148 -0.4640 -0.4741
  540MOL0     H72881   6.586   6.128  10.744  1.0358  0.5914  0.1837
  540MOL0     H72882   6.289   5.777  10.602 -1.4140  1.7627 -3.3152
  540MOL0     H72883   6.044   5.802  10.551  1.7132  3.5546 -2.9109
  540MOL0     H72884   5.267   4.611  11.491  0.6888  0.6549  0.1510
  540MOL0     H72885   5.369   4.436  11.343 -0.6626  0.7101  1.4295
  540MOL0     H72886   5.820   4.348  11.223 -1.3055  0.0749  1.2889
  540MOL0     H72887   5.967   4.166  11.168  0.8378 -0.7255  0.0168
  540MOL0     H72888   6.123   3.930  10.931 -0.1531 -0.1252  1.3681
  540MOL0     H72889   6.114   4.083  11.020 -0.8528 -1.4500  1.8205
  540MOL0     H72890   6.125   4.210  10.841  2.5061 -0.2624  0.2803
  540MOL0     H72891   5.978   4.123  10.770 -0.3911 -2.5817  2.0382
  540MOL0     H72892   6.180   3.943  10.703  2.8739 -0.0177  1.0694
  540MOL0     H72893   6.267   4.097  10.732  0.3739 -1.4251 -2.5678
  540MOL0     H72894   6.025   4.058  10.554 -1.2046  2.2003 -2.9285
  540MOL0     H72895   6.106   4.219  10.585  3.1405  1.6848 -2.2562
  540MOL0     H72896   6.331   4.008  10.299  0.8943 -2.2335  1.4382
  540MOL0     H72897   5.699   4.040  10.846 -0.1991  1.4469 -0.7100
  540MOL0     H72898   5.490   4.085  10.862  0.3180 -0.8565  2.6154
  540MOL0     H72899   5.426   4.175  10.997  0.4662 -0.9466 -0.2022
  540MOL0     H72900   5.468   4.254  10.841 -3.4975 -0.9697 -0.4706
  541MOL0     O72901   7.642   9.009  11.298 -0.0419  0.2121  0.6614
  541MOL0     C72902   7.541   8.933  11.285  0.1238  0.0802  0.4066
  541MOL0     O72903   7.414   8.968  11.298  0.5531  0.7966  0.1239
  541MOL0     C72904   7.392   9.096  11.322  0.2899 -0.2786 -0.3716
  541MOL0     C72905   7.321   9.174  11.223 -0.7327 -0.6104  0.2249
  541MOL0     C72906   7.275   9.301  11.254  0.1911 -0.9037  1.1358
  541MOL0     C72907   7.288   9.348  11.385  0.3229  0.1099  0.3591
  541MOL0     O72908   7.235   9.479  11.416  0.1208  0.7598  0.4368
  541MOL0     C72909   7.173   9.558  11.315 -0.2451 -0.0689  0.0853
  541MOL0     C72910   7.104   9.678  11.380 -0.9042  1.0723 -0.6257
  541MOL0     C72911   7.098   9.779  11.269  0.0906 -1.5460 -0.6601
  541MOL0     C72912   6.998   9.893  11.296 -1.1971  0.3707 -0.9804
  541MOL0     C72913   6.944   9.936  11.162 -0.5269 -0.1817 -0.0833
  541MOL0     C72914   6.855  10.064  11.198 -0.5195 -0.2790 -0.3117
  541MOL0     C72915   6.787  10.096  11.063  0.2543  1.0922 -0.4999
  541MOL0     C72916   6.696  10.218  11.091 -0.6836  0.3865 -0.1993
  541MOL0     N72917   6.666  10.286  10.969 -0.1825 -0.0765 -0.6340
  541MOL0     C72918   6.577  10.243  10.880 -0.2145  0.0733  1.3718
  541MOL0     C72919   6.585  10.335  10.779 -0.1224  0.0572 -1.3724
  541MOL0     C72920   6.510  10.328  10.646  0.3333  0.5283 -0.2902
  541MOL0     C72921   6.357  10.298  10.675  0.4779 -0.1903  0.8006
  541MOL0     C72922   6.277  10.227  10.560 -0.5196  0.0581  0.1589
  541MOL0     C72923   6.296  10.080  10.569  0.8033 -0.4355  0.1152
  541MOL0     O72924   6.226  10.006  10.674 -0.7122 -0.1997 -0.6942
  541MOL0     C72925   6.274   9.884  10.698 -0.2675 -1.4441  1.4840
  541MOL0     C72926   6.234   9.832  10.815 -0.4337  0.7143 -0.2453
  541MOL0     C72927   6.272   9.714  10.870  0.0072  0.8976 -0.5259
  541MOL0     C72928   6.347   9.622  10.794  0.5783 -0.3151  0.2934
  541MOL0     C72929   6.370   9.490  10.852  0.3912  1.1889  0.2149
  541MOL0     O72930   6.490   9.419  10.831  0.4068  0.2963  0.2945
  541MOL0     C72931   6.518   9.309  10.907  1.1576 -0.6422 -0.0175
  541MOL0     C72932   6.422   9.202  10.935  0.1498  0.1093  0.5385
  541MOL0     C72933   6.467   9.094  11.011 -0.4483 -0.8742  0.2039
  541MOL0     C72934   6.601   9.085  11.048 -0.9221  1.3216  0.7124
  541MOL0     O72935   6.638   8.969  11.104  0.0873  0.5164  0.6403
  541MOL0     C72936   6.769   8.963  11.150  0.1591  0.7854  0.7905
  541MOL0     C72937   6.801   8.846  11.242 -0.4713 -0.5798 -0.6467
  541MOL0     C72938   6.792   8.716  11.179 -0.1190  0.1885  0.7391
  541MOL0     C72939   6.861   8.614  11.273 -0.1102 -0.2467  0.0491
  541MOL0     C72940   6.832   8.464  11.241  0.1768  0.2136  0.3298
  541MOL0     C72941   6.905   8.430  11.113  0.3182 -1.0227  0.2701
  541MOL0     C72942   6.907   8.278  11.089 -0.1658 -0.1421  0.6472
  541MOL0     C72943   7.021   8.233  10.999  0.5815  0.3660  0.8613
  541MOL0    Cl72944   7.057   8.058  11.049 -0.0780  0.5904  0.0177
  541MOL0     C72945   6.699   9.184  11.013 -0.6488  0.0800  0.4943
  541MOL0     C72946   6.650   9.294  10.943  0.7443  0.0800 -0.0330
  541MOL0     O72947   6.287   9.454  10.937  0.2364  0.1605  0.6530
  541MOL0     C72948   6.392   9.662  10.664 -0.5062  0.1173  0.4677
  541MOL0     C72949   6.366   9.798  10.619  0.5732 -0.5337 -0.1949
  541MOL0     N72950   6.664  10.443  10.818  0.5645 -0.5395  0.2573
  541MOL0     N72951   6.714  10.405  10.930  0.5314 -0.6040 -0.7290
  541MOL0     C72952   7.356   9.276  11.480 -0.0663 -0.1610  0.6904
  541MOL0     C72953   7.408   9.149  11.451 -0.4950 -0.5675 -0.4794
  541MOL0     C72954   7.565   8.801  11.218  0.9739 -0.1178  0.1429
  541MOL0     C72955   7.455   8.732  11.173  0.2593  0.1613  0.1064
  541MOL0     C72956   7.465   8.621  11.090  0.0077 -0.3743 -1.2250
  541MOL0     C72957   7.594   8.570  11.066  0.1489  1.0385 -1.2967
  541MOL0     O72958   7.622   8.448  11.005 -0.2851 -0.9256 -0.1507
  541MOL0     C72959   7.502   8.396  10.932  0.2935  0.0441 -0.6148
  541MOL0     C72960   7.535   8.272  10.854  0.1252 -0.1055 -0.0383
  541MOL0     C72961   7.397   8.203  10.818 -1.5741 -0.7861  0.3079
  541MOL0     C72962   7.377   8.074  10.906  0.3977  0.2096 -0.4337
  541MOL0     C72963   7.386   8.092  11.047 -0.0296 -0.2895  0.2906
  541MOL0     C72964   7.389   8.103  11.167  0.5442  0.0570  0.6499
  541MOL0     C72965   7.704   8.637  11.107  0.2202 -0.2218  0.0562
  541MOL0     C72966   7.695   8.752  11.180  0.6522  0.5807  0.0018
  541MOL0     C72967   7.828   8.809  11.226  0.5891 -0.4716 -0.5817
  541MOL0     H72968   7.279   9.129  11.134 -0.3954 -1.6452  0.5659
  541MOL0     H72969   7.220   9.354  11.178  1.4621  1.7237  1.9165
  541MOL0     H72970   7.246   9.596  11.243 -1.3103  3.4442  0.6761
  541MOL0     H72971   7.099   9.498  11.262  3.4952 -2.3925 -3.1067
  541MOL0     H72972   7.169   9.698  11.465 -0.4957  0.5483 -0.8074
  541MOL0     H72973   7.002   9.650  11.408 -0.1970 -2.5155 -1.2376
  541MOL0     H72974   7.073   9.742  11.169 -4.5860 -0.7611  0.0065
  541MOL0     H72975   7.192   9.835  11.274 -0.4552 -0.7188  3.1966
  541MOL0     H72976   6.920   9.862  11.366  0.7631 -0.7127  0.8145
  541MOL0     H72977   7.048   9.970  11.355 -0.6447  2.4555 -3.8998
  541MOL0     H72978   7.030   9.963  11.100  1.7607 -1.6380  2.2559
  541MOL0     H72979   6.885   9.854  11.120 -0.6361 -0.8135  1.2597
  541MOL0     H72980   6.789  10.035  11.281  2.2966  1.6189  2.8485
  541MOL0     H72981   6.912  10.153  11.222 -3.1063  1.8409 -1.4612
  541MOL0     H72982   6.717  10.020  11.027 -1.7174  2.2160  0.7374
  541MOL0     H72983   6.855  10.122  10.981 -0.6537 -2.6523 -2.7146
  541MOL0     H72984   6.600  10.184  11.131 -1.3791  0.4518 -1.7531
  541MOL0     H72985   6.733  10.290  11.165 -0.8997 -0.6254  0.9420
  541MOL0     H72986   6.508  10.159  10.868 -1.7749  1.5802 -0.9320
  541MOL0     H72987   6.523  10.424  10.594  0.8022  0.2401 -0.7161
  541MOL0     H72988   6.559  10.252  10.585  0.9840 -0.6605  1.6294
  541MOL0     H72989   6.362  10.233  10.763 -0.2491 -1.3854 -0.0161
  541MOL0     H72990   6.318  10.391  10.719  2.4192  0.6447  0.8962
  541MOL0     H72991   6.296  10.273  10.462 -2.3189  0.4063 -0.0758
  541MOL0     H72992   6.169  10.247  10.556 -0.3086  1.5509  1.1338
  541MOL0     H72993   6.402  10.060  10.584  1.0147  1.1665  0.9488
  541MOL0     H72994   6.272  10.025  10.478  3.4410 -2.7480  0.6707
  541MOL0     H72995   6.170   9.890  10.880  0.4733 -0.6785  2.0029
  541MOL0     H72996   6.212   9.691  10.958 -0.7582  1.7487 -0.8058
  541MOL0     H72997   6.316   9.218  10.917  0.4345  0.9664 -0.4660
  541MOL0     H72998   6.397   9.012  11.024 -2.7112  0.6038 -1.8020
  541MOL0     H72999   6.840   8.941  11.069 -0.1887 -1.3378  1.0048
  541MOL0     H73000   6.801   9.056  11.197  2.8558  2.6300 -3.9629
  541MOL0     H73001   6.901   8.865  11.284 -1.3819  1.6964  0.7091
  541MOL0     H73002   6.729   8.856  11.324  0.9517  2.4485  0.3914
  541MOL0     H73003   6.690   8.691  11.147 -0.2200  2.5727 -1.1026
  541MOL0     H73004   6.842   8.729  11.083 -1.1272  1.2960  0.3333
  541MOL0     H73005   6.835   8.635  11.377  0.8820 -0.9867  0.4580
  541MOL0     H73006   6.969   8.627  11.270 -0.4477  3.3380 -0.3822
  541MOL0     H73007   6.726   8.441  11.225  0.6485 -0.7400 -1.6807
  541MOL0     H73008   6.877   8.399  11.316  0.1931 -1.1086 -0.7930
  541MOL0     H73009   6.838   8.475  11.039 -0.0921 -2.4503 -0.2706
  541MOL0     H73010   7.008   8.464  11.118  0.3606 -1.2576  1.1978
  541MOL0     H73011   6.816   8.250  11.033 -0.6876  0.8660  0.9657
  541MOL0     H73012   6.935   8.239  11.187  0.6824  0.9119  0.8402
  541MOL0     H73013   6.995   8.216  10.894 -0.7937  1.1942  1.0444
  541MOL0     H73014   7.113   8.291  11.009  0.5713  1.1080 -2.3423
  541MOL0     H73015   6.805   9.205  11.030 -0.6532  0.2259  0.3476
  541MOL0     H73016   6.711   9.380  10.918  2.0430 -0.2297  1.8422
  541MOL0     H73017   6.432   9.588  10.595 -4.4632 -1.0673 -0.8178
  541MOL0     H73018   6.403   9.819  10.519  2.1823 -2.4074 -0.0541
  541MOL0     H73019   7.370   9.318  11.579  3.1427  0.3274  0.1303
  541MOL0     H73020   7.458   9.093  11.529 -0.6353 -0.7591 -0.5271
  541MOL0     H73021   7.360   8.769  11.210  1.2975  1.2286  1.8462
  541MOL0     H73022   7.381   8.555  11.073 -0.2045 -0.2464 -0.7068
  541MOL0     H73023   7.460   8.468  10.862  3.7510  1.3282 -1.5852
  541MOL0     H73024   7.417   8.370  10.995  2.0240 -0.6401  1.5935
  541MOL0     H73025   7.598   8.205  10.913  2.1844  0.4968 -1.4651
  541MOL0     H73026   7.603   8.295  10.772  2.0872 -4.1155  0.2403
  541MOL0     H73027   7.384   8.175  10.713 -3.9023 -2.8108  1.0159
  541MOL0     H73028   7.318   8.278  10.828  1.0943  2.6235 -2.0205
  541MOL0     H73029   7.277   8.045  10.873  0.7009 -1.3412 -0.0675
  541MOL0     H73030   7.451   7.997  10.882  1.4380  1.0385  0.0197
  541MOL0     H73031   7.385   8.138  11.268  0.4626  1.1274  0.2842
  541MOL0     H73032   7.802   8.602  11.076 -0.2354  1.8363 -4.4628
  541MOL0     H73033   7.863   8.886  11.156  3.9978  0.0225  1.4646
  541MOL0     H73034   7.821   8.863  11.320  3.2257 -0.2260 -0.4550
  541MOL0     H73035   7.909   8.737  11.237  0.0582 -0.8781  0.9729
  542MOL0     O73036   5.581   0.558   9.165  0.6243 -0.1869 -0.0002
  542MOL0     C73037   5.469   0.598   9.132 -0.2297  0.4686 -0.2741
  542MOL0     O73038   5.367   0.516   9.084  0.3940 -0.1953 -0.0184
  542MOL0     C73039   5.399   0.386   9.051 -0.1307 -0.1148  0.3930
  542MOL0     C73040   5.498   0.345   8.961 -0.6564 -0.0985 -1.1640
  542MOL0     C73041   5.504   0.212   8.925 -0.2091  1.1721 -0.2098
  542MOL0     C73042   5.418   0.111   8.986  0.1291 -0.3760  0.8219
  542MOL0     O73043   5.420  -0.019   8.933  0.5878  0.6711  0.9034
  542MOL0     C73044   5.329  -0.124   8.988  0.1841  0.7383 -0.6688
  542MOL0     C73045   5.185  -0.117   8.939  0.9667  0.1324 -0.6795
  542MOL0     C73046   5.173  -0.119   8.787 -0.1872 -0.6808 -0.7107
  542MOL0     C73047   5.022  -0.135   8.730 -0.2238 -0.0390 -0.2494
  542MOL0     C73048   4.990  -0.151   8.576 -0.1819  0.1374  0.0953
  542MOL0     C73049   5.055  -0.035   8.501 -0.2685  0.3175 -0.4153
  542MOL0     C73050   5.026  -0.054   8.353  0.6049 -0.1056  0.6281
  542MOL0     C73051   5.108  -0.165   8.283 -0.5131  0.1412  0.2265
  542MOL0     N73052   5.106  -0.157   8.135  0.3532 -0.0575  0.1189
  542MOL0     C73053   5.183  -0.063   8.065 -0.9684  0.5014  0.2304
  542MOL0     C73054   5.134  -0.082   7.937 -0.3265  0.2534  0.0232
  542MOL0     C73055   5.186  -0.028   7.808  0.5662  0.8014  0.3907
  542MOL0     C73056   5.319  -0.084   7.770  0.3643  0.4222 -0.4562
  542MOL0     C73057   5.342  -0.039   7.627  1.3612 -0.3995 -0.1470
  542MOL0     C73058   5.488  -0.066   7.589  0.0095 -0.3539 -0.2120
  542MOL0     O73059   5.513  -0.025   7.451  0.1231 -0.0742 -0.1190
  542MOL0     C73060   5.641  -0.040   7.396  0.0922  1.0888  0.7778
  542MOL0     C73061   5.752  -0.106   7.452  0.0291 -0.4477 -0.3074
  542MOL0     C73062   5.872  -0.118   7.381  0.7654  1.1280  0.4554
  542MOL0     C73063   5.880  -0.075   7.244  0.1467  0.3718 -0.6435
  542MOL0     C73064   6.004  -0.102   7.171 -0.6656  0.6644  0.1107
  542MOL0     O73065   6.108  -0.169   7.238 -0.0106  0.0739 -0.5788
  542MOL0     C73066   6.231  -0.187   7.187  0.6469 -0.0107 -0.2841
  542MOL0     C73067   6.296  -0.100   7.098 -0.0687  0.3418  0.9173
  542MOL0     C73068   6.432  -0.122   7.045 -1.0191  0.1103 -0.3262
  542MOL0     C73069   6.498  -0.232   7.100 -0.2990  0.1389 -0.2078
  542MOL0     O73070   6.635  -0.233   7.080  0.3525 -0.2629 -0.3964
  542MOL0     C73071   6.716  -0.346   7.114  0.1817  0.4921  0.3110
  542MOL0     C73072   6.759  -0.366   7.263 -1.1221 -1.0103 -0.6105
  542MOL0     C73073   6.870  -0.263   7.309  0.2070  0.1082  0.1409
  542MOL0     C73074   6.931  -0.284   7.442 -0.7831 -0.0992  0.2324
  542MOL0     C73075   7.033  -0.173   7.469 -0.2741 -0.3432 -0.7811
  542MOL0     C73076   6.980  -0.027   7.479  0.4425 -0.6236 -0.5270
  542MOL0     C73077   7.083   0.078   7.505  0.0262  0.4380  0.2410
  542MOL0     C73078   7.205   0.081   7.420 -0.0859 -0.2034 -0.7545
  542MOL0    Cl73079   7.170   0.084   7.246  0.2408 -0.2592 -0.1559
  542MOL0     C73080   6.429  -0.325   7.178 -0.0658 -0.2556 -0.6962
  542MOL0     C73081   6.291  -0.310   7.223 -0.1585 -0.2121  0.2536
  542MOL0     O73082   6.011  -0.062   7.057  0.2206  0.1150 -0.1950
  542MOL0     C73083   5.766  -0.016   7.189 -0.6108  0.0407 -1.5690
  542MOL0     C73084   5.654   0.012   7.259  0.3694  0.7753 -0.3329
  542MOL0     N73085   5.046  -0.194   7.930  0.1896  0.2531  0.6346
  542MOL0     N73086   5.025  -0.228   8.051 -0.6605  0.2760  0.5179
  542MOL0     C73087   5.324   0.151   9.079 -0.2292  0.7013 -0.0943
  542MOL0     C73088   5.313   0.290   9.108  0.1010 -1.3569 -0.0875
  542MOL0     C73089   5.430   0.734   9.169  0.0383 -0.1980 -0.7191
  542MOL0     C73090   5.284   0.765   9.160 -0.6407  1.1794  0.2721
  542MOL0     C73091   5.243   0.901   9.174  0.6771 -0.4451  0.5466
  542MOL0     C73092   5.324   0.998   9.228  0.2672  0.2964  0.6750
  542MOL0     O73093   5.258   1.122   9.233  0.8949  0.0903  0.1693
  542MOL0     C73094   5.319   1.218   9.323  0.9347  0.0118 -0.0847
  542MOL0     C73095   5.291   1.356   9.268 -0.9586  0.1717  1.0916
  542MOL0     C73096   5.370   1.383   9.133  1.0819  0.1926  0.1185
  542MOL0     C73097   5.465   1.500   9.145  0.7495 -0.1105 -0.0588
  542MOL0     C73098   5.415   1.617   9.214 -0.2139  0.3980  0.2877
  542MOL0     C73099   5.383   1.718   9.270 -0.9575  1.4888 -0.3265
  542MOL0     C73100   5.461   0.962   9.250  0.4525 -1.2283 -0.1383
  542MOL0     C73101   5.517   0.841   9.220 -0.0476  1.1186  0.2883
  542MOL0     C73102   5.673   0.832   9.247 -0.2642  0.4147 -0.3101
  542MOL0     H73103   5.553   0.426   8.913 -1.4784  1.6769  0.7121
  542MOL0     H73104   5.572   0.177   8.849 -2.2496  0.3421 -1.7662
  542MOL0     H73105   5.368  -0.224   8.966  2.2556  1.4946 -0.6175
  542MOL0     H73106   5.320  -0.110   9.096  1.0649  2.0710 -0.7457
  542MOL0     H73107   5.137  -0.025   8.974  1.1018 -0.2222  0.4679
  542MOL0     H73108   5.126  -0.197   8.985  3.4249 -1.6309 -0.4259
  542MOL0     H73109   5.237  -0.198   8.748  1.1113  1.4845 -3.2967
  542MOL0     H73110   5.207  -0.019   8.759 -0.0779  0.5703  3.3030
  542MOL0     H73111   4.974  -0.221   8.777  0.3924 -0.6198 -0.6580
  542MOL0     H73112   4.974  -0.050   8.779  0.7933  0.6308 -0.3722
  542MOL0     H73113   5.028  -0.249   8.545  1.7686  0.5562  0.9746
  542MOL0     H73114   4.882  -0.153   8.562 -0.2224  0.3315  0.3641
  542MOL0     H73115   5.026   0.064   8.537 -1.3405  1.1766 -3.2874
  542MOL0     H73116   5.162  -0.020   8.516 -0.5445  1.2335  0.8388
  542MOL0     H73117   5.048   0.039   8.299 -2.1147 -0.7224 -1.7934
  542MOL0     H73118   4.921  -0.081   8.343  0.8970 -0.6074 -1.8232
  542MOL0     H73119   5.212  -0.163   8.317 -0.6132  0.7940  0.5057
  542MOL0     H73120   5.057  -0.260   8.300  1.2550 -0.9376 -0.2963
  542MOL0     H73121   5.274  -0.025   8.111  0.8408 -1.5070 -1.4414
  542MOL0     H73122   5.108  -0.034   7.731  1.0360 -0.5516 -0.0128
  542MOL0     H73123   5.193   0.079   7.828  1.5322 -0.1463  8.1132
  542MOL0     H73124   5.393  -0.032   7.832 -1.6063  0.8192  1.6729
  542MOL0     H73125   5.328  -0.192   7.785 -4.4653 -0.5842 -2.8294
  542MOL0     H73126   5.316   0.066   7.613  1.0283 -0.8796 -4.3737
  542MOL0     H73127   5.281  -0.101   7.560 -0.8043 -1.4783  2.6296
  542MOL0     H73128   5.491  -0.175   7.599  0.5482 -0.3719 -0.5374
  542MOL0     H73129   5.551  -0.015   7.663 -2.7246  0.6822  1.5852
  542MOL0     H73130   5.754  -0.129   7.558 -0.2609 -1.6443 -0.5484
  542MOL0     H73131   5.960  -0.135   7.443 -0.6422 -1.1672  1.9264
  542MOL0     H73132   6.253  -0.011   7.054  0.0056  0.3773  0.9152
  542MOL0     H73133   6.475  -0.048   6.978  0.5205 -3.1390 -3.2757
  542MOL0     H73134   6.667  -0.436   7.076  3.5665 -1.9669  1.3232
  542MOL0     H73135   6.810  -0.334   7.059  1.4517 -0.7970  2.1049
  542MOL0     H73136   6.669  -0.365   7.324 -1.4606 -3.9966 -0.9056
  542MOL0     H73137   6.795  -0.469   7.266 -0.3506 -0.7313  2.1752
  542MOL0     H73138   6.945  -0.257   7.230 -0.7605  0.6965 -0.7472
  542MOL0     H73139   6.822  -0.165   7.311 -0.7402 -0.3513  0.6765
  542MOL0     H73140   6.984  -0.380   7.438 -0.5544  0.0649 -2.5318
  542MOL0     H73141   6.867  -0.295   7.530 -1.5614 -0.1911 -0.3304
  542MOL0     H73142   7.109  -0.182   7.391  0.6496 -0.5281  0.1160
  542MOL0     H73143   7.092  -0.195   7.559 -3.1978 -2.1045  0.8803
  542MOL0     H73144   6.941  -0.003   7.380 -0.6120  0.4984  0.1344
  542MOL0     H73145   6.898  -0.018   7.550  1.1507  2.7341  0.0523
  542MOL0     H73146   7.108   0.083   7.612  0.8234 -0.5982  0.1130
  542MOL0     H73147   7.037   0.175   7.481 -1.2924  0.1381  1.4084
  542MOL0     H73148   7.280   0.157   7.445  2.1168 -2.4453 -0.1890
  542MOL0     H73149   7.253  -0.014   7.444 -1.3719 -0.4047  1.4007
  542MOL0     H73150   6.470  -0.418   7.214 -1.2550 -1.9872 -3.4945
  542MOL0     H73151   6.247  -0.389   7.282 -1.7279  0.0698 -0.4754
  542MOL0     H73152   5.777   0.024   7.089  0.4049  1.4557 -0.9354
  542MOL0     H73153   5.588   0.089   7.220  1.5038  1.6473 -0.5882
  542MOL0     H73154   5.244   0.083   9.108  0.5730 -0.0956  0.2825
  542MOL0     H73155   5.231   0.322   9.173  1.0354  1.4426 -0.1277
  542MOL0     H73156   5.214   0.692   9.121 -0.1248  0.6754  0.2696
  542MOL0     H73157   5.148   0.922   9.125 -0.4021  0.6630  2.9503
  542MOL0     H73158   5.428   1.209   9.327  0.8680 -0.7935  0.0383
  542MOL0     H73159   5.283   1.203   9.425  1.6291 -0.0102  0.1596
  542MOL0     H73160   5.317   1.426   9.348  0.0953  1.5271 -0.3818
  542MOL0     H73161   5.185   1.379   9.259 -0.4988  1.6149 -1.4008
  542MOL0     H73162   5.304   1.396   9.046 -0.3428 -2.7748  0.6486
  542MOL0     H73163   5.423   1.291   9.107  0.3260 -1.3960  3.6240
  542MOL0     H73164   5.558   1.464   9.191  0.1414 -0.7502  0.6993
  542MOL0     H73165   5.491   1.532   9.044 -0.5716 -0.0763 -0.4087
  542MOL0     H73166   5.357   1.813   9.314  1.3245  1.5840  0.9757
  542MOL0     H73167   5.524   1.038   9.296  0.6535 -1.1591 -0.5232
  542MOL0     H73168   5.723   0.859   9.154 -1.3491  1.6408 -0.5643
  542MOL0     H73169   5.703   0.907   9.321 -3.3621  0.9587  0.5182
  542MOL0     H73170   5.709   0.731   9.267  0.4595  0.1403 -2.7212
  543MOL0     O73171   5.039   6.607   6.764 -0.2172  0.0420  0.3203
  543MOL0     C73172   5.162   6.623   6.753  0.8146  0.5443  0.6782
  543MOL0     O73173   5.251   6.521   6.775 -0.5908 -0.3206  0.2137
  543MOL0     C73174   5.200   6.414   6.842 -0.2463  1.0892 -0.1782
  543MOL0     C73175   5.191   6.282   6.786  0.1670 -0.6453  0.5502
  543MOL0     C73176   5.147   6.177   6.859 -0.8323  0.1549  0.4352
  543MOL0     C73177   5.094   6.192   6.985 -0.3659  0.7581  0.5550
  543MOL0     O73178   5.044   6.096   7.074 -0.6076 -0.1335  0.6816
  543MOL0     C73179   5.068   5.959   7.037  0.1695 -0.2257  0.2206
  543MOL0     C73180   4.979   5.877   7.137  0.1155  0.7382 -0.1733
  543MOL0     C73181   4.827   5.890   7.116 -0.2477 -0.0647  0.2442
  543MOL0     C73182   4.758   5.750   7.148 -0.7220 -0.7940  0.1815
  543MOL0     C73183   4.749   5.643   7.043 -0.1535  0.1174  0.8147
  543MOL0     C73184   4.666   5.523   7.085  0.0356 -0.3937 -0.1306
  543MOL0     C73185   4.676   5.395   7.000  0.2197 -0.1504  0.7589
  543MOL0     C73186   4.612   5.421   6.862  0.2822 -0.8735  0.4477
  543MOL0     N73187   4.634   5.300   6.787 -0.7620 -0.3291 -0.4036
  543MOL0     C73188   4.755   5.271   6.734  0.1867 -0.8690 -0.5720
  543MOL0     C73189   4.737   5.146   6.680 -0.3238 -0.2572 -0.0943
  543MOL0     C73190   4.846   5.045   6.629 -0.0191 -0.2781  0.3381
  543MOL0     C73191   4.852   5.019   6.478  0.4941 -0.3419  0.4629
  543MOL0     C73192   4.987   4.987   6.417  0.5893  0.1670 -0.0549
  543MOL0     C73193   4.993   4.988   6.265  1.6004  0.1518 -0.0262
  543MOL0     O73194   4.996   5.124   6.221  0.8248 -0.6929  0.3334
  543MOL0     C73195   4.968   5.156   6.090  0.0435  0.7353 -0.9348
  543MOL0     C73196   4.968   5.067   5.983 -0.1429  0.7146 -0.1829
  543MOL0     C73197   4.923   5.104   5.855  0.0765 -0.6444  0.1717
  543MOL0     C73198   4.877   5.224   5.815 -0.0699 -0.2456 -0.3436
  543MOL0     C73199   4.821   5.249   5.679 -0.2273  1.0245  0.9932
  543MOL0     O73200   4.756   5.142   5.613 -0.1333 -0.0384 -0.4210
  543MOL0     C73201   4.669   5.172   5.511 -0.3895 -0.1657 -0.7307
  543MOL0     C73202   4.593   5.287   5.492 -0.0085  0.1997  0.0791
  543MOL0     C73203   4.496   5.291   5.390  1.3387 -0.4875 -0.4875
  543MOL0     C73204   4.475   5.178   5.305  0.0440  0.3170 -0.2296
  543MOL0     O73205   4.398   5.196   5.192 -0.4417 -0.2949 -0.6231
  543MOL0     C73206   4.265   5.151   5.230  0.1995  0.3685 -0.1068
  543MOL0     C73207   4.203   5.097   5.105 -0.4363  0.5670 -1.3186
  543MOL0     C73208   4.074   5.174   5.070  0.3241 -0.1325  0.0408
  543MOL0     C73209   3.951   5.122   5.147  0.2227  0.4925 -0.6285
  543MOL0     C73210   3.820   5.188   5.107 -0.6873  0.6846  0.4192
  543MOL0     C73211   3.696   5.130   5.190 -0.6162 -0.2481  0.2061
  543MOL0     C73212   3.691   5.164   5.339 -0.2102  0.3853  0.9500
  543MOL0     C73213   3.688   5.317   5.370 -0.9663  0.7152 -0.1447
  543MOL0    Cl73214   3.560   5.397   5.289 -0.1074  0.1990 -0.2616
  543MOL0     C73215   4.565   5.077   5.320  0.2370 -0.5927  1.3488
  543MOL0     C73216   4.649   5.061   5.423 -0.5731  0.1397 -0.9429
  543MOL0     O73217   4.820   5.365   5.644 -0.6333 -0.2190 -0.0595
  543MOL0     C73218   4.891   5.320   5.915 -0.2479 -0.4380  0.1578
  543MOL0     C73219   4.933   5.287   6.050  0.0362 -0.2209  0.7961
  543MOL0     N73220   4.610   5.109   6.707 -0.6403  0.8116 -0.1338
  543MOL0     N73221   4.539   5.207   6.747  0.1823 -0.1076  0.7730
  543MOL0     C73222   5.102   6.320   7.043  0.4214  0.4845  0.0006
  543MOL0     C73223   5.155   6.422   6.975  0.5547 -0.1833  0.4104
  543MOL0     C73224   5.195   6.736   6.667 -1.3579  0.1622 -0.5748
  543MOL0     C73225   5.126   6.855   6.668  0.1185  0.1196  0.0229
  543MOL0     C73226   5.142   6.954   6.578  0.7419  0.0447 -0.2329
  543MOL0     C73227   5.248   6.950   6.494 -0.7511  0.1261 -0.5805
  543MOL0     O73228   5.293   7.076   6.440  1.0490 -0.2620 -0.3250
  543MOL0     C73229   5.377   7.097   6.330  0.3708  0.1001  0.3114
  543MOL0     C73230   5.308   7.080   6.185  0.5272 -0.9443 -0.1430
  543MOL0     C73231   5.186   7.181   6.178  0.2041  0.6844 -0.1795
  543MOL0     C73232   5.120   7.210   6.056  0.6296  0.9360 -0.2308
  543MOL0     C73233   5.202   7.280   5.960 -1.3022 -0.3290  0.8734
  543MOL0     C73234   5.267   7.354   5.890 -0.7186  0.9231  0.0310
  543MOL0     C73235   5.323   6.836   6.493  0.4252  0.2741  0.6948
  543MOL0     C73236   5.306   6.725   6.578 -0.2992  1.2632 -0.6228
  543MOL0     C73237   5.397   6.606   6.554  0.1173  0.0264 -0.1297
  543MOL0     H73238   5.220   6.269   6.681  1.0278  2.2340  0.3413
  543MOL0     H73239   5.139   6.076   6.820 -2.3734 -0.3642  1.9924
  543MOL0     H73240   5.050   5.939   6.931 -2.6644  1.5683  0.2539
  543MOL0     H73241   5.170   5.937   7.070 -0.5413 -2.0694  1.3150
  543MOL0     H73242   5.013   5.902   7.238  0.4251 -2.3132  0.5621
  543MOL0     H73243   5.019   5.775   7.136  0.6273  0.8784  1.5649
  543MOL0     H73244   4.808   5.939   7.020  0.1763 -2.8933 -1.4244
  543MOL0     H73245   4.789   5.953   7.196  0.9779 -0.1574  0.9191
  543MOL0     H73246   4.810   5.710   7.236 -1.2718  0.7055  1.2269
  543MOL0     H73247   4.657   5.777   7.181 -0.1987  2.3990 -0.5089
  543MOL0     H73248   4.709   5.678   6.947 -1.3215  0.1145  1.2783
  543MOL0     H73249   4.847   5.603   7.016  0.5536  0.5531  2.6489
  543MOL0     H73250   4.691   5.504   7.190  1.8771 -2.3732 -0.8616
  543MOL0     H73251   4.563   5.556   7.102  1.4324  3.3912  2.4913
  543MOL0     H73252   4.632   5.307   7.048 -1.5964  0.6519  0.6333
  543MOL0     H73253   4.781   5.378   6.976  0.4726  2.1110  0.0861
  543MOL0     H73254   4.509   5.459   6.870  0.8615  1.1792 -1.1029
  543MOL0     H73255   4.661   5.508   6.817 -2.4106  1.3454  1.4710
  543MOL0     H73256   4.849   5.320   6.758  0.0540 -0.9186  0.0724
  543MOL0     H73257   4.945   5.084   6.653  0.7280 -1.8453 -0.0208
  543MOL0     H73258   4.835   4.958   6.695  0.5566  0.9563  2.1290
  543MOL0     H73259   4.790   4.931   6.457 -1.2595  1.3263 -1.8972
  543MOL0     H73260   4.810   5.105   6.426  0.8169  0.2680  1.1788
  543MOL0     H73261   5.015   4.887   6.453 -2.8045 -1.1524 -0.6234
  543MOL0     H73262   5.060   5.057   6.457  1.6843 -2.1391  2.3173
  543MOL0     H73263   4.896   4.945   6.236  0.2570  1.5238  2.1697
  543MOL0     H73264   5.083   4.943   6.221  3.6545  3.1854  0.8106
  543MOL0     H73265   5.027   4.976   5.987  1.0200  1.4663  1.1046
  543MOL0     H73266   4.925   5.012   5.798  0.8099 -1.3539  1.3286
  543MOL0     H73267   4.594   5.376   5.554 -0.3761  0.1184  0.2053
  543MOL0     H73268   4.451   5.388   5.376  2.6465  0.3479  0.8626
  543MOL0     H73269   4.271   5.069   5.301  2.3520 -0.9959 -1.7282
  543MOL0     H73270   4.211   5.233   5.278  0.9088 -0.2054  1.7498
  543MOL0     H73271   4.260   5.104   5.012  0.1332 -1.4376 -1.1723
  543MOL0     H73272   4.193   4.989   5.119  2.0508  0.1649 -2.2252
  543MOL0     H73273   4.094   5.279   5.094  0.6803 -0.6841  2.4059
  543MOL0     H73274   4.043   5.174   4.966 -1.0906  1.3380  0.4260
  543MOL0     H73275   3.964   5.151   5.252  3.3543  2.0840 -1.3340
  543MOL0     H73276   3.947   5.013   5.133  0.2843  0.7559 -3.2190
  543MOL0     H73277   3.811   5.151   5.005 -1.9140  0.0145  0.7515
  543MOL0     H73278   3.821   5.297   5.110 -0.5501  0.7250 -0.6710
  543MOL0     H73279   3.604   5.175   5.151  0.2911  0.7774 -0.8379
  543MOL0     H73280   3.680   5.022   5.185 -2.2546  0.0244 -1.6422
  543MOL0     H73281   3.766   5.110   5.397 -0.6644  0.0262  1.2131
  543MOL0     H73282   3.593   5.125   5.369  0.1299  1.2755  3.4083
  543MOL0     H73283   3.674   5.324   5.479  1.3202 -3.8908  0.6728
  543MOL0     H73284   3.784   5.364   5.347 -1.9286  2.1655 -1.4641
  543MOL0     H73285   4.565   5.004   5.240  1.9837  1.9657 -1.1901
  543MOL0     H73286   4.708   4.972   5.442 -1.6957 -0.2130  1.0952
  543MOL0     H73287   4.852   5.422   5.908  0.8595  0.4431  4.3173
  543MOL0     H73288   4.938   5.376   6.111  0.8076  1.2305 -1.2830
  543MOL0     H73289   5.068   6.340   7.145  1.6790 -0.8514  0.7186
  543MOL0     H73290   5.170   6.524   7.010  0.8942 -0.5045  1.2091
  543MOL0     H73291   5.040   6.865   6.733 -0.1513 -2.5735  0.1778
  543MOL0     H73292   5.075   7.039   6.587 -0.6773 -1.1569  1.3235
  543MOL0     H73293   5.459   7.026   6.339  1.5753  1.6708  2.9466
  543MOL0     H73294   5.422   7.197   6.335 -1.5164  0.9543  1.2393
  543MOL0     H73295   5.276   6.978   6.164  1.0864 -0.9958 -0.7750
  543MOL0     H73296   5.379   7.101   6.104  0.6738 -4.5378 -1.0990
  543MOL0     H73297   5.213   7.273   6.232 -1.2393  2.3143 -2.0750
  543MOL0     H73298   5.113   7.126   6.237  1.7238 -1.0576  0.1830
  543MOL0     H73299   5.094   7.114   6.011 -0.8770  1.6419 -0.9390
  543MOL0     H73300   5.030   7.270   6.076  0.1590 -0.6149  3.0177
  543MOL0     H73301   5.324   7.423   5.831  0.8790  0.6209  1.1484
  543MOL0     H73302   5.409   6.840   6.428  1.0324  2.3999  1.5461
  543MOL0     H73303   5.338   6.524   6.514 -1.4025  2.3331 -3.0175
  543MOL0     H73304   5.466   6.626   6.471 -0.6929  2.5276 -0.2830
  543MOL0     H73305   5.461   6.565   6.633 -0.3185  0.1513  0.2934
  544MOL0     O73306   8.534   7.332   3.597 -0.3695 -0.4999 -0.3946
  544MOL0     C73307   8.569   7.291   3.706 -0.1424 -0.2831  0.2784
  544MOL0     O73308   8.631   7.372   3.797 -0.8683  0.6748  0.0654
  544MOL0     C73309   8.675   7.493   3.737 -1.1528  0.3203  0.1349
  544MOL0     C73310   8.642   7.611   3.807  0.3880  0.8077  1.3115
  544MOL0     C73311   8.705   7.727   3.784 -0.7257  0.0971 -0.2909
  544MOL0     C73312   8.809   7.743   3.685  0.3584  0.2443 -0.1113
  544MOL0     O73313   8.877   7.869   3.678 -0.3835  0.0278 -0.6927
  544MOL0     C73314   8.966   7.867   3.560  0.3614  0.1662  0.1556
  544MOL0     C73315   8.997   8.018   3.539  0.4539 -0.7044  0.2318
  544MOL0     C73316   9.094   8.037   3.411 -0.1507 -0.1753 -0.4696
  544MOL0     C73317   9.242   8.028   3.452 -0.2399  0.0738  0.9627
  544MOL0     C73318   9.333   8.039   3.329 -0.1529  0.0038 -0.5751
  544MOL0     C73319   9.480   8.078   3.368 -0.5293  1.0253  0.0345
  544MOL0     C73320   9.578   8.065   3.257  0.5843 -0.8612  0.7736
  544MOL0     C73321   9.709   8.103   3.303 -0.0631  0.2828 -0.9657
  544MOL0     N73322   9.811   8.138   3.203  0.1603  0.6424  0.9615
  544MOL0     C73323   9.894   8.045   3.144 -0.1196  0.3449 -0.3747
  544MOL0     C73324   9.981   8.126   3.069  0.6084  0.3858  0.6529
  544MOL0     C73325  10.102   8.077   2.988 -0.2798 -0.5656 -0.8644
  544MOL0     C73326  10.215   8.188   2.971  0.1839  0.3567 -0.2762
  544MOL0     C73327  10.289   8.220   3.102 -0.1509  0.0594  0.1962
  544MOL0     C73328  10.391   8.329   3.086  0.1882  1.0724  0.0929
  544MOL0     O73329  10.510   8.278   3.018 -0.0004  0.5496 -0.9547
  544MOL0     C73330  10.616   8.364   3.057  0.4180  0.0263  0.5557
  544MOL0     C73331  10.637   8.473   2.978  0.0325 -0.3872  0.1651
  544MOL0     C73332  10.750   8.554   2.994 -0.9152 -0.2038  0.5115
  544MOL0     C73333  10.841   8.515   3.091 -0.8875 -0.0728 -0.5830
  544MOL0     C73334  10.956   8.610   3.114 -0.1955  0.4134  0.2259
  544MOL0     O73335  11.062   8.571   3.195  0.8681 -0.0022  0.3504
  544MOL0     C73336  11.147   8.674   3.219 -0.2252  0.7009  0.1232
  544MOL0     C73337  11.273   8.683   3.152 -0.0466  0.8909 -0.4286
  544MOL0     C73338  11.376   8.767   3.196  0.4877 -0.2065  1.0628
  544MOL0     C73339  11.351   8.873   3.287  0.4780  0.0747 -0.1772
  544MOL0     O73340  11.463   8.943   3.333  0.6912 -0.6598 -0.0156
  544MOL0     C73341  11.438   9.073   3.399 -0.6370 -0.8965 -0.6957
  544MOL0     C73342  11.551   9.130   3.482 -0.0956  0.1814 -1.1330
  544MOL0     C73343  11.595   9.029   3.579 -0.0652  0.2566  0.4637
  544MOL0     C73344  11.697   9.090   3.670  0.6940  1.1143  0.7159
  544MOL0     C73345  11.779   8.982   3.739  0.7341  0.1119 -0.9552
  544MOL0     C73346  11.703   8.881   3.825  0.0632  0.9404 -0.1456
  544MOL0     C73347  11.623   8.945   3.945  0.2339  0.6965 -0.0381
  544MOL0     C73348  11.543   8.842   4.033  0.0794  0.2033 -0.2055
  544MOL0    Cl73349  11.466   8.708   3.925 -0.7542  0.3109 -0.4361
  544MOL0     C73350  11.228   8.871   3.350 -0.4599  0.0832  0.2438
  544MOL0     C73351  11.122   8.775   3.315 -0.6468 -0.3315  0.1196
  544MOL0     O73352  10.949   8.717   3.048 -0.3757 -0.6858 -0.1765
  544MOL0     C73353  10.819   8.411   3.183  0.0720  1.2533  0.1191
  544MOL0     C73354  10.700   8.328   3.166 -0.1340 -0.3488 -0.3218
  544MOL0     N73355   9.935   8.253   3.071 -0.1026  0.0443  0.0082
  544MOL0     N73356   9.832   8.264   3.145 -0.8822 -0.2012 -0.6620
  544MOL0     C73357   8.832   7.619   3.617 -0.7079  0.4312  0.9575
  544MOL0     C73358   8.783   7.497   3.651  0.3365 -0.4358 -0.4092
  544MOL0     C73359   8.531   7.162   3.765  0.6590  0.0836  1.0062
  544MOL0     C73360   8.598   7.114   3.878  0.4436  0.5079 -0.4812
  544MOL0     C73361   8.587   6.979   3.924  0.7160 -0.9411 -0.3560
  544MOL0     C73362   8.484   6.894   3.861 -0.2834  0.2785  0.3672
  544MOL0     O73363   8.470   6.756   3.895  0.1416  0.0398  0.6214
  544MOL0     C73364   8.580   6.675   3.952  1.2237  0.3776 -0.4917
  544MOL0     C73365   8.723   6.690   3.881 -0.6072  0.2231  0.2835
  544MOL0     C73366   8.703   6.696   3.731  0.0667 -0.2882  0.7788
  544MOL0     C73367   8.836   6.692   3.650  0.0951 -0.8592  0.2698
  544MOL0     C73368   8.899   6.555   3.662  0.2853 -0.2677  1.2302
  544MOL0     C73369   8.961   6.449   3.664  0.0567  0.1643 -0.4949
  544MOL0     C73370   8.414   6.949   3.758 -0.3782 -0.5201 -0.1520
  544MOL0     C73371   8.432   7.078   3.709 -0.5018  0.0289 -0.1845
  544MOL0     C73372   8.348   7.117   3.584  0.5733  0.4679  0.6909
  544MOL0     H73373   8.571   7.604   3.889  0.5640 -1.1483  1.3432
  544MOL0     H73374   8.671   7.818   3.832 -0.2793  0.3058 -0.3597
  544MOL0     H73375   9.057   7.809   3.574 -0.9942 -3.0339 -2.8645
  544MOL0     H73376   8.921   7.829   3.468  0.4226 -0.9162  0.5618
  544MOL0     H73377   9.056   8.059   3.622  1.2971 -0.9605 -0.2274
  544MOL0     H73378   8.903   8.072   3.530 -0.5242 -1.7286  3.0957
  544MOL0     H73379   9.084   8.141   3.377 -1.6081  0.8490  2.7143
  544MOL0     H73380   9.070   7.968   3.330  1.7210 -0.1562 -1.0965
  544MOL0     H73381   9.267   8.107   3.523 -1.4524  1.0453  0.3407
  544MOL0     H73382   9.258   7.932   3.503 -0.1140  0.0310  0.8444
  544MOL0     H73383   9.330   7.944   3.276  3.2126 -2.2411  2.7815
  544MOL0     H73384   9.295   8.118   3.263 -0.7126  0.4192  0.2123
  544MOL0     H73385   9.486   8.181   3.403  1.2169  0.8614  0.2813
  544MOL0     H73386   9.512   8.018   3.454 -0.1266  0.5075 -0.4643
  544MOL0     H73387   9.561   8.132   3.173  2.1687  3.0025  3.2587
  544MOL0     H73388   9.583   7.966   3.211  3.9791 -0.4458 -0.0230
  544MOL0     H73389   9.695   8.190   3.368 -1.8980 -2.3028  2.4538
  544MOL0     H73390   9.759   8.025   3.362  2.9559  0.6353 -2.8387
  544MOL0     H73391   9.900   7.944   3.183  2.6582 -0.2605 -2.1103
  544MOL0     H73392  10.155   8.000   3.045 -1.3266 -1.9308 -1.6615
  544MOL0     H73393  10.063   8.046   2.891 -4.1079 -1.1702  0.7128
  544MOL0     H73394  10.289   8.152   2.900  0.5782  1.3169 -0.3720
  544MOL0     H73395  10.173   8.277   2.923 -0.4452 -1.0125 -2.3968
  544MOL0     H73396  10.327   8.125   3.140  3.2594 -0.9089 -4.6206
  544MOL0     H73397  10.210   8.263   3.163  0.1249  0.2512  0.4203
  544MOL0     H73398  10.425   8.365   3.184 -0.2253  2.4220 -0.2521
  544MOL0     H73399  10.351   8.417   3.036 -0.7040  0.5852 -0.0732
  544MOL0     H73400  10.583   8.492   2.886  1.5344  3.3745 -0.1065
  544MOL0     H73401  10.762   8.636   2.924 -1.9486 -1.3305 -1.0470
  544MOL0     H73402  11.298   8.604   3.082  2.8899  0.1649  1.2982
  544MOL0     H73403  11.480   8.763   3.166  2.2095 -0.1187  6.1026
  544MOL0     H73404  11.427   9.151   3.323  0.9264 -0.0177 -0.0613
  544MOL0     H73405  11.345   9.060   3.456  0.6246 -1.4156  1.3594
  544MOL0     H73406  11.637   9.172   3.428  0.4694  0.5718  0.0394
  544MOL0     H73407  11.508   9.214   3.538 -1.6791 -0.5979 -1.1239
  544MOL0     H73408  11.507   8.997   3.635  0.2763  0.4033  1.0982
  544MOL0     H73409  11.620   8.937   3.525 -1.5756  0.2811 -0.3114
  544MOL0     H73410  11.638   9.135   3.751  1.8467  1.0664  1.6061
  544MOL0     H73411  11.762   9.159   3.615 -0.6549  0.1961 -2.2530
  544MOL0     H73412  11.851   9.040   3.798  1.3285  0.1223 -1.6878
  544MOL0     H73413  11.837   8.930   3.663  2.7610  0.1381  0.4713
  544MOL0     H73414  11.629   8.826   3.766  1.6166 -0.5582 -0.7891
  544MOL0     H73415  11.774   8.803   3.855 -0.2533 -0.0665 -1.8672
  544MOL0     H73416  11.552   9.022   3.914 -0.1415  1.6143  2.7455
  544MOL0     H73417  11.706   8.987   4.003 -1.1756 -0.6053  3.2138
  544MOL0     H73418  11.612   8.789   4.100  0.4415 -0.7561 -1.3031
  544MOL0     H73419  11.465   8.898   4.085 -1.4725  0.7450 -2.9379
  544MOL0     H73420  11.199   8.935   3.433  2.1030 -1.2733  2.3235
  544MOL0     H73421  11.030   8.764   3.372 -2.3046 -2.6982 -2.7209
  544MOL0     H73422  10.884   8.380   3.265  0.4003  1.0687 -0.2094
  544MOL0     H73423  10.673   8.249   3.234 -2.7399  1.3400  0.7540
  544MOL0     H73424   8.924   7.626   3.560 -2.3476  3.9897 -1.5936
  544MOL0     H73425   8.837   7.406   3.627 -2.5104 -1.8960 -1.8455
  544MOL0     H73426   8.667   7.173   3.937 -0.4682 -0.0448  1.2144
  544MOL0     H73427   8.656   6.937   3.997 -1.6114 -6.1464 -0.6827
  544MOL0     H73428   8.552   6.570   3.963 -0.6343  0.8623 -0.3342
  544MOL0     H73429   8.607   6.707   4.054 -1.2282 -1.3176  0.7920
  544MOL0     H73430   8.789   6.608   3.909 -2.2157 -0.9606  0.8032
  544MOL0     H73431   8.770   6.782   3.917  0.6925 -0.5374  0.5615
  544MOL0     H73432   8.663   6.796   3.715  0.6742 -0.5290 -3.2335
  544MOL0     H73433   8.638   6.618   3.690 -1.1716  0.4892  1.2090
  544MOL0     H73434   8.828   6.714   3.543 -1.1815  2.0592  0.8460
  544MOL0     H73435   8.900   6.767   3.698 -2.7236  1.6573  0.4113
  544MOL0     H73436   9.024   6.362   3.665 -1.6025 -1.0801  0.5617
  544MOL0     H73437   8.345   6.887   3.702  0.8752  0.3887 -2.9063
  544MOL0     H73438   8.267   7.046   3.566 -1.4361  2.4673  1.3383
  544MOL0     H73439   8.307   7.216   3.606  2.9092  2.5070 -3.1545
  544MOL0     H73440   8.408   7.124   3.494 -0.3463 -0.5034 -0.0230
  545MOL0     O73441   6.212   3.350   7.824 -0.7051 -0.0258  0.0357
  545MOL0     C73442   6.297   3.297   7.747  1.1634 -0.2595 -1.1781
  545MOL0     O73443   6.285   3.292   7.621  0.4420  0.2580 -0.4838
  545MOL0     C73444   6.187   3.375   7.559  0.7000  0.3968 -0.8874
  545MOL0     C73445   6.219   3.479   7.471  0.7567  0.1225  0.2708
  545MOL0     C73446   6.120   3.565   7.421  0.0203  0.0738 -0.1795
  545MOL0     C73447   5.988   3.539   7.455  0.6535 -0.8632  0.3417
  545MOL0     O73448   5.895   3.633   7.421 -0.3167 -0.3661  0.2541
  545MOL0     C73449   5.769   3.652   7.489 -0.3249 -0.1155  0.2118
  545MOL0     C73450   5.785   3.686   7.642 -0.3911  0.9675 -0.2236
  545MOL0     C73451   5.869   3.811   7.673 -0.5633  0.3251  0.5592
  545MOL0     C73452   5.855   3.858   7.820  0.2682  0.8265 -0.4595
  545MOL0     C73453   5.715   3.901   7.863 -0.2792 -0.8364 -0.3997
  545MOL0     C73454   5.668   4.030   7.775 -0.6408 -0.1818 -1.0838
  545MOL0     C73455   5.521   4.069   7.811 -0.8704  0.1293  0.0683
  545MOL0     C73456   5.440   4.144   7.696 -0.5202 -0.2522 -0.5336
  545MOL0     N73457   5.516   4.274   7.677  0.2510  0.1814 -0.6141
  545MOL0     C73458   5.617   4.298   7.593 -0.2275 -0.2397 -0.3869
  545MOL0     C73459   5.669   4.419   7.631 -0.2872 -0.4421  0.3002
  545MOL0     C73460   5.782   4.503   7.570 -0.7932  0.7994  0.3847
  545MOL0     C73461   5.909   4.445   7.622 -0.6104 -0.4747  0.0018
  545MOL0     C73462   6.032   4.530   7.578 -0.4201  0.2619  0.0085
  545MOL0     C73463   6.024   4.670   7.640  0.9770 -1.2449  0.0780
  545MOL0     O73464   5.993   4.670   7.780 -0.6613 -0.2947 -0.6784
  545MOL0     C73465   6.007   4.787   7.848 -0.3232 -0.4212 -0.3204
  545MOL0     C73466   5.962   4.770   7.981 -0.2618 -0.7187  0.0154
  545MOL0     C73467   5.965   4.873   8.070  0.3704 -0.6665  0.4058
  545MOL0     C73468   6.017   4.998   8.029 -0.0523  0.0901 -0.5741
  545MOL0     C73469   6.016   5.109   8.124 -0.4375 -0.8885  0.0273
  545MOL0     O73470   5.995   5.238   8.071 -0.3480 -0.2393  0.0499
  545MOL0     C73471   6.003   5.339   8.162  0.3421 -0.3896  0.6151
  545MOL0     C73472   5.878   5.388   8.203 -0.0709  0.2545  0.6005
  545MOL0     C73473   5.872   5.478   8.312 -1.0776 -0.1269  0.5182
  545MOL0     C73474   5.990   5.529   8.376  0.0298 -0.2236 -1.1182
  545MOL0     O73475   5.998   5.618   8.485  0.9778 -0.0012 -0.4274
  545MOL0     C73476   5.877   5.673   8.541 -0.7841 -1.1321  0.0786
  545MOL0     C73477   5.937   5.760   8.659  0.6978  0.4408  0.4467
  545MOL0     C73478   6.034   5.872   8.620 -0.5101 -0.5373  0.9310
  545MOL0     C73479   6.180   5.838   8.632  0.1978 -0.1638  0.4615
  545MOL0     C73480   6.262   5.939   8.717  0.8187 -0.2479 -0.2333
  545MOL0     C73481   6.302   6.061   8.635  0.2934  0.5846  0.0970
  545MOL0     C73482   6.372   6.160   8.723  0.7020  0.2576 -0.1393
  545MOL0     C73483   6.491   6.221   8.648 -0.0665  0.3217  0.0209
  545MOL0    Cl73484   6.428   6.306   8.502  0.0531  0.3181 -0.1490
  545MOL0     C73485   6.113   5.477   8.334 -0.6367  0.0755  0.3219
  545MOL0     C73486   6.118   5.383   8.224 -0.0050  0.5580  0.3861
  545MOL0     O73487   6.012   5.080   8.244 -1.2763 -0.1208  0.0511
  545MOL0     C73488   6.057   5.016   7.897  0.8464 -0.4334  0.0164
  545MOL0     C73489   6.041   4.912   7.803  0.9557  0.1570  0.2781
  545MOL0     N73490   5.593   4.460   7.730  0.3114 -0.1569  0.4157
  545MOL0     N73491   5.492   4.378   7.761 -0.0750  0.8443  0.2563
  545MOL0     C73492   5.952   3.438   7.540  0.2956  0.8901  0.3351
  545MOL0     C73493   6.052   3.348   7.586  0.5238  0.3232  0.5532
  545MOL0     C73494   6.401   3.217   7.805  0.2807 -0.0885  0.1376
  545MOL0     C73495   6.428   3.101   7.731 -0.2074  0.3116 -0.4023
  545MOL0     C73496   6.509   3.003   7.786  0.0556 -0.5883  0.1577
  545MOL0     C73497   6.555   3.016   7.918 -0.5035 -0.5970  0.3724
  545MOL0     O73498   6.640   2.924   7.970  0.1361 -0.8186  0.2832
  545MOL0     C73499   6.755   2.877   7.889 -0.9148  0.1923 -0.9661
  545MOL0     C73500   6.853   2.994   7.866  0.5945  0.3046  0.6197
  545MOL0     C73501   6.883   3.082   7.980 -0.7028  0.2849  0.5054
  545MOL0     C73502   6.926   2.992   8.098  0.0779 -0.2794  0.3977
  545MOL0     C73503   6.971   3.079   8.199  0.0936 -0.8047 -1.6546
  545MOL0     C73504   7.017   3.122   8.300 -0.3477  0.3356 -1.6452
  545MOL0     C73505   6.532   3.128   7.989  0.1099 -0.0794 -0.4159
  545MOL0     C73506   6.454   3.231   7.934 -0.2589  1.0924 -0.1195
  545MOL0     C73507   6.432   3.352   8.025  0.3021  0.7520  0.3549
  545MOL0     H73508   6.325   3.500   7.458  0.6856  0.6213  0.4829
  545MOL0     H73509   6.145   3.644   7.351  1.8451 -2.2469 -2.3342
  545MOL0     H73510   5.727   3.739   7.437 -0.2384  0.5787  1.2711
  545MOL0     H73511   5.712   3.560   7.472 -1.8470  0.8447 -0.1604
  545MOL0     H73512   5.833   3.599   7.688 -0.1387  1.1235 -0.1890
  545MOL0     H73513   5.690   3.691   7.695  1.0354  2.6830  2.4170
  545MOL0     H73514   5.826   3.894   7.616  0.8356 -0.0656 -1.1479
  545MOL0     H73515   5.971   3.789   7.641  0.0819  2.4425  1.0001
  545MOL0     H73516   5.874   3.775   7.889 -0.8599  0.5870 -0.4208
  545MOL0     H73517   5.921   3.942   7.844  1.1291 -0.3437  1.5048
  545MOL0     H73518   5.638   3.823   7.856 -0.2407 -0.8459 -0.7095
  545MOL0     H73519   5.725   3.917   7.971 -1.3293  1.6185 -0.5835
  545MOL0     H73520   5.727   4.120   7.794 -0.0088  0.0595 -3.8197
  545MOL0     H73521   5.671   4.022   7.666 -1.1560  1.5353 -1.2444
  545MOL0     H73522   5.534   4.133   7.899 -2.5358 -2.7973  2.6292
  545MOL0     H73523   5.461   3.987   7.850  1.0549 -0.7535  1.2664
  545MOL0     H73524   5.440   4.074   7.612 -2.7251 -2.6306  1.2579
  545MOL0     H73525   5.337   4.161   7.730  0.3321  3.6277  0.5486
  545MOL0     H73526   5.650   4.246   7.504  3.5214  4.3437 -2.0975
  545MOL0     H73527   5.772   4.494   7.462  2.3151 -2.2584  0.1518
  545MOL0     H73528   5.785   4.609   7.599  2.9666  0.8829  0.1943
  545MOL0     H73529   5.903   4.447   7.731 -0.1752  0.3518  0.0130
  545MOL0     H73530   5.923   4.340   7.593  1.5180  0.6006 -3.4718
  545MOL0     H73531   6.056   4.543   7.472  1.5910  0.3939  0.4283
  545MOL0     H73532   6.127   4.488   7.615 -0.9130  0.0009  1.0151
  545MOL0     H73533   5.949   4.720   7.578  0.9622 -0.7093  0.5170
  545MOL0     H73534   6.113   4.734   7.637  1.7324 -2.3141 -1.7237
  545MOL0     H73535   5.914   4.676   8.007  0.1596 -0.8993  0.1445
  545MOL0     H73536   5.923   4.863   8.169  0.4703  0.2537  0.5510
  545MOL0     H73537   5.784   5.361   8.156 -0.9901  0.7341  2.0854
  545MOL0     H73538   5.779   5.510   8.357 -0.1372  0.9909  1.7298
  545MOL0     H73539   5.828   5.735   8.466 -1.3279 -3.6463 -1.7333
  545MOL0     H73540   5.800   5.600   8.566 -1.9784 -0.1030 -0.4750
  545MOL0     H73541   5.852   5.802   8.712 -1.7610 -1.0857 -1.9998
  545MOL0     H73542   5.983   5.689   8.729  1.7867 -0.1442 -0.7963
  545MOL0     H73543   6.016   5.915   8.521 -1.6384  1.1246  1.7965
  545MOL0     H73544   6.023   5.953   8.693 -1.4557  0.1105  0.0993
  545MOL0     H73545   6.213   5.811   8.531 -2.0108 -3.4629  0.4675
  545MOL0     H73546   6.193   5.741   8.682 -0.2244  0.2494  1.4058
  545MOL0     H73547   6.344   5.890   8.769 -0.0217 -1.3163  0.1175
  545MOL0     H73548   6.207   5.979   8.802 -0.3693 -1.1946 -0.5226
  545MOL0     H73549   6.358   6.016   8.552 -1.1112 -2.1480  0.5163
  545MOL0     H73550   6.218   6.105   8.580  0.6329  0.6053 -0.4115
  545MOL0     H73551   6.408   6.121   8.818  0.0544  0.1776  0.0790
  545MOL0     H73552   6.301   6.242   8.741  0.8653  0.5373 -0.7308
  545MOL0     H73553   6.536   6.297   8.713  0.3522  0.0625  0.0423
  545MOL0     H73554   6.564   6.146   8.616 -0.7822 -0.2788 -0.2050
  545MOL0     H73555   6.197   5.514   8.391 -0.6005  0.6749 -0.1155
  545MOL0     H73556   6.213   5.338   8.199 -0.8247 -1.4323  0.6719
  545MOL0     H73557   6.071   5.122   7.874 -0.8877  0.6849  3.4541
  545MOL0     H73558   6.054   4.933   7.697 -0.0769  1.1920  0.3399
  545MOL0     H73559   5.848   3.427   7.567  0.3840  3.0492  1.8636
  545MOL0     H73560   6.019   3.260   7.641 -1.2633  0.5362 -0.0955
  545MOL0     H73561   6.392   3.090   7.630  0.2614  0.4426 -0.5865
  545MOL0     H73562   6.525   2.925   7.713 -1.1751 -0.6957 -0.0163
  545MOL0     H73563   6.720   2.835   7.795  1.5274  1.7056 -2.6890
  545MOL0     H73564   6.812   2.805   7.948 -0.1309  0.9214 -0.8023
  545MOL0     H73565   6.811   3.037   7.775 -0.3672 -1.1918  0.3266
  545MOL0     H73566   6.948   2.960   7.823  0.1750 -0.2770  0.1512
  545MOL0     H73567   6.803   3.153   8.000 -0.5417  1.4407 -2.4493
  545MOL0     H73568   6.965   3.152   7.960 -0.2242  0.8913  3.8558
  545MOL0     H73569   6.846   2.929   8.138  0.8458 -0.8617  1.0212
  545MOL0     H73570   7.012   2.931   8.070  2.2474  4.0330 -3.9345
  545MOL0     H73571   7.065   3.147   8.392  0.1975  1.8271 -2.3066
  545MOL0     H73572   6.548   3.136   8.096 -1.2911  1.7567 -0.2769
  545MOL0     H73573   6.340   3.335   8.082 -1.2167 -0.2106 -2.1741
  545MOL0     H73574   6.504   3.370   8.105  0.8701 -1.5530  0.4357
  545MOL0     H73575   6.423   3.442   7.964 -0.2010  2.4625  2.8069
  546MOL0     O73576   5.774   9.578   2.348  0.1036 -0.0031  0.7499
  546MOL0     C73577   5.797   9.691   2.380  0.0150  0.5574  0.6460
  546MOL0     O73578   5.739   9.751   2.488 -0.2960  0.4497 -0.3227
  546MOL0     C73579   5.631   9.693   2.558  0.5515  0.5494 -0.3913
  546MOL0     C73580   5.496   9.700   2.526 -0.4675  0.9754 -0.1299
  546MOL0     C73581   5.408   9.660   2.629 -0.2966  0.4321  0.0974
  546MOL0     C73582   5.444   9.610   2.755  0.2437  0.6179  1.1597
  546MOL0     O73583   5.336   9.615   2.847 -0.1953  0.5976 -0.5888
  546MOL0     C73584   5.337   9.538   2.975  0.1996 -0.7162  0.7552
  546MOL0     C73585   5.367   9.613   3.110 -0.1506 -0.2767  0.7826
  546MOL0     C73586   5.464   9.529   3.200  0.1841 -1.3875 -0.3949
  546MOL0     C73587   5.507   9.605   3.328  0.0955  0.0704 -0.1219
  546MOL0     C73588   5.601   9.514   3.412  0.6476  0.2017 -0.3589
  546MOL0     C73589   5.622   9.568   3.553 -0.7923 -0.3239  0.1082
  546MOL0     C73590   5.726   9.685   3.562 -0.1473  0.6616 -0.1800
  546MOL0     C73591   5.763   9.721   3.713  0.3772  0.0097 -0.4939
  546MOL0     N73592   5.875   9.809   3.690 -0.1850 -0.6830 -0.4360
  546MOL0     C73593   5.883   9.942   3.669  0.3680  0.5721  0.2342
  546MOL0     C73594   6.008   9.980   3.656 -0.8336 -0.0086  1.0205
  546MOL0     C73595   6.072  10.118   3.604  0.2378  0.1456 -0.7130
  546MOL0     C73596   6.162  10.187   3.698  0.0249  0.0527  0.8301
  546MOL0     C73597   6.299  10.124   3.725  0.3379  0.1989  0.5816
  546MOL0     C73598   6.401  10.109   3.607 -0.3423 -0.5060 -0.2711
  546MOL0     O73599   6.424  10.234   3.538  0.0323  0.1918 -0.2327
  546MOL0     C73600   6.493  10.223   3.417 -0.2565 -0.7455 -0.5236
  546MOL0     C73601   6.442  10.274   3.310  0.1093 -0.7621  0.2501
  546MOL0     C73602   6.505  10.256   3.181  0.7053  0.4090 -0.8012
  546MOL0     C73603   6.619  10.165   3.170  1.5384 -1.2329 -0.0147
  546MOL0     C73604   6.680  10.123   3.040 -0.1599 -0.5129  0.6821
  546MOL0     O73605   6.655  10.206   2.932  0.3135 -0.0341 -0.2850
  546MOL0     C73606   6.725  10.168   2.822  0.0873  0.6801 -0.3307
  546MOL0     C73607   6.841  10.239   2.817  0.2245 -0.8660  0.3304
  546MOL0     C73608   6.934  10.226   2.710 -0.7098  0.5986 -0.5312
  546MOL0     C73609   6.910  10.138   2.608 -0.6968 -0.2086  0.0716
  546MOL0     O73610   6.985  10.111   2.496 -0.4599 -0.0245 -0.1149
  546MOL0     C73611   7.136  10.127   2.524  0.2359  0.0249  0.9925
  546MOL0     C73612   7.188  10.029   2.635  0.6501 -0.6605 -0.4246
  546MOL0     C73613   7.345  10.027   2.633 -0.1060  0.0844 -0.4545
  546MOL0     C73614   7.428   9.970   2.745  0.4255 -0.4070 -0.4925
  546MOL0     C73615   7.442   9.816   2.735  0.5444 -0.1294  0.3931
  546MOL0     C73616   7.522   9.753   2.854 -0.4603 -0.1281 -0.6984
  546MOL0     C73617   7.557   9.607   2.821  0.5003 -0.1506 -0.4597
  546MOL0     C73618   7.666   9.554   2.908  0.1013  0.2567  0.1788
  546MOL0    Cl73619   7.816   9.620   2.829  0.2963  0.1655  0.0640
  546MOL0     C73620   6.791  10.062   2.621  0.1920  0.6742  0.8265
  546MOL0     C73621   6.695  10.074   2.724 -0.4709  0.0648 -0.6367
  546MOL0     O73622   6.731  10.014   3.030 -0.3645 -0.2203  0.2386
  546MOL0     C73623   6.674  10.127   3.288 -0.4631 -0.2662  0.3766
  546MOL0     C73624   6.623  10.165   3.417 -0.6466 -0.0056  0.3561
  546MOL0     N73625   6.088   9.865   3.680  0.3151 -0.5342 -0.3456
  546MOL0     N73626   6.006   9.763   3.707 -0.5430  0.4866 -0.2937
  546MOL0     C73627   5.579   9.594   2.784  0.0733 -0.0874 -0.0573
  546MOL0     C73628   5.668   9.625   2.678  0.5179 -0.6918  0.4526
  546MOL0     C73629   5.904   9.769   2.313 -0.3385 -0.9244  0.5659
  546MOL0     C73630   5.953   9.872   2.391 -0.5684  0.0814  0.3538
  546MOL0     C73631   6.040   9.966   2.342 -0.8065 -0.2187  0.8273
  546MOL0     C73632   6.096   9.951   2.211 -0.0417  0.1407  1.6549
  546MOL0     O73633   6.162  10.052   2.149 -0.2382  0.6323  0.0606
  546MOL0     C73634   6.264  10.004   2.052 -0.9133  0.3972 -0.5760
  546MOL0     C73635   6.377  10.098   2.045 -0.1233 -1.0486  0.5286
  546MOL0     C73636   6.448  10.107   2.178 -0.0552  0.3509  0.0203
  546MOL0     C73637   6.526  10.241   2.189 -0.2400  0.0436 -0.6428
  546MOL0     C73638   6.655  10.238   2.126 -1.2850 -0.2658 -0.0600
  546MOL0     C73639   6.764  10.245   2.069  0.4880 -0.0664 -0.3320
  546MOL0     C73640   6.054   9.832   2.135 -0.8902 -0.0343 -0.3655
  546MOL0     C73641   5.957   9.744   2.192 -0.8122 -0.7789  0.4311
  546MOL0     C73642   5.910   9.633   2.103 -0.1916 -0.0920 -0.2267
  546MOL0     H73643   5.474   9.763   2.441  0.4938  3.3645  1.2725
  546MOL0     H73644   5.303   9.685   2.614 -0.1630  0.6087 -0.5695
  546MOL0     H73645   5.234   9.502   2.979 -0.6812  0.8654 -3.2217
  546MOL0     H73646   5.401   9.450   2.963  3.2108  1.5289 -0.9094
  546MOL0     H73647   5.268   9.625   3.155  0.6339 -1.1773  2.8091
  546MOL0     H73648   5.418   9.710   3.102 -3.0410  1.5244  2.5470
  546MOL0     H73649   5.542   9.510   3.126 -0.5519 -1.2754 -1.2218
  546MOL0     H73650   5.424   9.430   3.225 -1.4906 -0.5273  0.5077
  546MOL0     H73651   5.556   9.697   3.297 -0.7337 -0.1985 -2.4282
  546MOL0     H73652   5.420   9.626   3.391  0.9709  2.3907  0.3821
  546MOL0     H73653   5.552   9.417   3.427 -0.6424  0.4968 -2.3606
  546MOL0     H73654   5.696   9.505   3.358  1.5666 -1.1807  1.3924
  546MOL0     H73655   5.526   9.586   3.604  0.0423  0.1054  1.5852
  546MOL0     H73656   5.657   9.484   3.614  0.3101 -0.2441 -0.4005
  546MOL0     H73657   5.679   9.775   3.521 -0.2629 -0.2095 -2.0371
  546MOL0     H73658   5.802   9.658   3.489 -2.1020  0.9247 -2.4077
  546MOL0     H73659   5.674   9.767   3.758 -0.4233 -0.8684 -1.1396
  546MOL0     H73660   5.793   9.643   3.784  0.6641  1.7249  1.3846
  546MOL0     H73661   5.803  10.015   3.667  0.2554  0.4924  1.1904
  546MOL0     H73662   6.127  10.100   3.512  0.1507 -1.0969 -0.5403
  546MOL0     H73663   5.987  10.179   3.572 -2.8150 -3.7408 -0.8272
  546MOL0     H73664   6.177  10.286   3.655 -2.4903  0.5014  0.8073
  546MOL0     H73665   6.106  10.202   3.791  2.2860 -1.2128  2.4882
  546MOL0     H73666   6.287  10.026   3.772  1.0756  0.5102  1.4543
  546MOL0     H73667   6.349  10.187   3.799  0.5515 -1.1648  1.6364
  546MOL0     H73668   6.374  10.026   3.542 -2.4404 -0.4012  0.3734
  546MOL0     H73669   6.489  10.079   3.664 -1.7565 -1.8243  1.3777
  546MOL0     H73670   6.351  10.334   3.310 -1.1965 -2.5510 -2.1791
  546MOL0     H73671   6.454  10.304   3.098 -2.5573  2.4194  2.1102
  546MOL0     H73672   6.859  10.318   2.890 -0.1849  2.5924 -2.9811
  546MOL0     H73673   7.020  10.292   2.705 -0.0959  0.1555  2.3973
  546MOL0     H73674   7.184  10.094   2.432  0.5718  0.7669  0.9016
  546MOL0     H73675   7.183  10.225   2.533  2.0268 -0.6337 -0.6764
  546MOL0     H73676   7.152  10.056   2.735 -3.5192 -2.6067 -1.1749
  546MOL0     H73677   7.150   9.928   2.621  1.4457 -0.8327 -1.4641
  546MOL0     H73678   7.366   9.984   2.534  0.6351  1.0540 -0.7340
  546MOL0     H73679   7.371  10.133   2.637 -1.1201  0.3240  3.4848
  546MOL0     H73680   7.379  10.007   2.835  1.0699 -0.1323 -0.2459
  546MOL0     H73681   7.527  10.017   2.751  0.4587 -0.4739 -0.5133
  546MOL0     H73682   7.488   9.779   2.643 -2.9778 -3.0331 -0.3997
  546MOL0     H73683   7.338   9.783   2.739  0.5455 -0.4789 -1.4911
  546MOL0     H73684   7.619   9.802   2.864  0.3304 -1.8553  0.4811
  546MOL0     H73685   7.476   9.757   2.953  2.8031 -2.0375  1.0475
  546MOL0     H73686   7.594   9.583   2.721  0.6781  0.9519 -0.6653
  546MOL0     H73687   7.469   9.544   2.840  1.9136 -1.8445  0.7673
  546MOL0     H73688   7.664   9.593   3.010 -0.9154  0.5679  0.0501
  546MOL0     H73689   7.671   9.445   2.923  0.8391 -0.5767 -4.6027
  546MOL0     H73690   6.761   9.997   2.540  2.2766  1.6704 -0.8405
  546MOL0     H73691   6.613  10.003   2.721 -0.9513  0.5616  0.2970
  546MOL0     H73692   6.759  10.061   3.299 -0.1615  0.1231  0.3799
  546MOL0     H73693   6.664  10.126   3.510  0.7464 -0.7591 -0.5396
  546MOL0     H73694   5.618   9.577   2.884 -1.1040  1.6059  0.7493
  546MOL0     H73695   5.775   9.613   2.692  1.4381  1.4107 -3.3429
  546MOL0     H73696   5.909   9.891   2.489 -1.9700  1.2616 -0.4603
  546MOL0     H73697   6.074  10.051   2.401 -0.5961  0.5583 -0.3827
  546MOL0     H73698   6.217   9.999   1.953  0.4329  1.9801 -1.3412
  546MOL0     H73699   6.295   9.902   2.077  0.7368  0.8488 -0.7154
  546MOL0     H73700   6.337  10.198   2.028 -0.5251 -0.5888  3.5782
  546MOL0     H73701   6.445  10.087   1.960 -1.9455  3.4317 -1.8488
  546MOL0     H73702   6.526  10.031   2.194  3.0226  2.9446 -1.4787
  546MOL0     H73703   6.379  10.114   2.262 -1.3843  0.3705 -1.0509
  546MOL0     H73704   6.472  10.329   2.153  2.5826  2.5100  0.7783
  546MOL0     H73705   6.556  10.251   2.293 -0.8325 -4.0931  0.1276
  546MOL0     H73706   6.854  10.250   2.010 -0.3605 -0.1052 -1.6782
  546MOL0     H73707   6.114   9.819   2.045 -1.0606  0.2702 -0.5231
  546MOL0     H73708   5.802   9.633   2.085 -0.7898  2.0289  2.7331
  546MOL0     H73709   5.966   9.652   2.011 -0.4874 -0.9561 -0.6011
  546MOL0     H73710   5.931   9.530   2.133  3.3220  0.6511  0.2911
  547MOL0     O73711   8.870   6.210   5.304 -0.7296 -0.6927  0.7810
  547MOL0     C73712   8.873   6.135   5.401  0.1061 -0.5405  0.4542
  547MOL0     O73713   8.928   6.166   5.524 -0.2314 -0.9791 -0.8652
  547MOL0     C73714   9.029   6.263   5.528 -0.3019 -0.8783  1.2962
  547MOL0     C73715   9.032   6.357   5.632  0.7599  0.2087 -0.0383
  547MOL0     C73716   9.138   6.449   5.644  1.2818 -1.4875  0.6504
  547MOL0     C73717   9.253   6.433   5.566  0.0986  0.7685  0.3530
  547MOL0     O73718   9.374   6.504   5.575  0.4170  0.3018 -0.6875
  547MOL0     C73719   9.370   6.648   5.551 -0.0803  0.1681 -0.4760
  547MOL0     C73720   9.374   6.677   5.409  0.2556 -0.5150 -0.1679
  547MOL0     C73721   9.512   6.652   5.344  0.3692 -0.1554 -0.0514
  547MOL0     C73722   9.493   6.616   5.196  0.9773 -0.4847  0.5702
  547MOL0     C73723   9.422   6.473   5.171 -0.3305 -0.9512 -0.3205
  547MOL0     C73724   9.444   6.412   5.030  0.2994 -0.1149 -0.2761
  547MOL0     C73725   9.387   6.269   5.024  0.0948 -0.2765 -0.0120
  547MOL0     C73726   9.241   6.253   5.065 -0.2404 -0.0661  0.0216
  547MOL0     N73727   9.181   6.123   5.051  0.0949 -0.2667  0.5714
  547MOL0     C73728   9.076   6.094   4.955  0.1279  0.1947 -0.2732
  547MOL0     C73729   9.064   5.955   4.962  0.2006 -0.3677 -0.6337
  547MOL0     C73730   8.994   5.862   4.865 -0.0108  0.0553  0.3234
  547MOL0     C73731   8.853   5.842   4.936  0.1687  0.6218  0.3244
  547MOL0     C73732   8.762   5.753   4.848 -0.5018 -0.2994  0.3866
  547MOL0     C73733   8.625   5.727   4.912 -0.3297  0.0235  0.5054
  547MOL0     O73734   8.554   5.856   4.892 -0.4698 -0.2486 -0.7997
  547MOL0     C73735   8.425   5.871   4.937 -0.5593 -0.0180  0.2644
  547MOL0     C73736   8.352   5.974   4.885  0.3306  0.2306 -0.1430
  547MOL0     C73737   8.223   6.005   4.924 -0.2666  0.3710 -0.4641
  547MOL0     C73738   8.168   5.931   5.033 -0.5129  0.0735  0.5763
  547MOL0     C73739   8.026   5.955   5.082 -0.4655  0.2772  0.2856
  547MOL0     O73740   7.985   5.871   5.183  0.3319  0.4926  0.4223
  547MOL0     C73741   7.860   5.876   5.223  0.5197  0.0339 -0.6798
  547MOL0     C73742   7.836   5.909   5.358 -0.9292 -0.5194 -0.0046
  547MOL0     C73743   7.714   5.909   5.419 -0.2602  0.2522  0.7777
  547MOL0     C73744   7.602   5.864   5.336  0.0895 -1.0240  0.4331
  547MOL0     O73745   7.475   5.853   5.382 -0.1809 -0.1266  0.0221
  547MOL0     C73746   7.436   5.878   5.520 -0.0739 -0.7756  0.3393
  547MOL0     C73747   7.289   5.859   5.528 -0.6502 -0.2900 -0.4691
  547MOL0     C73748   7.216   5.981   5.462 -0.5354 -0.1688 -0.7335
  547MOL0     C73749   7.065   5.970   5.467  0.2878 -0.1902  0.0325
  547MOL0     C73750   7.000   6.105   5.435  0.4860 -0.0228  0.4608
  547MOL0     C73751   6.849   6.107   5.484  0.4369 -0.0018  0.1260
  547MOL0     C73752   6.737   6.018   5.419  0.0242 -1.1751 -0.5460
  547MOL0     C73753   6.712   6.067   5.283 -0.1557 -0.2303 -0.5987
  547MOL0    Cl73754   6.564   5.977   5.219 -0.5698 -0.0898  0.0732
  547MOL0     C73755   7.625   5.834   5.209 -0.5150  0.6310  0.4579
  547MOL0     C73756   7.747   5.839   5.143 -0.0492  0.1641  0.6185
  547MOL0     O73757   7.952   6.039   5.028 -0.6736 -0.0177 -0.2093
  547MOL0     C73758   8.248   5.828   5.094 -0.4006 -0.2338  0.4295
  547MOL0     C73759   8.369   5.793   5.046 -0.5251 -0.0541  0.9328
  547MOL0     N73760   9.152   5.905   5.050  0.3304 -0.5563  0.3884
  547MOL0     N73761   9.224   6.004   5.106  0.4060  0.0306 -0.2457
  547MOL0     C73762   9.247   6.330   5.461  0.6028 -0.4479 -0.4961
  547MOL0     C73763   9.144   6.245   5.447 -0.0529 -0.4891  0.1872
  547MOL0     C73764   8.801   6.008   5.385 -0.5860  0.6757  0.7455
  547MOL0     C73765   8.668   6.017   5.357 -0.1281 -0.1690  1.0510
  547MOL0     C73766   8.602   5.893   5.330 -0.7535 -1.0722  0.1237
  547MOL0     C73767   8.654   5.766   5.361  0.5664  0.5041 -0.6964
  547MOL0     O73768   8.569   5.655   5.347 -0.9709 -0.2469 -0.0028
  547MOL0     C73769   8.537   5.592   5.466 -0.5277  0.7426 -0.5166
  547MOL0     C73770   8.414   5.510   5.457 -0.4172 -0.0810  0.3826
  547MOL0     C73771   8.287   5.592   5.469 -0.3982  0.7936  0.4834
  547MOL0     C73772   8.154   5.510   5.423  0.0625 -0.4898 -0.2937
  547MOL0     C73773   8.166   5.443   5.292  0.2417  0.0469  0.4150
  547MOL0     C73774   8.177   5.390   5.182  0.5927  0.7256  0.4781
  547MOL0     C73775   8.788   5.760   5.390 -0.6047 -0.3154  0.0123
  547MOL0     C73776   8.866   5.877   5.393  0.4897 -0.1703 -0.5073
  547MOL0     C73777   9.023   5.874   5.406  0.2424  0.2345 -0.3293
  547MOL0     H73778   8.946   6.367   5.697  1.8121  2.9782  1.0614
  547MOL0     H73779   9.127   6.535   5.709 -1.2095 -0.4458 -0.9916
  547MOL0     H73780   9.276   6.683   5.593 -0.2202  1.1894 -1.5954
  547MOL0     H73781   9.455   6.696   5.601 -0.6860 -2.1890  3.1953
  547MOL0     H73782   9.339   6.780   5.407  2.7364  0.4083 -0.3044
  547MOL0     H73783   9.295   6.619   5.360 -1.0654 -0.9069  2.2838
  547MOL0     H73784   9.567   6.569   5.389 -0.1435  0.8781  2.6207
  547MOL0     H73785   9.577   6.739   5.344 -0.2922  0.3531 -0.7318
  547MOL0     H73786   9.428   6.691   5.150  0.0272 -1.7583 -0.2535
  547MOL0     H73787   9.588   6.610   5.141 -0.0715 -0.1200 -1.3664
  547MOL0     H73788   9.451   6.401   5.248 -3.3032 -2.3170 -0.3241
  547MOL0     H73789   9.315   6.492   5.187 -0.5071  0.3635 -2.6000
  547MOL0     H73790   9.380   6.466   4.959 -1.6663 -2.5641 -0.5026
  547MOL0     H73791   9.551   6.414   5.009  0.5160 -1.0792  0.6340
  547MOL0     H73792   9.456   6.205   5.079  1.2919  0.2176 -0.8942
  547MOL0     H73793   9.386   6.242   4.918 -0.7576 -0.2762 -0.0103
  547MOL0     H73794   9.243   6.257   5.174  0.3400 -1.2509  0.0670
  547MOL0     H73795   9.169   6.322   5.019 -1.7062 -0.6465  1.3528
  547MOL0     H73796   9.033   6.154   4.876  1.7550  0.2975 -1.1325
  547MOL0     H73797   8.982   5.906   4.766 -0.5561  0.3938  0.5351
  547MOL0     H73798   9.055   5.771   4.862 -1.2771 -0.9210 -4.6290
  547MOL0     H73799   8.873   5.803   5.036 -0.2025 -2.0161 -0.5434
  547MOL0     H73800   8.801   5.937   4.952  2.5785  1.9625  0.6936
  547MOL0     H73801   8.805   5.657   4.820 -2.8693 -0.9891 -1.0826
  547MOL0     H73802   8.733   5.803   4.755  2.1200 -0.4691 -0.6036
  547MOL0     H73803   8.642   5.703   5.017 -1.7412  0.0810  0.7552
  547MOL0     H73804   8.572   5.647   4.861  0.8400 -0.6492  0.2912
  547MOL0     H73805   8.385   6.039   4.804  0.1261  0.3579 -0.1265
  547MOL0     H73806   8.174   6.090   4.880  0.2075 -0.5452 -2.9423
  547MOL0     H73807   7.929   5.919   5.413  1.4857 -0.1506 -3.7448
  547MOL0     H73808   7.707   5.932   5.525 -5.1563  0.7609  0.5464
  547MOL0     H73809   7.491   5.832   5.603 -0.7095  2.4311  2.7825
  547MOL0     H73810   7.456   5.983   5.541  1.6986 -0.5420 -2.1089
  547MOL0     H73811   7.242   5.769   5.487 -2.0236  2.4752 -5.8862
  547MOL0     H73812   7.263   5.852   5.634 -2.1004 -0.9443 -0.8305
  547MOL0     H73813   7.242   6.074   5.515  1.8933 -1.2362  0.0857
  547MOL0     H73814   7.232   5.994   5.355 -0.2537 -1.9015 -0.9233
  547MOL0     H73815   7.039   5.949   5.571 -2.5464 -0.6949 -0.7056
  547MOL0     H73816   7.035   5.885   5.406  2.0656  0.4128 -1.8076
  547MOL0     H73817   6.989   6.134   5.330  0.0946  3.2442  1.2882
  547MOL0     H73818   7.061   6.180   5.486  0.2623 -1.2262  2.5924
  547MOL0     H73819   6.841   6.076   5.589 -1.3345  2.8753  0.9577
  547MOL0     H73820   6.818   6.212   5.480  1.4467  0.2670 -1.1773
  547MOL0     H73821   6.642   6.023   5.473 -1.2433 -1.6868 -2.6174
  547MOL0     H73822   6.761   5.912   5.408  1.5158 -0.7063 -2.4619
  547MOL0     H73823   6.700   6.176   5.276 -0.5799 -0.2337 -0.0311
  547MOL0     H73824   6.800   6.041   5.224  1.4057 -1.9878  2.2927
  547MOL0     H73825   7.534   5.800   5.160 -0.7542  0.8038  0.7755
  547MOL0     H73826   7.759   5.818   5.037 -1.1380 -2.3530  0.9292
  547MOL0     H73827   8.208   5.775   5.179  0.3916  0.6245  1.3646
  547MOL0     H73828   8.433   5.725   5.102 -0.4493  2.3127  4.0012
  547MOL0     H73829   9.336   6.328   5.398 -0.9239  1.5965 -2.9222
  547MOL0     H73830   9.141   6.162   5.377 -0.7314 -0.9426  0.7405
  547MOL0     H73831   8.613   6.110   5.359  1.2245  0.6569  2.4897
  547MOL0     H73832   8.495   5.896   5.311 -0.2060 -2.2604 -4.0301
  547MOL0     H73833   8.524   5.660   5.551 -1.6512  0.2142 -0.2509
  547MOL0     H73834   8.629   5.537   5.489 -0.7819 -0.0099 -1.2416
  547MOL0     H73835   8.427   5.442   5.541  0.5851  0.6700  0.8578
  547MOL0     H73836   8.432   5.461   5.361  1.4353  3.8633 -1.5170
  547MOL0     H73837   8.290   5.673   5.396 -2.4245  0.6249  0.1616
  547MOL0     H73838   8.269   5.644   5.564 -1.6495  0.6568  0.3375
  547MOL0     H73839   8.133   5.432   5.497 -1.7529  1.2935  1.2118
  547MOL0     H73840   8.058   5.564   5.428 -0.3429 -1.0645 -1.5563
  547MOL0     H73841   8.200   5.345   5.088  2.5343 -0.4397  1.4603
  547MOL0     H73842   8.818   5.658   5.412  3.3498  1.2581  3.2972
  547MOL0     H73843   9.046   5.770   5.427 -4.4777 -0.4035  3.3581
  547MOL0     H73844   9.058   5.918   5.312  1.6126  0.7091  0.3794
  547MOL0     H73845   9.055   5.949   5.479 -1.4155  2.0308 -1.3247
  548MOL0     O73846   1.621   1.432   3.419  0.1173 -0.1433  0.4978
  548MOL0     C73847   1.669   1.541   3.461 -0.2966  0.1170 -0.2943
  548MOL0     O73848   1.800   1.579   3.441  0.1582 -0.4367 -0.8936
  548MOL0     C73849   1.886   1.499   3.372  0.1166 -0.6596  1.0267
  548MOL0     C73850   1.973   1.415   3.438  1.2500  0.5274  0.2879
  548MOL0     C73851   2.066   1.338   3.369  0.2433  0.3789  0.1441
  548MOL0     C73852   2.081   1.344   3.230 -0.2170  0.4427  0.1101
  548MOL0     O73853   2.171   1.252   3.173  0.0579  0.6184 -0.2436
  548MOL0     C73854   2.235   1.283   3.049 -0.1711 -0.2886  1.3028
  548MOL0     C73855   2.300   1.157   2.985  0.4229  0.7105 -0.4770
  548MOL0     C73856   2.363   1.176   2.853 -0.1658 -0.0451  0.0186
  548MOL0     C73857   2.273   1.216   2.741  0.1634  0.9449 -1.1673
  548MOL0     C73858   2.336   1.229   2.601  0.2376  0.5276  0.0099
  548MOL0     C73859   2.222   1.237   2.485 -0.2172  0.9241  0.1214
  548MOL0     C73860   2.291   1.283   2.348 -0.8999  0.6007 -0.4039
  548MOL0     C73861   2.192   1.327   2.243  0.2859 -0.4569  0.2845
  548MOL0     N73862   2.268   1.356   2.125 -0.3869  0.3096 -0.0899
  548MOL0     C73863   2.328   1.258   2.050  0.1197 -0.4868 -0.4235
  548MOL0     C73864   2.375   1.328   1.946  0.3038  0.4372  0.1560
  548MOL0     C73865   2.441   1.268   1.820 -0.1200  0.4922 -0.1981
  548MOL0     C73866   2.521   1.366   1.734  0.1725 -0.8884  0.1141
  548MOL0     C73867   2.656   1.411   1.810 -0.8588  0.3268  0.1189
  548MOL0     C73868   2.706   1.545   1.768 -0.5406 -0.8140 -0.6542
  548MOL0     O73869   2.802   1.602   1.872  0.4801 -0.5667 -0.5784
  548MOL0     C73870   2.744   1.628   1.990  0.4012  0.6147 -1.3797
  548MOL0     C73871   2.637   1.721   2.004 -0.5180  0.2307 -1.1941
  548MOL0     C73872   2.574   1.749   2.121 -0.3542  0.1825  0.3331
  548MOL0     C73873   2.618   1.689   2.243 -0.5440  0.0071 -0.0731
  548MOL0     C73874   2.553   1.709   2.377 -0.0392  0.3340 -0.7457
  548MOL0     O73875   2.600   1.625   2.481  0.3569  0.0586 -0.6451
  548MOL0     C73876   2.538   1.631   2.605  0.8007 -0.0499  0.0077
  548MOL0     C73877   2.607   1.585   2.708 -0.5480  0.8084 -0.5317
  548MOL0     C73878   2.542   1.581   2.839 -1.0039 -0.3414  0.5378
  548MOL0     C73879   2.407   1.607   2.850 -0.4601 -0.0903 -0.2131
  548MOL0     O73880   2.348   1.610   2.970 -0.1242 -0.6820  1.1245
  548MOL0     C73881   2.415   1.678   3.080 -0.5397  0.5280  0.1203
  548MOL0     C73882   2.326   1.721   3.192  0.2478 -0.2887 -0.0178
  548MOL0     C73883   2.395   1.826   3.280 -0.9995  0.5766  0.2542
  548MOL0     C73884   2.288   1.922   3.332  1.0720 -0.0219 -0.8549
  548MOL0     C73885   2.357   2.003   3.434  0.4186 -0.5862 -0.3185
  548MOL0     C73886   2.262   2.117   3.483 -0.9532 -0.9203  0.1267
  548MOL0     C73887   2.327   2.203   3.590  0.3860 -1.2267  0.5217
  548MOL0     C73888   2.233   2.301   3.661  0.1566 -0.4659  0.7565
  548MOL0    Cl73889   2.314   2.355   3.812 -0.3664 -0.2553  0.1418
  548MOL0     C73890   2.337   1.654   2.745 -0.0718 -0.0344  0.3850
  548MOL0     C73891   2.399   1.670   2.623 -1.7256  0.1259 -0.0524
  548MOL0     O73892   2.474   1.801   2.389 -0.2500 -1.2444  0.8878
  548MOL0     C73893   2.726   1.595   2.233  0.0327 -0.7284  0.5468
  548MOL0     C73894   2.793   1.569   2.109 -0.5022 -0.2746 -0.4952
  548MOL0     N73895   2.352   1.465   1.968 -0.6025  0.7629 -0.3307
  548MOL0     N73896   2.303   1.477   2.082  0.2299  0.0635 -0.6909
  548MOL0     C73897   1.993   1.435   3.165 -0.0079  0.6093  0.3673
  548MOL0     C73898   1.899   1.511   3.240  1.1808 -0.4222  0.2298
  548MOL0     C73899   1.581   1.644   3.522 -0.9610 -0.1116 -0.5100
  548MOL0     C73900   1.632   1.784   3.531  0.1782  0.3864 -0.8770
  548MOL0     C73901   1.547   1.888   3.561  0.2585 -0.8654 -0.5345
  548MOL0     C73902   1.414   1.867   3.603  0.0631 -0.1536 -0.6086
  548MOL0     O73903   1.346   1.970   3.637  0.5847  0.3298  0.0475
  548MOL0     C73904   1.374   2.008   3.780  0.5502  0.3128  0.2957
  548MOL0     C73905   1.440   2.138   3.791 -0.3777 -0.4174 -0.5772
  548MOL0     C73906   1.363   2.247   3.706 -0.3810  0.1213  0.1488
  548MOL0     C73907   1.229   2.283   3.763  0.2034  0.0075  0.1642
  548MOL0     C73908   1.180   2.402   3.697  0.2697  0.2718  1.4012
  548MOL0     C73909   1.126   2.494   3.648  0.4786 -0.5654  0.5908
  548MOL0     C73910   1.368   1.734   3.609 -0.0103  0.1600  0.5973
  548MOL0     C73911   1.443   1.621   3.562  0.0547  0.1240  0.0868
  548MOL0     C73912   1.366   1.485   3.562  0.0845 -0.4722  0.6454
  548MOL0     H73913   1.973   1.411   3.546  1.7866 -1.8191  0.2476
  548MOL0     H73914   2.114   1.260   3.428  3.1305  0.7592 -1.5106
  548MOL0     H73915   2.155   1.317   2.981  1.7228  2.7951  0.3838
  548MOL0     H73916   2.302   1.370   3.045 -1.6182  0.8414  0.3364
  548MOL0     H73917   2.214   1.091   2.971 -1.6088  2.8267  1.2959
  548MOL0     H73918   2.376   1.113   3.051  0.7900  0.2256 -1.2134
  548MOL0     H73919   2.412   1.080   2.835  1.6852  0.5095  1.7125
  548MOL0     H73920   2.440   1.253   2.858 -0.7581  0.4796  1.9085
  548MOL0     H73921   2.182   1.155   2.739 -1.2796  2.9835 -0.7450
  548MOL0     H73922   2.217   1.306   2.769  1.0267  1.2912 -0.5007
  548MOL0     H73923   2.393   1.322   2.607  2.7201 -0.9885  1.7406
  548MOL0     H73924   2.405   1.147   2.581  1.0198  0.8882  1.1191
  548MOL0     H73925   2.187   1.135   2.466  1.0835  0.1368  1.6957
  548MOL0     H73926   2.136   1.298   2.516 -2.3586 -0.7829 -2.0564
  548MOL0     H73927   2.354   1.201   2.311 -0.3689  0.1990  1.2777
  548MOL0     H73928   2.356   1.368   2.369  0.1186 -0.4315  0.8347
  548MOL0     H73929   2.117   1.249   2.228 -2.2267  1.5886  1.3856
  548MOL0     H73930   2.125   1.411   2.266  0.1771  0.4485 -2.8701
  548MOL0     H73931   2.317   1.151   2.061 -1.3751 -0.5765 -2.3889
  548MOL0     H73932   2.521   1.199   1.847  3.1662  3.4406 -1.6380
  548MOL0     H73933   2.362   1.239   1.750 -0.1828 -0.4585  0.2482
  548MOL0     H73934   2.544   1.326   1.635  2.6544  3.6169 -1.3707
  548MOL0     H73935   2.449   1.448   1.731  0.3318 -0.7289  0.5686
  548MOL0     H73936   2.735   1.345   1.774 -0.4037  0.2815  1.1658
  548MOL0     H73937   2.648   1.415   1.919  0.0806 -0.1626  0.2149
  548MOL0     H73938   2.619   1.611   1.766  0.3173  0.6984  3.0140
  548MOL0     H73939   2.754   1.534   1.671  1.6943  0.7457  0.1776
  548MOL0     H73940   2.614   1.780   1.916 -4.3933 -2.9863 -2.6837
  548MOL0     H73941   2.484   1.809   2.117 -0.1670  0.4591  0.2271
  548MOL0     H73942   2.707   1.543   2.706 -2.1418 -3.5629 -0.3724
  548MOL0     H73943   2.592   1.549   2.930  0.9598 -2.4947 -1.1931
  548MOL0     H73944   2.500   1.625   3.123 -0.2910  1.3446  0.6691
  548MOL0     H73945   2.462   1.756   3.020  1.4743 -3.2073 -3.6788
  548MOL0     H73946   2.247   1.775   3.140 -0.6485 -1.0745  0.4914
  548MOL0     H73947   2.286   1.632   3.243  1.4626 -1.0564 -0.3561
  548MOL0     H73948   2.447   1.767   3.357 -3.3116 -2.5605 -0.3532
  548MOL0     H73949   2.467   1.881   3.221 -1.9471 -0.9199 -2.4671
  548MOL0     H73950   2.205   1.860   3.367  2.6375 -1.3914  0.6463
  548MOL0     H73951   2.244   1.985   3.255 -3.4229  2.0289  2.8648
  548MOL0     H73952   2.434   2.059   3.379 -1.1238  0.7055 -1.2449
  548MOL0     H73953   2.388   1.950   3.524 -0.7469 -2.0864 -0.7681
  548MOL0     H73954   2.226   2.181   3.403  1.8008  3.6155  2.1412
  548MOL0     H73955   2.173   2.074   3.529 -2.5937 -1.5248 -3.3285
  548MOL0     H73956   2.404   2.262   3.541 -0.0561 -0.7614  0.3858
  548MOL0     H73957   2.378   2.145   3.669  2.2068  0.0850  0.3750
  548MOL0     H73958   2.209   2.387   3.598 -2.4888  0.0561  2.3187
  548MOL0     H73959   2.132   2.260   3.679  0.7706 -1.1501  3.0771
  548MOL0     H73960   2.230   1.668   2.756  0.0986  1.2404  0.5569
  548MOL0     H73961   2.340   1.694   2.535 -1.6372 -3.7099 -1.3137
  548MOL0     H73962   2.760   1.537   2.319 -0.2512 -2.3880 -0.4227
  548MOL0     H73963   2.875   1.498   2.102 -0.2234 -0.1619  1.1499
  548MOL0     H73964   2.000   1.444   3.057 -0.7500 -0.8847  0.1744
  548MOL0     H73965   1.852   1.589   3.181  0.2729 -0.0224  1.4548
  548MOL0     H73966   1.734   1.813   3.504  0.6711 -2.0205 -1.8348
  548MOL0     H73967   1.578   1.992   3.563 -4.5860  0.8052  0.1166
  548MOL0     H73968   1.414   1.929   3.845  0.8143  1.1611  1.1877
  548MOL0     H73969   1.278   2.027   3.829  1.9259  3.2335  2.1271
  548MOL0     H73970   1.547   2.132   3.770 -0.0021 -0.3683  1.1621
  548MOL0     H73971   1.436   2.165   3.897  0.9097 -1.8024 -0.1376
  548MOL0     H73972   1.359   2.217   3.601 -0.1100 -3.8586  1.1135
  548MOL0     H73973   1.430   2.334   3.716 -0.0382 -0.1621  0.3399
  548MOL0     H73974   1.151   2.208   3.746 -1.1971  1.6152 -0.8151
  548MOL0     H73975   1.243   2.301   3.870 -3.8679  1.0184  0.6947
  548MOL0     H73976   1.065   2.563   3.594 -0.0243 -0.4644  1.2800
  548MOL0     H73977   1.263   1.713   3.626  0.6138 -1.4947  2.8160
  548MOL0     H73978   1.261   1.515   3.573 -0.1517 -0.4238 -1.3975
  548MOL0     H73979   1.365   1.429   3.469  0.2117  1.4364 -0.5630
  548MOL0     H73980   1.399   1.421   3.644 -0.6879 -0.8887  0.6418
  549MOL0     O73981   3.225   6.235   5.856 -0.1124  0.3453  0.5687
  549MOL0     C73982   3.139   6.156   5.834 -0.1175 -0.6886  0.8759
  549MOL0     O73983   3.054   6.105   5.932  0.0604  0.4182  1.0915
  549MOL0     C73984   3.049   6.174   6.040 -0.4576 -0.4034 -0.4686
  549MOL0     C73985   3.071   6.119   6.173  0.7994  0.5215  0.0847
  549MOL0     C73986   3.049   6.201   6.287  1.2848 -0.1548  0.1176
  549MOL0     C73987   3.030   6.342   6.274  0.7863 -0.2786 -0.2403
  549MOL0     O73988   3.015   6.432   6.381 -0.8886  0.6881  0.4439
  549MOL0     C73989   3.039   6.383   6.516 -0.0691  1.0639  2.0702
  549MOL0     C73990   3.032   6.487   6.629 -0.3845  0.9691  0.5109
  549MOL0     C73991   3.149   6.590   6.642  0.3533  0.2039  0.3986
  549MOL0     C73992   3.099   6.711   6.738 -0.5214  0.0931 -0.0379
  549MOL0     C73993   3.201   6.819   6.751 -0.3402 -0.1598 -0.8904
  549MOL0     C73994   3.141   6.945   6.817  0.5620 -0.9189  0.7647
  549MOL0     C73995   3.235   7.064   6.816 -0.7128 -0.5270 -0.8284
  549MOL0     C73996   3.161   7.194   6.877  0.0876  0.2219  0.2962
  549MOL0     N73997   3.111   7.163   7.024  0.6599 -0.8845  0.0002
  549MOL0     C73998   3.187   7.202   7.129 -0.2341 -0.7742  0.6043
  549MOL0     C73999   3.094   7.228   7.223 -0.0562  0.6514 -0.7059
  549MOL0     C74000   3.124   7.275   7.362 -0.3411  0.2116  0.6965
  549MOL0     C74001   3.190   7.424   7.360 -0.1563  0.1684  0.0441
  549MOL0     C74002   3.138   7.516   7.247  0.5275  0.3647 -0.1213
  549MOL0     C74003   3.216   7.656   7.245  0.0661  0.8054 -0.0805
  549MOL0     O74004   3.209   7.720   7.368  0.7404 -0.5075  0.7601
  549MOL0     C74005   3.259   7.846   7.386  0.5311 -0.4135  0.3292
  549MOL0     C74006   3.226   7.905   7.511 -0.0999  0.0740 -0.5468
  549MOL0     C74007   3.274   8.034   7.545  0.0632 -0.5716 -0.2695
  549MOL0     C74008   3.360   8.107   7.458  0.5373 -0.2102 -0.7677
  549MOL0     C74009   3.438   8.227   7.511  0.5399  1.3890 -0.4359
  549MOL0     O74010   3.372   8.298   7.618  0.0441  0.7268  0.3477
  549MOL0     C74011   3.424   8.392   7.703  0.3477  0.2712  0.6901
  549MOL0     C74012   3.331   8.475   7.756 -0.7296 -0.7682  0.5426
  549MOL0     C74013   3.372   8.578   7.844 -0.8165 -0.7857 -0.4991
  549MOL0     C74014   3.508   8.563   7.888 -0.3896 -0.3127 -0.9991
  549MOL0     O74015   3.542   8.651   7.993 -0.4786 -0.4339  0.0916
  549MOL0     C74016   3.670   8.727   7.975 -1.0730 -0.8013  0.4955
  549MOL0     C74017   3.709   8.833   8.075  0.4386 -0.0121 -0.1595
  549MOL0     C74018   3.778   8.783   8.193 -0.4252  0.1662  0.0114
  549MOL0     C74019   3.784   8.886   8.306 -0.4665  0.3805  0.1961
  549MOL0     C74020   3.845   9.022   8.270 -0.4002  0.1528  0.4406
  549MOL0     C74021   3.899   9.105   8.380 -0.1328 -0.1679  0.1253
  549MOL0     C74022   3.940   9.250   8.335 -0.7221  0.1845  0.2871
  549MOL0     C74023   3.966   9.341   8.459 -0.5625  0.7316 -0.2363
  549MOL0    Cl74024   4.000   9.500   8.412  1.0960 -0.4170 -0.0699
  549MOL0     C74025   3.602   8.476   7.830 -0.2495 -0.6828  0.5932
  549MOL0     C74026   3.560   8.395   7.727  0.2718 -1.2604 -0.6790
  549MOL0     O74027   3.531   8.274   7.440  0.2455  0.3124  0.2149
  549MOL0     C74028   3.398   8.037   7.340  0.2145 -0.5853  1.4663
  549MOL0     C74029   3.346   7.914   7.297  0.5686 -0.6242  0.4191
  549MOL0     N74030   2.967   7.214   7.171 -0.3805 -0.0228 -0.2926
  549MOL0     N74031   2.978   7.169   7.051  0.3534 -1.5673 -0.3685
  549MOL0     C74032   3.014   6.398   6.150 -0.8039 -0.0179 -0.3128
  549MOL0     C74033   3.016   6.317   6.037  0.6850  0.5342 -0.0910
  549MOL0     C74034   3.130   6.090   5.696  0.5223 -0.0150  0.3571
  549MOL0     C74035   3.163   6.177   5.586  0.3656 -0.1506  0.0965
  549MOL0     C74036   3.189   6.129   5.456 -0.1331 -0.4625  0.4385
  549MOL0     C74037   3.182   5.991   5.433  0.6072  0.4248 -0.4142
  549MOL0     O74038   3.194   5.952   5.304  0.2915  0.2802 -0.1206
  549MOL0     C74039   3.209   5.813   5.265  0.3616  0.0725  0.4905
  549MOL0     C74040   3.145   5.778   5.127 -0.4290 -0.6578  1.0308
  549MOL0     C74041   3.211   5.839   5.005 -0.8543 -0.1876  0.3794
  549MOL0     C74042   3.357   5.838   5.010  0.9169  0.7807  0.0634
  549MOL0     C74043   3.411   5.700   5.010  0.7979 -0.3193 -0.5461
  549MOL0     C74044   3.434   5.580   5.015 -0.3950  0.1463  0.2476
  549MOL0     C74045   3.167   5.905   5.546  0.3017  0.5304 -0.2372
  549MOL0     C74046   3.141   5.952   5.675 -0.2058 -1.1566  0.0214
  549MOL0     C74047   3.095   5.852   5.778  0.1467 -0.3154 -0.5732
  549MOL0     H74048   3.096   6.013   6.170  5.8588  1.4678 -1.7895
  549MOL0     H74049   3.057   6.142   6.377  0.6757 -1.5835 -0.7317
  549MOL0     H74050   2.950   6.321   6.532 -0.2872  1.5143  2.6187
  549MOL0     H74051   3.136   6.333   6.516  0.0572  0.7933 -2.8125
  549MOL0     H74052   3.029   6.424   6.718  1.7026  1.1937  0.7939
  549MOL0     H74053   2.935   6.535   6.642 -0.2135  1.0419  1.6747
  549MOL0     H74054   3.174   6.625   6.542 -0.2302  2.0125  0.8483
  549MOL0     H74055   3.241   6.551   6.686 -0.9280 -0.2866  2.8657
  549MOL0     H74056   3.006   6.757   6.704 -1.3752  0.4154  2.5747
  549MOL0     H74057   3.095   6.681   6.843  2.0733  1.6951  0.6097
  549MOL0     H74058   3.281   6.789   6.819  0.6367  2.6836 -0.6187
  549MOL0     H74059   3.264   6.836   6.663  1.3519 -0.7573  0.1509
  549MOL0     H74060   3.052   6.974   6.760  2.9278 -0.6933 -3.1425
  549MOL0     H74061   3.112   6.927   6.921 -5.1769  2.3412  0.1739
  549MOL0     H74062   3.257   7.093   6.713  1.0833 -0.4618 -0.4516
  549MOL0     H74063   3.329   7.029   6.860 -0.7394  0.2315 -0.1464
  549MOL0     H74064   3.226   7.281   6.867  3.2398 -2.0650 -0.8815
  549MOL0     H74065   3.069   7.218   6.823 -0.7528 -2.0159  0.6033
  549MOL0     H74066   3.296   7.203   7.123 -0.2842 -1.3295 -0.5175
  549MOL0     H74067   3.026   7.265   7.410  0.7616 -1.5191  2.7834
  549MOL0     H74068   3.196   7.216   7.419  2.7486 -0.5037 -3.4676
  549MOL0     H74069   3.180   7.484   7.451 -1.6537  1.5639 -0.9808
  549MOL0     H74070   3.298   7.419   7.344 -0.0023  2.8910 -0.2675
  549MOL0     H74071   3.031   7.531   7.262  0.6707  3.3981 -1.2911
  549MOL0     H74072   3.152   7.477   7.145  3.4233  2.1437 -0.5278
  549MOL0     H74073   3.167   7.728   7.178  0.5394  2.6365  1.4411
  549MOL0     H74074   3.322   7.640   7.225 -0.2841 -1.7469 -0.2016
  549MOL0     H74075   3.171   7.850   7.585  0.3187  1.8650  1.1793
  549MOL0     H74076   3.241   8.073   7.641 -0.6414 -3.6779  0.8490
  549MOL0     H74077   3.229   8.464   7.721 -0.8482  0.3668  0.4732
  549MOL0     H74078   3.298   8.631   7.903  1.7625 -0.3910  2.6594
  549MOL0     H74079   3.740   8.643   7.984 -2.7254 -2.3076  0.0377
  549MOL0     H74080   3.678   8.763   7.872  0.4573  0.2372  0.9573
  549MOL0     H74081   3.758   8.910   8.015  0.3943  1.0210  1.0930
  549MOL0     H74082   3.618   8.890   8.098  2.0987  2.5177  0.5490
  549MOL0     H74083   3.719   8.697   8.227  1.2666 -0.6695  0.9855
  549MOL0     H74084   3.876   8.747   8.158 -1.1119  0.7281 -2.7137
  549MOL0     H74085   3.852   8.848   8.384  3.2165  0.7663 -2.5593
  549MOL0     H74086   3.683   8.908   8.341 -0.8854 -1.2642  0.1202
  549MOL0     H74087   3.770   9.083   8.220  1.5227  0.9403 -1.6535
  549MOL0     H74088   3.913   9.013   8.185 -2.6000  1.8154 -1.6037
  549MOL0     H74089   3.814   9.125   8.445 -2.2930  0.0768 -2.6105
  549MOL0     H74090   3.977   9.042   8.425 -0.3112 -3.2260 -3.3522
  549MOL0     H74091   3.857   9.283   8.272 -2.8032 -1.3346  2.0605
  549MOL0     H74092   4.029   9.254   8.271 -0.8537  0.6791  0.1286
  549MOL0     H74093   3.881   9.351   8.528  0.4298  2.8353  0.7947
  549MOL0     H74094   4.048   9.300   8.518  0.5017  0.5664 -1.7848
  549MOL0     H74095   3.709   8.479   7.852 -0.2056  2.5680  0.3513
  549MOL0     H74096   3.642   8.342   7.679  1.9568 -0.5799  1.2758
  549MOL0     H74097   3.483   8.058   7.276 -1.1005 -1.5207 -0.7301
  549MOL0     H74098   3.375   7.890   7.195 -0.3347 -0.5677  0.1436
  549MOL0     H74099   3.010   6.507   6.150 -0.4737  0.0114 -1.4266
  549MOL0     H74100   2.997   6.359   5.939 -1.3446  6.2170  2.2643
  549MOL0     H74101   3.172   6.283   5.607  2.2328 -0.4135  0.8460
  549MOL0     H74102   3.221   6.192   5.374 -1.6850  1.9678  1.5706
  549MOL0     H74103   3.150   5.745   5.328 -0.4816 -0.1652 -0.5273
  549MOL0     H74104   3.309   5.770   5.260 -0.3370 -1.5128 -3.3115
  549MOL0     H74105   3.048   5.830   5.134 -1.3581 -2.2170  0.1998
  549MOL0     H74106   3.102   5.679   5.113 -3.2493  0.5771 -0.0258
  549MOL0     H74107   3.175   5.939   4.978 -0.5727 -0.4245 -0.9308
  549MOL0     H74108   3.175   5.784   4.917  0.3122 -3.1402  1.6237
  549MOL0     H74109   3.374   5.883   4.911  1.8099 -0.6252 -0.4564
  549MOL0     H74110   3.384   5.896   5.098 -1.7736 -1.9290  2.9643
  549MOL0     H74111   3.462   5.477   5.027 -3.7937 -0.9448 -0.2473
  549MOL0     H74112   3.151   5.798   5.538 -0.8884  0.8169 -4.0792
  549MOL0     H74113   3.012   5.902   5.830  2.8763  1.5693  2.3485
  549MOL0     H74114   3.070   5.751   5.745 -1.1997 -0.6394  1.2503
  549MOL0     H74115   3.175   5.843   5.852 -0.7566 -1.3574  0.3177
  550MOL0     O74116  10.756   4.886   0.571 -0.1889  1.0115 -0.0644
  550MOL0     C74117  10.745   4.986   0.511  0.1565  0.4606  0.0299
  550MOL0     O74118  10.826   5.037   0.421 -0.8979  0.0291 -0.2936
  550MOL0     C74119  10.931   4.984   0.369 -0.2146  0.4125  0.4175
  550MOL0     C74120  11.009   5.077   0.294 -0.2657 -0.4226 -0.1185
  550MOL0     C74121  11.135   5.040   0.233 -0.4884 -0.4345 -0.6218
  550MOL0     C74122  11.173   4.902   0.233  0.1927  0.8302  0.6685
  550MOL0     O74123  11.273   4.844   0.169 -0.8692 -0.0547  0.4625
  550MOL0     C74124  11.369   4.938   0.118  0.9200  0.5575 -0.7252
  550MOL0     C74125  11.472   4.847   0.047  0.4551 -0.0703 -0.6615
  550MOL0     C74126  11.523   4.917  -0.087  0.0841 -0.9626 -0.5036
  550MOL0     C74127  11.581   4.801  -0.162  0.6958  0.0098 -0.4387
  550MOL0     C74128  11.631   4.846  -0.293 -0.4458  1.0843 -0.3665
  550MOL0     C74129  11.524   4.867  -0.402 -0.6275  0.1892  0.2633
  550MOL0     C74130  11.580   4.911  -0.540  0.2628 -0.5317  0.3080
  550MOL0     C74131  11.692   4.819  -0.605  0.3182  0.2213  0.5062
  550MOL0     N74132  11.742   4.879  -0.721 -0.1498 -0.8602  0.5626
  550MOL0     C74133  11.676   4.926  -0.836  0.6532  0.5905 -0.0981
  550MOL0     C74134  11.772   5.001  -0.902 -0.0444 -0.8896  0.2880
  550MOL0     C74135  11.743   5.081  -1.020 -0.0185  0.1875  0.0809
  550MOL0     C74136  11.770   4.990  -1.135 -0.3083 -0.3056  0.9240
  550MOL0     C74137  11.747   5.068  -1.259  0.3423 -0.2521  1.1570
  550MOL0     C74138  11.744   4.983  -1.394  1.0655  0.1693 -0.5971
  550MOL0     O74139  11.870   4.942  -1.429  0.1890  0.4000  0.2672
  550MOL0     C74140  11.884   4.837  -1.512  0.3603  0.0249 -0.4300
  550MOL0     C74141  11.772   4.782  -1.586 -0.4976 -0.0191 -0.7464
  550MOL0     C74142  11.797   4.669  -1.662  0.2069 -0.2605  0.2824
  550MOL0     C74143  11.939   4.628  -1.691  0.3996 -0.2221  0.3943
  550MOL0     C74144  11.962   4.532  -1.805 -0.3391 -1.3591 -0.3040
  550MOL0     O74145  11.854   4.476  -1.865 -0.6015 -0.5345  0.2584
  550MOL0     C74146  11.879   4.371  -1.950 -1.0780  0.5642 -1.1212
  550MOL0     C74147  11.900   4.397  -2.080 -0.2151  0.1389  0.1105
  550MOL0     C74148  11.914   4.290  -2.172  0.0269 -0.0683 -0.3134
  550MOL0     C74149  11.887   4.155  -2.132 -0.2345 -0.6453  0.7526
  550MOL0     O74150  11.895   4.061  -2.227  0.2497 -0.1827  0.3383
  550MOL0     C74151  11.832   3.938  -2.196 -0.2385  0.8278 -0.0448
  550MOL0     C74152  11.768   3.885  -2.321  0.4938  0.9531 -0.6724
  550MOL0     C74153  11.704   3.755  -2.280 -0.0708  0.0560 -0.7404
  550MOL0     C74154  11.799   3.639  -2.255  0.0031 -0.5662  0.7976
  550MOL0     C74155  11.725   3.514  -2.235 -0.1117  0.0412  0.1051
  550MOL0     C74156  11.829   3.417  -2.193  0.1129 -0.9293 -0.0738
  550MOL0     C74157  11.771   3.281  -2.182  0.3979 -0.2139  0.8141
  550MOL0     C74158  11.868   3.167  -2.189  0.1055 -0.6180  0.1733
  550MOL0    Cl74159  11.782   3.012  -2.131 -0.0239  0.1794  0.4883
  550MOL0     C74160  11.885   4.126  -1.990 -0.0719  0.4852  0.1922
  550MOL0     C74161  11.884   4.241  -1.903  0.7700 -0.1329  0.7123
  550MOL0     O74162  12.080   4.516  -1.837 -0.9187 -0.0751  0.2650
  550MOL0     C74163  12.045   4.689  -1.628  0.0302  0.2128  0.0494
  550MOL0     C74164  12.014   4.788  -1.536 -0.0685 -0.1248 -0.5268
  550MOL0     N74165  11.895   4.995  -0.831  0.6554 -0.6991 -0.8703
  550MOL0     N74166  11.867   4.931  -0.725  0.6847 -0.4577 -0.3772
  550MOL0     C74167  11.089   4.812   0.301 -0.9047  0.0643 -0.4859
  550MOL0     C74168  10.971   4.855   0.369 -0.5851  0.2339 -0.2489
  550MOL0     C74169  10.616   5.060   0.525  0.2319 -0.8858 -0.7684
  550MOL0     C74170  10.526   5.035   0.623 -0.0441  0.4100 -0.3745
  550MOL0     C74171  10.410   5.107   0.657 -0.7633  0.0097  0.2934
  550MOL0     C74172  10.382   5.213   0.586  0.8255  0.6871  0.5273
  550MOL0     O74173  10.290   5.298   0.631  1.3819 -0.3998 -0.8732
  550MOL0     C74174  10.162   5.281   0.575  0.1842 -0.3519  0.9194
  550MOL0     C74175  10.067   5.362   0.671 -0.2852  0.4011 -0.0926
  550MOL0     C74176  10.044   5.290   0.809 -0.5400  0.2821 -0.3603
  550MOL0     C74177  10.091   5.360   0.932  0.0088 -0.9784  0.3269
  550MOL0     C74178  10.058   5.502   0.926 -0.6388 -0.3522  0.6819
  550MOL0     C74179  10.028   5.623   0.923 -0.1325 -0.1404 -0.3833
  550MOL0     C74180  10.461   5.255   0.478  0.8451 -0.0270  0.0924
  550MOL0     C74181  10.573   5.173   0.442  0.8428 -0.0142  0.9084
  550MOL0     C74182  10.653   5.235   0.328  0.6827 -0.6601  0.0968
  550MOL0     H74183  10.975   5.180   0.290  3.8283  1.1488 -0.2916
  550MOL0     H74184  11.193   5.118   0.185  0.3647 -1.2990 -1.0296
  550MOL0     H74185  11.318   5.009   0.052  3.3305  2.1147 -1.0332
  550MOL0     H74186  11.414   4.985   0.206 -3.6110  2.4903  0.8933
  550MOL0     H74187  11.416   4.758   0.017 -2.2644  0.7367  1.5237
  550MOL0     H74188  11.553   4.821   0.116 -1.4400 -1.7264  1.0779
  550MOL0     H74189  11.595   4.999  -0.077 -0.9929  0.0789 -1.0440
  550MOL0     H74190  11.438   4.965  -0.137 -0.7306 -0.7152  1.0511
  550MOL0     H74191  11.674   4.767  -0.116 -0.1071 -0.9759  0.5382
  550MOL0     H74192  11.506   4.723  -0.182 -0.8949  1.1441  0.8071
  550MOL0     H74193  11.693   4.935  -0.275 -1.7987  2.2079 -0.9939
  550MOL0     H74194  11.708   4.774  -0.323  0.0142  1.5467 -0.3175
  550MOL0     H74195  11.474   4.772  -0.422 -1.7782  1.1084 -1.4348
  550MOL0     H74196  11.458   4.951  -0.380  1.4091  2.5722 -2.0350
  550MOL0     H74197  11.616   5.014  -0.525  3.3924 -1.5292  0.1917
  550MOL0     H74198  11.499   4.922  -0.613  0.2601 -0.1924  0.3609
  550MOL0     H74199  11.770   4.794  -0.533  0.4570  1.3701  0.7875
  550MOL0     H74200  11.636   4.728  -0.628 -2.4694  1.5751  1.5159
  550MOL0     H74201  11.577   4.906  -0.875  2.2353 -2.6656 -3.0634
  550MOL0     H74202  11.640   5.118  -1.023  0.8800  2.7818 -1.4871
  550MOL0     H74203  11.804   5.171  -1.009  1.7983 -1.0414  0.6164
  550MOL0     H74204  11.874   4.960  -1.126 -0.1679  0.1817  0.9104
  550MOL0     H74205  11.708   4.900  -1.141 -2.0001  0.7795  1.4052
  550MOL0     H74206  11.811   5.157  -1.265  1.6477 -1.1155  1.9546
  550MOL0     H74207  11.643   5.103  -1.259 -0.3426 -2.1810  0.7055
  550MOL0     H74208  11.705   5.037  -1.480  0.4194 -0.1290 -0.4997
  550MOL0     H74209  11.695   4.890  -1.365 -3.2813  2.0138 -1.2962
  550MOL0     H74210  11.675   4.830  -1.576  1.0398  2.9032  2.1867
  550MOL0     H74211  11.711   4.625  -1.712  0.7309  0.1132 -0.9914
  550MOL0     H74212  11.886   4.498  -2.119  1.4578 -1.1033 -4.3161
  550MOL0     H74213  11.937   4.305  -2.277  2.8447 -2.4773 -0.1647
  550MOL0     H74214  11.910   3.871  -2.159  0.9316  1.4852 -1.2103
  550MOL0     H74215  11.749   3.949  -2.126 -0.7885 -1.3988 -0.2950
  550MOL0     H74216  11.694   3.963  -2.341  2.3083  3.8772  2.8487
  550MOL0     H74217  11.828   3.872  -2.412 -0.9005 -0.2633 -1.4684
  550MOL0     H74218  11.635   3.764  -2.196 -0.1940  0.8826 -0.9268
  550MOL0     H74219  11.639   3.718  -2.360  0.6229  1.7902 -2.1563
  550MOL0     H74220  11.847   3.667  -2.160 -0.7198  0.9221  0.7478
  550MOL0     H74221  11.875   3.620  -2.331 -1.2981 -2.1001 -0.2031
  550MOL0     H74222  11.680   3.497  -2.333  2.3708  1.9442 -1.4882
  550MOL0     H74223  11.656   3.534  -2.152  0.3767  0.5480  0.4062
  550MOL0     H74224  11.901   3.413  -2.276 -2.2896 -1.3875 -2.2898
  550MOL0     H74225  11.879   3.439  -2.099 -1.7386 -0.7270  0.8969
  550MOL0     H74226  11.709   3.257  -2.269  0.7594 -1.8376  0.9845
  550MOL0     H74227  11.716   3.272  -2.088 -0.6532 -1.6812  0.0933
  550MOL0     H74228  11.911   3.165  -2.289 -1.9143 -4.0698 -0.8175
  550MOL0     H74229  11.936   3.190  -2.106 -2.5694 -1.8357  2.9303
  550MOL0     H74230  11.886   4.021  -1.964  0.0929  0.2222 -0.8124
  550MOL0     H74231  11.888   4.231  -1.795  0.2591  2.2585  1.0059
  550MOL0     H74232  12.150   4.665  -1.646  0.4456  1.7212  0.3142
  550MOL0     H74233  12.103   4.820  -1.483  1.1631  1.7257 -3.5025
  550MOL0     H74234  11.120   4.709   0.312  1.1406  0.8465  1.9409
  550MOL0     H74235  10.914   4.789   0.433  0.6963  0.1218  0.8198
  550MOL0     H74236  10.536   4.941   0.677 -1.5565  0.8859  0.8135
  550MOL0     H74237  10.333   5.074   0.726 -0.7531  3.2830  2.0767
  550MOL0     H74238  10.136   5.175   0.565  0.3133 -0.3848  0.9382
  550MOL0     H74239  10.165   5.321   0.473  3.5972 -0.1801  0.9812
  550MOL0     H74240   9.967   5.375   0.628 -0.7170  0.3457  0.8700
  550MOL0     H74241  10.103   5.465   0.680 -3.0190  1.3669  0.9308
  550MOL0     H74242  10.093   5.192   0.808 -0.9716  0.0332  1.2236
  550MOL0     H74243   9.937   5.277   0.827 -0.2178  0.5678  2.0359
  550MOL0     H74244  10.051   5.317   1.024 -0.9571  0.6874  0.7243
  550MOL0     H74245  10.200   5.365   0.932 -0.0097 -0.4434  0.8139
  550MOL0     H74246   9.994   5.723   0.911  1.4146  0.5987  1.0129
  550MOL0     H74247  10.440   5.346   0.423  4.2480  0.3900 -0.7438
  550MOL0     H74248  10.592   5.311   0.277 -0.2403  1.0480  3.4439
  550MOL0     H74249  10.744   5.285   0.363  0.6502  0.9442 -1.9359
  550MOL0     H74250  10.668   5.153   0.258  0.6408 -1.1159  0.6202
  551MOL0     O74251   8.770   1.688   9.608 -0.3232  0.4134 -0.8701
  551MOL0     C74252   8.859   1.604   9.624  0.1356  0.7170  0.6228
  551MOL0     O74253   8.961   1.586   9.525 -0.3132  0.4168 -0.3461
  551MOL0     C74254   8.934   1.652   9.408 -0.0386 -0.9294  0.7581
  551MOL0     C74255   8.840   1.598   9.315 -0.2841 -0.1336  0.3304
  551MOL0     C74256   8.812   1.666   9.199  0.4277  1.1909  0.7770
  551MOL0     C74257   8.881   1.774   9.154 -0.2750 -0.4444 -0.9650
  551MOL0     O74258   8.850   1.819   9.034 -0.7158 -0.1620 -0.2114
  551MOL0     C74259   8.960   1.846   8.956  0.2617  0.8973  0.2927
  551MOL0     C74260   8.902   1.900   8.823  0.2095 -0.4104  0.0577
  551MOL0     C74261   9.014   1.976   8.744 -0.0588  0.5647  1.0518
  551MOL0     C74262   9.047   2.111   8.791  0.0273  0.5734  0.9364
  551MOL0     C74263   9.120   2.193   8.691  0.3909 -0.3739  1.0171
  551MOL0     C74264   9.173   2.320   8.761  0.7914 -0.6657 -1.3641
  551MOL0     C74265   9.293   2.285   8.846 -0.6163 -0.4189  0.3301
  551MOL0     C74266   9.407   2.263   8.753 -0.5775  0.8879  0.5684
  551MOL0     N74267   9.526   2.336   8.808 -0.8792  0.1879 -1.1043
  551MOL0     C74268   9.539   2.465   8.868 -0.1272  0.3062 -0.2955
  551MOL0     C74269   9.673   2.480   8.891 -0.1999 -0.6047 -0.7748
  551MOL0     C74270   9.743   2.576   8.987  0.0103  0.0145 -0.2872
  551MOL0     C74271   9.780   2.506   9.124  0.2772 -0.0763 -0.0977
  551MOL0     C74272   9.880   2.393   9.091 -0.4966 -0.0266 -0.5169
  551MOL0     C74273   9.925   2.323   9.226  0.5198 -0.5829 -0.4475
  551MOL0     O74274   9.803   2.292   9.297 -0.0129 -0.2025 -0.2282
  551MOL0     C74275   9.811   2.193   9.396 -0.0275 -0.6683 -0.0212
  551MOL0     C74276   9.853   2.220   9.526 -0.5055  0.5451 -0.2185
  551MOL0     C74277   9.868   2.129   9.628  0.2898 -0.1186 -0.3159
  551MOL0     C74278   9.846   1.992   9.589 -0.0731 -0.9061 -0.6499
  551MOL0     C74279   9.859   1.879   9.682  0.0790  0.0034  1.1639
  551MOL0     O74280   9.862   1.749   9.645 -0.7491 -0.4226 -0.3392
  551MOL0     C74281   9.897   1.667   9.750 -1.0414 -1.0446  1.0616
  551MOL0     C74282   9.804   1.573   9.785  1.1871 -0.9465 -0.6555
  551MOL0     C74283   9.828   1.509   9.903 -0.3094  0.5112 -0.4442
  551MOL0     C74284   9.950   1.510   9.972 -0.4740 -0.2854  1.0165
  551MOL0     O74285   9.979   1.440  10.084 -0.1586 -0.0751  0.3895
  551MOL0     C74286   9.932   1.310  10.101  1.4055 -0.4803 -0.0690
  551MOL0     C74287  10.043   1.224  10.171  0.7873  1.4946 -0.7774
  551MOL0     C74288  10.117   1.277  10.295  1.1071 -0.0504  0.0967
  551MOL0     C74289  10.200   1.175  10.365  0.0956 -0.7704  0.1922
  551MOL0     C74290  10.132   1.083  10.466  0.3925 -0.0182 -0.1606
  551MOL0     C74291  10.221   0.983  10.536  0.0068 -1.0140  0.3944
  551MOL0     C74292  10.155   0.912  10.653  0.0057  0.4029  1.0494
  551MOL0     C74293  10.201   0.962  10.788  0.0185 -0.0772 -0.3529
  551MOL0    Cl74294  10.146   1.139  10.838  0.3372 -0.8447  0.1226
  551MOL0     C74295  10.052   1.598   9.933  0.5585 -0.2920  0.0816
  551MOL0     C74296  10.018   1.674   9.815 -0.2187 -0.0103  0.0148
  551MOL0     O74297   9.883   1.925   9.790  0.7645 -0.0317 -0.3891
  551MOL0     C74298   9.795   1.968   9.455 -0.1485  0.2462  0.0230
  551MOL0     C74299   9.783   2.067   9.358 -0.2748  1.3181 -0.1973
  551MOL0     N74300   9.731   2.384   8.817 -0.3824  0.5426  0.8744
  551MOL0     N74301   9.647   2.290   8.788 -0.7606  0.1554  0.1576
  551MOL0     C74302   8.973   1.831   9.238 -0.4144  0.2483  0.1978
  551MOL0     C74303   8.996   1.773   9.366 -0.2597 -0.1198 -0.0767
  551MOL0     C74304   8.861   1.529   9.743 -0.5579  0.7950 -0.7948
  551MOL0     C74305   8.749   1.453   9.767 -0.1274 -0.0749  0.1123
  551MOL0     C74306   8.728   1.386   9.885  0.3492  0.6185 -0.3071
  551MOL0     C74307   8.836   1.365   9.972 -0.1440  0.2083  0.4716
  551MOL0     O74308   8.807   1.286  10.084 -0.0706  0.1757  0.3422
  551MOL0     C74309   8.915   1.256  10.183 -0.6348 -0.2517 -0.5030
  551MOL0     C74310   8.865   1.197  10.311 -0.5479  0.0501 -0.5811
  551MOL0     C74311   8.755   1.087  10.288 -0.1783 -0.0005  1.1783
  551MOL0     C74312   8.816   0.962  10.230  0.5189  0.1011 -0.3602
  551MOL0     C74313   8.896   0.889  10.328  0.2086 -0.5543 -0.9088
  551MOL0     C74314   8.959   0.832  10.416  0.6201 -0.0904 -0.7566
  551MOL0     C74315   8.959   1.430   9.940 -0.2525  0.3438 -0.3125
  551MOL0     C74316   8.981   1.514   9.828  0.6558  0.0743 -0.2185
  551MOL0     C74317   9.106   1.584   9.808 -0.4956  0.0103  0.0992
  551MOL0     H74318   8.776   1.514   9.340  0.5168 -0.5491  1.0744
  551MOL0     H74319   8.734   1.637   9.130  0.2712  2.5204  0.3717
  551MOL0     H74320   9.023   1.922   9.004 -0.1622  0.9479  0.7829
  551MOL0     H74321   9.014   1.753   8.941  0.1136  0.8637 -0.0342
  551MOL0     H74322   8.816   1.963   8.846  2.0928  1.1183  3.9330
  551MOL0     H74323   8.871   1.807   8.774 -0.9889 -0.0645  0.1342
  551MOL0     H74324   8.992   1.970   8.637 -0.0495 -1.3422  1.1216
  551MOL0     H74325   9.104   1.914   8.745  0.8043  1.7820  1.9272
  551MOL0     H74326   8.954   2.160   8.820  1.9013  3.8505  1.9156
  551MOL0     H74327   9.105   2.112   8.884  3.2737 -1.0387 -0.8777
  551MOL0     H74328   9.192   2.124   8.645 -0.5385 -1.8853  1.7519
  551MOL0     H74329   9.062   2.233   8.607  4.0187 -0.4463 -1.7605
  551MOL0     H74330   9.194   2.392   8.682 -1.4442 -1.6691 -2.9890
  551MOL0     H74331   9.091   2.355   8.824  3.9055  0.5988  2.3006
  551MOL0     H74332   9.283   2.205   8.920  1.0694 -0.6988  0.2839
  551MOL0     H74333   9.301   2.369   8.916 -3.9711 -0.8798  1.4540
  551MOL0     H74334   9.423   2.157   8.730  0.2365  1.5229 -2.0799
  551MOL0     H74335   9.388   2.300   8.652  2.7096  0.6236 -0.2618
  551MOL0     H74336   9.457   2.521   8.910 -0.6027 -0.9959  0.5745
  551MOL0     H74337   9.837   2.603   8.939 -0.3528 -0.4409 -1.2825
  551MOL0     H74338   9.676   2.660   9.004  0.0738 -0.0749  0.4634
  551MOL0     H74339   9.823   2.586   9.186 -2.6616  2.5966 -1.2054
  551MOL0     H74340   9.690   2.470   9.174 -0.3417  2.3826  0.7066
  551MOL0     H74341   9.966   2.428   9.034 -1.2032  0.2882 -1.4194
  551MOL0     H74342   9.839   2.311   9.032  3.7752 -2.2782 -0.7465
  551MOL0     H74343   9.976   2.396   9.289 -0.4190  0.2362 -0.6066
  551MOL0     H74344   9.991   2.236   9.214  2.4845  0.7745  0.0816
  551MOL0     H74345   9.876   2.325   9.541 -0.4969  0.2312  2.7327
  551MOL0     H74346   9.886   2.166   9.729 -1.2562  0.6754 -0.3154
  551MOL0     H74347   9.710   1.569   9.730  0.2400 -0.2084  0.8688
  551MOL0     H74348   9.761   1.437   9.950  3.0932 -0.4856  3.3924
  551MOL0     H74349   9.850   1.304  10.173  2.4210 -1.5532  1.0422
  551MOL0     H74350   9.905   1.262  10.007  1.1304 -1.5719  0.5520
  551MOL0     H74351   9.992   1.136  10.211  2.1162  0.9162 -0.2822
  551MOL0     H74352  10.130   1.199  10.109  3.1208  0.3140  2.6755
  551MOL0     H74353  10.180   1.363  10.269  0.5547  1.1435  2.4363
  551MOL0     H74354  10.047   1.317  10.369  3.0080  0.5305  1.6644
  551MOL0     H74355  10.275   1.235  10.416  2.6205  1.0820 -4.9479
  551MOL0     H74356  10.262   1.124  10.290  0.2901  1.3039 -1.1482
  551MOL0     H74357  10.051   1.032  10.411  1.3461  0.1514 -1.7848
  551MOL0     H74358  10.099   1.147  10.548  1.1611 -2.0296  1.8093
  551MOL0     H74359  10.256   0.909  10.464  0.9693 -1.6468  1.4810
  551MOL0     H74360  10.306   1.034  10.583  0.4082  0.9553 -2.2579
  551MOL0     H74361  10.155   0.803  10.660 -0.8673  0.5049  3.6721
  551MOL0     H74362  10.049   0.936  10.639  1.0086  4.2446 -1.5525
  551MOL0     H74363  10.149   0.900  10.861  0.8589  0.1870  0.4965
  551MOL0     H74364  10.310   0.949  10.795 -0.3563 -4.2009  0.8364
  551MOL0     H74365  10.142   1.623   9.987  0.4648  2.0054 -0.7164
  551MOL0     H74366  10.080   1.757   9.783  1.3177 -1.5180 -1.1581
  551MOL0     H74367   9.772   1.868   9.420  0.6140 -0.2212  0.8243
  551MOL0     H74368   9.747   2.046   9.258 -1.5642  1.0579  0.3010
  551MOL0     H74369   9.027   1.920   9.208  0.9474  0.9145  4.0432
  551MOL0     H74370   9.073   1.803   9.437 -0.9399  3.0621 -0.5165
  551MOL0     H74371   8.668   1.451   9.695 -1.6168  0.7601  1.6967
  551MOL0     H74372   8.636   1.330   9.901  1.6436 -1.2558  0.9845
  551MOL0     H74373   8.973   1.342  10.218 -0.9198 -0.6250  0.9591
  551MOL0     H74374   8.987   1.191  10.133  0.4328 -0.8566  1.6926
  551MOL0     H74375   8.827   1.285  10.364  4.8574  2.9189 -0.8402
  551MOL0     H74376   8.948   1.163  10.373  0.9337  4.4299  0.1494
  551MOL0     H74377   8.675   1.117  10.219  0.8495  1.5674  0.6219
  551MOL0     H74378   8.707   1.069  10.385 -0.0038 -0.0288  1.2585
  551MOL0     H74379   8.741   0.890  10.196 -0.6372 -0.0606  2.2904
  551MOL0     H74380   8.873   0.983  10.139  0.6245 -1.0375 -0.5720
  551MOL0     H74381   9.004   0.784  10.501  2.6270  1.7712 -0.7141
  551MOL0     H74382   9.037   1.420  10.014  0.5806  1.6183 -0.9853
  551MOL0     H74383   9.155   1.531   9.725 -1.2789  0.6357 -0.7843
  551MOL0     H74384   9.089   1.684   9.768  2.8018  0.5469 -0.2191
  551MOL0     H74385   9.162   1.573   9.901  1.9057 -3.3257 -1.4958
  552MOL0     O74386   5.401   5.107   3.988  0.6441 -0.3296  1.0151
  552MOL0     C74387   5.437   5.174   4.081 -0.2777  0.8394  0.2192
  552MOL0     O74388   5.558   5.236   4.093 -0.2392 -0.1707 -0.0952
  552MOL0     C74389   5.649   5.221   3.992  0.8858  0.2543 -0.2426
  552MOL0     C74390   5.707   5.098   3.951  0.0057  0.6726 -0.1189
  552MOL0     C74391   5.807   5.091   3.862 -0.1641 -0.1006 -0.1810
  552MOL0     C74392   5.854   5.205   3.807 -0.0660 -0.3478 -0.0784
  552MOL0     O74393   5.964   5.194   3.718  0.8587 -0.0869 -0.1607
  552MOL0     C74394   5.930   5.194   3.576  0.0266 -0.4738 -0.6674
  552MOL0     C74395   6.034   5.263   3.497 -0.6772  0.0434 -0.0801
  552MOL0     C74396   5.993   5.273   3.349 -0.7647 -0.4454  0.0558
  552MOL0     C74397   6.112   5.326   3.248  0.4062  0.2719 -1.2083
  552MOL0     C74398   6.099   5.276   3.112  0.6616  0.6044  0.6364
  552MOL0     C74399   6.195   5.335   3.001 -0.5170 -0.0508  1.2771
  552MOL0     C74400   6.341   5.306   3.046 -0.6336 -0.3702  0.5895
  552MOL0     C74401   6.446   5.344   2.944 -0.9829  0.3859 -0.0934
  552MOL0     N74402   6.448   5.258   2.825  0.0135  0.0026  0.0181
  552MOL0     C74403   6.351   5.247   2.729 -0.6895  0.2107  0.1384
  552MOL0     C74404   6.370   5.126   2.670 -0.2244  0.3764 -0.1788
  552MOL0     C74405   6.299   5.073   2.558 -0.8975 -1.3408  0.4688
  552MOL0     C74406   6.225   4.943   2.602 -0.2927 -0.8393 -0.0847
  552MOL0     C74407   6.114   4.917   2.503  0.6904  1.0797  0.8306
  552MOL0     C74408   6.009   4.828   2.569  0.2369  0.8475 -1.1829
  552MOL0     O74409   6.064   4.710   2.622 -0.7885  0.1478 -0.2332
  552MOL0     C74410   5.986   4.625   2.691  0.2535  0.5791 -0.8239
  552MOL0     C74411   5.850   4.634   2.700  0.3484 -0.8005 -1.3125
  552MOL0     C74412   5.773   4.534   2.760 -0.0832 -0.1197 -0.1894
  552MOL0     C74413   5.842   4.423   2.807 -0.1130 -0.2447  1.1588
  552MOL0     C74414   5.761   4.307   2.846 -0.2204 -0.4913 -0.0908
  552MOL0     O74415   5.632   4.336   2.896 -0.2010  0.4502  0.2664
  552MOL0     C74416   5.544   4.239   2.922  0.2300  0.1599  0.5078
  552MOL0     C74417   5.460   4.208   2.816 -0.5178  0.2995 -0.8772
  552MOL0     C74418   5.365   4.101   2.835 -0.6310 -0.0948  0.1215
  552MOL0     C74419   5.361   4.033   2.955  0.4657  0.0311  0.0426
  552MOL0     O74420   5.276   3.923   2.968 -0.4516  0.5453 -0.2504
  552MOL0     C74421   5.222   3.903   3.099 -0.2470 -1.6216  0.0431
  552MOL0     C74422   5.073   3.918   3.109  0.2419  0.4602  0.2425
  552MOL0     C74423   5.032   4.064   3.076  0.4146  0.2373 -0.8030
  552MOL0     C74424   4.969   4.113   3.206 -1.4907  1.0004  0.2977
  552MOL0     C74425   4.846   4.044   3.243 -0.2591  0.0015  0.4558
  552MOL0     C74426   4.763   4.126   3.343  0.4034  0.7712  0.3594
  552MOL0     C74427   4.627   4.064   3.397 -0.1531  0.2811 -0.3739
  552MOL0     C74428   4.639   3.934   3.480  0.4603 -0.1426  0.0144
  552MOL0    Cl74429   4.476   3.866   3.504 -0.0818  0.1267  0.2687
  552MOL0     C74430   5.452   4.056   3.051 -0.5374 -0.4351 -0.3230
  552MOL0     C74431   5.546   4.160   3.038  0.0430  0.2879 -0.0667
  552MOL0     O74432   5.803   4.198   2.829 -0.4614  0.0642  0.2787
  552MOL0     C74433   5.977   4.404   2.805  0.6497 -0.0956 -0.4314
  552MOL0     C74434   6.054   4.513   2.747 -0.6798 -0.0440  0.1908
  552MOL0     N74435   6.498   5.089   2.718 -1.0013 -0.0267  0.4430
  552MOL0     N74436   6.544   5.161   2.808  0.2072 -0.0425 -0.2434
  552MOL0     C74437   5.795   5.329   3.842  0.0998  1.0757 -0.6036
  552MOL0     C74438   5.702   5.336   3.944 -0.8475 -0.3633  0.4651
  552MOL0     C74439   5.345   5.200   4.196 -0.2598  0.0388 -0.8447
  552MOL0     C74440   5.204   5.175   4.182 -0.1590 -0.1859 -0.7302
  552MOL0     C74441   5.113   5.198   4.291  0.1782 -0.1812 -0.5980
  552MOL0     C74442   5.152   5.239   4.411 -0.5114  0.2492  0.4357
  552MOL0     O74443   5.070   5.274   4.515 -0.4407  0.4340  0.3549
  552MOL0     C74444   5.064   5.175   4.623 -0.6366 -1.0080  0.1594
  552MOL0     C74445   4.964   5.070   4.587 -0.2724 -1.0170 -0.2512
  552MOL0     C74446   4.931   4.978   4.702 -1.0199  0.5308  0.6426
  552MOL0     C74447   4.787   4.936   4.720  0.1039  0.4386 -0.3016
  552MOL0     C74448   4.752   4.836   4.615 -0.3838  0.3674 -0.7169
  552MOL0     C74449   4.716   4.762   4.530 -0.0742 -0.2070  1.3650
  552MOL0     C74450   5.286   5.257   4.432 -0.0402  0.8357  0.1308
  552MOL0     C74451   5.382   5.233   4.329 -0.7622 -0.6296 -0.4036
  552MOL0     C74452   5.532   5.251   4.371  0.8996 -0.6265 -0.2979
  552MOL0     H74453   5.660   5.005   3.982  1.1305  0.0332 -0.2461
  552MOL0     H74454   5.850   4.999   3.824 -0.6983  0.2277 -1.6052
  552MOL0     H74455   5.937   5.089   3.544 -2.7512 -0.7116 -0.7516
  552MOL0     H74456   5.838   5.248   3.552  1.6441  2.1225 -1.3737
  552MOL0     H74457   6.130   5.211   3.503  0.2326  1.6245 -0.5692
  552MOL0     H74458   6.063   5.359   3.540  1.4270 -0.3728 -0.4781
  552MOL0     H74459   5.917   5.350   3.366  1.6276  1.5431  2.5531
  552MOL0     H74460   5.970   5.170   3.320  1.3395 -1.9463  3.1168
  552MOL0     H74461   6.102   5.435   3.254 -1.4248  0.1402 -1.3786
  552MOL0     H74462   6.208   5.291   3.288 -0.8457 -0.2274  1.5972
  552MOL0     H74463   6.102   5.167   3.106 -0.6367  0.6040 -3.2954
  552MOL0     H74464   5.996   5.296   3.082  0.2061  0.0164  1.7300
  552MOL0     H74465   6.181   5.273   2.912 -1.0898 -1.8187  2.5417
  552MOL0     H74466   6.191   5.444   2.985  1.1488  0.2482  2.5922
  552MOL0     H74467   6.339   5.199   3.068 -1.5931 -0.0883  2.0342
  552MOL0     H74468   6.368   5.354   3.141  3.3087  1.0644 -1.0552
  552MOL0     H74469   6.431   5.448   2.913 -0.3076  1.3696  2.6377
  552MOL0     H74470   6.545   5.330   2.989 -1.6659 -1.0221  1.0432
  552MOL0     H74471   6.274   5.316   2.698  1.1292  1.3234 -2.2879
  552MOL0     H74472   6.223   5.147   2.530  2.0486  0.6243 -3.4085
  552MOL0     H74473   6.364   5.051   2.473  1.1638  1.4557  1.2035
  552MOL0     H74474   6.300   4.864   2.616 -0.8653 -0.8459  4.3438
  552MOL0     H74475   6.182   4.966   2.699  1.7508 -0.6321  0.8274
  552MOL0     H74476   6.144   4.868   2.410 -5.0515  2.2883 -2.0763
  552MOL0     H74477   6.062   5.006   2.469 -0.6662 -0.4691 -1.4099
  552MOL0     H74478   5.934   4.802   2.493 -0.9354 -1.0453  0.5067
  552MOL0     H74479   5.961   4.886   2.649 -2.2356 -0.6550 -1.4630
  552MOL0     H74480   5.796   4.714   2.650 -2.5098 -2.3839 -0.9663
  552MOL0     H74481   5.665   4.527   2.752 -0.2914  0.4377  1.7323
  552MOL0     H74482   5.469   4.251   2.716 -0.7974  0.6568 -0.7503
  552MOL0     H74483   5.291   4.082   2.758  0.7374  1.7834 -1.7635
  552MOL0     H74484   5.235   3.796   3.117 -2.2983 -1.9147  0.0699
  552MOL0     H74485   5.271   3.959   3.179  0.7016 -1.4748 -0.6225
  552MOL0     H74486   5.017   3.854   3.039  1.2990 -1.4461  1.0483
  552MOL0     H74487   5.047   3.896   3.213  1.5423  3.5074  1.3331
  552MOL0     H74488   5.113   4.135   3.058 -0.1617  1.3144  0.6624
  552MOL0     H74489   4.951   4.079   3.005  2.4741  3.8816 -2.6983
  552MOL0     H74490   4.939   4.218   3.197 -1.2730  1.0328 -0.0539
  552MOL0     H74491   5.033   4.104   3.294 -1.0620  0.1524 -0.0881
  552MOL0     H74492   4.864   3.946   3.289 -2.2085 -0.5010  0.2074
  552MOL0     H74493   4.778   4.032   3.159  0.7161 -0.6012 -0.2767
  552MOL0     H74494   4.831   4.144   3.427  2.0070 -0.8281 -0.5389
  552MOL0     H74495   4.736   4.221   3.297 -1.0601  0.0700 -0.3043
  552MOL0     H74496   4.551   4.042   3.322 -1.0736 -0.7148  0.8129
  552MOL0     H74497   4.587   4.142   3.463  3.4593  1.6370  0.4786
  552MOL0     H74498   4.685   3.848   3.430 -0.2917  0.7019 -2.2402
  552MOL0     H74499   4.692   3.970   3.569 -0.7036  2.0797 -0.1318
  552MOL0     H74500   5.450   3.983   3.131 -1.9561 -1.1201 -0.9509
  552MOL0     H74501   5.630   4.181   3.103 -0.9836  1.2045  0.9994
  552MOL0     H74502   6.024   4.312   2.839  0.4186  0.0705  0.3801
  552MOL0     H74503   6.162   4.517   2.736 -0.8410  1.3873 -1.1758
  552MOL0     H74504   5.827   5.425   3.803  2.8306  0.0967 -1.0365
  552MOL0     H74505   5.678   5.440   3.963  0.2535  0.8061 -3.7004
  552MOL0     H74506   5.165   5.154   4.083 -0.4177  1.3638 -0.9899
  552MOL0     H74507   5.007   5.205   4.273  0.0172  2.2425  0.9064
  552MOL0     H74508   5.036   5.226   4.716 -0.0719 -1.1558  0.4140
  552MOL0     H74509   5.155   5.122   4.652 -0.9298 -0.9048  1.3549
  552MOL0     H74510   5.006   5.025   4.497 -0.0724  3.4983 -2.7334
  552MOL0     H74511   4.881   5.135   4.557 -0.2785 -0.9214 -0.0248
  552MOL0     H74512   4.967   5.030   4.790 -0.1296  0.8860  0.0768
  552MOL0     H74513   4.989   4.885   4.694 -2.1129 -0.2321  1.2018
  552MOL0     H74514   4.760   4.902   4.821 -0.0957 -0.6567 -0.7154
  552MOL0     H74515   4.730   5.029   4.715 -1.4023 -0.4505 -0.2588
  552MOL0     H74516   4.669   4.708   4.450  0.6126  0.3700  0.5581
  552MOL0     H74517   5.312   5.275   4.536  0.0907 -1.3305  0.5045
  552MOL0     H74518   5.586   5.169   4.325  2.0979  1.2615 -2.4357
  552MOL0     H74519   5.576   5.343   4.330 -1.0991 -0.8928 -3.3241
  552MOL0     H74520   5.538   5.254   4.481 -1.4790  0.4744 -0.1266
  553MOL0     O74521   7.047   8.553   5.679 -0.0232  0.1918 -0.8545
  553MOL0     C74522   7.064   8.489   5.577  0.1071  0.0311  0.7769
  553MOL0     O74523   7.161   8.507   5.484 -0.4110  0.1453 -0.7893
  553MOL0     C74524   7.274   8.580   5.523  0.3226 -0.7519  0.1695
  553MOL0     C74525   7.396   8.522   5.481  0.7418 -0.2771 -0.1802
  553MOL0     C74526   7.524   8.581   5.495 -0.1682 -0.9468 -0.2084
  553MOL0     C74527   7.535   8.698   5.569 -0.0602  0.2623  0.0285
  553MOL0     O74528   7.658   8.757   5.599 -0.4560  0.5775  0.0902
  553MOL0     C74529   7.775   8.677   5.597  0.1457  0.2711  0.2322
  553MOL0     C74530   7.776   8.548   5.683  0.6766  0.4811  0.3990
  553MOL0     C74531   7.916   8.487   5.701 -0.5189 -0.6263  0.8165
  553MOL0     C74532   7.986   8.488   5.568  0.5231 -0.3887  0.1716
  553MOL0     C74533   8.089   8.381   5.550  0.4842 -0.3970  1.5794
  553MOL0     C74534   8.141   8.394   5.410  0.8062 -0.7652 -0.0502
  553MOL0     C74535   8.236   8.284   5.371 -0.1524 -0.6257  0.3765
  553MOL0     C74536   8.386   8.323   5.362  0.6297 -0.2490 -0.4495
  553MOL0     N74537   8.465   8.214   5.314  0.4150 -0.0991  0.9417
  553MOL0     C74538   8.594   8.230   5.279 -0.0576  0.6797  0.6124
  553MOL0     C74539   8.625   8.109   5.229 -0.0274  0.6258 -0.0735
  553MOL0     C74540   8.772   8.084   5.194 -0.4263 -0.2410 -0.7864
  553MOL0     C74541   8.833   7.950   5.253  0.6984  1.1099  0.4024
  553MOL0     C74542   8.863   7.961   5.402  0.0111  0.8086  0.7320
  553MOL0     C74543   8.994   7.917   5.444  0.2425  0.2385 -1.2762
  553MOL0     O74544   8.985   7.799   5.522  0.1493  0.9350  0.1091
  553MOL0     C74545   9.092   7.720   5.500 -0.4950  1.2399  0.9429
  553MOL0     C74546   9.074   7.597   5.432 -0.4078 -0.0255 -0.6034
  553MOL0     C74547   9.186   7.515   5.399  1.0726 -0.2098  1.0498
  553MOL0     C74548   9.315   7.563   5.416  0.2206  0.3569 -0.2258
  553MOL0     C74549   9.435   7.487   5.382  1.0032 -0.0141  0.6516
  553MOL0     O74550   9.429   7.369   5.312  0.0913 -0.8987 -0.6184
  553MOL0     C74551   9.546   7.300   5.289  0.1246  0.1965 -1.1184
  553MOL0     C74552   9.549   7.164   5.331  0.6557 -1.0551  0.1780
  553MOL0     C74553   9.656   7.067   5.307 -0.2612 -0.3243  0.6902
  553MOL0     C74554   9.754   7.106   5.222 -0.8824 -0.4497  0.5407
  553MOL0     O74555   9.858   7.028   5.179  0.5536 -0.5537  0.6840
  553MOL0     C74556   9.810   6.899   5.127  0.0425  0.4780 -0.7222
  553MOL0     C74557   9.937   6.845   5.067 -0.8471  0.0822  0.5005
  553MOL0     C74558   9.954   6.708   5.004  0.0154 -0.1001  0.1672
  553MOL0     C74559   9.916   6.613   5.115 -0.1249  0.8029  1.4620
  553MOL0     C74560   9.941   6.475   5.056  0.1063  0.3216 -0.8308
  553MOL0     C74561   9.940   6.357   5.152 -0.0572  1.4387 -0.7036
  553MOL0     C74562  10.077   6.321   5.212  0.0168  0.8879  0.1166
  553MOL0     C74563  10.086   6.221   5.321 -0.0552 -0.0290  0.1443
  553MOL0    Cl74564  10.031   6.057   5.280  0.9998 -0.3890 -0.5128
  553MOL0     C74565   9.755   7.248   5.181  0.3065  0.2791 -0.5564
  553MOL0     C74566   9.656   7.338   5.208 -0.0468 -0.1314  0.4398
  553MOL0     O74567   9.547   7.534   5.411  0.0052 -0.7498 -0.0860
  553MOL0     C74568   9.328   7.692   5.474 -1.0284 -0.4935  0.7768
  553MOL0     C74569   9.227   7.770   5.512 -0.1084  0.6111  0.6421
  553MOL0     N74570   8.519   8.022   5.236  1.1437 -0.5379  0.1657
  553MOL0     N74571   8.421   8.082   5.292  0.0216  0.0916 -0.8070
  553MOL0     C74572   7.413   8.753   5.617 -0.2922  0.5204  0.8000
  553MOL0     C74573   7.288   8.702   5.590 -0.3050  0.1218 -0.0387
  553MOL0     C74574   6.948   8.390   5.549 -0.3470 -0.4802 -1.0861
  553MOL0     C74575   6.838   8.400   5.642 -0.1168  0.9793 -0.1619
  553MOL0     C74576   6.729   8.314   5.637 -0.3676  0.5213 -0.0103
  553MOL0     C74577   6.720   8.222   5.537 -1.4572 -0.2233  0.0194
  553MOL0     O74578   6.609   8.143   5.505 -0.0096  0.1097 -0.7056
  553MOL0     C74579   6.483   8.152   5.583 -0.5177 -0.3875 -0.3924
  553MOL0     C74580   6.372   8.083   5.515 -0.2889  0.4152  0.4495
  553MOL0     C74581   6.246   8.066   5.602  0.3900 -0.1396  0.0076
  553MOL0     C74582   6.236   7.934   5.664  0.4792 -0.2111 -0.1633
  553MOL0     C74583   6.124   7.923   5.758 -0.5262  0.2459 -0.6101
  553MOL0     C74584   6.029   7.904   5.834 -0.5066 -0.4859 -0.1909
  553MOL0     C74585   6.823   8.220   5.443 -0.0101  0.2412  0.5241
  553MOL0     C74586   6.940   8.295   5.447  0.7545 -0.4406 -0.3920
  553MOL0     C74587   7.049   8.275   5.341  0.4326 -0.1239 -0.7667
  553MOL0     H74588   7.389   8.421   5.443  2.3391 -0.2892 -0.5175
  553MOL0     H74589   7.614   8.543   5.448  0.6541  1.8371 -1.0709
  553MOL0     H74590   7.783   8.637   5.496 -2.1976 -3.3744  1.2731
  553MOL0     H74591   7.862   8.739   5.619 -0.1505  0.2499  1.5834
  553MOL0     H74592   7.708   8.472   5.642 -1.3027  1.4666  1.6959
  553MOL0     H74593   7.730   8.573   5.778 -1.7571  1.0313 -0.8369
  553MOL0     H74594   7.896   8.386   5.736 -4.5114  0.4787  2.2805
  553MOL0     H74595   7.957   8.555   5.777 -0.4682  0.7620 -0.3957
  553MOL0     H74596   7.911   8.466   5.492  0.6903 -2.5134  0.5639
  553MOL0     H74597   8.029   8.587   5.553 -1.4040  0.2801 -1.3936
  553MOL0     H74598   8.172   8.397   5.619  1.1120 -2.6160  1.4336
  553MOL0     H74599   8.048   8.280   5.558  2.3508 -1.6166 -1.9429
  553MOL0     H74600   8.055   8.396   5.343  0.9097 -0.0491 -0.1716
  553MOL0     H74601   8.185   8.495   5.406  0.6478 -0.5231  2.4726
  553MOL0     H74602   8.212   8.251   5.269 -2.0644 -0.6850  0.8221
  553MOL0     H74603   8.220   8.194   5.430 -0.1057 -1.7141 -1.1947
  553MOL0     H74604   8.390   8.407   5.291 -0.7665  0.5448  0.3656
  553MOL0     H74605   8.422   8.357   5.459 -4.7941  2.8966  0.8719
  553MOL0     H74606   8.668   8.305   5.305  1.5366 -1.0363  1.2106
  553MOL0     H74607   8.794   8.088   5.087 -1.6586  1.4647 -1.0087
  553MOL0     H74608   8.833   8.166   5.232 -0.0686 -0.8629  0.0279
  553MOL0     H74609   8.764   7.867   5.234  2.9890 -0.8361  0.1043
  553MOL0     H74610   8.921   7.923   5.193  0.0722 -3.3033  1.1320
  553MOL0     H74611   8.792   7.889   5.443  2.8719 -1.2342  2.4441
  553MOL0     H74612   8.841   8.057   5.450 -0.0936  0.7987  0.7043
  553MOL0     H74613   9.034   7.991   5.514 -2.8850 -2.4610  3.9759
  553MOL0     H74614   9.070   7.907   5.365  2.7893 -2.1508  1.2621
  553MOL0     H74615   8.974   7.563   5.407 -0.6479  1.3043 -1.5208
  553MOL0     H74616   9.166   7.422   5.347 -2.0067  1.1752 -0.5493
  553MOL0     H74617   9.471   7.126   5.396  1.1133 -1.7885  0.3119
  553MOL0     H74618   9.661   6.968   5.351 -2.5999 -0.2358  1.2842
  553MOL0     H74619   9.774   6.829   5.203 -0.3697  0.0436 -1.3074
  553MOL0     H74620   9.726   6.918   5.059 -1.1284  0.9055  0.7823
  553MOL0     H74621   9.949   6.907   4.978 -2.0204 -0.7255 -0.2480
  553MOL0     H74622  10.019   6.860   5.138 -1.4821  2.6868  0.8040
  553MOL0     H74623   9.886   6.693   4.920 -0.2340  2.7737 -0.2469
  553MOL0     H74624  10.055   6.687   4.966  0.3101  4.4539 -2.2511
  553MOL0     H74625   9.814   6.630   5.151 -0.4910  1.6425  0.0980
  553MOL0     H74626   9.994   6.631   5.190  3.1185 -0.9610 -1.1996
  553MOL0     H74627  10.045   6.479   5.023  1.5153  0.3847  3.1713
  553MOL0     H74628   9.881   6.443   4.970  0.2879 -2.9301  0.0997
  553MOL0     H74629   9.876   6.369   5.240  2.3244 -0.7471  1.5572
  553MOL0     H74630   9.896   6.269   5.104 -1.0782  2.1692 -1.1159
  553MOL0     H74631  10.121   6.416   5.243 -1.8539  3.3043 -3.8161
  553MOL0     H74632  10.145   6.291   5.131 -1.5765  0.5387 -1.1539
  553MOL0     H74633  10.189   6.220   5.357  0.1774  0.7479 -0.4633
  553MOL0     H74634  10.015   6.263   5.393 -2.2857  3.2016 -3.5309
  553MOL0     H74635   9.830   7.268   5.105 -0.0531  1.0019 -0.7300
  553MOL0     H74636   9.671   7.445   5.192 -1.0457 -0.0921 -0.2822
  553MOL0     H74637   9.427   7.728   5.502  0.2657 -0.0021 -3.6179
  553MOL0     H74638   9.237   7.870   5.552 -1.8222  1.1780 -0.2866
  553MOL0     H74639   7.427   8.835   5.686  0.0337  1.5966 -0.4901
  553MOL0     H74640   7.201   8.758   5.624 -0.6271 -1.8213  2.7337
  553MOL0     H74641   6.842   8.466   5.728  1.3756 -2.3208  2.5604
  553MOL0     H74642   6.648   8.318   5.709 -1.6099  0.5132 -1.3587
  553MOL0     H74643   6.451   8.256   5.592  1.2108  0.1571 -0.1864
  553MOL0     H74644   6.490   8.100   5.679 -0.0306  1.9822  0.9423
  553MOL0     H74645   6.415   7.987   5.486  1.3391  1.6755 -1.5908
  553MOL0     H74646   6.351   8.140   5.424  0.4729  1.9980  1.2328
  553MOL0     H74647   6.148   8.081   5.557  1.3633 -0.4273 -2.3793
  553MOL0     H74648   6.258   8.137   5.685 -1.0783  0.5820 -0.3708
  553MOL0     H74649   6.224   7.862   5.583  2.3931  0.5201 -1.1588
  553MOL0     H74650   6.328   7.901   5.714  2.8842  2.0433 -2.7987
  553MOL0     H74651   5.958   7.893   5.913 -0.9178  0.4046 -0.4153
  553MOL0     H74652   6.823   8.155   5.356 -0.2161  2.9060 -1.6253
  553MOL0     H74653   7.139   8.244   5.395  1.4116  1.5168 -1.3789
  553MOL0     H74654   7.027   8.189   5.278 -0.3433 -3.3424  3.4220
  553MOL0     H74655   7.060   8.368   5.284 -1.6909  0.3404 -0.4960
  554MOL0     O74656  11.371   6.622  10.673 -0.6138 -0.4655 -0.4211
  554MOL0     C74657  11.476   6.600  10.730  0.7489 -0.3471  0.5728
  554MOL0     O74658  11.602   6.629  10.689 -0.1940  0.1963 -0.2514
  554MOL0     C74659  11.634   6.617  10.555 -0.8206  0.8190 -0.3318
  554MOL0     C74660  11.748   6.676  10.510 -0.2031 -0.3325  0.5767
  554MOL0     C74661  11.786   6.682  10.376 -1.2725 -0.0145 -0.1737
  554MOL0     C74662  11.717   6.611  10.277  0.3621 -0.7270 -0.8339
  554MOL0     O74663  11.756   6.612  10.143  0.1485  0.1607 -1.0502
  554MOL0     C74664  11.674   6.552  10.051  0.1277  0.0750 -0.5504
  554MOL0     C74665  11.709   6.399  10.056 -0.2056 -0.7321  0.7747
  554MOL0     C74666  11.610   6.326   9.964  0.3967 -0.3383 -1.3931
  554MOL0     C74667  11.620   6.347   9.815  0.8191 -1.2569  0.6498
  554MOL0     C74668  11.558   6.226   9.740  0.8854  0.1214  0.6359
  554MOL0     C74669  11.616   6.083   9.758 -0.4907 -0.3343  0.4143
  554MOL0     C74670  11.573   5.994   9.640  0.7967 -1.5403  0.2780
  554MOL0     C74671  11.420   5.966   9.634  0.4134 -0.5588  0.4668
  554MOL0     N74672  11.369   5.855   9.553  0.5097  0.1328 -0.1211
  554MOL0     C74673  11.349   5.721   9.592 -0.0358 -1.0285 -0.2649
  554MOL0     C74674  11.346   5.661   9.469  0.8348 -0.3282 -0.5721
  554MOL0     C74675  11.336   5.516   9.443 -0.1578  0.6086 -0.3703
  554MOL0     C74676  11.205   5.475   9.384 -0.5349  0.0376  0.0742
  554MOL0     C74677  11.183   5.497   9.230 -0.0768  0.0180 -0.0198
  554MOL0     C74678  11.249   5.390   9.138 -0.3294 -0.8886 -0.2387
  554MOL0     O74679  11.191   5.266   9.138 -0.4428  0.8164  0.0688
  554MOL0     C74680  11.249   5.173   9.048 -0.1766  0.0054  0.1788
  554MOL0     C74681  11.192   5.045   9.049 -0.4109  0.2590 -0.4098
  554MOL0     C74682  11.261   4.936   8.986  0.2338 -0.7927 -0.5138
  554MOL0     C74683  11.379   4.948   8.922 -0.6436 -0.2896  0.6477
  554MOL0     C74684  11.445   4.828   8.864 -0.0608  0.3741  1.0721
  554MOL0     O74685  11.570   4.842   8.819  0.4578 -0.1508 -0.0603
  554MOL0     C74686  11.631   4.733   8.761 -0.1696 -0.0212  0.2181
  554MOL0     C74687  11.735   4.668   8.834 -0.6428 -0.2241  0.2893
  554MOL0     C74688  11.801   4.558   8.782 -0.0459 -0.0972  0.3598
  554MOL0     C74689  11.771   4.513   8.656 -0.2884  0.1126  0.2766
  554MOL0     O74690  11.850   4.409   8.597  0.4262 -0.3970 -0.1550
  554MOL0     C74691  11.932   4.441   8.486  0.4619  1.1160  0.1156
  554MOL0     C74692  12.084   4.406   8.527  0.5720  0.1731 -0.5267
  554MOL0     C74693  12.147   4.500   8.642 -0.5423 -0.0091  0.1108
  554MOL0     C74694  12.186   4.639   8.601  0.4724  0.0606  0.9672
  554MOL0     C74695  12.322   4.652   8.536 -0.5470 -0.5341  0.7433
  554MOL0     C74696  12.326   4.770   8.434 -0.4163 -0.1821 -0.9050
  554MOL0     C74697  12.264   4.731   8.296 -0.1338 -0.7699  0.1698
  554MOL0     C74698  12.200   4.848   8.231  0.2974  0.0861  0.0587
  554MOL0    Cl74699  12.187   4.806   8.052 -0.0095  0.2750 -0.0287
  554MOL0     C74700  11.671   4.574   8.582 -0.5552 -0.6567 -0.0065
  554MOL0     C74701  11.593   4.680   8.632  0.7175  0.3699  0.0020
  554MOL0     O74702  11.375   4.728   8.853 -0.1160  0.2356 -0.0293
  554MOL0     C74703  11.447   5.077   8.924  1.4559 -0.2156 -0.7675
  554MOL0     C74704  11.375   5.187   8.984  0.0124  0.0670  0.2777
  554MOL0     N74705  11.361   5.754   9.369  0.4077 -0.2135  1.0909
  554MOL0     N74706  11.379   5.869   9.418  0.7398  0.4553  0.1483
  554MOL0     C74707  11.605   6.536  10.321  0.4290 -1.0012  0.6005
  554MOL0     C74708  11.562   6.550  10.455 -0.0705  0.6168 -0.4793
  554MOL0     C74709  11.463   6.521  10.851  0.5269  0.8232 -0.1764
  554MOL0     C74710  11.564   6.414  10.861 -0.5097 -0.2533 -0.9479
  554MOL0     C74711  11.562   6.323  10.962  1.0201 -0.2479  0.2962
  554MOL0     C74712  11.453   6.308  11.050  0.3120 -0.8854  0.4069
  554MOL0     O74713  11.449   6.226  11.153 -0.2646 -0.3112 -1.0379
  554MOL0     C74714  11.502   6.094  11.137 -0.4365 -1.0590  0.4579
  554MOL0     C74715  11.543   6.045  11.284  0.2185 -0.4616  1.3107
  554MOL0     C74716  11.671   6.122  11.330 -0.0765 -0.5478 -0.3254
  554MOL0     C74717  11.727   6.044  11.446 -0.5872 -0.3939 -0.5159
  554MOL0     C74718  11.877   6.090  11.449  0.5577  0.7147 -0.7893
  554MOL0     C74719  11.996   6.125  11.443 -0.5929 -0.3645 -0.0030
  554MOL0     C74720  11.356   6.408  11.034  0.0780  0.4836 -0.3151
  554MOL0     C74721  11.358   6.519  10.945 -1.1489 -0.3252 -0.7452
  554MOL0     C74722  11.259   6.636  10.955  0.5699 -0.1432 -0.3165
  554MOL0     H74723  11.822   6.710  10.582 -1.4064  2.7655  0.4816
  554MOL0     H74724  11.871   6.744  10.350 -2.1269  1.0619 -0.4536
  554MOL0     H74725  11.568   6.574  10.070  0.6341  0.5291  2.0005
  554MOL0     H74726  11.698   6.569   9.945 -2.7567 -3.4280 -1.9914
  554MOL0     H74727  11.718   6.358  10.157 -3.4239  3.3948  3.0326
  554MOL0     H74728  11.809   6.397  10.011 -0.2300  1.5148  0.5274
  554MOL0     H74729  11.507   6.352   9.990  0.5632 -2.6231  2.2394
  554MOL0     H74730  11.628   6.221   9.987  2.1706 -0.2542 -2.2313
  554MOL0     H74731  11.584   6.438   9.767  2.5679 -1.4154 -1.0850
  554MOL0     H74732  11.728   6.344   9.798  0.7826 -0.3907  0.1806
  554MOL0     H74733  11.450   6.221   9.750  0.4458 -2.4298 -3.2082
  554MOL0     H74734  11.567   6.241   9.632 -0.2647 -0.5980  0.4269
  554MOL0     H74735  11.726   6.090   9.752 -0.3839 -1.0644  1.3626
  554MOL0     H74736  11.586   6.030   9.848 -3.9335 -2.8999 -1.9839
  554MOL0     H74737  11.621   5.896   9.644  2.4612 -0.9963 -3.0113
  554MOL0     H74738  11.608   6.053   9.555 -3.2576 -0.3765 -0.7849
  554MOL0     H74739  11.378   5.957   9.735 -0.2328 -0.0563  0.2515
  554MOL0     H74740  11.373   6.058   9.597 -1.8259 -1.9270 -0.3004
  554MOL0     H74741  11.331   5.682   9.691 -0.2069 -0.2161  0.0323
  554MOL0     H74742  11.418   5.484   9.378  0.9929 -2.4639  2.3317
  554MOL0     H74743  11.356   5.465   9.537  0.8371 -0.7746 -1.3069
  554MOL0     H74744  11.191   5.368   9.404 -0.9451 -0.0516 -0.6508
  554MOL0     H74745  11.122   5.522   9.437  0.3461  0.9884  0.6228
  554MOL0     H74746  11.218   5.597   9.203 -1.4278  0.0137 -2.0363
  554MOL0     H74747  11.078   5.480   9.205  0.1825 -0.9141 -0.5370
  554MOL0     H74748  11.349   5.384   9.181  0.5870  1.1242 -1.9308
  554MOL0     H74749  11.263   5.428   9.037  4.1896 -1.3381  0.0198
  554MOL0     H74750  11.098   5.038   9.104 -0.0273 -1.3710  0.1048
  554MOL0     H74751  11.213   4.839   8.992  0.7045 -1.1379 -1.9128
  554MOL0     H74752  11.744   4.700   8.937 -2.0713 -0.9613  0.6593
  554MOL0     H74753  11.882   4.503   8.829 -1.1999 -1.0060  1.3385
  554MOL0     H74754  11.900   4.373   8.406 -2.9191  1.2588  1.1922
  554MOL0     H74755  11.923   4.545   8.454  2.3607  1.5126  0.7708
  554MOL0     H74756  12.095   4.301   8.557  1.4436  0.0380 -1.2849
  554MOL0     H74757  12.142   4.412   8.434 -0.8859 -0.7972 -1.5292
  554MOL0     H74758  12.075   4.516   8.722 -0.2250  1.3023  0.1638
  554MOL0     H74759  12.236   4.444   8.673  0.0765 -0.1929 -1.8705
  554MOL0     H74760  12.193   4.714   8.680 -0.7721 -0.9668  2.0963
  554MOL0     H74761  12.108   4.673   8.531  2.6406 -0.8983 -2.1469
  554MOL0     H74762  12.355   4.562   8.482  3.7590  0.5752  1.1539
  554MOL0     H74763  12.389   4.675   8.619 -1.4832 -0.8257  1.6090
  554MOL0     H74764  12.282   4.854   8.487  0.1546 -0.6852  0.4213
  554MOL0     H74765  12.431   4.793   8.413 -0.8847  1.2965 -1.7164
  554MOL0     H74766  12.194   4.649   8.312 -1.0479  0.3269  2.1990
  554MOL0     H74767  12.343   4.697   8.228 -0.7401 -1.5377 -0.1663
  554MOL0     H74768  12.106   4.887   8.269 -0.5441 -2.6217  0.9712
  554MOL0     H74769  12.269   4.932   8.242  1.2484 -0.2359 -2.5584
  554MOL0     H74770  11.651   4.543   8.480 -1.4283 -0.1987  0.0215
  554MOL0     H74771  11.514   4.731   8.577 -1.4307 -3.4649 -0.8374
  554MOL0     H74772  11.543   5.092   8.877  2.4046 -3.4016 -0.0988
  554MOL0     H74773  11.428   5.281   8.972  1.6813 -0.8907 -0.0801
  554MOL0     H74774  11.541   6.478  10.254 -0.3004  1.3940 -0.8940
  554MOL0     H74775  11.465   6.510  10.482 -0.7933  3.8232  2.3708
  554MOL0     H74776  11.657   6.408  10.805  0.3863 -0.1835  0.4840
  554MOL0     H74777  11.657   6.270  10.968  2.7131  2.1833 -2.4709
  554MOL0     H74778  11.587   6.098  11.069  1.0740  0.5669  2.3053
  554MOL0     H74779  11.423   6.027  11.102 -0.7599 -2.0099  2.8258
  554MOL0     H74780  11.563   5.938  11.278 -0.3326 -0.4995 -0.1682
  554MOL0     H74781  11.469   6.065  11.362 -0.1157  2.2013  0.4217
  554MOL0     H74782  11.658   6.229  11.352 -1.6077 -0.0725 -3.0909
  554MOL0     H74783  11.734   6.122  11.241 -0.3554  1.0834 -0.5644
  554MOL0     H74784  11.670   6.073  11.535 -0.4263 -2.4080  0.2948
  554MOL0     H74785  11.728   5.935  11.444 -0.4489 -0.3988 -2.6939
  554MOL0     H74786  12.103   6.138  11.438 -0.7003  0.4093 -4.7426
  554MOL0     H74787  11.273   6.392  11.103 -0.0208  3.2986  0.3223
  554MOL0     H74788  11.301   6.718  11.014 -4.3061  0.0652  3.4973
  554MOL0     H74789  11.237   6.671  10.854  0.5628 -0.5893 -0.4749
  554MOL0     H74790  11.170   6.599  11.006  0.2408 -0.7817 -1.3240
  555MOL0     O74791   3.773   0.586   5.754 -0.1172 -0.7988 -0.4078
  555MOL0     C74792   3.806   0.496   5.675  0.2576  0.0795 -0.3713
  555MOL0     O74793   3.933   0.490   5.626  0.2401 -0.2408  0.3161
  555MOL0     C74794   4.022   0.585   5.648  0.4164 -0.5403 -0.2808
  555MOL0     C74795   4.004   0.718   5.645 -0.1315 -0.1139  0.3273
  555MOL0     C74796   4.096   0.827   5.649 -0.6065  0.3552  0.4670
  555MOL0     C74797   4.232   0.794   5.660  1.2353 -0.2356  1.0873
  555MOL0     O74798   4.333   0.878   5.678 -0.5514 -0.4795 -1.2176
  555MOL0     C74799   4.335   1.008   5.619  0.6726  0.4411 -0.0402
  555MOL0     C74800   4.464   1.020   5.525  0.2556 -0.1495 -0.0361
  555MOL0     C74801   4.469   1.162   5.478 -0.6031 -0.0445  0.5821
  555MOL0     C74802   4.569   1.240   5.558  0.2289 -0.1934 -0.2742
  555MOL0     C74803   4.533   1.394   5.557 -1.3696  0.9366 -0.2487
  555MOL0     C74804   4.632   1.480   5.637  0.5432  0.6113 -0.0314
  555MOL0     C74805   4.771   1.520   5.573 -0.1274 -0.5867 -0.2621
  555MOL0     C74806   4.759   1.630   5.464 -0.1749  0.0055  0.4789
  555MOL0     N74807   4.887   1.641   5.389 -0.0759  0.1469  0.7826
  555MOL0     C74808   5.004   1.655   5.451 -0.0139  1.0942 -0.7925
  555MOL0     C74809   5.098   1.646   5.354 -1.0391  0.0049  0.1040
  555MOL0     C74810   5.257   1.627   5.375 -0.8368 -0.2973  0.2393
  555MOL0     C74811   5.351   1.608   5.256  0.3766 -0.2439  0.0906
  555MOL0     C74812   5.313   1.514   5.142 -0.6721 -0.3089 -0.0325
  555MOL0     C74813   5.376   1.375   5.162 -0.1403  0.0981 -0.5397
  555MOL0     O74814   5.314   1.325   5.285 -0.0496  0.1104  0.5761
  555MOL0     C74815   5.218   1.236   5.285  0.0855  0.3309  0.0486
  555MOL0     C74816   5.222   1.111   5.210  0.0665  0.1633  0.4416
  555MOL0     C74817   5.116   1.019   5.246 -0.1613  0.3125  0.2918
  555MOL0     C74818   5.015   1.046   5.342 -0.5194  0.2041  0.5563
  555MOL0     C74819   4.909   0.946   5.376 -0.7521 -0.6542  0.2159
  555MOL0     O74820   4.900   0.832   5.296 -0.4939 -0.3307 -0.3983
  555MOL0     C74821   4.830   0.716   5.332  0.2845 -0.2890 -0.1531
  555MOL0     C74822   4.848   0.604   5.255  0.6323  1.2923  0.2042
  555MOL0     C74823   4.773   0.487   5.267  0.4229 -0.0017  0.0244
  555MOL0     C74824   4.670   0.480   5.364 -0.2082 -1.2787 -0.0629
  555MOL0     O74825   4.577   0.372   5.367 -0.1593  0.7608  0.0760
  555MOL0     C74826   4.442   0.392   5.430  0.2145 -0.0228  0.0011
  555MOL0     C74827   4.343   0.279   5.392  0.5374 -0.2197 -0.4853
  555MOL0     C74828   4.295   0.280   5.243  0.1424 -0.0091  0.4713
  555MOL0     C74829   4.194   0.165   5.221  0.1868  0.2427  0.2114
  555MOL0     C74830   4.162   0.133   5.068  0.0315 -0.5660 -1.6150
  555MOL0     C74831   4.278   0.070   4.988  0.6100 -1.2717 -0.5108
  555MOL0     C74832   4.255   0.065   4.834  0.0599  0.3877  0.3107
  555MOL0     C74833   4.385   0.062   4.765  0.4707 -0.0089  0.4483
  555MOL0    Cl74834   4.376   0.068   4.594 -0.0402  0.1574  0.5696
  555MOL0     C74835   4.677   0.582   5.469  0.6435  1.0655 -0.0712
  555MOL0     C74836   4.757   0.696   5.457 -0.0527 -1.1778  0.0948
  555MOL0     O74837   4.838   0.980   5.468  0.5477 -0.3906  0.5706
  555MOL0     C74838   5.022   1.171   5.409  0.1676  0.7839  1.2500
  555MOL0     C74839   5.121   1.260   5.382  0.3004  0.0674  0.5740
  555MOL0     N74840   5.035   1.648   5.233 -0.2300 -0.0799 -0.4326
  555MOL0     N74841   4.905   1.654   5.253 -0.3181 -0.3434  0.1112
  555MOL0     C74842   4.255   0.650   5.676 -0.0721  0.4768  0.9498
  555MOL0     C74843   4.149   0.551   5.663 -0.1225 -0.2642  0.9363
  555MOL0     C74844   3.712   0.393   5.633 -0.7369 -0.4757  0.4653
  555MOL0     C74845   3.768   0.285   5.565  0.8337  0.0502  0.2766
  555MOL0     C74846   3.686   0.183   5.507 -0.6477 -0.1853  0.4819
  555MOL0     C74847   3.546   0.185   5.528  0.5137  0.0667  0.2904
  555MOL0     O74848   3.452   0.091   5.484  0.3624 -0.8132 -0.4977
  555MOL0     C74849   3.485   0.026   5.350 -0.8735  0.0262 -0.7753
  555MOL0     C74850   3.369   0.045   5.257  0.2535  0.1525  0.3053
  555MOL0     C74851   3.238  -0.003   5.311  0.0192  1.1101  0.1449
  555MOL0     C74852   3.138   0.036   5.208  1.4415  0.3031 -0.3241
  555MOL0     C74853   3.028  -0.062   5.222 -0.2231 -0.8411  0.1999
  555MOL0     C74854   2.941  -0.152   5.222 -0.4084 -0.0192 -0.0003
  555MOL0     C74855   3.499   0.293   5.605  0.5065 -0.2671 -0.3402
  555MOL0     C74856   3.573   0.394   5.654  0.8949 -0.6562  0.1648
  555MOL0     C74857   3.492   0.499   5.745  0.1249  0.3556 -0.2275
  555MOL0     H74858   3.898   0.742   5.633 -0.1245  0.5199  1.4304
  555MOL0     H74859   4.073   0.932   5.657  2.1756  1.0033  0.8955
  555MOL0     H74860   4.249   1.032   5.556  0.1795  2.2807  1.2629
  555MOL0     H74861   4.330   1.086   5.696 -1.5775  1.4838 -1.1554
  555MOL0     H74862   4.434   0.953   5.444 -0.4195  0.3525 -0.2126
  555MOL0     H74863   4.557   0.994   5.577 -1.5584 -1.5614  2.7407
  555MOL0     H74864   4.373   1.213   5.487 -2.1640 -2.2447 -2.1028
  555MOL0     H74865   4.511   1.176   5.377 -0.0757  0.6305  0.8819
  555MOL0     H74866   4.580   1.199   5.659 -1.7477  0.0181  0.0714
  555MOL0     H74867   4.665   1.218   5.511 -1.0677 -2.3588 -2.1235
  555MOL0     H74868   4.519   1.435   5.456  1.5157 -0.7669 -1.4858
  555MOL0     H74869   4.433   1.387   5.600 -1.4407  0.2619 -0.5037
  555MOL0     H74870   4.578   1.565   5.680  0.3753 -0.7739  2.7261
  555MOL0     H74871   4.641   1.432   5.735 -1.6651  1.3129  0.5657
  555MOL0     H74872   4.837   1.441   5.535  2.0514  0.4905  1.0483
  555MOL0     H74873   4.835   1.568   5.647  3.1262  0.5311 -3.4708
  555MOL0     H74874   4.676   1.601   5.399  1.8966 -1.7055 -1.5888
  555MOL0     H74875   4.738   1.727   5.511 -0.0992  0.0725  0.3742
  555MOL0     H74876   5.036   1.654   5.554  2.4687 -1.6660 -1.4609
  555MOL0     H74877   5.286   1.720   5.424  2.6015 -1.2854  0.3011
  555MOL0     H74878   5.271   1.551   5.452 -1.4591  0.2940  0.9517
  555MOL0     H74879   5.350   1.710   5.216  0.4935  0.9564  2.8958
  555MOL0     H74880   5.455   1.585   5.282  1.3235 -0.1439 -3.2063
  555MOL0     H74881   5.345   1.549   5.043 -3.0153 -0.7948 -1.0222
  555MOL0     H74882   5.205   1.504   5.137 -0.5721 -0.8506 -2.7106
  555MOL0     H74883   5.484   1.384   5.174 -0.5293  2.0029  2.5729
  555MOL0     H74884   5.362   1.309   5.075  1.3866 -0.5218 -0.3464
  555MOL0     H74885   5.297   1.069   5.145 -1.1560 -3.3236  1.0498
  555MOL0     H74886   5.112   0.918   5.206 -0.6668  0.3385  0.2634
  555MOL0     H74887   4.929   0.613   5.184  0.2839 -3.8261 -1.1854
  555MOL0     H74888   4.783   0.404   5.198  3.2336 -1.1316  1.6303
  555MOL0     H74889   4.451   0.398   5.539 -0.0144  0.3204  0.0051
  555MOL0     H74890   4.407   0.492   5.403  0.1393  1.3530  4.3926
  555MOL0     H74891   4.386   0.184   5.426 -0.3862 -1.3257 -2.2925
  555MOL0     H74892   4.256   0.293   5.457  1.8008  1.9329  0.8821
  555MOL0     H74893   4.248   0.372   5.207 -2.4696 -1.4510 -0.0655
  555MOL0     H74894   4.384   0.249   5.188 -2.1433 -2.1883 -2.3083
  555MOL0     H74895   4.099   0.190   5.270 -0.0981  4.4068 -2.0151
  555MOL0     H74896   4.226   0.080   5.283  1.3527 -1.5408 -2.6386
  555MOL0     H74897   4.119   0.225   5.027  0.7653  1.5899  2.0837
  555MOL0     H74898   4.079   0.061   5.067 -1.7759  1.3750  0.2487
  555MOL0     H74899   4.369   0.128   5.009  1.1383 -1.6670 -1.5980
  555MOL0     H74900   4.294  -0.031   5.029  2.0664 -0.9187 -0.1388
  555MOL0     H74901   4.205   0.162   4.821 -0.2180  0.3565  1.0512
  555MOL0     H74902   4.192  -0.016   4.798 -2.0292  0.7356  2.8377
  555MOL0     H74903   4.440   0.150   4.799 -2.8868  2.0407  0.9806
  555MOL0     H74904   4.437  -0.032   4.788  2.0871  0.0834 -2.4262
  555MOL0     H74905   4.615   0.565   5.556 -1.7822  3.0303 -1.2840
  555MOL0     H74906   4.750   0.767   5.539 -4.3796 -0.2312 -0.8462
  555MOL0     H74907   4.943   1.187   5.482 -0.1543  1.8180  0.6882
  555MOL0     H74908   5.124   1.355   5.433 -1.6646  0.1541  0.5825
  555MOL0     H74909   4.359   0.624   5.689 -0.4390 -1.6447  0.0505
  555MOL0     H74910   4.167   0.444   5.657  1.7311  0.0335  0.3376
  555MOL0     H74911   3.873   0.282   5.541  0.7351  0.9639 -0.2703
  555MOL0     H74912   3.744   0.100   5.469 -1.2446 -0.1210 -0.6199
  555MOL0     H74913   3.511  -0.078   5.368  0.5027  0.9191  3.5097
  555MOL0     H74914   3.574   0.067   5.300 -0.3031  0.6034  0.6545
  555MOL0     H74915   3.393  -0.001   5.160  0.7429 -0.4479  0.7058
  555MOL0     H74916   3.359   0.152   5.233  2.9135  0.8868  2.0811
  555MOL0     H74917   3.217   0.059   5.399  1.0078  3.7114 -1.3580
  555MOL0     H74918   3.245  -0.109   5.339 -1.4676  1.2785  1.2484
  555MOL0     H74919   3.092   0.133   5.229 -0.6608 -0.4691 -1.1050
  555MOL0     H74920   3.181   0.030   5.108  0.3595 -1.5289 -0.7367
  555MOL0     H74921   2.873  -0.233   5.238  1.6588 -1.2034  4.2473
  555MOL0     H74922   3.396   0.287   5.636  1.3673 -0.1448  2.8474
  555MOL0     H74923   3.555   0.523   5.831 -0.3098  1.2855 -0.1482
  555MOL0     H74924   3.472   0.588   5.684 -0.5459  1.2540  1.2588
  555MOL0     H74925   3.403   0.453   5.791  0.9451  1.3293  2.5310
  556MOL0     O74926  11.050   7.883   2.777 -0.2352 -0.1687  0.7113
  556MOL0     C74927  10.965   7.959   2.825 -0.0864  0.8619 -0.4295
  556MOL0     O74928  10.986   8.091   2.857 -0.7082  0.3633  0.9557
  556MOL0     C74929  11.100   8.155   2.824  0.4276 -0.0939  0.0257
  556MOL0     C74930  11.186   8.128   2.712  0.0201  1.1688 -0.0861
  556MOL0     C74931  11.315   8.178   2.701  0.7341  0.0305 -0.1146
  556MOL0     C74932  11.365   8.257   2.806 -0.7043 -0.1014  0.5713
  556MOL0     O74933  11.489   8.304   2.829 -0.4761 -0.9983  0.0535
  556MOL0     C74934  11.603   8.230   2.760 -0.2232  0.9656 -0.3955
  556MOL0     C74935  11.632   8.284   2.624 -0.2038 -0.6911  0.6428
  556MOL0     C74936  11.782   8.288   2.597 -0.3060  0.4312 -0.9271
  556MOL0     C74937  11.831   8.314   2.466 -0.1977  0.7714  1.2895
  556MOL0     C74938  11.980   8.302   2.470 -0.6911  1.0522  0.6692
  556MOL0     C74939  12.072   8.306   2.338 -0.8781  0.6294 -0.5853
  556MOL0     C74940  12.055   8.429   2.244  0.5021  0.2435 -0.2255
  556MOL0     C74941  12.156   8.425   2.131  0.3723 -0.4572  0.5508
  556MOL0     N74942  12.159   8.549   2.052  0.1363  0.4791  0.3410
  556MOL0     C74943  12.215   8.670   2.077  0.1879  0.6695  0.6085
  556MOL0     C74944  12.202   8.743   1.961  0.4331  0.1308 -0.1729
  556MOL0     C74945  12.230   8.895   1.939 -0.3127  0.2966  0.5124
  556MOL0     C74946  12.142   8.987   2.047  1.0435  0.8925  0.3487
  556MOL0     C74947  11.994   8.946   2.043 -0.0122  0.3408  0.2078
  556MOL0     C74948  11.912   9.052   2.120  0.6948  0.3144 -0.9980
  556MOL0     O74949  11.770   9.021   2.141 -0.6279 -0.2322 -0.9459
  556MOL0     C74950  11.684   9.032   2.032 -0.8224 -0.4730  0.5064
  556MOL0     C74951  11.547   8.997   2.045 -0.0537 -0.7352  0.5244
  556MOL0     C74952  11.447   9.019   1.940 -0.4771 -0.7682  0.1128
  556MOL0     C74953  11.493   9.062   1.814 -0.0906 -0.5530  0.3902
  556MOL0     C74954  11.400   9.089   1.697  0.3611  0.1929 -0.0223
  556MOL0     O74955  11.278   9.142   1.724 -1.4531 -0.0358 -0.2289
  556MOL0     C74956  11.211   9.197   1.622 -0.0015  1.5443 -0.7720
  556MOL0     C74957  11.255   9.268   1.513 -0.5213  0.3133  0.9828
  556MOL0     C74958  11.168   9.323   1.418 -0.0479 -0.3700  0.1732
  556MOL0     C74959  11.033   9.315   1.432 -0.1480 -0.3066  0.4850
  556MOL0     O74960  10.936   9.385   1.359 -0.0198 -0.1559  0.0784
  556MOL0     C74961  10.951   9.372   1.219 -0.7055  0.5226  0.8850
  556MOL0     C74962  10.849   9.469   1.158  0.2098  0.3357 -0.0835
  556MOL0     C74963  10.862   9.477   0.999  0.0564 -0.9030  0.1441
  556MOL0     C74964  10.725   9.488   0.932 -0.6238 -0.1181 -0.2827
  556MOL0     C74965  10.726   9.539   0.788  0.1301 -0.0141  0.7743
  556MOL0     C74966  10.598   9.583   0.732  0.9999 -0.0631  0.3360
  556MOL0     C74967  10.490   9.468   0.746  0.5107 -0.7683  0.1959
  556MOL0     C74968  10.393   9.488   0.861  0.5676  0.9316 -0.4392
  556MOL0    Cl74969  10.260   9.368   0.823 -0.1274 -0.3033  0.7065
  556MOL0     C74970  10.992   9.244   1.539  0.4027  0.8037  0.4272
  556MOL0     C74971  11.072   9.186   1.635  0.2992  0.1703  0.4997
  556MOL0     O74972  11.446   9.072   1.586 -0.1591 -0.2148  0.4928
  556MOL0     C74973  11.625   9.099   1.800 -0.4096  0.4479 -0.4905
  556MOL0     C74974  11.727   9.087   1.897  0.4929  0.6044  0.4217
  556MOL0     N74975  12.121   8.664   1.876 -0.7709 -0.5828  0.6197
  556MOL0     N74976  12.111   8.547   1.928  0.3108 -0.4299  0.3696
  556MOL0     C74977  11.272   8.315   2.896 -0.8749  0.6690 -0.5106
  556MOL0     C74978  11.144   8.258   2.906 -0.1993  0.0519 -0.0988
  556MOL0     C74979  10.825   7.893   2.831 -0.3551  0.0398  0.1756
  556MOL0     C74980  10.782   7.815   2.719  0.1641 -0.1491 -0.1229
  556MOL0     C74981  10.649   7.784   2.695 -0.2793  0.0740 -0.2141
  556MOL0     C74982  10.552   7.829   2.792  0.0013 -0.6016  0.2481
  556MOL0     O74983  10.417   7.815   2.782  1.3799 -0.0291  0.0450
  556MOL0     C74984  10.372   7.750   2.662  0.2454  0.5986  0.1983
  556MOL0     C74985  10.220   7.718   2.673 -0.4195 -0.8885 -0.4593
  556MOL0     C74986  10.177   7.611   2.777 -0.3722  0.3113 -0.9744
  556MOL0     C74987  10.155   7.469   2.739 -0.9701  0.8066  0.5529
  556MOL0     C74988  10.059   7.453   2.629 -0.5575  0.1154 -0.0976
  556MOL0     C74989   9.996   7.446   2.531  0.5374  0.6560 -0.0110
  556MOL0     C74990  10.601   7.891   2.907 -0.1746 -0.2946 -0.3817
  556MOL0     C74991  10.728   7.934   2.924 -0.6809  0.3191  0.7825
  556MOL0     C74992  10.778   7.999   3.050 -0.8392 -0.1507  0.2318
  556MOL0     H74993  11.172   8.056   2.633  0.1822  1.7536 -0.6503
  556MOL0     H74994  11.379   8.152   2.618  0.8439  4.0871 -1.5112
  556MOL0     H74995  11.686   8.235   2.831 -1.9200 -1.2928  1.9489
  556MOL0     H74996  11.597   8.120   2.758  1.0892  0.8855 -1.3026
  556MOL0     H74997  11.601   8.389   2.630  1.2633 -0.2757  1.8323
  556MOL0     H74998  11.573   8.230   2.550 -0.1088 -2.9248  2.1125
  556MOL0     H74999  11.822   8.191   2.625  0.6609  1.1098  0.1537
  556MOL0     H75000  11.835   8.354   2.666  0.2207 -1.6362  0.7454
  556MOL0     H75001  11.790   8.246   2.391  1.9508  0.8067  0.0058
  556MOL0     H75002  11.820   8.418   2.434  0.5491  0.4335 -0.1640
  556MOL0     H75003  12.022   8.386   2.526  4.9010 -1.7767  1.4947
  556MOL0     H75004  12.002   8.206   2.519 -2.1932  1.6920  2.7008
  556MOL0     H75005  12.169   8.312   2.388 -0.7623 -0.2199 -0.6989
  556MOL0     H75006  12.055   8.214   2.282  0.1689  0.4805 -0.6747
  556MOL0     H75007  12.078   8.523   2.297 -1.3757  0.9692 -0.6380
  556MOL0     H75008  11.950   8.430   2.214 -0.5055 -2.1093  2.7775
  556MOL0     H75009  12.256   8.396   2.166 -0.3447 -1.1748  2.1303
  556MOL0     H75010  12.123   8.344   2.065 -1.3483  0.2667  0.4786
  556MOL0     H75011  12.263   8.709   2.166  0.8701 -1.4810  1.2506
  556MOL0     H75012  12.338   8.912   1.946 -0.1349 -1.3065  2.2561
  556MOL0     H75013  12.199   8.914   1.835 -1.0704 -1.9436  0.2854
  556MOL0     H75014  12.176   8.967   2.149 -0.3780  0.6239  0.7843
  556MOL0     H75015  12.160   9.091   2.021  2.7701  0.1178 -1.9751
  556MOL0     H75016  11.986   8.848   2.091  0.9600 -0.5379 -1.3404
  556MOL0     H75017  11.950   8.948   1.943 -0.9494 -3.3850  0.4177
  556MOL0     H75018  11.923   9.153   2.079 -4.0130  2.5601  2.3670
  556MOL0     H75019  11.968   9.064   2.213 -1.3601  4.3489 -0.0591
  556MOL0     H75020  11.511   8.969   2.143 -2.7151  1.3076  0.2482
  556MOL0     H75021  11.342   9.010   1.964 -0.3113  0.3645  1.3605
  556MOL0     H75022  11.362   9.279   1.501 -0.4674  1.7682  2.5314
  556MOL0     H75023  11.205   9.374   1.330 -2.4475  4.0194  1.4170
  556MOL0     H75024  11.053   9.380   1.181 -1.1691  3.0069 -0.0675
  556MOL0     H75025  10.916   9.272   1.192 -1.8129  1.0558  0.2711
  556MOL0     H75026  10.751   9.437   1.195  0.5767  2.3355  2.9420
  556MOL0     H75027  10.854   9.565   1.209 -2.6911 -0.7022  2.5090
  556MOL0     H75028  10.932   9.560   0.984 -0.4495 -0.1826  1.6056
  556MOL0     H75029  10.911   9.383   0.971  2.9916  0.4159  0.4590
  556MOL0     H75030  10.672   9.569   0.984  1.7672  0.5434  1.2989
  556MOL0     H75031  10.653   9.406   0.942 -0.8070  0.1901  1.2555
  556MOL0     H75032  10.777   9.465   0.727  3.0511  1.7037  0.9457
  556MOL0     H75033  10.780   9.633   0.775 -0.4435  0.4139  1.3701
  556MOL0     H75034  10.558   9.673   0.781  1.9026 -0.3313  1.5997
  556MOL0     H75035  10.612   9.617   0.629 -3.1792  0.8407 -0.1444
  556MOL0     H75036  10.534   9.368   0.746 -3.6781 -2.8713  0.0865
  556MOL0     H75037  10.430   9.486   0.656 -3.0839  3.1020  2.9499
  556MOL0     H75038  10.442   9.461   0.955 -2.0767 -2.6474  0.1345
  556MOL0     H75039  10.357   9.591   0.873  0.8899  1.1393 -1.2106
  556MOL0     H75040  10.886   9.237   1.559  0.9432 -1.5918  3.1609
  556MOL0     H75041  11.036   9.129   1.720  0.1172 -0.1122  0.2361
  556MOL0     H75042  11.653   9.144   1.706  2.5278  0.7603  0.4223
  556MOL0     H75043  11.825   9.130   1.878  0.3750  1.1655  1.0442
  556MOL0     H75044  11.299   8.395   2.965  0.2508  0.2768 -0.4723
  556MOL0     H75045  11.078   8.288   2.987  2.7247 -0.1690  2.5601
  556MOL0     H75046  10.855   7.794   2.641 -1.2065 -2.5490 -0.8547
  556MOL0     H75047  10.644   7.716   2.611  2.7140 -2.0867  1.2053
  556MOL0     H75048  10.423   7.655   2.643  0.8798  1.6033 -4.3625
  556MOL0     H75049  10.399   7.821   2.583  0.1278 -0.3862 -0.7497
  556MOL0     H75050  10.177   7.699   2.574  0.0549 -0.2461 -0.8023
  556MOL0     H75051  10.173   7.814   2.697  0.5606 -0.9029  1.7096
  556MOL0     H75052  10.087   7.639   2.833 -0.1424 -1.6571  0.4877
  556MOL0     H75053  10.253   7.615   2.856 -2.6887  0.5114  1.4183
  556MOL0     H75054  10.250   7.430   2.702 -1.0018  1.0578  0.2099
  556MOL0     H75055  10.133   7.400   2.821  0.0271  0.4489  0.5276
  556MOL0     H75056   9.933   7.452   2.444  2.3095  3.7021 -1.2655
  556MOL0     H75057  10.527   7.914   2.983  0.3623 -2.5740  0.9096
  556MOL0     H75058  10.732   8.098   3.063  0.6567  0.6964 -0.5803
  556MOL0     H75059  10.753   7.928   3.129  0.9936 -1.1487 -0.0307
  556MOL0     H75060  10.886   8.014   3.042 -1.1354  2.4990  0.1272
  557MOL0     O75061   5.581   9.246   0.792  0.5655  0.2437 -0.4666
  557MOL0     C75062   5.637   9.306   0.878  0.4044 -0.8075  0.4472
  557MOL0     O75063   5.726   9.405   0.851  0.3037 -1.2057 -0.6070
  557MOL0     C75064   5.769   9.454   0.727  1.0184 -0.0175  0.7316
  557MOL0     C75065   5.759   9.381   0.606 -0.2278 -1.0389  0.0824
  557MOL0     C75066   5.794   9.440   0.484 -0.2876 -0.2867 -0.0624
  557MOL0     C75067   5.848   9.564   0.480 -0.0532  0.0869 -0.6071
  557MOL0     O75068   5.863   9.617   0.356  0.0781 -0.7017  0.1424
  557MOL0     C75069   5.911   9.747   0.330 -0.5225 -0.3566  0.2993
  557MOL0     C75070   5.921   9.782   0.172 -0.8063  0.3332 -0.7322
  557MOL0     C75071   5.976   9.673   0.082  0.0154  0.4743  0.4177
  557MOL0     C75072   6.026   9.724  -0.062  1.1448 -0.5048  1.2213
  557MOL0     C75073   6.045   9.620  -0.170 -0.3243 -0.4372  0.1499
  557MOL0     C75074   6.168   9.530  -0.141  0.8124  1.0459 -0.2556
  557MOL0     C75075   6.182   9.431  -0.258  0.1975 -0.6871  0.2581
  557MOL0     C75076   6.326   9.373  -0.271  0.0621 -0.5049  0.4053
  557MOL0     N75077   6.366   9.282  -0.162 -0.6797 -0.6206  0.6358
  557MOL0     C75078   6.281   9.177  -0.122 -0.2370 -0.6590  1.1334
  557MOL0     C75079   6.363   9.100  -0.039  0.7847  0.2966  0.1661
  557MOL0     C75080   6.334   8.965   0.036  0.0910 -0.6813  0.1868
  557MOL0     C75081   6.311   8.836  -0.048  0.3337  0.1186 -0.4061
  557MOL0     C75082   6.441   8.774  -0.112  0.4828  0.1146 -1.0796
  557MOL0     C75083   6.559   8.779  -0.005 -0.0073 -0.3681  0.1789
  557MOL0     O75084   6.517   8.696   0.121 -0.4849 -0.1433 -0.4276
  557MOL0     C75085   6.496   8.559   0.122  0.3866 -0.9978 -0.6438
  557MOL0     C75086   6.550   8.480   0.025  0.5524 -1.3039 -0.5214
  557MOL0     C75087   6.522   8.338   0.027 -0.0036 -0.1220 -0.0508
  557MOL0     C75088   6.433   8.292   0.127  0.3478  0.4216 -0.2800
  557MOL0     C75089   6.399   8.145   0.128  1.0275  0.4730  0.3950
  557MOL0     O75090   6.461   8.071   0.034  0.7578  0.2026  0.1801
  557MOL0     C75091   6.442   7.938   0.007  0.1468  0.4070 -0.0867
  557MOL0     C75092   6.462   7.892  -0.127 -0.6070 -0.4378 -0.2217
  557MOL0     C75093   6.442   7.762  -0.160 -0.5548 -1.0522 -0.3151
  557MOL0     C75094   6.397   7.665  -0.075  0.8687  0.5893  0.7547
  557MOL0     O75095   6.365   7.529  -0.119 -0.4011 -0.0367  0.2011
  557MOL0     C75096   6.360   7.493  -0.254 -0.2680 -0.5365 -0.1012
  557MOL0     C75097   6.297   7.356  -0.299 -0.4596 -0.0541 -0.3719
  557MOL0     C75098   6.358   7.245  -0.211 -0.2468  0.9090 -0.7885
  557MOL0     C75099   6.294   7.103  -0.240  0.1571  0.4210 -0.6477
  557MOL0     C75100   6.379   6.984  -0.216 -0.1641  0.3765  0.9761
  557MOL0     C75101   6.423   6.968  -0.070  0.0022  0.3392  0.3626
  557MOL0     C75102   6.530   6.864  -0.050  0.3213  0.2124  0.3151
  557MOL0     C75103   6.498   6.720  -0.106  0.4636 -0.1900 -0.1916
  557MOL0    Cl75104   6.362   6.630  -0.012 -0.2119  0.2864  0.2503
  557MOL0     C75105   6.380   7.714   0.052 -0.0086 -0.3763 -0.5571
  557MOL0     C75106   6.402   7.842   0.103 -0.3832  0.1582  0.0505
  557MOL0     O75107   6.317   8.100   0.210 -0.0253  0.5838  0.7667
  557MOL0     C75108   6.392   8.376   0.226 -0.6518  0.1327 -0.5681
  557MOL0     C75109   6.411   8.509   0.218  0.5766 -0.0996 -0.4492
  557MOL0     N75110   6.492   9.157  -0.029  0.2027 -0.1672  0.5718
  557MOL0     N75111   6.492   9.259  -0.108  0.2458  0.8497 -0.7596
  557MOL0     C75112   5.868   9.629   0.603 -1.1138 -0.6470  0.3182
  557MOL0     C75113   5.834   9.579   0.726 -0.1310  0.9846  0.6866
  557MOL0     C75114   5.588   9.307   1.016  0.1646 -0.4750 -0.7350
  557MOL0     C75115   5.637   9.401   1.108 -0.7264 -0.5330 -0.1267
  557MOL0     C75116   5.589   9.436   1.231  1.3759 -0.0030 -0.1801
  557MOL0     C75117   5.483   9.353   1.286  0.2139  0.1597 -1.4707
  557MOL0     O75118   5.445   9.366   1.422  0.3251  0.3778 -0.1440
  557MOL0     C75119   5.365   9.253   1.484 -0.4878  1.1018  0.5414
  557MOL0     C75120   5.381   9.241   1.626  0.7909 -0.4477 -0.5819
  557MOL0     C75121   5.301   9.120   1.688 -0.0268  0.3709 -0.2294
  557MOL0     C75122   5.245   9.150   1.828  0.0553  0.7698  0.4543
  557MOL0     C75123   5.188   9.028   1.905 -0.6857  1.4650 -0.5277
  557MOL0     C75124   5.138   8.937   1.967  0.1749  0.1657 -0.3145
  557MOL0     C75125   5.432   9.253   1.195 -0.1123 -0.9279  0.6255
  557MOL0     C75126   5.481   9.233   1.066 -0.0386 -1.6197  0.1519
  557MOL0     C75127   5.432   9.112   0.995 -0.0708 -0.8327  0.0832
  557MOL0     H75128   5.728   9.277   0.611 -0.4241 -1.1893 -2.8371
  557MOL0     H75129   5.792   9.380   0.394 -0.6532 -1.0695  0.4510
  557MOL0     H75130   5.844   9.818   0.379  0.1598  0.4066  0.1491
  557MOL0     H75131   6.010   9.750   0.376  0.0122 -2.2482 -0.6291
  557MOL0     H75132   5.992   9.865   0.163  1.8427 -1.7286 -0.1880
  557MOL0     H75133   5.817   9.807   0.148 -1.7193 -0.1110  2.2966
  557MOL0     H75134   5.895   9.603   0.056  0.4941 -1.7059  4.0358
  557MOL0     H75135   6.053   9.613   0.130 -3.3988 -2.9406  2.2325
  557MOL0     H75136   5.958   9.803  -0.095  2.6440 -0.6538 -2.8516
  557MOL0     H75137   6.119   9.774  -0.037  0.5293  0.0809  2.4002
  557MOL0     H75138   5.963   9.548  -0.180  0.7000 -1.5271 -0.6842
  557MOL0     H75139   6.062   9.669  -0.267  3.3368 -2.2156 -0.2710
  557MOL0     H75140   6.260   9.589  -0.148  1.6265 -0.0217  1.1496
  557MOL0     H75141   6.138   9.472  -0.054  0.3685 -2.4005 -2.5283
  557MOL0     H75142   6.165   9.477  -0.356 -0.3618 -3.8195 -1.2580
  557MOL0     H75143   6.115   9.345  -0.249 -0.4808 -0.4108 -1.7105
  557MOL0     H75144   6.326   9.313  -0.363 -1.4658 -0.4901  0.3592
  557MOL0     H75145   6.397   9.455  -0.272  0.7075 -1.0261 -1.2525
  557MOL0     H75146   6.183   9.145  -0.156 -1.0970  0.4821  2.4595
  557MOL0     H75147   6.415   8.952   0.107  4.0633  3.5792 -2.9567
  557MOL0     H75148   6.237   8.976   0.085  0.0925 -0.4148  0.1335
  557MOL0     H75149   6.273   8.758   0.020  1.3849 -0.2312 -0.2045
  557MOL0     H75150   6.242   8.856  -0.130 -1.1587 -2.2025  0.1632
  557MOL0     H75151   6.466   8.832  -0.201 -0.7976  0.2446 -1.3690
  557MOL0     H75152   6.420   8.672  -0.145 -2.0090 -0.5993  2.1362
  557MOL0     H75153   6.597   8.877   0.025 -0.2591 -0.3107  0.3171
  557MOL0     H75154   6.646   8.735  -0.055 -1.1891  0.4337 -2.8517
  557MOL0     H75155   6.622   8.525  -0.043  0.8193  0.8996  1.0925
  557MOL0     H75156   6.566   8.275  -0.049  1.2128  0.4728  0.1236
  557MOL0     H75157   6.487   7.972  -0.195 -2.2150  0.7651  0.5159
  557MOL0     H75158   6.486   7.742  -0.257  1.8276  4.3560 -0.7385
  557MOL0     H75159   6.315   7.573  -0.314 -2.3416 -1.5360  0.0092
  557MOL0     H75160   6.463   7.473  -0.286  0.1873  0.9200  0.3725
  557MOL0     H75161   6.188   7.355  -0.304 -0.4883 -2.5841 -0.8031
  557MOL0     H75162   6.322   7.336  -0.404  5.0614 -0.1196  0.6696
  557MOL0     H75163   6.468   7.242  -0.210 -0.2279  1.2382 -1.5123
  557MOL0     H75164   6.336   7.268  -0.106 -0.3670 -1.1558 -0.3008
  557MOL0     H75165   6.249   7.101  -0.340 -2.9013  0.0439  0.6249
  557MOL0     H75166   6.205   7.101  -0.176 -0.0526 -0.0449 -0.9461
  557MOL0     H75167   6.455   6.995  -0.293 -1.3915  3.9412  0.0738
  557MOL0     H75168   6.318   6.899  -0.251 -3.0300  3.3332 -2.0079
  557MOL0     H75169   6.463   7.063  -0.034  1.0209  0.2924 -0.5963
  557MOL0     H75170   6.332   6.939  -0.017 -1.0351  3.4544  0.5163
  557MOL0     H75171   6.561   6.874   0.055  0.4093  2.6928  0.0997
  557MOL0     H75172   6.621   6.901  -0.097  0.9612  1.6562  2.5482
  557MOL0     H75173   6.459   6.728  -0.209 -1.6062  0.6026  0.5948
  557MOL0     H75174   6.591   6.663  -0.115  1.1800  0.8640  0.3019
  557MOL0     H75175   6.350   7.640   0.126 -0.2336  0.9675  0.7374
  557MOL0     H75176   6.386   7.865   0.208  2.2365 -1.0980  0.8229
  557MOL0     H75177   6.336   8.332   0.308  1.0921 -0.9427  0.1115
  557MOL0     H75178   6.379   8.582   0.291 -1.4497  1.3010 -2.6057
  557MOL0     H75179   5.916   9.726   0.611 -2.7925  0.0754  2.8797
  557MOL0     H75180   5.862   9.630   0.818  0.7182  2.9280 -0.5873
  557MOL0     H75181   5.715   9.470   1.078  0.4734 -2.3278 -1.3360
  557MOL0     H75182   5.626   9.519   1.290  0.2868 -0.2796  0.9232
  557MOL0     H75183   5.393   9.161   1.430 -2.6038  0.6523  0.1383
  557MOL0     H75184   5.263   9.282   1.458 -0.8746  0.4752  1.3027
  557MOL0     H75185   5.353   9.337   1.670 -1.8529 -2.2981  2.1835
  557MOL0     H75186   5.486   9.238   1.653  0.4115 -2.3104  0.8418
  557MOL0     H75187   5.356   9.026   1.682  1.0772  1.0867 -2.1815
  557MOL0     H75188   5.217   9.088   1.626 -0.4933  1.2070 -0.0524
  557MOL0     H75189   5.321   9.191   1.895  3.4783 -3.0980 -0.6075
  557MOL0     H75190   5.155   9.210   1.818  1.1579  2.2217 -1.3458
  557MOL0     H75191   5.094   8.854   2.018 -1.4866  0.4793 -1.1644
  557MOL0     H75192   5.344   9.195   1.225 -1.2814 -0.9561 -2.5056
  557MOL0     H75193   5.355   9.142   0.923  2.3352  0.4714 -2.0973
  557MOL0     H75194   5.512   9.053   0.951  1.0505  0.7579 -0.1001
  557MOL0     H75195   5.382   9.045   1.066 -0.3117  0.2810  1.0134
  558MOL0     O75196  10.968   7.560   9.633  0.2861  0.5107 -0.4157
  558MOL0     C75197  10.988   7.442   9.597 -0.1151 -0.7525  0.0217
  558MOL0     O75198  11.080   7.398   9.512  0.0806  0.5721  1.6844
  558MOL0     C75199  11.183   7.479   9.493 -0.0383 -0.5513  0.5887
  558MOL0     C75200  11.212   7.516   9.362 -0.0812  0.0919 -0.3462
  558MOL0     C75201  11.310   7.608   9.328 -0.1963  0.2423  0.4028
  558MOL0     C75202  11.386   7.661   9.432  0.4408 -0.8399  0.0972
  558MOL0     O75203  11.483   7.740   9.380  0.0133  0.0795 -0.7280
  558MOL0     C75204  11.571   7.801   9.467 -0.9941 -0.1397 -0.6648
  558MOL0     C75205  11.684   7.875   9.398 -0.2760  0.5687 -0.1486
  558MOL0     C75206  11.651   8.004   9.313 -0.2788 -0.0759 -0.4030
  558MOL0     C75207  11.578   7.985   9.181 -0.0532  0.0118  0.1259
  558MOL0     C75208  11.509   8.114   9.137  0.1021  1.2096  1.1738
  558MOL0     C75209  11.604   8.228   9.111  0.7979  0.0669  0.0464
  558MOL0     C75210  11.530   8.368   9.113 -0.3942 -0.4997  0.4823
  558MOL0     C75211  11.584   8.448   9.245 -0.5393 -0.3288  1.0328
  558MOL0     N75212  11.713   8.510   9.206 -0.2405 -0.9028 -0.2734
  558MOL0     C75213  11.728   8.641   9.172  0.9003 -0.4762 -0.5757
  558MOL0     C75214  11.854   8.641   9.112  0.2087  0.2528  0.1218
  558MOL0     C75215  11.925   8.744   9.032  0.4996  1.3253 -0.1528
  558MOL0     C75216  11.853   8.884   9.056  0.1662 -0.7940 -0.5735
  558MOL0     C75217  11.931   9.005   8.995 -0.0620 -0.8254 -0.3637
  558MOL0     C75218  11.839   9.126   8.983  0.2097  0.3341 -0.6275
  558MOL0     O75219  11.739   9.108   8.879 -0.0463  0.3216 -0.1190
  558MOL0     C75220  11.645   9.201   8.853 -0.7692 -0.5157 -0.4396
  558MOL0     C75221  11.650   9.328   8.911  0.5436 -0.1987 -0.9746
  558MOL0     C75222  11.550   9.423   8.880 -0.9413  0.1934  0.5887
  558MOL0     C75223  11.461   9.386   8.775  0.7653  0.0560  0.4071
  558MOL0     C75224  11.358   9.473   8.719  0.5654 -0.4127 -0.2355
  558MOL0     O75225  11.342   9.588   8.797  0.6227  0.6720  0.1154
  558MOL0     C75226  11.245   9.669   8.757  0.3134  0.2873 -0.1040
  558MOL0     C75227  11.270   9.800   8.741  0.4346  0.4897  0.3032
  558MOL0     C75228  11.171   9.900   8.730 -0.3454  0.2492 -0.0412
  558MOL0     C75229  11.033   9.870   8.725 -0.8776  1.0801  0.5403
  558MOL0     O75230  10.941   9.960   8.691 -0.3556  0.3186  0.1254
  558MOL0     C75231  10.893   9.946   8.552  0.3787  1.1659 -0.3827
  558MOL0     C75232  10.897  10.078   8.478  0.8253  0.9230 -0.6650
  558MOL0     C75233  10.812  10.066   8.349 -0.4682 -0.4403 -0.0120
  558MOL0     C75234  10.668  10.052   8.365  0.1524  0.7226  0.5914
  558MOL0     C75235  10.580  10.100   8.235  0.1646  0.7778 -0.2356
  558MOL0     C75236  10.435  10.071   8.255  0.2031 -0.8213  0.2683
  558MOL0     C75237  10.351  10.128   8.134  0.0624  0.6240 -0.7585
  558MOL0     C75238  10.214  10.186   8.185  0.1559 -1.0845  0.2299
  558MOL0    Cl75239  10.112  10.051   8.257 -0.0319  0.0638 -0.6404
  558MOL0     C75240  11.002   9.730   8.728 -0.0603  0.5427 -0.1757
  558MOL0     C75241  11.107   9.628   8.754  0.3290 -0.8904  0.1684
  558MOL0     O75242  11.303   9.443   8.619 -0.3387  0.2988  0.9304
  558MOL0     C75243  11.466   9.261   8.715 -0.5651 -0.5202 -0.6427
  558MOL0     C75244  11.561   9.170   8.754 -0.1649 -0.9316 -0.1445
  558MOL0     N75245  11.909   8.518   9.138  0.1403 -0.2802  0.5029
  558MOL0     N75246  11.823   8.427   9.173  0.7810  0.1178 -0.7226
  558MOL0     C75247  11.359   7.625   9.564  0.7659  0.5959 -0.0385
  558MOL0     C75248  11.261   7.530   9.594 -0.1356  0.1957 -0.6590
  558MOL0     C75249  10.883   7.349   9.645 -0.8199 -0.4798 -0.0687
  558MOL0     C75250  10.860   7.234   9.568 -0.8499 -0.2460 -0.4885
  558MOL0     C75251  10.765   7.142   9.602 -0.8983  0.7986  0.6003
  558MOL0     C75252  10.680   7.154   9.713 -0.0026  0.2029  0.2192
  558MOL0     O75253  10.587   7.052   9.745  0.2452 -0.5532  0.9194
  558MOL0     C75254  10.489   7.067   9.849  0.0497 -0.0393 -0.3027
  558MOL0     C75255  10.541   7.042   9.987  0.3732 -0.1965 -0.6125
  558MOL0     C75256  10.429   7.009  10.090  0.6984  0.4781 -0.0154
  558MOL0     C75257  10.307   7.104  10.098  0.4107  0.0371 -0.6448
  558MOL0     C75258  10.336   7.246  10.126  0.5097  0.0211 -0.0127
  558MOL0     C75259  10.350   7.366  10.144  0.4444  0.4080 -0.2083
  558MOL0     C75260  10.695   7.272   9.791 -0.9386 -0.0549 -0.4528
  558MOL0     C75261  10.798   7.371   9.756  1.1868  0.0455 -0.1646
  558MOL0     C75262  10.776   7.505   9.830  0.2599  0.1359 -0.0039
  558MOL0     H75263  11.137   7.467   9.301 -0.0084 -0.7407  0.2164
  558MOL0     H75264  11.342   7.628   9.226 -1.8949 -0.3689 -0.2940
  558MOL0     H75265  11.516   7.869   9.533 -4.0710 -1.2474 -1.9092
  558MOL0     H75266  11.625   7.725   9.525  1.3740  0.5991 -1.7593
  558MOL0     H75267  11.738   7.798   9.341  0.6318  2.0756 -1.3944
  558MOL0     H75268  11.743   7.905   9.485 -1.9391 -0.6356  1.4970
  558MOL0     H75269  11.744   8.059   9.298 -0.4469  0.5501  0.7215
  558MOL0     H75270  11.596   8.064   9.385 -0.0985 -1.4809  0.9851
  558MOL0     H75271  11.647   7.952   9.103 -2.1704 -0.5676 -1.6094
  558MOL0     H75272  11.506   7.903   9.178  0.6198 -0.5881  0.0071
  558MOL0     H75273  11.431   8.105   9.061  1.3665 -2.5800  0.0957
  558MOL0     H75274  11.445   8.127   9.225 -1.6157 -2.1460  0.5920
  558MOL0     H75275  11.690   8.227   9.178  0.2490  2.4165  0.8663
  558MOL0     H75276  11.640   8.219   9.008  0.5159  1.5252 -0.1995
  558MOL0     H75277  11.424   8.344   9.126 -0.2067 -2.6746 -1.3832
  558MOL0     H75278  11.538   8.430   9.023  0.6209  0.2852  1.0856
  558MOL0     H75279  11.508   8.517   9.281 -2.2409  0.2768 -3.1606
  558MOL0     H75280  11.606   8.373   9.322 -1.2393  0.8500  2.4347
  558MOL0     H75281  11.656   8.721   9.155  0.3966 -1.0658 -1.2320
  558MOL0     H75282  12.027   8.750   9.071  1.4470 -0.6208 -2.1088
  558MOL0     H75283  11.936   8.696   8.935  2.0682 -2.6538  1.7445
  558MOL0     H75284  11.756   8.878   9.007  0.5289 -0.0943 -1.3891
  558MOL0     H75285  11.850   8.908   9.163  1.8142 -1.8492 -0.2517
  558MOL0     H75286  11.958   8.984   8.891  3.9104  4.3442 -0.8078
  558MOL0     H75287  12.028   9.024   9.042  0.2116 -1.7399 -0.5330
  558MOL0     H75288  11.892   9.221   8.977  3.3538 -1.0985  1.7842
  558MOL0     H75289  11.791   9.121   9.081 -1.6786  0.8607 -1.4773
  558MOL0     H75290  11.723   9.360   8.985 -0.0740  2.3247 -1.3470
  558MOL0     H75291  11.550   9.525   8.917  0.9505  1.0327 -1.5506
  558MOL0     H75292  11.376   9.827   8.735  0.7640 -1.0489 -1.9332
  558MOL0     H75293  11.201  10.004   8.720  0.8116 -0.0057  0.6308
  558MOL0     H75294  10.954   9.865   8.511 -0.0355 -0.3406  1.7889
  558MOL0     H75295  10.790   9.908   8.556  0.8270 -0.3130 -1.7873
  558MOL0     H75296  10.848  10.161   8.529  4.0658  2.6963 -0.1463
  558MOL0     H75297  11.006  10.088   8.470  1.4197 -0.9833  2.9307
  558MOL0     H75298  10.828  10.162   8.300 -2.4853 -0.1563 -0.2046
  558MOL0     H75299  10.861   9.997   8.280  0.1509  1.4937 -1.5962
  558MOL0     H75300  10.638  10.107   8.455  3.3059  1.6038  1.2114
  558MOL0     H75301  10.651   9.949   8.397  0.5140  0.9680  1.6032
  558MOL0     H75302  10.619  10.047   8.147  0.2546 -0.3376  0.4570
  558MOL0     H75303  10.593  10.206   8.210 -1.7903  0.9787 -0.5666
  558MOL0     H75304  10.418   9.963   8.251  1.6323 -1.1302  1.5300
  558MOL0     H75305  10.402  10.106   8.353 -0.7364  1.5477 -0.8145
  558MOL0     H75306  10.326  10.043   8.069 -0.0878  0.2411 -0.2077
  558MOL0     H75307  10.409  10.199   8.075 -0.6305  1.1043 -0.8855
  558MOL0     H75308  10.227  10.269   8.255 -2.4518  1.2421 -1.7992
  558MOL0     H75309  10.163  10.235   8.102  1.6606  1.5748  0.7641
  558MOL0     H75310  10.895   9.715   8.734 -0.0413  0.7795  1.2068
  558MOL0     H75311  11.106   9.526   8.791  4.1604 -1.1090  0.0726
  558MOL0     H75312  11.417   9.248   8.619  0.2126 -0.2532 -1.0878
  558MOL0     H75313  11.577   9.080   8.695  1.0432 -0.5380 -0.4445
  558MOL0     H75314  11.413   7.674   9.645  0.1743  0.3060  0.5520
  558MOL0     H75315  11.241   7.500   9.696 -0.6168 -2.8077 -1.5577
  558MOL0     H75316  10.934   7.200   9.497  1.1123  0.1946  1.2527
  558MOL0     H75317  10.757   7.050   9.545  0.1518  0.3514  1.1440
  558MOL0     H75318  10.428   6.984   9.813 -1.1905  1.0131 -0.7325
  558MOL0     H75319  10.428   7.158   9.843 -1.6899 -1.2451 -3.4078
  558MOL0     H75320  10.596   7.129  10.025  0.7398  0.5115 -2.6362
  558MOL0     H75321  10.624   6.970   9.991  0.6998  0.1763  3.2932
  558MOL0     H75322  10.477   6.997  10.188 -1.7183  0.6974  1.2662
  558MOL0     H75323  10.393   6.907  10.075  2.2026 -0.0456 -0.2803
  558MOL0     H75324  10.239   7.093  10.013 -0.7612  1.3301  0.0620
  558MOL0     H75325  10.252   7.063  10.184 -0.3160  1.5402 -0.3388
  558MOL0     H75326  10.370   7.465  10.179  0.8513  0.9531 -1.8925
  558MOL0     H75327  10.619   7.287   9.867 -0.3183 -4.1888  1.2828
  558MOL0     H75328  10.729   7.573   9.758  0.4823 -1.5203 -1.8178
  558MOL0     H75329  10.713   7.477   9.914 -1.7999 -0.5299 -1.6670
  558MOL0     H75330  10.865   7.564   9.857 -0.3468  0.6111  0.9901
  559MOL0     O75331   2.401   2.612   7.725  0.2379  0.3949 -0.4495
  559MOL0     C75332   2.338   2.574   7.621  0.2002  0.9037 -0.8484
  559MOL0     O75333   2.392   2.573   7.499 -0.7390  0.3396 -0.0163
  559MOL0     C75334   2.526   2.541   7.495 -0.3927  0.5355 -0.4745
  559MOL0     C75335   2.602   2.592   7.384  1.1275  0.2680 -0.4515
  559MOL0     C75336   2.735   2.560   7.373  0.0463 -0.1665 -0.3122
  559MOL0     C75337   2.803   2.486   7.476  0.5550  0.0179  0.2108
  559MOL0     O75338   2.932   2.441   7.475  0.3609 -0.1160  0.1056
  559MOL0     C75339   3.029   2.524   7.418 -0.2705  0.5734  0.4783
  559MOL0     C75340   3.161   2.446   7.398 -0.1413  0.5894 -0.5609
  559MOL0     C75341   3.245   2.457   7.532 -0.2677  0.2343  0.2961
  559MOL0     C75342   3.383   2.516   7.516  0.0317  1.0359 -0.2386
  559MOL0     C75343   3.481   2.416   7.446 -0.1615  0.1509 -0.1418
  559MOL0     C75344   3.609   2.485   7.415 -1.3663  0.1377  0.4377
  559MOL0     C75345   3.703   2.408   7.323 -0.3460  0.2047 -1.4929
  559MOL0     C75346   3.857   2.453   7.329  0.0552 -0.6523 -0.0728
  559MOL0     N75347   3.924   2.463   7.196  0.5554 -0.2735  0.0481
  559MOL0     C75348   3.945   2.349   7.124 -0.8001  0.7042  0.6763
  559MOL0     C75349   3.964   2.375   6.994 -0.9242 -0.1053 -0.5572
  559MOL0     C75350   4.008   2.271   6.896  0.1274  0.2714  0.4795
  559MOL0     C75351   3.911   2.254   6.787  0.2080  0.0455  0.1681
  559MOL0     C75352   3.936   2.113   6.724  0.0185  0.4999 -1.6957
  559MOL0     C75353   3.819   2.080   6.631  0.2908 -0.3761  1.0996
  559MOL0     O75354   3.782   2.180   6.529 -0.6160  0.3980  0.4338
  559MOL0     C75355   3.762   2.134   6.400 -0.0211  1.2942  0.4494
  559MOL0     C75356   3.655   2.203   6.338 -0.0233 -0.3816 -0.1984
  559MOL0     C75357   3.606   2.162   6.213 -0.0696 -0.2292 -0.1926
  559MOL0     C75358   3.642   2.045   6.154  0.8013  0.4022 -0.3573
  559MOL0     C75359   3.584   1.997   6.026 -0.6776 -0.1000 -0.7632
  559MOL0     O75360   3.610   1.863   5.993  0.3591 -0.9374 -0.3749
  559MOL0     C75361   3.531   1.802   5.894  0.4165  0.6033 -0.8202
  559MOL0     C75362   3.559   1.837   5.760  0.6028 -0.1418 -0.2549
  559MOL0     C75363   3.480   1.785   5.659 -0.2269  1.1358  0.3475
  559MOL0     C75364   3.382   1.682   5.686 -0.3466  0.0818 -0.5773
  559MOL0     O75365   3.320   1.612   5.585 -1.3318  1.0258  0.3116
  559MOL0     C75366   3.423   1.560   5.496 -0.2026  0.4982 -0.2811
  559MOL0     C75367   3.364   1.494   5.367  0.4778  0.7017  0.3710
  559MOL0     C75368   3.238   1.396   5.390 -0.0995  0.5016  0.1996
  559MOL0     C75369   3.255   1.266   5.483 -0.0322  0.3772  0.2367
  559MOL0     C75370   3.349   1.164   5.428 -0.1454 -0.0758  0.0721
  559MOL0     C75371   3.297   1.088   5.306  1.0185 -0.6036  1.2721
  559MOL0     C75372   3.400   0.990   5.259  0.1541 -0.7713  0.3504
  559MOL0     C75373   3.366   0.950   5.115  0.6809  0.7817  0.7609
  559MOL0    Cl75374   3.202   0.877   5.095  0.0098 -0.3726  0.3142
  559MOL0     C75375   3.354   1.650   5.823 -0.1328 -0.7074  0.6743
  559MOL0     C75376   3.422   1.715   5.930 -0.2299 -0.9218  0.1181
  559MOL0     O75377   3.505   2.070   5.963  0.1462  0.8029 -0.3520
  559MOL0     C75378   3.754   1.974   6.211  0.6006 -0.9202 -0.4763
  559MOL0     C75379   3.815   2.024   6.336  1.3824 -1.2971 -0.2770
  559MOL0     N75380   3.936   2.508   6.988 -0.2475  0.0207  0.8061
  559MOL0     N75381   3.929   2.563   7.100  0.8932  0.1026 -0.2657
  559MOL0     C75382   2.724   2.426   7.579 -0.0392  0.4719  0.2923
  559MOL0     C75383   2.586   2.439   7.586 -0.8869  0.3762  0.0989
  559MOL0     C75384   2.202   2.521   7.632  0.4636  1.1358 -1.0659
  559MOL0     C75385   2.143   2.461   7.523 -0.1229 -0.1425 -0.2115
  559MOL0     C75386   2.016   2.397   7.531 -0.5189 -0.8631 -0.0888
  559MOL0     C75387   1.947   2.399   7.647  0.1460  0.0947 -0.7655
  559MOL0     O75388   1.818   2.350   7.650 -1.3918 -0.6833 -0.2144
  559MOL0     C75389   1.764   2.268   7.757 -0.2429 -0.7087 -0.1463
  559MOL0     C75390   1.620   2.290   7.779 -0.1473 -0.7366 -0.4750
  559MOL0     C75391   1.590   2.430   7.826 -0.0928 -0.3429  0.2842
  559MOL0     C75392   1.437   2.429   7.850  0.2824 -0.7354  0.1932
  559MOL0     C75393   1.378   2.563   7.822 -0.0018 -0.2943  0.2234
  559MOL0     C75394   1.309   2.650   7.772  0.2557  0.4533 -0.4611
  559MOL0     C75395   1.998   2.461   7.761 -0.2306  0.2445 -0.3208
  559MOL0     C75396   2.130   2.518   7.760  0.5274  0.1048 -0.2077
  559MOL0     C75397   2.187   2.569   7.895 -0.2472  0.1555 -0.3582
  559MOL0     H75398   2.555   2.662   7.316  0.3681  1.6997  1.4463
  559MOL0     H75399   2.777   2.595   7.279  0.2538 -0.7307 -0.4394
  559MOL0     H75400   2.991   2.543   7.317  2.8828 -1.5716 -1.2739
  559MOL0     H75401   3.052   2.624   7.457 -2.5729  1.2842  0.1743
  559MOL0     H75402   3.212   2.489   7.311  1.0825 -2.1658 -1.3427
  559MOL0     H75403   3.145   2.340   7.374  2.1738 -0.2116  1.0072
  559MOL0     H75404   3.255   2.357   7.576  4.4965  0.7952  1.0212
  559MOL0     H75405   3.190   2.515   7.606 -0.9603  2.0338 -1.5298
  559MOL0     H75406   3.368   2.596   7.443 -3.3286 -0.9027 -1.9131
  559MOL0     H75407   3.429   2.570   7.599 -0.4404  1.8641 -0.4989
  559MOL0     H75408   3.485   2.336   7.521 -2.1173  0.9225  0.8778
  559MOL0     H75409   3.439   2.373   7.355  1.8299 -3.2447  0.3659
  559MOL0     H75410   3.598   2.569   7.346 -0.3188  0.1312  0.2466
  559MOL0     H75411   3.656   2.503   7.512 -4.7243 -2.8422  2.8514
  559MOL0     H75412   3.670   2.410   7.219  0.4611 -1.1456 -1.7946
  559MOL0     H75413   3.668   2.306   7.340 -2.5639  1.3418  1.7523
  559MOL0     H75414   3.846   2.554   7.369  0.2295 -1.6699  2.7468
  559MOL0     H75415   3.924   2.392   7.389  4.6048  2.2520 -1.7187
  559MOL0     H75416   3.959   2.248   7.163 -2.6950  0.5446  1.0619
  559MOL0     H75417   4.104   2.294   6.850  0.3817 -1.9993 -0.2215
  559MOL0     H75418   4.030   2.178   6.950 -0.7983 -0.3817 -0.2421
  559MOL0     H75419   3.810   2.234   6.822  0.0308  0.9757  0.1961
  559MOL0     H75420   3.910   2.345   6.727 -1.7260  1.2687  1.9132
  559MOL0     H75421   3.949   2.040   6.805 -1.5524  1.8497 -0.1470
  559MOL0     H75422   4.033   2.118   6.674  1.5298  1.4507  1.1288
  559MOL0     H75423   3.727   2.061   6.688 -0.6559  1.2264  0.1901
  559MOL0     H75424   3.863   1.989   6.589  4.3409  1.0814  1.7869
  559MOL0     H75425   3.620   2.293   6.387  0.7555 -1.0067  1.5620
  559MOL0     H75426   3.523   2.224   6.178  0.9176  1.7246  0.7682
  559MOL0     H75427   3.631   1.911   5.726  0.8705 -0.9904 -1.6404
  559MOL0     H75428   3.507   1.805   5.556 -1.9535 -3.2585 -1.1795
  559MOL0     H75429   3.496   1.635   5.466 -0.1257  0.0568 -1.2567
  559MOL0     H75430   3.485   1.484   5.543 -1.0318 -0.0396 -0.0275
  559MOL0     H75431   3.337   1.568   5.291  1.1648 -1.6438 -2.3430
  559MOL0     H75432   3.432   1.422   5.320 -0.1282 -1.7582  3.0101
  559MOL0     H75433   3.159   1.459   5.432  2.9866  4.2882  0.8457
  559MOL0     H75434   3.201   1.362   5.293 -3.3570 -0.5175  1.6435
  559MOL0     H75435   3.165   1.206   5.497  0.6264 -1.0158 -1.1312
  559MOL0     H75436   3.291   1.312   5.575 -1.0798 -0.7122  1.2255
  559MOL0     H75437   3.387   1.095   5.504  0.9748  2.8037  2.3066
  559MOL0     H75438   3.436   1.210   5.381  0.0234 -0.1773  0.2880
  559MOL0     H75439   3.207   1.031   5.333  0.1991  1.4407  3.3183
  559MOL0     H75440   3.273   1.152   5.221  0.2680 -1.0645  1.1300
  559MOL0     H75441   3.395   0.897   5.316 -0.4162 -2.0195 -1.6169
  559MOL0     H75442   3.497   1.042   5.265 -0.5451  0.8683 -1.4591
  559MOL0     H75443   3.383   1.040   5.056  1.5469  1.3568  1.8628
  559MOL0     H75444   3.448   0.887   5.080  1.4545  3.0034 -1.8098
  559MOL0     H75445   3.277   1.574   5.836 -1.6097 -0.1019 -3.1196
  559MOL0     H75446   3.407   1.693   6.035  0.2226 -3.6204 -0.3187
  559MOL0     H75447   3.796   1.886   6.165  2.3850 -1.1474  1.4404
  559MOL0     H75448   3.886   1.958   6.385  0.7392 -1.5152  0.3723
  559MOL0     H75449   2.781   2.366   7.650  0.5687 -1.1894 -1.5081
  559MOL0     H75450   2.529   2.395   7.667  1.2903 -1.5360  0.6632
  559MOL0     H75451   2.191   2.454   7.427 -2.0311  2.0880 -1.4251
  559MOL0     H75452   1.969   2.351   7.445 -1.1220  1.6883 -1.2112
  559MOL0     H75453   1.812   2.278   7.854 -0.3306  1.1547 -0.2697
  559MOL0     H75454   1.783   2.162   7.736  2.5215 -0.2641 -0.1369
  559MOL0     H75455   1.581   2.217   7.851 -2.2901  1.9291  1.2941
  559MOL0     H75456   1.564   2.290   7.685  0.7248 -0.0750 -0.9983
  559MOL0     H75457   1.620   2.494   7.741  1.5402 -2.3819 -0.7627
  559MOL0     H75458   1.650   2.467   7.910  0.3326 -1.4931  0.4977
  559MOL0     H75459   1.393   2.361   7.777 -0.5008  2.5336 -2.6295
  559MOL0     H75460   1.411   2.392   7.949  1.0712  0.7576  0.9856
  559MOL0     H75461   1.238   2.726   7.748  0.4632  0.7299 -0.1955
  559MOL0     H75462   1.938   2.470   7.851  0.5909 -1.1318  0.3992
  559MOL0     H75463   2.211   2.674   7.878  0.4678 -0.1134 -1.0680
  559MOL0     H75464   2.122   2.558   7.982 -0.9782 -1.1287 -1.0356
  559MOL0     H75465   2.274   2.509   7.922 -2.4228 -1.9827  2.5723
  560MOL0     O75466   4.007   6.299   1.700 -0.0424  0.0218  0.7308
  560MOL0     C75467   3.987   6.396   1.774  0.2208 -0.3475 -0.1958
  560MOL0     O75468   3.911   6.389   1.891 -0.3451  0.3786 -0.4741
  560MOL0     C75469   3.836   6.278   1.910  0.4687  0.0863 -0.1700
  560MOL0     C75470   3.764   6.212   1.810  0.0318 -0.0120  0.3561
  560MOL0     C75471   3.689   6.094   1.842 -0.3140 -1.0527  1.2689
  560MOL0     C75472   3.685   6.046   1.967 -0.3887  0.7201 -0.4884
  560MOL0     O75473   3.631   5.928   2.019  0.2019  0.0813 -0.5355
  560MOL0     C75474   3.519   5.877   1.951  0.7544 -0.3852  0.2600
  560MOL0     C75475   3.541   5.738   1.909  1.0071  0.4259  0.4089
  560MOL0     C75476   3.632   5.649   1.995 -0.0561 -0.6040 -0.5159
  560MOL0     C75477   3.653   5.517   1.916  0.3356  0.2734  0.8012
  560MOL0     C75478   3.553   5.399   1.948  0.0060  0.4529  0.9885
  560MOL0     C75479   3.627   5.268   1.942 -0.1452  0.3684 -0.2215
  560MOL0     C75480   3.528   5.153   1.996 -0.5832 -0.9883  0.8514
  560MOL0     C75481   3.482   5.169   2.130  0.6430  0.7446 -1.1467
  560MOL0     N75482   3.341   5.192   2.149 -0.6947 -0.6763 -0.8940
  560MOL0     C75483   3.255   5.093   2.125  0.2927 -0.2645  0.1641
  560MOL0     C75484   3.136   5.140   2.172  0.0290  0.2826 -1.1065
  560MOL0     C75485   3.000   5.073   2.163  0.0711 -0.0325  0.0705
  560MOL0     C75486   2.925   5.093   2.034 -0.4357  0.3294  0.3319
  560MOL0     C75487   2.799   5.006   2.026 -0.3540 -0.9515  0.6261
  560MOL0     C75488   2.705   5.039   1.905  1.5684 -0.5665  0.1368
  560MOL0     O75489   2.570   4.991   1.936 -0.4332  0.8903 -0.7370
  560MOL0     C75490   2.545   4.859   1.909  0.4544 -0.6454  0.3061
  560MOL0     C75491   2.624   4.775   1.823  0.0702 -0.6990  0.6369
  560MOL0     C75492   2.571   4.651   1.782 -0.2430 -1.0574  0.2512
  560MOL0     C75493   2.451   4.603   1.832  1.3884  0.2407  0.5607
  560MOL0     C75494   2.415   4.464   1.798 -0.0870  0.7365  1.0817
  560MOL0     O75495   2.497   4.386   1.717  0.8581  0.3545 -0.9342
  560MOL0     C75496   2.471   4.251   1.715 -0.3095 -0.5865 -0.2780
  560MOL0     C75497   2.564   4.159   1.755 -0.4607  0.7072  0.0452
  560MOL0     C75498   2.556   4.029   1.717  0.9148 -0.1491  0.4789
  560MOL0     C75499   2.461   3.982   1.624 -0.9995  0.2145  0.6083
  560MOL0     O75500   2.453   3.852   1.582 -0.2052 -0.1334  0.8024
  560MOL0     C75501   2.563   3.755   1.592  0.1823 -1.4720  0.0417
  560MOL0     C75502   2.521   3.636   1.669 -0.0485 -0.2861 -0.5601
  560MOL0     C75503   2.643   3.537   1.672  0.2131  0.6101 -0.8952
  560MOL0     C75504   2.592   3.392   1.710  0.3779 -0.6035 -0.7239
  560MOL0     C75505   2.557   3.381   1.860  0.2656  0.2252 -1.2809
  560MOL0     C75506   2.457   3.264   1.903  0.0808 -0.9687 -0.3116
  560MOL0     C75507   2.441   3.258   2.054 -0.6836 -0.8893  0.6792
  560MOL0     C75508   2.351   3.374   2.112  0.1520 -0.6800  0.0923
  560MOL0    Cl75509   2.409   3.415   2.279  0.4195 -0.3832  0.3272
  560MOL0     C75510   2.370   4.077   1.572 -1.2538  0.9407 -0.3840
  560MOL0     C75511   2.373   4.205   1.620 -0.7404 -0.1638  0.2296
  560MOL0     O75512   2.303   4.433   1.831  0.0690  0.0106 -0.1356
  560MOL0     C75513   2.375   4.694   1.901 -0.6034 -0.0673  0.0586
  560MOL0     C75514   2.419   4.820   1.941  0.4700 -1.5752 -0.3933
  560MOL0     N75515   3.153   5.266   2.222  0.2292 -0.2342 -0.3477
  560MOL0     N75516   3.280   5.304   2.201  0.6860  0.1581 -1.1514
  560MOL0     C75517   3.754   6.117   2.067 -0.0490  0.8376 -0.1094
  560MOL0     C75518   3.834   6.228   2.044  0.1311 -1.3253 -0.0112
  560MOL0     C75519   4.021   6.537   1.731 -0.2170  0.5012 -0.1907
  560MOL0     C75520   4.022   6.640   1.827 -0.0351  1.0181 -0.5578
  560MOL0     C75521   4.032   6.777   1.786 -0.4495  0.6245  0.2655
  560MOL0     C75522   4.034   6.813   1.651 -1.1860  0.2067  0.2464
  560MOL0     O75523   4.047   6.946   1.618 -0.4411 -1.3779 -1.1907
  560MOL0     C75524   3.976   6.987   1.499  0.0394  0.1815 -0.2562
  560MOL0     C75525   3.956   7.138   1.503  1.0549 -0.4431  0.6268
  560MOL0     C75526   3.835   7.175   1.598  0.5496  0.0874 -0.7993
  560MOL0     C75527   3.823   7.328   1.619  0.8561 -0.2972 -0.0363
  560MOL0     C75528   3.958   7.387   1.641 -0.4929  0.8500 -0.3968
  560MOL0     C75529   4.063   7.444   1.650  0.0778 -0.1097 -0.4364
  560MOL0     C75530   4.032   6.712   1.555  1.1602 -0.4332  0.3477
  560MOL0     C75531   4.017   6.576   1.591  0.5278 -0.9585 -0.0313
  560MOL0     C75532   3.983   6.480   1.480 -0.6042 -1.3602 -0.1163
  560MOL0     H75533   3.761   6.250   1.709 -0.0855  1.0388  0.7450
  560MOL0     H75534   3.638   6.035   1.766  0.4355  0.8819 -0.8770
  560MOL0     H75535   3.436   5.877   2.022 -0.2549  3.1235 -0.7397
  560MOL0     H75536   3.479   5.946   1.876  0.1242  0.3309  1.2253
  560MOL0     H75537   3.582   5.740   1.807 -1.3396  1.5077 -0.5744
  560MOL0     H75538   3.448   5.681   1.909  1.4656 -0.3707 -0.9852
  560MOL0     H75539   3.594   5.638   2.097  0.7538  2.5592  0.2247
  560MOL0     H75540   3.728   5.695   2.015 -0.9279  1.1435 -0.1755
  560MOL0     H75541   3.646   5.530   1.808  0.8095 -2.2803  0.3869
  560MOL0     H75542   3.757   5.492   1.937  2.3536  2.2308 -4.9743
  560MOL0     H75543   3.511   5.406   2.049 -1.0761 -4.6150  1.1511
  560MOL0     H75544   3.466   5.410   1.882 -1.7574 -4.2037  2.1330
  560MOL0     H75545   3.663   5.245   1.841 -0.9846 -0.7533 -0.2829
  560MOL0     H75546   3.712   5.272   2.011 -1.0875  0.2571  0.9658
  560MOL0     H75547   3.579   5.057   1.984  1.0149 -0.0331 -0.2999
  560MOL0     H75548   3.442   5.163   1.928  0.1059 -1.9187 -0.1922
  560MOL0     H75549   3.491   5.073   2.182  0.2585  0.5060 -1.5067
  560MOL0     H75550   3.547   5.233   2.190  0.0043 -0.5237  1.0495
  560MOL0     H75551   3.276   5.000   2.073 -1.7591 -2.1054  2.4176
  560MOL0     H75552   3.005   4.965   2.180  2.3078  0.3836  2.6488
  560MOL0     H75553   2.948   5.118   2.248 -1.1299 -0.1777 -0.5591
  560MOL0     H75554   2.879   5.192   2.033 -1.0137  0.0711 -1.1972
  560MOL0     H75555   2.991   5.085   1.948 -0.9546 -2.9518  0.0899
  560MOL0     H75556   2.737   5.015   2.116  0.9288 -0.9550  1.5513
  560MOL0     H75557   2.825   4.900   2.022 -0.0995 -0.8546 -0.5478
  560MOL0     H75558   2.739   5.007   1.806 -1.6959 -0.9640 -0.9787
  560MOL0     H75559   2.675   5.144   1.902 -3.4565 -1.7224 -0.9170
  560MOL0     H75560   2.724   4.807   1.795 -0.1714  1.4212  2.0290
  560MOL0     H75561   2.627   4.580   1.721 -1.7568  0.0644 -2.6828
  560MOL0     H75562   2.649   4.189   1.815 -0.9380 -0.8079  1.5592
  560MOL0     H75563   2.639   3.967   1.750  1.4949  1.0323  1.3256
  560MOL0     H75564   2.586   3.734   1.487 -2.6524  2.8493 -1.7027
  560MOL0     H75565   2.652   3.797   1.639 -0.8206 -0.4396  1.0682
  560MOL0     H75566   2.496   3.668   1.770 -2.3896 -0.7367 -0.9455
  560MOL0     H75567   2.434   3.596   1.617 -2.4663  2.6691  0.9214
  560MOL0     H75568   2.701   3.532   1.580  1.6013  0.1340 -0.0223
  560MOL0     H75569   2.711   3.565   1.753  0.2234 -0.3992 -0.5356
  560MOL0     H75570   2.675   3.325   1.684  0.8656  0.0714 -0.9377
  560MOL0     H75571   2.502   3.376   1.651 -0.6619  1.9639  0.0394
  560MOL0     H75572   2.519   3.478   1.893  0.6305  0.8928 -2.7163
  560MOL0     H75573   2.651   3.362   1.912 -0.4823  2.9032  1.3245
  560MOL0     H75574   2.357   3.283   1.864  1.1079  2.1511 -1.7433
  560MOL0     H75575   2.494   3.167   1.868  0.5799 -2.4564  3.7644
  560MOL0     H75576   2.541   3.272   2.096  0.6122 -1.6290 -1.9368
  560MOL0     H75577   2.384   3.169   2.081 -0.2937 -1.8626 -1.4848
  560MOL0     H75578   2.365   3.457   2.043  3.3261 -2.5575 -1.8056
  560MOL0     H75579   2.247   3.344   2.131  0.6359 -1.0603  2.5495
  560MOL0     H75580   2.294   4.056   1.497 -0.4034  0.4010 -1.1157
  560MOL0     H75581   2.289   4.267   1.591  1.2507  1.9401 -1.4645
  560MOL0     H75582   2.276   4.656   1.924 -0.2435 -1.3208 -0.3558
  560MOL0     H75583   2.364   4.894   1.998  4.1820  2.6026 -1.6464
  560MOL0     H75584   3.751   6.093   2.173  0.4805  1.2534  0.0076
  560MOL0     H75585   3.891   6.287   2.116 -0.3625 -0.5740 -0.2244
  560MOL0     H75586   3.996   6.609   1.928 -1.2756 -1.5065 -1.5645
  560MOL0     H75587   4.024   6.857   1.859 -1.0499 -0.2924  1.2308
  560MOL0     H75588   3.875   6.946   1.495  0.4159 -1.3605  2.9451
  560MOL0     H75589   4.030   6.946   1.413 -2.8724 -1.0216 -1.6167
  560MOL0     H75590   3.926   7.195   1.414  0.7732 -3.1336 -1.1390
  560MOL0     H75591   4.052   7.183   1.528  1.0826 -0.5490  0.7122
  560MOL0     H75592   3.851   7.119   1.690 -3.8332  1.0673  0.7707
  560MOL0     H75593   3.739   7.128   1.573 -0.2343  1.2149  0.0400
  560MOL0     H75594   3.764   7.378   1.542 -1.5504 -0.7947  1.3916
  560MOL0     H75595   3.765   7.347   1.709  1.5985 -1.1826  0.6457
  560MOL0     H75596   4.145   7.510   1.669 -2.0422  2.0107  2.1556
  560MOL0     H75597   4.038   6.739   1.450  3.3955  0.2662  0.5915
  560MOL0     H75598   4.068   6.413   1.467  2.9868  2.6249  0.7817
  560MOL0     H75599   3.889   6.426   1.496 -0.1877 -2.0612  0.0139
  560MOL0     H75600   3.969   6.519   1.379 -3.8266 -2.6650 -0.3231
  561MOL0     O75601   5.980   1.057   1.515  0.1070  0.2243  0.2310
  561MOL0     C75602   5.930   0.947   1.531  0.1155  0.2357 -0.1119
  561MOL0     O75603   5.827   0.927   1.618  0.6087 -0.1263 -0.1069
  561MOL0     C75604   5.753   1.044   1.638 -0.5122 -0.1384  0.4895
  561MOL0     C75605   5.758   1.091   1.770  1.4629 -0.0731  0.1343
  561MOL0     C75606   5.693   1.216   1.806 -0.2426 -0.2287 -1.0052
  561MOL0     C75607   5.629   1.286   1.713  1.0007  0.0939  0.8199
  561MOL0     O75608   5.582   1.417   1.735  0.0982 -0.3930  0.5670
  561MOL0     C75609   5.641   1.499   1.834  0.4529 -0.1197 -0.9542
  561MOL0     C75610   5.597   1.644   1.823 -0.0832 -0.0661  0.5538
  561MOL0     C75611   5.448   1.657   1.858  0.2591  0.4149  0.0124
  561MOL0     C75612   5.433   1.802   1.900 -0.9210  0.0785 -0.6360
  561MOL0     C75613   5.284   1.840   1.925  0.0020  0.4644  0.4409
  561MOL0     C75614   5.267   1.991   1.940 -0.5216  0.7179  0.6591
  561MOL0     C75615   5.115   2.036   1.907 -0.5979  1.2490  0.3049
  561MOL0     C75616   5.102   2.180   1.873 -0.0855 -0.1066  0.1245
  561MOL0     N75617   5.179   2.222   1.754  0.3484 -0.2150 -0.0611
  561MOL0     C75618   5.303   2.276   1.749 -0.3598 -0.5154  0.8472
  561MOL0     C75619   5.327   2.293   1.617 -0.7740 -0.8024  0.1813
  561MOL0     C75620   5.433   2.387   1.562 -1.0962 -0.5421  0.3428
  561MOL0     C75621   5.579   2.319   1.563 -0.8546 -0.4126  0.3337
  561MOL0     C75622   5.619   2.309   1.408  0.1416 -0.4971 -0.1160
  561MOL0     C75623   5.757   2.240   1.381  0.1451 -0.9068 -0.5147
  561MOL0     O75624   5.792   2.233   1.243  0.3782 -0.3072  0.1210
  561MOL0     C75625   5.700   2.163   1.168 -0.0166 -0.6996  0.2822
  561MOL0     C75626   5.633   2.217   1.062  0.8583 -0.3868  0.4863
  561MOL0     C75627   5.566   2.140   0.971  0.0454 -0.0220 -0.3844
  561MOL0     C75628   5.529   1.999   1.004  0.7105 -0.4871 -0.1660
  561MOL0     C75629   5.452   1.911   0.924  0.2800 -0.1201  0.0058
  561MOL0     O75630   5.438   1.783   0.979 -0.4285 -0.2574 -0.4497
  561MOL0     C75631   5.333   1.699   0.956 -0.0912 -0.2983 -0.1675
  561MOL0     C75632   5.207   1.748   0.904 -1.0337 -0.6889 -0.3591
  561MOL0     C75633   5.097   1.660   0.880 -0.3335 -0.8665 -0.7074
  561MOL0     C75634   5.112   1.529   0.927 -0.9034  0.4834  0.4343
  561MOL0     O75635   5.012   1.436   0.911 -0.6454  0.3343 -0.8254
  561MOL0     C75636   5.050   1.320   0.827 -0.4955  0.2360  0.3425
  561MOL0     C75637   4.953   1.209   0.840 -0.0242  1.1947  0.1078
  561MOL0     C75638   4.971   1.129   0.973  1.1286  0.4002 -0.5199
  561MOL0     C75639   4.861   1.028   0.988  0.0899 -0.5117 -0.1759
  561MOL0     C75640   4.912   0.887   1.038 -0.1993  0.9071 -0.0452
  561MOL0     C75641   4.803   0.778   1.087  0.4266 -0.4425  0.0568
  561MOL0     C75642   4.885   0.651   1.120  0.5681  0.0783 -0.0778
  561MOL0     C75643   4.792   0.523   1.128 -0.5799  0.9069 -0.3469
  561MOL0    Cl75644   4.642   0.545   1.233 -0.0537 -0.3192  0.6003
  561MOL0     C75645   5.229   1.486   0.985  0.4179 -0.7776 -0.2496
  561MOL0     C75646   5.337   1.571   1.006 -0.0425  0.8905 -0.3615
  561MOL0     O75647   5.414   1.945   0.815  0.0908 -0.2522 -0.4579
  561MOL0     C75648   5.582   1.947   1.128  1.1405 -0.2814 -0.7654
  561MOL0     C75649   5.669   2.031   1.197 -0.3999 -0.1430 -0.3803
  561MOL0     N75650   5.223   2.228   1.544  0.0190 -0.8132 -0.3884
  561MOL0     N75651   5.140   2.193   1.628 -0.3946 -0.6707  0.7614
  561MOL0     C75652   5.624   1.242   1.579  0.9033 -0.1723 -0.3141
  561MOL0     C75653   5.681   1.122   1.545 -0.0054  0.1286  0.2684
  561MOL0     C75654   5.998   0.829   1.462  0.1456  0.1892 -1.0908
  561MOL0     C75655   5.952   0.703   1.504  0.2952  0.0494 -0.7588
  561MOL0     C75656   6.009   0.586   1.456  0.2458  0.9895  0.5334
  561MOL0     C75657   6.100   0.588   1.349  0.4024 -0.6678  0.6268
  561MOL0     O75658   6.154   0.466   1.320 -0.8753 -0.0835  0.6995
  561MOL0     C75659   6.203   0.446   1.186 -0.3718  1.4478  0.3147
  561MOL0     C75660   6.158   0.304   1.150 -0.1661 -0.6753 -0.5082
  561MOL0     C75661   6.001   0.296   1.158 -0.9063  0.3140  0.1365
  561MOL0     C75662   5.944   0.199   1.055  0.2337  0.6144  0.2330
  561MOL0     C75663   5.944   0.252   0.918 -0.0865  1.5493  0.0473
  561MOL0     C75664   5.933   0.301   0.812 -0.5017 -0.5892 -1.2668
  561MOL0     C75665   6.150   0.713   1.301 -0.7732 -0.7465 -0.3501
  561MOL0     C75666   6.101   0.827   1.359  0.6450 -0.4105 -0.7609
  561MOL0     C75667   6.142   0.961   1.293  0.5807  0.2353 -0.3518
  561MOL0     H75668   5.824   1.043   1.842  0.1865  0.5455  1.7912
  561MOL0     H75669   5.711   1.253   1.907 -1.2394  0.4420 -1.0547
  561MOL0     H75670   5.615   1.471   1.936  0.5229  2.1140 -0.2784
  561MOL0     H75671   5.750   1.493   1.834  0.6430  1.9893  0.6157
  561MOL0     H75672   5.618   1.676   1.721  1.0756 -1.4469  0.3306
  561MOL0     H75673   5.658   1.715   1.880  1.9939  1.2186 -2.9324
  561MOL0     H75674   5.417   1.582   1.930  3.7128 -1.4862 -0.2478
  561MOL0     H75675   5.392   1.632   1.767 -2.4259  1.5679  1.2519
  561MOL0     H75676   5.503   1.832   1.979 -1.4340  0.3016 -0.2650
  561MOL0     H75677   5.473   1.864   1.819 -0.4515  1.0219  0.2914
  561MOL0     H75678   5.239   1.828   1.827  0.8562 -0.4435  0.1409
  561MOL0     H75679   5.234   1.778   2.001  1.0298 -1.2660 -0.2237
  561MOL0     H75680   5.289   2.001   2.047 -0.2768 -3.0330  1.0924
  561MOL0     H75681   5.329   2.050   1.873  0.6276 -2.0220 -0.8617
  561MOL0     H75682   5.054   1.996   1.989  0.5284 -3.2732 -0.7633
  561MOL0     H75683   5.076   1.979   1.823  0.7075 -1.3726  1.3520
  561MOL0     H75684   5.000   2.198   1.839  0.2340  0.5757 -0.5126
  561MOL0     H75685   5.127   2.244   1.958  2.7205 -1.5924  0.5534
  561MOL0     H75686   5.355   2.309   1.839  0.7639  0.9680 -0.2837
  561MOL0     H75687   5.386   2.401   1.464 -0.2595  0.0254  0.0120
  561MOL0     H75688   5.425   2.479   1.622 -2.3200  0.7106 -1.6324
  561MOL0     H75689   5.645   2.376   1.629  1.0989 -0.3431 -1.5544
  561MOL0     H75690   5.576   2.219   1.605 -0.0941 -1.0207 -1.0171
  561MOL0     H75691   5.626   2.418   1.398 -1.5760 -0.5052 -2.1339
  561MOL0     H75692   5.537   2.269   1.347 -0.2558 -3.8729  2.3900
  561MOL0     H75693   5.749   2.137   1.415 -2.4699 -1.3255 -2.1114
  561MOL0     H75694   5.827   2.294   1.445 -1.3065  0.9146 -0.3746
  561MOL0     H75695   5.657   2.322   1.046  2.8012 -0.9732 -0.7170
  561MOL0     H75696   5.531   2.186   0.879  2.0696  3.9189  0.6226
  561MOL0     H75697   5.193   1.856   0.909 -0.7853 -0.7064  1.6349
  561MOL0     H75698   4.999   1.691   0.846  0.1463  1.6074 -0.0189
  561MOL0     H75699   5.052   1.339   0.719  0.2691  0.3358  0.3683
  561MOL0     H75700   5.152   1.291   0.854 -0.2875  0.0440 -0.6314
  561MOL0     H75701   4.855   1.257   0.838 -1.1035 -0.9206 -1.8053
  561MOL0     H75702   4.966   1.136   0.760  0.0591 -0.2347  1.3825
  561MOL0     H75703   5.065   1.076   0.957  1.2162  0.4379 -0.1237
  561MOL0     H75704   4.981   1.193   1.061 -0.6607 -0.0468  0.0546
  561MOL0     H75705   4.810   1.008   0.893 -0.0105 -1.3744  0.0438
  561MOL0     H75706   4.790   1.081   1.053  1.1034  1.4091 -0.5674
  561MOL0     H75707   4.972   0.913   1.126 -1.0712 -0.4927  0.9987
  561MOL0     H75708   4.974   0.843   0.959  0.0042  1.0738  0.0197
  561MOL0     H75709   4.738   0.815   1.166  0.9293  1.3506 -0.3296
  561MOL0     H75710   4.741   0.749   1.002  0.7470 -1.3579  0.1197
  561MOL0     H75711   4.933   0.674   1.216  1.0642  0.2344 -0.3627
  561MOL0     H75712   4.961   0.627   1.045 -0.7660 -1.6539 -0.9627
  561MOL0     H75713   4.755   0.501   1.027  0.9702  0.7099 -0.9041
  561MOL0     H75714   4.845   0.434   1.166 -2.1236  1.6503  4.1431
  561MOL0     H75715   5.231   1.391   1.038  1.6189 -0.8800 -0.4713
  561MOL0     H75716   5.431   1.545   1.053  0.9572  0.4979 -2.4911
  561MOL0     H75717   5.563   1.845   1.163 -2.7247 -0.0811 -1.7714
  561MOL0     H75718   5.730   1.993   1.279  0.3469  0.8578 -0.4592
  561MOL0     H75719   5.572   1.302   1.505  0.8423 -0.1216 -0.2305
  561MOL0     H75720   5.687   1.093   1.441 -3.6724  0.2467 -0.0835
  561MOL0     H75721   5.882   0.701   1.587  4.2156 -0.1752  2.8899
  561MOL0     H75722   5.964   0.498   1.502 -1.5085 -0.5760 -3.6845
  561MOL0     H75723   6.311   0.448   1.169 -0.4251  0.5552 -0.2198
  561MOL0     H75724   6.156   0.516   1.117  1.8379  1.9995 -0.7247
  561MOL0     H75725   6.216   0.230   1.206  1.6766 -2.6393 -4.6303
  561MOL0     H75726   6.177   0.285   1.044 -1.7345 -2.3263 -0.5501
  561MOL0     H75727   5.955   0.393   1.138  0.3881  0.9549  0.2028
  561MOL0     H75728   5.968   0.260   1.257  0.1568 -0.5907  0.1776
  561MOL0     H75729   6.007   0.109   1.053  0.4415  0.7229 -2.7949
  561MOL0     H75730   5.841   0.182   1.087  0.8331 -3.2228  0.6565
  561MOL0     H75731   5.915   0.340   0.714 -1.8864 -0.3463 -0.9324
  561MOL0     H75732   6.229   0.716   1.228  0.4010 -1.2058  0.8557
  561MOL0     H75733   6.142   0.935   1.187  0.1685 -2.8276  0.3156
  561MOL0     H75734   6.059   1.031   1.303 -2.4228 -2.9800 -1.2118
  561MOL0     H75735   6.241   0.997   1.324  1.6453 -2.3515 -0.5200
  562MOL0     O75736   9.419   2.165   9.697 -0.1665 -0.5296 -0.2329
  562MOL0     C75737   9.399   2.271   9.642 -0.4223 -0.5023 -0.4030
  562MOL0     O75738   9.455   2.391   9.678  1.0188 -0.2209 -0.6111
  562MOL0     C75739   9.579   2.401   9.728 -0.7262  0.6264 -0.1058
  562MOL0     C75740   9.658   2.498   9.672 -1.4883 -0.9594  0.2682
  562MOL0     C75741   9.791   2.517   9.704  0.5909 -0.3539 -0.4585
  562MOL0     C75742   9.842   2.442   9.807 -0.4230 -0.6299  0.0459
  562MOL0     O75743   9.975   2.434   9.855  1.3346  1.0434  0.3376
  562MOL0     C75744  10.076   2.508   9.791  0.2370 -0.0705 -0.5788
  562MOL0     C75745  10.134   2.453   9.660  0.2409 -0.0642  0.0190
  562MOL0     C75746  10.197   2.321   9.684 -0.7930  0.3958  0.3302
  562MOL0     C75747  10.263   2.265   9.554  0.0980 -0.1891 -0.6830
  562MOL0     C75748  10.351   2.141   9.575  0.7729 -0.1377  0.8948
  562MOL0     C75749  10.251   2.023   9.606 -0.3750  0.3563  0.1684
  562MOL0     C75750  10.309   1.879   9.582 -0.1617  0.7424  0.2378
  562MOL0     C75751  10.291   1.836   9.429 -0.0337 -1.1755  0.6258
  562MOL0     N75752  10.422   1.826   9.366 -0.5502 -0.0059 -0.0579
  562MOL0     C75753  10.469   1.713   9.315 -1.4356 -0.1526  0.6233
  562MOL0     C75754  10.590   1.729   9.266 -1.0467  0.0175 -0.0724
  562MOL0     C75755  10.674   1.611   9.210  0.7950 -0.1050  0.3887
  562MOL0     C75756  10.821   1.582   9.257 -0.4392 -0.1097  1.1769
  562MOL0     C75757  10.839   1.555   9.405 -0.6182 -0.5108 -1.0148
  562MOL0     C75758  10.795   1.412   9.438  0.5598 -0.0538 -0.4044
  562MOL0     O75759  10.809   1.374   9.578  0.1343  0.2062  0.1979
  562MOL0     C75760  10.738   1.428   9.681  0.1071 -0.5478 -0.4371
  562MOL0     C75761  10.797   1.415   9.806 -0.1253 -0.5189 -0.9581
  562MOL0     C75762  10.734   1.479   9.917 -0.2497  0.1104 -0.9319
  562MOL0     C75763  10.600   1.529   9.906  0.6930  0.4693  0.1895
  562MOL0     C75764  10.545   1.608  10.009 -0.1385 -0.3733 -0.1322
  562MOL0     O75765  10.619   1.624  10.121  0.0235 -0.7438 -0.5224
  562MOL0     C75766  10.570   1.652  10.253 -0.4641  0.7898  0.6273
  562MOL0     C75767  10.656   1.691  10.345 -0.6156  0.2509 -0.0895
  562MOL0     C75768  10.606   1.698  10.477 -0.9232  0.8228 -0.5913
  562MOL0     C75769  10.477   1.662  10.508  0.2306  0.1228 -0.4241
  562MOL0     O75770  10.454   1.677  10.642  0.3069  0.2994 -0.3445
  562MOL0     C75771  10.322   1.662  10.688  0.1267  0.5293 -0.6837
  562MOL0     C75772  10.334   1.669  10.848 -0.0367 -0.6520  0.3706
  562MOL0     C75773  10.363   1.815  10.888 -0.2313 -0.1740 -0.0585
  562MOL0     C75774  10.447   1.827  11.025 -0.2348 -0.3446 -0.3874
  562MOL0     C75775  10.489   1.970  11.060 -0.0902  0.3752 -0.0396
  562MOL0     C75776  10.378   2.075  11.062  0.8294 -1.1958  0.6228
  562MOL0     C75777  10.256   2.038  11.160 -0.4380 -0.2924  0.8743
  562MOL0     C75778  10.169   2.162  11.174  0.2780 -0.4536 -0.3616
  562MOL0    Cl75779  10.110   2.242  11.022 -0.4825 -0.0853 -0.1711
  562MOL0     C75780  10.389   1.624  10.407  0.6707  0.1714  0.2158
  562MOL0     C75781  10.436   1.620  10.279 -0.9328  0.3966 -0.1138
  562MOL0     O75782  10.431   1.646   9.984 -0.3575  0.2080 -0.3266
  562MOL0     C75783  10.540   1.516   9.781 -0.4070  0.3168  0.2597
  562MOL0     C75784  10.606   1.476   9.667 -0.0299 -0.0220 -0.6296
  562MOL0     N75785  10.620   1.857   9.299  0.0745 -0.1439 -0.1431
  562MOL0     N75786  10.521   1.922   9.354  0.0516 -0.1164  0.2756
  562MOL0     C75787   9.759   2.345   9.880 -1.0693 -0.1023 -0.3364
  562MOL0     C75788   9.623   2.325   9.834 -0.0819  0.5885 -0.3906
  562MOL0     C75789   9.311   2.269   9.522  0.3657 -0.3817 -0.6157
  562MOL0     C75790   9.198   2.174   9.527 -0.1214 -0.2359 -0.0140
  562MOL0     C75791   9.112   2.154   9.417 -0.0185  0.6583  0.0231
  562MOL0     C75792   9.145   2.223   9.301 -0.4354 -1.3088  0.7329
  562MOL0     O75793   9.054   2.226   9.200  0.2178 -0.2796 -0.3510
  562MOL0     C75794   9.026   2.353   9.131 -0.2759 -0.8179  0.3622
  562MOL0     C75795   8.880   2.387   9.139  0.0120  0.2083  0.3852
  562MOL0     C75796   8.850   2.532   9.093  0.3797  0.7022 -0.4053
  562MOL0     C75797   8.903   2.567   8.956 -0.3096 -0.9191  0.0984
  562MOL0     C75798   8.851   2.478   8.853 -0.0619 -1.1755 -0.5685
  562MOL0     C75799   8.783   2.403   8.787  0.3044  0.0766 -0.2882
  562MOL0     C75800   9.253   2.319   9.300 -0.6234 -0.1623 -0.1064
  562MOL0     C75801   9.339   2.347   9.406 -0.5005  0.7401 -0.1007
  562MOL0     C75802   9.462   2.437   9.399  0.0003  0.6262  1.3282
  562MOL0     H75803   9.624   2.556   9.587 -1.8502 -2.6491 -0.7966
  562MOL0     H75804   9.844   2.599   9.656 -2.6495  0.8469 -2.2808
  562MOL0     H75805  10.043   2.611   9.777 -2.2480 -0.4573  1.5716
  562MOL0     H75806  10.161   2.525   9.858 -0.6151  0.5069  0.3839
  562MOL0     H75807  10.197   2.531   9.618 -2.0211  1.4063 -0.8178
  562MOL0     H75808  10.046   2.443   9.596 -2.1885  1.5803  2.8419
  562MOL0     H75809  10.137   2.246   9.735 -0.4864  0.4520  0.7903
  562MOL0     H75810  10.280   2.342   9.753  0.2716  0.4458 -0.9382
  562MOL0     H75811  10.185   2.233   9.484  0.6160 -1.6719 -0.6237
  562MOL0     H75812  10.316   2.352   9.515 -0.0583 -0.0147 -0.5035
  562MOL0     H75813  10.398   2.138   9.476 -0.9677 -5.2421 -0.0801
  562MOL0     H75814  10.425   2.153   9.654  1.7311  2.0326 -0.2351
  562MOL0     H75815  10.214   2.034   9.709 -2.0349  2.3271 -0.5617
  562MOL0     H75816  10.167   2.036   9.537 -0.6991  2.7877  0.9022
  562MOL0     H75817  10.242   1.808   9.632 -0.0635 -0.9218 -1.8687
  562MOL0     H75818  10.411   1.883   9.623  0.3323  0.4602 -0.9304
  562MOL0     H75819  10.229   1.746   9.423 -1.2607 -0.2627 -1.3235
  562MOL0     H75820  10.231   1.914   9.381 -0.0763 -0.8954  1.1255
  562MOL0     H75821  10.430   1.612   9.324 -0.6378 -0.3273  2.5927
  562MOL0     H75822  10.608   1.527   9.231 -2.2899  2.2501  0.7731
  562MOL0     H75823  10.673   1.618   9.101  2.2444 -1.7805  0.2099
  562MOL0     H75824  10.858   1.499   9.197 -0.5517  0.0969  0.8188
  562MOL0     H75825  10.877   1.673   9.231  1.1086 -1.5530 -0.8151
  562MOL0     H75826  10.790   1.627   9.471  2.1875 -0.1960  0.8846
  562MOL0     H75827  10.944   1.572   9.429 -0.3995  0.1518 -2.3689
  562MOL0     H75828  10.863   1.341   9.390 -1.3757 -0.6695 -2.4175
  562MOL0     H75829  10.696   1.388   9.398 -0.4187 -0.5709  2.1797
  562MOL0     H75830  10.890   1.362   9.819  0.2082  0.2560 -0.0423
  562MOL0     H75831  10.783   1.474  10.014 -1.3127 -1.2452 -0.4274
  562MOL0     H75832  10.758   1.721  10.321 -0.4959 -0.6462 -0.7396
  562MOL0     H75833  10.671   1.718  10.561  1.6041 -1.5707 -1.8215
  562MOL0     H75834  10.260   1.745  10.653 -0.3165  0.7980  0.6639
  562MOL0     H75835  10.273   1.569  10.656 -1.5518  2.0091 -2.6341
  562MOL0     H75836  10.258   1.637  10.919  0.5038  3.1495  2.9528
  562MOL0     H75837  10.425   1.609  10.855 -0.5711 -2.1254 -3.0384
  562MOL0     H75838  10.429   1.869  10.820 -2.4522  1.8616 -0.7195
  562MOL0     H75839  10.265   1.863  10.899 -0.3320 -0.6964  1.6331
  562MOL0     H75840  10.541   1.777  11.001 -0.1371 -0.7880  0.8705
  562MOL0     H75841  10.401   1.785  11.114  0.7992  0.2704  0.4553
  562MOL0     H75842  10.562   1.988  10.981  0.4229 -0.0806  0.3226
  562MOL0     H75843  10.515   1.962  11.166 -2.8156 -3.4956  0.5579
  562MOL0     H75844  10.422   2.172  11.088 -1.5305  0.0063  0.4905
  562MOL0     H75845  10.336   2.083  10.961  0.1579 -0.3962  0.9493
  562MOL0     H75846  10.304   2.012  11.254  2.7379  3.4086  0.5436
  562MOL0     H75847  10.187   1.967  11.114  0.7086 -2.3406  2.1370
  562MOL0     H75848  10.081   2.140  11.234  2.8534  0.9292  4.3860
  562MOL0     H75849  10.225   2.231  11.236  0.0499  0.6935 -1.3933
  562MOL0     H75850  10.288   1.601  10.441  0.0388 -0.5370 -1.9858
  562MOL0     H75851  10.368   1.582  10.205 -0.0860  0.2103 -0.8132
  562MOL0     H75852  10.439   1.554   9.765 -0.2579 -0.0145 -1.7047
  562MOL0     H75853  10.571   1.492   9.565  0.7567 -0.4964 -0.9837
  562MOL0     H75854   9.810   2.287   9.956  1.0642  1.3388 -0.5874
  562MOL0     H75855   9.563   2.256   9.892 -0.4151  0.3621 -0.9915
  562MOL0     H75856   9.171   2.115   9.615 -0.1626 -0.1852  0.0078
  562MOL0     H75857   9.024   2.091   9.422  0.7128 -0.9009 -3.5324
  562MOL0     H75858   9.062   2.339   9.029 -0.5593 -2.0496  0.4156
  562MOL0     H75859   9.078   2.441   9.169  1.4336 -1.4682 -0.3707
  562MOL0     H75860   8.842   2.383   9.242 -4.4392  0.7576 -1.0046
  562MOL0     H75861   8.817   2.318   9.083  0.7681  0.5959 -0.9826
  562MOL0     H75862   8.890   2.598   9.170 -3.0365  2.6567 -0.0786
  562MOL0     H75863   8.743   2.557   9.099  0.5768  1.7124 -0.9869
  562MOL0     H75864   8.873   2.671   8.937 -0.6100  0.0104  4.5632
  562MOL0     H75865   9.012   2.572   8.952 -0.2875 -0.4918  1.0044
  562MOL0     H75866   8.711   2.345   8.732 -1.5856  1.4280  0.6280
  562MOL0     H75867   9.275   2.396   9.226  0.7913  0.2418  0.6981
  562MOL0     H75868   9.450   2.535   9.445  0.8576  1.3916 -0.0222
  562MOL0     H75869   9.548   2.379   9.433 -1.5618 -1.6592  1.6775
  562MOL0     H75870   9.476   2.458   9.293  1.1692 -1.8764  0.9119
  563MOL0     O75871   2.130   9.365   1.018 -0.7641 -0.4168  0.4929
  563MOL0     C75872   2.222   9.348   1.099 -0.0152  0.6655  0.1842
  563MOL0     O75873   2.290   9.449   1.166  1.2578  0.2052 -0.5667
  563MOL0     C75874   2.234   9.576   1.181 -0.6381 -0.7687 -0.3959
  563MOL0     C75875   2.113   9.624   1.136  0.2118 -0.3465 -0.3664
  563MOL0     C75876   2.070   9.759   1.160  0.7292  0.0869 -0.5927
  563MOL0     C75877   2.160   9.849   1.224  0.4194  0.5977  0.4332
  563MOL0     O75878   2.117   9.970   1.261 -0.2757 -0.6202  0.0115
  563MOL0     C75879   2.195  10.060   1.344  0.6488 -0.2948  0.4274
  563MOL0     C75880   2.113  10.187   1.379 -0.5624 -0.3272  0.2349
  563MOL0     C75881   2.207  10.305   1.396  0.4956  0.9823 -0.3103
  563MOL0     C75882   2.133  10.440   1.425  0.2166 -0.2073 -0.4549
  563MOL0     C75883   2.211  10.532   1.531 -0.5326  0.4349  0.0674
  563MOL0     C75884   2.352  10.576   1.492  0.0489  0.3065 -0.0733
  563MOL0     C75885   2.336  10.671   1.372  0.0087  1.0161  0.1912
  563MOL0     C75886   2.478  10.718   1.332 -0.1327  0.0349 -0.5563
  563MOL0     N75887   2.578  10.613   1.322  0.4418  0.1567 -0.3925
  563MOL0     C75888   2.604  10.541   1.201  0.1411 -0.6924  0.3467
  563MOL0     C75889   2.715  10.460   1.230  1.1430  0.1171 -0.5415
  563MOL0     C75890   2.782  10.359   1.146 -0.3219  0.6625 -0.0574
  563MOL0     C75891   2.891  10.419   1.055  0.1390  0.2775 -0.6177
  563MOL0     C75892   3.008  10.326   1.029  0.5825 -0.4497 -1.2341
  563MOL0     C75893   3.006  10.281   0.888 -0.5656 -0.0990  0.2100
  563MOL0     O75894   2.898  10.193   0.866  0.0456 -0.4738  0.0580
  563MOL0     C75895   2.918  10.091   0.772  0.2027 -1.4268  0.1135
  563MOL0     C75896   3.007  10.110   0.665 -0.1946 -0.8032 -0.0806
  563MOL0     C75897   3.014  10.011   0.568  0.2011  1.0592  0.2834
  563MOL0     C75898   2.922   9.895   0.573  0.2707  0.0459 -0.7998
  563MOL0     C75899   2.921   9.789   0.474 -0.5286 -0.1692 -0.6189
  563MOL0     O75900   2.842   9.675   0.487  0.3999 -0.2720 -0.3181
  563MOL0     C75901   2.830   9.567   0.405  0.4860 -0.0037  0.6020
  563MOL0     C75902   2.884   9.560   0.273 -0.1870 -0.3350  0.1782
  563MOL0     C75903   2.872   9.444   0.205  0.6936  0.0898 -0.0388
  563MOL0     C75904   2.804   9.329   0.253  0.3462 -0.3896 -0.6050
  563MOL0     O75905   2.791   9.210   0.200 -0.1660 -0.1454  0.4159
  563MOL0     C75906   2.846   9.182   0.072  0.2134 -0.3750  0.0028
  563MOL0     C75907   2.768   9.064   0.012  0.5768  0.4910 -0.7857
  563MOL0     C75908   2.614   9.096  -0.017  0.9584 -0.4223  0.2887
  563MOL0     C75909   2.563   8.992  -0.117  0.0479  0.3451  0.3048
  563MOL0     C75910   2.408   9.005  -0.136  0.3072  0.2926  0.5127
  563MOL0     C75911   2.349   8.912  -0.239 -0.3820  0.4427  0.2732
  563MOL0     C75912   2.424   8.780  -0.279  0.2194 -0.8852  0.4135
  563MOL0     C75913   2.327   8.687  -0.356 -0.5273 -0.3532 -0.5294
  563MOL0    Cl75914   2.189   8.641  -0.251 -0.3036 -0.2049  0.1243
  563MOL0     C75915   2.749   9.340   0.386 -0.5550 -0.6285  0.3410
  563MOL0     C75916   2.755   9.457   0.455  0.6274 -0.2238  0.7372
  563MOL0     O75917   2.994   9.815   0.381  0.4088  0.3624  0.5570
  563MOL0     C75918   2.840   9.883   0.686  0.7975 -0.8904 -0.5933
  563MOL0     C75919   2.838   9.987   0.782  0.4289 -0.3520  0.0403
  563MOL0     N75920   2.755  10.489   1.362  0.9890  0.7534  0.6183
  563MOL0     N75921   2.671  10.581   1.417  0.5076 -0.6248  0.1041
  563MOL0     C75922   2.282   9.797   1.265  0.6546 -0.0184 -0.6312
  563MOL0     C75923   2.321   9.663   1.243 -0.4731 -0.7360  0.4838
  563MOL0     C75924   2.264   9.206   1.130  0.0065 -0.2121 -0.5414
  563MOL0     C75925   2.358   9.190   1.237 -0.6555  0.4495  0.4217
  563MOL0     C75926   2.390   9.061   1.276  0.5080 -0.0302  0.7032
  563MOL0     C75927   2.351   8.948   1.200  0.0541  0.5287 -0.1555
  563MOL0     O75928   2.383   8.820   1.236 -0.8217 -0.8036 -0.3505
  563MOL0     C75929   2.525   8.791   1.220  0.2719 -0.5633 -0.2903
  563MOL0     C75930   2.566   8.699   1.343  0.3077 -0.6799 -0.1511
  563MOL0     C75931   2.717   8.675   1.336  0.0827  0.4136  0.2816
  563MOL0     C75932   2.754   8.598   1.464  0.1047  0.7020 -0.7283
  563MOL0     C75933   2.897   8.591   1.484 -1.1031  0.6161 -0.5729
  563MOL0     C75934   3.023   8.576   1.492 -1.2507 -0.8037  0.1349
  563MOL0     C75935   2.255   8.960   1.097 -0.1428  0.0186 -0.3152
  563MOL0     C75936   2.214   9.090   1.063 -0.0896 -0.1087 -0.2967
  563MOL0     C75937   2.118   9.089   0.955  0.8947 -0.6612 -0.5308
  563MOL0     H75938   2.036   9.558   1.097  1.5347 -2.4600  0.4553
  563MOL0     H75939   1.973   9.801   1.138 -0.2586 -1.6160  0.2382
  563MOL0     H75940   2.234  10.008   1.432  2.1705 -0.4580 -0.3274
  563MOL0     H75941   2.276  10.109   1.289 -0.0618  1.3571  0.7715
  563MOL0     H75942   2.040  10.174   1.459 -0.9885 -0.7788 -0.2284
  563MOL0     H75943   2.058  10.209   1.288  0.3718 -4.9674 -1.6989
  563MOL0     H75944   2.251  10.316   1.296 -0.8019  1.6524 -0.8342
  563MOL0     H75945   2.279  10.284   1.475 -1.8457  0.7698  1.8928
  563MOL0     H75946   2.106  10.493   1.332 -0.3640 -0.4275 -0.4143
  563MOL0     H75947   2.032  10.414   1.459  0.3415  1.5291  1.4240
  563MOL0     H75948   2.146  10.620   1.540 -0.4946  0.5925 -1.0709
  563MOL0     H75949   2.204  10.477   1.625 -0.3663  0.6993  0.2390
  563MOL0     H75950   2.411  10.637   1.562  1.2515  2.2282 -2.5469
  563MOL0     H75951   2.416  10.488   1.478 -3.0516 -1.8202 -2.0588
  563MOL0     H75952   2.271  10.753   1.404 -0.4605  0.5947  0.3269
  563MOL0     H75953   2.299  10.622   1.282  3.2319  2.5432 -2.1722
  563MOL0     H75954   2.466  10.783   1.244 -1.9125 -0.3772 -0.6481
  563MOL0     H75955   2.518  10.781   1.412  2.7316 -1.9257 -0.3210
  563MOL0     H75956   2.556  10.540   1.104 -1.6679 -2.8855  1.1695
  563MOL0     H75957   2.834  10.290   1.214  0.0504  0.7168 -0.2812
  563MOL0     H75958   2.703  10.302   1.096 -0.9921 -0.8979  2.5790
  563MOL0     H75959   2.833  10.440   0.965 -1.5142 -0.6871  0.1713
  563MOL0     H75960   2.938  10.514   1.080 -0.2776 -0.4190  3.6388
  563MOL0     H75961   3.014  10.234   1.087  1.5760  0.7966  0.7782
  563MOL0     H75962   3.103  10.377   1.050 -0.4206  0.1715  2.5150
  563MOL0     H75963   3.099  10.227   0.870 -1.5650 -1.0578 -2.5759
  563MOL0     H75964   2.993  10.363   0.816 -3.3212  1.7253  2.5397
  563MOL0     H75965   3.060  10.204   0.650 -1.7072  0.0128 -0.5711
  563MOL0     H75966   3.071  10.018   0.476 -1.0874 -3.0697 -1.0705
  563MOL0     H75967   2.935   9.646   0.230 -0.1974 -0.5187 -0.2093
  563MOL0     H75968   2.908   9.434   0.103 -1.7197 -1.0969 -0.8373
  563MOL0     H75969   2.864   9.259  -0.004  2.4886 -2.0227 -1.2431
  563MOL0     H75970   2.939   9.129   0.095 -2.0660 -3.8474  2.0401
  563MOL0     H75971   2.817   9.048  -0.085  0.3368  1.4697 -1.0840
  563MOL0     H75972   2.772   8.981   0.083  1.1851  3.3758  2.8181
  563MOL0     H75973   2.555   9.089   0.074 -1.3750  3.7732 -0.6621
  563MOL0     H75974   2.614   9.201  -0.047 -1.7130  0.1735  2.0544
  563MOL0     H75975   2.597   8.897  -0.076  0.8241  0.9094  1.0026
  563MOL0     H75976   2.615   9.006  -0.212 -2.2846 -0.1839 -1.1333
  563MOL0     H75977   2.399   9.110  -0.164  0.4271 -0.3010 -1.9742
  563MOL0     H75978   2.348   8.988  -0.045 -3.2074  0.1085 -1.6354
  563MOL0     H75979   2.254   8.876  -0.197 -0.4243 -1.6737 -1.4697
  563MOL0     H75980   2.354   8.955  -0.339  1.4668 -2.0755 -0.8396
  563MOL0     H75981   2.455   8.735  -0.184  0.8684  0.8274  1.0373
  563MOL0     H75982   2.510   8.791  -0.344 -1.1258 -0.4566 -1.3590
  563MOL0     H75983   2.274   8.722  -0.445 -0.1468 -0.4737 -0.8057
  563MOL0     H75984   2.381   8.602  -0.401  0.6268  0.0056  0.1456
  563MOL0     H75985   2.706   9.259   0.445 -1.1667 -1.5503 -1.3171
  563MOL0     H75986   2.707   9.457   0.552  0.2789  3.2219  0.6886
  563MOL0     H75987   2.779   9.795   0.706 -1.6102  0.5157 -1.2980
  563MOL0     H75988   2.782   9.997   0.875  4.4006  3.2181  2.4061
  563MOL0     H75989   2.355   9.857   1.318 -0.0210  2.8229 -2.6902
  563MOL0     H75990   2.413   9.618   1.278  0.7866 -1.9465 -3.7423
  563MOL0     H75991   2.404   9.271   1.293  0.5036 -0.2620  0.5237
  563MOL0     H75992   2.462   9.034   1.352  1.1408 -2.5636 -0.6643
  563MOL0     H75993   2.593   8.874   1.204 -5.2402  4.9621  1.1854
  563MOL0     H75994   2.526   8.729   1.130 -2.4195  0.2419 -0.9764
  563MOL0     H75995   2.507   8.610   1.318 -1.5118  1.1544 -2.9127
  563MOL0     H75996   2.528   8.745   1.435 -1.2561  1.3615 -1.7306
  563MOL0     H75997   2.768   8.771   1.335  0.3144  0.2881 -1.0753
  563MOL0     H75998   2.747   8.616   1.249  3.8354  2.0933  0.2427
  563MOL0     H75999   2.711   8.651   1.550  0.9746 -1.8387  1.4041
  563MOL0     H76000   2.708   8.499   1.459 -0.3981  0.7421  1.8452
  563MOL0     H76001   3.129   8.561   1.497 -1.2902 -1.5287 -0.8962
  563MOL0     H76002   2.210   8.873   1.049  0.4549  0.6864 -2.1791
  563MOL0     H76003   2.169   9.139   0.872 -2.1587 -0.8327 -2.7051
  563MOL0     H76004   2.082   8.992   0.919 -2.4780 -0.3187  1.4401
  563MOL0     H76005   2.031   9.148   0.984  1.9077  0.4387  0.3463
  564MOL0     O76006   3.955   4.216   0.366 -0.1123 -0.0952  0.6677
  564MOL0     C76007   3.943   4.152   0.263 -0.0661  0.4782  0.4822
  564MOL0     O76008   3.946   4.199   0.138 -0.5313  0.2009  0.0419
  564MOL0     C76009   3.955   4.331   0.116 -0.2294 -0.4527  0.1615
  564MOL0     C76010   3.849   4.414   0.148 -0.9966  0.0636  0.0360
  564MOL0     C76011   3.851   4.547   0.120 -0.2457 -0.5938  0.3766
  564MOL0     C76012   3.953   4.610   0.039  0.2959  0.4037  0.2325
  564MOL0     O76013   3.930   4.740   0.020 -0.6972  0.0874 -0.4832
  564MOL0     C76014   4.040   4.831   0.020  1.0064 -0.3609  0.1078
  564MOL0     C76015   4.021   4.966  -0.053 -0.2551 -0.7709 -0.5661
  564MOL0     C76016   3.866   5.000  -0.032 -0.3903 -0.1724 -0.7367
  564MOL0     C76017   3.821   5.120  -0.126  0.3954  0.6149 -0.2332
  564MOL0     C76018   3.677   5.148  -0.130 -0.0200  1.2062  0.2417
  564MOL0     C76019   3.655   5.281  -0.205 -0.1279 -0.6577  0.4336
  564MOL0     C76020   3.512   5.340  -0.188 -0.1179  0.7152  0.9565
  564MOL0     C76021   3.502   5.474  -0.263 -0.0996  0.8297 -0.0935
  564MOL0     N76022   3.556   5.577  -0.183 -1.2954 -0.4843 -0.1075
  564MOL0     C76023   3.519   5.644  -0.067 -0.0983 -0.2268 -0.0158
  564MOL0     C76024   3.624   5.710  -0.021 -0.7973 -0.0154 -0.3496
  564MOL0     C76025   3.621   5.821   0.082  0.3405  1.1235  1.2792
  564MOL0     C76026   3.546   5.773   0.208 -0.1550 -0.9868 -0.0169
  564MOL0     C76027   3.647   5.717   0.320 -0.0394 -0.3928  0.4315
  564MOL0     C76028   3.578   5.622   0.417  1.1609 -0.7697  0.6652
  564MOL0     O76029   3.540   5.502   0.348 -0.2210 -0.0109  0.7847
  564MOL0     C76030   3.638   5.407   0.346 -1.0885 -0.1532  0.3809
  564MOL0     C76031   3.643   5.308   0.442 -0.3028 -0.5971 -0.0468
  564MOL0     C76032   3.750   5.218   0.440 -0.6168 -0.2624  0.1611
  564MOL0     C76033   3.842   5.214   0.332  0.3272  0.6636 -0.8705
  564MOL0     C76034   3.943   5.102   0.331 -0.3125  0.4168  0.7389
  564MOL0     O76035   3.936   5.008   0.429  0.1979  0.5117  0.1485
  564MOL0     C76036   4.021   4.899   0.412  0.6788  0.1017  0.2749
  564MOL0     C76037   4.144   4.909   0.476 -0.2510  0.0752 -0.2011
  564MOL0     C76038   4.220   4.793   0.496 -0.5383  0.8263 -0.2314
  564MOL0     C76039   4.184   4.674   0.444 -0.5391 -0.5046  0.8240
  564MOL0     O76040   4.258   4.569   0.469  0.8793  0.3344  1.0397
  564MOL0     C76041   4.263   4.468   0.369  0.7867  0.3693 -0.6667
  564MOL0     C76042   4.368   4.360   0.386 -0.4907 -0.6707 -0.4353
  564MOL0     C76043   4.377   4.284   0.254  0.0924 -0.1505 -0.2006
  564MOL0     C76044   4.515   4.223   0.235 -0.3037 -0.1260 -0.1212
  564MOL0     C76045   4.501   4.116   0.125  0.0383  0.4267  0.1461
  564MOL0     C76046   4.636   4.042   0.108  0.8122  0.2403  0.0286
  564MOL0     C76047   4.635   3.934   0.001  0.3089 -0.1791  0.8584
  564MOL0     C76048   4.771   3.887  -0.024 -1.2017  1.3314  0.1784
  564MOL0    Cl76049   4.828   3.795   0.120 -0.2064 -0.1417  0.2930
  564MOL0     C76050   4.054   4.665   0.386 -0.0341  0.2296 -0.6180
  564MOL0     C76051   3.977   4.781   0.375  0.1183  0.6489  0.5921
  564MOL0     O76052   4.022   5.106   0.242  0.2652 -0.1587  0.4587
  564MOL0     C76053   3.819   5.313   0.234  0.3461  0.3611 -0.3009
  564MOL0     C76054   3.728   5.418   0.241 -1.3522  0.3556  0.5478
  564MOL0     N76055   3.733   5.678  -0.093  0.0402 -0.0647  0.1756
  564MOL0     N76056   3.687   5.610  -0.189  0.0853  0.6696 -0.1209
  564MOL0     C76057   4.059   4.526   0.001 -0.8064  1.3114 -0.4886
  564MOL0     C76058   4.059   4.385   0.038  0.3024 -0.8452  0.1215
  564MOL0     C76059   3.920   4.002   0.268  0.0532 -0.0536  0.7689
  564MOL0     C76060   3.911   3.937   0.394  0.6483  0.3777 -0.1245
  564MOL0     C76061   3.888   3.798   0.405 -0.2868  0.0080 -0.2900
  564MOL0     C76062   3.885   3.718   0.295  0.0785 -0.0712 -0.8024
  564MOL0     O76063   3.857   3.584   0.298  0.2525 -0.6104 -0.1248
  564MOL0     C76064   3.782   3.527   0.411 -0.1322 -0.3074 -0.3635
  564MOL0     C76065   3.803   3.377   0.387 -0.3975  0.3011 -0.4400
  564MOL0     C76066   3.954   3.343   0.375 -0.1155  0.0343 -1.3628
  564MOL0     C76067   3.964   3.192   0.413  0.4428  0.6626 -0.2660
  564MOL0     C76068   4.111   3.154   0.417 -0.1356 -0.7048  0.4003
  564MOL0     C76069   4.222   3.132   0.467 -0.5596 -0.8714 -0.7777
  564MOL0     C76070   3.913   3.772   0.171  0.1879 -0.2068 -0.3272
  564MOL0     C76071   3.935   3.912   0.154  0.3579 -0.1122  0.6014
  564MOL0     C76072   3.962   3.957   0.009  0.6829  0.3677 -0.2943
  564MOL0     H76073   3.772   4.373   0.213 -1.3405  1.2208  0.3865
  564MOL0     H76074   3.768   4.610   0.150  1.5732  1.0002  2.4153
  564MOL0     H76075   4.076   4.858   0.120 -0.8453 -0.8381  0.9505
  564MOL0     H76076   4.124   4.789  -0.037  0.7236 -0.1602 -0.4597
  564MOL0     H76077   4.034   4.945  -0.159 -2.6246  1.7353 -1.4696
  564MOL0     H76078   4.083   5.048  -0.014  1.4596 -2.7759  1.2315
  564MOL0     H76079   3.839   5.012   0.073 -5.4041 -0.6645 -1.7303
  564MOL0     H76080   3.801   4.915  -0.055  0.1982 -1.7954  2.9259
  564MOL0     H76081   3.869   5.205  -0.076 -1.1501  0.3470  1.7795
  564MOL0     H76082   3.845   5.104  -0.232 -5.3267 -1.0449 -1.5894
  564MOL0     H76083   3.635   5.058  -0.176  3.1372 -0.3788  0.1687
  564MOL0     H76084   3.637   5.168  -0.030 -1.9415 -3.1536  0.5829
  564MOL0     H76085   3.733   5.354  -0.180 -3.0625  3.7927 -1.8753
  564MOL0     H76086   3.672   5.260  -0.311 -0.3052 -1.9998  0.6615
  564MOL0     H76087   3.483   5.359  -0.084  1.9143  2.5221  1.2665
  564MOL0     H76088   3.447   5.265  -0.234  0.3832  0.6064  0.3992
  564MOL0     H76089   3.559   5.472  -0.356 -2.5058  1.0405 -1.6381
  564MOL0     H76090   3.397   5.492  -0.287 -1.1437 -1.6097  2.2200
  564MOL0     H76091   3.417   5.661  -0.034 -2.0314 -2.3738 -4.1276
  564MOL0     H76092   3.718   5.866   0.103  0.6013  0.7685  0.8427
  564MOL0     H76093   3.575   5.906   0.030  3.1655  2.2700  0.4574
  564MOL0     H76094   3.503   5.864   0.252  1.1618 -0.3997  0.0902
  564MOL0     H76095   3.463   5.702   0.201  0.5376 -1.7426 -0.6510
  564MOL0     H76096   3.693   5.798   0.376 -3.1197  1.2439  0.7980
  564MOL0     H76097   3.733   5.668   0.273 -1.2749 -1.8385 -0.4270
  564MOL0     H76098   3.488   5.678   0.443  0.9381  0.6620 -2.7203
  564MOL0     H76099   3.647   5.611   0.501  0.6448  0.7867  1.3390
  564MOL0     H76100   3.578   5.326   0.527 -0.1905  3.2699 -0.5906
  564MOL0     H76101   3.752   5.152   0.526 -1.2033 -0.7545 -0.1937
  564MOL0     H76102   4.173   5.005   0.517  0.6001  0.3012 -1.2623
  564MOL0     H76103   4.318   4.796   0.543 -1.1552 -2.5051  1.5997
  564MOL0     H76104   4.166   4.418   0.355  0.4661  0.8984 -0.3688
  564MOL0     H76105   4.293   4.524   0.280  3.5251 -2.0352 -1.4257
  564MOL0     H76106   4.464   4.410   0.402  0.0695 -1.0252 -2.4468
  564MOL0     H76107   4.338   4.285   0.460  0.2754 -1.5914 -1.0411
  564MOL0     H76108   4.292   4.216   0.246 -1.2557  1.5471 -0.8788
  564MOL0     H76109   4.360   4.355   0.172 -2.8765 -2.6640 -1.9936
  564MOL0     H76110   4.543   4.179   0.331  0.1578  0.4128 -0.0053
  564MOL0     H76111   4.594   4.294   0.211  0.4549 -1.2887 -1.1731
  564MOL0     H76112   4.476   4.169   0.033  1.4156 -0.5837 -0.8473
  564MOL0     H76113   4.419   4.047   0.145  0.8709 -0.4916  0.4752
  564MOL0     H76114   4.720   4.109   0.085  0.4971 -0.3346 -3.1996
  564MOL0     H76115   4.664   3.993   0.202 -3.7048 -0.1127  1.4303
  564MOL0     H76116   4.591   3.979  -0.089 -0.2945  1.2945  1.8435
  564MOL0     H76117   4.559   3.858   0.021  0.4544 -0.4419  0.4166
  564MOL0     H76118   4.761   3.816  -0.107  3.0281  0.2016  0.4244
  564MOL0     H76119   4.843   3.965  -0.050  1.1937 -1.0577 -0.8797
  564MOL0     H76120   4.032   4.560   0.370  1.6435 -0.4534  1.1857
  564MOL0     H76121   3.876   4.768   0.336  0.3295  0.3019  0.1438
  564MOL0     H76122   3.890   5.305   0.152  0.6450 -0.0228 -0.0103
  564MOL0     H76123   3.717   5.496   0.167  2.6364  0.6692  0.0977
  564MOL0     H76124   4.147   4.559  -0.053  0.2126  1.8853  1.4327
  564MOL0     H76125   4.141   4.324   0.002 -0.3362 -3.3107  2.4861
  564MOL0     H76126   3.919   3.992   0.487  1.0499 -2.3360  1.5464
  564MOL0     H76127   3.872   3.753   0.502 -1.7538 -0.2979 -0.6450
  564MOL0     H76128   3.676   3.552   0.420 -0.1079  0.6480 -2.2982
  564MOL0     H76129   3.823   3.549   0.510 -2.4048 -0.1342  0.6058
  564MOL0     H76130   3.764   3.346   0.289 -1.9759  0.5649  0.0762
  564MOL0     H76131   3.757   3.314   0.463  2.5519 -2.2246 -0.5592
  564MOL0     H76132   4.004   3.411   0.445 -3.3435  3.1913 -1.8286
  564MOL0     H76133   3.987   3.349   0.271  0.2255  0.9473 -1.2093
  564MOL0     H76134   3.913   3.169   0.508  1.7486 -0.1194  0.2656
  564MOL0     H76135   3.927   3.131   0.330 -0.4038 -1.3104  1.4580
  564MOL0     H76136   4.315   3.104   0.512  0.8605  1.9638 -1.7694
  564MOL0     H76137   3.904   3.699   0.091 -0.5707  0.3732 -0.7872
  564MOL0     H76138   3.956   3.867  -0.053 -2.8426 -0.5676  1.1366
  564MOL0     H76139   3.902   4.039  -0.030  0.7533  0.7243  0.3298
  564MOL0     H76140   4.063   3.991   0.031 -0.4727  3.0024  1.3461
  565MOL0     O76141   8.979   8.864  11.220  0.8287  0.6422  0.1577
  565MOL0     C76142   8.879   8.879  11.286 -0.4189  0.9129 -0.9715
  565MOL0     O76143   8.844   8.994  11.355 -0.1755  0.9986 -0.0732
  565MOL0     C76144   8.941   9.088  11.360  0.3758  0.7980 -0.9106
  565MOL0     C76145   8.936   9.182  11.252 -0.5433  1.2630 -0.1174
  565MOL0     C76146   9.046   9.277  11.239 -0.8218  0.4610 -0.8275
  565MOL0     C76147   9.134   9.295  11.348  0.5538 -0.0305  0.4084
  565MOL0     O76148   9.240   9.385  11.352  0.0904  0.2693 -0.0136
  565MOL0     C76149   9.255   9.473  11.236  0.2483  0.0261 -0.5512
  565MOL0     C76150   9.328   9.603  11.281 -0.6397  0.3277 -0.0260
  565MOL0     C76151   9.419   9.668  11.180  0.7314  0.2482 -0.6553
  565MOL0     C76152   9.480   9.805  11.221  0.5502  0.3018 -0.3757
  565MOL0     C76153   9.371   9.917  11.204  0.4232 -0.2996  0.4788
  565MOL0     C76154   9.445  10.040  11.271 -0.0011 -0.2015  0.6856
  565MOL0     C76155   9.329  10.146  11.267 -0.1477 -0.4858 -0.1671
  565MOL0     C76156   9.383  10.292  11.295 -0.9982 -0.0879  0.4724
  565MOL0     N76157   9.462  10.298  11.423 -0.2477 -0.1210 -0.3226
  565MOL0     C76158   9.593  10.307  11.430 -0.9751  0.1241 -0.6742
  565MOL0     C76159   9.628  10.316  11.559  0.2067 -1.0745 -1.3646
  565MOL0     C76160   9.765  10.350  11.624  0.4127  0.7447  0.4947
  565MOL0     C76161   9.762  10.426  11.751  0.0193 -1.0792  0.1112
  565MOL0     C76162   9.736  10.566  11.723 -0.5666  0.4540 -0.0975
  565MOL0     C76163   9.715  10.649  11.848 -0.8120  0.0496 -0.4574
  565MOL0     O76164   9.694  10.789  11.819  0.8751  0.7590 -0.2105
  565MOL0     C76165   9.716  10.883  11.909 -0.4271  0.1849  0.4729
  565MOL0     C76166   9.846  10.934  11.922 -0.7102 -0.1565  1.0452
  565MOL0     C76167   9.864  11.033  12.017  0.1629 -0.3273  0.7450
  565MOL0     C76168   9.767  11.081  12.108  0.1157  0.0407  0.3731
  565MOL0     C76169   9.801  11.173  12.217 -0.7035  0.0559 -0.5158
  565MOL0     O76170   9.914  11.252  12.189  0.5458 -0.2056 -0.2531
  565MOL0     C76171   9.950  11.341  12.286 -0.4782 -0.5312 -0.4588
  565MOL0     C76172  10.078  11.343  12.341 -0.1361 -0.1743  0.2764
  565MOL0     C76173  10.112  11.430  12.443  0.8509 -0.2662 -1.1452
  565MOL0     C76174  10.013  11.519  12.491  0.3969  0.0714  0.4503
  565MOL0     O76175  10.029  11.591  12.605  0.3219  0.5792 -1.2481
  565MOL0     C76176  10.154  11.660  12.625  0.3620  1.1213 -0.3988
  565MOL0     C76177  10.135  11.789  12.680 -0.1238 -0.1174  0.7815
  565MOL0     C76178  10.021  11.862  12.606  0.0243  0.1704  0.1051
  565MOL0     C76179  10.019  12.012  12.638  0.6565  0.0554  0.1765
  565MOL0     C76180   9.905  12.090  12.569 -0.3700  0.6111  1.5089
  565MOL0     C76181   9.891  12.237  12.612 -0.3742  0.3639  0.0183
  565MOL0     C76182   9.789  12.318  12.521 -0.2430  0.5805 -1.2814
  565MOL0     C76183   9.835  12.459  12.480 -0.1852 -0.2726 -0.5205
  565MOL0    Cl76184   9.858  12.550  12.641  0.1452 -0.0567  0.0525
  565MOL0     C76185   9.885  11.522  12.431 -0.1314  0.2142  0.2523
  565MOL0     C76186   9.853  11.434  12.328 -0.9888 -0.5177 -0.7065
  565MOL0     O76187   9.731  11.167  12.316 -0.0030 -0.0627 -0.0162
  565MOL0     C76188   9.648  11.019  12.106  0.0645 -0.7362 -0.0156
  565MOL0     C76189   9.625  10.925  12.005  0.0157  0.1719  0.6725
  565MOL0     N76190   9.518  10.318  11.627  0.3892 -0.1360  0.3058
  565MOL0     N76191   9.413  10.317  11.550 -0.8877 -0.6675  0.5310
  565MOL0     C76192   9.132   9.195  11.452  0.0793 -0.3302  0.0532
  565MOL0     C76193   9.037   9.091  11.455  0.1778 -0.5535 -0.9591
  565MOL0     C76194   8.782   8.767  11.314  0.2489 -0.4281  0.3256
  565MOL0     C76195   8.697   8.777  11.432 -0.4664 -0.9859 -0.1205
  565MOL0     C76196   8.629   8.671  11.481 -0.6432  0.4020  0.6839
  565MOL0     C76197   8.630   8.541  11.421 -0.1294 -0.2948 -0.5029
  565MOL0     O76198   8.562   8.425  11.477 -0.9814 -0.4839 -0.3765
  565MOL0     C76199   8.550   8.385  11.618 -0.2634 -0.2916 -0.2977
  565MOL0     C76200   8.677   8.299  11.655 -0.1300 -0.3219 -0.0506
  565MOL0     C76201   8.807   8.374  11.708  0.7021  0.0981  0.0007
  565MOL0     C76202   8.877   8.287  11.807  0.5333  0.3024 -0.9118
  565MOL0     C76203   8.960   8.371  11.890  1.2469  0.0798  0.4188
  565MOL0     C76204   9.050   8.412  11.956  0.0622 -0.4782 -1.0684
  565MOL0     C76205   8.698   8.537  11.299 -0.8523  0.0194  0.1156
  565MOL0     C76206   8.774   8.645  11.246  0.0859  0.0861 -0.1386
  565MOL0     C76207   8.861   8.613  11.117  0.6994 -0.5150  0.3127
  565MOL0     H76208   8.864   9.185  11.171  0.6182  1.5366 -1.1689
  565MOL0     H76209   9.047   9.332  11.145  2.4159  0.5886 -0.8068
  565MOL0     H76210   9.306   9.418  11.156 -0.6489 -0.3286 -0.8887
  565MOL0     H76211   9.157   9.508  11.202 -0.4840 -4.1717 -3.5606
  565MOL0     H76212   9.392   9.572  11.364  2.3858  2.0492 -1.5173
  565MOL0     H76213   9.260   9.682  11.313  0.8860  2.3908 -1.5548
  565MOL0     H76214   9.349   9.695  11.101  0.9978  2.2472 -0.2775
  565MOL0     H76215   9.495   9.601  11.139 -0.7208 -2.8148  1.3173
  565MOL0     H76216   9.514   9.792  11.324  3.0363  1.7222 -0.9402
  565MOL0     H76217   9.564   9.814  11.152  0.7116  1.3055 -0.0671
  565MOL0     H76218   9.338   9.933  11.101 -4.0619  0.9144  1.8876
  565MOL0     H76219   9.275   9.900  11.253  0.0356  2.3763  0.7832
  565MOL0     H76220   9.465  10.014  11.375 -1.2897 -0.7358  0.8209
  565MOL0     H76221   9.534  10.075  11.218  0.2884  0.8525  1.8244
  565MOL0     H76222   9.266  10.118  11.351  3.0175 -0.1025  2.5218
  565MOL0     H76223   9.267  10.154  11.177 -1.8937 -1.1139  0.9501
  565MOL0     H76224   9.455  10.322  11.219 -1.1382  0.9585  0.7289
  565MOL0     H76225   9.299  10.362  11.293 -1.9081 -0.8174  4.4068
  565MOL0     H76226   9.663  10.321  11.348 -0.5411 -2.8209 -0.9326
  565MOL0     H76227   9.820  10.257  11.640  2.0072  1.0401 -2.4766
  565MOL0     H76228   9.826  10.400  11.548  1.4680  0.5479  1.1839
  565MOL0     H76229   9.674  10.392  11.806 -0.8936  0.0865 -0.5852
  565MOL0     H76230   9.850  10.411  11.814  0.1499  2.0673  0.7971
  565MOL0     H76231   9.661  10.575  11.643  0.8856  0.3163 -1.5280
  565MOL0     H76232   9.819  10.601  11.661  2.0061 -1.2354  2.1167
  565MOL0     H76233   9.805  10.637  11.909  1.6526  1.2792 -3.6224
  565MOL0     H76234   9.627  10.623  11.909 -1.9650  3.2904 -0.5383
  565MOL0     H76235   9.930  10.896  11.865 -1.8815  0.3322 -1.1192
  565MOL0     H76236   9.966  11.070  12.013  1.1513 -2.9262 -0.5181
  565MOL0     H76237  10.157  11.276  12.307  1.5775  0.4219  2.7773
  565MOL0     H76238  10.208  11.434  12.495  0.4190  5.4235 -0.1276
  565MOL0     H76239  10.229  11.602  12.679  1.5009  3.0929  0.2242
  565MOL0     H76240  10.203  11.682  12.530  1.3630 -1.5348 -0.5767
  565MOL0     H76241  10.095  11.781  12.782  1.7055 -3.9613  1.3736
  565MOL0     H76242  10.232  11.840  12.687  0.1594 -0.6796  1.0445
  565MOL0     H76243  10.029  11.843  12.499  1.4156 -1.4345  0.4595
  565MOL0     H76244   9.930  11.818  12.647  0.8602 -0.3633  1.4670
  565MOL0     H76245  10.120  12.044  12.612  0.5880 -0.4245 -0.7366
  565MOL0     H76246  10.010  12.030  12.746  0.1961  1.5605 -0.0874
  565MOL0     H76247   9.809  12.038  12.579  0.2737 -1.2399 -0.8800
  565MOL0     H76248   9.927  12.105  12.463 -0.6327  1.7958  1.5981
  565MOL0     H76249   9.865  12.236  12.718  2.5396 -1.1681  0.8177
  565MOL0     H76250   9.985  12.292  12.605 -2.1913  3.6394 -0.5528
  565MOL0     H76251   9.692  12.344  12.565  0.9925  2.8328  0.3164
  565MOL0     H76252   9.760  12.263  12.431 -1.7560  1.2052 -1.2146
  565MOL0     H76253   9.921  12.456  12.413 -1.5715 -1.1903 -2.3783
  565MOL0     H76254   9.751  12.505  12.427 -0.0912  0.8129  0.2401
  565MOL0     H76255   9.805  11.579  12.476 -0.3798 -1.3520  1.8845
  565MOL0     H76256   9.753  11.433  12.286  0.4847  1.9441 -4.8083
  565MOL0     H76257   9.568  11.049  12.173  0.0415  3.6707 -1.6721
  565MOL0     H76258   9.527  10.879  12.010 -1.3406  2.5125 -1.5895
  565MOL0     H76259   9.213   9.198  11.525  1.2790 -1.0841 -1.2122
  565MOL0     H76260   9.063   9.024  11.536  0.5167 -0.2809 -0.8365
  565MOL0     H76261   8.688   8.867  11.492  2.3848 -0.7211  0.0517
  565MOL0     H76262   8.567   8.677  11.570 -0.0964  1.2953  1.0166
  565MOL0     H76263   8.457   8.328  11.630 -0.2219  0.0496  2.0703
  565MOL0     H76264   8.553   8.475  11.680 -2.3781  0.6265 -1.4245
  565MOL0     H76265   8.708   8.247  11.564  2.1793  1.9158 -0.6570
  565MOL0     H76266   8.640   8.221  11.722 -4.4629  0.6321 -1.0510
  565MOL0     H76267   8.785   8.476  11.743 -3.4141 -0.6322 -0.0488
  565MOL0     H76268   8.866   8.394  11.618 -0.3113 -8.6207 -3.5970
  565MOL0     H76269   8.795   8.243  11.864  1.2733  1.1486  0.8774
  565MOL0     H76270   8.940   8.207  11.767 -0.6814 -0.1343 -2.0294
  565MOL0     H76271   9.138   8.446  12.007  0.7022 -1.7715 -1.2756
  565MOL0     H76272   8.721   8.438  11.258 -0.4390  0.1418  0.0413
  565MOL0     H76273   8.793   8.600  11.032 -2.4424 -1.1645  2.7711
  565MOL0     H76274   8.938   8.683  11.083  0.5258 -1.1297 -1.4636
  565MOL0     H76275   8.914   8.520  11.137 -1.0653 -1.6042  0.1292
  566MOL0     O76276  10.776   2.924   7.784 -0.5177 -0.0183 -0.0759
  566MOL0     C76277  10.673   2.940   7.846  0.1975  0.6258 -0.7535
  566MOL0     O76278  10.626   2.860   7.946 -1.5575  0.1255  0.2203
  566MOL0     C76279  10.684   2.742   7.963  0.4132 -0.5347  0.0469
  566MOL0     C76280  10.782   2.732   8.060 -0.7667  0.5688  0.0488
  566MOL0     C76281  10.859   2.612   8.067  1.1553  0.0612  0.0479
  566MOL0     C76282  10.834   2.495   7.989 -0.2898 -0.7776  0.0907
  566MOL0     O76283  10.893   2.371   8.009  0.4656 -0.4380 -0.0314
  566MOL0     C76284  11.027   2.362   8.050  0.6206  0.0691  0.4600
  566MOL0     C76285  11.097   2.238   7.985  0.7939 -0.0906 -0.4140
  566MOL0     C76286  11.005   2.111   7.993  0.2447  0.3746  0.5326
  566MOL0     C76287  11.081   1.999   7.915  0.4047 -0.5741 -0.1773
  566MOL0     C76288  11.001   1.868   7.937 -0.3473 -0.0716 -0.7160
  566MOL0     C76289  10.925   1.844   7.817 -0.8075  0.2354  0.5205
  566MOL0     C76290  10.819   1.732   7.831  0.0695  0.0114 -1.3392
  566MOL0     C76291  10.714   1.748   7.956 -0.8087  0.0217  0.1568
  566MOL0     N76292  10.588   1.683   7.938  0.4315 -0.4326  0.4000
  566MOL0     C76293  10.508   1.614   8.027  0.0802 -0.1694 -0.1923
  566MOL0     C76294  10.382   1.618   7.965  0.2177  0.3910 -0.2030
  566MOL0     C76295  10.265   1.567   8.028  0.2361  0.5676 -0.2288
  566MOL0     C76296  10.199   1.670   8.120  0.5085 -0.5463  0.0249
  566MOL0     C76297  10.076   1.615   8.204 -0.6925  0.3132 -0.5276
  566MOL0     C76298   9.966   1.547   8.124  0.6146 -0.2448 -0.2371
  566MOL0     O76299  10.002   1.428   8.056  0.3659 -0.2760 -0.1178
  566MOL0     C76300   9.992   1.300   8.111 -0.2386 -0.8809 -0.1752
  566MOL0     C76301  10.077   1.202   8.064 -0.4293 -0.0955  0.2460
  566MOL0     C76302  10.097   1.072   8.136  0.0825 -0.1967  0.4068
  566MOL0     C76303  10.036   1.063   8.257  0.2423 -0.7891  0.4556
  566MOL0     C76304  10.067   0.939   8.333 -0.2266 -0.0817  0.2062
  566MOL0     O76305  10.153   0.853   8.279  0.4267 -0.4315  0.7619
  566MOL0     C76306  10.216   0.773   8.361 -0.1066  0.6724 -0.7213
  566MOL0     C76307  10.332   0.827   8.419  0.0338 -0.1201 -0.2231
  566MOL0     C76308  10.399   0.751   8.522 -0.2370 -0.2825  1.0985
  566MOL0     C76309  10.367   0.618   8.552 -0.2807 -0.8168  0.8655
  566MOL0     O76310  10.429   0.538   8.641 -0.6193  0.1928 -0.4775
  566MOL0     C76311  10.345   0.487   8.757 -0.1709  0.0400  0.1052
  566MOL0     C76312  10.315   0.605   8.854  0.7849  0.1630  0.1679
  566MOL0     C76313  10.294   0.551   8.992 -0.0599 -0.5372  1.1870
  566MOL0     C76314  10.269   0.653   9.102 -0.3684  0.5948 -0.0018
  566MOL0     C76315  10.225   0.592   9.233 -0.0553 -0.0614 -0.0896
  566MOL0     C76316  10.221   0.677   9.366 -0.9359 -0.0670  0.7774
  566MOL0     C76317  10.131   0.801   9.348  0.4360  0.2337 -0.1614
  566MOL0     C76318   9.981   0.769   9.328  0.6817 -1.0492  0.8919
  566MOL0    Cl76319   9.924   0.740   9.159 -0.4036 -0.2116 -0.2840
  566MOL0     C76320  10.260   0.572   8.484 -0.9421  0.1262  0.1451
  566MOL0     C76321  10.176   0.645   8.401  0.3526 -0.8733 -1.0508
  566MOL0     O76322  10.018   0.925   8.444 -0.4585  0.6674 -0.4479
  566MOL0     C76323   9.948   1.161   8.300  0.0285  0.7817  0.4453
  566MOL0     C76324   9.921   1.279   8.225 -0.0641  0.0648  0.1975
  566MOL0     N76325  10.392   1.684   7.844  0.6615 -0.1669 -1.4223
  566MOL0     N76326  10.511   1.732   7.835 -0.2140 -0.2856 -0.0077
  566MOL0     C76327  10.733   2.519   7.894 -0.1811  0.1709  0.5072
  566MOL0     C76328  10.659   2.635   7.876  0.6463  0.3987  1.0120
  566MOL0     C76329  10.587   3.046   7.794  0.7866 -0.2419 -0.2201
  566MOL0     C76330  10.458   3.050   7.839 -0.3618  0.0431  0.7996
  566MOL0     C76331  10.371   3.162   7.817 -0.0405  0.2280 -0.5506
  566MOL0     C76332  10.417   3.272   7.731 -0.2947 -0.2178  0.1824
  566MOL0     O76333  10.337   3.386   7.699 -1.1064 -0.2991 -0.5656
  566MOL0     C76334  10.264   3.450   7.805  0.0424 -0.5027 -0.1468
  566MOL0     C76335  10.180   3.560   7.752  0.1414  0.5032 -0.1051
  566MOL0     C76336  10.254   3.692   7.706  0.7809 -0.1573 -0.7020
  566MOL0     C76337  10.313   3.680   7.568  0.0760 -0.1126  0.1632
  566MOL0     C76338  10.238   3.769   7.475 -0.4469  0.4781  0.3088
  566MOL0     C76339  10.170   3.857   7.427 -0.6790  0.3523  1.2441
  566MOL0     C76340  10.544   3.259   7.680 -0.9728  0.5565  0.4024
  566MOL0     C76341  10.632   3.151   7.704  0.7504 -0.2021  1.0157
  566MOL0     C76342  10.765   3.152   7.631 -0.1605 -0.1214  0.6595
  566MOL0     H76343  10.813   2.809   8.129 -2.0411 -1.7546  3.4604
  566MOL0     H76344  10.936   2.600   8.142  0.3539  2.2383  1.3135
  566MOL0     H76345  11.079   2.453   8.019  1.0793 -1.5487 -4.3620
  566MOL0     H76346  11.033   2.337   8.157 -1.0095 -1.4043  0.2483
  566MOL0     H76347  11.191   2.222   8.040  1.9616  3.5201 -1.0727
  566MOL0     H76348  11.122   2.247   7.879 -1.0541 -2.1214 -1.1084
  566MOL0     H76349  10.905   2.122   7.951 -1.2613  0.1874  3.7372
  566MOL0     H76350  10.989   2.078   8.096  0.3885 -0.9495  0.1432
  566MOL0     H76351  11.104   2.023   7.811  2.8440 -2.4639 -0.1526
  566MOL0     H76352  11.179   2.009   7.962  0.1411  1.0544  0.0901
  566MOL0     H76353  11.058   1.776   7.952 -0.7438 -0.1572  0.3890
  566MOL0     H76354  10.940   1.879   8.028 -1.5529  3.4909 -1.8045
  566MOL0     H76355  10.868   1.936   7.799 -0.4765  0.5387  1.0040
  566MOL0     H76356  10.989   1.823   7.731 -0.4355  1.3364  0.5118
  566MOL0     H76357  10.875   1.639   7.845 -1.0107 -0.3714  0.8097
  566MOL0     H76358  10.763   1.722   7.737 -2.0832 -0.2682 -0.0790
  566MOL0     H76359  10.765   1.721   8.048  0.1843 -0.1708 -0.4338
  566MOL0     H76360  10.685   1.850   7.982 -2.6042 -0.6745  1.0340
  566MOL0     H76361  10.512   1.585   8.131 -1.7598 -1.6377 -0.4627
  566MOL0     H76362  10.205   1.543   7.939  2.0553 -0.4293 -1.2514
  566MOL0     H76363  10.276   1.469   8.075  1.1265  0.5564 -0.4527
  566MOL0     H76364  10.285   1.701   8.179  1.4107 -1.2094 -0.9026
  566MOL0     H76365  10.171   1.763   8.070  1.3889  0.6356  1.6488
  566MOL0     H76366  10.032   1.703   8.252 -1.5011  1.1218 -2.6542
  566MOL0     H76367  10.113   1.551   8.285  0.3666 -1.6775 -2.4796
  566MOL0     H76368   9.923   1.611   8.046  0.3447  2.3901  1.9252
  566MOL0     H76369   9.889   1.524   8.198  1.5573  1.0383  1.1992
  566MOL0     H76370  10.138   1.212   7.975  0.7172 -1.4260  0.8433
  566MOL0     H76371  10.175   1.006   8.100  0.1998  0.2690 -0.2129
  566MOL0     H76372  10.362   0.930   8.399  0.9741  0.7182  4.4471
  566MOL0     H76373  10.490   0.785   8.570  0.2186 -0.5964  0.4793
  566MOL0     H76374  10.250   0.446   8.722  0.4009 -2.1249  0.9010
  566MOL0     H76375  10.406   0.422   8.821  0.1827 -0.0084 -0.2755
  566MOL0     H76376  10.391   0.683   8.848  2.7419 -1.7210 -0.9500
  566MOL0     H76377  10.218   0.651   8.831  0.9601 -0.0020 -0.9896
  566MOL0     H76378  10.211   0.479   8.994  0.2766 -1.0330 -0.7175
  566MOL0     H76379  10.384   0.494   9.017  0.4805 -0.1952  0.0739
  566MOL0     H76380  10.195   0.729   9.076  0.2702  1.7358  1.3874
  566MOL0     H76381  10.369   0.693   9.121  0.1222 -0.1221 -0.9833
  566MOL0     H76382  10.304   0.518   9.249 -0.4757 -0.4950  0.0003
  566MOL0     H76383  10.132   0.535   9.222 -1.2904  1.7196  0.5486
  566MOL0     H76384  10.174   0.617   9.444  3.3443 -3.1039  1.4266
  566MOL0     H76385  10.324   0.703   9.391 -0.6404  1.0214 -1.3591
  566MOL0     H76386  10.172   0.863   9.268 -0.7221 -0.0330 -0.9983
  566MOL0     H76387  10.130   0.855   9.444 -0.7439 -1.6565  0.9525
  566MOL0     H76388   9.937   0.687   9.385 -2.6727  0.8513  1.2759
  566MOL0     H76389   9.936   0.863   9.360  2.7770  0.7242 -1.0036
  566MOL0     H76390  10.227   0.472   8.512  0.9010 -0.1043  1.6810
  566MOL0     H76391  10.089   0.592   8.363 -1.4765  1.1250  0.1207
  566MOL0     H76392   9.906   1.149   8.399 -0.9157 -3.9705 -0.3088
  566MOL0     H76393   9.861   1.341   8.290 -0.1472 -2.5238  2.7859
  566MOL0     H76394  10.711   2.447   7.816  1.5005  0.6979 -0.4999
  566MOL0     H76395  10.597   2.640   7.787  1.4850  1.7738  0.4751
  566MOL0     H76396  10.425   2.971   7.906  2.5920  0.6241  3.1944
  566MOL0     H76397  10.269   3.158   7.854  0.3121 -0.6972  0.3531
  566MOL0     H76398  10.339   3.478   7.879  1.6051 -0.3732 -1.7148
  566MOL0     H76399  10.209   3.361   7.835  2.8433 -2.6828 -1.0598
  566MOL0     H76400  10.114   3.582   7.836  0.3220 -2.7373  1.0208
  566MOL0     H76401  10.119   3.513   7.675  0.8442 -1.6639  0.6006
  566MOL0     H76402  10.331   3.734   7.772 -0.2130  0.5721  0.0318
  566MOL0     H76403  10.179   3.771   7.712  2.5702  1.5792  4.6505
  566MOL0     H76404  10.420   3.700   7.575  0.6103 -2.6145  0.0535
  566MOL0     H76405  10.308   3.583   7.517  1.4379 -0.1608  0.0886
  566MOL0     H76406  10.120   3.946   7.396 -1.0772 -0.5793 -0.9866
  566MOL0     H76407  10.583   3.334   7.612 -0.1939 -1.2492 -1.2468
  566MOL0     H76408  10.771   3.234   7.559  0.2728  0.9421  1.8833
  566MOL0     H76409  10.850   3.157   7.699  0.5315  0.3698 -0.2256
  566MOL0     H76410  10.775   3.057   7.578  0.1053 -0.7421  1.7986
  567MOL0     O76411  10.296   1.521   6.860  0.0647  0.1449  0.5908
  567MOL0     C76412  10.375   1.496   6.955 -0.7335  0.5321  0.8357
  567MOL0     O76413  10.336   1.439   7.070 -0.0239  0.5724 -0.9417
  567MOL0     C76414  10.200   1.431   7.084  0.2191 -0.3781 -0.0620
  567MOL0     C76415  10.114   1.345   7.007 -0.1587  0.6307  0.0555
  567MOL0     C76416   9.978   1.329   7.054 -0.3459  0.4057 -1.1008
  567MOL0     C76417   9.933   1.392   7.172  0.3094  0.5189 -0.5916
  567MOL0     O76418   9.805   1.394   7.229 -0.6350 -0.0152 -0.3117
  567MOL0     C76419   9.719   1.308   7.157  1.1180  0.2713 -0.6884
  567MOL0     C76420   9.582   1.293   7.238 -0.7117 -0.2117  0.4077
  567MOL0     C76421   9.465   1.221   7.171 -0.4005 -0.7920  0.0045
  567MOL0     C76422   9.348   1.208   7.276  0.2366  0.6763  0.4864
  567MOL0     C76423   9.216   1.160   7.212  0.4912  0.4088 -1.2431
  567MOL0     C76424   9.097   1.257   7.220 -0.6990 -0.7383  1.4208
  567MOL0     C76425   9.098   1.363   7.108  0.7515 -0.0132  0.6319
  567MOL0     C76426   9.083   1.303   6.968 -0.2070 -0.6471  0.2975
  567MOL0     N76427   9.028   1.400   6.869  0.8883 -0.1978  0.2054
  567MOL0     C76428   9.095   1.457   6.765  0.6478  0.2390 -0.3225
  567MOL0     C76429   9.010   1.521   6.680  0.4050  0.0038 -0.0817
  567MOL0     C76430   9.038   1.604   6.559 -0.8321  0.0572 -0.3917
  567MOL0     C76431   8.992   1.530   6.440 -0.1779 -0.0335  0.1080
  567MOL0     C76432   8.982   1.624   6.325 -0.1540 -0.9346 -0.1581
  567MOL0     C76433   8.850   1.617   6.236  0.6010  0.7965 -0.5665
  567MOL0     O76434   8.825   1.491   6.200 -0.3263  0.8162  0.1649
  567MOL0     C76435   8.742   1.462   6.094 -0.0924 -0.3190  0.8249
  567MOL0     C76436   8.765   1.344   6.023  0.3448  0.9537  1.2800
  567MOL0     C76437   8.694   1.323   5.893  0.4963  1.0403 -0.5539
  567MOL0     C76438   8.600   1.414   5.849 -1.2264 -1.1773 -0.3187
  567MOL0     C76439   8.530   1.386   5.719 -0.5232  0.0238  0.3062
  567MOL0     O76440   8.546   1.256   5.660  0.2708  0.3925 -0.2543
  567MOL0     C76441   8.512   1.250   5.528 -0.5785  1.1723 -0.2105
  567MOL0     C76442   8.380   1.234   5.492 -0.3029  0.0889 -0.4905
  567MOL0     C76443   8.336   1.234   5.359 -0.4233 -0.4478 -0.5696
  567MOL0     C76444   8.431   1.261   5.259 -0.1487 -0.0198  0.1399
  567MOL0     O76445   8.385   1.253   5.133  0.0895 -0.6730 -0.4581
  567MOL0     C76446   8.285   1.349   5.105  0.1625 -0.7763  0.2068
  567MOL0     C76447   8.296   1.373   4.956 -0.4784 -0.7463  0.4358
  567MOL0     C76448   8.195   1.486   4.923 -0.6129  0.8287  0.2977
  567MOL0     C76449   8.206   1.543   4.780 -0.7065  0.3995  0.5727
  567MOL0     C76450   8.159   1.691   4.778 -0.3827 -0.2711  0.3134
  567MOL0     C76451   8.174   1.756   4.643  0.0737  0.0383  0.0520
  567MOL0     C76452   8.102   1.889   4.631  0.7490  0.2954 -0.1564
  567MOL0     C76453   7.976   1.878   4.542  0.1928 -0.0474 -0.3312
  567MOL0    Cl76454   8.028   1.838   4.370 -0.3357  0.5893  0.5318
  567MOL0     C76455   8.560   1.272   5.289  0.3847  0.4069  0.6661
  567MOL0     C76456   8.604   1.262   5.427  0.2427 -0.2228  0.3623
  567MOL0     O76457   8.457   1.476   5.673 -1.2004 -0.1237 -0.3243
  567MOL0     C76458   8.581   1.533   5.921  0.2007  0.2034  0.5664
  567MOL0     C76459   8.645   1.555   6.045  0.5255  0.3258 -0.0075
  567MOL0     N76460   8.891   1.501   6.735 -0.1796 -0.1129  0.4850
  567MOL0     N76461   8.901   1.437   6.856 -0.2543  0.0646  0.1460
  567MOL0     C76462  10.020   1.469   7.251  0.3017  1.0685 -0.0267
  567MOL0     C76463  10.156   1.474   7.212  0.0694  0.1103 -0.0228
  567MOL0     C76464  10.519   1.519   6.941  0.5963  0.2824 -0.1936
  567MOL0     C76465  10.605   1.447   7.033  0.4034  0.1844  0.1774
  567MOL0     C76466  10.739   1.465   7.036 -0.6360 -0.0729 -0.6328
  567MOL0     C76467  10.798   1.543   6.940 -0.7087  0.6336 -0.1283
  567MOL0     O76468  10.937   1.570   6.946  0.9067 -0.5192 -0.2484
  567MOL0     C76469  11.005   1.571   7.076  0.1614  0.7004 -0.1158
  567MOL0     C76470  10.945   1.664   7.190 -0.5398  0.3966 -0.3190
  567MOL0     C76471  10.984   1.810   7.165 -0.1350 -0.6383 -0.1060
  567MOL0     C76472  10.953   1.872   7.026  0.4684  0.0409  0.1635
  567MOL0     C76473  10.972   2.022   7.008  0.8939  0.0139  0.0303
  567MOL0     C76474  10.996   2.146   7.017  0.0793  0.4055  0.3200
  567MOL0     C76475  10.727   1.615   6.846 -0.5047  0.3484  0.0132
  567MOL0     C76476  10.589   1.604   6.851  0.0905  0.8626 -0.4603
  567MOL0     C76477  10.516   1.697   6.755 -0.8744 -0.1073 -0.4124
  567MOL0     H76478  10.152   1.301   6.915 -4.0285 -0.3896 -1.2678
  567MOL0     H76479   9.905   1.266   7.004  1.0277 -3.0006  0.8461
  567MOL0     H76480   9.703   1.342   7.054  0.2344 -1.8006 -1.2986
  567MOL0     H76481   9.764   1.208   7.152 -0.6669 -0.6592  0.5190
  567MOL0     H76482   9.554   1.397   7.253  1.9051  1.0677 -2.5098
  567MOL0     H76483   9.605   1.257   7.339  2.4168 -0.1051 -0.1491
  567MOL0     H76484   9.495   1.129   7.119  1.7989  0.3972 -0.9780
  567MOL0     H76485   9.431   1.291   7.094  1.9776 -2.3391 -2.6839
  567MOL0     H76486   9.378   1.138   7.355  0.3683  0.8055  0.5513
  567MOL0     H76487   9.328   1.304   7.325 -1.3018  0.3967  0.4577
  567MOL0     H76488   9.233   1.118   7.112  0.7405 -4.6236  0.6407
  567MOL0     H76489   9.190   1.062   7.252  0.2224 -0.7988 -4.0895
  567MOL0     H76490   9.002   1.203   7.208 -0.7335 -0.1482 -1.6521
  567MOL0     H76491   9.099   1.303   7.319 -0.4342  4.0535 -0.5352
  567MOL0     H76492   9.194   1.417   7.101 -0.3168  1.7225 -3.0483
  567MOL0     H76493   9.020   1.436   7.131  2.1154  1.6213  0.2899
  567MOL0     H76494   9.187   1.286   6.938  0.8014 -0.6151  3.4197
  567MOL0     H76495   9.025   1.211   6.956  1.5583 -1.8146  0.3838
  567MOL0     H76496   9.202   1.447   6.748  1.5013 -3.5858  4.8115
  567MOL0     H76497   8.975   1.692   6.572 -1.1988  0.6025 -4.4461
  567MOL0     H76498   9.145   1.629   6.564 -0.2128 -2.4765  1.8057
  567MOL0     H76499   9.065   1.451   6.419 -0.9351 -0.7880  0.2401
  567MOL0     H76500   8.894   1.481   6.450 -0.6514  0.7314 -0.6781
  567MOL0     H76501   9.072   1.610   6.264  0.7862  4.2175 -0.4094
  567MOL0     H76502   8.984   1.723   6.372  1.9364 -1.3645  0.7917
  567MOL0     H76503   8.862   1.671   6.142 -0.5581 -0.1551 -1.2953
  567MOL0     H76504   8.760   1.642   6.293 -0.7629  1.3122 -2.8522
  567MOL0     H76505   8.834   1.271   6.064 -1.2259 -2.4043 -1.5717
  567MOL0     H76506   8.703   1.238   5.826 -1.5698  0.7225 -0.5090
  567MOL0     H76507   8.322   1.184   5.569  0.0048 -2.0104 -1.5556
  567MOL0     H76508   8.235   1.215   5.325  0.2201 -2.8593 -1.3486
  567MOL0     H76509   8.187   1.312   5.138  0.2323  0.2993  1.7004
  567MOL0     H76510   8.297   1.442   5.162 -2.1469  0.5062 -1.2684
  567MOL0     H76511   8.398   1.398   4.924 -0.9004 -0.0283 -0.3898
  567MOL0     H76512   8.270   1.281   4.903  4.4682 -2.9099  1.1573
  567MOL0     H76513   8.100   1.440   4.954 -0.7975  1.0654  0.0876
  567MOL0     H76514   8.222   1.572   4.985  2.1191  1.0705 -1.0943
  567MOL0     H76515   8.140   1.489   4.712  0.3203  1.1761 -1.1100
  567MOL0     H76516   8.301   1.529   4.728 -0.0287  3.5828  0.7367
  567MOL0     H76517   8.229   1.741   4.846  0.9300 -1.8508  0.1727
  567MOL0     H76518   8.054   1.701   4.809  0.1283  1.2444  1.7052
  567MOL0     H76519   8.280   1.774   4.623  0.2456 -1.5233 -0.5914
  567MOL0     H76520   8.135   1.687   4.568 -1.1839 -0.1116  0.8102
  567MOL0     H76521   8.163   1.974   4.598  0.7323 -0.0654 -1.1275
  567MOL0     H76522   8.086   1.912   4.737  0.4381  0.1603 -0.1720
  567MOL0     H76523   7.915   1.795   4.579  0.0754  0.2704  0.1944
  567MOL0     H76524   7.910   1.965   4.544 -1.0033 -0.9137 -1.0870
  567MOL0     H76525   8.639   1.276   5.214 -0.3733  0.5300 -0.1389
  567MOL0     H76526   8.707   1.259   5.461  0.0883  0.2315  0.8793
  567MOL0     H76527   8.511   1.606   5.880  0.3744  1.9208  3.0594
  567MOL0     H76528   8.631   1.652   6.091 -0.9645 -0.4850  1.3208
  567MOL0     H76529   9.974   1.522   7.333 -0.6155  0.1326  0.0869
  567MOL0     H76530  10.211   1.544   7.275  1.5800 -3.0322  2.4217
  567MOL0     H76531  10.561   1.376   7.102  1.3266 -2.0444 -1.4241
  567MOL0     H76532  10.804   1.409   7.102  2.1466  3.9082  0.3729
  567MOL0     H76533  11.106   1.610   7.060  0.9909 -2.2764 -3.1467
  567MOL0     H76534  11.013   1.471   7.118 -0.7937  0.8295  0.4130
  567MOL0     H76535  10.994   1.641   7.285 -0.3446  4.6311  0.8285
  567MOL0     H76536  10.839   1.645   7.206 -0.3427 -2.0559 -1.5108
  567MOL0     H76537  11.092   1.813   7.178  0.6826 -0.1147 -4.9510
  567MOL0     H76538  10.941   1.869   7.246  1.4570 -1.7147  1.6187
  567MOL0     H76539  11.009   1.817   6.950 -1.1649 -1.4292 -0.0484
  567MOL0     H76540  10.851   1.855   6.989  1.4754  0.0498 -2.9675
  567MOL0     H76541  11.027   2.247   7.000 -0.5262  0.3610 -1.2077
  567MOL0     H76542  10.781   1.680   6.778  1.0831  0.8625  1.6947
  567MOL0     H76543  10.445   1.763   6.806 -3.0394 -2.2629 -0.4902
  567MOL0     H76544  10.578   1.776   6.712 -1.2931  0.0892 -0.6591
  567MOL0     H76545  10.452   1.650   6.681 -1.1475  0.8783 -0.8227
  568MOL0     O76546  10.163  10.731   2.093  0.4523  0.5347  0.2958
  568MOL0     C76547  10.090  10.829   2.043  0.6072 -0.1566 -0.8471
  568MOL0     O76548   9.960  10.819   2.005 -0.0751 -0.0597 -0.5655
  568MOL0     C76549   9.889  10.704   2.030 -0.6427  0.1837 -0.9538
  568MOL0     C76550   9.849  10.661   2.155  0.3389 -0.7294  0.1356
  568MOL0     C76551   9.754  10.566   2.167 -0.0182 -0.9621  0.1151
  568MOL0     C76552   9.701  10.493   2.062 -0.6298  0.1171 -0.7134
  568MOL0     O76553   9.601  10.402   2.087  0.6055 -0.7444  0.2348
  568MOL0     C76554   9.548  10.332   1.975 -0.4770 -0.5585 -0.2103
  568MOL0     C76555   9.456  10.432   1.902 -0.5302  0.9220  0.3376
  568MOL0     C76556   9.359  10.506   1.992  0.8859 -1.3306 -0.2654
  568MOL0     C76557   9.214  10.533   1.927 -0.6485 -0.2938 -0.0148
  568MOL0     C76558   9.138  10.621   2.022  0.7602  0.6629 -0.4553
  568MOL0     C76559   8.992  10.654   1.986 -0.0608  0.3234  0.1775
  568MOL0     C76560   8.982  10.752   1.877 -0.2928  0.5062  1.0250
  568MOL0     C76561   9.018  10.894   1.928  0.3500 -1.0995 -0.4822
  568MOL0     N76562   8.960  10.997   1.842  0.7221 -0.4208  0.7292
  568MOL0     C76563   8.859  11.084   1.893  0.2993  0.2373  0.1751
  568MOL0     C76564   8.832  11.155   1.774 -0.1024  0.3728 -0.3189
  568MOL0     C76565   8.731  11.253   1.750 -0.8654 -0.2981 -0.6259
  568MOL0     C76566   8.594  11.180   1.744 -0.7756 -0.2317 -0.0944
  568MOL0     C76567   8.481  11.288   1.753 -0.3647  0.4572  0.3826
  568MOL0     C76568   8.371  11.271   1.647  0.7149 -0.7948  0.2367
  568MOL0     O76569   8.344  11.134   1.613 -0.0257  1.2350  0.3273
  568MOL0     C76570   8.304  11.106   1.483  0.7271  0.1251 -0.3090
  568MOL0     C76571   8.305  11.190   1.371  0.0262  0.1572 -1.0225
  568MOL0     C76572   8.255  11.135   1.250 -0.6462 -0.0189  0.2963
  568MOL0     C76573   8.212  11.006   1.237  1.2610 -0.6262  0.4328
  568MOL0     C76574   8.170  10.964   1.104  0.7597 -0.8344  0.6278
  568MOL0     O76575   8.098  10.849   1.096  0.7887  0.5897 -0.6817
  568MOL0     C76576   8.025  10.822   0.986  0.3211 -0.7147  0.3437
  568MOL0     C76577   7.887  10.867   0.988 -1.6408 -0.2411  0.1001
  568MOL0     C76578   7.794  10.825   0.885 -0.2815 -0.0818 -0.4834
  568MOL0     C76579   7.851  10.752   0.778  0.2295 -0.0598  0.5959
  568MOL0     O76580   7.775  10.721   0.664  0.7721 -0.6685 -0.0737
  568MOL0     C76581   7.742  10.588   0.645  0.9586  0.0790 -0.0150
  568MOL0     C76582   7.620  10.587   0.552  0.2453 -0.8999 -0.5709
  568MOL0     C76583   7.544  10.448   0.536  0.2736  0.1372 -0.1877
  568MOL0     C76584   7.453  10.453   0.411 -0.1251 -0.8435  0.4694
  568MOL0     C76585   7.401  10.313   0.369  0.8687  0.1831  0.1827
  568MOL0     C76586   7.292  10.254   0.470 -0.0757 -0.1222 -0.3300
  568MOL0     C76587   7.330  10.179   0.594  0.7533  0.1915 -0.3624
  568MOL0     C76588   7.434  10.070   0.561 -0.3497  0.2131  0.8550
  568MOL0    Cl76589   7.388   9.950   0.431 -0.3130 -0.0486  0.5088
  568MOL0     C76590   7.985  10.713   0.786  0.0145  0.0269  0.1554
  568MOL0     C76591   8.070  10.743   0.891 -0.7747 -0.3666  0.1697
  568MOL0     O76592   8.218  11.025   1.009  0.4236 -0.0460  0.3940
  568MOL0     C76593   8.214  10.916   1.353 -0.1422 -0.4438 -0.3300
  568MOL0     C76594   8.264  10.967   1.469  0.3581 -0.5638  0.2038
  568MOL0     N76595   8.932  11.125   1.685  1.2357  0.2245  0.3160
  568MOL0     N76596   9.005  11.020   1.716 -0.3631 -0.4112  1.0728
  568MOL0     C76597   9.751  10.521   1.933  0.6977 -1.0813  0.7546
  568MOL0     C76598   9.833  10.634   1.916 -0.1469 -0.1142  0.2738
  568MOL0     C76599  10.168  10.949   2.006  1.4747  0.6033 -0.2967
  568MOL0     C76600  10.174  10.993   1.874 -0.1721  0.8488 -0.1150
  568MOL0     C76601  10.261  11.091   1.836  0.4691  0.5694  0.1400
  568MOL0     C76602  10.349  11.150   1.933 -0.2857 -0.0709  1.4106
  568MOL0     O76603  10.428  11.257   1.909 -0.5045 -0.8001  0.5804
  568MOL0     C76604  10.414  11.386   1.983  0.5035 -1.0752 -0.3527
  568MOL0     C76605  10.275  11.443   1.976 -0.2399 -0.6909 -0.2740
  568MOL0     C76606  10.286  11.572   2.066 -0.0706 -0.1816 -0.1090
  568MOL0     C76607  10.156  11.595   2.155 -0.5453 -0.9960  0.0111
  568MOL0     C76608  10.137  11.488   2.266 -0.4527 -0.0025 -0.6237
  568MOL0     C76609  10.129  11.392   2.349  0.3860  0.2647  0.3067
  568MOL0     C76610  10.346  11.103   2.065  0.3032  0.4941 -0.6651
  568MOL0     C76611  10.258  11.003   2.102 -0.5644  0.4944  0.3795
  568MOL0     C76612  10.242  10.975   2.249  0.2853 -0.0709 -0.5142
  568MOL0     H76613   9.895  10.708   2.241  0.9676 -0.2916 -0.4310
  568MOL0     H76614   9.721  10.532   2.264 -1.1308 -1.9606 -0.5772
  568MOL0     H76615   9.619  10.285   1.906  1.1768 -0.9758  1.6846
  568MOL0     H76616   9.483  10.261   2.027  0.8521 -0.1757  2.1308
  568MOL0     H76617   9.386  10.373   1.842 -4.6673  3.8959  1.7860
  568MOL0     H76618   9.527  10.488   1.841  1.3474 -2.4952 -0.8955
  568MOL0     H76619   9.398  10.604   2.019 -0.8366 -0.8769  0.7989
  568MOL0     H76620   9.342  10.445   2.082  1.9081 -3.7415 -1.6265
  568MOL0     H76621   9.210  10.573   1.825 -3.5666  2.8084  1.1303
  568MOL0     H76622   9.157  10.440   1.933 -2.5383  0.7624 -0.7160
  568MOL0     H76623   9.137  10.578   2.123 -2.1406  0.0226 -0.6630
  568MOL0     H76624   9.202  10.709   2.031  7.5172 -3.6372  0.9152
  568MOL0     H76625   8.937  10.562   1.964 -1.2603  0.5428  2.0860
  568MOL0     H76626   8.932  10.703   2.063 -2.3677  0.2871 -1.5040
  568MOL0     H76627   8.875  10.750   1.851 -0.1511 -3.6056  0.1859
  568MOL0     H76628   9.043  10.714   1.795 -3.1373 -2.4775  0.0700
  568MOL0     H76629   8.988  10.907   2.033 -1.8607 -0.9023 -1.0731
  568MOL0     H76630   9.126  10.904   1.925  0.1834  2.9218  0.8064
  568MOL0     H76631   8.808  11.079   1.988  2.3574  4.2896  1.7498
  568MOL0     H76632   8.732  11.334   1.823 -0.9365 -0.7859 -0.0727
  568MOL0     H76633   8.750  11.303   1.655  0.7147  0.6930  0.1790
  568MOL0     H76634   8.587  11.122   1.651 -0.7027 -1.4501  0.6432
  568MOL0     H76635   8.584  11.104   1.821 -0.7411  1.4015  1.6092
  568MOL0     H76636   8.533  11.381   1.728 -0.1383 -0.2498 -2.0246
  568MOL0     H76637   8.445  11.298   1.856  1.3460 -0.0162  1.0560
  568MOL0     H76638   8.417  11.330   1.567 -1.5099  1.4182  0.4472
  568MOL0     H76639   8.278  11.322   1.674  0.0106 -1.1071 -1.4651
  568MOL0     H76640   8.336  11.293   1.386 -1.6449  0.3887  1.4429
  568MOL0     H76641   8.248  11.211   1.172 -0.6396 -0.2493  0.0712
  568MOL0     H76642   7.856  10.938   1.065 -2.2636 -1.4807  1.0201
  568MOL0     H76643   7.689  10.846   0.903 -0.2712 -0.1719 -0.3174
  568MOL0     H76644   7.825  10.537   0.595  1.3415  0.4418  0.2385
  568MOL0     H76645   7.717  10.549   0.744  1.4625  0.5455  0.3053
  568MOL0     H76646   7.561  10.657   0.612  0.4911 -0.6280 -0.6450
  568MOL0     H76647   7.634  10.635   0.455 -0.3182  0.7980  0.1463
  568MOL0     H76648   7.609  10.360   0.524  0.6436  0.2780  0.7448
  568MOL0     H76649   7.479  10.435   0.622  3.0620  1.1412  2.2203
  568MOL0     H76650   7.497  10.505   0.326 -1.4659  1.2480  0.9955
  568MOL0     H76651   7.368  10.513   0.445  1.6415 -0.4369  4.8232
  568MOL0     H76652   7.476  10.236   0.351 -0.7893 -1.9671  1.8828
  568MOL0     H76653   7.347  10.328   0.275 -1.6019 -0.0548  1.4692
  568MOL0     H76654   7.226  10.339   0.490  0.4280  0.1045  0.4657
  568MOL0     H76655   7.228  10.187   0.413 -0.9293  1.9284 -1.8994
  568MOL0     H76656   7.240  10.131   0.634  0.1140  2.4962  1.1570
  568MOL0     H76657   7.376  10.240   0.673  0.9950  0.2804 -0.5725
  568MOL0     H76658   7.534  10.108   0.541  0.1081 -0.5144  1.7019
  568MOL0     H76659   7.456  10.006   0.647  1.8368 -1.1242 -0.5980
  568MOL0     H76660   8.033  10.654   0.708  1.5553  0.1723  0.9500
  568MOL0     H76661   8.174  10.714   0.896 -0.1866  1.6033  0.2980
  568MOL0     H76662   8.174  10.816   1.361 -2.0328  0.3592  0.9149
  568MOL0     H76663   8.264  10.901   1.555 -0.1492 -1.0036 -0.1328
  568MOL0     H76664   9.723  10.461   1.847  0.5701  1.1312 -0.8157
  568MOL0     H76665   9.883  10.647   1.821  1.7370  0.7397  1.3362
  568MOL0     H76666  10.112  10.953   1.795  1.7534  1.8981 -2.3074
  568MOL0     H76667  10.260  11.119   1.731 -0.6646 -0.8360 -0.2608
  568MOL0     H76668  10.488  11.453   1.938  0.1893 -1.0996 -0.9159
  568MOL0     H76669  10.438  11.372   2.089 -0.3188  0.0680  0.0065
  568MOL0     H76670  10.212  11.363   2.016  0.5082 -1.3970 -0.4777
  568MOL0     H76671  10.249  11.473   1.874  1.4257 -2.3800 -1.2548
  568MOL0     H76672  10.296  11.661   2.004 -1.7092 -1.0080 -1.6479
  568MOL0     H76673  10.369  11.558   2.137  0.1534 -0.4643 -0.4298
  568MOL0     H76674  10.157  11.697   2.194 -3.3113 -1.6718  2.1790
  568MOL0     H76675  10.062  11.580   2.099 -1.5702  1.8377  0.8197
  568MOL0     H76676  10.101  11.321   2.424 -0.8406 -0.8551 -1.1722
  568MOL0     H76677  10.405  11.149   2.143 -1.6310  0.5861  0.8022
  568MOL0     H76678  10.308  11.031   2.316  1.8873 -1.4281 -0.8969
  568MOL0     H76679  10.138  10.998   2.273 -0.8188 -0.8402 -4.0043
  568MOL0     H76680  10.254  10.869   2.274 -1.4473 -0.4168 -0.9915
  569MOL0     O76681   0.266   3.558   3.291 -0.6342 -0.3885 -0.0434
  569MOL0     C76682   0.321   3.669   3.284 -0.0462 -0.3715 -0.4640
  569MOL0     O76683   0.298   3.764   3.366  0.7324 -0.3761 -0.3192
  569MOL0     C76684   0.184   3.748   3.439  0.1976  0.1684 -0.5747
  569MOL0     C76685   0.190   3.751   3.576 -0.0179 -0.5492 -0.1245
  569MOL0     C76686   0.076   3.746   3.654  0.4398 -0.4318  0.2752
  569MOL0     C76687  -0.053   3.745   3.590 -0.1823 -0.6039  0.5145
  569MOL0     O76688  -0.181   3.748   3.647  0.7000  0.1247  0.8719
  569MOL0     C76689  -0.262   3.629   3.640  0.4979 -0.1195  0.1825
  569MOL0     C76690  -0.399   3.650   3.707  0.1462 -0.7049 -0.4035
  569MOL0     C76691  -0.470   3.758   3.629 -0.6202 -0.2325  0.0969
  569MOL0     C76692  -0.606   3.786   3.692  0.7972  1.0347 -0.4760
  569MOL0     C76693  -0.676   3.886   3.601  0.5702 -0.3563  0.7908
  569MOL0     C76694  -0.637   4.033   3.623  0.2710  0.0748  0.1672
  569MOL0     C76695  -0.649   4.115   3.498  0.2049  0.0939  0.8330
  569MOL0     C76696  -0.794   4.117   3.449  0.3667 -0.2746 -0.8741
  569MOL0     N76697  -0.816   4.026   3.327  0.0077  0.0066 -0.2675
  569MOL0     C76698  -0.752   4.053   3.207  0.5964 -0.0038 -0.9883
  569MOL0     C76699  -0.812   3.978   3.120 -0.3612  0.0089 -0.1312
  569MOL0     C76700  -0.759   3.955   2.982  0.0174 -0.4938  0.0860
  569MOL0     C76701  -0.826   4.040   2.872 -0.2836 -0.5398  0.0308
  569MOL0     C76702  -0.756   4.176   2.870  0.3194 -0.4104  0.0389
  569MOL0     C76703  -0.842   4.264   2.784 -0.0541 -0.3488 -1.2879
  569MOL0     O76704  -0.818   4.221   2.647  0.2095 -0.4394 -0.3174
  569MOL0     C76705  -0.871   4.291   2.537 -0.6836  0.1290 -0.4616
  569MOL0     C76706  -0.942   4.411   2.552 -0.0304  0.0052 -0.5461
  569MOL0     C76707  -1.009   4.472   2.452  0.5728  0.0286 -0.0231
  569MOL0     C76708  -0.992   4.428   2.321  0.3789 -0.5527  0.2347
  569MOL0     C76709  -1.062   4.499   2.205 -0.2077 -0.4501  0.6047
  569MOL0     O76710  -1.089   4.423   2.090 -0.1948 -0.5704  0.3281
  569MOL0     C76711  -1.178   4.450   1.990 -0.8714  0.8790 -0.1229
  569MOL0     C76712  -1.180   4.348   1.894  0.2595 -0.5314 -0.2968
  569MOL0     C76713  -1.271   4.358   1.787  1.2682 -0.8157 -0.0021
  569MOL0     C76714  -1.339   4.480   1.762  0.4505  0.7485  0.5205
  569MOL0     O76715  -1.411   4.508   1.650 -0.1821 -0.2477 -0.7044
  569MOL0     C76716  -1.550   4.486   1.672 -0.2520 -0.0947 -0.2508
  569MOL0     C76717  -1.642   4.564   1.575  0.1764 -0.8227 -0.6515
  569MOL0     C76718  -1.781   4.502   1.569  0.7943 -0.6397  0.9079
  569MOL0     C76719  -1.869   4.594   1.463 -0.1477 -1.4168  0.5439
  569MOL0     C76720  -2.000   4.522   1.447 -0.2124 -0.3721 -0.2206
  569MOL0     C76721  -2.058   4.571   1.320  0.4428  1.0000  1.3981
  569MOL0     C76722  -2.190   4.492   1.293  0.2239 -0.0457  0.6793
  569MOL0     C76723  -2.254   4.543   1.157  0.0663  0.2812 -0.1894
  569MOL0    Cl76724  -2.280   4.717   1.163  0.1073 -0.3766 -0.5866
  569MOL0     C76725  -1.326   4.585   1.851 -0.1400  0.6131 -0.1932
  569MOL0     C76726  -1.253   4.563   1.970  0.5219 -0.0355 -0.1828
  569MOL0     O76727  -1.103   4.609   2.231 -0.1181 -0.3508  0.2577
  569MOL0     C76728  -0.898   4.320   2.300  1.2793 -0.1656  0.0710
  569MOL0     C76729  -0.847   4.241   2.407  0.4982  0.4869 -0.0989
  569MOL0     N76730  -0.909   3.905   3.189  0.1930 -0.4385  0.4022
  569MOL0     N76731  -0.914   3.937   3.309  0.3890 -0.8342 -0.9251
  569MOL0     C76732  -0.061   3.741   3.446  0.5358  0.2717 -0.7779
  569MOL0     C76733   0.058   3.749   3.376  1.2969  0.3876 -0.0437
  569MOL0     C76734   0.453   3.691   3.212  0.8953  0.5046  0.0364
  569MOL0     C76735   0.553   3.592   3.213 -0.4069  0.0407  0.0880
  569MOL0     C76736   0.675   3.622   3.159  0.4495 -0.1498  0.3543
  569MOL0     C76737   0.700   3.749   3.104  0.7604 -0.7558  0.8669
  569MOL0     O76738   0.814   3.786   3.049 -0.4662  0.5736 -0.5649
  569MOL0     C76739   0.898   3.676   3.009  0.7003 -0.2813 -0.2847
  569MOL0     C76740   0.987   3.623   3.126 -0.6468  0.1810  0.4528
  569MOL0     C76741   1.136   3.654   3.091  0.4684 -0.9214  0.3193
  569MOL0     C76742   1.237   3.575   3.177 -1.4159 -0.9416 -0.0717
  569MOL0     C76743   1.357   3.664   3.170  0.1650 -0.2884 -0.2484
  569MOL0     C76744   1.461   3.736   3.173  0.8286  0.9838 -0.2078
  569MOL0     C76745   0.602   3.852   3.113 -0.0742  0.4493 -0.0147
  569MOL0     C76746   0.479   3.827   3.166 -0.6635  0.5881  0.8295
  569MOL0     C76747   0.379   3.939   3.155 -0.2348 -0.1422 -0.3532
  569MOL0     H76748   0.286   3.741   3.626  0.8713 -1.7760 -1.9548
  569MOL0     H76749   0.090   3.762   3.761 -1.1822  1.3473  0.2849
  569MOL0     H76750  -0.286   3.605   3.536 -0.1199 -0.1629  0.3350
  569MOL0     H76751  -0.197   3.557   3.691  0.3331 -1.4445 -1.4200
  569MOL0     H76752  -0.399   3.687   3.810 -3.7276  0.1835 -0.5884
  569MOL0     H76753  -0.454   3.557   3.724  0.0563 -0.2502  2.2731
  569MOL0     H76754  -0.477   3.739   3.521 -4.3475  1.1856 -0.0582
  569MOL0     H76755  -0.413   3.850   3.644  1.1340 -1.1997 -0.3073
  569MOL0     H76756  -0.669   3.697   3.681  1.2860  0.7155 -0.6994
  569MOL0     H76757  -0.609   3.818   3.797 -1.3114  1.0429 -0.4951
  569MOL0     H76758  -0.655   3.864   3.496 -0.2607 -3.2997  1.1496
  569MOL0     H76759  -0.782   3.873   3.622  0.5993  1.0009  1.9347
  569MOL0     H76760  -0.696   4.083   3.700  1.3751  1.9023 -0.1259
  569MOL0     H76761  -0.534   4.022   3.655  1.0197 -2.7211 -2.6243
  569MOL0     H76762  -0.589   4.060   3.425  0.5185 -2.2650  2.7503
  569MOL0     H76763  -0.615   4.218   3.514 -0.6778  0.9516 -2.1962
  569MOL0     H76764  -0.857   4.090   3.534  0.8590  2.5368  0.5005
  569MOL0     H76765  -0.818   4.216   3.411  2.3550  0.3573 -0.5782
  569MOL0     H76766  -0.681   4.130   3.180 -0.5108  1.7340  0.8242
  569MOL0     H76767  -0.651   3.967   2.977  0.1841 -2.2017 -2.5388
  569MOL0     H76768  -0.784   3.851   2.956  1.1149 -0.6572 -0.3461
  569MOL0     H76769  -0.816   4.000   2.771 -0.6283 -0.2089 -0.1375
  569MOL0     H76770  -0.932   4.045   2.898  0.1592 -2.0325  2.4838
  569MOL0     H76771  -0.661   4.165   2.818  0.6746 -2.6504  1.0429
  569MOL0     H76772  -0.747   4.218   2.970  0.4771  1.2425 -0.6385
  569MOL0     H76773  -0.819   4.368   2.808  3.1687 -0.6473 -2.6699
  569MOL0     H76774  -0.947   4.251   2.815  0.4883  1.1309  1.5269
  569MOL0     H76775  -0.970   4.440   2.653 -0.2837  2.1182 -1.1828
  569MOL0     H76776  -1.088   4.540   2.482  2.3508  1.3277  1.9419
  569MOL0     H76777  -1.133   4.251   1.899 -0.0364 -0.7107 -0.8380
  569MOL0     H76778  -1.287   4.273   1.721 -0.6996 -1.1100  0.8017
  569MOL0     H76779  -1.571   4.380   1.654  0.8241 -0.3987  0.2209
  569MOL0     H76780  -1.573   4.516   1.775  0.8725  0.7550 -0.2292
  569MOL0     H76781  -1.651   4.665   1.616  0.4709 -1.9638  2.5015
  569MOL0     H76782  -1.598   4.567   1.475 -1.7436 -0.3811 -1.5334
  569MOL0     H76783  -1.774   4.400   1.531 -2.6996 -0.5906 -0.2489
  569MOL0     H76784  -1.815   4.505   1.673  1.6985  4.3447  1.3187
  569MOL0     H76785  -1.810   4.592   1.370 -0.3449 -0.9428  0.4049
  569MOL0     H76786  -1.883   4.699   1.492  3.4146  0.3681 -3.0672
  569MOL0     H76787  -2.052   4.556   1.537  0.1045 -1.2316  0.2951
  569MOL0     H76788  -1.976   4.416   1.451  0.4232 -0.2243 -0.0197
  569MOL0     H76789  -2.078   4.679   1.317  1.1808  1.1148  0.4790
  569MOL0     H76790  -1.996   4.537   1.237  0.2581  2.6837  0.5348
  569MOL0     H76791  -2.274   4.499   1.362 -2.8077 -3.0640 -2.3680
  569MOL0     H76792  -2.174   4.389   1.260 -2.0747  0.2732 -1.7670
  569MOL0     H76793  -2.185   4.523   1.074  0.0251 -3.6497  0.5319
  569MOL0     H76794  -2.345   4.487   1.136  1.8607 -3.2684  0.6581
  569MOL0     H76795  -1.373   4.681   1.834 -0.9812  0.1203 -0.7625
  569MOL0     H76796  -1.268   4.645   2.039  3.8409  2.5136 -2.1908
  569MOL0     H76797  -0.882   4.288   2.198  0.7300 -0.1955 -0.0080
  569MOL0     H76798  -0.785   4.157   2.379 -0.8290  0.2499 -2.5660
  569MOL0     H76799  -0.158   3.730   3.398  0.3737 -1.7427 -0.1094
  569MOL0     H76800   0.050   3.750   3.268 -1.4088  1.4158  0.0730
  569MOL0     H76801   0.535   3.494   3.255 -1.6224 -0.5714 -1.7656
  569MOL0     H76802   0.743   3.538   3.159  0.6395  0.0022  0.0429
  569MOL0     H76803   0.963   3.726   2.937  2.1585  1.6283  2.1860
  569MOL0     H76804   0.838   3.591   2.976 -0.6427  0.2076  0.7956
  569MOL0     H76805   0.980   3.516   3.148 -4.9392  0.5071  1.6359
  569MOL0     H76806   0.952   3.663   3.222  3.3725  1.7739  1.4450
  569MOL0     H76807   1.141   3.758   3.124 -0.0665  0.2668 -2.9420
  569MOL0     H76808   1.161   3.641   2.985 -0.8778  1.1035 -0.3087
  569MOL0     H76809   1.199   3.579   3.279  2.6261  2.4780  1.5929
  569MOL0     H76810   1.246   3.473   3.138 -2.4730 -1.3055  0.5624
  569MOL0     H76811   1.554   3.788   3.181  0.7047  0.9223  3.3636
  569MOL0     H76812   0.624   3.946   3.063  1.7463 -0.1049 -0.3309
  569MOL0     H76813   0.277   3.901   3.146  0.8440 -2.7583 -3.3020
  569MOL0     H76814   0.402   3.997   3.245  1.1758 -1.5173  0.2287
  569MOL0     H76815   0.397   4.006   3.071  0.3272 -1.5687 -1.4145
  570MOL0     O76816   9.227   2.735   8.721  0.4824  0.1984 -0.8385
  570MOL0     C76817   9.212   2.845   8.658 -0.6098  0.3899 -0.7881
  570MOL0     O76818   9.311   2.945   8.625  0.3748  0.6432 -0.7789
  570MOL0     C76819   9.445   2.936   8.648  0.1788  0.4821  0.1377
  570MOL0     C76820   9.517   3.055   8.669 -0.5382  0.0520  0.1945
  570MOL0     C76821   9.650   3.060   8.709 -0.1670  0.6282  0.7077
  570MOL0     C76822   9.720   2.941   8.722  0.7012  0.0208 -1.1533
  570MOL0     O76823   9.850   2.934   8.765 -0.4978 -0.2289 -0.0474
  570MOL0     C76824   9.941   3.046   8.772  0.5259  0.6410  0.1578
  570MOL0     C76825  10.081   3.006   8.774  0.4439 -0.1962  0.1555
  570MOL0     C76826  10.124   2.883   8.858  1.5929 -0.1265  0.6641
  570MOL0     C76827  10.274   2.875   8.848  0.4927 -0.0904  0.4426
  570MOL0     C76828  10.345   2.770   8.925  1.4151 -0.7470 -0.1094
  570MOL0     C76829  10.491   2.753   8.889 -0.3165 -0.0985 -0.5966
  570MOL0     C76830  10.590   2.867   8.907  0.4450 -0.2488 -0.0594
  570MOL0     C76831  10.731   2.827   8.867 -0.6788 -0.7886  0.0339
  570MOL0     N76832  10.825   2.935   8.855  0.0090 -0.3398  1.4992
  570MOL0     C76833  10.863   3.030   8.952  0.2537 -0.1366 -0.2612
  570MOL0     C76834  10.967   3.097   8.902  0.1483  0.2980  1.0041
  570MOL0     C76835  11.053   3.188   8.968 -0.3133 -0.1862 -0.3806
  570MOL0     C76836  10.973   3.308   9.021  0.1799  0.1659  0.2906
  570MOL0     C76837  10.885   3.374   8.909  0.1153  1.1035 -0.3288
  570MOL0     C76838  10.775   3.464   8.963 -0.2401 -1.4212 -0.3396
  570MOL0     O76839  10.840   3.598   8.984 -0.0281  0.7378  0.4659
  570MOL0     C76840  10.759   3.700   9.020 -0.1557  0.5632 -0.2669
  570MOL0     C76841  10.823   3.810   9.083  0.0643  0.0955 -0.0438
  570MOL0     C76842  10.756   3.923   9.127 -0.0616 -1.1100  0.0468
  570MOL0     C76843  10.622   3.924   9.103  0.3870 -1.4885 -0.3429
  570MOL0     C76844  10.544   4.050   9.141 -0.6173 -0.3603 -0.3538
  570MOL0     O76845  10.428   4.036   9.202 -0.1382  0.1493 -0.1428
  570MOL0     C76846  10.355   4.149   9.233 -0.9566 -0.5582  0.7275
  570MOL0     C76847  10.234   4.181   9.162 -0.8024  0.4759  0.0637
  570MOL0     C76848  10.153   4.288   9.202 -0.3740  1.1684  0.5933
  570MOL0     C76849  10.195   4.376   9.294  0.0178 -1.1165 -0.6602
  570MOL0     O76850  10.120   4.474   9.355 -0.1852 -0.3308 -0.1503
  570MOL0     C76851   9.999   4.439   9.423 -0.2222  0.2542 -0.0734
  570MOL0     C76852   9.977   4.548   9.525  0.1163 -0.3402 -0.4467
  570MOL0     C76853   9.946   4.681   9.462 -0.3629  0.8526 -0.2357
  570MOL0     C76854   9.912   4.789   9.558 -0.5877  0.3571  0.4759
  570MOL0     C76855   9.769   4.794   9.593 -0.2519  0.2754 -0.3195
  570MOL0     C76856   9.746   4.869   9.726 -0.8861 -0.6571  0.6432
  570MOL0     C76857   9.599   4.854   9.761  0.2776 -0.3889 -0.0984
  570MOL0     C76858   9.572   4.724   9.828  0.3153 -0.4541 -0.5741
  570MOL0    Cl76859   9.633   4.719  10.001  0.2573  0.1445 -0.0288
  570MOL0     C76860  10.321   4.359   9.351  0.7209 -0.0706 -0.6304
  570MOL0     C76861  10.400   4.243   9.323  0.2864 -0.7757 -0.1250
  570MOL0     O76862  10.615   4.152   9.145 -0.3348  0.0844  0.2013
  570MOL0     C76863  10.555   3.815   9.047  0.0858 -0.6023 -0.0352
  570MOL0     C76864  10.621   3.694   9.021 -0.1573 -0.2291 -0.6726
  570MOL0     N76865  10.982   3.055   8.768 -0.0413 -0.3921 -0.5883
  570MOL0     N76866  10.902   2.955   8.741  0.3942  0.6330 -1.3703
  570MOL0     C76867   9.658   2.821   8.706  0.1173 -0.2586  0.2103
  570MOL0     C76868   9.523   2.818   8.668 -0.3598 -0.4253  0.1174
  570MOL0     C76869   9.071   2.884   8.615  0.9698  0.3936 -0.3573
  570MOL0     C76870   9.032   3.022   8.613  0.6999 -0.3914 -0.2980
  570MOL0     C76871   8.903   3.056   8.575  0.5551  0.9402 -0.2172
  570MOL0     C76872   8.802   2.965   8.554 -0.3132  0.1697 -0.3446
  570MOL0     O76873   8.678   3.015   8.548 -0.0801  0.0263 -0.0513
  570MOL0     C76874   8.568   2.939   8.505 -0.2644 -0.6163  0.4163
  570MOL0     C76875   8.551   2.967   8.355  0.5825  0.4867  0.1481
  570MOL0     C76876   8.408   2.916   8.334  0.5257 -0.2139 -1.0790
  570MOL0     C76877   8.360   2.952   8.193 -0.6241  0.7584  0.3119
  570MOL0     C76878   8.239   2.873   8.165  0.0623  0.8527  0.3314
  570MOL0     C76879   8.137   2.809   8.141  0.0938 -0.2171  0.2236
  570MOL0     C76880   8.838   2.829   8.558  0.2027  0.3355 -1.5686
  570MOL0     C76881   8.965   2.790   8.597 -1.1781 -0.1612 -0.3563
  570MOL0     C76882   8.995   2.640   8.597 -0.2668 -0.5597  0.1483
  570MOL0     H76883   9.463   3.149   8.660  0.8352  1.0604  1.9107
  570MOL0     H76884   9.679   3.163   8.727 -4.9861  2.3221  0.4739
  570MOL0     H76885   9.921   3.110   8.686 -1.4163 -2.9931 -2.3584
  570MOL0     H76886   9.919   3.084   8.872  1.2989  0.2448  0.4931
  570MOL0     H76887  10.127   3.096   8.815  1.6558 -1.5074  1.7883
  570MOL0     H76888  10.125   2.993   8.674  3.5733  3.9816  0.7431
  570MOL0     H76889  10.081   2.789   8.823  1.2691 -0.2571  1.4018
  570MOL0     H76890  10.096   2.903   8.962 -0.2851  2.6930 -0.2386
  570MOL0     H76891  10.305   2.875   8.743 -2.5128  0.8812 -0.5431
  570MOL0     H76892  10.310   2.972   8.884  0.0071  2.2269 -4.4618
  570MOL0     H76893  10.330   2.802   9.028 -0.2560  0.8459 -0.7937
  570MOL0     H76894  10.293   2.675   8.910 -1.1765  0.3594  1.1108
  570MOL0     H76895  10.522   2.662   8.941 -3.0659 -1.2168 -0.7355
  570MOL0     H76896  10.492   2.733   8.781 -2.0041 -0.4969 -0.5608
  570MOL0     H76897  10.601   2.895   9.012  1.4541 -1.8949  0.3229
  570MOL0     H76898  10.563   2.960   8.857 -2.1868 -0.6681  0.4526
  570MOL0     H76899  10.770   2.754   8.938  0.7724  0.1792  0.2581
  570MOL0     H76900  10.728   2.778   8.768 -3.0278  1.9072 -1.3712
  570MOL0     H76901  10.808   3.045   9.045 -1.2935  3.5747 -1.6005
  570MOL0     H76902  11.099   3.133   9.051  1.5029  1.3288 -0.3149
  570MOL0     H76903  11.129   3.208   8.892  1.5860  1.0192  1.6891
  570MOL0     H76904  10.899   3.267   9.089 -1.7062  0.3871 -1.5304
  570MOL0     H76905  11.026   3.390   9.071 -5.2000  2.3767  3.2144
  570MOL0     H76906  10.834   3.295   8.854  1.2032  1.1244 -1.4300
  570MOL0     H76907  10.950   3.417   8.831  0.8322 -0.0247 -0.3761
  570MOL0     H76908  10.725   3.415   9.047 -1.8157 -1.4324 -1.2221
  570MOL0     H76909  10.694   3.484   8.892  0.5561  2.5612 -0.3346
  570MOL0     H76910  10.928   3.797   9.108  0.7316  1.7351 -1.6693
  570MOL0     H76911  10.813   3.992   9.189  3.3337 -2.0733 -1.7344
  570MOL0     H76912  10.196   4.101   9.099  0.2761  0.5822 -0.7508
  570MOL0     H76913  10.051   4.292   9.164 -0.6633 -3.1978  0.4176
  570MOL0     H76914   9.914   4.416   9.358  0.1339 -3.3631  0.5057
  570MOL0     H76915  10.007   4.343   9.477 -3.2315 -0.8852 -1.4012
  570MOL0     H76916   9.887   4.499   9.566  0.2558 -0.9475 -0.8525
  570MOL0     H76917  10.063   4.563   9.591  0.9369  0.9719 -1.7646
  570MOL0     H76918  10.025   4.716   9.394 -0.6357  4.9347  1.3125
  570MOL0     H76919   9.868   4.663   9.388 -0.0466 -1.0789 -0.1731
  570MOL0     H76920   9.952   4.881   9.515 -1.7596  0.2907 -0.8268
  570MOL0     H76921   9.968   4.750   9.644  1.1663 -0.7651 -1.0888
  570MOL0     H76922   9.745   4.690   9.614  4.7203 -0.5677  3.0275
  570MOL0     H76923   9.718   4.837   9.506 -0.7544  1.7952  0.6730
  570MOL0     H76924   9.809   4.820   9.801  0.4454 -4.5340 -2.6240
  570MOL0     H76925   9.769   4.974   9.707  0.8829 -1.0441  0.4952
  570MOL0     H76926   9.537   4.857   9.671 -0.3827 -1.3998  0.2931
  570MOL0     H76927   9.574   4.931   9.834  3.0110 -1.1729  1.8390
  570MOL0     H76928   9.466   4.698   9.825  0.7616 -2.3338 -1.4847
  570MOL0     H76929   9.623   4.644   9.774 -0.1124 -0.7324 -0.5601
  570MOL0     H76930  10.357   4.418   9.434  0.1609  0.6133 -0.8658
  570MOL0     H76931  10.484   4.218   9.387 -0.6061  0.3078  1.5488
  570MOL0     H76932  10.450   3.830   9.026  0.2158  1.4007  0.5171
  570MOL0     H76933  10.562   3.605   8.999  0.8908 -0.9075 -0.7952
  570MOL0     H76934   9.705   2.723   8.709 -0.1795 -0.3952  0.8464
  570MOL0     H76935   9.465   2.732   8.636  0.0944 -0.2748 -1.1477
  570MOL0     H76936   9.112   3.073   8.666  1.6362 -2.3293  0.2603
  570MOL0     H76937   8.880   3.162   8.567 -3.3241  0.4980  2.3758
  570MOL0     H76938   8.478   2.975   8.556 -1.1598 -1.4447 -0.5428
  570MOL0     H76939   8.573   2.832   8.522 -1.6349 -0.5268  1.5283
  570MOL0     H76940   8.623   2.903   8.304  0.1003 -0.1279  0.2307
  570MOL0     H76941   8.551   3.072   8.322  1.4469 -0.2855 -2.5316
  570MOL0     H76942   8.338   2.958   8.407  0.0781 -3.2447  0.4191
  570MOL0     H76943   8.392   2.809   8.353 -2.3566  0.0273 -1.5918
  570MOL0     H76944   8.345   3.060   8.196 -1.3984  0.6359  1.3442
  570MOL0     H76945   8.432   2.922   8.116 -1.6975 -1.1628 -0.0248
  570MOL0     H76946   8.046   2.755   8.128 -1.2193  1.7500  0.8651
  570MOL0     H76947   8.765   2.754   8.533  3.1338 -2.5330 -2.2277
  570MOL0     H76948   8.909   2.579   8.568 -0.2221 -1.0197  0.9387
  570MOL0     H76949   9.084   2.602   8.547  2.3380  2.2071  2.2720
  570MOL0     H76950   9.022   2.603   8.697 -1.3113 -2.0408 -0.0990
  571MOL0     O76951   9.002   5.758   2.209 -0.1192 -0.2780 -0.7921
  571MOL0     C76952   9.041   5.832   2.299  0.1466  0.4652  0.3651
  571MOL0     O76953   8.963   5.857   2.407  0.2781 -0.2678 -0.3184
  571MOL0     C76954   8.837   5.806   2.413 -0.4527  0.6173 -0.1666
  571MOL0     C76955   8.806   5.669   2.421  0.4017  0.6619  0.7125
  571MOL0     C76956   8.668   5.636   2.403 -0.6739  0.1479  0.0055
  571MOL0     C76957   8.565   5.727   2.373  0.5426 -0.7917 -0.8737
  571MOL0     O76958   8.429   5.711   2.365 -0.1243 -0.0052  0.2489
  571MOL0     C76959   8.394   5.577   2.344 -0.0146 -0.0062 -0.1395
  571MOL0     C76960   8.258   5.555   2.280 -1.0837 -0.3551  0.7315
  571MOL0     C76961   8.145   5.603   2.368 -0.2343 -0.0119 -0.5079
  571MOL0     C76962   8.023   5.546   2.292 -0.7247  0.0516  0.3516
  571MOL0     C76963   7.892   5.577   2.364 -0.1029 -0.7323  1.0936
  571MOL0     C76964   7.785   5.473   2.315 -0.2861 -0.0824 -0.1238
  571MOL0     C76965   7.634   5.518   2.291 -0.3873 -0.5145  0.2076
  571MOL0     C76966   7.561   5.548   2.430  1.1440 -0.5161 -0.9431
  571MOL0     N76967   7.517   5.429   2.506  0.3080  0.1225  0.1246
  571MOL0     C76968   7.596   5.332   2.565 -0.4212  0.2604 -0.1689
  571MOL0     C76969   7.512   5.281   2.653  0.5320  0.5231 -0.2026
  571MOL0     C76970   7.539   5.171   2.766 -0.2502 -0.7848  1.1471
  571MOL0     C76971   7.566   5.224   2.910  1.3836  0.4815  0.0030
  571MOL0     C76972   7.595   5.114   3.012  0.5147  0.1542  0.9283
  571MOL0     C76973   7.480   5.009   3.022  0.2604  0.6230  0.4689
  571MOL0     O76974   7.352   5.079   3.036  0.3134  0.4040  0.3344
  571MOL0     C76975   7.236   5.008   3.029 -0.5161 -1.0790  1.8090
  571MOL0     C76976   7.227   4.875   3.001  0.8288 -0.6805 -0.2878
  571MOL0     C76977   7.100   4.814   3.015 -0.3178 -0.5495  0.3676
  571MOL0     C76978   6.992   4.879   3.057  1.1287 -0.3011  0.0658
  571MOL0     C76979   6.858   4.810   3.077 -0.5276 -0.4209 -0.8972
  571MOL0     O76980   6.769   4.895   3.143  0.8621 -0.6454  0.4172
  571MOL0     C76981   6.632   4.859   3.148 -0.2017 -0.2339 -0.5546
  571MOL0     C76982   6.578   4.814   3.269 -1.2456  0.2615  0.1380
  571MOL0     C76983   6.447   4.808   3.287 -0.1067 -0.1975  0.5336
  571MOL0     C76984   6.361   4.851   3.180  0.4833  0.2292 -0.3793
  571MOL0     O76985   6.225   4.850   3.186  0.2987  0.1863 -0.1154
  571MOL0     C76986   6.179   4.897   3.309  0.9129  0.1766  0.2197
  571MOL0     C76987   6.074   4.806   3.372  0.3160 -0.6718 -0.2556
  571MOL0     C76988   5.942   4.814   3.292 -0.0437 -0.0764 -0.0802
  571MOL0     C76989   5.853   4.692   3.334  0.0104 -0.3302  0.9026
  571MOL0     C76990   5.869   4.573   3.236  0.8748  0.4650  0.0009
  571MOL0     C76991   5.807   4.442   3.303  0.2040 -0.4793  0.5252
  571MOL0     C76992   5.659   4.455   3.318 -0.2070 -0.0252  0.0857
  571MOL0     C76993   5.613   4.365   3.434 -0.0215 -0.1352 -0.9648
  571MOL0    Cl76994   5.665   4.445   3.596 -0.3588  0.1782  0.5556
  571MOL0     C76995   6.413   4.888   3.058 -0.5785 -0.4027 -1.5050
  571MOL0     C76996   6.553   4.898   3.043 -0.2575 -0.1555  0.6419
  571MOL0     O76997   6.833   4.701   3.036 -0.3934  0.1143  0.0099
  571MOL0     C76998   7.001   5.007   3.089 -0.6706 -0.4677 -0.1015
  571MOL0     C76999   7.119   5.072   3.065  0.7296  0.0502  0.2302
  571MOL0     N77000   7.381   5.331   2.641 -0.0505  0.2203  1.0886
  571MOL0     N77001   7.389   5.419   2.549 -0.4205  0.7088 -0.8287
  571MOL0     C77002   8.607   5.861   2.369  0.1033 -0.1888  0.4109
  571MOL0     C77003   8.738   5.902   2.389 -0.0354 -0.1929  0.5810
  571MOL0     C77004   9.178   5.893   2.283 -0.9409 -0.6580 -0.0516
  571MOL0     C77005   9.224   5.968   2.397  1.1938  0.2099 -0.5509
  571MOL0     C77006   9.361   6.010   2.411 -0.1428 -0.6563 -0.0337
  571MOL0     C77007   9.449   5.998   2.301 -0.9515  0.7352  0.8462
  571MOL0     O77008   9.581   6.046   2.321  1.4875  0.0928  0.3123
  571MOL0     C77009   9.679   6.025   2.216  0.1601 -0.0017 -0.0446
  571MOL0     C77010   9.662   6.130   2.099 -0.2151  0.2381 -0.0106
  571MOL0     C77011   9.785   6.144   2.005 -0.8287  0.3281  0.2551
  571MOL0     C77012   9.818   6.012   1.943 -0.3476 -0.0226 -0.7903
  571MOL0     C77013   9.885   6.030   1.811  0.6168 -0.9226  0.7173
  571MOL0     C77014   9.953   6.041   1.703  1.1968 -0.3687 -0.6033
  571MOL0     C77015   9.401   5.935   2.186 -0.3554 -0.5163  0.4570
  571MOL0     C77016   9.270   5.877   2.178  0.4078  0.7139  0.2710
  571MOL0     C77017   9.244   5.812   2.043  0.7347 -0.2237  0.7310
  571MOL0     H77018   8.882   5.592   2.423 -1.3958 -1.2128  0.1980
  571MOL0     H77019   8.648   5.529   2.396  2.8958 -0.5968 -0.9787
  571MOL0     H77020   8.468   5.538   2.273  1.4656 -0.7460  1.7112
  571MOL0     H77021   8.415   5.521   2.436 -0.6987 -2.2869 -1.3013
  571MOL0     H77022   8.250   5.451   2.249 -1.2213 -0.5939  1.5398
  571MOL0     H77023   8.246   5.603   2.182 -0.9536  0.7279  1.2273
  571MOL0     H77024   8.156   5.710   2.385  0.0276 -0.0604 -0.3775
  571MOL0     H77025   8.156   5.563   2.470 -0.4296  0.5202 -0.2762
  571MOL0     H77026   8.012   5.574   2.187 -1.8476  1.4296  0.7986
  571MOL0     H77027   8.022   5.437   2.303 -0.2355  0.1082  1.0340
  571MOL0     H77028   7.910   5.573   2.472  0.5211 -1.4211  0.9741
  571MOL0     H77029   7.876   5.684   2.347 -0.3926 -0.4280  3.0826
  571MOL0     H77030   7.804   5.424   2.219  0.1997  0.7119 -0.4413
  571MOL0     H77031   7.787   5.396   2.392 -0.0856  0.4483  0.4156
  571MOL0     H77032   7.582   5.438   2.237 -2.2817 -0.7487  2.2396
  571MOL0     H77033   7.640   5.606   2.227  0.7719 -0.9427 -0.3108
  571MOL0     H77034   7.623   5.618   2.486  1.1717 -1.1395 -0.1682
  571MOL0     H77035   7.469   5.603   2.406  1.2144  0.3388  0.5814
  571MOL0     H77036   7.703   5.318   2.557 -0.0265  2.0090  1.3539
  571MOL0     H77037   7.458   5.099   2.752 -0.5984  0.0762 -2.0688
  571MOL0     H77038   7.636   5.123   2.751  1.4298  2.2718  1.3932
  571MOL0     H77039   7.641   5.303   2.908 -1.3536  3.3090  0.5503
  571MOL0     H77040   7.467   5.260   2.941  0.4536 -2.5362  0.9321
  571MOL0     H77041   7.603   5.160   3.111 -0.0531  1.7139  0.2899
  571MOL0     H77042   7.689   5.065   2.985 -0.4370 -2.3394  1.9039
  571MOL0     H77043   7.510   4.953   3.112 -0.7067  0.8375  0.9358
  571MOL0     H77044   7.486   4.947   2.933  0.0199  2.9085 -1.2307
  571MOL0     H77045   7.305   4.810   2.962 -3.1921 -6.1686 -0.2876
  571MOL0     H77046   7.091   4.710   2.987  1.9984 -1.1106  1.4576
  571MOL0     H77047   6.634   4.795   3.360 -0.9348  1.1982  0.1505
  571MOL0     H77048   6.408   4.754   3.372 -4.1035 -0.6021 -1.3178
  571MOL0     H77049   6.260   4.932   3.374  2.7387  0.0742 -1.8898
  571MOL0     H77050   6.125   4.991   3.292 -0.2528 -0.0831  2.1049
  571MOL0     H77051   6.117   4.707   3.390 -2.0312 -1.4939  1.3194
  571MOL0     H77052   6.058   4.854   3.469  1.6849  0.1460 -0.4075
  571MOL0     H77053   5.882   4.901   3.319 -1.0405  0.4512 -3.6293
  571MOL0     H77054   5.979   4.813   3.190  0.3651  1.6458  0.0230
  571MOL0     H77055   5.749   4.724   3.326  0.5314  1.3115  0.2972
  571MOL0     H77056   5.878   4.666   3.437 -0.0542  1.4077  1.3888
  571MOL0     H77057   5.976   4.557   3.223  1.2955  1.4753  1.8365
  571MOL0     H77058   5.818   4.590   3.141 -1.1150  1.8694  1.2346
  571MOL0     H77059   5.826   4.347   3.252 -1.7254 -0.7297  0.1898
  571MOL0     H77060   5.858   4.435   3.399  3.4352  1.2193 -0.8791
  571MOL0     H77061   5.619   4.413   3.225  0.4540  2.7465 -1.5866
  571MOL0     H77062   5.614   4.551   3.344 -3.2810 -1.7054  1.4340
  571MOL0     H77063   5.506   4.348   3.451  0.2032  0.7111  2.0299
  571MOL0     H77064   5.665   4.269   3.433  1.3055  0.2654  3.6830
  571MOL0     H77065   6.358   4.928   2.973  0.1551 -2.3265 -2.9640
  571MOL0     H77066   6.604   4.915   2.949 -1.8811 -2.4883 -0.7609
  571MOL0     H77067   6.927   5.073   3.133 -0.7837 -1.1527  0.7623
  571MOL0     H77068   7.131   5.179   3.082  0.0577  1.2066 -5.0355
  571MOL0     H77069   8.532   5.940   2.373 -0.5113 -0.8024  1.2464
  571MOL0     H77070   8.759   6.009   2.389  0.5404 -0.3016  0.9627
  571MOL0     H77071   9.162   5.992   2.482  0.7023 -3.5648  0.3680
  571MOL0     H77072   9.401   6.049   2.503  0.1625  0.1265 -0.4946
  571MOL0     H77073   9.669   5.922   2.181  2.5505  0.1645 -1.4284
  571MOL0     H77074   9.782   6.041   2.249  1.1264 -0.2567 -2.7373
  571MOL0     H77075   9.631   6.224   2.145 -1.0711 -1.5459  3.3984
  571MOL0     H77076   9.579   6.100   2.034  1.2302 -0.3595 -1.6690
  571MOL0     H77077   9.870   6.177   2.065  1.5729  0.9843 -3.1537
  571MOL0     H77078   9.766   6.227   1.936 -0.0795  0.6162  0.3917
  571MOL0     H77079   9.889   5.954   2.002  1.4442  1.0683 -1.7537
  571MOL0     H77080   9.730   5.949   1.933 -0.7330  0.8535 -3.6976
  571MOL0     H77081  10.009   6.042   1.612  2.1551 -6.2467 -0.4767
  571MOL0     H77082   9.463   5.949   2.097  2.0498  1.5803  2.3257
  571MOL0     H77083   9.336   5.780   1.994  0.6727  0.4209  0.1821
  571MOL0     H77084   9.189   5.725   2.080  0.7954  0.2050  1.8743
  571MOL0     H77085   9.176   5.862   1.973 -0.4643 -2.3022  0.3278
  572MOL0     O77086   0.732   3.753   2.331  0.0088 -0.3292  0.9019
  572MOL0     C77087   0.713   3.751   2.209  0.2726  0.0352 -0.4890
  572MOL0     O77088   0.676   3.863   2.134 -0.4385 -1.0728 -0.4533
  572MOL0     C77089   0.664   3.984   2.205 -0.5299  0.6022 -0.0357
  572MOL0     C77090   0.561   3.996   2.304 -0.0256 -1.3018  0.2339
  572MOL0     C77091   0.533   4.111   2.378 -0.3253 -0.0512  0.2876
  572MOL0     C77092   0.612   4.217   2.342 -0.6268 -0.7370  0.5868
  572MOL0     O77093   0.626   4.327   2.425  0.5393 -0.8623 -0.2852
  572MOL0     C77094   0.513   4.373   2.490 -0.2861 -0.0663  0.0721
  572MOL0     C77095   0.560   4.500   2.560  0.2002 -0.3671  0.7223
  572MOL0     C77096   0.576   4.609   2.445  0.3927  0.6073 -0.0017
  572MOL0     C77097   0.567   4.749   2.510 -0.4494 -0.1067 -0.8076
  572MOL0     C77098   0.542   4.864   2.415 -0.5117  0.7400  0.1681
  572MOL0     C77099   0.532   4.997   2.479  0.3018  1.0582  0.6462
  572MOL0     C77100   0.665   5.048   2.531 -0.2011  0.8600  0.0106
  572MOL0     C77101   0.666   5.187   2.597  0.2416 -1.2697 -0.5408
  572MOL0     N77102   0.619   5.303   2.511 -0.4407  0.0796 -1.1087
  572MOL0     C77103   0.690   5.339   2.394  0.4839 -0.7462  0.8351
  572MOL0     C77104   0.606   5.437   2.341 -0.3051  0.7391  1.1898
  572MOL0     C77105   0.649   5.506   2.221  0.5793  0.5074  0.0191
  572MOL0     C77106   0.765   5.610   2.248  1.3804  0.4614  0.5896
  572MOL0     C77107   0.785   5.709   2.125  0.4203  0.5994 -0.2656
  572MOL0     C77108   0.871   5.824   2.167  0.0743 -0.5516  0.3855
  572MOL0     O77109   0.843   5.942   2.092  0.1999 -0.0703  0.4112
  572MOL0     C77110   0.946   5.996   2.023  0.1304 -1.1640  0.0996
  572MOL0     C77111   1.002   5.930   1.910  0.4549  0.8656 -0.3575
  572MOL0     C77112   1.113   5.978   1.839 -0.0056 -0.8926  0.7054
  572MOL0     C77113   1.167   6.102   1.865  1.1090  0.4281 -1.1090
  572MOL0     C77114   1.272   6.150   1.781  0.6504 -0.2209  0.4384
  572MOL0     O77115   1.314   6.274   1.802  0.1464 -0.5119  0.4872
  572MOL0     C77116   1.391   6.332   1.707  0.4267  0.2003  0.6090
  572MOL0     C77117   1.347   6.433   1.630 -1.0702  0.7058 -0.5457
  572MOL0     C77118   1.429   6.492   1.532 -0.7443  0.4907  0.0480
  572MOL0     C77119   1.555   6.452   1.508 -0.8381 -0.4057 -0.3647
  572MOL0     O77120   1.629   6.514   1.412 -0.2902 -1.0719  0.5415
  572MOL0     C77121   1.641   6.441   1.282 -0.2777  0.3657  0.5034
  572MOL0     C77122   1.712   6.530   1.179  0.0443  0.1987 -1.2103
  572MOL0     C77123   1.867   6.516   1.185 -0.3268  0.7163 -0.1922
  572MOL0     C77124   1.951   6.624   1.116  0.2170  0.9902  0.4356
  572MOL0     C77125   2.095   6.575   1.159  0.4265 -0.1476 -0.0659
  572MOL0     C77126   2.191   6.649   1.065  0.0368  0.0765 -0.8623
  572MOL0     C77127   2.333   6.621   1.121  0.5488  0.7138 -0.2705
  572MOL0     C77128   2.445   6.665   1.032 -0.0460 -0.7835 -0.5234
  572MOL0    Cl77129   2.503   6.833   1.058 -0.0192  0.3264 -0.1871
  572MOL0     C77130   1.619   6.355   1.594 -0.5595  0.0731 -0.3261
  572MOL0     C77131   1.526   6.301   1.691  0.5078  0.8319  1.1808
  572MOL0     O77132   1.332   6.073   1.710  0.1267 -0.0607  0.5065
  572MOL0     C77133   1.098   6.172   1.972  0.2138 -0.7651  0.3292
  572MOL0     C77134   0.995   6.120   2.057 -0.2100 -0.0035 -0.5822
  572MOL0     N77135   0.498   5.456   2.429  0.2291 -0.3631  0.5150
  572MOL0     N77136   0.500   5.371   2.526  0.0414 -0.0218 -0.3564
  572MOL0     C77137   0.716   4.211   2.243 -0.0831  0.6090  0.8090
  572MOL0     C77138   0.742   4.093   2.178  0.5140  0.3747  0.0641
  572MOL0     C77139   0.728   3.610   2.165  0.1437  0.7125  1.5599
  572MOL0     C77140   0.769   3.506   2.249  0.3841 -0.3228  0.3723
  572MOL0     C77141   0.761   3.370   2.215 -0.1395 -0.2640  0.4600
  572MOL0     C77142   0.716   3.329   2.084 -0.4283 -0.7147  0.7446
  572MOL0     O77143   0.698   3.204   2.034 -0.4555  0.3104  0.0785
  572MOL0     C77144   0.731   3.098   2.117  0.0161 -0.8065  0.4313
  572MOL0     C77145   0.714   2.956   2.053  0.1912 -0.0052  0.8823
  572MOL0     C77146   0.817   2.934   1.935  0.4135  0.1858 -0.6887
  572MOL0     C77147   0.776   2.821   1.844  0.3560  0.2747  0.4471
  572MOL0     C77148   0.831   2.692   1.901  0.1612 -0.3209  0.0617
  572MOL0     C77149   0.884   2.590   1.945 -0.5826 -0.1660  0.6474
  572MOL0     C77150   0.687   3.436   1.993  1.1907 -0.7511 -0.3562
  572MOL0     C77151   0.694   3.574   2.026  1.2469  0.0458  0.8988
  572MOL0     C77152   0.643   3.684   1.927 -0.7211  0.0063 -0.3066
  572MOL0     H77153   0.501   3.906   2.312 -1.3534 -0.2785  2.7678
  572MOL0     H77154   0.449   4.116   2.447 -0.6756  0.4759 -0.1641
  572MOL0     H77155   0.431   4.386   2.419  1.0327 -1.6509 -1.8643
  572MOL0     H77156   0.483   4.297   2.563  3.7165 -1.4980  0.4852
  572MOL0     H77157   0.659   4.497   2.607  0.1675 -2.7443  0.7584
  572MOL0     H77158   0.488   4.517   2.641  0.2023 -1.1501  0.8912
  572MOL0     H77159   0.500   4.605   2.367  1.4343 -0.6436 -1.0088
  572MOL0     H77160   0.667   4.589   2.388 -0.2087  1.3479 -1.2537
  572MOL0     H77161   0.488   4.753   2.586  0.4271  1.1876  0.0739
  572MOL0     H77162   0.662   4.767   2.560 -2.0390  3.7742  1.3364
  572MOL0     H77163   0.623   4.868   2.341  0.1674 -3.2504  0.4756
  572MOL0     H77164   0.453   4.842   2.355 -0.2082  1.5430 -0.5967
  572MOL0     H77165   0.489   5.067   2.406  0.5335 -0.5166 -1.0648
  572MOL0     H77166   0.461   4.986   2.561 -0.0464 -2.5966  0.0034
  572MOL0     H77167   0.733   5.044   2.445 -1.1343 -2.6402 -0.7357
  572MOL0     H77168   0.707   4.974   2.599  0.4834 -0.5349 -1.8368
  572MOL0     H77169   0.603   5.175   2.686  4.3396  0.0438  2.8945
  572MOL0     H77170   0.769   5.202   2.632 -0.6915  0.6274  1.7051
  572MOL0     H77171   0.781   5.308   2.345  0.4549 -1.9651  1.5247
  572MOL0     H77172   0.685   5.447   2.136 -0.7159  1.0161 -0.9217
  572MOL0     H77173   0.569   5.560   2.170 -0.3547  0.1613  1.0973
  572MOL0     H77174   0.742   5.665   2.339  0.3402 -1.3818  1.4899
  572MOL0     H77175   0.859   5.558   2.266  0.1305 -1.3517  2.2387
  572MOL0     H77176   0.689   5.742   2.085  0.1316 -1.4863 -1.4811
  572MOL0     H77177   0.822   5.649   2.041  0.7012  2.8724 -1.8348
  572MOL0     H77178   0.978   5.802   2.158  1.5531  5.1782  0.4271
  572MOL0     H77179   0.854   5.859   2.269 -0.7465  1.1980 -0.3137
  572MOL0     H77180   0.963   5.830   1.893  0.0436  0.9134  0.2634
  572MOL0     H77181   1.155   5.911   1.765 -0.2052 -1.5864  1.2115
  572MOL0     H77182   1.241   6.453   1.639 -1.1929  1.1913 -2.5323
  572MOL0     H77183   1.399   6.575   1.470  2.4060  1.0967 -0.8642
  572MOL0     H77184   1.695   6.346   1.286  1.1358  0.9808 -1.9486
  572MOL0     H77185   1.541   6.413   1.247  0.3734 -1.3792 -0.0837
  572MOL0     H77186   1.704   6.497   1.075  2.4565 -3.7517 -0.3339
  572MOL0     H77187   1.683   6.636   1.176  0.4589  0.3309 -0.6846
  572MOL0     H77188   1.906   6.521   1.287 -0.8612  1.0355  0.0018
  572MOL0     H77189   1.878   6.411   1.158  0.9758  0.0072  2.6872
  572MOL0     H77190   1.932   6.726   1.149 -1.9188  0.7782 -0.0028
  572MOL0     H77191   1.943   6.624   1.007  2.4633  3.0992  0.1839
  572MOL0     H77192   2.101   6.467   1.146  0.3988  0.1435 -3.5536
  572MOL0     H77193   2.104   6.601   1.265 -0.3655  1.5508 -0.3838
  572MOL0     H77194   2.188   6.626   0.958 -1.0753  2.0996 -1.3174
  572MOL0     H77195   2.171   6.756   1.078  0.5307 -0.0056  0.7572
  572MOL0     H77196   2.342   6.512   1.123  1.2471  0.6012  4.5753
  572MOL0     H77197   2.347   6.661   1.222 -1.0965 -0.0168  0.2886
  572MOL0     H77198   2.528   6.602   1.064  2.0647  2.2538  0.4173
  572MOL0     H77199   2.425   6.638   0.928  1.0692 -1.8059 -0.4864
  572MOL0     H77200   1.722   6.322   1.583 -1.0958 -1.1666 -2.0702
  572MOL0     H77201   1.574   6.239   1.766  0.3326 -1.9370 -0.8413
  572MOL0     H77202   1.117   6.276   1.994  0.2577 -1.2642  2.9565
  572MOL0     H77203   0.952   6.167   2.145  0.6674 -1.7656  0.8739
  572MOL0     H77204   0.783   4.293   2.220 -0.1084  0.8053  1.4223
  572MOL0     H77205   0.823   4.085   2.106 -2.5517  0.9441 -3.7783
  572MOL0     H77206   0.794   3.530   2.352  1.4258 -1.8963  0.5237
  572MOL0     H77207   0.798   3.297   2.286 -1.5260 -0.6144  0.8645
  572MOL0     H77208   0.654   3.104   2.195 -1.8160 -1.4949 -1.2537
  572MOL0     H77209   0.828   3.116   2.166 -0.5375 -0.3526  1.3944
  572MOL0     H77210   0.614   2.923   2.024  1.2479 -2.9982  0.3401
  572MOL0     H77211   0.729   2.880   2.130  1.1317 -0.8124 -0.0861
  572MOL0     H77212   0.912   2.928   1.990  0.8887  3.9712 -0.8149
  572MOL0     H77213   0.815   3.027   1.878 -2.3442  0.2058 -0.7057
  572MOL0     H77214   0.668   2.805   1.837  0.2171  0.9980  0.8097
  572MOL0     H77215   0.824   2.837   1.747  1.6796 -1.6360  0.7082
  572MOL0     H77216   0.941   2.509   1.986  0.4366 -0.3248 -0.9507
  572MOL0     H77217   0.650   3.411   1.894  0.1684 -0.6018 -0.0282
  572MOL0     H77218   0.604   3.652   1.830 -0.4479 -1.2354 -0.0180
  572MOL0     H77219   0.553   3.716   1.981 -0.6155  0.2444 -0.2723
  572MOL0     H77220   0.722   3.758   1.909 -0.0110  0.8891  4.8957
  573MOL0     O77221   5.638  11.102  10.108  0.2688  1.0334 -0.3655
  573MOL0     C77222   5.701  11.076  10.009 -0.3653 -0.3362 -0.5342
  573MOL0     O77223   5.678  10.972   9.928  0.2242 -0.3766 -0.9399
  573MOL0     C77224   5.566  10.901   9.961 -0.5948  0.2554 -0.6144
  573MOL0     C77225   5.582  10.796  10.054  0.4607  0.1604 -0.3613
  573MOL0     C77226   5.476  10.716  10.084 -0.3972  0.3058  0.6101
  573MOL0     C77227   5.357  10.736  10.003  0.1591 -0.3081 -0.3277
  573MOL0     O77228   5.251  10.656  10.033 -0.6975  0.0595  0.1664
  573MOL0     C77229   5.182  10.601   9.917  0.3010 -0.1218  1.5080
  573MOL0     C77230   5.037  10.647   9.915  0.4920  0.5970  0.1735
  573MOL0     C77231   4.949  10.623   9.788  0.2698  0.8200  0.9401
  573MOL0     C77232   4.821  10.706   9.792 -0.6328 -0.5524  0.1906
  573MOL0     C77233   4.719  10.659   9.899  0.6461 -0.3020 -0.3668
  573MOL0     C77234   4.636  10.772   9.963 -0.0770  0.7652  0.2272
  573MOL0     C77235   4.720  10.873  10.038 -0.0289 -0.1746 -0.3507
  573MOL0     C77236   4.662  10.902  10.173  0.1707  0.0634  0.6546
  573MOL0     N77237   4.514  10.932  10.170 -0.1146 -0.6326 -0.7273
  573MOL0     C77238   4.454  11.026  10.087  0.7132 -0.2270 -0.8950
  573MOL0     C77239   4.331  11.037  10.149 -0.1263 -0.0795 -1.0320
  573MOL0     C77240   4.234  11.145  10.102  0.6276  0.6295  0.0275
  573MOL0     C77241   4.232  11.268  10.202  0.4978  0.1851  1.2006
  573MOL0     C77242   4.218  11.235  10.349 -0.0828 -0.3993 -0.6790
  573MOL0     C77243   4.103  11.141  10.393 -0.2400  0.2719 -0.2058
  573MOL0     O77244   3.986  11.202  10.356 -0.7181 -0.0992  0.7421
  573MOL0     C77245   3.876  11.129  10.381 -0.3638  0.3762  0.1622
  573MOL0     C77246   3.853  11.063  10.501  0.6848 -0.7803  0.0362
  573MOL0     C77247   3.738  10.990  10.525 -0.8027 -0.5855  0.2602
  573MOL0     C77248   3.650  10.973  10.416  0.1258 -0.6006 -0.0440
  573MOL0     C77249   3.520  10.893  10.432  0.5797 -0.0215  0.2688
  573MOL0     O77250   3.428  10.911  10.330 -0.2675 -0.1402  0.4252
  573MOL0     C77251   3.327  10.822  10.336 -0.2262 -0.4488 -0.2118
  573MOL0     C77252   3.337  10.700  10.270  0.9273  0.2769 -0.1632
  573MOL0     C77253   3.245  10.589  10.285 -0.4335 -0.8505  0.2026
  573MOL0     C77254   3.144  10.608  10.381 -0.0703  0.4668  0.2127
  573MOL0     O77255   3.053  10.508  10.401  0.1492 -0.1297 -0.0381
  573MOL0     C77256   2.981  10.500  10.524 -0.3870 -0.4875  0.6322
  573MOL0     C77257   2.889  10.376  10.529  0.0165  0.6700  0.6816
  573MOL0     C77258   2.978  10.257  10.527  0.5856  0.7495  0.4006
  573MOL0     C77259   2.895  10.128  10.553  0.3083  0.0779  0.0114
  573MOL0     C77260   2.950   9.999  10.495 -0.1793 -0.1946 -0.0864
  573MOL0     C77261   2.889   9.867  10.557 -0.5821  0.1668 -0.0591
  573MOL0     C77262   2.744   9.844  10.517  0.5240 -0.1063 -0.2428
  573MOL0     C77263   2.657   9.833  10.649 -0.7723 -0.9050  0.5229
  573MOL0    Cl77264   2.492   9.812  10.597  0.0187 -0.2154 -0.2439
  573MOL0     C77265   3.137  10.734  10.445  0.3133  0.5984 -1.0066
  573MOL0     C77266   3.225  10.839  10.427  0.8999 -0.7023  0.3164
  573MOL0     O77267   3.508  10.813  10.531 -0.5307 -0.1506  0.0571
  573MOL0     C77268   3.675  11.039  10.292 -0.2787 -0.4223 -0.1188
  573MOL0     C77269   3.791  11.112  10.279  0.4110 -0.0504  1.5681
  573MOL0     N77270   4.315  10.948  10.253 -0.5386  0.0600 -0.2163
  573MOL0     N77271   4.431  10.892  10.267  0.1029  0.3667 -0.6589
  573MOL0     C77272   5.338  10.841   9.909 -0.7393  0.0796  0.4155
  573MOL0     C77273   5.448  10.918   9.887 -1.3696 -0.5595  0.8231
  573MOL0     C77274   5.789  11.188   9.951 -0.3702 -0.4503  0.5511
  573MOL0     C77275   5.807  11.187   9.810 -0.5302  0.1946 -0.1239
  573MOL0     C77276   5.891  11.279   9.751 -0.3076 -0.1354  0.5484
  573MOL0     C77277   5.946  11.386   9.824 -0.0650  0.1031  0.6228
  573MOL0     O77278   6.030  11.480   9.757  0.7152 -0.3273 -0.8909
  573MOL0     C77279   6.056  11.480   9.622 -0.0544  0.4313  0.7155
  573MOL0     C77280   6.153  11.597   9.594 -0.8969  0.0052 -0.2461
  573MOL0     C77281   6.292  11.576   9.670 -0.4468 -0.9032  1.2325
  573MOL0     C77282   6.402  11.693   9.671  0.5715 -0.0500 -0.0667
  573MOL0     C77283   6.534  11.634   9.675 -0.3654 -0.9030 -0.0418
  573MOL0     C77284   6.658  11.603   9.676  0.0584  0.3411  0.7542
  573MOL0     C77285   5.916  11.406   9.961 -0.5731  0.2507 -0.3020
  573MOL0     C77286   5.827  11.309  10.024 -0.2108  0.3659  0.4213
  573MOL0     C77287   5.786  11.340  10.167 -0.0403 -1.3024 -1.2313
  573MOL0     H77288   5.682  10.788  10.095  1.4648  2.7064 -2.0305
  573MOL0     H77289   5.490  10.623  10.140  0.2612 -0.6253 -1.0320
  573MOL0     H77290   5.228  10.630   9.823  0.5201  0.0642  1.6703
  573MOL0     H77291   5.186  10.492   9.929 -0.7437 -0.0585  2.7514
  573MOL0     H77292   5.036  10.756   9.925 -0.0361  0.5082  1.2608
  573MOL0     H77293   4.992  10.590   9.997 -0.2047  0.4466 -0.3034
  573MOL0     H77294   4.927  10.516   9.780 -0.6208  1.1310 -1.3902
  573MOL0     H77295   5.008  10.646   9.699 -2.2811 -0.7236 -1.3068
  573MOL0     H77296   4.855  10.809   9.806 -0.3521 -0.4952 -0.8779
  573MOL0     H77297   4.776  10.714   9.693  0.5965 -1.0344 -0.4419
  573MOL0     H77298   4.649  10.590   9.851  1.6764 -0.3309 -1.8742
  573MOL0     H77299   4.774  10.605   9.976 -0.0623 -1.8852 -0.9425
  573MOL0     H77300   4.569  10.821   9.892  1.5738 -0.3453 -2.2232
  573MOL0     H77301   4.558  10.725  10.024  1.1093 -0.5282  0.8207
  573MOL0     H77302   4.708  10.954   9.965 -1.5136 -0.7603 -0.8026
  573MOL0     H77303   4.826  10.853  10.059  0.4028  1.3008 -0.9865
  573MOL0     H77304   4.672  10.815  10.239 -2.7316 -0.0543  1.0954
  573MOL0     H77305   4.709  10.986  10.224 -0.3690  1.2109 -0.6856
  573MOL0     H77306   4.494  11.085  10.004  1.3003  0.2195 -0.3023
  573MOL0     H77307   4.254  11.171   9.998 -0.7010 -0.3894 -0.5043
  573MOL0     H77308   4.131  11.109  10.110 -0.8765  4.7570  3.1556
  573MOL0     H77309   4.328  11.317  10.182  0.1193  0.0458 -1.3072
  573MOL0     H77310   4.146  11.328  10.172  2.4807  3.2708  1.2023
  573MOL0     H77311   4.199  11.328  10.403 -3.4991 -1.1953 -0.2782
  573MOL0     H77312   4.311  11.192  10.385 -0.3072  0.4976  1.0717
  573MOL0     H77313   4.104  11.141  10.502 -0.5246 -0.6986 -0.1943
  573MOL0     H77314   4.089  11.042  10.347  4.0761 -0.4138 -0.4934
  573MOL0     H77315   3.927  11.077  10.579 -0.6975  1.0632  1.1066
  573MOL0     H77316   3.714  10.942  10.619 -3.9949 -0.3551 -0.3217
  573MOL0     H77317   3.415  10.680  10.196  1.0639 -2.6330  0.6647
  573MOL0     H77318   3.268  10.498  10.231 -0.5894 -0.0090 -1.3298
  573MOL0     H77319   3.048  10.502  10.611 -1.9694 -3.0410  2.0508
  573MOL0     H77320   2.904  10.578  10.528  0.4229  0.3364  0.2768
  573MOL0     H77321   2.824  10.385  10.617 -1.1889  2.4698 -0.3306
  573MOL0     H77322   2.833  10.372  10.436 -1.8709  1.9881  1.6840
  573MOL0     H77323   3.028  10.244  10.431 -3.8544 -1.4330 -1.9091
  573MOL0     H77324   3.064  10.270  10.594  4.4301  1.7820 -4.1579
  573MOL0     H77325   2.795  10.140  10.510 -0.4344  5.3344  2.5010
  573MOL0     H77326   2.887  10.108  10.660  2.6066  1.8485  0.6065
  573MOL0     H77327   3.058   9.997  10.511 -0.3891  1.0791  1.8286
  573MOL0     H77328   2.942  10.010  10.387  0.8019 -0.8344 -0.2357
  573MOL0     H77329   2.951   9.790  10.510  0.9001  3.4402 -4.0956
  573MOL0     H77330   2.920   9.853  10.661  2.6974  0.3977 -0.9097
  573MOL0     H77331   2.741   9.756  10.452 -0.0124  1.0720 -1.8690
  573MOL0     H77332   2.696   9.924  10.460 -1.4825 -1.5969 -0.7443
  573MOL0     H77333   2.689   9.745  10.706  1.1860 -1.8842 -1.9411
  573MOL0     H77334   2.671   9.918  10.717 -1.9558 -0.5293  0.3271
  573MOL0     H77335   3.056  10.744  10.516  0.8632 -0.3183 -0.2332
  573MOL0     H77336   3.215  10.932  10.481 -1.6130 -0.7884  0.1059
  573MOL0     H77337   3.614  11.026  10.203 -0.4273 -0.1807 -0.0541
  573MOL0     H77338   3.831  11.161  10.190  2.5688 -1.6054  1.5872
  573MOL0     H77339   5.249  10.878   9.860 -0.5528  1.5714  1.1434
  573MOL0     H77340   5.425  11.001   9.821  0.6305 -1.2729 -0.8354
  573MOL0     H77341   5.760  11.112   9.746 -1.6861  0.3595  0.4911
  573MOL0     H77342   5.910  11.283   9.644 -1.7638 -1.5225  0.2044
  573MOL0     H77343   5.968  11.503   9.561  0.1277  2.6541  1.2202
  573MOL0     H77344   6.093  11.382   9.588  0.9426  0.3426  1.9915
  573MOL0     H77345   6.124  11.695   9.632 -0.3661  1.7160 -3.8158
  573MOL0     H77346   6.173  11.613   9.487 -2.0395 -0.6401 -0.5765
  573MOL0     H77347   6.337  11.484   9.634  2.9831  1.7635 -2.1392
  573MOL0     H77348   6.261  11.553   9.773  1.5198 -1.8711  1.6580
  573MOL0     H77349   6.389  11.748   9.577  1.1587 -3.0288 -2.0173
  573MOL0     H77350   6.384  11.764   9.753 -1.0815 -0.3355 -0.1427
  573MOL0     H77351   6.757  11.563   9.674  0.5486  1.5641  0.0777
  573MOL0     H77352   5.942  11.496  10.015  0.8161 -1.7014  2.5586
  573MOL0     H77353   5.780  11.254  10.234  2.1275 -0.5548  0.0218
  573MOL0     H77354   5.860  11.402  10.217 -2.0574  0.0753  0.2112
  573MOL0     H77355   5.691  11.393  10.177 -0.2427 -2.0655  1.9421
  574MOL0     O77356   0.688   3.062   7.556 -0.3512  0.0983 -0.1818
  574MOL0     C77357   0.607   3.104   7.478 -0.5390 -0.6477  0.2679
  574MOL0     O77358   0.504   3.028   7.418  0.4504  0.4466 -0.2496
  574MOL0     C77359   0.451   2.929   7.497  0.0045  0.5679  0.2407
  574MOL0     C77360   0.430   2.799   7.434  0.7165 -0.2262  0.6470
  574MOL0     C77361   0.380   2.695   7.508  0.6362  0.4744 -1.2489
  574MOL0     C77362   0.346   2.721   7.646  0.7382 -0.7359  0.3878
  574MOL0     O77363   0.302   2.636   7.740  0.3479 -0.5805  0.1150
  574MOL0     C77364   0.228   2.515   7.696 -0.5643 -0.2701 -0.3406
  574MOL0     C77365   0.091   2.554   7.640  0.6236  0.9667  0.7649
  574MOL0     C77366  -0.014   2.446   7.601 -0.2803  1.0464 -0.4183
  574MOL0     C77367  -0.155   2.504   7.601  0.5141  0.8342  0.8621
  574MOL0     C77368  -0.222   2.538   7.736 -0.2711 -0.4014 -0.5196
  574MOL0     C77369  -0.304   2.675   7.727 -1.0506  0.6607 -0.2223
  574MOL0     C77370  -0.451   2.651   7.681 -0.7148  0.2833  0.4785
  574MOL0     C77371  -0.467   2.682   7.529 -1.2716 -0.4492  0.0498
  574MOL0     N77372  -0.600   2.661   7.482  0.3647 -0.0280  0.1845
  574MOL0     C77373  -0.689   2.765   7.476 -0.1562  0.3816 -0.4597
  574MOL0     C77374  -0.788   2.708   7.408  0.3527 -0.5866  0.7713
  574MOL0     C77375  -0.907   2.778   7.359 -0.4648  1.0950  0.2292
  574MOL0     C77376  -1.000   2.808   7.475 -0.4075 -0.2877 -0.3633
  574MOL0     C77377  -1.106   2.707   7.507  0.5527  0.7867  1.0833
  574MOL0     C77378  -1.176   2.748   7.627 -0.4293  0.2146 -0.7830
  574MOL0     O77379  -1.258   2.871   7.618 -0.6774  0.0778  0.0643
  574MOL0     C77380  -1.392   2.848   7.649 -0.8636  0.4989 -0.5303
  574MOL0     C77381  -1.483   2.816   7.555  0.5363  0.1131  0.7778
  574MOL0     C77382  -1.615   2.799   7.591  0.5538 -0.1616 -0.2262
  574MOL0     C77383  -1.655   2.809   7.720  0.6165 -0.0814 -0.3548
  574MOL0     C77384  -1.802   2.796   7.767 -0.6827 -0.5873 -0.0053
  574MOL0     O77385  -1.885   2.742   7.674  0.4736  0.0797  0.5335
  574MOL0     C77386  -2.015   2.710   7.710  0.0830 -0.7914  0.4277
  574MOL0     C77387  -2.066   2.681   7.840 -0.4677 -0.3543  0.3031
  574MOL0     C77388  -2.203   2.658   7.863  0.4879 -0.1381  0.0394
  574MOL0     C77389  -2.289   2.642   7.751  0.1183 -0.5709  0.0858
  574MOL0     O77390  -2.415   2.608   7.789 -0.3059 -0.2033  0.0737
  574MOL0     C77391  -2.519   2.674   7.716  0.7898  1.0207 -0.2601
  574MOL0     C77392  -2.646   2.610   7.754  0.4020  0.1311  0.8456
  574MOL0     C77393  -2.664   2.588   7.902  0.1488  0.6480 -0.8904
  574MOL0     C77394  -2.809   2.580   7.946 -0.3229 -0.0108 -0.1577
  574MOL0     C77395  -2.811   2.565   8.101 -0.5982 -0.7275  0.1864
  574MOL0     C77396  -2.952   2.575   8.151 -0.3719  0.0427 -0.4388
  574MOL0     C77397  -2.953   2.570   8.311  0.4999 -0.2303  0.0324
  574MOL0     C77398  -3.091   2.511   8.362 -0.4691 -0.1829  0.9842
  574MOL0    Cl77399  -3.081   2.554   8.531 -0.1623 -0.1434 -0.3181
  574MOL0     C77400  -2.237   2.650   7.619  0.1290  0.2880  0.2460
  574MOL0     C77401  -2.101   2.678   7.602  1.2380 -0.2599 -0.1127
  574MOL0     O77402  -1.836   2.848   7.874 -0.2068  0.2453  0.2323
  574MOL0     C77403  -1.557   2.837   7.819  0.6660  0.2687 -0.0170
  574MOL0     C77404  -1.423   2.853   7.790  0.7050 -0.4503  0.5872
  574MOL0     N77405  -0.753   2.586   7.359 -0.2393  0.4507 -1.0144
  574MOL0     N77406  -0.635   2.560   7.403 -1.0040 -0.8483 -0.3931
  574MOL0     C77407   0.352   2.849   7.692  0.9212  0.2018 -0.1465
  574MOL0     C77408   0.401   2.961   7.621  0.8234  0.3052  0.0540
  574MOL0     C77409   0.619   3.246   7.433 -0.2026 -0.3768 -0.5470
  574MOL0     C77410   0.553   3.277   7.314 -0.1732  0.2613  0.6029
  574MOL0     C77411   0.573   3.394   7.243 -0.1925  0.9303  0.7352
  574MOL0     C77412   0.641   3.504   7.298  1.6890  0.4511  0.2762
  574MOL0     O77413   0.665   3.621   7.241  0.0343  0.3411 -0.1730
  574MOL0     C77414   0.638   3.656   7.103  0.4755  0.0382  0.2341
  574MOL0     C77415   0.506   3.724   7.070 -0.1560  0.1365 -0.0666
  574MOL0     C77416   0.501   3.796   6.935 -0.9873  0.2799  0.0208
  574MOL0     C77417   0.553   3.941   6.948  0.1185  0.4984 -1.3191
  574MOL0     C77418   0.455   4.026   7.027 -0.8145  0.4729  0.9722
  574MOL0     C77419   0.372   4.106   7.075 -0.4591  0.4111  0.4398
  574MOL0     C77420   0.699   3.475   7.419 -0.4446 -0.1273  0.0313
  574MOL0     C77421   0.687   3.350   7.489 -0.1603 -1.1209  0.2381
  574MOL0     C77422   0.762   3.343   7.613 -0.5109 -0.4010 -0.4287
  574MOL0     H77423   0.458   2.783   7.330 -1.5455  3.3383 -0.7016
  574MOL0     H77424   0.368   2.589   7.489 -4.7606  0.4962  0.4503
  574MOL0     H77425   0.286   2.459   7.622 -1.3459  0.2252 -1.3582
  574MOL0     H77426   0.205   2.449   7.780  1.2804 -2.2216 -1.2741
  574MOL0     H77427   0.109   2.611   7.549  2.8357 -0.4974  0.2133
  574MOL0     H77428   0.043   2.624   7.710  0.6537 -1.8941  3.8648
  574MOL0     H77429  -0.014   2.356   7.664 -0.2370 -0.6146 -2.6604
  574MOL0     H77430   0.025   2.413   7.504  2.4003 -2.0438  1.4871
  574MOL0     H77431  -0.148   2.601   7.550  1.9319  0.3265  0.0160
  574MOL0     H77432  -0.225   2.458   7.531  1.3594 -0.9296  1.1209
  574MOL0     H77433  -0.296   2.461   7.758 -0.8612  0.6488  1.3432
  574MOL0     H77434  -0.160   2.531   7.826 -0.6734 -1.0702 -0.2899
  574MOL0     H77435  -0.295   2.725   7.824  1.3213 -1.6440  0.8602
  574MOL0     H77436  -0.265   2.740   7.648 -0.2623  0.4917  0.0217
  574MOL0     H77437  -0.509   2.729   7.732 -2.8618 -0.2306 -1.0318
  574MOL0     H77438  -0.497   2.555   7.704  0.2857 -0.3126  0.0531
  574MOL0     H77439  -0.429   2.785   7.533  4.0145 -1.9121 -2.4736
  574MOL0     H77440  -0.396   2.627   7.466  0.1109  0.0271  1.1302
  574MOL0     H77441  -0.675   2.864   7.519 -0.2919  0.6067 -0.9358
  574MOL0     H77442  -0.891   2.860   7.289  1.0530  1.2248  0.7076
  574MOL0     H77443  -0.970   2.712   7.297 -1.7140 -3.3637  5.4194
  574MOL0     H77444  -0.926   2.820   7.554  1.1451  2.0364 -2.0439
  574MOL0     H77445  -1.045   2.907   7.463 -0.3059  0.2382  2.7819
  574MOL0     H77446  -1.064   2.605   7.512 -1.2129 -0.1643 -1.3702
  574MOL0     H77447  -1.184   2.693   7.431  2.1760  1.0794 -0.7244
  574MOL0     H77448  -1.111   2.757   7.714  1.0943  2.6228 -2.0673
  574MOL0     H77449  -1.245   2.667   7.654 -0.7575  0.6522 -0.2879
  574MOL0     H77450  -1.457   2.817   7.449 -1.7395 -1.3311  0.1443
  574MOL0     H77451  -1.699   2.779   7.525  0.7380 -2.2412  0.0968
  574MOL0     H77452  -2.007   2.687   7.930 -0.3255 -0.8628  0.2493
  574MOL0     H77453  -2.252   2.643   7.958 -1.4524 -0.1254 -0.9158
  574MOL0     H77454  -2.515   2.781   7.740 -1.7800  0.7470  1.8233
  574MOL0     H77455  -2.514   2.666   7.607  0.3741 -2.0383 -0.1354
  574MOL0     H77456  -2.722   2.674   7.708  0.7247 -0.6674 -0.8491
  574MOL0     H77457  -2.650   2.511   7.709 -1.0441  1.3414 -1.8815
  574MOL0     H77458  -2.606   2.499   7.929  1.6847  0.8161 -3.2965
  574MOL0     H77459  -2.632   2.676   7.958 -3.3779 -0.0953  2.7215
  574MOL0     H77460  -2.852   2.495   7.893  0.4833 -3.1953  3.7667
  574MOL0     H77461  -2.853   2.675   7.914 -0.1543  0.1448  0.0677
  574MOL0     H77462  -2.750   2.640   8.152  0.6608 -1.0794 -0.7475
  574MOL0     H77463  -2.761   2.472   8.130 -0.1647 -0.3110  0.7971
  574MOL0     H77464  -2.997   2.670   8.121 -0.0421  0.1870 -0.4820
  574MOL0     H77465  -3.018   2.492   8.124 -1.2980  0.3349  0.8439
  574MOL0     H77466  -2.925   2.665   8.358 -4.0672  0.0197  2.8562
  574MOL0     H77467  -2.870   2.501   8.332 -0.4775 -1.6980 -0.7688
  574MOL0     H77468  -3.176   2.561   8.315  1.6707  3.5373  0.6907
  574MOL0     H77469  -3.091   2.404   8.340  2.0108  0.0154 -0.3284
  574MOL0     H77470  -2.300   2.636   7.532 -1.8306  2.9654  1.0792
  574MOL0     H77471  -2.057   2.684   7.503  0.5937  3.6617 -0.3027
  574MOL0     H77472  -1.579   2.843   7.925  1.8802 -3.3883  0.5616
  574MOL0     H77473  -1.357   2.888   7.868  0.7217 -0.4105  0.5545
  574MOL0     H77474   0.324   2.865   7.796 -2.7884 -1.2868 -0.7622
  574MOL0     H77475   0.387   3.057   7.669 -1.5498  0.0029  0.0969
  574MOL0     H77476   0.482   3.210   7.267 -0.7891 -0.0137  1.8780
  574MOL0     H77477   0.523   3.396   7.146  0.7333 -0.6604  0.2052
  574MOL0     H77478   0.649   3.569   7.038  4.1072 -1.2994  2.3834
  574MOL0     H77479   0.719   3.718   7.065 -0.7044  1.0043 -0.8258
  574MOL0     H77480   0.493   3.791   7.155  0.0716  2.2540 -1.6062
  574MOL0     H77481   0.429   3.648   7.078 -1.2241  1.3643  2.0981
  574MOL0     H77482   0.399   3.794   6.895 -0.6932  0.3873 -0.7678
  574MOL0     H77483   0.563   3.739   6.865  0.7383  0.3622  1.4227
  574MOL0     H77484   0.650   3.955   6.997 -0.7066  4.1756 -0.4580
  574MOL0     H77485   0.567   3.992   6.852 -0.1157  1.9490 -0.6025
  574MOL0     H77486   0.321   4.177   7.137 -0.7909 -0.0817  0.7369
  574MOL0     H77487   0.742   3.569   7.454  1.2285 -0.0716 -1.9773
  574MOL0     H77488   0.844   3.272   7.602  0.5953  0.4469  1.7127
  574MOL0     H77489   0.803   3.442   7.635 -0.1950 -0.3000 -1.4359
  574MOL0     H77490   0.689   3.313   7.690 -3.2101  2.0619 -1.8027
  575MOL0     O77491   6.005   1.995   1.131  0.1236  0.1230 -0.1166
  575MOL0     C77492   6.131   2.001   1.126  0.4463  0.3398  1.0517
  575MOL0     O77493   6.211   1.967   1.013  0.3509 -0.3117 -0.0925
  575MOL0     C77494   6.147   1.949   0.890  0.0679  0.5601 -0.3305
  575MOL0     C77495   6.186   2.032   0.790 -0.1622  0.5033  0.1543
  575MOL0     C77496   6.149   1.994   0.658  0.1991  0.2251 -0.1163
  575MOL0     C77497   6.064   1.884   0.639  0.0146 -0.4572  0.3054
  575MOL0     O77498   5.985   1.888   0.522  0.5719 -0.1413 -0.5287
  575MOL0     C77499   5.848   1.863   0.549  0.6310  0.5572 -0.6092
  575MOL0     C77500   5.755   1.962   0.465  0.3500 -0.2185  0.0299
  575MOL0     C77501   5.756   1.952   0.313  0.0502  0.2193  0.1315
  575MOL0     C77502   5.687   1.833   0.246  1.2255  0.6351 -0.3546
  575MOL0     C77503   5.735   1.806   0.100  0.0104 -0.1622  0.2297
  575MOL0     C77504   5.707   1.911  -0.010 -0.5150 -0.1556 -0.0900
  575MOL0     C77505   5.560   1.959  -0.001  0.0871 -0.4026 -0.3759
  575MOL0     C77506   5.452   1.848  -0.018  0.3513 -0.1614  0.4949
  575MOL0     N77507   5.315   1.895  -0.066 -0.2570  0.4997  0.0013
  575MOL0     C77508   5.271   2.027  -0.061 -0.7556  0.8708 -0.2672
  575MOL0     C77509   5.156   2.022  -0.126  0.0204  0.1017 -0.0000
  575MOL0     C77510   5.069   2.143  -0.147 -0.0646  0.4449 -0.0023
  575MOL0     C77511   4.994   2.187  -0.023  0.3060  0.0670 -0.0778
  575MOL0     C77512   4.922   2.073   0.049  0.7459 -0.1771  0.9264
  575MOL0     C77513   4.972   2.064   0.196 -0.5173  0.7637  0.0445
  575MOL0     O77514   4.905   1.970   0.278  0.1509 -0.8698 -0.0257
  575MOL0     C77515   4.906   1.830   0.252  0.0591  0.3519 -0.6745
  575MOL0     C77516   4.985   1.758   0.150  1.1293 -0.7483 -0.0477
  575MOL0     C77517   4.978   1.619   0.153 -0.1873 -0.5180 -0.5331
  575MOL0     C77518   4.917   1.546   0.247  1.6495  1.2083 -0.7397
  575MOL0     C77519   4.924   1.395   0.267 -0.2592 -0.6170  1.2000
  575MOL0     O77520   5.025   1.336   0.200  0.9662 -0.6467 -0.2778
  575MOL0     C77521   5.076   1.223   0.264 -0.1560 -0.2548  0.3259
  575MOL0     C77522   5.025   1.094   0.222  0.4229  0.9474 -0.1427
  575MOL0     C77523   5.075   0.980   0.271  0.7775 -0.0093  0.5569
  575MOL0     C77524   5.168   0.986   0.376 -0.7975  0.1656  0.4761
  575MOL0     O77525   5.233   0.877   0.432 -0.5458 -0.2152  0.9634
  575MOL0     C77526   5.216   0.750   0.382  0.6430 -0.3720  0.5311
  575MOL0     C77527   5.274   0.732   0.243 -0.9363 -0.4974 -0.0821
  575MOL0     C77528   5.335   0.593   0.227  1.4142  0.3217 -0.0300
  575MOL0     C77529   5.388   0.568   0.082 -1.1493  0.2175 -0.2767
  575MOL0     C77530   5.324   0.460   0.004  0.2422  0.5150 -0.7671
  575MOL0     C77531   5.365   0.315   0.037  1.0819 -0.3017  0.8087
  575MOL0     C77532   5.348   0.206  -0.075 -1.5374 -0.4478 -0.3126
  575MOL0     C77533   5.197   0.198  -0.103  0.9166  0.5962 -0.3497
  575MOL0    Cl77534   5.180   0.125  -0.275 -0.4412 -0.1059 -0.0461
  575MOL0     C77535   5.214   1.113   0.426  0.7292  0.2572  0.2521
  575MOL0     C77536   5.163   1.238   0.367  0.0128 -0.0793 -0.1088
  575MOL0     O77537   4.852   1.341   0.350  0.4706  0.8714 -0.5542
  575MOL0     C77538   4.834   1.616   0.344  0.7510  1.2112 -0.4465
  575MOL0     C77539   4.834   1.758   0.351 -0.3807  0.6489  0.5981
  575MOL0     N77540   5.125   1.880  -0.159 -0.0003 -1.0233  0.3945
  575MOL0     N77541   5.225   1.807  -0.117  0.3122 -0.0636 -0.1488
  575MOL0     C77542   6.029   1.797   0.745  0.7935  0.1286 -0.2098
  575MOL0     C77543   6.072   1.835   0.867 -0.0636  0.3025 -0.8224
  575MOL0     C77544   6.191   2.062   1.247  0.4827 -0.0317 -0.6269
  575MOL0     C77545   6.108   2.135   1.341 -1.3640  0.1808 -0.3518
  575MOL0     C77546   6.160   2.208   1.448 -0.5771 -0.1666  0.2540
  575MOL0     C77547   6.302   2.198   1.472  0.2614  0.4389  0.0681
  575MOL0     O77548   6.353   2.259   1.580  0.6654 -0.1046 -0.2597
  575MOL0     C77549   6.490   2.272   1.590 -0.5733  0.3385 -0.2456
  575MOL0     C77550   6.522   2.346   1.722  0.0396  0.4024 -0.2328
  575MOL0     C77551   6.484   2.496   1.712  0.4784  0.3313  0.7768
  575MOL0     C77552   6.554   2.581   1.819 -0.2276  0.7806 -0.8426
  575MOL0     C77553   6.515   2.536   1.954  0.0171 -0.4011 -0.6445
  575MOL0     C77554   6.482   2.504   2.062 -0.7178  0.6910 -0.7474
  575MOL0     C77555   6.381   2.111   1.390  0.4151  1.0705  0.3366
  575MOL0     C77556   6.330   2.044   1.277 -1.0334 -0.9202 -0.6327
  575MOL0     C77557   6.432   1.946   1.217  0.1645  0.6157  0.1961
  575MOL0     H77558   6.251   2.116   0.811 -0.3334  0.0848  2.5888
  575MOL0     H77559   6.160   2.079   0.591  2.5242  1.1619  1.3374
  575MOL0     H77560   5.821   1.760   0.526 -2.5830  0.6442  2.0363
  575MOL0     H77561   5.822   1.874   0.654  0.7045 -2.0860 -0.2546
  575MOL0     H77562   5.779   2.063   0.498 -3.2462  0.9000 -0.3225
  575MOL0     H77563   5.655   1.942   0.506  0.7570  0.7871  1.6023
  575MOL0     H77564   5.864   1.948   0.293  1.1071  0.1757  4.5690
  575MOL0     H77565   5.708   2.044   0.281 -1.9543 -1.3764 -1.7120
  575MOL0     H77566   5.726   1.758   0.315  0.2537  0.8294  0.4149
  575MOL0     H77567   5.578   1.824   0.252  1.1727  1.0772 -0.5793
  575MOL0     H77568   5.843   1.795   0.110  0.0800 -3.1376 -2.2737
  575MOL0     H77569   5.697   1.707   0.073  0.3570 -1.0162  2.6363
  575MOL0     H77570   5.774   1.997   0.002 -0.7291 -0.1868  1.4113
  575MOL0     H77571   5.728   1.864  -0.107  0.3008  2.7389 -1.4228
  575MOL0     H77572   5.553   2.027  -0.086  2.6737  1.2028  0.5643
  575MOL0     H77573   5.543   2.011   0.094  1.4453  0.9493 -0.8306
  575MOL0     H77574   5.485   1.775  -0.092  3.6218  3.7145 -2.3156
  575MOL0     H77575   5.451   1.789   0.074  3.2079 -3.2940 -1.2728
  575MOL0     H77576   5.322   2.122  -0.050 -0.7966  0.7985  0.6297
  575MOL0     H77577   5.123   2.228  -0.189 -1.1292 -0.2993 -3.2490
  575MOL0     H77578   4.995   2.114  -0.222  1.8104 -0.0482 -1.7656
  575MOL0     H77579   5.053   2.251   0.043  0.9042  1.1712 -1.6377
  575MOL0     H77580   4.928   2.252  -0.080  0.7141  0.8339  0.2998
  575MOL0     H77581   4.925   1.973   0.005  0.2436  0.2441 -0.1005
  575MOL0     H77582   4.817   2.106   0.048  1.3505  2.0215 -1.8810
  575MOL0     H77583   4.961   2.155   0.255 -1.6897  0.6270  0.0655
  575MOL0     H77584   5.080   2.046   0.198 -0.3056  1.9874  0.4342
  575MOL0     H77585   5.036   1.794   0.061  0.6921 -1.0754 -0.4377
  575MOL0     H77586   5.044   1.584   0.074 -0.7447  0.3863 -1.4291
  575MOL0     H77587   4.945   1.093   0.149  0.6750  4.2540 -0.6224
  575MOL0     H77588   5.032   0.883   0.244  4.4738 -1.5168 -0.5244
  575MOL0     H77589   5.265   0.685   0.455 -2.5711 -0.6935  2.6166
  575MOL0     H77590   5.114   0.712   0.386 -0.2171  1.3972 -2.0335
  575MOL0     H77591   5.215   0.768   0.158  2.3013  1.3962 -1.7711
  575MOL0     H77592   5.357   0.804   0.243 -3.4135  2.5866 -0.6544
  575MOL0     H77593   5.417   0.588   0.300  0.0493  1.9722  1.7181
  575MOL0     H77594   5.259   0.519   0.250  0.8115  0.9089 -0.1145
  575MOL0     H77595   5.494   0.543   0.082 -0.8212  1.0108 -4.1386
  575MOL0     H77596   5.378   0.666   0.035  0.7890 -0.3249 -1.9731
  575MOL0     H77597   5.327   0.468  -0.105 -0.1102  1.7289 -0.7060
  575MOL0     H77598   5.217   0.467   0.029 -1.0052 -4.4505 -3.4022
  575MOL0     H77599   5.473   0.316   0.054  1.3024 -0.0781 -0.5204
  575MOL0     H77600   5.301   0.292   0.122 -1.6464 -0.9926 -1.3137
  575MOL0     H77601   5.384   0.109  -0.038 -1.4968 -0.1039  0.5806
  575MOL0     H77602   5.400   0.228  -0.169 -0.9279 -0.4252  0.0191
  575MOL0     H77603   5.153   0.131  -0.030 -1.0180 -1.2627 -3.0461
  575MOL0     H77604   5.144   0.294  -0.099 -1.6252 -0.5789 -2.4729
  575MOL0     H77605   5.291   1.114   0.503  0.3243 -0.6464  0.6818
  575MOL0     H77606   5.202   1.337   0.390 -1.0575  0.8535 -2.0116
  575MOL0     H77607   4.793   1.552   0.421  1.3388  2.4741  0.9702
  575MOL0     H77608   4.770   1.815   0.417 -0.9833 -0.2657  0.8373
  575MOL0     H77609   5.963   1.715   0.719 -0.6988  1.3889 -0.6159
  575MOL0     H77610   6.073   1.764   0.949 -0.0793  2.9267  1.6095
  575MOL0     H77611   6.000   2.146   1.331 -1.0973  2.4992 -1.4679
  575MOL0     H77612   6.104   2.264   1.522 -0.4413 -1.7561  1.6261
  575MOL0     H77613   6.515   2.331   1.502 -2.8889 -0.4276 -1.4981
  575MOL0     H77614   6.539   2.175   1.593  0.7729  0.9825 -0.8405
  575MOL0     H77615   6.631   2.337   1.730 -0.2290 -4.7597  2.5555
  575MOL0     H77616   6.478   2.300   1.811  0.0585 -0.0929 -0.4761
  575MOL0     H77617   6.377   2.515   1.720  0.3387 -0.5554  1.1942
  575MOL0     H77618   6.522   2.525   1.613  1.4645 -4.1141 -0.3673
  575MOL0     H77619   6.660   2.557   1.826  0.0498  2.0568  4.8087
  575MOL0     H77620   6.538   2.688   1.805 -0.3047  0.8773 -0.0943
  575MOL0     H77621   6.452   2.454   2.152  1.5542  0.7086  0.0875
  575MOL0     H77622   6.488   2.101   1.407  0.5820 -0.0230 -1.0782
  575MOL0     H77623   6.467   1.984   1.121  0.0080  4.3541  1.4450
  575MOL0     H77624   6.528   1.945   1.269 -0.7924 -0.8002  2.0473
  575MOL0     H77625   6.383   1.849   1.199  0.6551  0.8926 -3.2512
  576MOL0     O77626   4.490   4.277   0.861 -1.4417  0.0241 -0.0051
  576MOL0     C77627   4.468   4.224   0.974 -0.5815 -0.7264  0.8152
  576MOL0     O77628   4.542   4.123   1.031 -0.1238  0.2913  0.6948
  576MOL0     C77629   4.652   4.066   0.968  0.0326  0.4731 -0.6037
  576MOL0     C77630   4.731   3.974   1.045  0.0076 -0.1194  0.7499
  576MOL0     C77631   4.830   3.896   0.979  0.9129 -0.0762 -0.2277
  576MOL0     C77632   4.873   3.914   0.853  0.3249 -0.0111 -0.1498
  576MOL0     O77633   4.994   3.858   0.823 -0.4705 -0.2868  0.7942
  576MOL0     C77634   5.031   3.827   0.680  0.5194  0.0665 -0.1889
  576MOL0     C77635   4.970   3.692   0.628 -0.7412  0.1061 -0.4472
  576MOL0     C77636   5.034   3.670   0.490  0.1072  0.1026 -0.2630
  576MOL0     C77637   4.982   3.539   0.431  0.4535 -0.4049  0.2478
  576MOL0     C77638   5.026   3.522   0.288  1.2112 -0.4440 -0.7423
  576MOL0     C77639   5.023   3.367   0.272 -0.7384 -0.8426 -0.0210
  576MOL0     C77640   5.065   3.339   0.127 -0.2562  0.2959  0.1960
  576MOL0     C77641   5.055   3.183   0.106  0.2768  0.5701  0.9921
  576MOL0     N77642   5.102   3.139  -0.038 -0.3004  0.0199 -1.7637
  576MOL0     C77643   5.016   3.135  -0.144 -1.0416  0.1733  0.1880
  576MOL0     C77644   5.106   3.103  -0.241 -0.9271  0.0006 -0.8053
  576MOL0     C77645   5.063   3.092  -0.380 -0.1855 -0.1665 -0.0128
  576MOL0     C77646   5.001   3.233  -0.419  0.0047 -0.3065 -0.7050
  576MOL0     C77647   4.985   3.252  -0.574 -0.0782 -0.0567 -0.0564
  576MOL0     C77648   5.117   3.261  -0.661 -1.0767  1.2635 -0.1563
  576MOL0     O77649   5.198   3.360  -0.580  0.0351  0.6011  0.7053
  576MOL0     C77650   5.329   3.375  -0.609 -0.1436  0.2544 -0.0468
  576MOL0     C77651   5.407   3.267  -0.656  0.0569  0.3880  0.0307
  576MOL0     C77652   5.544   3.269  -0.670 -0.6163  0.0202 -0.3461
  576MOL0     C77653   5.621   3.384  -0.632 -0.2941  0.5795  0.2768
  576MOL0     C77654   5.769   3.390  -0.649  0.7840 -0.2149 -0.1935
  576MOL0     O77655   5.821   3.510  -0.653 -0.4382  0.3423 -0.3751
  576MOL0     C77656   5.953   3.537  -0.651 -0.3201  0.2844  0.4979
  576MOL0     C77657   5.994   3.610  -0.544  0.0984  0.0766  0.0276
  576MOL0     C77658   6.130   3.649  -0.533  0.0295 -0.3300  0.6078
  576MOL0     C77659   6.214   3.599  -0.638  0.5729 -0.5487  0.4998
  576MOL0     O77660   6.348   3.630  -0.629  0.0296 -0.1817 -0.5556
  576MOL0     C77661   6.411   3.691  -0.738  0.2990  0.7396 -0.0835
  576MOL0     C77662   6.556   3.645  -0.734  0.7961  0.9013 -1.2748
  576MOL0     C77663   6.613   3.654  -0.874 -0.1439  0.2556  0.1424
  576MOL0     C77664   6.763   3.610  -0.881 -0.5395 -0.5386  0.1183
  576MOL0     C77665   6.831   3.622  -1.017 -0.2898  0.5073 -0.1068
  576MOL0     C77666   6.835   3.758  -1.086 -0.4825  0.3461 -0.3282
  576MOL0     C77667   6.907   3.763  -1.221  0.1182  0.2022 -0.1355
  576MOL0     C77668   7.058   3.741  -1.215 -0.2004  0.4564  0.6610
  576MOL0    Cl77669   7.095   3.568  -1.260  0.3965  0.6068 -0.1300
  576MOL0     C77670   6.170   3.517  -0.733  0.0076 -0.2547 -0.2146
  576MOL0     C77671   6.040   3.476  -0.742  0.4856 -0.4923  0.0442
  576MOL0     O77672   5.824   3.285  -0.654 -0.2932  0.0067  0.4903
  576MOL0     C77673   5.544   3.487  -0.583  0.6335  0.5878  0.5099
  576MOL0     C77674   5.406   3.491  -0.576 -0.3324 -0.8645 -0.2290
  576MOL0     N77675   5.238   3.089  -0.198 -1.4799  0.2997  0.2929
  576MOL0     N77676   5.233   3.111  -0.073  0.6729  0.0859  0.3885
  576MOL0     C77677   4.802   4.008   0.776  0.3984 -0.6052 -0.3744
  576MOL0     C77678   4.684   4.078   0.827 -1.2888 -0.5044 -0.2885
  576MOL0     C77679   4.365   4.283   1.052  0.0071  0.5410  0.4710
  576MOL0     C77680   4.389   4.307   1.190 -0.2978 -0.2829  0.4103
  576MOL0     C77681   4.283   4.373   1.256 -0.9189 -0.4709 -0.7229
  576MOL0     C77682   4.156   4.411   1.208  0.0947 -0.2970  0.5937
  576MOL0     O77683   4.052   4.458   1.280  0.0695 -0.9301  0.1032
  576MOL0     C77684   4.081   4.511   1.413  0.6339 -0.1295  0.1485
  576MOL0     C77685   3.949   4.548   1.485  0.5426  0.6393  0.2370
  576MOL0     C77686   3.847   4.636   1.405  0.8904  0.4502 -0.6306
  576MOL0     C77687   3.889   4.779   1.365 -0.3327 -1.1231  0.4964
  576MOL0     C77688   3.768   4.855   1.330  0.2188 -0.1144  0.6536
  576MOL0     C77689   3.671   4.917   1.309 -0.0211 -0.4857 -0.3811
  576MOL0     C77690   4.144   4.382   1.069 -0.4177 -0.3050  0.5616
  576MOL0     C77691   4.241   4.322   0.993 -0.9047 -0.1676 -0.9557
  576MOL0     C77692   4.212   4.312   0.844  0.1650  0.0850  1.0517
  576MOL0     H77693   4.692   3.960   1.146 -0.9674  0.0411  0.4032
  576MOL0     H77694   4.886   3.825   1.040  3.0145  1.2551 -0.5008
  576MOL0     H77695   5.001   3.908   0.614 -1.5260 -0.5853 -0.1183
  576MOL0     H77696   5.141   3.835   0.678  0.5281  0.7429  1.4224
  576MOL0     H77697   4.861   3.692   0.621 -0.6606 -1.3221 -4.0082
  576MOL0     H77698   5.002   3.615   0.699 -1.8768  1.7865  2.0377
  576MOL0     H77699   5.142   3.658   0.491  0.5115  2.4498 -3.2587
  576MOL0     H77700   5.008   3.763   0.439  1.4652  2.7270  3.4622
  576MOL0     H77701   5.015   3.455   0.492 -0.9811 -3.2793 -2.6225
  576MOL0     H77702   4.875   3.557   0.415  1.0067  2.1753 -1.2543
  576MOL0     H77703   4.952   3.575   0.227  0.6018  0.8730  1.0502
  576MOL0     H77704   5.129   3.557   0.276  0.3919  1.9940 -1.1333
  576MOL0     H77705   5.097   3.321   0.338  2.0175 -0.1777 -2.4322
  576MOL0     H77706   4.924   3.321   0.277 -0.1180 -2.1609  0.3050
  576MOL0     H77707   5.166   3.377   0.106 -0.1692 -0.1541 -0.2325
  576MOL0     H77708   4.991   3.385   0.061 -0.3270 -3.1151 -2.3484
  576MOL0     H77709   5.110   3.117   0.174 -0.7647 -0.8368  0.5227
  576MOL0     H77710   4.948   3.160   0.111  0.7472 -1.7955  1.3819
  576MOL0     H77711   4.908   3.142  -0.151 -0.9679  0.8577 -0.3154
  576MOL0     H77712   5.148   3.068  -0.444 -1.6153  0.0471 -2.0707
  576MOL0     H77713   5.002   3.003  -0.397 -1.1634  0.8129 -2.0367
  576MOL0     H77714   4.902   3.254  -0.379  0.5979 -0.0055  0.6344
  576MOL0     H77715   5.059   3.314  -0.373 -2.0517 -0.1837  1.8208
  576MOL0     H77716   4.931   3.346  -0.583 -0.8623 -0.6881 -3.0358
  576MOL0     H77717   4.908   3.183  -0.609 -0.8490  0.2125  1.0625
  576MOL0     H77718   5.106   3.292  -0.765  2.2569 -0.3664 -1.1434
  576MOL0     H77719   5.160   3.160  -0.666 -2.1921  0.8391 -2.9983
  576MOL0     H77720   5.368   3.174  -0.697  1.4040 -0.3713  0.4051
  576MOL0     H77721   5.587   3.176  -0.707 -3.8853 -1.8846  0.2425
  576MOL0     H77722   5.938   3.655  -0.463  0.8796 -2.6430  2.2629
  576MOL0     H77723   6.173   3.713  -0.457 -1.5271  0.4905  0.8339
  576MOL0     H77724   6.360   3.655  -0.827  1.5589 -1.7950  0.1335
  576MOL0     H77725   6.404   3.800  -0.734 -2.1399  0.6015  0.9646
  576MOL0     H77726   6.605   3.713  -0.663  0.4765 -1.4349  1.3636
  576MOL0     H77727   6.566   3.540  -0.708 -0.9485  1.1085  0.4954
  576MOL0     H77728   6.561   3.589  -0.945  2.9848 -1.4011 -0.8033
  576MOL0     H77729   6.603   3.754  -0.917 -0.3077  0.5001  0.7387
  576MOL0     H77730   6.764   3.509  -0.838 -3.4581 -0.3867  0.7153
  576MOL0     H77731   6.818   3.686  -0.824  2.0253 -1.0115 -1.5390
  576MOL0     H77732   6.789   3.556  -1.094  0.5400  0.3897 -0.4799
  576MOL0     H77733   6.932   3.578  -1.016 -0.0957  0.5964 -3.4019
  576MOL0     H77734   6.729   3.779  -1.098 -0.4131 -0.5257 -3.2525
  576MOL0     H77735   6.879   3.825  -1.010 -0.5587  1.3606 -1.1566
  576MOL0     H77736   6.897   3.862  -1.266  0.9045  1.6298  2.5933
  576MOL0     H77737   6.863   3.685  -1.284  0.7587  0.4960 -0.9636
  576MOL0     H77738   7.112   3.794  -1.294 -1.8930 -0.4106 -1.1452
  576MOL0     H77739   7.094   3.763  -1.114 -0.0133  2.4273  0.2115
  576MOL0     H77740   6.245   3.484  -0.804  0.4740  3.0953 -1.4501
  576MOL0     H77741   6.003   3.420  -0.827  0.1803 -1.0044  0.5105
  576MOL0     H77742   5.585   3.585  -0.562  1.8839  0.2075 -0.0477
  576MOL0     H77743   5.364   3.582  -0.535 -2.0678  0.0195 -3.6044
  576MOL0     H77744   4.818   4.024   0.670  0.3791  0.8332 -0.1907
  576MOL0     H77745   4.641   4.150   0.759 -0.6891 -0.0696 -0.2157
  576MOL0     H77746   4.484   4.280   1.234  0.4809  2.2374  0.4051
  576MOL0     H77747   4.321   4.396   1.355  1.0993 -3.1043 -0.7930
  576MOL0     H77748   4.152   4.594   1.406  1.5134 -0.9583 -1.4082
  576MOL0     H77749   4.128   4.435   1.476 -1.3289  0.5915  2.6313
  576MOL0     H77750   3.968   4.598   1.581 -2.4037  2.0358  0.2041
  576MOL0     H77751   3.912   4.449   1.511  1.5960 -0.5672 -2.5140
  576MOL0     H77752   3.763   4.636   1.475 -0.1159 -1.9619 -1.7204
  576MOL0     H77753   3.804   4.581   1.320 -0.3237  0.4567 -0.0450
  576MOL0     H77754   3.941   4.829   1.446 -0.1509 -3.4336  1.9046
  576MOL0     H77755   3.957   4.788   1.281 -0.1046  1.3885  0.8891
  576MOL0     H77756   3.585   4.980   1.298 -0.5978 -1.1875 -0.0659
  576MOL0     H77757   4.058   4.422   1.017 -0.7971 -3.2370 -1.2858
  576MOL0     H77758   4.106   4.293   0.821 -0.4388  2.0254  1.9936
  576MOL0     H77759   4.225   4.407   0.792  2.5139 -1.0672 -0.6765
  576MOL0     H77760   4.267   4.237   0.787  1.3489  3.5806 -2.8907
  577MOL0     O77761   1.772   9.679   2.795 -0.4340  0.3058  0.3881
  577MOL0     C77762   1.751   9.799   2.775  0.8040  0.8297 -0.0588
  577MOL0     O77763   1.712   9.852   2.663  0.3499 -0.3063 -0.1187
  577MOL0     C77764   1.730   9.790   2.543 -0.4261 -0.0545  1.3672
  577MOL0     C77765   1.616   9.775   2.459 -0.4079 -0.0538 -0.5567
  577MOL0     C77766   1.639   9.714   2.328  1.1108 -0.2497 -0.0985
  577MOL0     C77767   1.763   9.682   2.284  0.3026  0.8312 -0.1539
  577MOL0     O77768   1.783   9.638   2.156  0.2887  0.2511 -0.2596
  577MOL0     C77769   1.713   9.694   2.046  1.2739 -0.6204  0.0930
  577MOL0     C77770   1.806   9.692   1.931  0.8577 -0.0874 -0.1786
  577MOL0     C77771   1.729   9.727   1.806 -0.4452  0.5762  1.3409
  577MOL0     C77772   1.823   9.813   1.709  0.7294 -0.4189 -0.5019
  577MOL0     C77773   1.739   9.851   1.579 -0.3716 -0.3834  0.2421
  577MOL0     C77774   1.680   9.994   1.597 -0.0641 -0.3321 -0.4181
  577MOL0     C77775   1.561  10.019   1.497 -0.4410 -0.1727 -0.1035
  577MOL0     C77776   1.611  10.049   1.354  0.3071 -0.1183 -0.4997
  577MOL0     N77777   1.668  10.184   1.335  0.8139 -0.2331 -0.1704
  577MOL0     C77778   1.600  10.286   1.267 -0.3084 -0.3127  0.5244
  577MOL0     C77779   1.675  10.394   1.302  0.5602  0.2795  0.1144
  577MOL0     C77780   1.658  10.530   1.248 -0.2728  1.1954  0.4108
  577MOL0     C77781   1.586  10.557   1.115  0.8502  0.2587  0.5848
  577MOL0     C77782   1.663  10.514   0.986  0.1236 -0.0143  0.4756
  577MOL0     C77783   1.614  10.592   0.863 -0.1644  0.3657  0.2841
  577MOL0     O77784   1.471  10.564   0.834 -0.2744  0.5496  0.0090
  577MOL0     C77785   1.414  10.632   0.727 -1.1066  0.1812 -0.6083
  577MOL0     C77786   1.481  10.736   0.654  1.1858  0.0971 -0.0981
  577MOL0     C77787   1.419  10.785   0.535  0.4838 -0.6931 -0.2544
  577MOL0     C77788   1.283  10.752   0.509 -0.1420 -1.5167  0.2860
  577MOL0     C77789   1.224  10.818   0.392  0.3979  0.3645 -0.5614
  577MOL0     O77790   1.121  10.761   0.330 -0.1433  0.9857  0.3020
  577MOL0     C77791   1.081  10.816   0.210  0.0328  0.3746 -0.1204
  577MOL0     C77792   1.004  10.931   0.204 -0.1091  0.6301  0.7431
  577MOL0     C77793   0.976  10.978   0.078  0.1479 -1.1888  0.2169
  577MOL0     C77794   1.005  10.924  -0.039 -0.5718  0.8947 -0.2970
  577MOL0     O77795   0.977  10.995  -0.151  0.0790 -0.3795 -0.7177
  577MOL0     C77796   1.038  10.950  -0.274 -0.7203 -0.0518  0.3421
  577MOL0     C77797   1.014  11.025  -0.399  0.6054 -0.2917 -0.0164
  577MOL0     C77798   0.889  10.985  -0.481 -1.0946  0.1198 -0.6623
  577MOL0     C77799   0.898  10.940  -0.630 -0.8684 -0.2680  0.6335
  577MOL0     C77800   0.923  11.057  -0.719 -0.3555  0.5231  0.2455
  577MOL0     C77801   0.801  11.131  -0.769  0.7804 -0.2383  1.2824
  577MOL0     C77802   0.828  11.245  -0.860 -0.0843 -0.3248 -0.3205
  577MOL0     C77803   0.837  11.226  -1.012  1.1768 -0.6529  0.5936
  577MOL0    Cl77804   0.666  11.188  -1.054  0.0212  0.0266  0.0309
  577MOL0     C77805   1.089  10.809  -0.039  0.6817  0.4920 -0.5525
  577MOL0     C77806   1.120  10.751   0.088 -0.2138  0.5923  0.9362
  577MOL0     O77807   1.282  10.914   0.341  0.2482  0.6259 -0.2398
  577MOL0     C77808   1.208  10.678   0.592  0.1651  0.2317  0.5650
  577MOL0     C77809   1.272  10.613   0.701 -0.0948  0.0582 -0.1556
  577MOL0     N77810   1.780  10.362   1.378  0.6290 -0.1740 -0.0414
  577MOL0     N77811   1.786  10.233   1.384  0.2202  0.0999 -0.0843
  577MOL0     C77812   1.869   9.695   2.375 -0.0382  0.3560 -0.0089
  577MOL0     C77813   1.852   9.744   2.507 -0.2079 -0.2627  1.1766
  577MOL0     C77814   1.743   9.885   2.895  0.7778 -0.3524  0.1855
  577MOL0     C77815   1.706  10.023   2.883  0.3202 -0.1315 -0.4351
  577MOL0     C77816   1.704  10.111   2.991  0.4838  0.4805  0.2385
  577MOL0     C77817   1.744  10.068   3.124 -0.5107  0.3566  1.3973
  577MOL0     O77818   1.722  10.166   3.221 -0.2819  0.1662 -0.5053
  577MOL0     C77819   1.764  10.127   3.357 -0.8646 -0.6341 -0.8443
  577MOL0     C77820   1.722  10.232   3.465  0.4483  0.2372  0.8457
  577MOL0     C77821   1.796  10.210   3.604 -0.7959  0.4535  0.4636
  577MOL0     C77822   1.762  10.074   3.675 -0.2408  0.1606 -0.0275
  577MOL0     C77823   1.809  10.088   3.810  0.9287 -0.0337  0.4113
  577MOL0     C77824   1.842  10.117   3.920 -0.2517  1.4514 -0.6667
  577MOL0     C77825   1.789   9.938   3.140 -0.2029 -0.8358 -0.4120
  577MOL0     C77826   1.784   9.842   3.029 -0.0734 -0.4624  0.1466
  577MOL0     C77827   1.818   9.698   3.063  0.2596 -0.0818 -0.7737
  577MOL0     H77828   1.515   9.797   2.491 -1.0669 -3.0244 -0.2308
  577MOL0     H77829   1.556   9.699   2.260  0.3008 -2.1442  1.2428
  577MOL0     H77830   1.625   9.634   2.020 -0.2524  0.1650  3.0084
  577MOL0     H77831   1.691   9.799   2.063 -2.5379 -1.4503  1.2599
  577MOL0     H77832   1.850   9.592   1.928  0.6212 -0.3614  2.8846
  577MOL0     H77833   1.888   9.760   1.952 -1.5882  2.2136  2.8182
  577MOL0     H77834   1.632   9.776   1.818 -2.2668 -2.3697 -0.3387
  577MOL0     H77835   1.702   9.637   1.751 -0.2449  1.3083  0.0244
  577MOL0     H77836   1.849   9.903   1.766 -1.7776  1.6940 -2.4678
  577MOL0     H77837   1.909   9.756   1.672  0.4234 -0.0343 -1.8559
  577MOL0     H77838   1.788   9.846   1.481 -1.8642  1.1550 -0.6399
  577MOL0     H77839   1.654   9.782   1.568 -1.8953  1.2944  0.9756
  577MOL0     H77840   1.642  10.004   1.699  2.5672  1.6799  0.4854
  577MOL0     H77841   1.751  10.077   1.587  1.7024 -1.6520  0.6197
  577MOL0     H77842   1.504  10.108   1.527  0.5678 -0.3343  2.4892
  577MOL0     H77843   1.492   9.935   1.492 -4.2432  2.5887  1.1342
  577MOL0     H77844   1.691   9.977   1.334  2.5469  2.3679 -1.0488
  577MOL0     H77845   1.527  10.035   1.285  1.2144  2.0804 -2.1808
  577MOL0     H77846   1.525  10.256   1.195 -1.9593 -2.0403  2.8068
  577MOL0     H77847   1.607  10.586   1.328 -2.7677 -1.5290  0.9082
  577MOL0     H77848   1.753  10.581   1.234 -0.1263  0.7808 -0.1513
  577MOL0     H77849   1.490  10.505   1.106 -0.6654  2.0113  4.4016
  577MOL0     H77850   1.558  10.662   1.104 -2.8927 -0.6848 -0.5119
  577MOL0     H77851   1.646  10.407   0.968 -3.2474  0.7083 -1.4386
  577MOL0     H77852   1.768  10.543   0.981  0.4090  0.0872  4.2887
  577MOL0     H77853   1.682  10.569   0.780 -0.6391 -1.8294  0.4381
  577MOL0     H77854   1.626  10.699   0.880 -2.6554  1.1184 -2.1052
  577MOL0     H77855   1.584  10.767   0.670  1.0870  0.7022 -0.6097
  577MOL0     H77856   1.479  10.869   0.501  0.2199  0.6738  2.4151
  577MOL0     H77857   0.974  10.979   0.297  0.7849  0.6208  1.0515
  577MOL0     H77858   0.928  11.074   0.063 -2.1227 -2.3076 -0.0856
  577MOL0     H77859   1.147  10.954  -0.262 -0.5773 -0.2395 -0.7722
  577MOL0     H77860   1.003  10.849  -0.294 -0.2591  0.1675 -1.9142
  577MOL0     H77861   1.013  11.133  -0.381 -1.2812 -0.2645 -0.0217
  577MOL0     H77862   1.102  10.997  -0.458 -0.1507 -2.2335 -0.2962
  577MOL0     H77863   0.845  10.905  -0.420  0.2222  0.7848  1.2183
  577MOL0     H77864   0.832  11.078  -0.473  0.2814  1.1530 -2.1482
  577MOL0     H77865   0.803  10.890  -0.652 -1.0125 -0.3941  1.5341
  577MOL0     H77866   0.982  10.870  -0.636 -0.5356  0.2513 -2.0560
  577MOL0     H77867   0.982  11.020  -0.803  2.9430 -0.0657  2.6402
  577MOL0     H77868   0.989  11.123  -0.661 -0.0983  1.2232 -0.8209
  577MOL0     H77869   0.737  11.054  -0.812  0.4418  0.6989  0.0349
  577MOL0     H77870   0.740  11.158  -0.682  0.0798 -0.5639  0.8941
  577MOL0     H77871   0.921  11.291  -0.824 -0.6664  0.4437  0.2284
  577MOL0     H77872   0.747  11.317  -0.853  0.9041  0.8188 -0.3149
  577MOL0     H77873   0.859  11.320  -1.063 -0.6608 -0.1368  0.6901
  577MOL0     H77874   0.915  11.154  -1.038  2.4320  0.2788  1.6273
  577MOL0     H77875   1.122  10.775  -0.136  1.1355  0.7003 -0.4752
  577MOL0     H77876   1.177  10.659   0.091 -0.9378  0.1341  1.0588
  577MOL0     H77877   1.104  10.665   0.563 -0.0073 -1.6568  1.8176
  577MOL0     H77878   1.217  10.540   0.759  2.7241 -1.6055  0.6227
  577MOL0     H77879   1.970   9.670   2.345  0.0291  1.5575 -0.8605
  577MOL0     H77880   1.930   9.751   2.582  1.9104  1.8477 -1.0163
  577MOL0     H77881   1.671  10.056   2.786 -1.7384 -0.5078  0.1159
  577MOL0     H77882   1.672  10.215   2.990  1.0112  0.6819  1.5096
  577MOL0     H77883   1.873  10.131   3.361 -0.9205  0.2213  1.4972
  577MOL0     H77884   1.736  10.026   3.388  2.4648 -2.1169 -2.1504
  577MOL0     H77885   1.615  10.223   3.484  0.6151  0.2077  1.8522
  577MOL0     H77886   1.737  10.334   3.428 -0.7683 -0.0066 -0.3950
  577MOL0     H77887   1.767  10.295   3.667 -0.8141 -0.9534  2.4694
  577MOL0     H77888   1.904  10.201   3.587 -0.8693 -3.1148  0.9597
  577MOL0     H77889   1.655  10.053   3.682  0.0204 -1.0565  0.5380
  577MOL0     H77890   1.818   9.991   3.632  0.6530  0.8991 -0.3306
  577MOL0     H77891   1.886  10.134   4.016  2.9435 -3.3145 -0.9324
  577MOL0     H77892   1.835   9.914   3.235  1.6060  1.8624 -0.5054
  577MOL0     H77893   1.835   9.687   3.170 -2.2112  0.7206 -0.2351
  577MOL0     H77894   1.735   9.631   3.039  0.1490 -0.0326 -0.5296
  577MOL0     H77895   1.905   9.684   2.998 -0.9206 -1.3030 -2.1631
  578MOL0     O77896   4.828   9.001  10.908  0.1663 -0.0511  0.2440
  578MOL0     C77897   4.822   8.885  10.957  0.2229 -0.1446  0.2990
  578MOL0     O77898   4.801   8.863  11.084 -0.2137  0.2190 -0.1174
  578MOL0     C77899   4.771   8.975  11.164 -0.7522 -0.5072  0.6133
  578MOL0     C77900   4.859   9.078  11.201  0.3445 -0.0858  0.0772
  578MOL0     C77901   4.819   9.181  11.287  0.1406 -0.1796 -0.5318
  578MOL0     C77902   4.703   9.162  11.360 -0.3591  0.6742  0.1940
  578MOL0     O77903   4.675   9.260  11.449 -0.1334  0.9989 -0.0609
  578MOL0     C77904   4.675   9.234  11.584  0.6575 -0.5458  0.1814
  578MOL0     C77905   4.529   9.195  11.626 -0.4632  0.2360  1.0376
  578MOL0     C77906   4.491   9.246  11.762 -1.6133  0.8331 -0.6107
  578MOL0     C77907   4.372   9.178  11.817 -0.0203  0.8338 -0.6842
  578MOL0     C77908   4.313   9.233  11.948  0.1044 -0.7074 -0.5715
  578MOL0     C77909   4.246   9.369  11.931  0.2829 -0.2477 -0.2880
  578MOL0     C77910   4.178   9.406  12.068 -0.6395 -0.9602  0.4641
  578MOL0     C77911   4.121   9.549  12.059  0.0487 -0.0005  0.1756
  578MOL0     N77912   4.087   9.589  12.202 -0.3909  0.5157  0.7698
  578MOL0     C77913   4.182   9.636  12.286 -0.0113 -0.8488  0.5098
  578MOL0     C77914   4.108   9.666  12.401 -0.0460  0.4211  0.3627
  578MOL0     C77915   4.175   9.719  12.526  0.4057 -0.2143 -0.3641
  578MOL0     C77916   4.239   9.847  12.479  0.2215  0.6126  0.2482
  578MOL0     C77917   4.158   9.969  12.433  0.3373 -0.3672  0.4677
  578MOL0     C77918   4.042  10.000  12.532 -0.1270 -0.5548  0.7672
  578MOL0     O77919   4.093  10.019  12.660  0.1442 -0.2111 -0.2388
  578MOL0     C77920   4.048  10.121  12.735  0.4635 -0.6219 -1.0062
  578MOL0     C77921   4.135  10.175  12.831 -0.0183  0.0359  0.2587
  578MOL0     C77922   4.097  10.276  12.911  0.0224  0.1302 -0.4326
  578MOL0     C77923   3.969  10.331  12.910  0.5238 -0.6841  0.1729
  578MOL0     C77924   3.926  10.441  13.007  0.2745  0.9250  0.5857
  578MOL0     O77925   3.818  10.516  12.965 -0.1616  0.0232  0.0472
  578MOL0     C77926   3.799  10.648  13.002 -0.1197  1.0953 -0.2787
  578MOL0     C77927   3.889  10.725  13.068  0.2556  0.7085 -0.6113
  578MOL0     C77928   3.865  10.857  13.088 -0.7123 -0.4239  0.3295
  578MOL0     C77929   3.743  10.922  13.052  0.2570  0.5902  0.2445
  578MOL0     O77930   3.728  11.042  13.110 -0.0150  0.0631 -0.3776
  578MOL0     C77931   3.626  11.126  13.060 -0.0423 -0.2906 -0.3177
  578MOL0     C77932   3.621  11.265  13.130  0.3377 -0.3730 -0.0025
  578MOL0     C77933   3.738  11.350  13.059  0.5219 -0.0798  0.4067
  578MOL0     C77934   3.728  11.507  13.090  0.5653 -0.7054  0.1709
  578MOL0     C77935   3.855  11.582  13.034  0.8932  0.9500 -0.2190
  578MOL0     C77936   3.922  11.688  13.114 -1.2610 -0.0322  0.4972
  578MOL0     C77937   3.966  11.653  13.261  0.5723  0.2319 -0.1770
  578MOL0     C77938   4.044  11.773  13.315  0.5679 -0.7353  0.2621
  578MOL0    Cl77939   4.132  11.740  13.468 -0.4155  0.4336 -0.6572
  578MOL0     C77940   3.652  10.839  12.984  0.2116 -0.6686 -0.4100
  578MOL0     C77941   3.680  10.709  12.954  0.0296  0.5945 -0.5424
  578MOL0     O77942   3.993  10.453  13.111 -0.4765 -0.0692 -0.0785
  578MOL0     C77943   3.875  10.273  12.818 -0.2158  0.1711  0.9282
  578MOL0     C77944   3.915  10.169  12.729 -0.1575  0.4059 -0.4065
  578MOL0     N77945   3.970   9.635  12.378 -0.4301 -0.1937  0.1671
  578MOL0     N77946   3.958   9.590  12.257 -0.6574 -0.2335 -1.0519
  578MOL0     C77947   4.610   9.065  11.320  0.7878 -0.1196 -0.4757
  578MOL0     C77948   4.647   8.976  11.222  0.6093 -0.7076 -0.6476
  578MOL0     C77949   4.839   8.773  10.854 -0.1906  0.1584 -1.0175
  578MOL0     C77950   4.879   8.810  10.723 -0.1772 -0.1036  0.6811
  578MOL0     C77951   4.921   8.705  10.631  0.0004 -1.0558 -0.1158
  578MOL0     C77952   4.908   8.572  10.662 -0.5132 -0.5438  0.6473
  578MOL0     O77953   4.945   8.488  10.565  0.4173 -0.9798  0.0444
  578MOL0     C77954   4.858   8.374  10.544  0.7340  0.1254 -0.3491
  578MOL0     C77955   4.857   8.331  10.406  0.1769  0.7555  1.2949
  578MOL0     C77956   4.993   8.273  10.358  0.5111 -0.0374  0.4128
  578MOL0     C77957   5.015   8.286  10.203 -0.1665 -0.0836  0.4465
  578MOL0     C77958   5.131   8.374  10.186 -0.1241  0.1366 -0.6268
  578MOL0     C77959   5.236   8.429  10.167 -0.0868 -0.3411  0.0039
  578MOL0     C77960   4.861   8.540  10.787  0.0360 -0.4787  0.4598
  578MOL0     C77961   4.841   8.630  10.891  0.4031  0.6006  1.1839
  578MOL0     C77962   4.806   8.573  11.030  0.2749 -0.3054  0.6569
  578MOL0     H77963   4.959   9.077  11.159  1.0108  0.1524  1.5691
  578MOL0     H77964   4.900   9.251  11.304 -1.7008  2.1807 -0.9378
  578MOL0     H77965   4.747   9.153  11.602  1.1737  0.0553  0.8564
  578MOL0     H77966   4.717   9.321  11.636 -2.0201 -0.0040  1.6234
  578MOL0     H77967   4.534   9.086  11.620 -2.1080  0.1341  1.0320
  578MOL0     H77968   4.463   9.240  11.550  2.8704  2.7792 -0.6019
  578MOL0     H77969   4.484   9.356  11.764  1.9971  1.1736  0.9609
  578MOL0     H77970   4.568   9.229  11.837 -1.0786 -0.8065 -1.5100
  578MOL0     H77971   4.286   9.189  11.750 -0.0755 -3.8850 -1.7457
  578MOL0     H77972   4.393   9.072  11.833 -3.0923 -0.0081 -1.4590
  578MOL0     H77973   4.237   9.162  11.983 -0.5817  0.4126  0.2659
  578MOL0     H77974   4.392   9.239  12.023 -2.6961  0.4855  2.5729
  578MOL0     H77975   4.312   9.456  11.920  0.0387  0.6604  3.8716
  578MOL0     H77976   4.179   9.371  11.844 -3.7793  1.3038  2.5570
  578MOL0     H77977   4.261   9.398  12.139  0.5621 -1.3742 -0.9257
  578MOL0     H77978   4.098   9.336  12.093 -2.1409  0.5908  0.1699
  578MOL0     H77979   4.197   9.623  12.033  2.0140 -1.3540  1.7219
  578MOL0     H77980   4.025   9.555  12.007 -0.4413 -2.4219  0.6442
  578MOL0     H77981   4.290   9.634  12.273 -0.0696  0.2728 -0.3100
  578MOL0     H77982   4.110   9.735  12.612  0.0437  2.1816 -0.9989
  578MOL0     H77983   4.255   9.652  12.560  5.0242  4.1626 -1.3490
  578MOL0     H77984   4.307   9.876  12.559 -2.0056  1.3719  1.9669
  578MOL0     H77985   4.309   9.829  12.397 -1.5929 -0.9114 -1.0658
  578MOL0     H77986   4.112   9.941  12.338  0.8842  3.9920 -1.2905
  578MOL0     H77987   4.217  10.060  12.418  0.1144 -0.4866 -1.2444
  578MOL0     H77988   3.973   9.915  12.530 -3.0819  1.7021 -1.1242
  578MOL0     H77989   3.983  10.083  12.494 -1.9183 -1.0817  2.2096
  578MOL0     H77990   4.235  10.134  12.845 -0.1127 -1.9497 -3.6548
  578MOL0     H77991   4.171  10.323  12.976 -1.2027  0.7174  0.5882
  578MOL0     H77992   3.989  10.686  13.086  1.2342  2.5023 -1.9524
  578MOL0     H77993   3.961  10.898  13.119  0.9192 -1.7757 -2.4453
  578MOL0     H77994   3.650  11.147  12.955  2.3760  2.1757  0.5974
  578MOL0     H77995   3.529  11.080  13.081  0.0758 -1.7858 -2.7388
  578MOL0     H77996   3.522  11.311  13.127  0.0346 -1.0153 -0.1196
  578MOL0     H77997   3.639  11.252  13.237  2.0003 -0.4026 -0.2632
  578MOL0     H77998   3.840  11.313  13.073 -0.1004 -2.0678 -0.0294
  578MOL0     H77999   3.727  11.347  12.951  1.1589  1.0220  0.2948
  578MOL0     H78000   3.718  11.522  13.198 -3.3907  2.8709 -0.4626
  578MOL0     H78001   3.634  11.544  13.048  0.9543  0.0813 -0.0187
  578MOL0     H78002   3.827  11.621  12.936  3.1143  0.2639 -1.1942
  578MOL0     H78003   3.927  11.502  13.015  2.3259  1.4611  2.5375
  578MOL0     H78004   4.002  11.725  13.050 -1.0822 -0.2868  0.5731
  578MOL0     H78005   3.855  11.775  13.111 -0.4273  0.6009 -1.9528
  578MOL0     H78006   4.029  11.564  13.252 -0.7776 -0.5344 -4.9813
  578MOL0     H78007   3.886  11.622  13.329 -1.5816  3.5062 -0.9745
  578MOL0     H78008   4.124  11.798  13.243  1.3513  1.0933  1.6713
  578MOL0     H78009   3.979  11.860  13.330 -2.5720 -2.6253 -1.4256
  578MOL0     H78010   3.551  10.876  12.966  0.0527 -0.9550 -0.1288
  578MOL0     H78011   3.607  10.658  12.893 -0.7814  2.0451 -0.8362
  578MOL0     H78012   3.775  10.308  12.796 -1.0064 -1.6177  1.5532
  578MOL0     H78013   3.844  10.126  12.659  0.3196  0.4804 -0.9443
  578MOL0     H78014   4.521   9.038  11.377  2.3924 -0.7580  1.8425
  578MOL0     H78015   4.576   8.898  11.195  1.2678 -1.9316  0.9977
  578MOL0     H78016   4.882   8.916  10.699  1.2522 -0.7220 -2.2409
  578MOL0     H78017   4.971   8.714  10.536 -0.2541 -2.4424 -0.4055
  578MOL0     H78018   4.754   8.398  10.569  1.1989  0.5242  1.3739
  578MOL0     H78019   4.892   8.290  10.606  1.4852  1.6162  1.3399
  578MOL0     H78020   4.821   8.406  10.335 -2.4578  0.7825  2.5376
  578MOL0     H78021   4.783   8.251  10.397  1.2202 -0.5784  3.7182
  578MOL0     H78022   4.996   8.167  10.382 -0.7211 -1.0657 -3.3463
  578MOL0     H78023   5.082   8.310  10.409  0.9484 -3.8544  2.7891
  578MOL0     H78024   5.045   8.193  10.154  1.1918 -0.0277  1.1313
  578MOL0     H78025   4.934   8.331  10.144  0.9792 -0.9602 -1.9444
  578MOL0     H78026   5.331   8.474  10.151 -1.9666  4.0014 -0.3692
  578MOL0     H78027   4.864   8.433  10.807  0.0707  0.0686  3.9397
  578MOL0     H78028   4.740   8.640  11.086  2.3484  2.6110 -0.1127
  578MOL0     H78029   4.760   8.475  11.015  1.4673 -0.8178  0.1773
  578MOL0     H78030   4.896   8.568  11.093 -0.6510  0.7302  2.1351
  579MOL0     O78031  11.107   4.253   0.625 -0.1211 -0.1225  0.6254
  579MOL0     C78032  11.019   4.280   0.543 -0.2174  0.3278 -0.1929
  579MOL0     O78033  11.038   4.326   0.416  0.1536 -0.5722  0.2353
  579MOL0     C78034  11.159   4.337   0.355 -0.0409 -0.5274 -0.0310
  579MOL0     C78035  11.286   4.302   0.401 -0.4787 -1.0938 -0.2623
  579MOL0     C78036  11.399   4.333   0.323 -0.1455  0.0992 -0.8079
  579MOL0     C78037  11.389   4.393   0.198  0.2723 -0.9717  0.5184
  579MOL0     O78038  11.495   4.428   0.118 -0.0045  0.6913 -0.5226
  579MOL0     C78039  11.621   4.387   0.156 -0.7468  0.4094 -0.7325
  579MOL0     C78040  11.731   4.427   0.050 -1.2811  0.0082  0.2107
  579MOL0     C78041  11.719   4.366  -0.086  0.1601 -0.9672  0.8052
  579MOL0     C78042  11.643   4.455  -0.184 -0.1279 -0.3412 -0.2311
  579MOL0     C78043  11.543   4.394  -0.282 -1.0275 -0.3142  0.0357
  579MOL0     C78044  11.413   4.364  -0.208  1.2411 -0.2262 -0.6615
  579MOL0     C78045  11.303   4.300  -0.292 -0.1737 -0.3983 -0.2163
  579MOL0     C78046  11.236   4.382  -0.399  0.1293  0.0702  0.0314
  579MOL0     N78047  11.194   4.517  -0.357 -0.3948 -0.1669  0.4862
  579MOL0     C78048  11.106   4.545  -0.256 -0.5356  0.3553  0.3511
  579MOL0     C78049  11.131   4.673  -0.217  0.0399  0.6461 -0.7834
  579MOL0     C78050  11.058   4.751  -0.112 -0.3062 -1.2889  0.4326
  579MOL0     C78051  10.909   4.734  -0.115 -0.4616 -0.7573 -0.2821
  579MOL0     C78052  10.855   4.623  -0.032  0.6791  0.2123 -0.3495
  579MOL0     C78053  10.711   4.622  -0.002  0.4994 -0.5669 -0.7257
  579MOL0     O78054  10.698   4.485   0.018  0.1465  0.5692  0.4909
  579MOL0     C78055  10.581   4.448   0.083 -0.2471  0.4180  0.7135
  579MOL0     C78056  10.490   4.528   0.152  0.4318 -0.3415  0.1677
  579MOL0     C78057  10.385   4.466   0.220 -0.6693  0.3742 -0.2958
  579MOL0     C78058  10.363   4.330   0.218 -0.2738 -0.6208  0.5520
  579MOL0     C78059  10.248   4.270   0.285  0.5936  0.0897 -0.3891
  579MOL0     O78060  10.164   4.361   0.359  0.2951 -0.0564 -0.0892
  579MOL0     C78061  10.061   4.344   0.449 -0.3193 -0.6684 -1.1406
  579MOL0     C78062  10.039   4.222   0.505  0.5656  0.8535  0.6320
  579MOL0     C78063   9.928   4.195   0.589 -0.1383 -0.1835 -0.2310
  579MOL0     C78064   9.843   4.286   0.627  0.8783 -0.9347 -0.6669
  579MOL0     O78065   9.731   4.255   0.700 -0.3725  0.2506  0.1555
  579MOL0     C78066   9.618   4.337   0.704 -0.4954 -1.2344  0.2318
  579MOL0     C78067   9.513   4.286   0.810  0.2532 -0.7443 -0.0509
  579MOL0     C78068   9.557   4.334   0.954 -0.4122  0.0695 -0.6669
  579MOL0     C78069   9.668   4.252   1.012 -0.3725  0.4434 -0.8882
  579MOL0     C78070   9.711   4.296   1.154  0.5536 -0.5711  0.8927
  579MOL0     C78071   9.837   4.225   1.204  0.8330  0.1551  0.4542
  579MOL0     C78072   9.971   4.301   1.202 -0.0496  0.2099 -0.3639
  579MOL0     C78073  10.078   4.224   1.299  0.3068  0.0188 -0.0597
  579MOL0    Cl78074  10.078   4.054   1.248  0.1520 -0.4996  0.0101
  579MOL0     C78075   9.867   4.414   0.568  0.7218 -0.6385 -0.6895
  579MOL0     C78076   9.974   4.443   0.484  0.2545  0.6963 -0.9699
  579MOL0     O78077  10.246   4.147   0.301  0.7314 -0.5882 -0.1493
  579MOL0     C78078  10.454   4.249   0.144 -0.2281 -0.2302 -0.3165
  579MOL0     C78079  10.558   4.312   0.077  0.2728  0.7781  0.1376
  579MOL0     N78080  11.221   4.727  -0.310 -0.3360  0.7663  0.1999
  579MOL0     N78081  11.266   4.630  -0.384  0.8416  0.1571 -0.5789
  579MOL0     C78082  11.258   4.420   0.155  0.6635 -0.6608  0.3077
  579MOL0     C78083  11.147   4.393   0.234 -0.0110 -0.6688  0.4376
  579MOL0     C78084  10.880   4.251   0.585 -0.5461 -0.7309 -0.2732
  579MOL0     C78085  10.864   4.174   0.704  0.8097  1.1178  0.4105
  579MOL0     C78086  10.733   4.139   0.751 -0.2727  0.5297  0.4120
  579MOL0     C78087  10.620   4.183   0.689  0.6917 -0.7552 -0.1040
  579MOL0     O78088  10.498   4.157   0.732  0.0719  0.0711  0.4155
  579MOL0     C78089  10.479   4.039   0.818 -1.1472  0.0676  0.0319
  579MOL0     C78090  10.329   4.001   0.817 -1.2802  0.1099  0.5451
  579MOL0     C78091  10.294   3.878   0.904  0.6965 -0.0767  0.4203
  579MOL0     C78092  10.161   3.824   0.874  0.1884  0.1068 -0.7727
  579MOL0     C78093  10.048   3.921   0.879  0.2480  0.6320 -0.4871
  579MOL0     C78094   9.957   4.005   0.871  0.8340 -0.3339 -0.1542
  579MOL0     C78095  10.631   4.256   0.572 -0.0508 -0.0509  0.0034
  579MOL0     C78096  10.760   4.299   0.517 -0.1751  0.1359 -0.2878
  579MOL0     C78097  10.768   4.398   0.400  0.0040 -0.0251 -0.0557
  579MOL0     H78098  11.290   4.239   0.489 -1.0526 -2.4279 -1.1470
  579MOL0     H78099  11.490   4.296   0.367 -2.0758 -1.0830  2.5469
  579MOL0     H78100  11.656   4.438   0.246 -0.1078  3.4261 -2.5391
  579MOL0     H78101  11.624   4.278   0.166 -0.7209  0.0940 -3.4708
  579MOL0     H78102  11.831   4.405   0.088 -1.4277  0.4831  0.8971
  579MOL0     H78103  11.736   4.536   0.045  0.4294  0.0370  1.4744
  579MOL0     H78104  11.665   4.271  -0.087  1.3656 -1.7171 -1.7046
  579MOL0     H78105  11.819   4.355  -0.130  0.2390  2.5596 -0.2335
  579MOL0     H78106  11.590   4.520  -0.113 -0.2029 -1.9098  1.2179
  579MOL0     H78107  11.712   4.519  -0.240 -2.6426  1.6005 -1.3175
  579MOL0     H78108  11.523   4.468  -0.361 -3.5785 -2.3298 -1.3569
  579MOL0     H78109  11.592   4.301  -0.312  1.4730  0.5908  1.0435
  579MOL0     H78110  11.433   4.306  -0.118 -0.6307  0.8078  0.5015
  579MOL0     H78111  11.376   4.462  -0.175  0.3708 -1.3452  1.8992
  579MOL0     H78112  11.217   4.283  -0.226  0.5106 -1.2164  0.4749
  579MOL0     H78113  11.336   4.208  -0.341  0.6158  0.5494 -1.5397
  579MOL0     H78114  11.311   4.395  -0.478 -1.4058 -2.3309 -1.9497
  579MOL0     H78115  11.150   4.326  -0.435 -0.3555  0.1975  0.9404
  579MOL0     H78116  11.045   4.472  -0.204 -2.6687  1.9134  0.1724
  579MOL0     H78117  11.109   4.726  -0.019 -0.7707 -3.5872  0.1129
  579MOL0     H78118  11.073   4.854  -0.148 -0.5624  0.8461  5.5670
  579MOL0     H78119  10.867   4.828  -0.077 -0.6983 -0.8329 -0.3549
  579MOL0     H78120  10.884   4.718  -0.220 -0.0476 -0.8793 -0.3626
  579MOL0     H78121  10.918   4.622   0.057 -1.3867  0.4743  1.1827
  579MOL0     H78122  10.891   4.527  -0.071  2.5714  0.8844 -0.3492
  579MOL0     H78123  10.637   4.669  -0.068  1.7979  3.3281  0.3355
  579MOL0     H78124  10.709   4.679   0.091 -0.0729  1.2846 -1.8245
  579MOL0     H78125  10.493   4.636   0.152  2.4137 -0.3647  0.8383
  579MOL0     H78126  10.315   4.537   0.263  0.3218  0.4833  1.1730
  579MOL0     H78127  10.102   4.134   0.494  0.6108  0.8563  0.8635
  579MOL0     H78128   9.881   4.105   0.627 -4.8654  2.5063  1.0211
  579MOL0     H78129   9.634   4.443   0.724 -0.3596 -1.5282  1.7839
  579MOL0     H78130   9.577   4.327   0.603  3.7784 -1.1167 -1.7476
  579MOL0     H78131   9.419   4.336   0.787  1.5915  0.8451 -2.5210
  579MOL0     H78132   9.503   4.178   0.797  1.1769 -0.7573 -0.7888
  579MOL0     H78133   9.602   4.434   0.950 -1.1042  0.3677 -1.1707
  579MOL0     H78134   9.468   4.347   1.016 -0.0810  1.2225 -0.3894
  579MOL0     H78135   9.758   4.261   0.951  1.3314  3.0120  1.7403
  579MOL0     H78136   9.641   4.147   1.023 -0.4599  0.4727 -0.8203
  579MOL0     H78137   9.629   4.283   1.225  3.1440 -1.4388  4.0144
  579MOL0     H78138   9.736   4.400   1.132 -0.0602 -0.5930  0.0304
  579MOL0     H78139   9.814   4.196   1.307 -0.5082 -0.8941 -0.1047
  579MOL0     H78140   9.844   4.129   1.151  1.4477 -0.0957  0.9719
  579MOL0     H78141   9.961   4.408   1.223 -3.4978 -0.2430  1.0793
  579MOL0     H78142  10.009   4.300   1.100 -0.7615  0.4905 -0.6423
  579MOL0     H78143  10.173   4.278   1.288  0.3664  0.4579  2.1489
  579MOL0     H78144  10.044   4.241   1.402 -1.1027 -0.0085 -0.5053
  579MOL0     H78145   9.796   4.493   0.593  4.4449  2.7422  0.2843
  579MOL0     H78146   9.985   4.544   0.446 -2.4234  1.2310 -0.5753
  579MOL0     H78147  10.453   4.142   0.156 -0.3550 -0.5744 -2.8984
  579MOL0     H78148  10.619   4.238   0.028  1.2764 -0.7350  3.4182
  579MOL0     H78149  11.230   4.484   0.072 -1.9114 -3.2704 -1.0225
  579MOL0     H78150  11.048   4.418   0.197  0.6100  0.6115 -0.4369
  579MOL0     H78151  10.947   4.132   0.761 -0.1525 -1.5124  0.0466
  579MOL0     H78152  10.736   4.079   0.841  1.7097 -1.7541 -1.0317
  579MOL0     H78153  10.511   4.068   0.919 -0.7847 -0.3379  0.0379
  579MOL0     H78154  10.547   3.957   0.793 -1.9028 -0.9633  1.2743
  579MOL0     H78155  10.291   3.981   0.716  3.9655  0.8431 -1.8704
  579MOL0     H78156  10.281   4.086   0.866 -1.1218 -0.2424  1.3304
  579MOL0     H78157  10.296   3.912   1.008  0.8437 -0.6972  0.6268
  579MOL0     H78158  10.369   3.800   0.886  0.1379 -0.9569  1.7067
  579MOL0     H78159  10.157   3.762   0.783  4.0615 -0.5568 -0.6498
  579MOL0     H78160  10.138   3.742   0.944 -0.7380  0.2265 -0.9208
  579MOL0     H78161   9.884   4.084   0.870  0.5547 -0.4695  2.4957
  579MOL0     H78162  10.546   4.286   0.513 -0.6565 -0.2555  0.7516
  579MOL0     H78163  10.811   4.348   0.313 -0.8635 -0.9289  0.0152
  579MOL0     H78164  10.675   4.442   0.363  1.1316  1.1395 -1.6065
  579MOL0     H78165  10.833   4.480   0.431 -0.7645 -0.3788  2.8548
  580MOL0     O78166   8.546   2.413   2.787 -0.0033 -0.4651  0.0101
  580MOL0     C78167   8.596   2.430   2.897 -0.3699  0.3723 -1.0021
  580MOL0     O78168   8.587   2.345   3.008  0.2069 -0.1487  0.3636
  580MOL0     C78169   8.518   2.225   2.996  0.1215  0.1600  1.0090
  580MOL0     C78170   8.580   2.097   2.972  0.4138 -1.1266  0.6363
  580MOL0     C78171   8.510   1.985   2.993 -0.0335  0.8213 -0.7780
  580MOL0     C78172   8.376   1.985   3.037  1.1313 -0.0887 -0.3715
  580MOL0     O78173   8.310   1.871   3.053  0.6182  0.8901  0.1758
  580MOL0     C78174   8.385   1.745   3.052  0.1107  0.3713 -1.5381
  580MOL0     C78175   8.307   1.641   3.137  1.0587 -0.8837 -0.4825
  580MOL0     C78176   8.293   1.686   3.287 -0.7003 -0.3335 -0.0932
  580MOL0     C78177   8.248   1.568   3.365  0.0632 -0.6354 -0.0194
  580MOL0     C78178   8.231   1.616   3.511  0.4725 -0.0964 -0.5608
  580MOL0     C78179   8.209   1.485   3.598  0.2284 -0.0743 -0.2900
  580MOL0     C78180   8.342   1.426   3.634  1.1341  0.3275 -0.4444
  580MOL0     C78181   8.390   1.488   3.765 -0.8026 -0.7323  0.6133
  580MOL0     N78182   8.536   1.483   3.764  0.1132 -0.6852  0.0196
  580MOL0     C78183   8.611   1.591   3.712  0.1802  0.5679  0.2006
  580MOL0     C78184   8.735   1.559   3.729 -0.0979 -0.1874 -0.9057
  580MOL0     C78185   8.846   1.656   3.692 -0.1234  0.0005 -0.4379
  580MOL0     C78186   8.873   1.754   3.807 -0.3407 -0.4374  0.3959
  580MOL0     C78187   8.953   1.878   3.766  0.5125 -0.7050 -1.3294
  580MOL0     C78188   8.966   1.965   3.885 -0.5099 -0.0393 -0.8133
  580MOL0     O78189   8.846   2.035   3.929  0.1936  0.4800  0.0817
  580MOL0     C78190   8.805   2.141   3.846 -0.5898  0.5553 -0.3471
  580MOL0     C78191   8.690   2.199   3.881  0.7946 -0.0645  0.3326
  580MOL0     C78192   8.619   2.284   3.798  0.3124  0.3367  0.7795
  580MOL0     C78193   8.686   2.329   3.688  0.2426  0.3871  0.8117
  580MOL0     C78194   8.606   2.419   3.591 -0.5348 -0.0912  0.3659
  580MOL0     O78195   8.472   2.435   3.614 -1.2022 -0.8615  0.3891
  580MOL0     C78196   8.395   2.485   3.517  0.0830 -0.8471  0.7406
  580MOL0     C78197   8.281   2.543   3.570  0.2133  0.4261  0.7876
  580MOL0     C78198   8.181   2.600   3.494 -0.7336 -0.0997  0.1271
  580MOL0     C78199   8.191   2.588   3.350 -0.3166  0.1160 -0.7285
  580MOL0     O78200   8.084   2.621   3.276 -0.7289 -0.7621  0.5157
  580MOL0     C78201   7.966   2.688   3.335  0.3603  0.3659  0.5897
  580MOL0     C78202   7.863   2.709   3.228 -0.7247 -0.3250 -0.1974
  580MOL0     C78203   7.809   2.578   3.189 -0.4995 -0.1319  0.5795
  580MOL0     C78204   7.699   2.600   3.076 -0.4580 -0.1519  0.0134
  580MOL0     C78205   7.615   2.477   3.051  0.6535 -0.4206  0.1178
  580MOL0     C78206   7.525   2.498   2.936 -0.0986  0.1894 -1.6883
  580MOL0     C78207   7.421   2.389   2.937 -1.0776  0.8026  0.0126
  580MOL0     C78208   7.369   2.357   2.800  0.8295 -0.0971  0.3554
  580MOL0    Cl78209   7.288   2.495   2.706  0.1488  0.1194 -0.0143
  580MOL0     C78210   8.302   2.527   3.292 -1.7242  0.2701  0.2353
  580MOL0     C78211   8.410   2.484   3.375 -1.1630  0.4041 -0.6735
  580MOL0     O78212   8.666   2.451   3.486  0.0922  0.9750  0.8893
  580MOL0     C78213   8.818   2.290   3.656  0.7006 -0.1681 -0.2735
  580MOL0     C78214   8.877   2.194   3.739 -0.5617  0.7577 -0.2141
  580MOL0     N78215   8.740   1.429   3.792 -0.8195  0.9047  0.2439
  580MOL0     N78216   8.619   1.384   3.810 -0.3605  0.1897  0.6194
  580MOL0     C78217   8.315   2.104   3.037  0.1344 -0.3462 -1.2507
  580MOL0     C78218   8.385   2.227   3.030  0.3871  0.4831 -0.2744
  580MOL0     C78219   8.691   2.550   2.928 -0.3205  0.4412  0.4004
  580MOL0     C78220   8.674   2.672   2.859  0.9939 -0.6555 -0.0817
  580MOL0     C78221   8.754   2.783   2.898  0.1363 -0.1261 -0.3140
  580MOL0     C78222   8.864   2.772   2.981  0.1307  0.9979 -0.5785
  580MOL0     O78223   8.958   2.869   2.993 -0.4603 -0.8095 -0.0012
  580MOL0     C78224   8.951   2.956   3.108  0.7179 -0.2005  0.2761
  580MOL0     C78225   9.075   2.956   3.191  0.5149  0.8277 -0.1052
  580MOL0     C78226   9.126   2.820   3.228 -0.8812  0.7939  0.6744
  580MOL0     C78227   9.260   2.819   3.310  0.3338 -0.0658 -1.1174
  580MOL0     C78228   9.246   2.898   3.442 -0.2158 -1.5417 -0.6076
  580MOL0     C78229   9.222   2.953   3.548 -1.0046  0.5410  0.7564
  580MOL0     C78230   8.879   2.648   3.053 -0.2933 -0.3509  0.1252
  580MOL0     C78231   8.792   2.530   3.036 -0.0371  0.0191  0.6018
  580MOL0     C78232   8.816   2.406   3.126  0.2797  0.7788 -0.3705
  580MOL0     H78233   8.680   2.092   2.931  0.2057  3.3768 -1.0257
  580MOL0     H78234   8.559   1.890   2.974 -1.1781 -0.7424  3.0800
  580MOL0     H78235   8.413   1.719   2.949  2.4527  2.3462 -1.4830
  580MOL0     H78236   8.478   1.761   3.107 -1.1634  0.1651  0.7802
  580MOL0     H78237   8.353   1.542   3.126  3.1874  0.0455 -0.2474
  580MOL0     H78238   8.208   1.641   3.090  0.3564  0.2537  0.9219
  580MOL0     H78239   8.224   1.771   3.290  0.4052  0.6051  2.7024
  580MOL0     H78240   8.385   1.738   3.316 -0.7822 -0.5416  0.5730
  580MOL0     H78241   8.158   1.524   3.321 -0.3505  0.3194 -0.1651
  580MOL0     H78242   8.324   1.490   3.359  0.4572 -0.4381  1.7230
  580MOL0     H78243   8.316   1.675   3.546 -0.4974 -0.1568  2.1213
  580MOL0     H78244   8.137   1.673   3.507  0.0674 -0.7902 -3.6784
  580MOL0     H78245   8.144   1.501   3.685 -2.1247 -1.0023 -1.7746
  580MOL0     H78246   8.152   1.407   3.545  1.7900 -2.3873  1.2191
  580MOL0     H78247   8.407   1.443   3.548  0.6162 -0.4063 -0.9929
  580MOL0     H78248   8.343   1.318   3.650  0.8335 -0.2764 -3.7629
  580MOL0     H78249   8.360   1.592   3.774  2.8025  0.3310  1.6538
  580MOL0     H78250   8.353   1.430   3.850 -3.3137  1.1997  0.9579
  580MOL0     H78251   8.571   1.684   3.673 -3.0381 -0.1232  1.5239
  580MOL0     H78252   8.937   1.599   3.676 -1.0358 -1.8089  0.4771
  580MOL0     H78253   8.813   1.712   3.604 -0.0313 -0.8534 -1.0296
  580MOL0     H78254   8.782   1.793   3.853 -0.9150 -0.2091 -0.8999
  580MOL0     H78255   8.945   1.706   3.875  0.2819 -1.9556 -1.2507
  580MOL0     H78256   8.910   1.942   3.688 -0.5783 -0.0959 -0.2545
  580MOL0     H78257   9.053   1.856   3.729  1.1791 -0.9624  0.5442
  580MOL0     H78258   9.052   2.031   3.897 -0.3996 -0.4461  1.0455
  580MOL0     H78259   8.991   1.901   3.971 -2.2589 -0.4538 -0.5607
  580MOL0     H78260   8.631   2.161   3.964 -1.7928 -1.8114 -2.0946
  580MOL0     H78261   8.521   2.320   3.827  0.5913  0.4629  1.5831
  580MOL0     H78262   8.273   2.548   3.678  0.4249  2.9469  0.7452
  580MOL0     H78263   8.092   2.623   3.550 -0.4929  2.4695 -0.4485
  580MOL0     H78264   7.924   2.628   3.417 -0.2546  0.8602  0.6441
  580MOL0     H78265   7.991   2.787   3.375 -0.4535  0.9679 -0.3383
  580MOL0     H78266   7.773   2.754   3.270 -1.1453 -1.2879 -0.0383
  580MOL0     H78267   7.902   2.768   3.145  1.6357 -1.2408  0.1893
  580MOL0     H78268   7.886   2.516   3.141 -1.7748 -0.1762 -1.5002
  580MOL0     H78269   7.771   2.527   3.278  0.5346 -2.0372 -0.0056
  580MOL0     H78270   7.760   2.620   2.988  2.5001 -1.8545  1.4950
  580MOL0     H78271   7.640   2.692   3.089  1.5064  1.2788 -0.6549
  580MOL0     H78272   7.556   2.459   3.142 -1.9619 -2.2204 -1.7638
  580MOL0     H78273   7.673   2.386   3.030 -0.9532 -2.0804  2.3582
  580MOL0     H78274   7.479   2.597   2.942  1.7968  1.0805 -0.9778
  580MOL0     H78275   7.579   2.488   2.841  1.2576  0.1628 -0.9410
  580MOL0     H78276   7.334   2.412   3.000 -1.6824 -2.1734  0.4283
  580MOL0     H78277   7.466   2.300   2.982 -0.2858  1.4248  0.4817
  580MOL0     H78278   7.447   2.310   2.739  1.8424  2.1340 -0.1573
  580MOL0     H78279   7.298   2.274   2.812  1.6680 -0.6346  1.8543
  580MOL0     H78280   8.295   2.514   3.184 -0.3526  0.7729  0.0677
  580MOL0     H78281   8.488   2.443   3.312 -0.4025  1.1851 -0.2616
  580MOL0     H78282   8.887   2.335   3.585  1.2862 -1.4267 -0.5233
  580MOL0     H78283   8.980   2.167   3.718 -0.2528  0.5344  1.4359
  580MOL0     H78284   8.208   2.098   3.055  0.5949 -2.2636  1.4906
  580MOL0     H78285   8.336   2.322   3.050 -2.5229 -0.8825 -0.2903
  580MOL0     H78286   8.605   2.690   2.777 -1.3260 -1.5138  1.5748
  580MOL0     H78287   8.746   2.876   2.843 -1.3747  0.3149  0.5827
  580MOL0     H78288   8.859   2.941   3.166  1.0048  0.1182  0.8124
  580MOL0     H78289   8.932   3.060   3.077 -2.2965 -1.4086 -2.5882
  580MOL0     H78290   9.066   3.016   3.283 -1.7347 -2.1215  1.8087
  580MOL0     H78291   9.155   3.000   3.131 -0.1510  1.2034 -0.7325
  580MOL0     H78292   9.140   2.752   3.143 -2.5997 -0.0383  1.0193
  580MOL0     H78293   9.051   2.773   3.291  0.9773 -1.0605  1.6287
  580MOL0     H78294   9.282   2.714   3.329  0.7717 -0.2828 -2.6815
  580MOL0     H78295   9.338   2.861   3.245 -0.5879  1.3790 -1.3393
  580MOL0     H78296   9.199   3.002   3.641  1.7673  3.1841  0.1890
  580MOL0     H78297   8.956   2.634   3.128  1.2704 -1.2016 -1.5788
  580MOL0     H78298   8.835   2.316   3.066  0.5915  1.1703 -0.8629
  580MOL0     H78299   8.913   2.429   3.170  1.0390  0.5212 -1.8287
  580MOL0     H78300   8.744   2.374   3.202  2.8603 -0.2743  1.7623
  581MOL0     O78301   3.272   7.044   2.247 -0.2580  0.5076 -0.1000
  581MOL0     C78302   3.388   7.083   2.234 -0.3108  0.2902 -0.0199
  581MOL0     O78303   3.504   7.034   2.306  0.4205 -0.2424  0.3883
  581MOL0     C78304   3.485   6.932   2.398 -0.0420  0.5032  0.0630
  581MOL0     C78305   3.565   6.930   2.509 -0.0598  0.3661  0.3563
  581MOL0     C78306   3.560   6.829   2.601 -0.6819  0.3743 -0.2500
  581MOL0     C78307   3.467   6.730   2.601  0.9121 -0.4689  0.2421
  581MOL0     O78308   3.451   6.651   2.716 -0.0408  0.4671  0.0960
  581MOL0     C78309   3.312   6.620   2.747  0.2205 -0.2000 -0.1296
  581MOL0     C78310   3.294   6.539   2.876  0.5030 -0.3928  0.0136
  581MOL0     C78311   3.318   6.392   2.867 -0.1347 -0.1184 -0.2228
  581MOL0     C78312   3.467   6.351   2.900  0.1405  0.6558  0.3091
  581MOL0     C78313   3.485   6.199   2.885 -0.1735  0.2267 -0.4359
  581MOL0     C78314   3.634   6.168   2.888  0.0919 -0.2957 -0.2153
  581MOL0     C78315   3.717   6.220   3.002 -0.0488 -0.1850  0.0216
  581MOL0     C78316   3.874   6.188   3.005  0.4669  0.4569  0.8840
  581MOL0     N78317   3.948   6.205   2.872  0.2840  0.2259  0.4785
  581MOL0     C78318   3.911   6.295   2.778 -0.3492  0.4366 -0.5664
  581MOL0     C78319   4.006   6.276   2.680 -0.0107 -0.4098 -0.1976
  581MOL0     C78320   4.010   6.380   2.570 -0.3137 -0.6272 -0.5771
  581MOL0     C78321   4.093   6.345   2.448 -0.2078  0.3548  0.2651
  581MOL0     C78322   4.086   6.437   2.332 -0.1185 -0.2446  0.9843
  581MOL0     C78323   4.182   6.383   2.228 -0.1986  0.7674  0.2994
  581MOL0     O78324   4.127   6.270   2.156 -0.3357 -0.0755 -0.8542
  581MOL0     C78325   4.199   6.213   2.051 -0.9307 -0.3493  0.3327
  581MOL0     C78326   4.149   6.089   2.009 -1.1293 -0.3233 -0.5279
  581MOL0     C78327   4.216   6.018   1.908  0.2216 -0.5207 -0.6555
  581MOL0     C78328   4.323   6.080   1.840  0.6123 -0.0974 -0.1831
  581MOL0     C78329   4.399   6.009   1.734 -0.3667  0.6787 -0.0813
  581MOL0     O78330   4.486   6.077   1.656 -1.1880 -0.2924  0.2523
  581MOL0     C78331   4.555   6.004   1.566  0.1231 -0.0611  1.1930
  581MOL0     C78332   4.482   5.966   1.455  1.2481  0.7889 -0.3619
  581MOL0     C78333   4.538   5.904   1.346  0.0907  1.1926 -0.0277
  581MOL0     C78334   4.677   5.882   1.342  0.6057  1.2811  0.2115
  581MOL0     O78335   4.733   5.832   1.227  0.5694 -0.1369 -0.0655
  581MOL0     C78336   4.696   5.696   1.190  0.2052  0.3030 -0.2374
  581MOL0     C78337   4.802   5.658   1.088  0.0077  0.2070 -0.4559
  581MOL0     C78338   4.800   5.509   1.059 -0.1948 -0.6008 -0.7484
  581MOL0     C78339   4.918   5.492   0.949  0.4634 -0.2731 -0.4894
  581MOL0     C78340   4.880   5.533   0.799 -0.2050 -1.3044 -0.2519
  581MOL0     C78341   5.011   5.540   0.717 -0.2543 -0.8356 -0.1778
  581MOL0     C78342   4.974   5.576   0.569  0.1927 -0.1759 -1.0416
  581MOL0     C78343   5.110   5.566   0.494  0.0858 -0.1589 -0.1561
  581MOL0    Cl78344   5.064   5.571   0.324 -0.1929 -0.0697  0.0472
  581MOL0     C78345   4.755   5.913   1.461 -0.3332 -0.0532  0.4124
  581MOL0     C78346   4.691   5.977   1.570 -0.6162  0.4049 -0.3073
  581MOL0     O78347   4.389   5.887   1.743  0.2282 -0.5633  0.0743
  581MOL0     C78348   4.366   6.207   1.877  0.0843 -0.1147  0.3820
  581MOL0     C78349   4.315   6.277   1.988 -0.4195 -0.9012 -0.2060
  581MOL0     N78350   4.099   6.182   2.722  0.6671  0.0089 -0.5813
  581MOL0     N78351   4.067   6.142   2.834  0.0231 -0.6336  1.1136
  581MOL0     C78352   3.384   6.727   2.485 -0.9976 -1.4431 -0.2726
  581MOL0     C78353   3.401   6.819   2.381  0.9564 -0.7915  0.4303
  581MOL0     C78354   3.402   7.202   2.148 -0.5374 -0.7843  0.8118
  581MOL0     C78355   3.293   7.266   2.077  0.0019  0.0011 -0.0419
  581MOL0     C78356   3.317   7.370   1.990  0.5197  0.5861  1.0828
  581MOL0     C78357   3.442   7.428   1.959  0.2219  0.7247 -0.1883
  581MOL0     O78358   3.470   7.527   1.873 -0.5878 -0.5426  0.1841
  581MOL0     C78359   3.386   7.644   1.886  0.5750 -0.0968 -0.5978
  581MOL0     C78360   3.444   7.755   1.794  0.2885  0.5461  0.4064
  581MOL0     C78361   3.354   7.883   1.793  0.2410 -0.7108 -0.7327
  581MOL0     C78362   3.420   7.991   1.705 -0.8455 -0.5737  0.1438
  581MOL0     C78363   3.496   8.106   1.779 -0.6150  1.3689  0.0014
  581MOL0     C78364   3.528   8.198   1.855  0.7684  0.4767 -0.8346
  581MOL0     C78365   3.545   7.361   2.022  0.0465  0.6506 -0.5922
  581MOL0     C78366   3.532   7.253   2.112 -0.7911  0.0648  0.2798
  581MOL0     C78367   3.665   7.193   2.146 -0.4267 -1.5927 -0.6068
  581MOL0     H78368   3.640   7.007   2.526 -0.0773  1.4456 -3.5453
  581MOL0     H78369   3.635   6.845   2.677  0.3752  1.8576 -1.5362
  581MOL0     H78370   3.259   6.715   2.759  1.0898  0.2817  0.0165
  581MOL0     H78371   3.272   6.574   2.657  1.0834 -1.5400  0.1488
  581MOL0     H78372   3.195   6.570   2.912 -0.4649 -1.7180 -1.3716
  581MOL0     H78373   3.373   6.568   2.946  0.1376 -2.1622  1.2658
  581MOL0     H78374   3.298   6.354   2.766  5.1936 -1.2126 -1.1499
  581MOL0     H78375   3.243   6.347   2.933 -2.3265  0.9703 -1.8225
  581MOL0     H78376   3.538   6.397   2.831 -0.5997 -0.4592 -1.2735
  581MOL0     H78377   3.489   6.377   3.004  0.5557  1.7347 -0.0346
  581MOL0     H78378   3.419   6.158   2.962 -0.8712 -1.1600 -1.7187
  581MOL0     H78379   3.444   6.168   2.789 -1.7947 -1.8820  0.8594
  581MOL0     H78380   3.635   6.060   2.869 -3.7832 -0.2385 -1.8020
  581MOL0     H78381   3.667   6.229   2.804 -0.5219 -2.1781 -1.9328
  581MOL0     H78382   3.680   6.195   3.101  1.5908 -3.6934 -0.1037
  581MOL0     H78383   3.708   6.329   2.995  1.3949  0.0416  1.1328
  581MOL0     H78384   3.919   6.259   3.075  0.3153  0.5361  0.9011
  581MOL0     H78385   3.881   6.086   3.043 -1.3024  0.2890  0.8251
  581MOL0     H78386   3.839   6.376   2.787 -1.2502 -0.2903 -1.1118
  581MOL0     H78387   3.919   6.431   2.538 -0.4264 -1.1646 -1.1354
  581MOL0     H78388   4.071   6.457   2.618  0.6220 -1.5426 -0.2681
  581MOL0     H78389   4.192   6.342   2.494  0.3883  0.3679 -0.9969
  581MOL0     H78390   4.066   6.242   2.422  0.1992  0.0121  1.1597
  581MOL0     H78391   4.117   6.541   2.345  0.1176  0.2157 -2.3169
  581MOL0     H78392   3.986   6.438   2.290  0.7190  5.6507 -1.8929
  581MOL0     H78393   4.276   6.350   2.273  1.5723 -0.1682 -3.6493
  581MOL0     H78394   4.201   6.458   2.150  0.0491  1.0577  0.6345
  581MOL0     H78395   4.072   6.035   2.062 -0.5935 -0.2598  0.3461
  581MOL0     H78396   4.177   5.921   1.881 -0.6579  0.6942 -4.3359
  581MOL0     H78397   4.377   5.993   1.453  1.4552  1.5922 -1.6092
  581MOL0     H78398   4.476   5.869   1.265 -3.8920 -1.8950  3.8390
  581MOL0     H78399   4.703   5.635   1.280  2.9767 -0.6666 -0.9904
  581MOL0     H78400   4.594   5.688   1.152 -0.9753  0.9536  2.5717
  581MOL0     H78401   4.783   5.710   0.994 -1.8798  0.2979 -0.0496
  581MOL0     H78402   4.900   5.692   1.123 -0.0115 -0.1867 -0.0084
  581MOL0     H78403   4.829   5.449   1.145 -1.4362 -0.0493  0.0767
  581MOL0     H78404   4.696   5.500   1.025 -1.1645  2.3747  1.1079
  581MOL0     H78405   4.960   5.391   0.955  3.4761  0.8999  0.0038
  581MOL0     H78406   5.003   5.549   0.988  0.2802  0.4860 -1.1606
  581MOL0     H78407   4.826   5.628   0.789 -0.1166 -1.4354 -2.4407
  581MOL0     H78408   4.824   5.450   0.756  1.2055 -0.9620 -2.9442
  581MOL0     H78409   5.081   5.614   0.757 -2.9205  1.5228  0.3983
  581MOL0     H78410   5.058   5.442   0.713  0.3685 -0.5661  0.3744
  581MOL0     H78411   4.932   5.676   0.568 -0.4632 -0.4480 -1.5262
  581MOL0     H78412   4.913   5.493   0.531 -1.4591  0.8348 -0.6554
  581MOL0     H78413   5.183   5.641   0.526 -1.1316 -0.3163  3.5237
  581MOL0     H78414   5.167   5.474   0.514  1.0643  0.0984 -1.6558
  581MOL0     H78415   4.861   5.889   1.464 -0.2698  0.1212  4.2942
  581MOL0     H78416   4.747   6.023   1.652 -0.1407 -1.3389  0.3908
  581MOL0     H78417   4.446   6.269   1.836  0.0636  0.5800  1.3730
  581MOL0     H78418   4.360   6.364   2.033 -1.1229 -1.2718  1.2963
  581MOL0     H78419   3.320   6.639   2.474 -0.1248 -2.3015  1.2827
  581MOL0     H78420   3.343   6.814   2.290  0.4933  2.0516  0.4603
  581MOL0     H78421   3.195   7.226   2.099  0.7048 -1.3219  0.8156
  581MOL0     H78422   3.232   7.407   1.932  1.0197  1.4981  0.8992
  581MOL0     H78423   3.402   7.684   1.986  0.9451 -2.3796  0.3026
  581MOL0     H78424   3.281   7.634   1.858  0.4412  2.0627 -1.0999
  581MOL0     H78425   3.447   7.705   1.697 -4.7850 -3.6766  1.9221
  581MOL0     H78426   3.543   7.782   1.832  1.8487 -4.3785  0.5161
  581MOL0     H78427   3.338   7.904   1.899 -2.3190 -2.2517 -0.7353
  581MOL0     H78428   3.254   7.868   1.753  0.6534  2.1704 -3.1455
  581MOL0     H78429   3.489   7.956   1.627  1.1259  0.5511  1.3114
  581MOL0     H78430   3.333   8.040   1.660 -0.3926 -2.1680 -2.7391
  581MOL0     H78431   3.553   8.267   1.933  0.6461 -2.1127  1.6821
  581MOL0     H78432   3.648   7.384   1.995  1.1037 -2.3385  0.4984
  581MOL0     H78433   3.666   7.086   2.124  6.0138 -2.6541  2.7426
  581MOL0     H78434   3.748   7.248   2.101 -1.5520  1.7119  1.0362
  581MOL0     H78435   3.684   7.195   2.253 -0.1822  2.0977 -0.6072
  582MOL0     O78436   4.652   3.507   2.013 -0.1892  0.2956  0.1543
  582MOL0     C78437   4.596   3.532   1.913 -0.1455  0.6920  0.7345
  582MOL0     O78438   4.497   3.626   1.906 -0.0932 -0.4098 -0.1991
  582MOL0     C78439   4.501   3.729   1.998  0.4747  0.4868 -0.3223
  582MOL0     C78440   4.562   3.853   1.960  0.2815  0.5364  0.6433
  582MOL0     C78441   4.560   3.964   2.046  0.2839  0.1258 -0.4801
  582MOL0     C78442   4.498   3.956   2.178  0.9023 -0.0794  0.5413
  582MOL0     O78443   4.495   4.062   2.267  0.5490 -0.3173  0.4595
  582MOL0     C78444   4.489   4.196   2.226 -0.1560 -0.8359  0.6116
  582MOL0     C78445   4.365   4.233   2.160 -0.4331 -0.3788  0.4060
  582MOL0     C78446   4.253   4.187   2.247  0.7102 -1.0647 -0.1926
  582MOL0     C78447   4.255   4.230   2.400 -0.5057 -1.3080 -0.2566
  582MOL0     C78448   4.113   4.245   2.466 -0.1295  1.0817 -0.2506
  582MOL0     C78449   4.049   4.114   2.468  0.0209  0.0438 -0.9075
  582MOL0     C78450   3.914   4.120   2.553 -0.5128  0.1180 -0.5096
  582MOL0     C78451   3.811   4.200   2.492  0.2379  0.2774  0.0556
  582MOL0     N78452   3.783   4.167   2.349  0.7542 -0.2098  0.0889
  582MOL0     C78453   3.663   4.101   2.318 -1.1234 -0.1738  0.1591
  582MOL0     C78454   3.644   4.113   2.184 -0.1084 -0.4721 -1.2570
  582MOL0     C78455   3.534   4.052   2.107  0.0557  0.8294  0.2538
  582MOL0     C78456   3.574   3.899   2.089  0.2053  0.8075  0.3942
  582MOL0     C78457   3.477   3.841   1.989  0.0402 -0.9808  0.1518
  582MOL0     C78458   3.503   3.703   1.944 -0.0211  0.2343  0.1583
  582MOL0     O78459   3.465   3.616   2.059 -0.4261 -0.6458  0.0127
  582MOL0     C78460   3.442   3.483   2.044 -0.6810 -0.9213  0.6399
  582MOL0     C78461   3.362   3.410   2.128 -0.0279 -0.7824 -0.2831
  582MOL0     C78462   3.332   3.273   2.108  0.4251 -1.7934 -0.2442
  582MOL0     C78463   3.387   3.204   1.999 -0.0974 -0.0768 -0.4506
  582MOL0     C78464   3.366   3.062   1.980  0.6035 -0.1266 -0.3246
  582MOL0     O78465   3.458   2.993   1.905  0.4035 -0.1528  1.5621
  582MOL0     C78466   3.420   2.869   1.854 -0.8458 -0.5431  0.1861
  582MOL0     C78467   3.310   2.860   1.768 -0.0986  0.0661  0.7056
  582MOL0     C78468   3.266   2.734   1.714  0.0612  0.4695 -0.3872
  582MOL0     C78469   3.345   2.621   1.748  0.0510  0.5537  0.3572
  582MOL0     O78470   3.323   2.501   1.681 -0.6266 -0.4304 -0.4068
  582MOL0     C78471   3.190   2.457   1.655 -0.2580  0.8934  0.1837
  582MOL0     C78472   3.202   2.357   1.538 -0.4500 -0.3766 -0.3624
  582MOL0     C78473   3.263   2.433   1.416  0.6922  1.0600  0.8055
  582MOL0     C78474   3.224   2.372   1.272  0.2386 -0.2183 -0.2423
  582MOL0     C78475   3.235   2.219   1.271  0.0412 -0.4569 -0.1439
  582MOL0     C78476   3.203   2.152   1.127 -0.0522  0.1587 -0.1051
  582MOL0     C78477   3.261   2.229   1.011  0.5722  0.4453 -0.4853
  582MOL0     C78478   3.240   2.147   0.883 -0.6519  0.1613 -0.0083
  582MOL0    Cl78479   3.358   2.004   0.870 -0.0983 -0.1986  0.3979
  582MOL0     C78480   3.452   2.630   1.837 -0.5096 -0.1440 -0.2246
  582MOL0     C78481   3.491   2.756   1.887 -0.1542  0.3191 -0.6673
  582MOL0     O78482   3.268   3.008   2.034 -0.0052  0.0983  0.2348
  582MOL0     C78483   3.481   3.272   1.917 -0.3511 -1.0562 -0.1192
  582MOL0     C78484   3.501   3.406   1.937  0.1434 -0.6035  0.1540
  582MOL0     N78485   3.741   4.200   2.141  0.6391 -0.5644  0.5389
  582MOL0     N78486   3.834   4.219   2.239  0.0421  0.1212 -0.2014
  582MOL0     C78487   4.434   3.833   2.209 -0.7073  0.0298 -0.7247
  582MOL0     C78488   4.429   3.725   2.118  0.3164 -0.2212 -1.3097
  582MOL0     C78489   4.627   3.465   1.781 -0.1320 -1.0698 -0.4298
  582MOL0     C78490   4.576   3.522   1.666  0.4065  1.1646  1.0542
  582MOL0     C78491   4.621   3.485   1.536 -0.6416 -0.1534  0.6584
  582MOL0     C78492   4.717   3.377   1.522  0.7234 -0.4084  1.4387
  582MOL0     O78493   4.782   3.342   1.399 -0.1115 -0.1388 -0.2770
  582MOL0     C78494   4.747   3.402   1.273 -0.1035 -0.6704 -0.2177
  582MOL0     C78495   4.805   3.546   1.250  0.2929 -0.4295 -0.5973
  582MOL0     C78496   4.961   3.548   1.250  0.5353 -0.1475 -0.1359
  582MOL0     C78497   5.026   3.496   1.116  0.2120  0.5234  0.6262
  582MOL0     C78498   5.169   3.497   1.133 -0.2040 -0.6156 -0.4779
  582MOL0     C78499   5.292   3.506   1.160 -0.2799  0.2748  0.5950
  582MOL0     C78500   4.758   3.315   1.641 -0.1335  0.3255 -0.0940
  582MOL0     C78501   4.721   3.359   1.767  1.0322 -0.2941 -0.0566
  582MOL0     C78502   4.767   3.269   1.879  0.3939  0.6646 -0.2154
  582MOL0     H78503   4.615   3.869   1.867 -1.3731  1.1110 -0.2562
  582MOL0     H78504   4.621   4.049   2.018  0.7316  1.0668  2.8656
  582MOL0     H78505   4.498   4.263   2.313 -2.7506  0.2727  0.1246
  582MOL0     H78506   4.565   4.217   2.151  1.4000 -1.0261  2.0658
  582MOL0     H78507   4.367   4.191   2.059 -1.5346 -0.0705  0.2474
  582MOL0     H78508   4.370   4.343   2.155  1.9044 -0.4787 -1.8006
  582MOL0     H78509   4.239   4.078   2.242  0.2733 -1.1554  1.9001
  582MOL0     H78510   4.164   4.235   2.205  0.7556 -1.2641 -0.5225
  582MOL0     H78511   4.327   4.171   2.458 -0.5537 -0.0644  1.1093
  582MOL0     H78512   4.292   4.332   2.390 -0.1124 -1.1736  2.1998
  582MOL0     H78513   4.120   4.287   2.566 -1.7079  0.8256 -0.0087
  582MOL0     H78514   4.063   4.317   2.400  1.3493  0.8380 -1.7036
  582MOL0     H78515   4.031   4.087   2.364  0.6609 -0.7982 -0.8055
  582MOL0     H78516   4.116   4.034   2.501 -1.7993 -0.7557  1.2012
  582MOL0     H78517   3.942   4.159   2.651 -0.4747 -0.5888 -0.2341
  582MOL0     H78518   3.879   4.017   2.559 -4.2700  1.2423 -0.7758
  582MOL0     H78519   3.729   4.186   2.564 -1.3462  2.8151 -1.1152
  582MOL0     H78520   3.833   4.307   2.491  1.8128 -0.0258 -1.1482
  582MOL0     H78521   3.602   4.073   2.403  0.6252  0.3714  1.6676
  582MOL0     H78522   3.436   4.055   2.155  0.5586 -0.2386  1.4206
  582MOL0     H78523   3.514   4.095   2.008  2.1983 -1.4293 -1.2924
  582MOL0     H78524   3.674   3.873   2.053  0.9792 -0.4377  3.1606
  582MOL0     H78525   3.548   3.849   2.183 -5.8917  0.6101 -0.9785
  582MOL0     H78526   3.477   3.901   1.898 -1.7038 -0.3234  0.5508
  582MOL0     H78527   3.379   3.858   2.032  1.7039  0.1394  3.9050
  582MOL0     H78528   3.608   3.679   1.926  0.4273  0.5918  2.0409
  582MOL0     H78529   3.443   3.676   1.857 -0.2977 -0.4674  0.5594
  582MOL0     H78530   3.325   3.471   2.210 -0.9929  1.0715 -2.0276
  582MOL0     H78531   3.286   3.222   2.191 -0.1462  2.7469  2.5540
  582MOL0     H78532   3.241   2.942   1.749 -1.4123 -1.1030  0.1883
  582MOL0     H78533   3.167   2.739   1.672  0.6024  3.2669 -1.5976
  582MOL0     H78534   3.158   2.416   1.751  1.6583 -0.3404  0.3716
  582MOL0     H78535   3.115   2.530   1.625 -1.7183 -0.9675 -0.9323
  582MOL0     H78536   3.269   2.272   1.559 -0.0793  0.0827  0.3724
  582MOL0     H78537   3.103   2.317   1.515  0.4227 -0.5380 -4.6823
  582MOL0     H78538   3.231   2.537   1.425 -0.7526  0.6319  1.0045
  582MOL0     H78539   3.371   2.419   1.419  0.3601 -2.4679  1.3535
  582MOL0     H78540   3.290   2.419   1.199  0.6430  0.0250  0.2792
  582MOL0     H78541   3.122   2.402   1.244  0.4309  1.0793  0.4273
  582MOL0     H78542   3.161   2.182   1.343 -1.2167 -1.1524 -1.7332
  582MOL0     H78543   3.337   2.194   1.302  0.1941  1.9150  1.5675
  582MOL0     H78544   3.259   2.059   1.137  1.1127  0.9939  1.6667
  582MOL0     H78545   3.097   2.133   1.106 -0.1397 -0.2935  0.7001
  582MOL0     H78546   3.369   2.243   1.023  0.6957 -2.2295  2.8440
  582MOL0     H78547   3.221   2.328   0.985  2.4167  0.8109 -2.2213
  582MOL0     H78548   3.137   2.111   0.874 -0.2284 -1.2652  0.6271
  582MOL0     H78549   3.249   2.210   0.795 -0.6201 -0.3878 -0.4010
  582MOL0     H78550   3.517   2.544   1.855 -0.1615  0.2868  0.6656
  582MOL0     H78551   3.574   2.762   1.957 -3.3940  2.8567  3.4459
  582MOL0     H78552   3.527   3.229   1.829  1.7971 -0.3533  0.5817
  582MOL0     H78553   3.564   3.454   1.863 -2.0270 -0.0721 -1.4671
  582MOL0     H78554   4.378   3.828   2.302  1.1717 -0.4391  0.4243
  582MOL0     H78555   4.389   3.629   2.149  2.3166 -0.0314  2.5793
  582MOL0     H78556   4.497   3.596   1.675 -1.7425 -0.5638 -1.7676
  582MOL0     H78557   4.580   3.522   1.442 -0.9880 -1.2332  0.3669
  582MOL0     H78558   4.640   3.423   1.262  0.2996  3.0269  1.5572
  582MOL0     H78559   4.784   3.348   1.185 -1.9845 -1.3010 -0.6706
  582MOL0     H78560   4.765   3.613   1.328 -0.3215 -1.6775  0.2050
  582MOL0     H78561   4.761   3.587   1.159 -2.3619  0.2247  0.8667
  582MOL0     H78562   5.008   3.505   1.339 -0.6390 -2.5066 -0.5657
  582MOL0     H78563   4.994   3.652   1.244  2.5769 -0.6426  1.2409
  582MOL0     H78564   4.985   3.399   1.088  0.3249 -0.0667  2.3431
  582MOL0     H78565   4.997   3.557   1.030 -1.7728 -2.3636 -0.9083
  582MOL0     H78566   5.398   3.509   1.175  0.1396  1.0443 -1.9946
  582MOL0     H78567   4.828   3.235   1.620  0.0303  0.4448 -0.0102
  582MOL0     H78568   4.825   3.182   1.845 -0.6547  0.5067 -1.6883
  582MOL0     H78569   4.832   3.311   1.956  0.0441 -2.3126  1.8993
  582MOL0     H78570   4.691   3.223   1.943  2.6592  1.3868  3.3173
  583MOL0     O78571   1.837   8.216   7.519  0.6478  0.0691  0.2126
  583MOL0     C78572   1.866   8.104   7.571  0.2621 -0.0527  0.7577
  583MOL0     O78573   1.791   7.990   7.558  0.2709 -0.0106  0.6670
  583MOL0     C78574   1.675   8.001   7.475 -0.0523 -0.0285 -0.0933
  583MOL0     C78575   1.665   8.044   7.343 -0.3532 -0.0475  0.8660
  583MOL0     C78576   1.530   8.064   7.302  0.0853  0.7547 -0.0059
  583MOL0     C78577   1.412   8.007   7.360  0.2117  0.2175  0.3841
  583MOL0     O78578   1.281   8.011   7.318  0.4742  0.3620 -0.3124
  583MOL0     C78579   1.237   8.143   7.312 -0.0520  0.3155 -0.5878
  583MOL0     C78580   1.111   8.132   7.232  0.4514  1.2178 -0.3049
  583MOL0     C78581   1.116   8.083   7.079 -0.9368 -0.5445 -0.2289
  583MOL0     C78582   1.242   8.161   7.022  0.1588  0.3976 -0.5336
  583MOL0     C78583   1.244   8.141   6.877  0.3595 -0.2733  0.6415
  583MOL0     C78584   1.346   8.210   6.797 -0.1042 -0.5009  1.0005
  583MOL0     C78585   1.318   8.201   6.645 -0.7189  0.0257 -0.1176
  583MOL0     C78586   1.451   8.218   6.555  0.0749 -0.5847 -0.0594
  583MOL0     N78587   1.473   8.084   6.501 -0.3193 -0.4274 -0.1111
  583MOL0     C78588   1.448   8.039   6.372 -2.0506 -0.1108  0.2078
  583MOL0     C78589   1.453   7.905   6.381 -0.1006  0.0213  0.1751
  583MOL0     C78590   1.466   7.824   6.252  0.4843  0.5538 -1.0633
  583MOL0     C78591   1.608   7.816   6.184  0.1758 -0.7252  0.2312
  583MOL0     C78592   1.704   7.707   6.235  0.1186 -0.0152  0.7995
  583MOL0     C78593   1.741   7.719   6.384 -0.7506  0.3912 -0.2345
  583MOL0     O78594   1.862   7.636   6.417  0.1955  0.7198  0.1173
  583MOL0     C78595   1.922   7.659   6.537  0.4779 -0.3149 -0.3127
  583MOL0     C78596   2.060   7.622   6.541  0.6590  0.6375 -0.1044
  583MOL0     C78597   2.127   7.633   6.662  0.1068  0.5504  0.4085
  583MOL0     C78598   2.072   7.691   6.772  0.2286 -0.4209 -0.1910
  583MOL0     C78599   2.143   7.681   6.910 -0.5742  0.2819  0.4467
  583MOL0     O78600   2.087   7.747   7.022  0.0229  0.4812 -0.1806
  583MOL0     C78601   2.162   7.770   7.135 -0.1682  0.9425 -0.0926
  583MOL0     C78602   2.257   7.876   7.129  0.7662 -0.0131  0.3031
  583MOL0     C78603   2.334   7.902   7.240 -0.6085  0.3127 -1.0978
  583MOL0     C78604   2.307   7.841   7.362 -0.2801 -0.1966  0.3838
  583MOL0     O78605   2.391   7.873   7.461 -1.2213  0.1130  0.8295
  583MOL0     C78606   2.391   7.795   7.578 -0.0421 -0.7673  0.9846
  583MOL0     C78607   2.459   7.659   7.570  0.5846  0.3150 -0.3673
  583MOL0     C78608   2.467   7.597   7.707  0.5825  0.9777  0.0597
  583MOL0     C78609   2.584   7.631   7.803  0.3918  0.2518 -0.1668
  583MOL0     C78610   2.560   7.540   7.922 -0.0813 -0.2857  0.1683
  583MOL0     C78611   2.644   7.591   8.038 -0.2534  0.0410 -0.1322
  583MOL0     C78612   2.606   7.527   8.166 -0.0818 -0.5427 -1.1131
  583MOL0     C78613   2.696   7.584   8.282 -0.0860  0.1600  0.9264
  583MOL0    Cl78614   2.692   7.460   8.403 -0.2051  0.6872 -0.0642
  583MOL0     C78615   2.201   7.745   7.369  0.6562 -0.2294  0.0512
  583MOL0     C78616   2.135   7.712   7.254 -0.1238  0.8570  0.2760
  583MOL0     O78617   2.259   7.634   6.906  0.4433  0.8501  0.3677
  583MOL0     C78618   1.946   7.740   6.765  0.6084  0.6441 -0.0592
  583MOL0     C78619   1.872   7.728   6.649  0.8935  0.6817 -0.7394
  583MOL0     N78620   1.482   7.865   6.503  0.0637 -0.3845 -0.5722
  583MOL0     N78621   1.470   7.970   6.576 -0.5031 -0.3521 -0.4862
  583MOL0     C78622   1.430   7.968   7.487 -0.1033  1.1127  0.3439
  583MOL0     C78623   1.557   7.955   7.546 -0.7120 -0.2859  0.8050
  583MOL0     C78624   1.990   8.101   7.663  0.3516  1.1659  0.1016
  583MOL0     C78625   2.042   7.978   7.701  0.3781  0.2485  0.1733
  583MOL0     C78626   2.148   7.968   7.799  0.3670 -0.8107 -0.9214
  583MOL0     C78627   2.209   8.079   7.861  0.2471 -0.1414  1.0955
  583MOL0     O78628   2.302   8.081   7.962  0.4350 -0.5014 -0.1687
  583MOL0     C78629   2.378   7.963   7.986 -0.6940  0.2287 -0.5651
  583MOL0     C78630   2.339   7.918   8.123  0.3115  0.1118  0.1254
  583MOL0     C78631   2.230   7.816   8.114  0.8340 -0.0982 -0.5525
  583MOL0     C78632   2.202   7.771   8.261  0.1051 -1.0018 -0.2677
  583MOL0     C78633   2.108   7.664   8.268  0.3821 -0.5553 -0.4103
  583MOL0     C78634   2.011   7.589   8.289  0.5533  0.4828  0.1977
  583MOL0     C78635   2.144   8.200   7.820 -0.6206  0.3224  0.5088
  583MOL0     C78636   2.038   8.216   7.729  0.1673 -0.0095 -0.5295
  583MOL0     C78637   1.987   8.364   7.713  0.4010 -0.7234 -0.0305
  583MOL0     H78638   1.759   8.060   7.291 -0.4419  3.4386  1.5884
  583MOL0     H78639   1.529   8.112   7.205  1.2086  0.7424 -0.0370
  583MOL0     H78640   1.211   8.189   7.408 -1.2046  1.8150 -1.5795
  583MOL0     H78641   1.294   8.224   7.267 -1.6783  1.9126  0.1161
  583MOL0     H78642   1.063   8.231   7.224 -0.6228  0.6666 -0.9548
  583MOL0     H78643   1.044   8.059   7.278  1.8535 -0.0605 -0.2124
  583MOL0     H78644   1.029   8.116   7.021 -0.8898 -2.1279 -1.2757
  583MOL0     H78645   1.117   7.974   7.068  1.5343 -1.2680  4.5713
  583MOL0     H78646   1.232   8.267   7.046  0.9491  0.4271 -0.3179
  583MOL0     H78647   1.335   8.125   7.066 -0.0749  0.4545  0.0166
  583MOL0     H78648   1.270   8.035   6.868  1.1699 -0.1940  1.7957
  583MOL0     H78649   1.147   8.169   6.833  0.6774  1.6907  1.0947
  583MOL0     H78650   1.342   8.312   6.834 -0.8853 -0.7259  1.5653
  583MOL0     H78651   1.444   8.177   6.831  0.4554  0.6047  0.5057
  583MOL0     H78652   1.250   8.284   6.623 -0.1698  0.5726  0.1968
  583MOL0     H78653   1.267   8.106   6.630  0.9665 -1.3934  2.3540
  583MOL0     H78654   1.435   8.285   6.470  2.3301  2.2837  1.6088
  583MOL0     H78655   1.534   8.243   6.621 -1.8834  0.8742  1.9884
  583MOL0     H78656   1.461   8.086   6.275  3.5726  3.4718  2.2041
  583MOL0     H78657   1.429   7.723   6.274  3.3716 -0.7795 -1.8784
  583MOL0     H78658   1.404   7.863   6.170  0.5187 -0.0886 -1.4018
  583MOL0     H78659   1.593   7.810   6.076 -2.1397 -2.2262  0.5789
  583MOL0     H78660   1.658   7.914   6.194 -1.1267 -0.0601  0.4364
  583MOL0     H78661   1.798   7.719   6.180  0.2795 -0.6065  0.9473
  583MOL0     H78662   1.660   7.609   6.217  0.7173  0.0656 -1.3798
  583MOL0     H78663   1.656   7.675   6.438  0.9596 -1.6095  0.9710
  583MOL0     H78664   1.751   7.827   6.401  0.4251  0.6181 -2.0725
  583MOL0     H78665   2.108   7.571   6.458  1.5765 -0.9841  1.3636
  583MOL0     H78666   2.223   7.581   6.658 -0.4989 -0.5064 -1.6365
  583MOL0     H78667   2.255   7.926   7.033  0.2289  0.1578  0.3954
  583MOL0     H78668   2.391   7.994   7.233 -0.3154  0.4205  1.7778
  583MOL0     H78669   2.451   7.852   7.651  1.0342 -1.4663  0.6623
  583MOL0     H78670   2.295   7.781   7.628 -0.9853  1.5948 -0.0342
  583MOL0     H78671   2.393   7.594   7.512 -5.5249  2.5206  3.1117
  583MOL0     H78672   2.556   7.664   7.521  0.4063  3.8893 -0.6312
  583MOL0     H78673   2.373   7.609   7.763 -0.7434  3.1722 -2.4287
  583MOL0     H78674   2.480   7.490   7.689  1.6903  0.8542  1.3979
  583MOL0     H78675   2.582   7.737   7.829 -0.8763  0.1222  0.3399
  583MOL0     H78676   2.686   7.610   7.768 -0.6025 -2.0205 -1.8915
  583MOL0     H78677   2.581   7.436   7.896  1.8152  0.7079 -2.6522
  583MOL0     H78678   2.455   7.554   7.951  0.0669 -1.6677  1.5045
  583MOL0     H78679   2.749   7.562   8.027  0.0497  0.3069  1.7611
  583MOL0     H78680   2.635   7.700   8.041 -0.3454  0.0092  1.3736
  583MOL0     H78681   2.618   7.419   8.160 -1.6082 -0.6695 -2.7179
  583MOL0     H78682   2.500   7.551   8.183  0.5967  0.7606  1.8663
  583MOL0     H78683   2.799   7.599   8.247 -0.0445 -0.9707  0.5214
  583MOL0     H78684   2.649   7.679   8.311  1.5062  0.7465  1.7042
  583MOL0     H78685   2.180   7.690   7.460 -4.3339  0.6864 -0.2747
  583MOL0     H78686   2.048   7.647   7.251 -1.3500  2.4571 -0.8592
  583MOL0     H78687   1.895   7.777   6.854 -0.8607  0.8057 -0.9318
  583MOL0     H78688   1.775   7.777   6.644 -0.0064 -1.0330 -0.6368
  583MOL0     H78689   1.350   7.929   7.549  2.1699 -3.2357  0.9668
  583MOL0     H78690   1.567   7.905   7.642 -0.8129 -3.8995 -0.9121
  583MOL0     H78691   2.007   7.882   7.666  4.4274 -1.5915  0.6304
  583MOL0     H78692   2.188   7.869   7.821  1.0521  0.1852  3.0133
  583MOL0     H78693   2.481   7.998   7.992 -0.7026  0.7559 -2.7246
  583MOL0     H78694   2.378   7.882   7.912  2.5954  1.6397 -2.3217
  583MOL0     H78695   2.302   8.008   8.173  2.2698  0.9612  0.1277
  583MOL0     H78696   2.429   7.879   8.170  0.7400  2.1942  1.1414
  583MOL0     H78697   2.243   7.729   8.049  0.7447  0.0016 -0.7035
  583MOL0     H78698   2.139   7.858   8.069  0.0856  1.3805  2.1275
  583MOL0     H78699   2.290   7.726   8.306 -2.5521 -1.8948  4.7245
  583MOL0     H78700   2.161   7.853   8.321 -2.7442 -0.5705 -2.5755
  583MOL0     H78701   1.943   7.508   8.305  1.4615 -0.3757 -0.1659
  583MOL0     H78702   2.191   8.282   7.875  0.9831 -0.3529  0.2144
  583MOL0     H78703   1.878   8.367   7.709  0.2675  1.4444  2.4314
  583MOL0     H78704   2.028   8.432   7.789  1.8510 -3.1957  1.5304
  583MOL0     H78705   2.012   8.410   7.617  0.9909  0.3771  0.6246
  584MOL0     O78706   8.325   2.907   2.932 -0.4277 -0.2656  0.2132
  584MOL0     C78707   8.315   2.814   3.018 -0.7211  0.2314 -0.1869
  584MOL0     O78708   8.250   2.700   3.006 -0.0284 -0.1555  0.0765
  584MOL0     C78709   8.154   2.687   2.913 -0.0372 -0.6369  1.0008
  584MOL0     C78710   8.067   2.790   2.880 -0.5040  0.4142 -0.8479
  584MOL0     C78711   7.961   2.773   2.796 -0.0170  0.9765  0.6888
  584MOL0     C78712   7.927   2.649   2.745 -0.1350  0.0697 -0.5786
  584MOL0     O78713   7.805   2.623   2.679 -0.5150  0.1376  0.1198
  584MOL0     C78714   7.737   2.733   2.612 -0.0733  0.0438 -0.9105
  584MOL0     C78715   7.604   2.681   2.545  0.1417  0.5767  0.1274
  584MOL0     C78716   7.544   2.794   2.457 -1.2177 -0.4021 -0.0805
  584MOL0     C78717   7.502   2.749   2.318  0.1424  0.2199 -0.6431
  584MOL0     C78718   7.488   2.857   2.209  0.1605  0.4113 -0.2142
  584MOL0     C78719   7.611   2.950   2.187 -0.0245  0.4808 -0.9089
  584MOL0     C78720   7.582   3.062   2.087 -0.6813  0.4093  0.4082
  584MOL0     C78721   7.710   3.063   2.007  0.4203  0.1559 -0.4655
  584MOL0     N78722   7.713   2.959   1.903 -0.5640 -0.0335  0.2801
  584MOL0     C78723   7.625   2.969   1.798 -0.8068  0.6330  0.6165
  584MOL0     C78724   7.675   2.873   1.716  0.5915  0.9183  0.0331
  584MOL0     C78725   7.627   2.829   1.576  0.1452  0.5544  0.1863
  584MOL0     C78726   7.680   2.695   1.532 -0.3804  0.5009 -0.4908
  584MOL0     C78727   7.594   2.599   1.613 -0.6336 -0.6570  0.1947
  584MOL0     C78728   7.612   2.460   1.561 -0.4689 -1.1598 -0.5104
  584MOL0     O78729   7.557   2.362   1.654  0.1981 -1.0185 -0.2435
  584MOL0     C78730   7.432   2.377   1.712 -0.5570  0.5542  0.1736
  584MOL0     C78731   7.439   2.357   1.855  0.2099 -0.2144 -0.5734
  584MOL0     C78732   7.322   2.382   1.934 -0.0156  0.0693 -0.3154
  584MOL0     C78733   7.201   2.430   1.874  0.8687  0.1018  0.0239
  584MOL0     C78734   7.079   2.470   1.951 -0.7763  0.5307  0.9955
  584MOL0     O78735   7.108   2.482   2.081  0.9030 -1.0720 -0.5773
  584MOL0     C78736   7.003   2.496   2.177 -0.7258 -0.0013  1.8617
  584MOL0     C78737   6.864   2.509   2.158  0.6433 -0.5462 -0.0010
  584MOL0     C78738   6.779   2.533   2.265  0.8897  0.0214  0.2192
  584MOL0     C78739   6.820   2.540   2.405 -0.3336  0.4677 -0.0602
  584MOL0     O78740   6.729   2.570   2.509 -0.5573  0.3784 -0.0956
  584MOL0     C78741   6.776   2.535   2.643  0.0238  0.1757 -0.6885
  584MOL0     C78742   6.840   2.648   2.724  0.1212 -0.3136 -0.3997
  584MOL0     C78743   6.937   2.600   2.830 -0.0920  0.1150 -0.2282
  584MOL0     C78744   6.997   2.712   2.908  0.4675 -1.3221  0.5591
  584MOL0     C78745   7.121   2.676   2.974 -0.2157 -0.3981 -0.4908
  584MOL0     C78746   7.092   2.570   3.086 -0.7494 -0.1025  0.2300
  584MOL0     C78747   6.992   2.614   3.190  0.9345 -0.4675  0.1904
  584MOL0     C78748   6.988   2.509   3.299  0.4531  0.3916  1.2508
  584MOL0    Cl78749   6.843   2.557   3.401 -0.2498 -0.3937 -0.0280
  584MOL0     C78750   6.963   2.527   2.418  0.5604 -0.0790  0.1372
  584MOL0     C78751   7.044   2.521   2.307 -0.1043  0.4397  0.2302
  584MOL0     O78752   6.974   2.461   1.900 -0.3099 -0.2280  0.2847
  584MOL0     C78753   7.199   2.446   1.734  0.2257  0.7438 -0.7665
  584MOL0     C78754   7.313   2.420   1.656  0.5521 -0.1020 -0.1807
  584MOL0     N78755   7.771   2.800   1.781  0.6466  0.3756 -0.4102
  584MOL0     N78756   7.797   2.858   1.891  0.2609 -0.2350 -0.6390
  584MOL0     C78757   8.006   2.543   2.772 -0.5085 -0.2150 -0.6664
  584MOL0     C78758   8.125   2.564   2.854 -0.4874  0.8796  0.1630
  584MOL0     C78759   8.388   2.840   3.139 -0.3580  0.5138 -0.7817
  584MOL0     C78760   8.510   2.775   3.166  0.2325  1.2371  0.9599
  584MOL0     C78761   8.571   2.798   3.280 -0.5453  1.1735 -1.6076
  584MOL0     C78762   8.532   2.889   3.374  0.1487 -0.2603  0.0444
  584MOL0     O78763   8.588   2.917   3.487 -0.6169 -0.8278 -1.3489
  584MOL0     C78764   8.615   2.812   3.592  0.4067 -0.8124  0.3884
  584MOL0     C78765   8.684   2.883   3.702  0.9430  0.4430  0.6546
  584MOL0     C78766   8.746   2.776   3.799  0.0929  0.7138 -0.0604
  584MOL0     C78767   8.635   2.711   3.873  0.0029 -0.8497 -0.6395
  584MOL0     C78768   8.706   2.625   3.977  0.0789 -0.0057 -0.0395
  584MOL0     C78769   8.759   2.558   4.067 -0.3273  0.2336  0.1665
  584MOL0     C78770   8.403   2.950   3.353 -0.2622  0.4247 -0.8088
  584MOL0     C78771   8.329   2.925   3.232  0.0566 -0.1302 -1.2463
  584MOL0     C78772   8.200   2.998   3.218 -0.5822 -0.9262  0.4071
  584MOL0     H78773   8.082   2.891   2.917  1.8760  0.3874 -1.5569
  584MOL0     H78774   7.896   2.855   2.768 -0.3385  0.2040 -0.9980
  584MOL0     H78775   7.703   2.804   2.688 -0.3592  0.3048 -1.2801
  584MOL0     H78776   7.801   2.787   2.542  2.4045  0.9771  1.8834
  584MOL0     H78777   7.532   2.649   2.621  1.9038  1.7059  2.4158
  584MOL0     H78778   7.630   2.591   2.488  0.1035  1.5889 -1.5551
  584MOL0     H78779   7.605   2.885   2.454  3.5022 -3.2438 -1.9266
  584MOL0     H78780   7.458   2.816   2.521 -0.5329 -0.6346  0.9439
  584MOL0     H78781   7.582   2.683   2.281  1.3283  0.4522  1.3834
  584MOL0     H78782   7.400   2.709   2.324 -0.1004  0.9888  0.7063
  584MOL0     H78783   7.447   2.812   2.118 -3.8899  2.5665  0.3672
  584MOL0     H78784   7.402   2.914   2.242  0.6404 -0.0417  1.9898
  584MOL0     H78785   7.645   2.989   2.284 -0.4081 -0.6184 -0.3147
  584MOL0     H78786   7.691   2.882   2.156  3.2822  2.5753  2.1145
  584MOL0     H78787   7.577   3.160   2.135  0.3115  0.5252  0.3072
  584MOL0     H78788   7.492   3.053   2.027 -1.4312 -0.3594  1.5989
  584MOL0     H78789   7.709   3.160   1.957 -1.6478  0.6466  0.4161
  584MOL0     H78790   7.799   3.056   2.070  0.3965 -0.5652 -0.5004
  584MOL0     H78791   7.541   3.034   1.776  2.1740  4.6670  0.1065
  584MOL0     H78792   7.520   2.844   1.563  0.1195  0.8790  0.7506
  584MOL0     H78793   7.676   2.895   1.503  0.5976 -1.5929 -1.5769
  584MOL0     H78794   7.666   2.689   1.424  0.8930 -1.1431 -0.6161
  584MOL0     H78795   7.780   2.660   1.562 -1.2716 -1.5239  0.3046
  584MOL0     H78796   7.487   2.623   1.607 -0.4648  0.3385  0.9686
  584MOL0     H78797   7.608   2.596   1.722  0.0118  0.4070  0.1529
  584MOL0     H78798   7.719   2.443   1.544 -0.2168  0.4496 -0.6710
  584MOL0     H78799   7.568   2.461   1.461 -0.2993  4.5455 -0.8798
  584MOL0     H78800   7.535   2.315   1.883 -0.5102 -1.9720 -0.5701
  584MOL0     H78801   7.333   2.374   2.041  0.4778  0.9136 -0.2963
  584MOL0     H78802   6.821   2.502   2.058 -0.6951  0.2679  0.4866
  584MOL0     H78803   6.672   2.539   2.246  1.4802  1.3226 -3.5840
  584MOL0     H78804   6.707   2.484   2.711  0.8034 -0.1323 -0.1135
  584MOL0     H78805   6.853   2.459   2.628 -1.6534 -2.0306  1.1848
  584MOL0     H78806   6.894   2.717   2.658 -3.2626  0.9430 -2.0783
  584MOL0     H78807   6.769   2.715   2.772  1.6765  1.4461 -0.4314
  584MOL0     H78808   6.882   2.533   2.897  0.7613  0.4938  0.8760
  584MOL0     H78809   7.018   2.551   2.776 -0.9740 -0.5524 -0.9982
  584MOL0     H78810   6.918   2.762   2.965  0.0708  2.0637 -2.5553
  584MOL0     H78811   7.027   2.783   2.831 -3.7583  0.5428  0.3445
  584MOL0     H78812   7.162   2.766   3.022 -0.3596 -1.3712  1.5881
  584MOL0     H78813   7.197   2.634   2.907 -1.2182 -1.5946 -0.9055
  584MOL0     H78814   7.055   2.484   3.029 -3.6849  1.4171 -0.3239
  584MOL0     H78815   7.190   2.554   3.131 -0.9308  3.7810  2.4739
  584MOL0     H78816   6.891   2.610   3.146  1.5638  0.4727 -1.4496
  584MOL0     H78817   7.005   2.719   3.220  1.4225 -0.6676  0.6915
  584MOL0     H78818   6.959   2.413   3.256 -0.8150  0.4451  1.9286
  584MOL0     H78819   7.078   2.495   3.359 -0.4978 -2.1997  2.2119
  584MOL0     H78820   7.010   2.531   2.515  0.0829 -0.9521  0.4088
  584MOL0     H78821   7.152   2.512   2.313 -0.2217  0.1495  2.9361
  584MOL0     H78822   7.117   2.490   1.677  0.5323  0.9132 -1.0804
  584MOL0     H78823   7.327   2.431   1.549  2.7265  1.3341  0.1775
  584MOL0     H78824   7.972   2.444   2.744 -0.8882  0.5019 -2.8742
  584MOL0     H78825   8.173   2.470   2.879 -1.6059  0.6805  1.6641
  584MOL0     H78826   8.530   2.697   3.093 -1.7317  0.2447  1.4092
  584MOL0     H78827   8.668   2.756   3.304 -0.4419  2.8620  1.5224
  584MOL0     H78828   8.682   2.734   3.555  0.3015 -0.7997  0.1674
  584MOL0     H78829   8.526   2.769   3.638 -1.2108 -0.0520 -1.8525
  584MOL0     H78830   8.609   2.938   3.760  0.4207  0.3104  0.1234
  584MOL0     H78831   8.756   2.953   3.659  2.1154 -1.1849 -0.1102
  584MOL0     H78832   8.816   2.830   3.863 -0.6560 -0.0340  1.4443
  584MOL0     H78833   8.806   2.702   3.745  0.4172 -1.2577  2.7189
  584MOL0     H78834   8.561   2.783   3.911 -1.6095 -2.2743 -0.9301
  584MOL0     H78835   8.580   2.643   3.807 -0.2075 -2.1798  0.8226
  584MOL0     H78836   8.825   2.508   4.134  2.9280  1.1322 -2.0876
  584MOL0     H78837   8.383   3.035   3.418 -0.6227  3.3103 -4.3052
  584MOL0     H78838   8.217   3.105   3.199  0.9053 -1.6548 -3.2741
  584MOL0     H78839   8.134   2.949   3.145  1.7333  0.6468 -3.0489
  584MOL0     H78840   8.145   2.980   3.310 -1.4543  1.2391  0.3754
  585MOL0     O78841   6.143   4.431   5.061 -0.6461  0.2202  0.1885
  585MOL0     C78842   6.181   4.393   4.946  0.0942 -1.1180 -0.3220
  585MOL0     O78843   6.102   4.332   4.854 -0.4207 -0.2640 -0.6103
  585MOL0     C78844   5.991   4.259   4.876  0.4185 -0.5726 -0.0011
  585MOL0     C78845   5.940   4.204   4.757 -0.1661  0.8717 -0.7342
  585MOL0     C78846   5.829   4.111   4.772  0.5222  0.9297  0.2396
  585MOL0     C78847   5.772   4.078   4.897  0.1008  0.2041  0.3212
  585MOL0     O78848   5.663   4.000   4.905  0.1711 -0.4799 -0.4021
  585MOL0     C78849   5.561   4.017   4.803 -0.6474 -0.3346  0.3704
  585MOL0     C78850   5.421   3.963   4.845  0.3736 -0.3087 -0.0604
  585MOL0     C78851   5.426   3.813   4.870  0.1427 -0.4534 -0.4460
  585MOL0     C78852   5.293   3.766   4.931  0.0855  0.0923 -0.1571
  585MOL0     C78853   5.170   3.781   4.839 -0.6531 -0.3669  0.1802
  585MOL0     C78854   5.198   3.720   4.697  0.2323 -1.0843  0.7370
  585MOL0     C78855   5.070   3.697   4.630 -0.5060  0.3883  1.0356
  585MOL0     C78856   4.990   3.570   4.672  0.7713 -0.5124  0.3925
  585MOL0     N78857   4.855   3.582   4.616 -0.1867 -0.7805  0.2487
  585MOL0     C78858   4.747   3.522   4.664  0.0634  0.2376 -0.5715
  585MOL0     C78859   4.652   3.535   4.572  0.1972 -0.3441  0.0082
  585MOL0     C78860   4.507   3.484   4.594  0.1375 -0.2806 -0.0335
  585MOL0     C78861   4.460   3.520   4.736 -0.0525 -0.7570 -0.5362
  585MOL0     C78862   4.311   3.485   4.753 -0.3687 -0.1910 -0.5734
  585MOL0     C78863   4.267   3.534   4.887  0.8254 -0.4757  1.0414
  585MOL0     O78864   4.125   3.557   4.894 -0.1305  0.7309  0.2102
  585MOL0     C78865   4.077   3.642   4.994  0.2120  0.3957  0.2075
  585MOL0     C78866   4.114   3.638   5.128 -0.0901  0.7563 -0.9629
  585MOL0     C78867   4.068   3.733   5.221  0.4336 -0.5042  0.8232
  585MOL0     C78868   3.982   3.831   5.171 -0.3149 -0.0990 -0.0115
  585MOL0     C78869   3.942   3.941   5.262 -0.5628 -0.3014 -0.6035
  585MOL0     O78870   3.978   3.930   5.392 -0.2466 -0.8871 -0.5945
  585MOL0     C78871   3.941   4.031   5.486 -0.2846  1.1369 -1.0917
  585MOL0     C78872   3.809   4.050   5.524 -0.4820 -0.4518 -0.5296
  585MOL0     C78873   3.764   4.130   5.633 -0.3563 -0.0696  0.3924
  585MOL0     C78874   3.869   4.204   5.693 -0.0219 -0.1493 -0.0489
  585MOL0     O78875   3.841   4.276   5.808  0.7917  0.5447 -0.2618
  585MOL0     C78876   3.713   4.283   5.859  0.0382  0.0221 -0.9750
  585MOL0     C78877   3.703   4.373   5.981  0.1240  0.4064  0.4574
  585MOL0     C78878   3.746   4.526   5.960 -1.0957  0.0920 -0.8848
  585MOL0     C78879   3.666   4.594   5.849  0.3520  1.1691  0.0203
  585MOL0     C78880   3.673   4.743   5.824  0.1806  0.0577 -0.2576
  585MOL0     C78881   3.573   4.786   5.718 -0.4386  0.6189  0.2663
  585MOL0     C78882   3.603   4.935   5.689 -0.4509 -0.5812 -0.3238
  585MOL0     C78883   3.538   5.024   5.788 -0.0137 -0.4555  0.5125
  585MOL0    Cl78884   3.498   5.193   5.718 -0.1092  0.0877  0.3275
  585MOL0     C78885   3.996   4.191   5.649  0.7091 -0.0800 -0.4657
  585MOL0     C78886   4.034   4.101   5.551  0.4600  0.1810 -0.2385
  585MOL0     O78887   3.868   4.030   5.215 -0.0688 -0.3109  0.9424
  585MOL0     C78888   3.948   3.839   5.036  0.1477 -0.4107 -0.5184
  585MOL0     C78889   3.987   3.736   4.946 -1.4810 -0.0868 -0.2165
  585MOL0     N78890   4.707   3.616   4.468  0.5014  0.7685  0.2687
  585MOL0     N78891   4.829   3.630   4.494 -0.0834  0.2389 -0.7395
  585MOL0     C78892   5.818   4.129   5.009 -0.7302 -0.1952 -0.2074
  585MOL0     C78893   5.926   4.224   4.997 -0.6229  0.4277  0.8588
  585MOL0     C78894   6.325   4.419   4.908 -0.3792 -0.1875  0.6997
  585MOL0     C78895   6.385   4.326   4.814 -0.0184  0.1683  0.6604
  585MOL0     C78896   6.518   4.358   4.758  0.3305  0.4261  0.0100
  585MOL0     C78897   6.574   4.484   4.797  0.4965 -0.0815  0.1149
  585MOL0     O78898   6.693   4.531   4.753  0.2794 -0.3937 -0.1482
  585MOL0     C78899   6.805   4.439   4.735  0.1425  0.9545 -0.4341
  585MOL0     C78900   6.856   4.419   4.878 -0.6158 -0.3413  1.3209
  585MOL0     C78901   6.921   4.553   4.934  0.6804 -0.0770  0.4150
  585MOL0     C78902   7.038   4.596   4.854  0.6071 -0.3456 -0.1899
  585MOL0     C78903   7.127   4.683   4.942 -0.1827  0.3403  0.0531
  585MOL0     C78904   7.174   4.740   5.029 -0.1511 -1.1069 -0.0946
  585MOL0     C78905   6.508   4.578   4.874 -0.2599  0.0047 -0.2628
  585MOL0     C78906   6.387   4.547   4.932 -0.6999 -0.9096  0.6799
  585MOL0     C78907   6.340   4.654   5.030  0.1749 -0.3289  1.9209
  585MOL0     H78908   6.001   4.233   4.673  1.0071  1.0831  0.1616
  585MOL0     H78909   5.788   4.062   4.685  2.1838 -0.2447  0.0624
  585MOL0     H78910   5.556   4.124   4.781 -0.3146 -0.2396  0.7380
  585MOL0     H78911   5.597   3.963   4.715  1.2817 -2.4036  2.2892
  585MOL0     H78912   5.353   3.977   4.761  2.5581  0.6861 -1.7418
  585MOL0     H78913   5.386   4.008   4.938  4.7991  0.7611  1.3207
  585MOL0     H78914   5.509   3.811   4.941  1.5672  0.6675 -1.9793
  585MOL0     H78915   5.447   3.742   4.790  3.8958  1.3118 -1.2803
  585MOL0     H78916   5.306   3.661   4.958 -1.0128 -0.3165 -1.1361
  585MOL0     H78917   5.274   3.820   5.025 -0.5915 -1.3909  0.5876
  585MOL0     H78918   5.076   3.740   4.878 -0.5407  0.0927  0.9458
  585MOL0     H78919   5.150   3.886   4.817 -1.8350 -0.6847 -0.3962
  585MOL0     H78920   5.257   3.793   4.642 -1.1605 -0.3788  0.1522
  585MOL0     H78921   5.256   3.627   4.683 -0.1582 -0.9705 -2.1876
  585MOL0     H78922   5.097   3.705   4.524  1.6911 -0.2613  1.4989
  585MOL0     H78923   5.013   3.789   4.643 -0.8670  0.4251 -0.5741
  585MOL0     H78924   5.031   3.483   4.619 -3.1447 -0.5774 -3.0668
  585MOL0     H78925   4.989   3.554   4.780  2.1822  0.3562  0.5600
  585MOL0     H78926   4.758   3.461   4.753 -1.0633  4.8974  3.1447
  585MOL0     H78927   4.442   3.541   4.528  0.0099  0.0410  0.3688
  585MOL0     H78928   4.501   3.377   4.571  2.9213 -0.5115 -0.0622
  585MOL0     H78929   4.516   3.471   4.816  1.6140  1.9085  0.0441
  585MOL0     H78930   4.483   3.627   4.742 -0.0577 -0.7343 -0.8718
  585MOL0     H78931   4.306   3.376   4.751  1.9739 -0.3390 -1.4258
  585MOL0     H78932   4.250   3.530   4.674  2.8964  3.0479 -1.5565
  585MOL0     H78933   4.327   3.625   4.903  1.5316 -1.2653  3.3987
  585MOL0     H78934   4.287   3.467   4.971 -2.6052 -1.5336  1.1498
  585MOL0     H78935   4.178   3.558   5.164  1.2457  1.0217 -2.6109
  585MOL0     H78936   4.098   3.726   5.325  0.1723 -2.9044  0.7893
  585MOL0     H78937   3.737   3.981   5.481 -1.1634  0.3703 -0.7238
  585MOL0     H78938   3.658   4.115   5.646 -0.5138 -0.2567 -0.9348
  585MOL0     H78939   3.648   4.325   5.781 -2.6489 -1.7284  0.1685
  585MOL0     H78940   3.668   4.183   5.868  1.1231 -0.5651 -1.8259
  585MOL0     H78941   3.600   4.363   6.016  0.4612  1.6687  1.9507
  585MOL0     H78942   3.764   4.331   6.061 -3.2439 -2.1234  1.9566
  585MOL0     H78943   3.716   4.580   6.050  0.2383  0.1411 -0.4451
  585MOL0     H78944   3.853   4.537   5.940 -1.1156  1.7914 -0.1844
  585MOL0     H78945   3.560   4.570   5.865  1.2268 -4.1078 -0.4699
  585MOL0     H78946   3.699   4.534   5.763 -3.5922 -2.1413  0.4994
  585MOL0     H78947   3.776   4.769   5.798  0.4890 -1.0023 -0.1666
  585MOL0     H78948   3.645   4.782   5.922 -3.9943 -2.0252 -0.4262
  585MOL0     H78949   3.577   4.724   5.628 -0.9393 -2.4077  2.1927
  585MOL0     H78950   3.470   4.786   5.755 -0.1908  0.5862  0.9738
  585MOL0     H78951   3.583   4.958   5.584  4.9782  0.1012 -1.5466
  585MOL0     H78952   3.711   4.956   5.692 -0.8271  1.4362  1.4581
  585MOL0     H78953   3.445   4.976   5.819 -0.9784  1.2818  0.3733
  585MOL0     H78954   3.600   5.030   5.878 -0.3938 -2.9868  1.0318
  585MOL0     H78955   4.073   4.232   5.714 -0.3999 -0.9537  1.4569
  585MOL0     H78956   4.137   4.077   5.528 -0.3746 -1.0095 -3.1514
  585MOL0     H78957   3.891   3.925   5.004 -0.4797 -0.7131 -0.2329
  585MOL0     H78958   3.967   3.743   4.839 -2.4235 -0.2130 -0.0624
  585MOL0     H78959   5.776   4.097   5.104 -2.9788  0.0299 -1.0642
  585MOL0     H78960   5.941   4.286   5.085 -1.1455  1.3861  0.2830
  585MOL0     H78961   6.339   4.230   4.794 -2.2548  1.2858  0.1698
  585MOL0     H78962   6.558   4.275   4.702  0.3603 -1.4865  2.6861
  585MOL0     H78963   6.876   4.472   4.658  2.3340  0.7113  1.3614
  585MOL0     H78964   6.768   4.342   4.701  0.8156  0.2861  0.6640
  585MOL0     H78965   6.931   4.339   4.881  1.9430  1.7888 -0.7980
  585MOL0     H78966   6.772   4.394   4.944 -1.9638  0.3788 -0.0620
  585MOL0     H78967   6.968   4.528   5.030  0.1383 -1.2480  0.3912
  585MOL0     H78968   6.850   4.636   4.943 -0.7917 -1.1032 -1.0269
  585MOL0     H78969   7.100   4.509   4.828  0.4326 -1.1149  1.7741
  585MOL0     H78970   7.012   4.637   4.756 -0.2540  0.8110  0.5067
  585MOL0     H78971   7.209   4.789   5.118 -0.0403 -2.3675  0.5870
  585MOL0     H78972   6.556   4.672   4.899  0.3206  0.6451 -3.3663
  585MOL0     H78973   6.411   4.737   5.028 -0.9835  0.7891 -1.8489
  585MOL0     H78974   6.245   4.695   4.995  1.4784  1.4978  0.3265
  585MOL0     H78975   6.322   4.614   5.130 -5.5136 -1.0346  0.9528
  586MOL0     O78976   9.762  10.105   2.110 -0.0726 -0.0119 -0.1231
  586MOL0     C78977   9.853  10.192   2.100 -0.8235  0.9938  0.7243
  586MOL0     O78978   9.912  10.233   1.978  0.0828 -0.8599  0.7273
  586MOL0     C78979   9.909  10.154   1.861  0.2688  0.1976  0.1405
  586MOL0     C78980   9.887  10.017   1.863 -0.0404 -0.7190 -0.6795
  586MOL0     C78981   9.873   9.943   1.749 -1.2163  0.2354  0.1688
  586MOL0     C78982   9.893  10.008   1.624 -0.2189  0.7380 -0.2847
  586MOL0     O78983   9.871   9.934   1.505 -0.9447 -0.1291 -1.0824
  586MOL0     C78984   9.734   9.960   1.453 -0.2140 -0.4861 -0.0861
  586MOL0     C78985   9.680   9.837   1.373  0.5778 -0.9731  0.9013
  586MOL0     C78986   9.532   9.847   1.333  0.0791  0.0786 -0.2638
  586MOL0     C78987   9.484   9.704   1.314  0.3230  0.3845 -0.0575
  586MOL0     C78988   9.327   9.696   1.294 -0.7623 -0.5600 -0.1477
  586MOL0     C78989   9.289   9.560   1.231 -0.2298 -0.4126  0.8724
  586MOL0     C78990   9.335   9.437   1.312  0.0440 -0.1095  0.1327
  586MOL0     C78991   9.273   9.316   1.253  0.0998  0.3669  0.5793
  586MOL0     N78992   9.313   9.293   1.113 -0.7366 -0.7359  0.6056
  586MOL0     C78993   9.232   9.321   1.003  0.4895 -0.3080  0.3899
  586MOL0     C78994   9.300   9.273   0.896 -0.3043 -0.7159 -0.6761
  586MOL0     C78995   9.236   9.277   0.758  0.0521  0.7293  0.1283
  586MOL0     C78996   9.090   9.224   0.750 -0.6829  0.3784  0.1437
  586MOL0     C78997   9.037   9.252   0.606  0.0182 -1.7153  0.4151
  586MOL0     C78998   8.976   9.395   0.601  0.3309  0.3075 -1.6788
  586MOL0     O78999   8.917   9.405   0.462 -0.5298 -0.3361 -0.5302
  586MOL0     C79000   8.855   9.528   0.433  1.3439 -0.1074  0.2531
  586MOL0     C79001   8.806   9.554   0.299  0.0704  0.8682 -0.0625
  586MOL0     C79002   8.727   9.663   0.280 -0.4506  0.5238 -0.7286
  586MOL0     C79003   8.737   9.782   0.358 -0.7744  0.1556  0.6643
  586MOL0     C79004   8.654   9.905   0.313 -1.6799  0.5198  0.0654
  586MOL0     O79005   8.665   9.942   0.174  0.1434  0.1876  0.0675
  586MOL0     C79006   8.562  10.009   0.118 -0.4779  0.6468  0.2292
  586MOL0     C79007   8.598  10.089   0.004  0.1943  0.8374  0.5445
  586MOL0     C79008   8.500  10.169  -0.051  0.3422  0.4183  0.9833
  586MOL0     C79009   8.371  10.175  -0.006  0.4118 -0.4460  0.1122
  586MOL0     O79010   8.275  10.252  -0.067  0.0524 -0.2152 -0.9389
  586MOL0     C79011   8.178  10.312   0.023  0.0745 -0.5937 -0.5309
  586MOL0     C79012   8.070  10.396  -0.050 -0.4828  0.0632  1.0717
  586MOL0     C79013   7.957  10.313  -0.116 -0.0297 -0.7410 -0.8002
  586MOL0     C79014   7.995  10.173  -0.164  0.0656  0.7846  0.3375
  586MOL0     C79015   7.863  10.099  -0.227 -0.3322  0.8976 -0.0534
  586MOL0     C79016   7.811  10.151  -0.355  0.4583  0.0311  0.0595
  586MOL0     C79017   7.695  10.075  -0.405  0.0941 -0.3791 -0.5059
  586MOL0     C79018   7.654  10.089  -0.547  0.5851 -0.2678  1.2833
  586MOL0    Cl79019   7.615  10.255  -0.587 -0.1251  0.6324  0.2661
  586MOL0     C79020   8.343  10.080   0.089  0.4752  0.3807  0.0672
  586MOL0     C79021   8.435  10.005   0.162  0.3893  0.0840  0.2147
  586MOL0     O79022   8.592   9.960   0.400  0.3808  0.3742  0.0553
  586MOL0     C79023   8.794   9.773   0.485 -0.1892 -0.5057 -0.7600
  586MOL0     C79024   8.842   9.641   0.530  0.0658  0.1423  0.3522
  586MOL0     N79025   9.414   9.205   0.937 -0.1396 -0.2295 -0.5154
  586MOL0     N79026   9.419   9.222   1.067 -0.8109 -0.5036 -0.2533
  586MOL0     C79027   9.929  10.144   1.624  0.2791 -0.0941  0.7108
  586MOL0     C79028   9.931  10.217   1.738  0.7407 -0.0819 -0.9770
  586MOL0     C79029   9.914  10.267   2.218  0.3787  0.2785 -0.1659
  586MOL0     C79030  10.013  10.357   2.204  0.5444  0.2238  0.4972
  586MOL0     C79031  10.059  10.441   2.306  0.1951  0.3169  0.4919
  586MOL0     C79032  10.015  10.431   2.436  0.3696  0.4473 -0.1732
  586MOL0     O79033  10.050  10.503   2.541 -0.1855 -0.1068  0.7060
  586MOL0     C79034  10.147  10.441   2.629  0.4784 -0.2164 -0.0046
  586MOL0     C79035  10.230  10.552   2.706 -0.5374 -0.3231  0.3065
  586MOL0     C79036  10.346  10.615   2.620 -0.5810 -0.1890 -0.0787
  586MOL0     C79037  10.313  10.706   2.510 -0.1143  0.4374  0.2325
  586MOL0     C79038  10.430  10.729   2.426  0.2510 -0.7243  0.5679
  586MOL0     C79039  10.532  10.762   2.354 -0.3068 -0.0164 -1.0091
  586MOL0     C79040   9.921  10.341   2.458 -0.0344 -0.2900 -0.1511
  586MOL0     C79041   9.863  10.258   2.355 -0.0682 -0.3703  0.3528
  586MOL0     C79042   9.758  10.159   2.397 -0.3435 -0.9684 -0.3347
  586MOL0     H79043   9.901   9.961   1.955  1.5634  2.4424  1.1720
  586MOL0     H79044   9.842   9.840   1.759 -1.7537  0.4034  0.2291
  586MOL0     H79045   9.672   9.959   1.543 -0.2289  2.0913  0.0007
  586MOL0     H79046   9.711  10.053   1.401 -0.5945 -0.2165  0.5590
  586MOL0     H79047   9.685   9.751   1.440 -0.9907 -1.6829  0.1500
  586MOL0     H79048   9.745   9.815   1.288  0.0961 -5.5754  1.4800
  586MOL0     H79049   9.530   9.905   1.241  3.4714 -0.9378 -1.1101
  586MOL0     H79050   9.467   9.898   1.404  2.7593  1.1671  1.5774
  586MOL0     H79051   9.533   9.653   1.230  0.3560 -1.0311  0.7867
  586MOL0     H79052   9.510   9.642   1.400  1.2090  0.8385  0.0057
  586MOL0     H79053   9.277   9.718   1.389  0.1484 -3.4287  1.1173
  586MOL0     H79054   9.299   9.783   1.235  0.3987  0.9272  1.3959
  586MOL0     H79055   9.180   9.556   1.223 -0.4498  1.8824  1.8640
  586MOL0     H79056   9.322   9.556   1.127 -0.8431  0.2564  0.6489
  586MOL0     H79057   9.286   9.452   1.408 -3.2573 -0.4066 -1.3565
  586MOL0     H79058   9.441   9.421   1.332 -0.2939 -3.0890  0.0086
  586MOL0     H79059   9.289   9.225   1.311 -0.5978  0.0846  0.3458
  586MOL0     H79060   9.165   9.326   1.267  0.4067  0.4871  3.4625
  586MOL0     H79061   9.141   9.380   0.999  0.2457 -0.7199 -0.1781
  586MOL0     H79062   9.238   9.382   0.727 -2.8749  1.6198  2.4410
  586MOL0     H79063   9.291   9.221   0.682  2.8795  2.6166  0.6051
  586MOL0     H79064   9.088   9.115   0.759 -0.1778  0.5167  2.4891
  586MOL0     H79065   9.020   9.270   0.819 -4.7587 -2.3627 -1.7526
  586MOL0     H79066   8.951   9.190   0.579 -0.6152 -0.2173 -1.2432
  586MOL0     H79067   9.119   9.249   0.532  3.3054 -3.7929  3.7797
  586MOL0     H79068   9.059   9.466   0.609 -0.7579  1.4667 -0.1579
  586MOL0     H79069   8.901   9.412   0.679  0.4309 -0.8511 -1.3058
  586MOL0     H79070   8.818   9.484   0.217 -0.4446  2.4144 -1.5206
  586MOL0     H79071   8.660   9.669   0.194 -4.9106  0.5316  2.4155
  586MOL0     H79072   8.700  10.092  -0.034 -0.0381 -0.0027 -0.1886
  586MOL0     H79073   8.528  10.229  -0.137 -1.8720 -2.3432 -1.9452
  586MOL0     H79074   8.126  10.243   0.091 -2.7750  1.9484  0.0523
  586MOL0     H79075   8.226  10.379   0.095 -1.7718  0.4375 -0.2158
  586MOL0     H79076   8.039  10.481   0.012  2.3723  2.6479 -0.7666
  586MOL0     H79077   8.127  10.433  -0.135 -1.8945 -1.7764 -0.7701
  586MOL0     H79078   7.875  10.302  -0.045  1.5622  2.8770  1.8996
  586MOL0     H79079   7.917  10.372  -0.200 -1.2404  0.1667  0.3735
  586MOL0     H79080   8.026  10.100  -0.089 -2.2655 -0.5659  0.0781
  586MOL0     H79081   8.076  10.183  -0.237  0.2401  0.9744  0.5535
  586MOL0     H79082   7.789  10.119  -0.149 -0.6645 -0.3698 -0.0246
  586MOL0     H79083   7.881   9.991  -0.234 -3.0661  0.3871 -0.5750
  586MOL0     H79084   7.769  10.251  -0.341  0.2757 -0.2653  1.8530
  586MOL0     H79085   7.888  10.144  -0.433 -0.8239  3.1713 -1.6565
  586MOL0     H79086   7.611  10.107  -0.342 -0.3675 -2.0260 -0.2514
  586MOL0     H79087   7.701   9.970  -0.375 -1.4428 -0.1627  0.6929
  586MOL0     H79088   7.723  10.043  -0.618 -0.4689 -1.8118  1.2148
  586MOL0     H79089   7.551  10.056  -0.566 -0.0553  2.1822  0.0682
  586MOL0     H79090   8.238  10.071   0.115  0.2722 -1.9150 -1.2315
  586MOL0     H79091   8.403   9.926   0.230  0.7809 -0.6100 -0.3965
  586MOL0     H79092   8.792   9.855   0.556 -1.7544  0.3772 -1.7784
  586MOL0     H79093   8.882   9.633   0.631 -0.6195  2.4013  0.8633
  586MOL0     H79094   9.939  10.197   1.530 -2.2999  1.0352  0.9709
  586MOL0     H79095   9.961  10.322   1.740  0.8536 -0.0872  2.1585
  586MOL0     H79096  10.035  10.398   2.106  1.0526  0.4934  0.7222
  586MOL0     H79097  10.133  10.518   2.287  1.1834 -0.7612 -0.1626
  586MOL0     H79098  10.213  10.377   2.569 -1.4852 -1.2126 -1.2160
  586MOL0     H79099  10.095  10.372   2.696 -4.4593 -0.8296 -3.9019
  586MOL0     H79100  10.274  10.507   2.795 -2.0220 -0.9075  0.7817
  586MOL0     H79101  10.169  10.636   2.741  3.8299  3.2596  0.2174
  586MOL0     H79102  10.403  10.533   2.575  0.2914 -0.1298  0.8937
  586MOL0     H79103  10.419  10.669   2.682 -1.3924 -1.2195  1.8815
  586MOL0     H79104  10.244  10.656   2.441  1.9710 -2.8057  0.3113
  586MOL0     H79105  10.267  10.799   2.547  1.8701  1.6386 -0.1631
  586MOL0     H79106  10.607  10.791   2.284  0.7060 -1.6345 -0.6267
  586MOL0     H79107   9.879  10.337   2.558 -2.2826  2.6044 -0.8354
  586MOL0     H79108   9.752  10.155   2.507 -0.4212  1.7210 -0.1705
  586MOL0     H79109   9.659  10.189   2.364  0.4971  2.0333 -0.4550
  586MOL0     H79110   9.792  10.066   2.351 -1.3297 -0.8042 -1.4378
  587MOL0     O79111   1.760   4.692   8.968  0.0033  0.0510  1.3370
  587MOL0     C79112   1.817   4.670   8.862 -0.0252 -0.2687 -1.1953
  587MOL0     O79113   1.920   4.746   8.812  0.0353 -0.3197 -0.1237
  587MOL0     C79114   1.984   4.859   8.862  0.4181 -1.1368 -0.3582
  587MOL0     C79115   1.920   4.984   8.851  1.1886  0.1521  0.3163
  587MOL0     C79116   1.969   5.100   8.902 -0.2386  0.3145  0.1742
  587MOL0     C79117   2.088   5.091   8.987  0.0277 -0.5545  0.7217
  587MOL0     O79118   2.106   5.201   9.060 -0.5471 -0.1573  0.7989
  587MOL0     C79119   2.235   5.228   9.104 -0.1176 -0.1784  0.1939
  587MOL0     C79120   2.243   5.333   9.220  0.1381  0.7684 -0.4798
  587MOL0     C79121   2.182   5.292   9.354  0.4657 -0.7054 -0.3310
  587MOL0     C79122   2.221   5.154   9.403  0.8908  0.1931  0.9755
  587MOL0     C79123   2.158   5.113   9.529  0.1764  0.6618 -0.3527
  587MOL0     C79124   2.001   5.077   9.518  0.2753 -0.1563 -0.8751
  587MOL0     C79125   1.919   5.060   9.651 -0.2364 -0.5104 -0.5831
  587MOL0     C79126   1.910   5.190   9.725  0.7035  0.4093  1.1230
  587MOL0     N79127   1.907   5.313   9.656 -0.6802 -1.0441 -0.5402
  587MOL0     C79128   1.790   5.390   9.660 -0.6143 -0.0732  0.1615
  587MOL0     C79129   1.822   5.513   9.625  0.7335 -0.2173 -0.1760
  587MOL0     C79130   1.735   5.634   9.604 -0.4619  0.3184  0.1767
  587MOL0     C79131   1.674   5.687   9.737 -0.6398  0.2703 -0.3053
  587MOL0     C79132   1.602   5.815   9.722 -0.6455 -0.5483  0.3307
  587MOL0     C79133   1.697   5.929   9.785  0.0014 -0.0054  0.5437
  587MOL0     O79134   1.820   5.950   9.708  0.0977  0.2465  0.0599
  587MOL0     C79135   1.937   5.902   9.750  0.1423  0.4456  0.2596
  587MOL0     C79136   2.041   5.957   9.671  0.5464 -0.2439  0.4374
  587MOL0     C79137   2.171   5.946   9.720  0.4352 -0.0198 -0.4251
  587MOL0     C79138   2.200   5.880   9.846 -0.1729  0.9694  0.3722
  587MOL0     C79139   2.343   5.872   9.902  0.4595  0.8612  0.2192
  587MOL0     O79140   2.345   5.838  10.038  0.5386 -0.0343 -0.3790
  587MOL0     C79141   2.461   5.823  10.112 -0.2041 -0.1027  1.5402
  587MOL0     C79142   2.430   5.817  10.247 -0.6975 -0.1067  0.2080
  587MOL0     C79143   2.535   5.791  10.342  0.0149 -0.2182  1.6376
  587MOL0     C79144   2.675   5.791  10.302 -0.5757 -0.2735  0.3209
  587MOL0     O79145   2.776   5.780  10.385 -0.0885  0.0601 -0.1576
  587MOL0     C79146   2.769   5.787  10.525 -0.0743  1.1139  0.1444
  587MOL0     C79147   2.769   5.651  10.597 -0.2789  0.2510  0.1094
  587MOL0     C79148   2.814   5.671  10.743  0.1984 -0.6407  0.1531
  587MOL0     C79149   2.689   5.713  10.829 -0.6324 -1.1228  0.0899
  587MOL0     C79150   2.736   5.732  10.971 -0.3534 -1.0707 -1.0995
  587MOL0     C79151   2.624   5.719  11.063  0.1024  0.7931 -0.3709
  587MOL0     C79152   2.522   5.825  11.055 -0.0468 -0.7815 -0.4588
  587MOL0     C79153   2.571   5.956  11.111 -0.6273 -0.2085 -0.6265
  587MOL0    Cl79154   2.446   6.065  11.144 -0.4603 -0.6780 -0.1165
  587MOL0     C79155   2.702   5.801  10.167 -0.0249 -0.8554  0.3108
  587MOL0     C79156   2.600   5.812  10.070  0.0106 -0.6537  0.5297
  587MOL0     O79157   2.442   5.895   9.836  0.3235 -0.1789 -0.1485
  587MOL0     C79158   2.089   5.829   9.920 -0.6597  0.4055 -0.0655
  587MOL0     C79159   1.963   5.842   9.877  0.8768  0.3448  0.7268
  587MOL0     N79160   1.965   5.510   9.605  0.8640  0.0014 -0.2561
  587MOL0     N79161   2.012   5.392   9.620  0.5646  0.2623  0.3585
  587MOL0     C79162   2.148   4.965   9.003 -0.6098  0.1672 -0.6771
  587MOL0     C79163   2.100   4.846   8.935 -0.3408 -0.8433  0.0778
  587MOL0     C79164   1.775   4.554   8.786  0.0849 -0.8596 -0.2939
  587MOL0     C79165   1.639   4.512   8.796 -0.1264 -0.1134  0.5941
  587MOL0     C79166   1.590   4.400   8.732  0.5165 -1.0048 -0.1789
  587MOL0     C79167   1.682   4.327   8.654  0.0414  0.4567 -0.7552
  587MOL0     O79168   1.636   4.207   8.611  0.1211  0.2902 -0.0908
  587MOL0     C79169   1.719   4.128   8.522 -0.1690 -0.2949 -0.4319
  587MOL0     C79170   1.649   3.985   8.524  0.0226  0.0288 -0.2650
  587MOL0     C79171   1.739   3.890   8.453 -1.0698  0.5056  0.0387
  587MOL0     C79172   1.675   3.750   8.443 -1.0939  0.9263 -0.0205
  587MOL0     C79173   1.547   3.752   8.365  0.1891  0.3388  0.0371
  587MOL0     C79174   1.439   3.756   8.307 -0.6878  1.0960 -0.1055
  587MOL0     C79175   1.817   4.363   8.639  0.5883 -0.4481 -0.7830
  587MOL0     C79176   1.863   4.480   8.706  0.0413  0.2569  0.0736
  587MOL0     C79177   2.008   4.509   8.701 -0.6765 -0.4248  0.4899
  587MOL0     H79178   1.824   4.986   8.799  0.8687 -0.7186  0.8541
  587MOL0     H79179   1.913   5.193   8.899  0.5356  0.9635  2.8604
  587MOL0     H79180   2.283   5.140   9.147 -1.7286 -1.2797 -0.1983
  587MOL0     H79181   2.283   5.271   9.015 -2.0487  2.5411  0.3443
  587MOL0     H79182   2.221   5.434   9.184  1.9693 -0.1554 -4.8521
  587MOL0     H79183   2.352   5.333   9.230  0.2890 -1.1566 -1.6549
  587MOL0     H79184   2.074   5.297   9.338  0.6275 -1.4010 -1.8300
  587MOL0     H79185   2.207   5.360   9.435  2.2758 -1.9376  0.2274
  587MOL0     H79186   2.201   5.073   9.331 -2.9221 -0.9726  3.0677
  587MOL0     H79187   2.327   5.160   9.427  0.3825  0.9114  3.2718
  587MOL0     H79188   2.213   5.024   9.562 -0.0460  0.4721 -0.4930
  587MOL0     H79189   2.172   5.183   9.611  2.5497 -0.5337  0.3856
  587MOL0     H79190   1.943   5.147   9.457 -4.1228  0.9737  3.8938
  587MOL0     H79191   2.007   4.974   9.482  4.0223  0.0540 -1.2309
  587MOL0     H79192   1.956   4.996   9.732 -0.6994 -0.9347 -0.7012
  587MOL0     H79193   1.825   5.010   9.627 -1.4073  0.1500  2.1597
  587MOL0     H79194   1.812   5.186   9.775 -0.8113 -1.7149 -1.7457
  587MOL0     H79195   1.978   5.180   9.810  1.5672  0.1455  0.4148
  587MOL0     H79196   1.692   5.362   9.697  0.8217 -1.6043  3.1591
  587MOL0     H79197   1.784   5.714   9.549 -2.6304  2.6824  1.4426
  587MOL0     H79198   1.660   5.603   9.530  2.4605 -0.5851 -2.6207
  587MOL0     H79199   1.607   5.607   9.770  0.2341  0.0589  1.0739
  587MOL0     H79200   1.766   5.708   9.793 -1.8891  2.6213  1.0103
  587MOL0     H79201   1.512   5.820   9.783  0.9665  1.9833  2.7624
  587MOL0     H79202   1.581   5.843   9.618  1.8768 -0.6515 -0.2880
  587MOL0     H79203   1.719   5.917   9.892  1.5191 -2.6626  0.0187
  587MOL0     H79204   1.643   6.023   9.773  1.0731  0.9372  2.5431
  587MOL0     H79205   2.031   6.013   9.579  0.2408  2.8295  2.1898
  587MOL0     H79206   2.251   5.995   9.666  0.8984 -1.8947 -1.5601
  587MOL0     H79207   2.328   5.810  10.285 -0.0577 -3.3399  1.6394
  587MOL0     H79208   2.505   5.777  10.445 -2.6945  2.4855  1.3446
  587MOL0     H79209   2.852   5.850  10.556  0.9722 -0.9066  1.7133
  587MOL0     H79210   2.684   5.839  10.571 -0.3549  0.7333  0.0653
  587MOL0     H79211   2.675   5.598  10.577  0.6420 -1.2555 -0.3862
  587MOL0     H79212   2.850   5.596  10.548 -0.7071  1.3333 -1.9090
  587MOL0     H79213   2.848   5.574  10.780 -0.5717  0.2416  3.5156
  587MOL0     H79214   2.896   5.742  10.755  0.2602 -0.8835  1.3044
  587MOL0     H79215   2.624   5.624  10.825  1.4510 -2.7409  0.4291
  587MOL0     H79216   2.637   5.801  10.791 -0.9047 -0.9737  0.7826
  587MOL0     H79217   2.780   5.831  10.988 -0.8077 -0.8338 -1.2835
  587MOL0     H79218   2.817   5.663  10.997  0.5329  1.5608  4.8295
  587MOL0     H79219   2.572   5.627  11.034 -1.7035  1.4603  0.5756
  587MOL0     H79220   2.660   5.706  11.166  0.5661 -2.1622 -0.8120
  587MOL0     H79221   2.436   5.797  11.116  0.1292 -1.2267 -0.4154
  587MOL0     H79222   2.500   5.842  10.949 -0.5842  2.1354  0.0346
  587MOL0     H79223   2.629   5.940  11.202  1.1555 -0.5794 -1.7835
  587MOL0     H79224   2.639   6.002  11.038 -1.5712  0.0471 -1.3726
  587MOL0     H79225   2.807   5.788  10.143  0.0847 -2.2675  1.4081
  587MOL0     H79226   2.630   5.813   9.966  1.2587 -2.3069  0.8147
  587MOL0     H79227   2.105   5.775  10.013  3.2374  3.9293  1.6491
  587MOL0     H79228   1.885   5.816   9.948  1.3366  1.6683  1.7510
  587MOL0     H79229   2.222   4.957   9.082  0.4630  1.3223 -1.5340
  587MOL0     H79230   2.167   4.761   8.942  2.3550  0.4812 -4.9241
  587MOL0     H79231   1.577   4.574   8.860 -1.2080  1.7216 -2.0739
  587MOL0     H79232   1.483   4.381   8.734  0.0967  1.1581  2.0567
  587MOL0     H79233   1.820   4.111   8.558 -0.3261  0.3573  0.3553
  587MOL0     H79234   1.717   4.167   8.420  0.7602  0.1026 -0.3018
  587MOL0     H79235   1.550   4.002   8.482  1.3611  1.3892 -3.1347
  587MOL0     H79236   1.634   3.957   8.629 -1.6202  0.3906 -0.3762
  587MOL0     H79237   1.833   3.882   8.507  0.2575  2.2362 -1.8618
  587MOL0     H79238   1.766   3.925   8.353 -1.1669 -2.8769 -1.3174
  587MOL0     H79239   1.747   3.682   8.396  1.0624  2.5131  0.8560
  587MOL0     H79240   1.651   3.721   8.545 -0.6014 -1.5757 -0.5492
  587MOL0     H79241   1.337   3.751   8.274 -0.9825 -1.0807  0.9580
  587MOL0     H79242   1.886   4.311   8.573  1.0277 -0.7246 -0.1232
  587MOL0     H79243   2.061   4.510   8.796  3.4695  2.9600 -1.4911
  587MOL0     H79244   2.061   4.431   8.647 -0.2307 -1.1122  1.8934
  587MOL0     H79245   2.028   4.596   8.637 -0.5453 -2.2468 -2.0967
  588MOL0     O79246   0.462   5.428   1.198  0.2504 -0.2956 -0.9292
  588MOL0     C79247   0.522   5.319   1.203 -1.3914  0.2420  0.7582
  588MOL0     O79248   0.630   5.294   1.282 -0.2201  0.3193  0.1976
  588MOL0     C79249   0.718   5.184   1.257  0.5252 -0.6139  0.6428
  588MOL0     C79250   0.837   5.208   1.179  0.6623  0.7234 -0.6530
  588MOL0     C79251   0.918   5.098   1.158 -0.1859  0.0058  0.1343
  588MOL0     C79252   0.893   4.973   1.202 -0.5897  1.0855 -0.4834
  588MOL0     O79253   0.973   4.866   1.176 -0.9170  0.1552  0.9978
  588MOL0     C79254   1.020   4.846   1.034  0.4674 -0.6134 -0.1760
  588MOL0     C79255   0.933   4.735   0.962  0.7873 -0.0798 -0.0987
  588MOL0     C79256   0.792   4.785   0.940 -0.0876  0.3334 -0.0538
  588MOL0     C79257   0.786   4.872   0.813 -0.2052 -0.0359 -0.0633
  588MOL0     C79258   0.788   4.780   0.684 -0.0464  0.2990 -0.6198
  588MOL0     C79259   0.734   4.856   0.558 -0.1963  1.1523  0.0431
  588MOL0     C79260   0.832   4.958   0.498  0.0345 -0.2539  0.4235
  588MOL0     C79261   0.795   5.028   0.365 -0.1827 -0.6004  0.8020
  588MOL0     N79262   0.692   5.127   0.377 -0.3594 -0.3704  0.2421
  588MOL0     C79263   0.568   5.111   0.325 -0.9396 -0.0405  0.0180
  588MOL0     C79264   0.515   5.230   0.358 -0.0971 -0.1004 -0.0760
  588MOL0     C79265   0.377   5.257   0.333 -0.0434 -0.1022  0.5018
  588MOL0     C79266   0.346   5.411   0.346  0.2176 -0.7910 -0.1672
  588MOL0     C79267   0.259   5.453   0.471 -0.1189 -0.2410 -0.6543
  588MOL0     C79268   0.336   5.426   0.602 -0.0141 -0.1401 -0.6834
  588MOL0     O79269   0.269   5.489   0.708  0.8330 -0.0844  0.3997
  588MOL0     C79270   0.175   5.425   0.785  1.0801  0.2910  0.0601
  588MOL0     C79271   0.051   5.400   0.736  0.5092 -0.2066 -0.4852
  588MOL0     C79272  -0.035   5.317   0.810  0.5624 -0.2123 -0.0372
  588MOL0     C79273   0.002   5.266   0.936 -0.4882  0.1170  0.3385
  588MOL0     C79274  -0.077   5.159   0.989  0.3950  1.2079 -0.1478
  588MOL0     O79275  -0.017   5.088   1.092  0.3591 -0.6026  0.6375
  588MOL0     C79276  -0.072   4.965   1.128 -0.1777  0.2424  0.4816
  588MOL0     C79277  -0.117   4.865   1.036  0.4970  0.1092 -0.4076
  588MOL0     C79278  -0.159   4.743   1.086  0.4439  0.4877  0.1943
  588MOL0     C79279  -0.166   4.726   1.225 -0.8646 -0.3852 -0.2631
  588MOL0     O79280  -0.230   4.627   1.308  0.0245 -0.3775 -0.5360
  588MOL0     C79281  -0.334   4.555   1.250  0.3201  0.6043 -0.7877
  588MOL0     C79282  -0.408   4.455   1.346  0.0624  0.2223  0.6801
  588MOL0     C79283  -0.328   4.332   1.397  0.8760 -0.0709 -0.2582
  588MOL0     C79284  -0.316   4.226   1.288  0.2408  0.0938 -0.8455
  588MOL0     C79285  -0.265   4.094   1.337 -0.2162 -0.0096 -0.2358
  588MOL0     C79286  -0.253   4.007   1.212 -0.5498 -0.2438 -0.1457
  588MOL0     C79287  -0.218   3.865   1.261 -0.0796  0.3039  0.4084
  588MOL0     C79288  -0.182   3.756   1.150 -0.1211 -0.4080  0.2818
  588MOL0    Cl79289  -0.045   3.792   1.057 -0.6559 -0.4619  0.2659
  588MOL0     C79290  -0.115   4.825   1.311  0.4885 -0.2307 -0.2746
  588MOL0     C79291  -0.060   4.943   1.261  0.7485  0.8206 -0.4232
  588MOL0     O79292  -0.191   5.136   0.946  0.2271 -0.2810  0.0746
  588MOL0     C79293   0.124   5.309   0.991  0.0179  0.1849 -0.0912
  588MOL0     C79294   0.207   5.387   0.918 -0.3645 -0.6801  0.0626
  588MOL0     N79295   0.601   5.304   0.437 -1.3566 -0.1327  0.6633
  588MOL0     N79296   0.715   5.242   0.445  0.0002  0.2506  0.2504
  588MOL0     C79297   0.772   4.950   1.278  0.0564 -0.1120 -1.0879
  588MOL0     C79298   0.689   5.051   1.311  0.0560 -0.2895 -1.1210
  588MOL0     C79299   0.456   5.216   1.125  0.4221  0.2377  0.3264
  588MOL0     C79300   0.360   5.131   1.187  0.4574 -0.3692  0.3856
  588MOL0     C79301   0.283   5.033   1.121 -0.4428  0.5444  0.3276
  588MOL0     C79302   0.304   5.022   0.986 -0.0337  0.4867  0.3166
  588MOL0     O79303   0.225   4.921   0.925 -0.1780 -0.5399  0.1184
  588MOL0     C79304   0.250   4.872   0.793  0.2555  0.3935  0.2935
  588MOL0     C79305   0.377   4.789   0.775 -1.4473  0.9024  0.4367
  588MOL0     C79306   0.364   4.644   0.834 -0.6994  0.3845  0.9380
  588MOL0     C79307   0.326   4.619   0.974 -0.0693 -0.6152 -0.4058
  588MOL0     C79308   0.412   4.680   1.062 -0.4640  0.8039 -0.4428
  588MOL0     C79309   0.500   4.732   1.128  0.4166  0.5119 -0.4807
  588MOL0     C79310   0.401   5.100   0.920 -0.7676 -0.0530 -0.1331
  588MOL0     C79311   0.483   5.189   0.988 -0.3499  0.9992  0.1181
  588MOL0     C79312   0.584   5.253   0.898 -0.2003 -1.0127 -1.2942
  588MOL0     H79313   0.851   5.309   1.140  1.7930 -0.2309 -2.9482
  588MOL0     H79314   1.010   5.112   1.103  0.7451 -1.4698  1.2296
  588MOL0     H79315   1.003   4.934   0.972 -1.3820 -0.5121  0.4148
  588MOL0     H79316   1.127   4.820   1.034  0.0296 -2.8912  2.2502
  588MOL0     H79317   0.933   4.647   1.027 -0.5543  1.5754  2.2898
  588MOL0     H79318   0.982   4.705   0.869  2.7491  2.4366  0.0010
  588MOL0     H79319   0.745   4.831   1.027 -3.2954 -0.7757 -1.0769
  588MOL0     H79320   0.738   4.691   0.925  3.4413 -2.2084  1.6186
  588MOL0     H79321   0.695   4.932   0.809  1.2521  2.2225 -0.7324
  588MOL0     H79322   0.871   4.938   0.797  0.1089 -0.2051  0.8273
  588MOL0     H79323   0.896   4.760   0.676 -0.0109 -0.4248  1.2247
  588MOL0     H79324   0.732   4.687   0.689  0.3857 -0.0220 -1.5533
  588MOL0     H79325   0.721   4.781   0.479  0.4698  0.0011  0.9854
  588MOL0     H79326   0.640   4.907   0.580 -1.8331  0.6079 -4.5266
  588MOL0     H79327   0.926   4.903   0.496  0.2795  0.1205  1.1143
  588MOL0     H79328   0.840   5.038   0.573 -0.6221 -0.2768  0.5229
  588MOL0     H79329   0.875   5.093   0.328 -1.3486  0.8768  0.8158
  588MOL0     H79330   0.770   4.963   0.280 -1.2623  2.4202 -1.3742
  588MOL0     H79331   0.519   5.026   0.279  0.7413 -0.7949 -0.4879
  588MOL0     H79332   0.357   5.229   0.229 -0.6808  3.9315 -0.6325
  588MOL0     H79333   0.304   5.212   0.401  0.2923  2.2690  2.5950
  588MOL0     H79334   0.432   5.477   0.331  0.3699 -0.1301  2.8482
  588MOL0     H79335   0.284   5.432   0.259  0.5795 -2.1640 -0.7939
  588MOL0     H79336   0.160   5.406   0.467 -0.8385  0.9081  1.7806
  588MOL0     H79337   0.240   5.560   0.462  0.6327 -0.1408 -1.0552
  588MOL0     H79338   0.432   5.476   0.586  0.2472 -0.8118 -1.2823
  588MOL0     H79339   0.361   5.320   0.611 -1.0897 -0.5614 -2.1731
  588MOL0     H79340   0.032   5.444   0.639 -3.5261 -0.9743 -0.2279
  588MOL0     H79341  -0.134   5.302   0.769  1.2275 -0.9978 -1.4358
  588MOL0     H79342  -0.117   4.872   0.927  1.7780 -2.2435 -0.6152
  588MOL0     H79343  -0.190   4.661   1.022  0.6635  0.9420 -0.4924
  588MOL0     H79344  -0.413   4.618   1.210 -0.6335 -0.1943 -0.2061
  588MOL0     H79345  -0.280   4.503   1.170  1.4213  0.7406 -0.1586
  588MOL0     H79346  -0.434   4.513   1.435  0.0131  2.3312 -0.6480
  588MOL0     H79347  -0.504   4.420   1.307 -0.9674 -2.3430  4.8867
  588MOL0     H79348  -0.234   4.360   1.446 -0.9697  3.0917  1.9240
  588MOL0     H79349  -0.382   4.286   1.480 -0.1507  0.0061 -0.8658
  588MOL0     H79350  -0.260   4.269   1.205  0.6174 -0.0407 -0.6650
  588MOL0     H79351  -0.422   4.210   1.265  0.2085  0.9312 -1.3105
  588MOL0     H79352  -0.337   4.045   1.402 -1.0237  2.9077  1.2174
  588MOL0     H79353  -0.175   4.116   1.394 -1.8481  1.2092  2.0005
  588MOL0     H79354  -0.349   4.008   1.159 -1.4204 -0.7661  1.3378
  588MOL0     H79355  -0.175   4.055   1.154 -1.4754  3.1483  1.1875
  588MOL0     H79356  -0.302   3.822   1.317  1.4402 -2.4392  0.7751
  588MOL0     H79357  -0.133   3.877   1.329  0.1405  0.6820  0.0656
  588MOL0     H79358  -0.177   3.655   1.191  3.1240  0.1581  1.5977
  588MOL0     H79359  -0.275   3.743   1.094  0.0577  2.1582 -0.7444
  588MOL0     H79360  -0.126   4.828   1.419 -1.6583  1.2798 -0.4765
  588MOL0     H79361  -0.012   5.020   1.320  2.1623 -0.6176  0.3666
  588MOL0     H79362   0.156   5.266   1.086  0.5182  0.1080 -0.2955
  588MOL0     H79363   0.303   5.420   0.956 -0.4983 -0.0607 -0.1394
  588MOL0     H79364   0.759   4.848   1.312  0.2685 -0.0325 -0.7557
  588MOL0     H79365   0.607   5.044   1.382 -0.2157  3.4599 -0.8526
  588MOL0     H79366   0.340   5.160   1.290 -1.6655  1.6780 -0.5295
  588MOL0     H79367   0.214   4.958   1.159  0.5576 -1.5059 -1.6242
  588MOL0     H79368   0.241   4.956   0.725 -1.0271  0.8478  0.9779
  588MOL0     H79369   0.163   4.811   0.765  1.3407 -0.3613 -1.6132
  588MOL0     H79370   0.456   4.839   0.832 -2.4190  2.5610  0.4022
  588MOL0     H79371   0.404   4.791   0.669 -1.5976  3.2658  0.3831
  588MOL0     H79372   0.468   4.611   0.821 -0.8137  0.7609 -1.4824
  588MOL0     H79373   0.297   4.583   0.773  2.5801 -2.6226 -0.0369
  588MOL0     H79374   0.227   4.660   0.993 -0.0178  0.0828 -1.5528
  588MOL0     H79375   0.331   4.515   1.007  1.6969  0.4387  3.1374
  588MOL0     H79376   0.569   4.794   1.182 -0.8593  1.5353  0.0077
  588MOL0     H79377   0.411   5.083   0.813  1.5368 -3.6613  0.4916
  588MOL0     H79378   0.672   5.268   0.962 -1.2875 -2.4350  0.6396
  588MOL0     H79379   0.601   5.184   0.814  0.8959  0.4955 -2.3654
  588MOL0     H79380   0.559   5.354   0.867  2.3391  1.1481  2.8253
  589MOL0     O79381   3.190   5.376  11.254  0.3814  0.4102  0.7612
  589MOL0     C79382   3.100   5.458  11.240  0.4323 -0.3565  0.0432
  589MOL0     O79383   3.116   5.572  11.163  0.0731  0.6218  0.4803
  589MOL0     C79384   3.232   5.594  11.081 -0.7033  0.6027  0.7637
  589MOL0     C79385   3.282   5.497  10.996  0.8236  0.0709 -0.0604
  589MOL0     C79386   3.383   5.526  10.912  0.4189  0.8836  0.3974
  589MOL0     C79387   3.443   5.649  10.918 -0.6826  1.0797 -0.5387
  589MOL0     O79388   3.558   5.672  10.839  0.5953 -0.0165  0.4931
  589MOL0     C79389   3.556   5.776  10.729 -0.5065  0.5335 -0.0638
  589MOL0     C79390   3.680   5.754  10.644 -0.9107  0.0586  0.4780
  589MOL0     C79391   3.804   5.853  10.677  0.2236 -0.6803 -0.4706
  589MOL0     C79392   3.864   5.835  10.816 -0.1754  1.4888  0.3845
  589MOL0     C79393   3.959   5.951  10.843  0.9856 -0.3534  0.3041
  589MOL0     C79394   4.072   5.913  10.940 -0.3192  0.7776 -0.2727
  589MOL0     C79395   4.162   6.024  10.982 -0.2208 -0.2386  1.2084
  589MOL0     C79396   4.302   5.976  11.043 -0.7373  0.3108  0.1095
  589MOL0     N79397   4.384   6.073  11.127  0.2994  0.3547  0.4348
  589MOL0     C79398   4.395   6.062  11.259  0.2125 -0.9794 -0.3195
  589MOL0     C79399   4.449   6.188  11.294  0.2389  0.2845  0.8987
  589MOL0     C79400   4.475   6.255  11.424 -0.0351 -0.7085 -0.4629
  589MOL0     C79401   4.355   6.344  11.467 -0.9156 -0.9470  0.1079
  589MOL0     C79402   4.383   6.414  11.598  0.5738  0.4985 -0.1344
  589MOL0     C79403   4.375   6.327  11.730 -0.1039  0.0961 -0.5285
  589MOL0     O79404   4.354   6.408  11.845  0.0188 -0.2129 -0.7909
  589MOL0     C79405   4.457   6.485  11.898  0.3485  0.3890  0.0876
  589MOL0     C79406   4.415   6.564  12.006 -0.2931  0.0549 -0.0737
  589MOL0     C79407   4.504   6.660  12.069  0.4911 -0.4555  1.2873
  589MOL0     C79408   4.635   6.682  12.025  0.3527  0.7337  0.1067
  589MOL0     C79409   4.721   6.784  12.083 -0.7602  0.1277  0.1143
  589MOL0     O79410   4.648   6.874  12.160 -0.1514 -0.1248 -0.0810
  589MOL0     C79411   4.684   7.009  12.164 -0.4264  0.3135  1.0812
  589MOL0     C79412   4.768   7.072  12.068  0.2916  0.8410 -0.1534
  589MOL0     C79413   4.807   7.210  12.080  0.4176  0.8947 -0.4047
  589MOL0     C79414   4.759   7.279  12.187 -0.3023 -0.1087 -0.2014
  589MOL0     O79415   4.804   7.409  12.211 -0.2580  0.1867  0.7322
  589MOL0     C79416   4.702   7.512  12.205 -0.0768  0.3280 -0.2744
  589MOL0     C79417   4.758   7.658  12.196 -0.1396  1.2899 -0.2551
  589MOL0     C79418   4.836   7.700  12.324 -1.2781  0.5267  0.3310
  589MOL0     C79419   4.885   7.839  12.303 -0.4363 -1.5450  0.2799
  589MOL0     C79420   4.933   7.912  12.437 -0.3016  0.2027 -0.3758
  589MOL0     C79421   5.069   7.859  12.482 -0.0947  0.2594  0.2755
  589MOL0     C79422   5.178   7.965  12.452  0.1217  1.0856 -0.1174
  589MOL0     C79423   5.312   7.917  12.414 -0.1700  0.2331 -0.5423
  589MOL0    Cl79424   5.410   8.061  12.372 -0.0505 -0.7755  0.3011
  589MOL0     C79425   4.669   7.225  12.277  0.0561  0.2671  0.7899
  589MOL0     C79426   4.629   7.092  12.254  0.2743 -0.2254 -0.3514
  589MOL0     O79427   4.846   6.786  12.060  0.7324 -0.8743  0.2546
  589MOL0     C79428   4.672   6.595  11.924 -0.0734 -0.3037  0.7548
  589MOL0     C79429   4.588   6.496  11.854 -0.8791 -0.9369  0.3984
  589MOL0     N79430   4.474   6.258  11.175  0.0504  0.0616 -0.0883
  589MOL0     N79431   4.434   6.188  11.080  0.8835  0.3124 -0.0078
  589MOL0     C79432   3.401   5.750  11.003  0.2311 -0.4604  0.7398
  589MOL0     C79433   3.285   5.720  11.082 -0.2674  0.8203 -0.5169
  589MOL0     C79434   2.968   5.442  11.310  0.0450 -0.7648  0.0635
  589MOL0     C79435   2.949   5.319  11.364 -0.3018 -0.5906 -0.2448
  589MOL0     C79436   2.839   5.277  11.432 -0.0819 -0.1225 -1.2187
  589MOL0     C79437   2.739   5.372  11.456  0.5662  0.4880  0.0413
  589MOL0     O79438   2.625   5.352  11.529 -0.2539  0.3452  0.3863
  589MOL0     C79439   2.597   5.222  11.564  0.9702  0.3339  0.1808
  589MOL0     C79440   2.538   5.155  11.440  0.2656  0.3371 -0.7013
  589MOL0     C79441   2.436   5.240  11.367  0.3402 -0.3377 -0.3873
  589MOL0     C79442   2.343   5.169  11.268  0.1379  1.2196  0.4344
  589MOL0     C79443   2.256   5.078  11.339  0.2737  0.0042 -0.5132
  589MOL0     C79444   2.190   4.978  11.394 -0.8675 -0.6559 -0.2010
  589MOL0     C79445   2.766   5.511  11.423  0.8390  0.9890  0.2551
  589MOL0     C79446   2.875   5.549  11.342 -0.6099  0.1831 -0.5616
  589MOL0     C79447   2.895   5.698  11.321  0.0146  0.0024 -0.6132
  589MOL0     H79448   3.220   5.408  10.991 -0.1059  0.7519 -1.1481
  589MOL0     H79449   3.411   5.453  10.836  2.6834  1.8101  0.2681
  589MOL0     H79450   3.465   5.759  10.672  0.5675 -2.2982 -1.1005
  589MOL0     H79451   3.557   5.875  10.775 -2.5123  0.4014  0.3572
  589MOL0     H79452   3.656   5.768  10.538  1.9115  1.5315 -0.0729
  589MOL0     H79453   3.708   5.648  10.652 -0.6428 -0.4253 -3.9630
  589MOL0     H79454   3.763   5.954  10.670 -1.3141 -1.3441 -5.6910
  589MOL0     H79455   3.883   5.844  10.601 -1.2981 -1.6230 -2.0145
  589MOL0     H79456   3.782   5.849  10.887 -0.3215  0.0820  0.5179
  589MOL0     H79457   3.915   5.739  10.823 -1.1216  0.8113 -1.2528
  589MOL0     H79458   4.002   5.984  10.748 -2.5723  1.9818 -0.7029
  589MOL0     H79459   3.904   6.040  10.877  0.1833  0.6358 -3.1461
  589MOL0     H79460   4.036   5.860  11.029 -0.7054  3.9282  1.5867
  589MOL0     H79461   4.136   5.846  10.882 -0.4990  2.6050 -2.7206
  589MOL0     H79462   4.117   6.091  11.055 -1.2538 -0.9675  1.2643
  589MOL0     H79463   4.196   6.072  10.890  0.2209 -2.0639  0.3660
  589MOL0     H79464   4.291   5.874  11.082 -0.8536 -0.4662 -1.8619
  589MOL0     H79465   4.360   5.945  10.956  0.3796 -1.4829  1.4077
  589MOL0     H79466   4.339   5.992  11.320 -3.6887  0.2461 -2.1335
  589MOL0     H79467   4.506   6.184  11.502  5.3611  1.0554 -0.6140
  589MOL0     H79468   4.566   6.316  11.421  0.5588 -1.4742  0.8476
  589MOL0     H79469   4.341   6.420  11.389  0.6256  0.3224  1.0132
  589MOL0     H79470   4.263   6.284  11.463 -2.7786  1.7883 -1.2341
  589MOL0     H79471   4.304   6.489  11.612  0.4396  0.5625 -1.1421
  589MOL0     H79472   4.470   6.477  11.577  0.0580  0.7870 -1.4890
  589MOL0     H79473   4.468   6.270  11.741  1.7128  3.2432  2.6705
  589MOL0     H79474   4.296   6.256  11.706  0.4673 -0.7348 -0.0023
  589MOL0     H79475   4.311   6.559  12.035 -0.3097 -1.2710 -0.3109
  589MOL0     H79476   4.461   6.724  12.145 -2.7567 -1.4812  0.4782
  589MOL0     H79477   4.797   7.021  11.976 -0.1944 -0.4214  0.3803
  589MOL0     H79478   4.857   7.270  12.004  1.0329 -0.5787 -1.2102
  589MOL0     H79479   4.646   7.491  12.113 -0.0032 -2.8455  0.2824
  589MOL0     H79480   4.633   7.504  12.289  1.1027  1.0477  0.8053
  589MOL0     H79481   4.802   7.670  12.097 -2.8405 -2.1283 -2.0996
  589MOL0     H79482   4.672   7.722  12.171  0.0204  0.3648 -3.6102
  589MOL0     H79483   4.772   7.705  12.412  0.3191  3.8512  1.5028
  589MOL0     H79484   4.916   7.627  12.334 -2.7904 -1.7743 -2.8605
  589MOL0     H79485   4.805   7.898  12.258 -0.3596  0.2545  2.3556
  589MOL0     H79486   4.963   7.842  12.226 -1.9350 -2.0650 -1.3232
  589MOL0     H79487   4.855   7.890  12.511 -1.0357 -0.4755 -1.3159
  589MOL0     H79488   4.937   8.021  12.427 -0.2439  0.6933  3.5400
  589MOL0     H79489   5.077   7.831  12.587 -0.0842  2.9168  1.0702
  589MOL0     H79490   5.105   7.768  12.433  3.0293  1.4706  0.0841
  589MOL0     H79491   5.198   8.028  12.539  5.7902 -1.6636  1.0546
  589MOL0     H79492   5.148   8.025  12.365  1.4140 -1.7067 -2.6725
  589MOL0     H79493   5.350   7.851  12.493 -1.4050  0.0159 -0.1078
  589MOL0     H79494   5.303   7.861  12.321  0.4316  1.4325 -1.3475
  589MOL0     H79495   4.621   7.277  12.358  0.3680 -1.0508  1.8598
  589MOL0     H79496   4.572   7.044  12.333 -0.2200  1.1789  0.1571
  589MOL0     H79497   4.777   6.593  11.895 -0.0035  0.0595  0.9731
  589MOL0     H79498   4.634   6.434  11.779  0.1867  0.3509 -0.0603
  589MOL0     H79499   3.457   5.842  11.014 -0.0932 -0.0564 -0.7122
  589MOL0     H79500   3.250   5.790  11.157  3.8570 -1.3473  3.9727
  589MOL0     H79501   3.028   5.245  11.357  0.8288  0.5775 -0.1606
  589MOL0     H79502   2.813   5.172  11.446 -2.0733  0.2327 -1.8907
  589MOL0     H79503   2.520   5.244  11.639 -0.8466  2.6107 -2.1796
  589MOL0     H79504   2.673   5.158  11.610 -0.3053 -1.5058 -0.1157
  589MOL0     H79505   2.487   5.062  11.464 -0.6807  0.9618 -0.2079
  589MOL0     H79506   2.615   5.117  11.372 -0.8837 -3.4902 -0.0690
  589MOL0     H79507   2.500   5.305  11.308 -0.2282 -0.7679 -1.4983
  589MOL0     H79508   2.373   5.288  11.443 -0.7591  0.6417 -1.8640
  589MOL0     H79509   2.288   5.241  11.208  0.4000 -0.2003 -1.6384
  589MOL0     H79510   2.405   5.120  11.192  1.2940 -0.7215  2.4707
  589MOL0     H79511   2.138   4.910  11.458 -1.0338 -0.0453  0.3249
  589MOL0     H79512   2.698   5.587  11.460  1.6032  0.9357  1.8783
  589MOL0     H79513   2.807   5.756  11.350  2.5384  1.9181  4.4852
  589MOL0     H79514   2.976   5.721  11.391  0.5103 -0.1572 -1.1288
  589MOL0     H79515   2.920   5.721  11.217 -2.9772  1.2498 -1.1774
  590MOL0     O79516   1.993   5.949  11.104 -0.1654  0.0564 -0.0813
  590MOL0     C79517   2.004   5.844  11.162  0.7522  0.0384  0.7516
  590MOL0     O79518   1.943   5.729  11.133  0.2018  0.3994  0.3520
  590MOL0     C79519   1.864   5.736  11.023  0.6015  0.5550 -0.4250
  590MOL0     C79520   1.758   5.821  11.004 -0.1494  0.8265 -0.1622
  590MOL0     C79521   1.700   5.814  10.880  0.5805 -0.3986  0.0957
  590MOL0     C79522   1.739   5.735  10.773  0.9740  0.6656 -0.1084
  590MOL0     O79523   1.668   5.722  10.654 -0.4665 -0.9649 -0.2484
  590MOL0     C79524   1.529   5.705  10.663  0.1930  0.7053 -0.4130
  590MOL0     C79525   1.473   5.650  10.532  0.0982  0.1462 -0.5678
  590MOL0     C79526   1.480   5.497  10.531  1.0463  0.3821 -0.3245
  590MOL0     C79527   1.488   5.450  10.393 -0.7802 -0.0193  0.3214
  590MOL0     C79528   1.448   5.303  10.389  0.2985  0.2659 -0.6288
  590MOL0     C79529   1.572   5.209  10.393 -0.1971 -0.0953 -0.5696
  590MOL0     C79530   1.662   5.220  10.514  1.3349 -0.1599  0.0087
  590MOL0     C79531   1.762   5.100  10.512  0.7195 -0.9727  0.0573
  590MOL0     N79532   1.872   5.135  10.617  0.6050  0.2215 -0.0969
  590MOL0     C79533   1.954   5.244  10.616  0.0334 -0.1086  0.0649
  590MOL0     C79534   2.004   5.247  10.733 -0.2253 -0.3565  0.2070
  590MOL0     C79535   2.078   5.356  10.799 -0.9321 -0.5228 -1.0064
  590MOL0     C79536   2.235   5.332  10.819 -0.8348 -0.3904 -0.5519
  590MOL0     C79537   2.277   5.213  10.909  0.3456 -1.0981 -0.1552
  590MOL0     C79538   2.428   5.203  10.893 -0.3739 -0.4995 -0.6274
  590MOL0     O79539   2.501   5.319  10.927 -1.0248  0.3159 -0.3924
  590MOL0     C79540   2.642   5.300  10.923  0.0189 -0.2118 -1.2684
  590MOL0     C79541   2.720   5.314  10.805  0.0777 -0.9354 -0.4532
  590MOL0     C79542   2.857   5.267  10.812 -0.0234  0.1986 -0.2208
  590MOL0     C79543   2.915   5.225  10.926 -1.0904  0.2994  0.8757
  590MOL0     C79544   3.055   5.176  10.932 -0.3132 -0.8057  0.2341
  590MOL0     O79545   3.104   5.087  11.029 -0.6942  0.5579 -0.0942
  590MOL0     C79546   3.230   5.030  11.016 -0.3484 -0.3388  0.1696
  590MOL0     C79547   3.336   5.104  11.055 -1.2403 -0.4052  0.8638
  590MOL0     C79548   3.464   5.048  11.042  0.0653  0.2762  0.1024
  590MOL0     C79549   3.489   4.933  10.976  0.6211  1.3042 -0.1027
  590MOL0     O79550   3.602   4.861  10.966  0.6505 -0.0054  0.6306
  590MOL0     C79551   3.726   4.928  10.998  0.1478 -0.2871  0.0720
  590MOL0     C79552   3.842   4.833  10.984  0.2102 -0.1579 -0.1505
  590MOL0     C79553   3.855   4.749  10.875  0.0845 -0.1268 -0.0264
  590MOL0     C79554   3.998   4.695  10.847 -0.5832  0.5776  0.7053
  590MOL0     C79555   4.095   4.807  10.788 -0.9118  0.3673  0.1122
  590MOL0     C79556   4.250   4.771  10.815  0.4658  0.0991 -0.0644
  590MOL0     C79557   4.340   4.893  10.783 -0.0001  0.8637 -0.4229
  590MOL0     C79558   4.490   4.859  10.821 -0.2323  1.2790  0.4634
  590MOL0    Cl79559   4.559   4.763  10.689  0.6168  0.0806 -0.1051
  590MOL0     C79560   3.384   4.853  10.940  1.0159  0.1282  0.4354
  590MOL0     C79561   3.253   4.903  10.951  0.5543  0.2812 -0.4621
  590MOL0     O79562   3.128   5.220  10.844 -0.8781  0.0192 -0.0635
  590MOL0     C79563   2.842   5.215  11.035 -0.2469  0.0318 -0.6383
  590MOL0     C79564   2.709   5.251  11.040  0.6720 -0.3612 -0.3585
  590MOL0     N79565   1.963   5.134  10.802  0.2565 -0.0294  0.0328
  590MOL0     N79566   1.880   5.069  10.735  0.0133 -0.3653 -0.2352
  590MOL0     C79567   1.849   5.653  10.795 -0.4411 -0.5209  0.3689
  590MOL0     C79568   1.909   5.661  10.917 -1.0921  0.2832  0.1109
  590MOL0     C79569   2.109   5.838  11.268  0.2587  0.2954  0.0801
  590MOL0     C79570   2.114   5.949  11.352 -1.3204  0.6247  0.1025
  590MOL0     C79571   2.227   5.951  11.435 -0.2584 -0.2847 -0.5047
  590MOL0     C79572   2.325   5.859  11.450  0.0800 -0.1184 -0.5780
  590MOL0     O79573   2.421   5.882  11.542 -0.4805  0.3539 -0.1956
  590MOL0     C79574   2.544   5.801  11.532  0.1664  0.0265 -0.2426
  590MOL0     C79575   2.656   5.880  11.607 -0.1362 -0.0116 -0.1574
  590MOL0     C79576   2.607   5.938  11.737  0.0432 -0.4814 -0.0830
  590MOL0     C79577   2.559   5.838  11.848 -0.7943  0.0657  1.0456
  590MOL0     C79578   2.553   5.915  11.971 -0.4448  0.7739  0.2635
  590MOL0     C79579   2.523   5.971  12.075 -0.2437 -0.2745 -1.0625
  590MOL0     C79580   2.302   5.743  11.375 -1.0971 -0.3409  0.7089
  590MOL0     C79581   2.201   5.728  11.278 -0.2498 -0.6064 -0.3674
  590MOL0     C79582   2.174   5.587  11.217 -0.7900  0.3904  0.0188
  590MOL0     H79583   1.722   5.893  11.077 -0.4781  1.1575 -0.6415
  590MOL0     H79584   1.615   5.881  10.887  1.6681  0.8329  2.4212
  590MOL0     H79585   1.501   5.644  10.749 -1.1775 -0.0030 -1.3442
  590MOL0     H79586   1.488   5.803  10.690 -0.0156  0.2743  0.8953
  590MOL0     H79587   1.522   5.704  10.451  2.6760  3.7047  2.9523
  590MOL0     H79588   1.369   5.683  10.533 -0.2649 -0.7865  2.2151
  590MOL0     H79589   1.392   5.465  10.588  1.9945 -0.3317  0.7787
  590MOL0     H79590   1.565   5.454  10.585 -0.8123 -0.6741  1.9372
  590MOL0     H79591   1.413   5.501  10.332  0.1199  0.9570  0.0016
  590MOL0     H79592   1.587   5.471  10.353  0.1323 -1.2483  1.8474
  590MOL0     H79593   1.390   5.274  10.477  0.6018  1.2604 -0.0857
  590MOL0     H79594   1.390   5.276  10.300 -0.1419  0.0539 -0.2808
  590MOL0     H79595   1.537   5.109  10.367 -2.5654  0.7679 -0.9330
  590MOL0     H79596   1.620   5.230  10.297 -1.6423 -0.6401 -1.4337
  590MOL0     H79597   1.608   5.210  10.609  1.1489 -1.3478 -0.2095
  590MOL0     H79598   1.723   5.310  10.505 -1.6605  2.3388  2.3658
  590MOL0     H79599   1.712   5.007  10.541  3.3085 -1.3637  4.1088
  590MOL0     H79600   1.804   5.099  10.411  0.3650  0.0018 -0.1100
  590MOL0     H79601   1.972   5.309  10.531  2.2151  0.4387  0.8762
  590MOL0     H79602   2.073   5.448  10.741 -3.5502  0.7852  1.1293
  590MOL0     H79603   2.037   5.363  10.900  1.0302 -3.6067  0.1812
  590MOL0     H79604   2.281   5.300  10.725  2.6703 -1.6991  1.4328
  590MOL0     H79605   2.271   5.428  10.856  0.1070 -1.1312  0.5208
  590MOL0     H79606   2.227   5.123  10.874  1.4811 -1.2084 -1.5636
  590MOL0     H79607   2.265   5.228  11.017  0.2603  2.6196 -0.5593
  590MOL0     H79608   2.450   5.182  10.788 -0.5782 -0.1680 -0.7358
  590MOL0     H79609   2.470   5.128  10.961  1.4907  2.6564  2.0256
  590MOL0     H79610   2.668   5.348  10.716 -0.6996  2.9132  1.2621
  590MOL0     H79611   2.919   5.259  10.723 -1.4825  1.9469 -1.4681
  590MOL0     H79612   3.325   5.205  11.093  1.7232  0.4669 -0.3142
  590MOL0     H79613   3.542   5.105  11.091  1.1754 -1.9953  1.1047
  590MOL0     H79614   3.736   5.012  10.928 -2.8243 -0.8605 -1.2144
  590MOL0     H79615   3.730   4.975  11.096 -1.5708  1.3481 -0.5811
  590MOL0     H79616   3.923   4.907  10.991 -0.1115  0.1114  0.9010
  590MOL0     H79617   3.830   4.775  11.075  1.6627 -0.0764  0.1209
  590MOL0     H79618   3.779   4.670  10.881 -2.3295  2.0918  0.5578
  590MOL0     H79619   3.819   4.809  10.791 -1.5361  0.7541  1.2355
  590MOL0     H79620   3.984   4.605  10.787  0.8069 -0.1846  1.4703
  590MOL0     H79621   4.050   4.655  10.934 -0.8020 -0.9847  0.1506
  590MOL0     H79622   4.074   4.900  10.841 -1.6979 -0.8139  2.0117
  590MOL0     H79623   4.082   4.821  10.681  0.9019  1.0287 -0.0483
  590MOL0     H79624   4.262   4.747  10.922 -1.9060  0.7291  0.3805
  590MOL0     H79625   4.282   4.683  10.759 -0.7046  0.2311 -0.9521
  590MOL0     H79626   4.315   4.971  10.855  0.9741  1.0848 -0.3160
  590MOL0     H79627   4.338   4.926  10.679  0.0624 -2.6748 -1.6881
  590MOL0     H79628   4.548   4.948  10.848  2.5315 -0.4923  0.7326
  590MOL0     H79629   4.509   4.800  10.911  0.0909  1.1576  0.3163
  590MOL0     H79630   3.400   4.751  10.906 -1.7360  0.3117 -1.8190
  590MOL0     H79631   3.165   4.840  10.940  1.3548 -1.4114  1.9367
  590MOL0     H79632   2.880   5.169  11.126  0.1834  0.3164 -0.6665
  590MOL0     H79633   2.644   5.242  11.126  1.1801 -1.0927 -0.0391
  590MOL0     H79634   1.875   5.583  10.715 -4.5552  0.0600 -1.7730
  590MOL0     H79635   1.998   5.600  10.930  0.2882  1.7981 -1.5587
  590MOL0     H79636   2.040   6.028  11.348 -0.8532  1.0325 -0.7169
  590MOL0     H79637   2.254   6.039  11.493 -0.1352  1.0249 -2.4549
  590MOL0     H79638   2.587   5.793  11.432 -0.4764 -1.8997 -0.4096
  590MOL0     H79639   2.533   5.702  11.578  1.3297 -0.9559 -2.0015
  590MOL0     H79640   2.689   5.962  11.543  0.5615  1.2587  1.7432
  590MOL0     H79641   2.744   5.817  11.624  1.4121  1.4681 -2.1921
  590MOL0     H79642   2.524   6.006  11.716 -0.2400 -0.7045  0.3205
  590MOL0     H79643   2.690   6.001  11.770  0.5306  0.5309 -2.8988
  590MOL0     H79644   2.459   5.805  11.817 -0.2004 -0.3769 -0.5035
  590MOL0     H79645   2.627   5.753  11.839  1.4292  1.9878 -2.7243
  590MOL0     H79646   2.502   6.045  12.149  1.3663  0.3092 -1.1471
  590MOL0     H79647   2.369   5.658  11.382 -3.6623 -2.5162  0.7215
  590MOL0     H79648   2.163   5.592  11.108 -4.4424 -3.3361 -0.0038
  590MOL0     H79649   2.249   5.515  11.249 -0.9414  0.6398  0.9824
  590MOL0     H79650   2.079   5.553  11.260 -1.6631  1.8741 -0.6557
  591MOL0     O79651   2.643  10.510   5.255  0.3784 -0.3051 -0.2401
  591MOL0     C79652   2.548  10.532   5.339 -0.3368  0.0415 -0.2461
  591MOL0     O79653   2.557  10.521   5.475 -0.1355  0.7013  0.4620
  591MOL0     C79654   2.678  10.508   5.534 -0.2302 -0.4062 -1.1582
  591MOL0     C79655   2.705  10.605   5.637 -0.5109 -0.2249  0.5359
  591MOL0     C79656   2.827  10.594   5.700 -0.2609  0.4029 -0.0249
  591MOL0     C79657   2.915  10.490   5.678 -0.2503 -0.5153  0.3468
  591MOL0     O79658   3.031  10.483   5.756  0.1843 -0.7452 -0.1382
  591MOL0     C79659   3.116  10.593   5.779  0.1294  0.0866  0.7619
  591MOL0     C79660   3.099  10.627   5.931  0.7224 -0.2289  1.2366
  591MOL0     C79661   3.139  10.773   5.949 -0.4039  0.3298  0.2744
  591MOL0     C79662   3.134  10.802   6.106  0.1966 -1.6113  0.9980
  591MOL0     C79663   3.189  10.945   6.157  0.0757 -0.2649  0.2039
  591MOL0     C79664   3.332  10.973   6.106 -0.3713  0.2340 -0.3777
  591MOL0     C79665   3.369  11.110   6.162  0.2714  0.5908  0.4283
  591MOL0     C79666   3.380  11.223   6.058  0.6737  1.1438  0.5371
  591MOL0     N79667   3.256  11.295   6.023 -0.1470 -0.5403 -0.0149
  591MOL0     C79668   3.159  11.224   5.959  0.4222  0.2875  0.8698
  591MOL0     C79669   3.046  11.297   5.987 -0.8952 -0.6982  1.2625
  591MOL0     C79670   2.903  11.281   5.947  0.8729  0.0459 -0.1154
  591MOL0     C79671   2.857  11.171   5.848  0.1553  1.5230  0.3084
  591MOL0     C79672   2.844  11.049   5.931 -0.2419  0.2210 -1.1744
  591MOL0     C79673   2.813  10.926   5.842 -0.1406 -0.6168 -0.6103
  591MOL0     O79674   2.713  10.842   5.898  0.1062  0.9726 -0.5699
  591MOL0     C79675   2.581  10.868   5.877 -0.7837 -0.0536  0.1369
  591MOL0     C79676   2.531  10.979   5.809  0.1322 -0.3590 -0.1293
  591MOL0     C79677   2.395  11.009   5.808  1.2247 -1.2168 -0.5649
  591MOL0     C79678   2.302  10.909   5.856 -0.1705  0.4023 -0.3934
  591MOL0     C79679   2.163  10.925   5.851 -0.0189 -0.0653 -0.3059
  591MOL0     O79680   2.082  10.852   5.932  0.2786 -0.3637 -0.8405
  591MOL0     C79681   1.946  10.887   5.970 -0.1135  0.0485 -0.1053
  591MOL0     C79682   1.863  10.782   5.995 -0.3458  0.2690 -0.1794
  591MOL0     C79683   1.727  10.798   6.032 -0.2885  0.4374 -0.6391
  591MOL0     C79684   1.666  10.923   6.016 -0.9517 -0.6637 -0.1864
  591MOL0     O79685   1.529  10.954   6.045  0.6076  0.3179  0.1560
  591MOL0     C79686   1.457  10.846   6.101  0.9848 -0.6430 -0.6385
  591MOL0     C79687   1.313  10.888   6.123 -0.7212  0.5321  0.4874
  591MOL0     C79688   1.240  10.918   5.992  0.7050  0.5126 -0.5689
  591MOL0     C79689   1.098  10.962   6.015 -0.0524  0.1119 -0.2010
  591MOL0     C79690   1.061  11.046   5.882  0.1243 -0.4699  0.3942
  591MOL0     C79691   0.916  11.087   5.910 -0.8373  0.5264 -0.1945
  591MOL0     C79692   0.917  11.209   6.012 -1.3171  0.5386  0.1258
  591MOL0     C79693   0.779  11.257   6.017  0.3517  0.0956 -0.1803
  591MOL0    Cl79694   0.730  11.379   6.136 -0.5195  0.2112  0.1024
  591MOL0     C79695   1.741  11.032   5.969 -0.3673  0.4609 -0.2441
  591MOL0     C79696   1.878  11.019   5.961 -0.2700  0.4975  0.7840
  591MOL0     O79697   2.122  11.019   5.786  0.2688 -0.2012 -0.6644
  591MOL0     C79698   2.356  10.795   5.904 -1.3915 -0.4076 -0.0449
  591MOL0     C79699   2.498  10.771   5.914 -0.6588  0.0397 -0.4721
  591MOL0     N79700   3.079  11.396   6.077 -0.0730  0.4266  0.2770
  591MOL0     N79701   3.201  11.392   6.106 -0.2793  0.2543 -1.2094
  591MOL0     C79702   2.894  10.398   5.580 -0.2208  0.7729 -0.5099
  591MOL0     C79703   2.777  10.416   5.504 -0.1227  0.0817  0.7083
  591MOL0     C79704   2.412  10.569   5.282  0.3436 -0.2580 -0.5974
  591MOL0     C79705   2.403  10.578   5.141 -0.2771 -0.0404  0.9130
  591MOL0     C79706   2.292  10.624   5.073  0.1334 -0.2739 -0.2934
  591MOL0     C79707   2.176  10.634   5.146 -0.1277  0.4195  0.1822
  591MOL0     O79708   2.054  10.641   5.094 -1.0491  0.2272  0.1743
  591MOL0     C79709   2.041  10.559   4.975 -0.3814 -0.1063 -0.0262
  591MOL0     C79710   1.902  10.503   4.972  0.3865 -0.7203  0.1233
  591MOL0     C79711   1.907  10.345   4.959  0.5187  0.6634 -0.3078
  591MOL0     C79712   1.760  10.293   4.958 -0.5645  0.9158  0.4604
  591MOL0     C79713   1.768  10.149   4.935 -0.9156 -0.6568 -0.4145
  591MOL0     C79714   1.797  10.032   4.929  0.5630  0.5449  0.0098
  591MOL0     C79715   2.182  10.620   5.287 -0.2962 -0.1595  0.5998
  591MOL0     C79716   2.300  10.601   5.356  0.2663 -0.1525 -0.0990
  591MOL0     C79717   2.284  10.598   5.505  0.0215  0.1042 -0.5473
  591MOL0     H79718   2.641  10.692   5.645  0.4711  0.6543 -0.7785
  591MOL0     H79719   2.859  10.671   5.770 -3.8873  1.3214  0.8494
  591MOL0     H79720   3.215  10.557   5.750  0.0980 -1.7240  2.6451
  591MOL0     H79721   3.076  10.669   5.711  2.1114  0.2742 -0.2635
  591MOL0     H79722   3.158  10.554   5.987 -0.1728  0.0091  2.5202
  591MOL0     H79723   2.993  10.614   5.954  0.3174  3.1066  1.6622
  591MOL0     H79724   3.078  10.845   5.893  2.0955  2.8808  0.5669
  591MOL0     H79725   3.241  10.772   5.911 -0.5436  2.9647 -0.3632
  591MOL0     H79726   3.031  10.795   6.141 -0.1172 -0.7234  0.2604
  591MOL0     H79727   3.185  10.718   6.155  1.0902 -2.9529 -2.0218
  591MOL0     H79728   3.138  11.037   6.128  2.0869  1.9199  2.9751
  591MOL0     H79729   3.186  10.933   6.266  0.6999 -0.3599  0.2120
  591MOL0     H79730   3.412  10.903   6.135 -0.6085 -0.1044 -0.5355
  591MOL0     H79731   3.338  10.972   5.997 -1.2508  2.6390 -0.4968
  591MOL0     H79732   3.474  11.102   6.192  0.4100  4.4986  1.5430
  591MOL0     H79733   3.302  11.140   6.243  0.7935  3.7952 -0.2086
  591MOL0     H79734   3.445  11.305   6.091 -0.7690  3.1352 -1.2569
  591MOL0     H79735   3.432  11.187   5.969  2.7640 -1.0245  2.4951
  591MOL0     H79736   3.174  11.127   5.912 -0.5322  0.9091 -0.7762
  591MOL0     H79737   2.852  11.270   6.043  0.7973 -0.6804 -0.2320
  591MOL0     H79738   2.866  11.372   5.899 -1.5621 -0.5342  0.5305
  591MOL0     H79739   2.755  11.181   5.809  0.1931 -1.1273 -0.6498
  591MOL0     H79740   2.930  11.169   5.767 -0.6914  1.1091 -0.4620
  591MOL0     H79741   2.782  11.065   6.020  1.0632  0.1057 -0.2192
  591MOL0     H79742   2.947  11.037   5.965 -0.0170  1.6673 -1.3201
  591MOL0     H79743   2.903  10.869   5.814  0.0565 -1.2495  1.1677
  591MOL0     H79744   2.775  10.953   5.743  0.8116 -0.2057 -0.8705
  591MOL0     H79745   2.601  11.038   5.751  2.0301 -3.1986 -0.9542
  591MOL0     H79746   2.352  11.094   5.755 -1.9370 -1.5468  1.2367
  591MOL0     H79747   1.917  10.688   5.996  1.1615  1.0748  2.1259
  591MOL0     H79748   1.662  10.713   6.049 -1.3015  1.0984 -1.1065
  591MOL0     H79749   1.456  10.752   6.045 -1.1640 -1.4898  0.7120
  591MOL0     H79750   1.491  10.821   6.202  0.9730 -2.0160 -0.9582
  591MOL0     H79751   1.251  10.815   6.177 -2.5547  0.2200 -1.8515
  591MOL0     H79752   1.321  10.974   6.190 -0.7832 -1.2479  2.9103
  591MOL0     H79753   1.283  11.000   5.933 -0.1604  1.9343  0.6920
  591MOL0     H79754   1.249  10.829   5.929  2.2388  0.2221 -0.0049
  591MOL0     H79755   1.106  11.028   6.102  2.4117  0.3092 -0.5107
  591MOL0     H79756   1.043  10.869   6.030  0.8366 -0.8902 -2.6059
  591MOL0     H79757   1.081  10.988   5.791  1.5637  0.6704 -0.0534
  591MOL0     H79758   1.130  11.129   5.865 -1.5327  1.2284  1.6069
  591MOL0     H79759   0.856  11.119   5.825 -0.4512  4.1338  0.7162
  591MOL0     H79760   0.859  11.008   5.959  2.5071 -0.7993  1.8974
  591MOL0     H79761   0.982  11.294   5.987 -0.0373 -0.1535  0.9475
  591MOL0     H79762   0.945  11.172   6.111 -1.3053  3.7857  1.4563
  591MOL0     H79763   0.761  11.303   5.920 -0.7430  0.4846  0.1940
  591MOL0     H79764   0.717  11.168   6.031 -2.4132  2.1787  2.2189
  591MOL0     H79765   1.703  11.132   5.954 -0.4485  0.2809 -1.3382
  591MOL0     H79766   1.946  11.097   5.930  1.5828 -0.6135  1.8472
  591MOL0     H79767   2.289  10.712   5.924  1.7605 -2.4259  3.4420
  591MOL0     H79768   2.526  10.677   5.960 -4.3414  0.2798  2.7331
  591MOL0     H79769   2.968  10.321   5.560  0.0441  1.2532 -1.4472
  591MOL0     H79770   2.745  10.351   5.423 -2.0665  1.7680  0.0526
  591MOL0     H79771   2.491  10.576   5.078 -0.1303  1.1399  1.0634
  591MOL0     H79772   2.292  10.658   4.970  0.3742  2.4142  0.5251
  591MOL0     H79773   2.112  10.477   4.965 -0.3823  0.1553 -3.0535
  591MOL0     H79774   2.057  10.614   4.883  2.6106 -1.0350 -0.1741
  591MOL0     H79775   1.835  10.536   4.892  1.0238 -1.0089 -0.5502
  591MOL0     H79776   1.857  10.536   5.065  1.7130  0.5974  0.3409
  591MOL0     H79777   1.949  10.306   5.052 -1.5844  2.0958  1.3333
  591MOL0     H79778   1.960  10.307   4.871  0.4559 -2.0133  0.7030
  591MOL0     H79779   1.695  10.318   5.043 -2.4790  0.2272 -0.7332
  591MOL0     H79780   1.721  10.341   4.868  0.3937  2.2255  0.7215
  591MOL0     H79781   1.835   9.936   4.901  5.8050  3.3817 -4.7090
  591MOL0     H79782   2.083  10.613   5.331 -1.1955 -2.3783 -1.5436
  591MOL0     H79783   2.259  10.500   5.547 -1.0516 -0.5501 -2.5965
  591MOL0     H79784   2.366  10.652   5.553 -1.0631  2.3751 -1.1122
  591MOL0     H79785   2.195  10.655   5.533 -0.8782 -0.5045 -2.0285
  592MOL0     O79786   3.894   2.131   5.285 -0.0695 -0.5324 -0.0599
  592MOL0     C79787   3.845   2.236   5.272  0.5551 -0.1863 -0.2807
  592MOL0     O79788   3.908   2.361   5.293  0.4760 -0.6082 -0.0911
  592MOL0     C79789   4.038   2.353   5.335  0.3259  0.4663  1.0654
  592MOL0     C79790   4.135   2.322   5.240  1.2717  0.3624  0.0616
  592MOL0     C79791   4.275   2.328   5.263 -0.1952 -0.1383  0.4059
  592MOL0     C79792   4.310   2.363   5.393 -0.4440  1.1145 -0.6315
  592MOL0     O79793   4.449   2.364   5.420  0.0484 -1.0709 -0.2012
  592MOL0     C79794   4.493   2.495   5.465 -0.0164 -0.0214  0.4373
  592MOL0     C79795   4.646   2.496   5.452 -0.2092  0.1081  0.1542
  592MOL0     C79796   4.712   2.432   5.569  0.2412 -0.3697 -0.4996
  592MOL0     C79797   4.866   2.439   5.547  0.3225 -0.6201  0.2939
  592MOL0     C79798   4.946   2.368   5.649 -0.4129 -0.3512 -0.1108
  592MOL0     C79799   4.929   2.218   5.648  0.4101 -1.7637  0.6800
  592MOL0     C79800   5.022   2.147   5.750  0.5908  0.0070  0.1958
  592MOL0     C79801   5.055   2.000   5.730 -0.4977 -0.6789  0.5431
  592MOL0     N79802   5.145   1.946   5.835 -0.2021  1.1904  0.2686
  592MOL0     C79803   5.097   1.863   5.936 -0.6185 -0.5751  0.4862
  592MOL0     C79804   5.199   1.839   6.018  0.2477 -0.0493 -0.6922
  592MOL0     C79805   5.173   1.739   6.132  0.6352  0.1784  0.3571
  592MOL0     C79806   5.208   1.593   6.108 -0.3525 -1.1340  0.4803
  592MOL0     C79807   5.353   1.586   6.050  0.6797 -0.9126  0.0307
  592MOL0     C79808   5.463   1.598   6.157  0.3564  1.1651 -0.9967
  592MOL0     O79809   5.437   1.494   6.254 -0.7165  0.0568 -0.0294
  592MOL0     C79810   5.526   1.399   6.251 -0.0772 -0.6146 -0.8123
  592MOL0     C79811   5.504   1.295   6.164  0.6087 -0.0981  0.1192
  592MOL0     C79812   5.608   1.199   6.140 -0.6309 -0.2179 -0.2300
  592MOL0     C79813   5.735   1.205   6.198  1.3096 -0.5369 -0.3020
  592MOL0     C79814   5.839   1.105   6.192 -0.8523  0.1395  0.5377
  592MOL0     O79815   5.832   1.014   6.091 -0.1619  0.9818  0.0100
  592MOL0     C79816   5.946   0.935   6.055  0.5186 -1.2494  0.5147
  592MOL0     C79817   6.064   0.989   6.006  0.1218 -0.2368 -0.9602
  592MOL0     C79818   6.164   0.891   5.957 -0.0610 -1.0313  0.2941
  592MOL0     C79819   6.156   0.754   5.966  0.2729 -1.0418  0.2707
  592MOL0     O79820   6.249   0.675   5.902 -0.2961 -0.5770 -0.0811
  592MOL0     C79821   6.243   0.531   5.882  0.0224  0.0737  0.2452
  592MOL0     C79822   6.138   0.483   5.787 -0.6710  0.7250 -0.0344
  592MOL0     C79823   6.197   0.493   5.641  0.6138 -0.5893  0.4072
  592MOL0     C79824   6.080   0.493   5.536 -0.4292 -0.3952 -0.2890
  592MOL0     C79825   6.131   0.495   5.389 -1.1145  0.7813  0.4147
  592MOL0     C79826   6.164   0.633   5.322  0.2104  0.7882 -0.2340
  592MOL0     C79827   6.215   0.598   5.177 -1.1407 -0.2240  0.0414
  592MOL0     C79828   6.241   0.747   5.121 -0.6344 -0.1830 -0.0140
  592MOL0    Cl79829   6.378   0.735   5.010  0.5755  0.3527 -0.0371
  592MOL0     C79830   6.037   0.708   6.019  0.2664 -0.2486 -0.7564
  592MOL0     C79831   5.927   0.793   6.050  0.1973 -0.4953 -0.0888
  592MOL0     O79832   5.931   1.115   6.279  0.8485  0.2819 -0.1607
  592MOL0     C79833   5.752   1.315   6.287 -0.1939 -0.2516 -0.0713
  592MOL0     C79834   5.650   1.401   6.316  0.1297 -0.0511 -0.1827
  592MOL0     N79835   5.307   1.906   5.975 -0.5688 -0.6995 -0.0422
  592MOL0     N79836   5.273   1.973   5.865  0.5296  0.5645  0.7328
  592MOL0     C79837   4.211   2.402   5.491 -0.0509  0.3258  0.3492
  592MOL0     C79838   4.070   2.391   5.462 -0.6278  0.6225 -0.8248
  592MOL0     C79839   3.686   2.243   5.259  0.4491  0.3145 -0.0229
  592MOL0     C79840   3.634   2.342   5.171  0.3502 -0.0009  0.1982
  592MOL0     C79841   3.504   2.365   5.149 -0.3707 -0.8618  0.0272
  592MOL0     C79842   3.406   2.289   5.215  0.1088  0.5313  0.4238
  592MOL0     O79843   3.275   2.293   5.204 -0.3257 -0.1365  0.1838
  592MOL0     C79844   3.217   2.379   5.104 -0.7364  0.4784 -0.5731
  592MOL0     C79845   3.075   2.331   5.090 -0.0700  0.4695 -0.3800
  592MOL0     C79846   3.004   2.390   4.963 -0.0437  0.4624 -0.4773
  592MOL0     C79847   2.904   2.291   4.901  0.0827 -0.4634 -0.4014
  592MOL0     C79848   2.788   2.247   4.987 -0.9439  0.1172 -0.5940
  592MOL0     C79849   2.698   2.211   5.053  0.1390  0.4141  0.2927
  592MOL0     C79850   3.454   2.207   5.314 -0.0334  0.1051 -0.1073
  592MOL0     C79851   3.593   2.179   5.337  0.0758 -0.4490  0.8784
  592MOL0     C79852   3.623   2.085   5.441  0.2660 -0.8167 -0.0381
  592MOL0     H79853   4.094   2.285   5.147  0.7945 -1.6446  1.0261
  592MOL0     H79854   4.351   2.301   5.191 -0.1080 -1.0046  0.8172
  592MOL0     H79855   4.446   2.568   5.399  0.0851  1.4683  1.9303
  592MOL0     H79856   4.454   2.512   5.566 -3.8357  2.6926 -1.2587
  592MOL0     H79857   4.682   2.599   5.439  0.2067 -0.2404 -1.8451
  592MOL0     H79858   4.679   2.457   5.355 -1.3960 -1.4224  0.3276
  592MOL0     H79859   4.668   2.334   5.588 -1.6330  0.7519  1.3344
  592MOL0     H79860   4.698   2.491   5.660 -0.0365 -0.9856 -0.1358
  592MOL0     H79861   4.887   2.399   5.448 -3.0998 -2.7616  0.2767
  592MOL0     H79862   4.891   2.546   5.545 -0.0347 -0.5036  1.2505
  592MOL0     H79863   5.049   2.379   5.614 -0.6085 -2.9464 -1.8205
  592MOL0     H79864   4.933   2.410   5.749 -0.2603 -2.0019  0.6479
  592MOL0     H79865   4.823   2.197   5.663  0.3503 -1.6537  0.4122
  592MOL0     H79866   4.965   2.190   5.548 -0.1120  1.6084 -0.6012
  592MOL0     H79867   4.989   2.160   5.854  0.0898  0.6268 -0.0375
  592MOL0     H79868   5.116   2.202   5.745  1.3474 -1.1274  1.4521
  592MOL0     H79869   4.962   1.952   5.696 -0.2203 -0.4263 -0.6034
  592MOL0     H79870   5.119   1.990   5.642  3.3540 -0.6752  3.0881
  592MOL0     H79871   4.993   1.849   5.962 -1.1886  0.2932 -1.1745
  592MOL0     H79872   5.229   1.785   6.214  0.7082 -0.4089  0.6363
  592MOL0     H79873   5.069   1.748   6.164  1.0965  1.1291  1.6909
  592MOL0     H79874   5.193   1.530   6.196 -3.6453 -3.9459 -1.7812
  592MOL0     H79875   5.142   1.566   6.025  2.2379  1.5583 -2.7325
  592MOL0     H79876   5.373   1.650   5.963 -1.9910 -1.4258 -1.0681
  592MOL0     H79877   5.369   1.481   6.021  1.3523 -0.5742 -0.8933
  592MOL0     H79878   5.471   1.689   6.218  0.1311 -0.5974  1.8226
  592MOL0     H79879   5.553   1.578   6.098 -1.0601  2.3682 -3.7473
  592MOL0     H79880   5.406   1.285   6.119  0.3946 -0.7933  0.7268
  592MOL0     H79881   5.595   1.113   6.075  3.0224  0.5944 -2.3134
  592MOL0     H79882   6.064   1.095   5.981  1.0956 -0.3420 -1.4478
  592MOL0     H79883   6.258   0.924   5.915 -2.2280  0.0082 -4.4776
  592MOL0     H79884   6.340   0.503   5.839 -0.4590 -0.5939 -0.4477
  592MOL0     H79885   6.237   0.488   5.982  4.4237  0.1899  0.7457
  592MOL0     H79886   6.117   0.376   5.799  2.0105  0.1021 -0.2757
  592MOL0     H79887   6.044   0.537   5.799  0.5434  2.5899  1.8197
  592MOL0     H79888   6.241   0.591   5.624 -0.8949 -0.1115 -1.0403
  592MOL0     H79889   6.254   0.401   5.629 -2.5242 -2.8671  1.4212
  592MOL0     H79890   6.027   0.585   5.562 -1.5719 -1.5970  1.9203
  592MOL0     H79891   6.006   0.413   5.546  0.0740 -0.9661 -0.9657
  592MOL0     H79892   6.063   0.437   5.325  0.3367 -0.3630 -0.1368
  592MOL0     H79893   6.228   0.446   5.391 -0.6114  1.6214 -1.1595
  592MOL0     H79894   6.077   0.699   5.316 -1.5462 -1.2896  0.9474
  592MOL0     H79895   6.246   0.683   5.375 -1.1548  0.2428  2.5660
  592MOL0     H79896   6.152   0.534   5.115  1.4379  0.2616 -3.3178
  592MOL0     H79897   6.314   0.553   5.181 -0.1163  1.5837 -2.4126
  592MOL0     H79898   6.157   0.789   5.065 -2.2448 -3.1143  0.0086
  592MOL0     H79899   6.260   0.816   5.204  0.9175  0.9722 -1.2618
  592MOL0     H79900   6.009   0.604   6.031  1.1697 -0.3482  0.9098
  592MOL0     H79901   5.828   0.755   6.075  0.1134  0.3429  0.9381
  592MOL0     H79902   5.849   1.339   6.329 -0.5699  0.2198  0.5510
  592MOL0     H79903   5.681   1.491   6.369  1.4000  0.4344 -1.6673
  592MOL0     H79904   4.238   2.422   5.595  3.0303  0.2454 -0.3405
  592MOL0     H79905   3.989   2.414   5.531 -0.2697  0.0298 -0.1978
  592MOL0     H79906   3.685   2.413   5.106 -2.0158  1.0306 -0.6265
  592MOL0     H79907   3.483   2.427   5.063  0.4478  1.8545  1.6458
  592MOL0     H79908   3.271   2.390   5.010  3.2592  2.9963  1.6830
  592MOL0     H79909   3.213   2.467   5.169  2.1026  0.1091  0.2667
  592MOL0     H79910   3.021   2.356   5.182 -2.3763  0.3451 -1.6227
  592MOL0     H79911   3.072   2.222   5.083 -2.3153  0.1520  2.9417
  592MOL0     H79912   3.079   2.432   4.895  0.5507  0.5658  0.2207
  592MOL0     H79913   2.961   2.488   4.986  2.6134  2.5538 -3.4758
  592MOL0     H79914   2.873   2.340   4.808  3.2603 -1.8709 -2.3414
  592MOL0     H79915   2.957   2.199   4.877 -2.9601 -2.3767 -0.2905
  592MOL0     H79916   2.611   2.184   5.110 -1.8450  2.8666 -1.3259
  592MOL0     H79917   3.372   2.159   5.366 -0.7444 -2.2990 -3.1734
  592MOL0     H79918   3.705   2.128   5.499  0.4379 -0.8101 -0.2808
  592MOL0     H79919   3.542   2.048   5.504 -1.2633 -2.7068 -2.8975
  592MOL0     H79920   3.660   2.000   5.382 -1.2276 -1.5893  0.0768
  593MOL0     O79921   4.203   0.906   7.131  0.1815 -0.7650 -0.5889
  593MOL0     C79922   4.202   0.821   7.045 -0.3342 -0.4254 -0.2228
  593MOL0     O79923   4.093   0.749   7.016  0.1960 -0.5011 -0.8468
  593MOL0     C79924   3.979   0.779   7.080 -0.4598  0.0679 -0.4610
  593MOL0     C79925   3.916   0.909   7.061 -0.1657  0.2254  0.0357
  593MOL0     C79926   3.801   0.939   7.131 -0.4533 -0.4525  0.1396
  593MOL0     C79927   3.739   0.843   7.218  0.4701  0.5047 -0.3140
  593MOL0     O79928   3.637   0.881   7.297  0.1524  0.3241  0.5876
  593MOL0     C79929   3.513   0.924   7.238  0.6739 -0.1320 -0.1729
  593MOL0     C79930   3.394   0.881   7.326 -0.9819  0.5810 -0.2116
  593MOL0     C79931   3.265   0.935   7.271  0.8937 -0.2330 -0.0221
  593MOL0     C79932   3.151   0.955   7.379  0.3864  0.0179 -0.0281
  593MOL0     C79933   3.018   1.002   7.303  0.5917  0.5102  0.6479
  593MOL0     C79934   2.955   0.885   7.220 -0.7921 -0.8693  0.0055
  593MOL0     C79935   2.815   0.924   7.162 -0.2873 -0.3207 -0.1239
  593MOL0     C79936   2.815   1.037   7.054 -0.3635  0.5337 -0.2483
  593MOL0     N79937   2.838   0.971   6.926 -0.4020  0.5625  0.2494
  593MOL0     C79938   2.963   0.931   6.876 -0.8039  0.6526 -0.4692
  593MOL0     C79939   2.937   0.881   6.754  0.2519 -1.0733  0.5476
  593MOL0     C79940   3.035   0.826   6.656 -0.5294 -1.3153 -0.5555
  593MOL0     C79941   3.107   0.706   6.710  0.8807 -0.5929  1.3453
  593MOL0     C79942   3.237   0.691   6.628 -0.4934 -0.9860 -0.2920
  593MOL0     C79943   3.354   0.756   6.708  0.1424 -0.2376  0.0574
  593MOL0     O79944   3.331   0.895   6.727 -1.2927 -1.2507  0.3224
  593MOL0     C79945   3.436   0.981   6.740 -1.0418  0.0577  0.8789
  593MOL0     C79946   3.555   0.966   6.817  0.4331  0.8636 -0.1964
  593MOL0     C79947   3.655   1.056   6.805  0.4362  0.0101 -0.3008
  593MOL0     C79948   3.645   1.178   6.725  0.7329 -0.0040 -0.0594
  593MOL0     C79949   3.751   1.267   6.713 -0.4923 -0.8123  0.8094
  593MOL0     O79950   3.765   1.351   6.601 -0.1531 -0.1114 -1.0113
  593MOL0     C79951   3.873   1.437   6.600 -0.0112 -0.0437 -0.2636
  593MOL0     C79952   3.846   1.572   6.556 -0.5394 -0.1930  0.9482
  593MOL0     C79953   3.950   1.665   6.541 -1.1297  0.1900 -0.1017
  593MOL0     C79954   4.087   1.615   6.558  0.2600 -0.7378  0.6500
  593MOL0     O79955   4.194   1.693   6.556  0.1457  0.1279 -0.2507
  593MOL0     C79956   4.190   1.813   6.641 -1.3832  0.9528 -0.0605
  593MOL0     C79957   4.286   1.909   6.570  0.1658  0.1107  0.3944
  593MOL0     C79958   4.339   2.012   6.676  0.9151  0.0092 -0.2349
  593MOL0     C79959   4.395   2.142   6.623 -0.3806  0.3620 -0.3686
  593MOL0     C79960   4.441   2.230   6.736 -1.1400 -1.3049  0.7361
  593MOL0     C79961   4.532   2.349   6.685 -0.8036 -0.1503 -0.5126
  593MOL0     C79962   4.598   2.428   6.808 -0.1357 -0.1463  0.1791
  593MOL0     C79963   4.715   2.357   6.871 -0.0728  0.0048  0.1646
  593MOL0    Cl79964   4.849   2.371   6.745 -0.1419 -0.1104  0.5297
  593MOL0     C79965   4.108   1.481   6.592 -0.3307 -0.3156  0.1725
  593MOL0     C79966   4.005   1.393   6.610 -0.4162  0.3004 -0.4546
  593MOL0     O79967   3.826   1.264   6.805 -1.1345 -0.1197 -0.1858
  593MOL0     C79968   3.518   1.208   6.671  0.1605 -0.6300  0.0627
  593MOL0     C79969   3.424   1.110   6.681 -0.7226 -0.4270 -0.6632
  593MOL0     N79970   2.803   0.901   6.726 -1.6395  0.7689 -0.0398
  593MOL0     N79971   2.735   0.943   6.830 -0.5927 -0.5518  0.9961
  593MOL0     C79972   3.782   0.713   7.203 -0.2195 -0.7299  0.2266
  593MOL0     C79973   3.895   0.677   7.130  0.3841  0.4499  0.5396
  593MOL0     C79974   4.328   0.792   6.973 -1.2204 -0.0107  0.4932
  593MOL0     C79975   4.318   0.763   6.834  0.8671  0.2684  0.7859
  593MOL0     C79976   4.432   0.742   6.753 -0.6307 -0.5742 -0.1656
  593MOL0     C79977   4.563   0.754   6.803  0.2867  0.2631  0.2980
  593MOL0     O79978   4.670   0.711   6.723 -0.3556  0.2975  0.8552
  593MOL0     C79979   4.786   0.659   6.785 -0.2373  0.4034  0.5351
  593MOL0     C79980   4.897   0.652   6.669  0.7344  0.3319  0.0587
  593MOL0     C79981   4.982   0.775   6.682 -0.0724 -0.3266  0.1061
  593MOL0     C79982   4.903   0.906   6.642 -0.3049  0.1374 -0.9765
  593MOL0     C79983   4.854   0.970   6.761  0.2512 -0.1300 -0.2738
  593MOL0     C79984   4.816   1.001   6.873 -0.1574 -1.0234 -0.2378
  593MOL0     C79985   4.569   0.778   6.943 -0.1726 -0.4619  0.9961
  593MOL0     C79986   4.456   0.802   7.030  0.2831  0.4814  0.0212
  593MOL0     C79987   4.473   0.841   7.178 -0.0522 -0.1222 -0.5124
  593MOL0     H79988   3.957   0.992   7.003  0.7426  1.4903  2.3594
  593MOL0     H79989   3.761   1.040   7.134 -0.1570 -0.3178 -0.3041
  593MOL0     H79990   3.520   1.033   7.229 -2.3293  0.4681  2.7042
  593MOL0     H79991   3.501   0.879   7.139 -3.4911 -0.3653  0.2410
  593MOL0     H79992   3.420   0.905   7.429  1.9303 -3.1141  0.1339
  593MOL0     H79993   3.388   0.772   7.317  5.5477 -0.1420 -0.8840
  593MOL0     H79994   3.228   0.861   7.199 -2.6853  0.5659  0.8039
  593MOL0     H79995   3.282   1.024   7.209 -0.3734  1.8219  2.4094
  593MOL0     H79996   3.133   0.856   7.420  2.4191 -0.9651 -1.3184
  593MOL0     H79997   3.186   1.038   7.442  0.3421  1.2641 -1.5628
  593MOL0     H79998   2.948   1.041   7.377 -2.8930 -2.0177 -1.0227
  593MOL0     H79999   3.034   1.088   7.238  1.2308  0.6031  0.9180
  593MOL0     H80000   3.014   0.842   7.138 -1.2888  2.8383 -2.5132
  593MOL0     H80001   2.925   0.805   7.288 -2.5994 -1.9477 -1.9573
  593MOL0     H80002   2.751   0.942   7.249 -1.4330 -2.6942 -0.3922
  593MOL0     H80003   2.776   0.829   7.125  0.6730 -0.5294 -0.6461
  593MOL0     H80004   2.727   1.101   7.052 -0.3006  0.7006 -3.3741
  593MOL0     H80005   2.905   1.097   7.071  0.4790  0.5824 -3.9512
  593MOL0     H80006   3.048   0.939   6.943 -1.1149  0.4071 -0.0362
  593MOL0     H80007   2.978   0.807   6.565  0.3828 -2.9942 -0.8077
  593MOL0     H80008   3.106   0.907   6.636  0.5638 -2.3065 -0.7693
  593MOL0     H80009   3.130   0.702   6.817 -1.1639 -0.4484  1.8401
  593MOL0     H80010   3.045   0.619   6.685  1.2685 -0.5727  0.2806
  593MOL0     H80011   3.223   0.746   6.535 -1.1062 -0.9993 -0.2138
  593MOL0     H80012   3.264   0.586   6.611 -2.9080 -1.7605  0.3139
  593MOL0     H80013   3.451   0.737   6.661  1.2603  0.3336  2.0452
  593MOL0     H80014   3.359   0.721   6.811  0.9277  1.2973  0.5569
  593MOL0     H80015   3.570   0.882   6.883  0.6178  1.3320  0.3639
  593MOL0     H80016   3.741   1.036   6.869 -0.3677 -1.9707  0.2148
  593MOL0     H80017   3.739   1.584   6.546 -0.2587  2.3136  0.3214
  593MOL0     H80018   3.941   1.763   6.496  0.1619  0.1325 -0.5573
  593MOL0     H80019   4.086   1.847   6.650 -1.6353 -0.2051  1.8936
  593MOL0     H80020   4.229   1.789   6.740  2.4772 -3.4239 -2.2870
  593MOL0     H80021   4.374   1.857   6.532  1.1399 -1.1338  3.8839
  593MOL0     H80022   4.236   1.963   6.489 -1.6798  0.8154  1.9174
  593MOL0     H80023   4.247   2.030   6.732  1.7282 -3.2101  2.4409
  593MOL0     H80024   4.413   1.958   6.736  1.1186  0.2336 -0.2814
  593MOL0     H80025   4.308   2.199   6.587 -0.8183  0.0828  0.2323
  593MOL0     H80026   4.471   2.127   6.545  1.0968 -0.0051  1.0941
  593MOL0     H80027   4.507   2.166   6.796  0.9593  0.1785  0.1179
  593MOL0     H80028   4.351   2.263   6.790  0.4239  1.5586  1.8401
  593MOL0     H80029   4.617   2.299   6.637 -1.9552 -1.8863 -0.8466
  593MOL0     H80030   4.488   2.423   6.619  0.7504  0.9269 -0.3897
  593MOL0     H80031   4.512   2.452   6.872 -0.3930  1.8424 -0.8048
  593MOL0     H80032   4.639   2.520   6.766 -2.8835  0.5869 -1.1827
  593MOL0     H80033   4.732   2.406   6.968 -3.8139 -0.5381  1.2423
  593MOL0     H80034   4.699   2.251   6.894 -1.2870  0.1149 -0.0873
  593MOL0     H80035   4.201   1.426   6.605 -0.9463 -1.4982 -0.2351
  593MOL0     H80036   4.019   1.292   6.647 -0.1998  0.8819  1.1421
  593MOL0     H80037   3.516   1.298   6.610  0.8013 -0.4579  0.2857
  593MOL0     H80038   3.323   1.129   6.646 -1.8746  0.6305  2.8361
  593MOL0     H80039   3.718   0.635   7.244 -1.2441 -0.8361 -1.4643
  593MOL0     H80040   3.937   0.577   7.127 -0.4167  0.1147 -2.1726
  593MOL0     H80041   4.216   0.756   6.798  1.0292  0.0996  0.3539
  593MOL0     H80042   4.423   0.717   6.648  0.7997  0.6201 -0.6146
  593MOL0     H80043   4.782   0.555   6.818  0.4213  0.0482 -0.4575
  593MOL0     H80044   4.810   0.721   6.872 -2.9255  1.8891  0.3313
  593MOL0     H80045   4.845   0.647   6.573 -1.4184 -0.8011  1.2196
  593MOL0     H80046   4.961   0.564   6.681 -1.2752 -1.4555 -1.3544
  593MOL0     H80047   5.063   0.760   6.610 -0.1602  1.8357 -0.5206
  593MOL0     H80048   5.033   0.777   6.779 -1.0673  1.0058  0.6309
  593MOL0     H80049   4.968   0.969   6.582  0.1764 -2.1867 -3.0571
  593MOL0     H80050   4.818   0.888   6.576  0.2125  0.6117 -1.7774
  593MOL0     H80051   4.783   1.056   6.959 -2.1513 -2.1601 -0.2067
  593MOL0     H80052   4.662   0.783   6.998  0.2270  0.6915  0.2410
  593MOL0     H80053   4.421   0.934   7.203 -1.4493 -1.3271  1.2629
  593MOL0     H80054   4.434   0.760   7.239  1.7009  1.1893  2.5983
  593MOL0     H80055   4.576   0.845   7.214  0.5332 -0.4240 -2.0459
  594MOL0     O80056   4.303   6.948   7.218  0.0673 -0.2452  0.2967
  594MOL0     C80057   4.368   6.861   7.275 -0.5960  0.6374 -0.3343
  594MOL0     O80058   4.446   6.877   7.384 -0.8409 -1.0352 -0.3252
  594MOL0     C80059   4.462   6.991   7.450 -0.7953 -0.7493 -0.6076
  594MOL0     C80060   4.552   7.100   7.410 -0.8446  0.8818  0.2914
  594MOL0     C80061   4.579   7.209   7.491 -0.0530  0.2454  0.4103
  594MOL0     C80062   4.524   7.221   7.616  0.8609 -0.1408  0.4500
  594MOL0     O80063   4.561   7.344   7.676 -0.3037  0.1797  0.2485
  594MOL0     C80064   4.477   7.366   7.797 -0.6979 -0.7345 -0.1415
  594MOL0     C80065   4.498   7.506   7.867 -0.1319 -0.1732 -0.2323
  594MOL0     C80066   4.384   7.534   7.969  0.1150  1.1173  0.4790
  594MOL0     C80067   4.421   7.674   8.014 -0.4836 -0.0069 -0.4924
  594MOL0     C80068   4.314   7.728   8.098 -0.1247 -0.3927 -0.2795
  594MOL0     C80069   4.349   7.874   8.141  0.2645 -0.0584 -0.3902
  594MOL0     C80070   4.287   7.931   8.269 -0.1924  0.3243  0.7276
  594MOL0     C80071   4.289   8.083   8.261  0.1745  0.6082 -0.0393
  594MOL0     N80072   4.207   8.131   8.363  0.2993 -0.8801 -0.0540
  594MOL0     C80073   4.193   8.098   8.500 -0.9651  0.0971 -0.2270
  594MOL0     C80074   4.089   8.166   8.547  0.1643  0.5394  0.1452
  594MOL0     C80075   4.031   8.167   8.687 -0.3321 -0.3459  0.0347
  594MOL0     C80076   3.885   8.121   8.680  1.0820  0.4979 -0.0227
  594MOL0     C80077   3.812   8.120   8.823 -0.2203  0.4553 -0.2943
  594MOL0     C80078   3.803   8.257   8.900  0.2930 -1.0417 -0.2729
  594MOL0     O80079   3.737   8.252   9.032 -0.0050  0.1015 -0.2633
  594MOL0     C80080   3.827   8.250   9.138  0.1461 -0.7407 -0.1193
  594MOL0     C80081   3.970   8.225   9.126  0.4180  0.5899  0.3337
  594MOL0     C80082   4.064   8.248   9.222 -0.8990 -0.2949 -0.6722
  594MOL0     C80083   4.012   8.291   9.350 -0.7604 -0.5377  0.2820
  594MOL0     C80084   4.108   8.312   9.455  0.5363 -1.4601  0.2117
  594MOL0     O80085   4.065   8.390   9.562 -0.0149 -0.9812  0.0655
  594MOL0     C80086   4.150   8.418   9.665  0.6453  0.0893 -0.4496
  594MOL0     C80087   4.200   8.307   9.741  0.9758 -0.2923 -0.5338
  594MOL0     C80088   4.286   8.341   9.855  0.8519 -0.1858  0.5195
  594MOL0     C80089   4.322   8.477   9.873  0.1407  1.1338 -0.0423
  594MOL0     O80090   4.404   8.516   9.968  0.1221 -0.6710  0.0037
  594MOL0     C80091   4.455   8.421  10.065 -0.8432 -0.4877  0.7265
  594MOL0     C80092   4.557   8.482  10.160 -0.1353  0.8452  0.5426
  594MOL0     C80093   4.487   8.570  10.259 -0.4308  0.3798 -0.3918
  594MOL0     C80094   4.578   8.618  10.376 -0.4096 -0.5578  0.0535
  594MOL0     C80095   4.684   8.727  10.335  0.1054 -0.9385  0.2988
  594MOL0     C80096   4.614   8.868  10.355  0.8064 -0.7169 -0.8223
  594MOL0     C80097   4.709   8.973  10.298 -0.2932 -0.2284 -0.5949
  594MOL0     C80098   4.625   9.071  10.212  0.1082  0.0746  0.9659
  594MOL0    Cl80099   4.611   8.997  10.049 -0.2158 -0.0201 -0.1099
  594MOL0     C80100   4.263   8.572   9.797 -0.1047 -0.4116  0.4818
  594MOL0     C80101   4.180   8.543   9.696  0.3613 -0.0458  0.2366
  594MOL0     O80102   4.220   8.266   9.443  0.2539  0.2214 -0.4066
  594MOL0     C80103   3.879   8.320   9.367 -0.0623 -0.5494  1.3224
  594MOL0     C80104   3.786   8.298   9.264  0.1429 -0.8271  0.4056
  594MOL0     N80105   4.031   8.230   8.445 -0.4330 -0.3330  0.4428
  594MOL0     N80106   4.107   8.217   8.337  0.4484 -0.1385  0.2305
  594MOL0     C80107   4.437   7.116   7.660  0.1183  0.8480 -1.7254
  594MOL0     C80108   4.421   6.995   7.580 -0.6252 -0.3981 -0.8479
  594MOL0     C80109   4.365   6.725   7.224  0.2958  0.0463 -0.1258
  594MOL0     C80110   4.433   6.622   7.284 -0.6392  0.0673 -0.3823
  594MOL0     C80111   4.417   6.491   7.248 -0.6536 -0.0029  0.3460
  594MOL0     C80112   4.348   6.452   7.137 -0.9159 -0.6813  0.2880
  594MOL0     O80113   4.322   6.324   7.116  0.1461  0.0294  0.1693
  594MOL0     C80114   4.413   6.269   7.023 -0.0409 -0.1018  0.2941
  594MOL0     C80115   4.400   6.305   6.879 -0.5390  0.1249  0.0584
  594MOL0     C80116   4.264   6.279   6.823  0.0225  0.2537  0.8548
  594MOL0     C80117   4.263   6.295   6.672  0.5245 -0.4660 -0.6526
  594MOL0     C80118   4.261   6.449   6.646 -0.7205  0.3961 -0.1463
  594MOL0     C80119   4.264   6.563   6.615  0.0212  0.3047 -0.1642
  594MOL0     C80120   4.286   6.556   7.060  0.5988  0.4961 -0.1600
  594MOL0     C80121   4.297   6.691   7.102  0.0693 -0.2856 -0.5611
  594MOL0     C80122   4.211   6.781   7.018 -0.8564  0.3332  0.5181
  594MOL0     H80123   4.600   7.096   7.312 -1.3745  5.4568 -0.4099
  594MOL0     H80124   4.660   7.271   7.457  1.2472 -1.8700 -0.5749
  594MOL0     H80125   4.375   7.353   7.760 -0.1285 -1.9337 -1.3820
  594MOL0     H80126   4.502   7.289   7.871  0.3211 -1.4089 -1.1501
  594MOL0     H80127   4.506   7.591   7.798  0.7684  1.6111  1.9216
  594MOL0     H80128   4.589   7.496   7.926 -0.2444  0.9612  0.1556
  594MOL0     H80129   4.381   7.465   8.054 -1.6270 -1.1489 -1.2804
  594MOL0     H80130   4.283   7.533   7.927  0.7665  2.1146 -1.2169
  594MOL0     H80131   4.516   7.679   8.069 -0.0224 -3.4984 -0.6892
  594MOL0     H80132   4.425   7.752   7.938  0.6781 -1.4694 -2.0149
  594MOL0     H80133   4.218   7.728   8.044 -0.2156  0.1149 -0.1263
  594MOL0     H80134   4.299   7.661   8.182 -0.3321  0.7934  0.6508
  594MOL0     H80135   4.456   7.864   8.163  0.9722  0.3311 -3.2864
  594MOL0     H80136   4.337   7.949   8.063  1.8914  1.4034  0.6843
  594MOL0     H80137   4.344   7.904   8.358  0.2355  1.5688  0.8486
  594MOL0     H80138   4.181   7.902   8.270 -0.4788  1.1843 -1.0929
  594MOL0     H80139   4.388   8.126   8.281 -0.6353  3.4747 -1.6806
  594MOL0     H80140   4.248   8.123   8.168  0.8723 -0.6061 -0.8966
  594MOL0     H80141   4.248   8.024   8.557 -0.5987  1.0596  0.6883
  594MOL0     H80142   4.080   8.097   8.755 -1.2432 -2.1416 -1.0741
  594MOL0     H80143   4.049   8.265   8.731  1.0927 -1.7328  2.7929
  594MOL0     H80144   3.813   8.173   8.617 -1.8230 -0.6678  2.0929
  594MOL0     H80145   3.877   8.019   8.641 -2.5855  0.3055  0.8776
  594MOL0     H80146   3.860   8.040   8.881 -0.4242  0.2990 -0.3425
  594MOL0     H80147   3.709   8.088   8.809  0.1457 -1.9293  1.8741
  594MOL0     H80148   3.727   8.314   8.846 -0.3328 -1.2771  0.3420
  594MOL0     H80149   3.889   8.324   8.894 -0.8512  0.7165  1.6632
  594MOL0     H80150   4.003   8.180   9.032  0.9626 -0.1730  0.8745
  594MOL0     H80151   4.169   8.235   9.199 -1.5652  0.0764 -4.6397
  594MOL0     H80152   4.169   8.204   9.726  1.0257 -0.0295 -2.7651
  594MOL0     H80153   4.326   8.255   9.909 -1.9961 -1.6778  0.4389
  594MOL0     H80154   4.377   8.378  10.128 -1.5005 -0.5625 -0.1182
  594MOL0     H80155   4.501   8.334  10.017  0.9941  1.4789 -1.3608
  594MOL0     H80156   4.604   8.397  10.210  2.9351  0.2349 -3.0046
  594MOL0     H80157   4.633   8.541  10.107  2.3692 -1.6277  1.1789
  594MOL0     H80158   4.435   8.654  10.211  1.5987  2.1467  0.3171
  594MOL0     H80159   4.406   8.518  10.312 -2.0241  1.6156 -1.5099
  594MOL0     H80160   4.623   8.521  10.401 -0.2511 -0.3826  0.4618
  594MOL0     H80161   4.521   8.652  10.463  2.2653 -4.6995  3.9185
  594MOL0     H80162   4.725   8.707  10.236  1.3833 -0.1484  0.6488
  594MOL0     H80163   4.768   8.726  10.404 -0.0243  1.2335  0.5559
  594MOL0     H80164   4.519   8.864  10.301  0.7315 -2.9779 -0.6031
  594MOL0     H80165   4.594   8.892  10.460 -1.4731 -0.1584 -1.3308
  594MOL0     H80166   4.804   8.945  10.252  0.0382 -1.1128  0.5811
  594MOL0     H80167   4.732   9.041  10.381 -0.2933 -0.0906 -0.7076
  594MOL0     H80168   4.525   9.094  10.248  0.9691  3.1098  1.7525
  594MOL0     H80169   4.678   9.166  10.199 -0.2788  0.2172  0.4345
  594MOL0     H80170   4.299   8.675   9.804  0.9927 -0.6136 -1.4212
  594MOL0     H80171   4.142   8.628   9.641  3.2555 -0.3174 -2.4914
  594MOL0     H80172   3.842   8.336   9.468 -0.1255  0.3705  1.1584
  594MOL0     H80173   3.682   8.329   9.276  0.8260  0.9507  2.3611
  594MOL0     H80174   4.394   7.116   7.760  3.1409 -1.7420 -0.2632
  594MOL0     H80175   4.361   6.918   7.625 -2.1686  1.0990 -0.2457
  594MOL0     H80176   4.485   6.635   7.379 -1.3278 -2.4639  0.4205
  594MOL0     H80177   4.458   6.404   7.299  2.8927  1.0397 -0.4534
  594MOL0     H80178   4.387   6.163   7.030 -0.6932  0.0525  0.2663
  594MOL0     H80179   4.515   6.290   7.056 -0.5890 -0.8900  2.6795
  594MOL0     H80180   4.464   6.233   6.828  1.7392  1.5573  0.7577
  594MOL0     H80181   4.435   6.403   6.844  1.4459 -0.8812 -0.9602
  594MOL0     H80182   4.184   6.336   6.869 -2.8892 -1.1721 -2.0381
  594MOL0     H80183   4.229   6.175   6.828 -3.0835  0.8246 -3.4816
  594MOL0     H80184   4.342   6.233   6.629 -0.1435 -0.1157 -2.4772
  594MOL0     H80185   4.164   6.267   6.636 -0.0750  1.1981 -0.3651
  594MOL0     H80186   4.275   6.669   6.608  1.9794  0.3329  2.1140
  594MOL0     H80187   4.219   6.532   6.979 -0.4346  0.1091  0.7902
  594MOL0     H80188   4.136   6.822   7.087 -0.6332 -3.5466  3.4246
  594MOL0     H80189   4.271   6.858   6.970  2.2828 -0.7781  2.3602
  594MOL0     H80190   4.147   6.737   6.940 -4.2655  1.1216  2.6394
  595MOL0     O80191   4.514   8.248   2.604  0.2164 -0.8836 -0.0964
  595MOL0     C80192   4.567   8.330   2.682 -0.0649 -0.0649 -0.2888
  595MOL0     O80193   4.615   8.450   2.656 -0.0349  0.2673 -0.5246
  595MOL0     C80194   4.596   8.511   2.533  0.0031  0.1525  0.0192
  595MOL0     C80195   4.492   8.485   2.446 -0.2677  0.4059  0.3904
  595MOL0     C80196   4.486   8.525   2.310  0.5665  0.4914 -1.0452
  595MOL0     C80197   4.588   8.601   2.246 -1.3916  0.0835  0.2081
  595MOL0     O80198   4.573   8.650   2.112  0.8866  0.6847 -0.7712
  595MOL0     C80199   4.685   8.674   2.030  0.2249 -0.4308  0.0653
  595MOL0     C80200   4.714   8.813   2.038 -0.6095 -0.3585 -0.4245
  595MOL0     C80201   4.621   8.896   1.941 -0.4258  0.2391 -0.4113
  595MOL0     C80202   4.664   9.040   1.951 -0.0491 -0.6762  0.1979
  595MOL0     C80203   4.572   9.156   1.887 -0.0625  0.2470  0.1018
  595MOL0     C80204   4.578   9.154   1.736 -0.0863 -0.0991 -0.6298
  595MOL0     C80205   4.506   9.273   1.672 -1.0941  0.1499 -0.9890
  595MOL0     C80206   4.522   9.276   1.523  0.7817  0.1826 -0.0747
  595MOL0     N80207   4.445   9.383   1.453 -0.0926 -1.0800 -0.1212
  595MOL0     C80208   4.347   9.465   1.512  0.0839 -0.4396  0.2556
  595MOL0     C80209   4.315   9.550   1.408  0.2992  0.6141 -0.5526
  595MOL0     C80210   4.235   9.677   1.424  0.7502 -0.3233  0.0488
  595MOL0     C80211   4.295   9.805   1.375 -1.0664 -0.6984 -0.7698
  595MOL0     C80212   4.444   9.823   1.427 -0.0196  0.4572  0.3865
  595MOL0     C80213   4.505   9.955   1.379  0.1291  0.1451  0.2973
  595MOL0     O80214   4.646   9.936   1.366  1.0961 -0.2875 -0.0057
  595MOL0     C80215   4.725  10.042   1.342  0.1113 -0.2992  0.5574
  595MOL0     C80216   4.672  10.154   1.284  0.2929 -0.1468 -0.2991
  595MOL0     C80217   4.758  10.263   1.239 -0.1754  0.1403 -0.7000
  595MOL0     C80218   4.897  10.268   1.273 -0.3261 -0.3590 -0.2563
  595MOL0     C80219   4.986  10.391   1.241  1.1583  0.1602 -0.9151
  595MOL0     O80220   4.920  10.483   1.179 -0.0141  0.3895 -0.6435
  595MOL0     C80221   4.989  10.580   1.111 -0.3125 -0.4355 -0.4732
  595MOL0     C80222   4.952  10.716   1.141  0.1567 -0.7308 -0.9618
  595MOL0     C80223   5.010  10.821   1.076 -0.4786 -1.1406 -0.1479
  595MOL0     C80224   5.119  10.801   0.987  0.2477  0.5316 -0.7718
  595MOL0     O80225   5.186  10.910   0.947  0.9170  0.4731  0.6512
  595MOL0     C80226   5.328  10.920   0.967 -0.2167 -0.1420  0.0574
  595MOL0     C80227   5.397  11.047   0.907  0.2851  1.5777 -0.6011
  595MOL0     C80228   5.437  10.998   0.764  0.3429 -0.5758  0.6156
  595MOL0     C80229   5.540  11.097   0.691 -0.1549 -0.2310  0.0698
  595MOL0     C80230   5.576  11.044   0.540  0.5014 -0.0941  0.3840
  595MOL0     C80231   5.656  11.167   0.479  0.3903  0.1902 -0.0498
  595MOL0     C80232   5.565  11.270   0.406  0.2091  0.3934  0.2784
  595MOL0     C80233   5.653  11.359   0.331 -0.3581  0.1263  0.2528
  595MOL0    Cl80234   5.563  11.460   0.202 -0.2583 -0.3647  0.3482
  595MOL0     C80235   5.147  10.664   0.950  0.7136 -0.9033 -0.4146
  595MOL0     C80236   5.095  10.561   1.024 -0.1396 -0.6017 -0.1838
  595MOL0     O80237   5.112  10.393   1.261  0.2409 -0.1452 -0.7891
  595MOL0     C80238   4.944  10.162   1.353  0.4669 -0.4539 -0.0825
  595MOL0     C80239   4.857  10.046   1.368 -0.3118 -0.3471  0.3722
  595MOL0     N80240   4.391   9.524   1.295  0.0841 -0.4162 -0.6621
  595MOL0     N80241   4.470   9.424   1.322 -0.3379 -0.2591  0.1501
  595MOL0     C80242   4.692   8.630   2.339  0.3331 -0.9170 -0.6118
  595MOL0     C80243   4.691   8.588   2.476  0.4657  0.4300  0.4215
  595MOL0     C80244   4.608   8.294   2.829 -0.2537  0.4480  1.1847
  595MOL0     C80245   4.604   8.162   2.870 -0.3365  0.8842 -0.2896
  595MOL0     C80246   4.627   8.131   3.002  0.3059 -0.5386  1.2857
  595MOL0     C80247   4.667   8.220   3.098 -0.1783  0.1135  0.0302
  595MOL0     O80248   4.683   8.169   3.226 -0.4530 -0.1918  0.1262
  595MOL0     C80249   4.628   8.257   3.339 -0.4507  0.7582  0.3726
  595MOL0     C80250   4.723   8.239   3.456 -0.4759  0.1920 -1.0812
  595MOL0     C80251   4.667   8.313   3.572 -0.5762 -0.2133 -0.0921
  595MOL0     C80252   4.763   8.340   3.688  0.0527  0.5470  0.4617
  595MOL0     C80253   4.835   8.221   3.736 -0.6380  0.5617 -0.5512
  595MOL0     C80254   4.891   8.128   3.790 -0.3331 -0.7680 -0.0063
  595MOL0     C80255   4.677   8.352   3.054 -0.9028 -0.2808 -0.7848
  595MOL0     C80256   4.645   8.392   2.929  0.4581 -0.4395 -0.6314
  595MOL0     C80257   4.658   8.544   2.918 -0.1652 -0.1225  0.6729
  595MOL0     H80258   4.413   8.416   2.472  0.1748 -0.3211 -0.1691
  595MOL0     H80259   4.401   8.472   2.267 -0.1451 -1.3562  2.3498
  595MOL0     H80260   4.774   8.612   2.048  0.8406  0.4550  0.1594
  595MOL0     H80261   4.667   8.670   1.922  1.7637  4.8697 -0.6999
  595MOL0     H80262   4.817   8.831   2.005 -0.2937  1.1354  1.1966
  595MOL0     H80263   4.702   8.832   2.146 -0.7199 -1.1812 -0.2888
  595MOL0     H80264   4.521   8.878   1.982 -0.2801 -1.4999 -0.7753
  595MOL0     H80265   4.622   8.856   1.840 -2.1556 -1.8518  0.3439
  595MOL0     H80266   4.687   9.064   2.055 -2.8269  1.2607  0.4647
  595MOL0     H80267   4.768   9.050   1.916  1.0949  3.1605  3.8613
  595MOL0     H80268   4.472   9.153   1.932 -1.1095 -2.3921 -2.1207
  595MOL0     H80269   4.623   9.251   1.906  2.6112 -0.7549 -1.5159
  595MOL0     H80270   4.681   9.163   1.702 -0.6101 -0.5056 -2.4352
  595MOL0     H80271   4.532   9.062   1.699 -1.0086  0.1612 -0.1693
  595MOL0     H80272   4.543   9.368   1.713 -0.1270 -1.1949  1.5138
  595MOL0     H80273   4.402   9.264   1.702 -0.7814 -0.5534 -0.0824
  595MOL0     H80274   4.627   9.273   1.492  0.7445 -2.6281 -0.1485
  595MOL0     H80275   4.480   9.182   1.487  2.4330  0.6585 -3.6160
  595MOL0     H80276   4.319   9.465   1.617  1.8813  0.0186  0.7780
  595MOL0     H80277   4.149   9.656   1.360  2.9339 -1.5250 -2.6748
  595MOL0     H80278   4.210   9.682   1.531 -1.7973 -2.0292 -0.3761
  595MOL0     H80279   4.309   9.800   1.267  0.5210  0.2043 -0.6345
  595MOL0     H80280   4.236   9.895   1.398  0.0946  0.4038 -1.9808
  595MOL0     H80281   4.510   9.748   1.382  0.0041  1.0496 -0.6040
  595MOL0     H80282   4.462   9.811   1.534  0.5557  0.8964  0.3483
  595MOL0     H80283   4.461  10.030   1.446 -2.2186  0.1622 -1.1367
  595MOL0     H80284   4.472   9.976   1.276  1.1221  3.9947  0.6108
  595MOL0     H80285   4.568  10.157   1.251  0.9252  1.6200 -2.3702
  595MOL0     H80286   4.725  10.348   1.181  1.5885  2.2948  1.2382
  595MOL0     H80287   4.871  10.733   1.212 -0.5665 -1.2930 -1.6316
  595MOL0     H80288   4.992  10.921   1.114  0.5143 -0.5358 -1.1795
  595MOL0     H80289   5.346  10.904   1.074 -2.9054 -4.3854  0.1247
  595MOL0     H80290   5.377  10.836   0.917  1.2703  0.9244 -0.3509
  595MOL0     H80291   5.327  11.130   0.900 -2.0194 -0.2397 -0.1551
  595MOL0     H80292   5.493  11.073   0.953  0.8926 -0.7604 -0.3838
  595MOL0     H80293   5.479  10.898   0.751 -0.2914 -0.5691 -2.0443
  595MOL0     H80294   5.349  11.017   0.701  1.4177 -1.9432 -1.4033
  595MOL0     H80295   5.632  11.103   0.750  0.3689  2.8553 -0.9090
  595MOL0     H80296   5.495  11.197   0.688  0.1780  0.0003  1.7612
  595MOL0     H80297   5.485  11.017   0.484  1.0484  2.9457 -2.3180
  595MOL0     H80298   5.632  10.951   0.543 -3.0198 -2.3683  1.7590
  595MOL0     H80299   5.720  11.219   0.550 -0.6069 -0.2689  1.2472
  595MOL0     H80300   5.715  11.125   0.397 -0.6760 -0.8564 -0.3189
  595MOL0     H80301   5.500  11.319   0.478 -0.2934  0.4538 -0.2160
  595MOL0     H80302   5.495  11.224   0.335  0.4957 -0.8853  0.7877
  595MOL0     H80303   5.686  11.440   0.397  0.0268  2.0055 -2.0911
  595MOL0     H80304   5.731  11.307   0.276 -2.2426 -0.9157 -1.5665
  595MOL0     H80305   5.230  10.643   0.882  3.3355  2.5328  1.4085
  595MOL0     H80306   5.141  10.464   1.014  1.9864  0.2517  0.7285
  595MOL0     H80307   5.050  10.163   1.375  2.0270 -3.0794 -5.5237
  595MOL0     H80308   4.892   9.950   1.406  0.4604  0.6753  2.3843
  595MOL0     H80309   4.783   8.668   2.295  1.7745 -2.9997  0.3782
  595MOL0     H80310   4.781   8.607   2.535  2.2284  0.1531 -2.0272
  595MOL0     H80311   4.560   8.086   2.806  0.3662 -0.6689  0.9914
  595MOL0     H80312   4.610   8.028   3.033 -0.1363 -1.8647 -2.7993
  595MOL0     H80313   4.524   8.232   3.359 -0.3375  1.6004  2.2088
  595MOL0     H80314   4.628   8.364   3.315  0.2416  0.6441 -0.1925
  595MOL0     H80315   4.823   8.280   3.441 -0.0301 -0.7218 -0.6814
  595MOL0     H80316   4.736   8.134   3.483 -1.7751 -0.1465 -1.7050
  595MOL0     H80317   4.576   8.270   3.613 -0.1022  1.1273  2.5788
  595MOL0     H80318   4.650   8.411   3.527  1.5221 -0.6873 -2.1177
  595MOL0     H80319   4.843   8.399   3.642  1.6679 -1.4734  0.5402
  595MOL0     H80320   4.703   8.397   3.759  0.2458  0.7813  0.4372
  595MOL0     H80321   4.939   8.049   3.845  0.5248  0.6994  1.4307
  595MOL0     H80322   4.693   8.424   3.134 -2.5151 -1.4576  0.6708
  595MOL0     H80323   4.566   8.596   2.892  0.6571  1.5216  0.9390
  595MOL0     H80324   4.701   8.587   3.009  0.2450 -0.9311  0.8766
  595MOL0     H80325   4.734   8.560   2.841  0.4291  0.7889  1.4268
  596MOL0     O80326   8.671   5.958   1.083  0.4376 -0.1864  0.4709
  596MOL0     C80327   8.592   5.873   1.032  1.1455  0.0045  0.6257
  596MOL0     O80328   8.620   5.777   0.930 -0.4960 -0.1051  0.1466
  596MOL0     C80329   8.743   5.813   0.885  0.2029 -0.4636 -0.6513
  596MOL0     C80330   8.862   5.808   0.964 -0.9433 -0.1844 -0.2533
  596MOL0     C80331   8.988   5.845   0.905  0.2548  0.5229 -0.7965
  596MOL0     C80332   8.991   5.913   0.783 -0.6639 -1.1273  0.3004
  596MOL0     O80333   9.110   5.974   0.756  1.2449 -0.2192  0.1866
  596MOL0     C80334   9.121   6.053   0.633 -0.3481 -0.8808  0.1792
  596MOL0     C80335   9.276   6.058   0.600  0.3663 -0.2752  0.1082
  596MOL0     C80336   9.355   6.152   0.692  0.1498  0.5511  0.6758
  596MOL0     C80337   9.311   6.296   0.683  0.3585  1.2352  0.3989
  596MOL0     C80338   9.399   6.401   0.745  0.5995 -0.1622  0.0172
  596MOL0     C80339   9.549   6.411   0.701  0.9116 -1.1552 -0.6178
  596MOL0     C80340   9.617   6.535   0.768  0.1898  0.1927  0.7722
  596MOL0     C80341   9.762   6.538   0.717 -0.4569 -0.1567  1.0854
  596MOL0     N80342   9.838   6.658   0.754 -1.2743  0.5838  0.3271
  596MOL0     C80343   9.826   6.752   0.861 -0.5397  0.2339 -0.2690
  596MOL0     C80344   9.933   6.833   0.848 -0.9333 -0.3593 -0.6362
  596MOL0     C80345   9.974   6.940   0.948  0.2884 -0.5545 -0.4246
  596MOL0     C80346   9.851   7.026   0.977 -0.2352 -0.7109 -1.1272
  596MOL0     C80347   9.885   7.164   1.055 -0.2745  0.6666 -0.2759
  596MOL0     C80348   9.927   7.271   0.955  0.8234 -0.3470 -0.0425
  596MOL0     O80349   9.991   7.380   1.021  0.3249 -0.4903  0.6707
  596MOL0     C80350  10.106   7.363   1.090  0.2914  0.2577 -0.8624
  596MOL0     C80351  10.211   7.281   1.050 -0.5659 -0.2642 -0.6926
  596MOL0     C80352  10.313   7.254   1.140  0.2662  0.4835 -0.7674
  596MOL0     C80353  10.339   7.332   1.251  0.5896  0.5098  0.3132
  596MOL0     C80354  10.448   7.299   1.345 -0.2158  0.2610  0.1637
  596MOL0     O80355  10.512   7.180   1.334 -0.4917  0.1487  0.2359
  596MOL0     C80356  10.612   7.165   1.429  0.4026  0.2888  0.3911
  596MOL0     C80357  10.739   7.213   1.386  0.1382  0.1241  0.7543
  596MOL0     C80358  10.837   7.209   1.478 -0.5463  0.6197  0.1650
  596MOL0     C80359  10.817   7.143   1.604 -0.3801 -0.3772 -0.1061
  596MOL0     O80360  10.922   7.119   1.690 -0.8256 -0.3907  0.3140
  596MOL0     C80361  10.904   7.160   1.833  0.1954  0.1343  1.1276
  596MOL0     C80362  11.028   7.235   1.894 -0.3816  0.2859 -0.3069
  596MOL0     C80363  11.055   7.378   1.847 -0.5656 -0.0668 -0.5006
  596MOL0     C80364  11.189   7.420   1.911 -0.2428  0.4515  0.5757
  596MOL0     C80365  11.171   7.474   2.048  0.5055  0.2456 -0.1026
  596MOL0     C80366  11.270   7.595   2.073 -0.0031 -0.1883  0.8545
  596MOL0     C80367  11.240   7.657   2.211  0.4248  0.1017 -0.7323
  596MOL0     C80368  11.280   7.806   2.222  0.6310 -0.1309 -0.0168
  596MOL0    Cl80369  11.186   7.901   2.099  0.0565  0.1023 -0.2207
  596MOL0     C80370  10.691   7.091   1.642 -0.1752 -1.0455 -0.2083
  596MOL0     C80371  10.588   7.098   1.552 -0.6385 -0.2599  0.6867
  596MOL0     O80372  10.466   7.390   1.423  0.2700  0.0607 -0.6359
  596MOL0     C80373  10.244   7.432   1.286 -0.3551  0.8431  0.2826
  596MOL0     C80374  10.137   7.448   1.204 -0.0607 -0.7052  0.8817
  596MOL0     N80375  10.010   6.786   0.738  0.1619  0.4661  0.1810
  596MOL0     N80376   9.952   6.691   0.686  0.3909  0.6065 -0.1153
  596MOL0     C80377   8.870   5.924   0.712 -0.0320 -0.1789  0.3538
  596MOL0     C80378   8.749   5.877   0.767  0.1010 -0.3665 -0.1177
  596MOL0     C80379   8.456   5.860   1.083 -0.2945  0.5715 -0.7057
  596MOL0     C80380   8.426   5.872   1.223 -0.9523 -0.5257 -0.2904
  596MOL0     C80381   8.298   5.840   1.273 -0.7381  0.0260 -0.3443
  596MOL0     C80382   8.192   5.810   1.190 -0.1288  0.4796  0.1960
  596MOL0     O80383   8.075   5.778   1.247  0.7856 -0.1515  0.4820
  596MOL0     C80384   7.969   5.729   1.159 -0.2985 -0.2697 -0.1044
  596MOL0     C80385   7.846   5.695   1.249 -1.7039 -0.9607  0.7965
  596MOL0     C80386   7.724   5.705   1.158  0.0121 -0.9058 -0.1262
  596MOL0     C80387   7.719   5.616   1.036  0.5395  0.6238 -0.4209
  596MOL0     C80388   7.724   5.475   1.086  0.5417 -0.1921 -0.5871
  596MOL0     C80389   7.729   5.359   1.121 -0.5833 -0.5072  0.4682
  596MOL0     C80390   8.220   5.801   1.056 -1.2032 -0.6586  0.6349
  596MOL0     C80391   8.346   5.825   0.998  0.5484 -0.6823 -1.2256
  596MOL0     C80392   8.352   5.802   0.849 -0.3113  0.6387 -0.0962
  596MOL0     H80393   8.863   5.759   1.060 -3.6189  0.9731  0.4604
  596MOL0     H80394   9.075   5.846   0.970  0.6189  0.0851 -1.2789
  596MOL0     H80395   9.075   6.015   0.542  0.7507 -2.4379  0.2417
  596MOL0     H80396   9.085   6.154   0.654  1.1870 -0.5950  1.7369
  596MOL0     H80397   9.289   6.079   0.493  1.6018 -0.6577  0.1669
  596MOL0     H80398   9.327   5.962   0.613  3.2728  1.0441 -0.5780
  596MOL0     H80399   9.460   6.136   0.666 -0.0387 -1.0561  0.8298
  596MOL0     H80400   9.339   6.114   0.793 -2.7037 -2.8176 -0.8248
  596MOL0     H80401   9.289   6.316   0.578 -2.3577  2.4824  1.1115
  596MOL0     H80402   9.212   6.295   0.730  0.5992 -1.3153  0.9949
  596MOL0     H80403   9.359   6.497   0.711 -1.5614 -1.1318 -0.3769
  596MOL0     H80404   9.402   6.374   0.851  0.0708 -0.5709 -0.0661
  596MOL0     H80405   9.610   6.334   0.750 -1.1009 -2.6235 -0.2811
  596MOL0     H80406   9.561   6.416   0.592  3.4769  4.1368 -0.3790
  596MOL0     H80407   9.609   6.538   0.877 -1.9753 -0.5414  0.6736
  596MOL0     H80408   9.573   6.621   0.716  3.5621  1.6431  0.0111
  596MOL0     H80409   9.829   6.464   0.762 -0.4040 -0.9591 -0.2398
  596MOL0     H80410   9.769   6.508   0.612 -1.6515 -1.9169  1.4676
  596MOL0     H80411   9.747   6.757   0.936  0.4983 -1.1020  0.9804
  596MOL0     H80412  10.022   6.897   1.036 -3.0072 -0.8739  1.3664
  596MOL0     H80413  10.046   7.010   0.906 -1.1371  1.9886  1.0782
  596MOL0     H80414   9.800   7.055   0.884 -0.5197  1.7707 -0.2742
  596MOL0     H80415   9.777   6.969   1.033 -0.5031  0.4637 -0.2647
  596MOL0     H80416   9.965   7.152   1.129  0.4755 -1.1540 -1.3379
  596MOL0     H80417   9.804   7.204   1.118  1.3272  1.6484  1.2555
  596MOL0     H80418   9.836   7.314   0.913  1.1549  0.8918  0.4678
  596MOL0     H80419   9.996   7.233   0.879 -1.0815 -0.6569 -1.6663
  596MOL0     H80420  10.205   7.227   0.956 -1.7578 -1.9445  0.2928
  596MOL0     H80421  10.391   7.185   1.111  2.2009  2.2236  0.0737
  596MOL0     H80422  10.746   7.229   1.279  2.4495 -3.8775  0.0928
  596MOL0     H80423  10.939   7.244   1.462 -0.9153  0.8049 -2.0469
  596MOL0     H80424  10.820   7.222   1.866  1.5432  2.7146  0.0054
  596MOL0     H80425  10.881   7.064   1.881  1.6202  0.2624  2.1376
  596MOL0     H80426  11.017   7.230   2.002  1.1376  2.4935  0.0209
  596MOL0     H80427  11.119   7.178   1.875  0.1229  0.5627  1.2271
  596MOL0     H80428  11.075   7.394   1.741  2.4943  3.1372  0.3946
  596MOL0     H80429  10.977   7.441   1.891  0.6821 -0.7631  3.0332
  596MOL0     H80430  11.223   7.497   1.841 -1.5535  0.9722  0.4788
  596MOL0     H80431  11.266   7.342   1.911  1.1391  1.7777  1.2421
  596MOL0     H80432  11.207   7.402   2.121  1.1075  0.4898 -0.1535
  596MOL0     H80433  11.068   7.497   2.074  0.3920 -1.5521  1.2038
  596MOL0     H80434  11.378   7.579   2.076  0.0204  0.0852  1.4147
  596MOL0     H80435  11.253   7.675   2.000 -0.3573 -0.5178  0.5686
  596MOL0     H80436  11.292   7.606   2.292  0.6660  2.4586  0.6745
  596MOL0     H80437  11.134   7.646   2.233  0.1313  1.4420 -1.3821
  596MOL0     H80438  11.279   7.846   2.324 -1.3783 -0.2795  0.0572
  596MOL0     H80439  11.386   7.806   2.195  0.4306 -0.1831 -0.8432
  596MOL0     H80440  10.674   7.048   1.740 -1.2157 -0.8132 -0.2704
  596MOL0     H80441  10.491   7.065   1.589 -1.1935 -0.6948 -1.0613
  596MOL0     H80442  10.246   7.483   1.382 -0.6760 -0.3845  0.9559
  596MOL0     H80443  10.067   7.521   1.241  2.7062  0.9054  3.3965
  596MOL0     H80444   8.853   5.961   0.612  1.5513  0.5541  0.3342
  596MOL0     H80445   8.657   5.912   0.721 -1.0270 -1.4671  1.2216
  596MOL0     H80446   8.503   5.913   1.287 -0.3650  4.4433 -3.6538
  596MOL0     H80447   8.275   5.836   1.379  4.9842 -1.6343  1.1903
  596MOL0     H80448   7.999   5.639   1.103 -0.7791  0.4066 -1.4815
  596MOL0     H80449   7.936   5.800   1.083 -1.0622 -1.4470 -0.9031
  596MOL0     H80450   7.843   5.773   1.326  1.0184  1.1035 -0.9861
  596MOL0     H80451   7.846   5.596   1.296  0.9458 -2.4540 -1.9793
  596MOL0     H80452   7.711   5.808   1.124 -2.7408 -1.3189 -0.5643
  596MOL0     H80453   7.649   5.670   1.230  4.2846 -3.6191  3.5469
  596MOL0     H80454   7.629   5.631   0.976  2.1282 -3.1550 -4.2607
  596MOL0     H80455   7.807   5.627   0.973  0.0613 -0.0155 -1.2230
  596MOL0     H80456   7.745   5.265   1.168  0.4311 -0.8371 -0.4744
  596MOL0     H80457   8.145   5.777   0.981  1.7869 -1.0280 -2.4601
  596MOL0     H80458   8.389   5.703   0.820  0.5074  0.9963 -0.3157
  596MOL0     H80459   8.259   5.805   0.792 -0.5228  0.1149  0.2197
  596MOL0     H80460   8.411   5.882   0.802 -0.7593  0.2779 -1.3225
  597MOL0     O80461   5.717  10.895   4.099 -0.3564  0.1744  0.0553
  597MOL0     C80462   5.833  10.848   4.101 -0.5757  0.1274  0.2544
  597MOL0     O80463   5.919  10.863   3.999  0.1110  0.6610  0.0630
  597MOL0     C80464   5.918  10.992   3.932 -0.9968  0.1971 -0.5746
  597MOL0     C80465   5.953  10.998   3.795  0.2651 -0.1115 -0.0927
  597MOL0     C80466   5.965  11.127   3.732 -0.4861  1.0698 -1.0409
  597MOL0     C80467   5.929  11.241   3.805  0.1653  0.3160 -0.7808
  597MOL0     O80468   5.933  11.360   3.748  1.1751 -0.0504 -0.3656
  597MOL0     C80469   6.066  11.416   3.733 -0.6194 -0.3394 -0.0681
  597MOL0     C80470   6.067  11.547   3.659  0.3687  0.3875 -0.5314
  597MOL0     C80471   6.035  11.523   3.505 -0.0841 -0.0809 -0.0646
  597MOL0     C80472   6.055  11.646   3.411  0.0430  0.1094  0.3241
  597MOL0     C80473   6.076  11.598   3.264  0.7898  0.4989  0.6487
  597MOL0     C80474   6.216  11.549   3.226  0.5833  0.0026 -0.4372
  597MOL0     C80475   6.311  11.673   3.213  0.3731  0.4174  1.1364
  597MOL0     C80476   6.413  11.639   3.104  0.8969 -0.3543  0.2675
  597MOL0     N80477   6.485  11.762   3.074  0.0101  0.0414  0.5352
  597MOL0     C80478   6.438  11.884   3.051 -0.3367  0.5466  0.4263
  597MOL0     C80479   6.552  11.964   3.045 -0.1446  0.4624 -0.3874
  597MOL0     C80480   6.565  12.117   3.025  0.5090 -1.2513 -0.3292
  597MOL0     C80481   6.508  12.197   3.148 -0.4641  0.5942 -0.0812
  597MOL0     C80482   6.541  12.345   3.150  0.1077  0.3824  0.6858
  597MOL0     C80483   6.414  12.425   3.119 -0.7983  0.7497  0.4017
  597MOL0     O80484   6.429  12.566   3.110 -0.3515  0.2596 -0.5572
  597MOL0     C80485   6.329  12.644   3.063  0.7016  0.4317  0.3555
  597MOL0     C80486   6.217  12.582   3.008  0.2172  0.7803 -0.5441
  597MOL0     C80487   6.118  12.663   2.961 -0.0628 -0.2288  0.9544
  597MOL0     C80488   6.132  12.804   2.967  0.0205 -0.6375  1.3314
  597MOL0     C80489   6.028  12.897   2.907  0.0610  0.1716 -0.1623
  597MOL0     O80490   5.949  12.836   2.806 -0.0069 -0.2090 -0.2531
  597MOL0     C80491   5.890  12.916   2.715  0.5002  0.9681 -0.4580
  597MOL0     C80492   5.757  12.895   2.712 -0.6658  0.0043  0.3052
  597MOL0     C80493   5.682  12.987   2.633 -0.5689  0.7634  0.1932
  597MOL0     C80494   5.732  13.095   2.569 -0.3372  0.4645 -0.3698
  597MOL0     O80495   5.666  13.198   2.507 -0.0238  0.5577 -0.0047
  597MOL0     C80496   5.538  13.162   2.468 -0.1219 -0.5729 -0.2663
  597MOL0     C80497   5.458  13.277   2.385  0.3529  0.8761 -0.3483
  597MOL0     C80498   5.322  13.234   2.329 -0.9753  0.6951  0.5991
  597MOL0     C80499   5.209  13.223   2.436  0.2324  0.0043 -0.1844
  597MOL0     C80500   5.079  13.160   2.377  1.6530 -0.0795  0.9848
  597MOL0     C80501   5.036  13.192   2.231  0.1011  0.0883  0.1076
  597MOL0     C80502   4.925  13.097   2.183  0.7005  0.2313  0.0399
  597MOL0     C80503   4.859  13.133   2.055  0.1721 -0.3545  1.1645
  597MOL0    Cl80504   4.975  13.118   1.916  0.0926 -0.0045  0.4135
  597MOL0     C80505   5.866  13.119   2.596  0.1535 -0.7097  0.7827
  597MOL0     C80506   5.944  13.020   2.650 -0.3182 -0.2003  0.5715
  597MOL0     O80507   6.020  13.012   2.944  0.2272  0.1790  0.5205
  597MOL0     C80508   6.240  12.867   3.015  0.8175  0.5032 -1.5980
  597MOL0     C80509   6.338  12.784   3.077  0.3668 -0.3063  0.2919
  597MOL0     N80510   6.667  11.892   3.071 -0.0985  0.3730  0.0834
  597MOL0     N80511   6.623  11.774   3.075 -0.6355  0.4185 -0.4306
  597MOL0     C80512   5.896  11.231   3.939  0.6475 -0.1883 -0.2242
  597MOL0     C80513   5.892  11.111   4.004  0.5685 -1.1593 -0.2672
  597MOL0     C80514   5.877  10.767   4.220  0.2420  0.1402  1.1550
  597MOL0     C80515   5.776  10.692   4.284  0.9729 -0.5798 -0.6708
  597MOL0     C80516   5.810  10.613   4.397 -0.3772  0.4294  0.8680
  597MOL0     C80517   5.942  10.596   4.441  0.4506  0.5722  0.0285
  597MOL0     O80518   5.958  10.508   4.543  1.0830 -0.2384  0.4464
  597MOL0     C80519   6.052  10.530   4.655 -0.1179  0.2029  0.5875
  597MOL0     C80520   6.027  10.665   4.723  0.0949  0.4891 -0.1352
  597MOL0     C80521   5.882  10.701   4.748  0.7887  0.7318 -0.1293
  597MOL0     C80522   5.868  10.844   4.760  0.1032 -0.5237 -0.0096
  597MOL0     C80523   5.859  10.902   4.627  0.2525 -0.0462 -0.0251
  597MOL0     C80524   5.851  10.976   4.523  1.1709  0.9372  0.2793
  597MOL0     C80525   6.036  10.686   4.385 -0.4360  0.8428  1.2788
  597MOL0     C80526   6.015  10.770   4.271 -0.1950  0.0165  0.4407
  597MOL0     C80527   6.123  10.849   4.199 -0.4350 -0.6296 -0.6743
  597MOL0     H80528   5.963  10.912   3.730  3.4324  0.5213 -0.5996
  597MOL0     H80529   5.985  11.149   3.628 -3.3675  0.9463 -1.7082
  597MOL0     H80530   6.109  11.433   3.832  0.4685  1.5452 -0.8177
  597MOL0     H80531   6.139  11.346   3.691 -0.2644 -0.9142  1.4344
  597MOL0     H80532   6.159  11.605   3.670 -0.1986  0.8484  2.8640
  597MOL0     H80533   5.983  11.603   3.701  0.0113 -0.5316  0.0111
  597MOL0     H80534   5.928  11.500   3.511 -0.2656  0.3058 -1.5827
  597MOL0     H80535   6.093  11.441   3.463 -0.6272 -0.2346 -0.5281
  597MOL0     H80536   5.965  11.707   3.423  0.3809  0.8856 -0.8732
  597MOL0     H80537   6.140  11.704   3.448 -0.5471  3.2729 -2.7230
  597MOL0     H80538   6.009  11.521   3.225  0.5598  1.1874 -0.3411
  597MOL0     H80539   6.055  11.680   3.195 -0.4737 -1.7819 -1.8768
  597MOL0     H80540   6.264  11.474   3.289  1.8196  0.2125 -1.0952
  597MOL0     H80541   6.210  11.506   3.126 -2.7371  2.1385 -1.3023
  597MOL0     H80542   6.370  11.694   3.303  0.8790  1.9514  0.4748
  597MOL0     H80543   6.250  11.763   3.200 -0.1851  0.1632  1.9252
  597MOL0     H80544   6.480  11.558   3.133  0.4969 -1.3536 -1.4520
  597MOL0     H80545   6.370  11.614   3.006  2.0309  0.2743 -0.4110
  597MOL0     H80546   6.336  11.915   3.033 -0.2167 -0.9612 -4.1375
  597MOL0     H80547   6.668  12.149   3.009 -0.1151  2.0684  1.4379
  597MOL0     H80548   6.506  12.157   2.941  0.0906  2.0256  1.3698
  597MOL0     H80549   6.401  12.180   3.158 -1.1660  2.9935 -2.3416
  597MOL0     H80550   6.555  12.145   3.232 -0.7366 -0.3040 -0.4757
  597MOL0     H80551   6.620  12.376   3.081 -0.2115  2.4084  1.1546
  597MOL0     H80552   6.574  12.369   3.252 -0.9898 -2.5310  1.8302
  597MOL0     H80553   6.332  12.400   3.186 -3.3373  1.5307 -2.2242
  597MOL0     H80554   6.382  12.388   3.021  3.0705  0.7177 -1.0568
  597MOL0     H80555   6.203  12.475   3.019  0.5028  0.9797  2.4086
  597MOL0     H80556   6.028  12.619   2.920  0.2218 -0.1745  0.2415
  597MOL0     H80557   5.715  12.815   2.771 -0.6098 -0.9773 -0.9356
  597MOL0     H80558   5.575  12.977   2.650 -0.4574  0.7094  0.8968
  597MOL0     H80559   5.535  13.071   2.406 -1.6153 -1.7989  1.4995
  597MOL0     H80560   5.473  13.136   2.551 -0.7061  1.4983 -0.0218
  597MOL0     H80561   5.453  13.367   2.448  3.5477 -0.3488  1.9947
  597MOL0     H80562   5.518  13.300   2.296  0.6628 -1.4404 -0.7937
  597MOL0     H80563   5.290  13.301   2.250 -2.1821 -1.0475 -0.4697
  597MOL0     H80564   5.334  13.130   2.298 -3.5669 -0.3220  2.5467
  597MOL0     H80565   5.183  13.320   2.480 -0.6834 -0.1257 -0.4007
  597MOL0     H80566   5.240  13.158   2.519  1.3623  0.3559 -0.3208
  597MOL0     H80567   4.991  13.182   2.438  1.8661  2.8659  0.3431
  597MOL0     H80568   5.076  13.050   2.381  0.2494 -0.0771  0.7094
  597MOL0     H80569   5.004  13.294   2.207 -1.0931  0.0975  1.6053
  597MOL0     H80570   5.124  13.175   2.167 -0.7723 -2.1244 -0.5834
  597MOL0     H80571   4.844  13.110   2.255  0.2955  0.2123 -0.3992
  597MOL0     H80572   4.950  12.990   2.179 -1.6559 -0.4143  0.8053
  597MOL0     H80573   4.775  13.063   2.057 -0.4825  0.3776  3.9092
  597MOL0     H80574   4.820  13.235   2.055  0.7958 -0.0883  2.4961
  597MOL0     H80575   5.904  13.213   2.557 -0.4243 -0.9070 -0.3023
  597MOL0     H80576   6.051  13.037   2.643  0.1391 -2.9339 -0.3293
  597MOL0     H80577   6.244  12.975   3.009 -0.7114  0.6569 -0.4027
  597MOL0     H80578   6.429  12.833   3.111  0.9596 -1.5282  0.5296
  597MOL0     H80579   5.854  11.313   3.998 -2.0167 -0.8516 -1.0368
  597MOL0     H80580   5.860  11.099   4.107 -0.8572 -2.3684 -0.8216
  597MOL0     H80581   5.678  10.715   4.244  0.1651 -3.6303 -0.7251
  597MOL0     H80582   5.731  10.562   4.452 -1.0065  0.1087 -0.3193
  597MOL0     H80583   6.155  10.521   4.620 -0.4869 -1.0801 -0.2280
  597MOL0     H80584   6.040  10.447   4.725 -0.5390 -0.6068 -0.4193
  597MOL0     H80585   6.069  10.741   4.656 -0.1167  0.9165  0.2054
  597MOL0     H80586   6.081  10.671   4.818  0.7209 -1.8526 -0.3007
  597MOL0     H80587   5.851  10.663   4.846  0.1094  0.3033 -0.5029
  597MOL0     H80588   5.819  10.660   4.668 -0.0826 -1.0217  1.3777
  597MOL0     H80589   5.768  10.855   4.803  0.6946  3.7801  0.7840
  597MOL0     H80590   5.944  10.880   4.830  1.1114 -2.7847  0.1409
  597MOL0     H80591   5.827  11.039   4.440 -2.0295  2.3536  2.0712
  597MOL0     H80592   6.134  10.688   4.430  0.3271 -0.3457 -0.2229
  597MOL0     H80593   6.100  10.955   4.193 -0.9037 -0.6130  0.8838
  597MOL0     H80594   6.205  10.835   4.270 -3.0537  0.6216  2.9578
  597MOL0     H80595   6.146  10.806   4.101 -1.2847  0.0870 -1.2030
  598MOL0     O80596  10.336   0.552   3.843  0.0650  0.1887 -0.2075
  598MOL0     C80597  10.308   0.666   3.816  0.6867  0.2352  0.1556
  598MOL0     O80598  10.176   0.711   3.809  0.2012 -0.3384 -0.8390
  598MOL0     C80599  10.149   0.808   3.720 -0.4227  0.0977 -0.7278
  598MOL0     C80600  10.141   0.779   3.588 -0.8694 -0.3103  0.6622
  598MOL0     C80601  10.143   0.867   3.485 -0.1379  0.2912  1.1340
  598MOL0     C80602  10.131   1.009   3.522  0.0596  0.2678  0.1578
  598MOL0     O80603  10.094   1.109   3.434  0.5509  0.0579  0.8677
  598MOL0     C80604  10.109   1.092   3.290  0.7308  0.1015  1.5723
  598MOL0     C80605   9.963   1.052   3.242 -0.3403  0.4792  0.1317
  598MOL0     C80606   9.926   1.079   3.101 -0.6936 -0.2061  0.0528
  598MOL0     C80607   9.857   1.212   3.071  0.2664  0.6418  0.1385
  598MOL0     C80608   9.829   1.215   2.912 -1.0392 -0.5450  0.8351
  598MOL0     C80609   9.723   1.320   2.873  0.6769 -0.1924  0.5623
  598MOL0     C80610   9.722   1.370   2.731 -0.7533  0.7317 -0.4979
  598MOL0     C80611   9.617   1.484   2.707  0.8332  0.4958 -0.5539
  598MOL0     N80612   9.618   1.515   2.564 -0.8827 -1.0366 -1.3933
  598MOL0     C80613   9.730   1.532   2.483 -0.0280  0.2597  0.3528
  598MOL0     C80614   9.683   1.507   2.359 -0.4518 -0.8574  0.1852
  598MOL0     C80615   9.768   1.501   2.225  0.1600  0.0121  0.0339
  598MOL0     C80616   9.848   1.625   2.197 -0.2883 -0.3206  0.6864
  598MOL0     C80617   9.757   1.743   2.153 -0.2025 -0.6880 -1.4278
  598MOL0     C80618   9.833   1.867   2.183  0.0149 -0.2345 -0.0545
  598MOL0     O80619   9.742   1.979   2.186  0.7161  0.3721 -1.6107
  598MOL0     C80620   9.688   2.005   2.065  0.1050  0.4045 -0.8543
  598MOL0     C80621   9.755   2.001   1.948 -0.9722 -0.4599 -0.4939
  598MOL0     C80622   9.700   2.031   1.822  0.5370 -0.0873 -0.0806
  598MOL0     C80623   9.563   2.084   1.824  0.0546  0.1251 -0.4326
  598MOL0     C80624   9.505   2.125   1.690  0.5281 -0.1492 -0.4743
  598MOL0     O80625   9.558   2.071   1.581  0.8084  0.5295  0.1697
  598MOL0     C80626   9.483   2.086   1.468  1.2379 -0.2235  0.4972
  598MOL0     C80627   9.346   2.045   1.450  0.0839 -0.4947 -0.2473
  598MOL0     C80628   9.292   2.038   1.320 -0.7409 -0.2438 -0.8900
  598MOL0     C80629   9.374   2.078   1.212  0.3873 -0.4961  0.0519
  598MOL0     O80630   9.307   2.074   1.093 -0.2453 -0.2737  0.2277
  598MOL0     C80631   9.383   2.111   0.971 -0.8454  0.5373 -1.0142
  598MOL0     C80632   9.410   2.268   0.967 -0.7688  0.6381  0.6519
  598MOL0     C80633   9.477   2.319   0.827 -0.3269 -0.4117  0.0452
  598MOL0     C80634   9.620   2.269   0.810  0.3014 -0.5212  0.2577
  598MOL0     C80635   9.689   2.355   0.702  0.1991  1.1157 -0.4003
  598MOL0     C80636   9.841   2.315   0.685 -0.2041  1.0754 -1.3236
  598MOL0     C80637   9.931   2.378   0.574  0.2490  0.5765 -0.2583
  598MOL0     C80638   9.925   2.524   0.582  1.1672  1.1592  0.7395
  598MOL0    Cl80639   9.977   2.611   0.425  0.1154  0.7807  0.3057
  598MOL0     C80640   9.506   2.113   1.232 -0.1595 -0.0315 -0.8391
  598MOL0     C80641   9.555   2.116   1.357  0.1311 -0.6015  0.3119
  598MOL0     O80642   9.406   2.196   1.703  0.2333 -0.0171 -0.7453
  598MOL0     C80643   9.496   2.091   1.945 -0.3228  0.3021  0.7573
  598MOL0     C80644   9.558   2.046   2.064  0.8374 -0.7972  0.5891
  598MOL0     N80645   9.545   1.484   2.364 -0.2908 -0.5769  0.8750
  598MOL0     N80646   9.508   1.491   2.486  1.1132 -0.4908  0.1606
  598MOL0     C80647  10.137   1.045   3.657  1.0360  0.3322 -0.8254
  598MOL0     C80648  10.149   0.945   3.754 -1.5549  0.2885  0.7340
  598MOL0     C80649  10.417   0.752   3.767  0.3240 -0.4317  0.5266
  598MOL0     C80650  10.453   0.757   3.637 -0.9489 -0.0259  0.4094
  598MOL0     C80651  10.572   0.817   3.591 -0.6235 -0.3014  0.5581
  598MOL0     C80652  10.639   0.901   3.675 -0.5360 -0.6142 -0.9213
  598MOL0     O80653  10.739   0.972   3.628 -0.0380  0.0886  0.2632
  598MOL0     C80654  10.853   0.887   3.609 -0.0881 -0.5682  0.3521
  598MOL0     C80655  10.968   0.961   3.533 -0.2523  0.4034 -0.7352
  598MOL0     C80656  10.925   0.982   3.387  0.1349 -0.1015 -0.6749
  598MOL0     C80657  10.982   1.109   3.333 -0.6888 -0.2871  0.7485
  598MOL0     C80658  11.130   1.088   3.310 -0.0709 -0.9163  0.2918
  598MOL0     C80659  11.248   1.078   3.287  0.9043 -0.0906 -0.5036
  598MOL0     C80660  10.598   0.905   3.809  0.5184 -0.0913 -0.6449
  598MOL0     C80661  10.489   0.830   3.861 -0.5936  0.7083 -0.0131
  598MOL0     C80662  10.458   0.842   4.003  0.1556 -0.6444  0.2445
  598MOL0     H80663  10.131   0.675   3.560  1.5426  0.3975 -3.6834
  598MOL0     H80664  10.136   0.831   3.383  1.2056 -3.6956  2.2462
  598MOL0     H80665  10.122   1.193   3.251 -3.7626 -0.2853 -1.7059
  598MOL0     H80666  10.199   1.031   3.275  1.6414  1.3285  1.9426
  598MOL0     H80667   9.898   1.109   3.309 -3.8497 -0.8097 -1.9165
  598MOL0     H80668   9.949   0.944   3.253  1.1207  0.1758 -0.6895
  598MOL0     H80669   9.871   0.992   3.065 -1.5060  1.2297 -2.4374
  598MOL0     H80670  10.015   1.082   3.037  0.0737  0.8720  1.1200
  598MOL0     H80671   9.766   1.198   3.130  2.6946 -3.6883  3.4897
  598MOL0     H80672   9.907   1.301   3.110  1.7012 -0.4261  0.8278
  598MOL0     H80673   9.928   1.230   2.867  0.7678 -1.8182  4.0298
  598MOL0     H80674   9.798   1.113   2.889  3.4560 -1.7750 -0.8977
  598MOL0     H80675   9.620   1.287   2.888  0.3747  1.2229  1.7991
  598MOL0     H80676   9.741   1.408   2.936 -1.3233 -0.4234  1.5205
  598MOL0     H80677   9.688   1.284   2.673 -0.6266 -1.6912  2.7165
  598MOL0     H80678   9.820   1.408   2.703 -1.6061  0.9518 -3.5495
  598MOL0     H80679   9.518   1.442   2.729  1.5396 -0.9681 -0.0588
  598MOL0     H80680   9.634   1.566   2.778 -0.9081  0.4814 -0.0837
  598MOL0     H80681   9.832   1.545   2.518  0.7316  2.2949 -2.2505
  598MOL0     H80682   9.849   1.428   2.231  0.5791  0.5506  1.5302
  598MOL0     H80683   9.708   1.477   2.137  2.5124  0.7950 -1.8843
  598MOL0     H80684   9.910   1.642   2.285  1.4930 -2.1800 -0.1350
  598MOL0     H80685   9.921   1.604   2.117  0.1029 -0.6670  1.1270
  598MOL0     H80686   9.655   1.736   2.193  1.2406 -2.8059  2.3425
  598MOL0     H80687   9.757   1.744   2.044 -1.0467  0.5597 -1.4381
  598MOL0     H80688   9.921   1.870   2.118 -1.0854  0.2806 -1.5564
  598MOL0     H80689   9.876   1.869   2.284  2.0283 -0.3080 -0.8571
  598MOL0     H80690   9.861   1.977   1.953 -1.4618 -2.5536  1.3819
  598MOL0     H80691   9.754   2.029   1.728  1.4696  1.5365  0.3846
  598MOL0     H80692   9.280   2.023   1.533  0.4782 -0.3359  0.1113
  598MOL0     H80693   9.196   1.988   1.319 -0.2608 -1.2269 -3.0286
  598MOL0     H80694   9.482   2.067   0.970 -1.9490 -2.1164 -1.6914
  598MOL0     H80695   9.328   2.076   0.883 -0.6094 -0.7541 -0.6534
  598MOL0     H80696   9.311   2.314   0.968 -1.2332 -0.3247  0.2669
  598MOL0     H80697   9.463   2.308   1.054  1.4631 -0.4765 -0.1290
  598MOL0     H80698   9.414   2.281   0.746 -4.4004  0.5785  2.4648
  598MOL0     H80699   9.469   2.428   0.815 -0.5136 -0.7142 -3.8672
  598MOL0     H80700   9.632   2.161   0.796  0.8836 -0.7265  1.9880
  598MOL0     H80701   9.664   2.297   0.906  3.4885 -1.7194 -0.7328
  598MOL0     H80702   9.673   2.463   0.711  1.3915  1.3939 -1.4421
  598MOL0     H80703   9.630   2.346   0.611 -3.2442  0.3596  1.7238
  598MOL0     H80704   9.878   2.340   0.785  1.1923  0.1183 -1.5710
  598MOL0     H80705   9.851   2.206   0.681 -2.2044  0.5628  2.4754
  598MOL0     H80706   9.886   2.336   0.484  1.6199 -2.1643  0.2481
  598MOL0     H80707  10.032   2.341   0.594  0.4864  2.6960  3.3732
  598MOL0     H80708   9.821   2.552   0.604  1.8798  2.4451  2.7012
  598MOL0     H80709   9.987   2.553   0.667  0.9417  1.3331  0.8471
  598MOL0     H80710   9.569   2.149   1.152  1.2325 -0.8179 -0.1430
  598MOL0     H80711   9.662   2.138   1.361  0.0341 -0.2686  1.2377
  598MOL0     H80712   9.392   2.123   1.946  0.2859  2.6199 -0.8504
  598MOL0     H80713   9.505   2.055   2.158 -0.5535  0.3744 -0.2684
  598MOL0     H80714  10.126   1.150   3.682 -2.5360 -0.3328  0.9621
  598MOL0     H80715  10.147   0.962   3.862  0.4831 -1.8398  1.1980
  598MOL0     H80716  10.396   0.702   3.562 -1.8628  1.5001 -0.0445
  598MOL0     H80717  10.602   0.801   3.488 -1.9860 -0.4988  0.1812
  598MOL0     H80718  10.826   0.798   3.551 -2.0403 -0.5703  1.1805
  598MOL0     H80719  10.885   0.854   3.708 -0.5296 -0.1588  0.6350
  598MOL0     H80720  11.057   0.898   3.548  0.1019  0.7295 -1.4158
  598MOL0     H80721  10.996   1.060   3.570 -0.0844  0.3723 -0.7779
  598MOL0     H80722  10.818   1.002   3.388  0.0021 -0.6335 -2.3263
  598MOL0     H80723  10.957   0.900   3.322 -1.2542 -1.6003  0.4491
  598MOL0     H80724  10.941   1.126   3.233  3.7278  0.9184 -1.1030
  598MOL0     H80725  10.958   1.197   3.393 -3.5927 -0.0602 -0.5439
  598MOL0     H80726  11.355   1.069   3.287  1.0413  1.2887 -0.0359
  598MOL0     H80727  10.666   0.957   3.875  2.8970 -1.1018 -2.1435
  598MOL0     H80728  10.356   0.815   4.035 -0.4493  3.0710  1.9133
  598MOL0     H80729  10.527   0.767   4.044  0.5976 -0.9469 -1.0252
  598MOL0     H80730  10.486   0.938   4.046 -0.4725 -0.9738  1.4541
  599MOL0     O80731   5.704   7.638   9.562 -0.3334 -0.3944  0.5558
  599MOL0     C80732   5.718   7.747   9.609 -0.5016 -0.1886  0.8018
  599MOL0     O80733   5.775   7.771   9.739 -0.6288 -0.1483  0.3356
  599MOL0     C80734   5.807   7.671   9.827 -0.8123  0.5996 -0.2009
  599MOL0     C80735   5.884   7.563   9.805 -1.6294  2.3122 -0.1472
  599MOL0     C80736   5.919   7.472   9.910  0.0939 -0.8242  0.0299
  599MOL0     C80737   5.893   7.509  10.040  0.2702  0.4922 -0.2300
  599MOL0     O80738   5.924   7.403  10.126  0.4946  0.1812  0.0199
  599MOL0     C80739   5.902   7.413  10.265  0.3756 -0.1559 -0.1136
  599MOL0     C80740   5.996   7.323  10.347 -0.4883 -0.4847  0.0989
  599MOL0     C80741   6.008   7.181  10.296  0.9087 -0.1078 -0.7182
  599MOL0     C80742   5.889   7.089  10.348 -0.0389  0.0751 -0.5593
  599MOL0     C80743   5.782   7.074  10.241 -0.1317 -0.9237  0.1750
  599MOL0     C80744   5.647   7.037  10.292 -0.2682  0.5472  0.4184
  599MOL0     C80745   5.647   6.903  10.368  0.3858 -0.1169  0.0381
  599MOL0     C80746   5.504   6.844  10.392 -0.9175  0.3417 -0.4334
  599MOL0     N80747   5.508   6.731  10.482  1.0260  0.3924  0.1444
  599MOL0     C80748   5.478   6.743  10.614  0.1686 -0.5708  0.1696
  599MOL0     C80749   5.484   6.617  10.657  0.1515 -0.0076 -0.7822
  599MOL0     C80750   5.457   6.560  10.796 -0.1743 -0.6591  0.6852
  599MOL0     C80751   5.342   6.628  10.876 -0.7651 -0.8836  0.1720
  599MOL0     C80752   5.409   6.689  11.003  0.4489  0.3410  0.3387
  599MOL0     C80753   5.292   6.756  11.088  0.3985  0.1770 -0.9575
  599MOL0     O80754   5.209   6.670  11.162 -0.0842  0.2800  0.1645
  599MOL0     C80755   5.125   6.720  11.260  0.3607 -0.0643  0.3271
  599MOL0     C80756   5.056   6.631  11.326 -0.5689 -0.7745 -0.0253
  599MOL0     C80757   4.963   6.667  11.430 -0.3072  0.2126  0.1063
  599MOL0     C80758   4.954   6.802  11.468  1.0205 -0.5842  0.8475
  599MOL0     C80759   4.846   6.855  11.560 -0.1985  1.0142 -0.1981
  599MOL0     O80760   4.801   6.992  11.567  0.3217  0.2027  0.2427
  599MOL0     C80761   4.699   7.045  11.637 -0.1279 -0.1692 -1.0379
  599MOL0     C80762   4.650   6.987  11.758 -0.2201 -0.3027 -0.5752
  599MOL0     C80763   4.525   7.034  11.817  0.4852  1.1741  0.3757
  599MOL0     C80764   4.469   7.161  11.779 -0.2546  0.1292  0.5518
  599MOL0     O80765   4.368   7.237  11.835 -0.1475 -0.3759  0.4591
  599MOL0     C80766   4.320   7.192  11.963 -0.9918  0.4865  0.5193
  599MOL0     C80767   4.213   7.280  12.028  0.5336  0.4316 -0.6309
  599MOL0     C80768   4.261   7.360  12.144  0.5165  0.1103 -0.5141
  599MOL0     C80769   4.148   7.435  12.224  0.5344 -0.3830 -0.8639
  599MOL0     C80770   4.197   7.515  12.349 -0.5521 -0.3007  0.8462
  599MOL0     C80771   4.295   7.632  12.317 -0.4019  0.1951 -0.5936
  599MOL0     C80772   4.242   7.732  12.217 -0.0481 -0.6922  0.3817
  599MOL0     C80773   4.314   7.868  12.232 -0.5098  0.1851  0.1752
  599MOL0    Cl80774   4.243   8.000  12.127  0.1172  0.3141 -0.5209
  599MOL0     C80775   4.518   7.209  11.655 -0.1399  0.3331 -1.4360
  599MOL0     C80776   4.632   7.152  11.584  0.1453 -0.0768 -1.3094
  599MOL0     O80777   4.801   6.763  11.631  0.9143  0.1764  0.5242
  599MOL0     C80778   5.033   6.894  11.400  0.4634 -0.4177  1.3048
  599MOL0     C80779   5.118   6.853  11.303  0.0377  0.3321 -1.4883
  599MOL0     N80780   5.500   6.524  10.553 -0.1523  0.4038  0.0437
  599MOL0     N80781   5.531   6.599  10.448  0.7339  0.7929 -0.6018
  599MOL0     C80782   5.817   7.624  10.072  0.2291  0.1247 -0.0235
  599MOL0     C80783   5.764   7.700   9.955 -0.5717  0.1234 -1.3129
  599MOL0     C80784   5.683   7.871   9.536  0.3284 -0.1168  0.3922
  599MOL0     C80785   5.767   7.986   9.548  0.4451  0.2894  0.2946
  599MOL0     C80786   5.737   8.104   9.479 -0.0420  0.6783  0.2700
  599MOL0     C80787   5.615   8.118   9.413 -0.7094  0.3602 -0.1787
  599MOL0     O80788   5.587   8.244   9.356  1.5035 -0.4121  0.1711
  599MOL0     C80789   5.504   8.328   9.435 -0.3780  0.8530  0.4163
  599MOL0     C80790   5.560   8.471   9.441 -0.0686 -0.1765  0.5638
  599MOL0     C80791   5.444   8.569   9.433 -0.3415 -0.6105 -0.7312
  599MOL0     C80792   5.508   8.707   9.437 -0.2379  0.0700 -0.0381
  599MOL0     C80793   5.411   8.793   9.373  0.2713  0.8374  0.0383
  599MOL0     C80794   5.324   8.875   9.340 -0.2793 -0.6420  0.3014
  599MOL0     C80795   5.527   8.011   9.398 -0.6199  0.9818  0.1717
  599MOL0     C80796   5.554   7.886   9.456 -1.0563 -0.6135 -0.4154
  599MOL0     C80797   5.457   7.778   9.419  0.5583 -0.3056  1.0460
  599MOL0     H80798   5.915   7.533   9.705 -0.6273 -0.9937  1.0166
  599MOL0     H80799   5.962   7.377   9.883  0.1084 -0.4171 -1.4449
  599MOL0     H80800   5.911   7.513  10.308 -0.1298 -0.6163  1.1027
  599MOL0     H80801   5.799   7.384  10.287  1.3440 -1.8241  2.8287
  599MOL0     H80802   5.962   7.323  10.451  1.2297  0.2506  0.7042
  599MOL0     H80803   6.098   7.361  10.355 -0.6052 -0.4140  1.7203
  599MOL0     H80804   6.106   7.147  10.331  0.7503  1.4993  1.4949
  599MOL0     H80805   6.014   7.167  10.188  1.7451 -1.5649 -0.4971
  599MOL0     H80806   5.929   6.991  10.376 -0.5019  0.7482  2.9586
  599MOL0     H80807   5.837   7.137  10.432  1.7184  2.5737 -0.7913
  599MOL0     H80808   5.774   7.174  10.198 -2.0292 -2.2575 -2.9900
  599MOL0     H80809   5.819   7.008  10.163 -0.6560 -3.3811  1.8797
  599MOL0     H80810   5.615   7.120  10.356 -2.3958  0.0100  0.1226
  599MOL0     H80811   5.582   7.031  10.204 -0.2936  2.0350  0.3214
  599MOL0     H80812   5.689   6.913  10.468 -0.5399  0.8261  0.3528
  599MOL0     H80813   5.708   6.827  10.319  1.3383  1.3644 -1.1486
  599MOL0     H80814   5.445   6.928  10.429  0.9018  1.4115  0.1714
  599MOL0     H80815   5.468   6.809  10.295 -1.4559  0.2476 -0.2007
  599MOL0     H80816   5.487   6.836  10.670  0.1409  0.3651 -1.3287
  599MOL0     H80817   5.436   6.453  10.786  1.1500 -1.3635  4.0534
  599MOL0     H80818   5.548   6.558  10.857  2.4386  2.6209 -2.6589
  599MOL0     H80819   5.283   6.702  10.821 -1.3434 -1.3152  0.2113
  599MOL0     H80820   5.276   6.546  10.905 -0.4874 -1.5896 -1.1096
  599MOL0     H80821   5.485   6.762  10.975  0.0217  1.1383  1.2027
  599MOL0     H80822   5.467   6.611  11.054  1.9180  0.4838 -1.0267
  599MOL0     H80823   5.226   6.811  11.020 -1.2960 -2.2732 -1.4396
  599MOL0     H80824   5.336   6.823  11.161 -0.1802  0.0417 -0.4751
  599MOL0     H80825   5.071   6.526  11.302 -0.9425 -0.4434 -1.9227
  599MOL0     H80826   4.887   6.594  11.460 -0.1425 -0.3049 -0.7076
  599MOL0     H80827   4.699   6.908  11.813 -0.1418 -0.1611 -0.4423
  599MOL0     H80828   4.486   6.992  11.909 -2.1331  1.5898 -0.4626
  599MOL0     H80829   4.278   7.091  11.956 -1.4198  0.7393 -0.7562
  599MOL0     H80830   4.409   7.184  12.026 -0.4308 -0.7893 -0.3879
  599MOL0     H80831   4.180   7.345  11.946  2.1062 -0.7039 -2.2548
  599MOL0     H80832   4.132   7.213  12.058  0.6134  1.2632  1.5758
  599MOL0     H80833   4.318   7.295  12.211  1.3188  2.7480  1.5290
  599MOL0     H80834   4.326   7.445  12.121 -1.0370  2.3209  2.5530
  599MOL0     H80835   4.084   7.355  12.262  2.9802 -1.5824  1.0104
  599MOL0     H80836   4.092   7.509  12.166 -1.7893 -0.3374  1.2990
  599MOL0     H80837   4.248   7.450  12.420  0.7530 -1.6854 -1.2457
  599MOL0     H80838   4.113   7.557  12.405 -1.2544 -3.3437  2.2652
  599MOL0     H80839   4.305   7.694  12.406 -0.2724 -0.1893 -0.3365
  599MOL0     H80840   4.393   7.583  12.307 -0.5930 -0.2399 -0.3581
  599MOL0     H80841   4.137   7.760  12.227  0.1594  1.8667 -3.0277
  599MOL0     H80842   4.258   7.694  12.116  2.3851 -2.3790  1.3019
  599MOL0     H80843   4.314   7.906  12.334 -0.0399  3.8670 -1.0540
  599MOL0     H80844   4.420   7.857  12.206 -0.0985 -0.8719  2.0872
  599MOL0     H80845   4.472   7.305  11.636 -2.4560 -0.0798  1.4282
  599MOL0     H80846   4.670   7.173  11.484  5.8942  2.1968  0.9330
  599MOL0     H80847   5.031   7.001  11.416  3.1480  0.0482 -0.7832
  599MOL0     H80848   5.178   6.924  11.248  2.5811  0.2306  0.9107
  599MOL0     H80849   5.788   7.654  10.172 -0.8126 -5.0115  1.4639
  599MOL0     H80850   5.696   7.784   9.964  1.7124  2.1739 -2.0369
  599MOL0     H80851   5.845   7.967   9.621  0.0667 -2.2413  0.1434
  599MOL0     H80852   5.804   8.186   9.504  2.8585 -1.8903  1.4145
  599MOL0     H80853   5.487   8.283   9.533  1.7847 -0.7618  0.1033
  599MOL0     H80854   5.407   8.332   9.385 -1.0940  2.2417  1.8188
  599MOL0     H80855   5.628   8.494   9.358  1.2416  3.5632  2.4342
  599MOL0     H80856   5.610   8.464   9.539  1.8340 -3.7326 -0.4524
  599MOL0     H80857   5.378   8.567   9.521  3.0068  0.9721  2.0892
  599MOL0     H80858   5.398   8.556   9.335  0.8384  0.1077 -1.4085
  599MOL0     H80859   5.532   8.749   9.535  2.1624 -0.6141 -0.2652
  599MOL0     H80860   5.600   8.703   9.377 -0.8095 -1.5111 -0.8685
  599MOL0     H80861   5.245   8.941   9.312  1.0679 -0.2555 -3.1126
  599MOL0     H80862   5.439   8.016   9.334 -1.1770 -2.4313  0.4536
  599MOL0     H80863   5.378   7.776   9.495 -0.6592  5.1450  0.3504
  599MOL0     H80864   5.406   7.801   9.325 -0.9277 -1.4785  1.5419
  599MOL0     H80865   5.508   7.682   9.416  1.6526  0.2528  1.2279
  600MOL0     O80866   9.402   7.937   2.970 -0.7688 -0.6525  0.3464
  600MOL0     C80867   9.314   7.869   2.917 -0.4221  0.9514  0.7987
  600MOL0     O80868   9.178   7.881   2.930  0.0704  0.2972 -0.1984
  600MOL0     C80869   9.113   7.994   2.971  0.2214 -0.5440  0.1768
  600MOL0     C80870   9.169   8.121   2.942  0.6939 -0.7508  0.1774
  600MOL0     C80871   9.101   8.236   2.994 -0.5005  0.3786 -0.7737
  600MOL0     C80872   8.970   8.223   3.043  0.7079  0.2784  0.1394
  600MOL0     O80873   8.897   8.337   3.078 -0.6859 -0.6583 -0.4156
  600MOL0     C80874   8.898   8.377   3.217  0.8984 -0.8946 -0.5007
  600MOL0     C80875   8.792   8.481   3.260 -0.0800 -0.2128 -0.0114
  600MOL0     C80876   8.660   8.408   3.241  0.0365 -1.2153 -0.9946
  600MOL0     C80877   8.547   8.499   3.296 -0.1798  0.3056  0.1108
  600MOL0     C80878   8.408   8.452   3.310  0.3050 -0.1963 -0.1801
  600MOL0     C80879   8.326   8.583   3.365 -0.9905  0.5120 -0.2793
  600MOL0     C80880   8.170   8.562   3.350 -0.1211  0.8422  0.0180
  600MOL0     C80881   8.127   8.455   3.458  0.2303 -0.6591 -0.5497
  600MOL0     N80882   8.157   8.500   3.594 -0.3880 -0.1044  0.9419
  600MOL0     C80883   8.078   8.580   3.669  0.7587 -0.1340  0.9073
  600MOL0     C80884   8.155   8.579   3.791  0.6285  0.5520 -0.4635
  600MOL0     C80885   8.123   8.678   3.907  0.7147 -0.2415  0.3283
  600MOL0     C80886   8.221   8.788   3.916 -0.3931 -0.3724  0.1862
  600MOL0     C80887   8.226   8.865   3.788 -0.2628  0.0119  0.0036
  600MOL0     C80888   8.356   8.831   3.693  0.6315 -0.7192 -0.1833
  600MOL0     O80889   8.332   8.883   3.563  0.4141 -0.7957 -0.0181
  600MOL0     C80890   8.449   8.881   3.479  0.8841  0.2254  0.1917
  600MOL0     C80891   8.456   8.978   3.376  0.1404 -0.4741  0.3035
  600MOL0     C80892   8.574   8.984   3.300  0.7054  0.3108  0.0590
  600MOL0     C80893   8.686   8.899   3.320  0.6650  0.2425 -0.0596
  600MOL0     C80894   8.800   8.900   3.225 -0.0198 -0.4529  0.2227
  600MOL0     O80895   8.891   8.791   3.246  0.6536 -0.6005 -1.0330
  600MOL0     C80896   8.989   8.791   3.153  0.0705  0.3216  0.6144
  600MOL0     C80897   9.113   8.836   3.181 -0.2671 -0.3712  0.4307
  600MOL0     C80898   9.211   8.851   3.086  0.0768  0.0702  0.1021
  600MOL0     C80899   9.191   8.825   2.950  0.3008 -1.1265  0.3833
  600MOL0     O80900   9.289   8.823   2.857  0.7119  0.4982 -0.9273
  600MOL0     C80901   9.425   8.876   2.895  1.0173 -0.1698  0.4815
  600MOL0     C80902   9.495   8.910   2.765 -0.9523  0.5915  0.8086
  600MOL0     C80903   9.541   8.788   2.683  0.3578 -0.5721 -0.7759
  600MOL0     C80904   9.597   8.836   2.546 -1.4552 -0.3328  1.0183
  600MOL0     C80905   9.683   8.716   2.488  0.0489 -0.7626  0.6331
  600MOL0     C80906   9.734   8.754   2.343  0.1125 -0.2634 -0.6611
  600MOL0     C80907   9.817   8.883   2.336 -0.1131 -0.1703 -0.0975
  600MOL0     C80908   9.895   8.903   2.202 -0.2301 -0.2425 -0.7977
  600MOL0    Cl80909   9.929   9.085   2.184  0.2376 -0.2659 -0.3241
  600MOL0     C80910   9.062   8.769   2.919  0.1760  0.3148  0.5290
  600MOL0     C80911   8.955   8.754   3.020  0.2953 -0.1124  0.4415
  600MOL0     O80912   8.808   8.991   3.135 -0.7531 -0.3155 -1.1278
  600MOL0     C80913   8.681   8.813   3.428  0.1658 -0.0661  0.1780
  600MOL0     C80914   8.561   8.796   3.509  0.4415 -0.7193  0.1468
  600MOL0     N80915   8.252   8.481   3.781 -0.6078  0.2695 -0.1431
  600MOL0     N80916   8.253   8.435   3.667 -0.0435 -0.4080  0.0149
  600MOL0     C80917   8.919   8.097   3.057  0.3463  0.6258 -0.1694
  600MOL0     C80918   8.996   7.982   3.032  0.9256  0.0998 -0.3270
  600MOL0     C80919   9.361   7.753   2.839 -0.6823  0.6346 -0.3898
  600MOL0     C80920   9.265   7.666   2.788 -0.0277  0.5333  0.1831
  600MOL0     C80921   9.295   7.550   2.720 -0.1612 -0.2446  0.4108
  600MOL0     C80922   9.425   7.511   2.700 -1.5489 -1.1899 -0.3636
  600MOL0     O80923   9.463   7.401   2.633 -0.1057  0.2253 -0.0117
  600MOL0     C80924   9.364   7.319   2.568  1.3701 -0.1314  0.5767
  600MOL0     C80925   9.420   7.201   2.489  0.4100 -0.4703 -0.0496
  600MOL0     C80926   9.298   7.113   2.445 -0.2690  0.0180 -0.9365
  600MOL0     C80927   9.353   6.994   2.368 -0.4683  0.0687 -0.6675
  600MOL0     C80928   9.451   6.903   2.432 -0.0579 -0.6355 -0.4340
  600MOL0     C80929   9.528   6.830   2.496  0.9113 -0.1539 -0.6666
  600MOL0     C80930   9.527   7.588   2.756 -0.6291  0.3522  0.0499
  600MOL0     C80931   9.497   7.709   2.831 -0.1545  0.5257 -0.7262
  600MOL0     C80932   9.621   7.771   2.891 -0.2505 -0.5429  0.2620
  600MOL0     H80933   9.264   8.126   2.890  1.8200 -3.0750  1.8507
  600MOL0     H80934   9.135   8.337   2.970 -1.1702  0.6238 -0.7151
  600MOL0     H80935   8.893   8.291   3.284 -0.1755 -0.3387  0.1733
  600MOL0     H80936   9.004   8.403   3.222  0.8224 -0.7032  4.1383
  600MOL0     H80937   8.793   8.564   3.190  0.4584 -1.0879 -1.0680
  600MOL0     H80938   8.803   8.515   3.364 -1.5684 -0.8486  0.3904
  600MOL0     H80939   8.658   8.311   3.293  0.4753  0.4414  2.3897
  600MOL0     H80940   8.640   8.379   3.137  2.0894 -1.4204 -1.3842
  600MOL0     H80941   8.568   8.534   3.398  0.2664 -0.1554  0.1846
  600MOL0     H80942   8.539   8.588   3.232 -0.5758  1.0493  1.1586
  600MOL0     H80943   8.370   8.424   3.211  2.9201 -3.8050 -0.3640
  600MOL0     H80944   8.399   8.363   3.372 -0.3998  1.5076  2.2934
  600MOL0     H80945   8.357   8.597   3.469  0.0718 -1.0135 -0.3401
  600MOL0     H80946   8.352   8.660   3.293 -1.1342  0.4448 -0.4018
  600MOL0     H80947   8.141   8.535   3.248 -0.3202  0.4687  0.1723
  600MOL0     H80948   8.138   8.665   3.364  1.4276  1.2671  0.6749
  600MOL0     H80949   8.018   8.446   3.457  0.2370 -0.8730  0.1864
  600MOL0     H80950   8.178   8.362   3.429 -2.1613 -1.9984 -0.7806
  600MOL0     H80951   8.002   8.652   3.641 -0.5866 -2.4263 -1.7711
  600MOL0     H80952   8.026   8.727   3.893 -0.4700 -1.4127  3.5505
  600MOL0     H80953   8.112   8.623   4.001 -2.5540 -0.2955  0.0095
  600MOL0     H80954   8.209   8.849   4.006  0.9057 -1.5244  1.1703
  600MOL0     H80955   8.319   8.743   3.930 -0.7983 -1.4756 -0.3695
  600MOL0     H80956   8.216   8.973   3.806 -1.4916 -0.2604  1.1736
  600MOL0     H80957   8.138   8.840   3.728 -0.7636  0.6955  0.4318
  600MOL0     H80958   8.349   8.723   3.679  0.4279 -0.9727  1.6360
  600MOL0     H80959   8.445   8.870   3.744  1.0634 -1.3814 -0.4210
  600MOL0     H80960   8.376   9.045   3.346  0.3510 -0.0437  0.6927
  600MOL0     H80961   8.558   9.042   3.210 -0.9314  1.0531  0.7831
  600MOL0     H80962   9.133   8.882   3.277 -1.5404  1.0287  0.0708
  600MOL0     H80963   9.300   8.897   3.130 -1.0028  0.8739  1.5607
  600MOL0     H80964   9.427   8.971   2.950 -1.7193 -0.2716  0.8662
  600MOL0     H80965   9.491   8.810   2.952 -0.4741 -1.5328  0.6863
  600MOL0     H80966   9.437   8.977   2.701  1.0628  1.5843 -0.0592
  600MOL0     H80967   9.586   8.965   2.794  0.7768 -1.4658 -0.4144
  600MOL0     H80968   9.615   8.725   2.733 -1.5575 -0.7450  2.1122
  600MOL0     H80969   9.451   8.726   2.673  1.1911 -1.5233 -2.7590
  600MOL0     H80970   9.673   8.914   2.555  1.8178 -2.7214 -2.7091
  600MOL0     H80971   9.524   8.881   2.477  2.0039 -0.0201 -2.8044
  600MOL0     H80972   9.633   8.619   2.484 -0.1249 -0.6572  0.2293
  600MOL0     H80973   9.767   8.702   2.557  1.3567  0.9238 -0.5450
  600MOL0     H80974   9.788   8.676   2.289  0.4302  1.0882 -2.3977
  600MOL0     H80975   9.648   8.775   2.279 -0.9820  2.9126  1.5912
  600MOL0     H80976   9.887   8.884   2.420 -0.2673 -0.0119  0.0304
  600MOL0     H80977   9.749   8.966   2.356  0.4269  0.3827 -0.5376
  600MOL0     H80978   9.990   8.851   2.216 -1.2755 -3.5107 -4.1981
  600MOL0     H80979   9.846   8.863   2.113  0.1480 -2.3652 -0.1195
  600MOL0     H80980   9.050   8.753   2.812 -0.0577  1.8666  0.2961
  600MOL0     H80981   8.857   8.725   2.985 -0.8799  3.0617  0.8220
  600MOL0     H80982   8.757   8.738   3.448  1.5138  1.5845  1.4990
  600MOL0     H80983   8.548   8.715   3.580 -0.0316 -0.6701  0.1190
  600MOL0     H80984   8.823   8.085   3.105  1.2607 -3.2058  1.0916
  600MOL0     H80985   8.957   7.883   3.055  0.6083  0.4854  0.8250
  600MOL0     H80986   9.159   7.686   2.790 -0.7340 -2.1789 -2.9178
  600MOL0     H80987   9.211   7.486   2.692  0.8140 -0.7205 -1.5874
  600MOL0     H80988   9.305   7.375   2.494  0.2879  1.4352  2.5137
  600MOL0     H80989   9.294   7.287   2.647 -0.2081 -0.7755 -1.0103
  600MOL0     H80990   9.487   7.140   2.550 -0.2567 -0.2219  0.9593
  600MOL0     H80991   9.459   7.234   2.392 -0.4590  0.4722 -0.0927
  600MOL0     H80992   9.222   7.166   2.387 -2.4847 -0.7197  1.1768
  600MOL0     H80993   9.252   7.086   2.540  0.4748  3.1981  0.4674
  600MOL0     H80994   9.262   6.937   2.349 -1.0230  1.2353 -1.7499
  600MOL0     H80995   9.392   7.026   2.271 -2.1902 -0.8119 -1.6928
  600MOL0     H80996   9.596   6.758   2.536  0.1427 -1.6023 -1.8599
  600MOL0     H80997   9.632   7.564   2.747 -0.9583 -1.0572 -0.2442
  600MOL0     H80998   9.598   7.799   2.994  3.1139  1.4130  0.6510
  600MOL0     H80999   9.695   7.690   2.882  0.6843  0.5310 -4.7566
  600MOL0     H81000   9.665   7.854   2.834 -2.5595  1.7486  1.6227
  601MOL0     O81001   6.267   9.554   8.310 -0.8499 -0.0162 -0.0641
  601MOL0     C81002   6.259   9.640   8.403 -0.1682  0.7425 -0.6366
  601MOL0     O81003   6.306   9.765   8.394  1.0689  0.0384  0.0551
  601MOL0     C81004   6.401   9.809   8.309  0.5060 -0.1199  0.4462
  601MOL0     C81005   6.525   9.748   8.274 -0.7711 -0.3272 -0.0284
  601MOL0     C81006   6.600   9.816   8.186  0.1018  0.0744 -0.2940
  601MOL0     C81007   6.581   9.943   8.146  0.0476  0.3500  0.0683
  601MOL0     O81008   6.662  10.024   8.072 -0.0632 -0.0290  0.1708
  601MOL0     C81009   6.777   9.971   8.007  0.5925  0.3953 -1.5970
  601MOL0     C81010   6.905   9.994   8.087  1.1700 -0.1715  0.1263
  601MOL0     C81011   6.926  10.146   8.127  1.0444  0.0126  0.5368
  601MOL0     C81012   6.960  10.227   8.010 -0.7423 -0.4289  0.8948
  601MOL0     C81013   6.979  10.372   8.039 -0.3663  0.3603 -0.1547
  601MOL0     C81014   7.022  10.434   7.907 -0.1903 -0.4446  0.4970
  601MOL0     C81015   7.021  10.594   7.914  0.9129 -0.2778 -0.2083
  601MOL0     C81016   7.079  10.656   7.791 -0.6514 -0.5221 -0.4653
  601MOL0     N81017   6.972  10.651   7.690 -0.8065 -0.6765  0.8531
  601MOL0     C81018   6.886  10.753   7.667  0.2693 -0.0440 -0.3175
  601MOL0     C81019   6.798  10.705   7.573  0.0097  0.4361 -0.5111
  601MOL0     C81020   6.681  10.787   7.530  0.8244  0.3319  0.9026
  601MOL0     C81021   6.636  10.751   7.389  0.4088  0.3774 -0.1545
  601MOL0     C81022   6.522  10.653   7.398 -0.2008  0.3605  0.2469
  601MOL0     C81023   6.552  10.509   7.441 -0.4405 -0.2902  0.1813
  601MOL0     O81024   6.464  10.407   7.401  0.0662  1.3667 -0.7697
  601MOL0     C81025   6.351  10.387   7.483 -0.2096  0.0035 -0.0792
  601MOL0     C81026   6.300  10.480   7.575  0.3823 -0.5918 -0.3190
  601MOL0     C81027   6.180  10.460   7.633  0.3907 -0.1684 -1.1104
  601MOL0     C81028   6.101  10.351   7.606 -0.5154 -0.5143 -0.7014
  601MOL0     C81029   5.964  10.344   7.640  0.1910 -0.7248  0.4022
  601MOL0     O81030   5.905  10.221   7.649  0.5734 -0.1239  0.3709
  601MOL0     C81031   5.774  10.240   7.678  0.2497  0.1654  0.9417
  601MOL0     C81032   5.688  10.250   7.577  0.6997  0.3159 -0.9861
  601MOL0     C81033   5.552  10.258   7.601 -0.9014  0.0801  0.1145
  601MOL0     C81034   5.508  10.289   7.734  0.0783 -0.2166  0.5281
  601MOL0     O81035   5.377  10.322   7.755 -0.4746 -0.7345 -0.7962
  601MOL0     C81036   5.278  10.284   7.666  0.7770  0.8887  0.5503
  601MOL0     C81037   5.135  10.301   7.727 -0.6529 -0.2009  1.0394
  601MOL0     C81038   5.093  10.164   7.762  1.0790 -0.2691  0.9103
  601MOL0     C81039   4.945  10.164   7.820 -1.8111  0.4176  0.7096
  601MOL0     C81040   4.904  10.024   7.865  0.3101 -0.4285 -0.0506
  601MOL0     C81041   4.761  10.013   7.933  0.8962 -0.0285  0.1801
  601MOL0     C81042   4.761   9.912   8.045 -0.6277  0.1190 -0.1372
  601MOL0     C81043   4.620   9.886   8.089 -0.3930  0.2135  0.3451
  601MOL0    Cl81044   4.553  10.030   8.180  0.1900 -0.7579  0.0342
  601MOL0     C81045   5.602  10.287   7.838 -0.0600 -0.3873 -0.1106
  601MOL0     C81046   5.731  10.263   7.811  0.3043 -0.2655 -0.4016
  601MOL0     O81047   5.906  10.452   7.641 -1.1868  0.6615  0.4737
  601MOL0     C81048   6.160  10.251   7.531  0.2937  0.5776 -0.1812
  601MOL0     C81049   6.282  10.266   7.456 -0.0535 -0.5304  0.8068
  601MOL0     N81050   6.839  10.574   7.527  0.0653  0.8553  0.0685
  601MOL0     N81051   6.944  10.544   7.603  0.2002  0.0431  0.0009
  601MOL0     C81052   6.459  10.005   8.185  0.3794  0.3499  0.4524
  601MOL0     C81053   6.364   9.939   8.257 -0.6354  0.5446 -0.8068
  601MOL0     C81054   6.181   9.604   8.533  0.3735 -0.0379  0.1791
  601MOL0     C81055   6.222   9.671   8.654  0.0460 -0.9050  0.4089
  601MOL0     C81056   6.144   9.660   8.769 -1.2745 -1.1519 -0.4346
  601MOL0     C81057   6.036   9.575   8.775 -0.3365  0.7488  0.6007
  601MOL0     O81058   5.966   9.546   8.886  0.1949 -0.5594  0.2211
  601MOL0     C81059   5.938   9.658   8.973 -0.1386 -0.4277  0.4359
  601MOL0     C81060   5.854   9.603   9.095 -0.1057  0.3428  0.6856
  601MOL0     C81061   5.960   9.551   9.198  0.3544  0.3445  0.1379
  601MOL0     C81062   5.906   9.563   9.342 -0.0426  0.0703 -0.4022
  601MOL0     C81063   6.006   9.531   9.448  1.3462  0.0305  0.4714
  601MOL0     C81064   6.070   9.491   9.539 -0.5460  0.3936  0.7851
  601MOL0     C81065   5.995   9.502   8.654 -0.3824  0.0229 -0.4578
  601MOL0     C81066   6.068   9.513   8.536  0.3774  0.2965 -0.3456
  601MOL0     C81067   6.002   9.431   8.427  0.4531 -0.3125  1.4574
  601MOL0     H81068   6.534   9.647   8.311 -3.9454 -0.9492 -0.5964
  601MOL0     H81069   6.682   9.755   8.149  0.8808 -1.0234  2.9309
  601MOL0     H81070   6.768   9.868   7.973  1.0675 -0.2915  0.2269
  601MOL0     H81071   6.786  10.028   7.914 -0.2321  1.3292 -1.1254
  601MOL0     H81072   6.993   9.961   8.032  0.0863 -1.0718 -1.1193
  601MOL0     H81073   6.895   9.928   8.174  0.8124 -0.0302  0.1933
  601MOL0     H81074   7.005  10.158   8.202 -0.7353  2.1552  2.2541
  601MOL0     H81075   6.844  10.200   8.177  1.3560 -0.2031  1.3020
  601MOL0     H81076   7.050  10.191   7.959  0.3787 -0.6137  2.9310
  601MOL0     H81077   6.886  10.217   7.929  0.8784 -0.5043 -0.6469
  601MOL0     H81078   6.887  10.427   8.064 -0.1298  2.8112 -3.9298
  601MOL0     H81079   7.056  10.392   8.114 -0.7693  2.7335 -0.2910
  601MOL0     H81080   7.126  10.403   7.890  0.4074  1.6899 -0.1015
  601MOL0     H81081   6.957  10.402   7.825 -0.7216 -0.4600  0.9161
  601MOL0     H81082   7.083  10.633   7.995  4.0396 -0.5535 -2.2667
  601MOL0     H81083   6.917  10.623   7.929  0.2105 -3.1840  1.2894
  601MOL0     H81084   7.120  10.758   7.796  2.5535 -1.7603  1.1373
  601MOL0     H81085   7.162  10.598   7.750 -0.8734 -0.3315 -1.1961
  601MOL0     H81086   6.886  10.846   7.722 -1.7729 -1.2894  2.0212
  601MOL0     H81087   6.596  10.779   7.599  0.1799 -1.1106 -0.0202
  601MOL0     H81088   6.699  10.895   7.528 -0.9518  0.7752 -3.7552
  601MOL0     H81089   6.609  10.844   7.338 -0.3241  0.5527  0.5193
  601MOL0     H81090   6.716  10.708   7.329  0.7154  1.6940 -0.7204
  601MOL0     H81091   6.476  10.641   7.300 -2.6762 -0.8250  1.4392
  601MOL0     H81092   6.448  10.690   7.470  0.4350 -1.7012  2.0759
  601MOL0     H81093   6.569  10.510   7.549 -0.1937  2.0140  0.1669
  601MOL0     H81094   6.640  10.475   7.385 -1.0397 -0.1732 -0.8437
  601MOL0     H81095   6.346  10.575   7.599  2.6467 -2.1392  2.0014
  601MOL0     H81096   6.144  10.533   7.704  1.7395 -0.6343  0.0876
  601MOL0     H81097   5.714  10.246   7.471 -0.0255 -0.1710 -1.1619
  601MOL0     H81098   5.483  10.262   7.517 -1.1542  0.6298  0.3397
  601MOL0     H81099   5.275  10.347   7.576  0.5857  0.5294  0.3000
  601MOL0     H81100   5.288  10.180   7.631 -0.8601  1.1358 -0.8267
  601MOL0     H81101   5.147  10.369   7.812  0.5500  1.1233 -0.1380
  601MOL0     H81102   5.054  10.339   7.664 -1.5333 -0.0720  2.2202
  601MOL0     H81103   5.096  10.083   7.688  0.0717 -3.8305  4.3913
  601MOL0     H81104   5.148  10.121   7.846  1.2104 -1.6660  0.1359
  601MOL0     H81105   4.871  10.206   7.750 -1.1472  2.2691  1.0628
  601MOL0     H81106   4.959  10.231   7.905 -1.6520 -0.8281  1.6980
  601MOL0     H81107   4.980   9.991   7.937 -0.3694 -2.7919 -0.3318
  601MOL0     H81108   4.903   9.961   7.776 -0.9156 -0.6533  0.0979
  601MOL0     H81109   4.740  10.107   7.983  0.2869 -0.5514  0.9402
  601MOL0     H81110   4.697   9.976   7.853  0.5106  0.3286  0.3272
  601MOL0     H81111   4.826   9.948   8.124  0.1805  0.3526 -0.8954
  601MOL0     H81112   4.792   9.816   8.004  0.8113  0.4191  0.2004
  601MOL0     H81113   4.554   9.849   8.009  2.4941 -2.3701 -1.0589
  601MOL0     H81114   4.618   9.805   8.163  0.0233  2.8472  3.4276
  601MOL0     H81115   5.567  10.308   7.939 -0.9732 -2.7624  0.1234
  601MOL0     H81116   5.812  10.260   7.884  0.1596 -1.0358 -0.2649
  601MOL0     H81117   6.105  10.167   7.490  1.8821  1.1262 -3.7676
  601MOL0     H81118   6.321  10.181   7.402 -5.1371 -2.5755 -0.1900
  601MOL0     H81119   6.434  10.106   8.156 -0.5976  0.1331  0.5194
  601MOL0     H81120   6.269   9.982   8.284 -1.3526  0.2673 -2.6994
  601MOL0     H81121   6.299   9.747   8.661  0.0692 -1.0809  2.5269
  601MOL0     H81122   6.177   9.710   8.860  2.1824 -1.1567 -1.5406
  601MOL0     H81123   5.881   9.728   8.912  2.6988  1.2401 -0.4975
  601MOL0     H81124   6.026   9.715   9.003  0.7920  0.0387 -2.7978
  601MOL0     H81125   5.787   9.520   9.070 -0.6550  0.8280  0.5219
  601MOL0     H81126   5.783   9.675   9.138 -2.3833 -1.3030 -0.1227
  601MOL0     H81127   6.049   9.614   9.188 -1.6227  2.9307 -4.0669
  601MOL0     H81128   5.982   9.448   9.169 -0.0681  0.7516 -1.7788
  601MOL0     H81129   5.865   9.663   9.356  1.1980  0.3964  1.0704
  601MOL0     H81130   5.818   9.498   9.347 -3.4265  4.3483  2.2914
  601MOL0     H81131   6.123   9.458   9.627 -0.0548 -1.3731 -0.1165
  601MOL0     H81132   5.906   9.440   8.658 -0.4809  0.2269  1.2095
  601MOL0     H81133   5.893   9.418   8.430  0.5457 -1.5256  0.4877
  601MOL0     H81134   6.021   9.477   8.330 -2.5971  1.4540  1.5618
  601MOL0     H81135   6.046   9.332   8.441 -0.2587 -0.8350  0.1724
  602MOL0     O81136   3.183   5.829   7.613  0.4109  0.7314 -0.4832
  602MOL0     C81137   3.249   5.829   7.507 -0.8998 -0.0641 -0.0209
  602MOL0     O81138   3.244   5.935   7.411  0.5913  0.2763 -0.4038
  602MOL0     C81139   3.134   6.008   7.427 -0.5114 -0.3458  0.5667
  602MOL0     C81140   3.125   6.122   7.503 -0.1978 -1.0393 -0.0553
  602MOL0     C81141   3.003   6.190   7.514 -0.1669  1.0991 -0.2381
  602MOL0     C81142   2.888   6.148   7.450 -0.5571 -1.2455  0.0596
  602MOL0     O81143   2.784   6.223   7.463  1.0065  0.0076  0.4651
  602MOL0     C81144   2.765   6.329   7.357  0.5682  0.3935 -0.0087
  602MOL0     C81145   2.886   6.367   7.265 -0.4560 -1.5392  0.7757
  602MOL0     C81146   2.873   6.493   7.177  0.2738  0.3633 -0.2137
  602MOL0     C81147   2.830   6.615   7.250  0.1656 -0.2887 -0.0912
  602MOL0     C81148   2.846   6.740   7.161  0.8649  0.3888 -0.1643
  602MOL0     C81149   2.859   6.862   7.248 -0.0606  0.5285 -0.8518
  602MOL0     C81150   2.988   6.873   7.316  0.2585 -0.7355  0.2558
  602MOL0     C81151   3.123   6.827   7.233  1.2774 -0.3786  0.9758
  602MOL0     N81152   3.244   6.860   7.306  0.0191  0.1690  0.2061
  602MOL0     C81153   3.262   6.836   7.441  0.5178  0.2990  0.3542
  602MOL0     C81154   3.392   6.872   7.462 -0.1144 -0.3819  0.4917
  602MOL0     C81155   3.474   6.870   7.587  0.7901 -0.4736 -0.1105
  602MOL0     C81156   3.615   6.805   7.570 -0.2140  0.2403  0.0391
  602MOL0     C81157   3.611   6.663   7.510 -0.2814  0.2094 -0.5674
  602MOL0     C81158   3.546   6.566   7.609  0.4243  0.0616 -0.8108
  602MOL0     O81159   3.573   6.429   7.585 -0.2120  0.8874 -0.1665
  602MOL0     C81160   3.516   6.375   7.475 -0.5273  0.0377  0.4523
  602MOL0     C81161   3.407   6.429   7.407  1.1108  0.5284  0.0857
  602MOL0     C81162   3.353   6.356   7.298 -0.2310  0.2857 -0.0724
  602MOL0     C81163   3.386   6.225   7.267 -0.5865  0.3329 -0.9939
  602MOL0     C81164   3.304   6.140   7.175 -1.4190  0.0770 -0.2706
  602MOL0     O81165   3.182   6.179   7.145  0.2674  0.9697  0.4277
  602MOL0     C81166   3.107   6.114   7.050 -0.0833  0.5244  0.6806
  602MOL0     C81167   3.113   5.981   7.019 -0.9761 -0.5893  1.0166
  602MOL0     C81168   3.033   5.931   6.909  0.2767 -0.7370 -0.5929
  602MOL0     C81169   2.943   6.015   6.837 -1.0825 -0.3265 -0.4003
  602MOL0     O81170   2.867   5.973   6.736  0.6016 -0.2280 -0.0118
  602MOL0     C81171   2.902   5.848   6.664  0.4557  0.3581 -0.5267
  602MOL0     C81172   2.811   5.835   6.537  0.2871 -0.1610  0.0277
  602MOL0     C81173   2.840   5.722   6.449  0.5627 -0.6628 -0.4640
  602MOL0     C81174   2.739   5.703   6.334 -0.0473  0.5998  0.0462
  602MOL0     C81175   2.740   5.572   6.262 -1.1660  0.4436  1.0851
  602MOL0     C81176   2.872   5.521   6.210  0.3210 -0.4139 -0.4685
  602MOL0     C81177   2.864   5.400   6.117 -0.3332  0.2815  0.3072
  602MOL0     C81178   2.793   5.434   5.981 -0.7471 -0.0237  0.1409
  602MOL0    Cl81179   2.771   5.270   5.897  0.0730  0.0389  0.1409
  602MOL0     C81180   2.937   6.144   6.873 -0.3466 -0.0981 -0.3614
  602MOL0     C81181   3.020   6.192   6.972  0.1776 -0.0444 -0.2165
  602MOL0     O81182   3.364   6.037   7.137  0.5182  0.3437 -0.7395
  602MOL0     C81183   3.493   6.174   7.348 -0.8986  0.4051  0.7398
  602MOL0     C81184   3.562   6.248   7.440 -0.0954 -0.7121 -0.2669
  602MOL0     N81185   3.444   6.923   7.344 -0.4818 -0.2117  0.7999
  602MOL0     N81186   3.358   6.911   7.245 -0.4444  0.1561 -0.2196
  602MOL0     C81187   2.905   6.031   7.372  0.2239 -0.2825  1.0029
  602MOL0     C81188   3.018   5.960   7.362 -1.1257  0.3487 -0.4259
  602MOL0     C81189   3.361   5.733   7.481  0.8652  0.2207 -0.0310
  602MOL0     C81190   3.455   5.754   7.373  0.2823  0.1214  0.3017
  602MOL0     C81191   3.549   5.664   7.338 -0.1626  0.1472 -0.8880
  602MOL0     C81192   3.574   5.547   7.408  0.6327 -0.2584  0.3028
  602MOL0     O81193   3.667   5.445   7.382 -0.6796  0.1304  0.3928
  602MOL0     C81194   3.724   5.423   7.255  0.2670  0.1514 -0.3935
  602MOL0     C81195   3.840   5.332   7.281 -0.2281 -1.1602 -0.6337
  602MOL0     C81196   3.937   5.395   7.383 -0.1097  0.6049  0.3899
  602MOL0     C81197   3.899   5.353   7.528 -0.1471  0.0763  0.2315
  602MOL0     C81198   4.020   5.348   7.603 -1.3214  0.2091  1.0549
  602MOL0     C81199   4.118   5.329   7.673 -0.9051  0.1167 -1.0744
  602MOL0     C81200   3.486   5.526   7.522 -0.6770  0.0054 -0.5289
  602MOL0     C81201   3.388   5.616   7.555  0.2700  0.0449 -0.3352
  602MOL0     C81202   3.304   5.564   7.674  0.6488 -0.0192 -0.1781
  602MOL0     H81203   3.214   6.160   7.552 -1.2047  0.2791  0.8330
  602MOL0     H81204   2.990   6.280   7.575 -1.4065  1.0866 -0.4622
  602MOL0     H81205   2.687   6.305   7.285  0.6577  2.6257 -0.9471
  602MOL0     H81206   2.726   6.420   7.404  0.2939  0.3297 -0.1100
  602MOL0     H81207   2.904   6.284   7.196 -1.0999 -0.6964 -0.4478
  602MOL0     H81208   2.983   6.377   7.314  0.9395  0.8277 -2.1488
  602MOL0     H81209   2.806   6.480   7.092  1.6713  0.0794 -1.3196
  602MOL0     H81210   2.975   6.509   7.139  0.6784 -0.6030  0.4171
  602MOL0     H81211   2.732   6.603   7.296  0.2204 -0.4616 -0.0187
  602MOL0     H81212   2.894   6.633   7.337 -0.6714  0.3271  0.4105
  602MOL0     H81213   2.930   6.734   7.091  0.4249  0.8520 -0.7467
  602MOL0     H81214   2.753   6.741   7.104 -0.7659 -0.0492  2.3556
  602MOL0     H81215   2.859   6.946   7.177 -0.1670  0.4799 -0.9092
  602MOL0     H81216   2.771   6.878   7.310 -1.1103  0.6406 -2.3091
  602MOL0     H81217   2.975   6.804   7.400  0.7032 -1.2062 -0.0544
  602MOL0     H81218   2.990   6.972   7.362  3.8732  1.0002 -3.0555
  602MOL0     H81219   3.122   6.719   7.219  0.6470 -0.2606 -0.0122
  602MOL0     H81220   3.119   6.872   7.133 -1.0545  1.5741  1.8365
  602MOL0     H81221   3.187   6.806   7.513 -1.7575  3.8567 -0.2648
  602MOL0     H81222   3.485   6.972   7.626 -2.2939  1.3948 -3.4418
  602MOL0     H81223   3.413   6.803   7.648  0.8603 -0.2514  0.2085
  602MOL0     H81224   3.684   6.857   7.503 -1.1655 -2.3079 -3.2423
  602MOL0     H81225   3.650   6.802   7.673 -0.6483  0.0436  0.1851
  602MOL0     H81226   3.710   6.617   7.514  0.0468  0.7691  4.3719
  602MOL0     H81227   3.569   6.666   7.409 -0.2895 -0.9937 -0.6184
  602MOL0     H81228   3.441   6.591   7.624  0.3792 -0.7813  0.4934
  602MOL0     H81229   3.588   6.577   7.710  0.0798 -1.6797 -0.4331
  602MOL0     H81230   3.361   6.524   7.433 -1.6268 -0.6798  0.0381
  602MOL0     H81231   3.287   6.396   7.222  3.0299 -0.3939 -3.5105
  602MOL0     H81232   3.173   5.911   7.076 -0.5250  0.3211  1.6908
  602MOL0     H81233   3.038   5.825   6.887  0.3509 -0.3116 -2.8130
  602MOL0     H81234   3.008   5.863   6.644  0.7144  0.1096  0.5582
  602MOL0     H81235   2.889   5.759   6.728 -3.0909 -0.7135 -2.4607
  602MOL0     H81236   2.704   5.836   6.561  0.3588  2.3258  0.5397
  602MOL0     H81237   2.835   5.929   6.487  0.9091 -1.5775 -2.5262
  602MOL0     H81238   2.929   5.749   6.393  0.4614  0.1206 -0.2679
  602MOL0     H81239   2.844   5.634   6.513 -1.5090  0.2666  1.0700
  602MOL0     H81240   2.774   5.775   6.260 -1.7083  0.0600 -1.3170
  602MOL0     H81241   2.638   5.727   6.368  0.0275 -1.3899  1.9033
  602MOL0     H81242   2.674   5.588   6.177 -2.1115  1.8520  2.0431
  602MOL0     H81243   2.705   5.488   6.323  0.1171 -3.3954 -2.9716
  602MOL0     H81244   2.919   5.600   6.150  1.7934 -1.8948 -1.3381
  602MOL0     H81245   2.938   5.497   6.294  3.5099  0.1630 -2.5923
  602MOL0     H81246   2.811   5.316   6.163  1.2246 -0.2183  1.2530
  602MOL0     H81247   2.968   5.375   6.094 -0.9915 -1.9727 -0.4197
  602MOL0     H81248   2.697   5.485   5.996  0.5770  3.0257 -1.0545
  602MOL0     H81249   2.856   5.509   5.932  2.7665 -0.6479  3.1970
  602MOL0     H81250   2.871   6.213   6.821 -0.1598  0.8888  0.6676
  602MOL0     H81251   2.999   6.298   6.986  3.8622  0.6414  1.2606
  602MOL0     H81252   3.541   6.080   7.325 -1.9361 -0.9663  3.6841
  602MOL0     H81253   3.651   6.212   7.491 -0.6726 -1.7722  0.0282
  602MOL0     H81254   2.820   5.994   7.316 -0.1491  2.9806 -0.8808
  602MOL0     H81255   3.018   5.874   7.297  2.0212  1.2948 -1.8767
  602MOL0     H81256   3.432   5.838   7.307 -1.3472 -2.0099 -2.0508
  602MOL0     H81257   3.601   5.676   7.243 -0.3520 -4.1384 -1.7197
  602MOL0     H81258   3.771   5.511   7.210  0.2528  1.2849  1.7019
  602MOL0     H81259   3.644   5.383   7.191 -1.1123  0.8623  0.8417
  602MOL0     H81260   3.895   5.313   7.188 -0.4857 -0.6613 -0.8879
  602MOL0     H81261   3.791   5.238   7.308 -1.5984 -1.2100 -2.9983
  602MOL0     H81262   3.929   5.503   7.367 -1.4521  0.7043  1.5256
  602MOL0     H81263   4.032   5.346   7.361 -1.2792 -2.3446  1.4198
  602MOL0     H81264   3.819   5.415   7.569  0.9765 -0.2912  3.2550
  602MOL0     H81265   3.857   5.252   7.519  1.7451 -0.9605  2.1946
  602MOL0     H81266   4.209   5.322   7.730  2.0468 -1.4774 -5.5090
  602MOL0     H81267   3.489   5.435   7.582 -0.5054 -0.0601 -0.6367
  602MOL0     H81268   3.199   5.567   7.646  1.0818 -0.4211 -2.0025
  602MOL0     H81269   3.323   5.461   7.705 -0.7550 -0.4503 -0.7138
  602MOL0     H81270   3.336   5.629   7.756  2.5691 -3.2802  1.8415
  603MOL0     O81271  11.228   1.356   5.812  0.4160 -0.0927  0.1675
  603MOL0     C81272  11.333   1.350   5.887  1.5264 -0.0208  0.3167
  603MOL0     O81273  11.409   1.240   5.909 -0.3397  0.0233 -0.3902
  603MOL0     C81274  11.400   1.131   5.819  0.6638 -0.1539 -0.4128
  603MOL0     C81275  11.377   1.135   5.679 -0.5453 -0.0087 -0.7220
  603MOL0     C81276  11.410   1.018   5.606  0.0057  0.2382 -0.3992
  603MOL0     C81277  11.430   0.896   5.655 -0.7985  0.6815 -0.0387
  603MOL0     O81278  11.423   0.777   5.587 -0.2321 -0.7816  1.0888
  603MOL0     C81279  11.392   0.788   5.443 -0.0618  0.7790  0.8029
  603MOL0     C81280  11.508   0.808   5.346  0.0422 -0.3421  0.0512
  603MOL0     C81281  11.546   0.660   5.300 -0.3617 -0.1537  0.8121
  603MOL0     C81282  11.649   0.668   5.188 -0.3769 -0.4303 -0.2352
  603MOL0     C81283  11.697   0.531   5.152  0.5497  0.1133  0.3719
  603MOL0     C81284  11.833   0.529   5.089 -0.0186  0.8859 -0.4438
  603MOL0     C81285  11.957   0.537   5.189  1.0990 -0.0488  0.1776
  603MOL0     C81286  12.010   0.406   5.237  0.4716  0.7325 -0.3017
  603MOL0     N81287  12.127   0.417   5.326 -0.4433  0.5618  0.0485
  603MOL0     C81288  12.109   0.466   5.447 -0.6087  0.4410 -0.0348
  603MOL0     C81289  12.226   0.433   5.506 -1.0530  0.5389  0.8922
  603MOL0     C81290  12.286   0.489   5.635  0.6534  0.3319  0.1355
  603MOL0     C81291  12.348   0.624   5.607 -0.6367 -0.8217 -0.4198
  603MOL0     C81292  12.476   0.632   5.521 -0.8824  0.3662  0.4566
  603MOL0     C81293  12.549   0.765   5.544  1.2858  0.5000 -0.1167
  603MOL0     O81294  12.457   0.867   5.506  0.2389 -0.3085  0.6597
  603MOL0     C81295  12.505   0.996   5.501  0.1240 -0.7577  0.6453
  603MOL0     C81296  12.523   1.040   5.372 -0.0587 -0.1625  0.5174
  603MOL0     C81297  12.555   1.176   5.342  0.5322  0.1974  0.0442
  603MOL0     C81298  12.587   1.262   5.452  0.2974  0.0748  0.1195
  603MOL0     C81299  12.633   1.398   5.428 -0.8034 -0.9347  0.5294
  603MOL0     O81300  12.633   1.495   5.530 -0.1073 -0.2558  0.5228
  603MOL0     C81301  12.655   1.620   5.480  0.4785 -0.2562 -0.3498
  603MOL0     C81302  12.770   1.691   5.509 -0.2232  0.5236  0.9699
  603MOL0     C81303  12.792   1.818   5.456 -0.3597  0.2691 -0.5635
  603MOL0     C81304  12.688   1.885   5.395 -0.6946  0.2162 -0.1469
  603MOL0     O81305  12.724   1.995   5.336 -0.1014 -0.5089  0.6049
  603MOL0     C81306  12.638   2.063   5.234 -0.9544 -0.2506  0.0051
  603MOL0     C81307  12.677   2.209   5.226 -0.3701  0.6748 -0.8075
  603MOL0     C81308  12.641   2.289   5.347 -0.4250  0.9227  0.9263
  603MOL0     C81309  12.712   2.422   5.343 -1.0555 -0.0578 -0.0336
  603MOL0     C81310  12.704   2.505   5.215  0.9309 -0.1770  0.1555
  603MOL0     C81311  12.733   2.654   5.248 -0.1540  0.4609 -0.8058
  603MOL0     C81312  12.630   2.732   5.332  0.8178  1.1055 -1.0713
  603MOL0     C81313  12.499   2.767   5.256  0.2738  0.3453 -0.3756
  603MOL0    Cl81314  12.382   2.838   5.369 -0.2656 -0.0256  0.4982
  603MOL0     C81315  12.569   1.814   5.375 -0.4445  0.0289  0.1036
  603MOL0     C81316  12.549   1.684   5.426 -0.1220 -0.4819 -0.1180
  603MOL0     O81317  12.674   1.418   5.309  0.0895  0.5667  0.5022
  603MOL0     C81318  12.583   1.203   5.583  0.3063  0.7338 -0.1392
  603MOL0     C81319  12.548   1.067   5.605 -1.0645 -0.6916  0.6034
  603MOL0     N81320  12.296   0.344   5.430 -0.4925 -0.0919 -0.0831
  603MOL0     N81321  12.247   0.345   5.320 -0.1329 -0.0187  0.3413
  603MOL0     C81322  11.442   0.892   5.790  0.3383 -0.6431 -0.5771
  603MOL0     C81323  11.428   1.005   5.872 -0.0454  0.3062 -0.8533
  603MOL0     C81324  11.368   1.464   5.970 -0.1333  0.5975  0.6568
  603MOL0     C81325  11.504   1.486   6.000  0.3224 -0.3816  0.5436
  603MOL0     C81326  11.549   1.581   6.083  0.5117  0.2857 -1.1109
  603MOL0     C81327  11.467   1.681   6.119 -0.0631  0.7122 -0.7125
  603MOL0     O81328  11.505   1.788   6.205  0.7755 -0.4557  1.1299
  603MOL0     C81329  11.456   1.916   6.171  0.7680  0.0184  0.2369
  603MOL0     C81330  11.570   2.017   6.154  0.6089 -0.3672 -0.4073
  603MOL0     C81331  11.535   2.137   6.066 -0.0584 -0.0105 -0.0966
  603MOL0     C81332  11.653   2.240   6.079  0.0662 -0.0040 -0.5058
  603MOL0     C81333  11.638   2.326   6.201 -0.3002  0.3201  0.2395
  603MOL0     C81334  11.617   2.389   6.300 -0.2215 -0.4550  0.1419
  603MOL0     C81335  11.326   1.670   6.085 -0.5452  0.2281 -0.2056
  603MOL0     C81336  11.276   1.561   6.012 -0.8396 -0.4759  0.3579
  603MOL0     C81337  11.129   1.533   6.006  0.5914 -0.5131  0.2170
  603MOL0     H81338  11.356   1.233   5.638 -0.3408  0.4423  0.2145
  603MOL0     H81339  11.396   1.028   5.499  1.2904  0.2405 -0.5756
  603MOL0     H81340  11.334   0.708   5.397 -3.2896  3.2684  0.0983
  603MOL0     H81341  11.318   0.867   5.425 -0.0615  0.0000 -3.6586
  603MOL0     H81342  11.597   0.851   5.392  2.4800 -3.9644 -0.8770
  603MOL0     H81343  11.472   0.852   5.252 -0.7995 -0.4785  0.2982
  603MOL0     H81344  11.465   0.600   5.258 -0.9025  1.8286 -1.1148
  603MOL0     H81345  11.575   0.606   5.391  3.6650  0.3729 -0.0006
  603MOL0     H81346  11.609   0.726   5.104 -1.3241 -1.6598 -0.6638
  603MOL0     H81347  11.731   0.731   5.225 -1.3139  1.6660 -1.5340
  603MOL0     H81348  11.699   0.468   5.241  0.8608 -1.3942 -0.6600
  603MOL0     H81349  11.633   0.496   5.070 -0.3600  1.9041  0.2789
  603MOL0     H81350  11.845   0.439   5.028 -0.3912 -0.9494  2.0245
  603MOL0     H81351  11.836   0.618   5.026 -0.9930  2.4992  1.6752
  603MOL0     H81352  11.915   0.584   5.278  0.7185 -0.2237  0.0924
  603MOL0     H81353  12.032   0.598   5.139 -1.8476  2.1687 -1.8838
  603MOL0     H81354  11.928   0.353   5.286  0.4979 -0.3697 -1.4035
  603MOL0     H81355  12.041   0.342   5.153  0.0675  1.4022 -0.9680
  603MOL0     H81356  12.026   0.525   5.484 -1.4575 -0.3857 -0.5627
  603MOL0     H81357  12.218   0.495   5.721  1.8386 -1.0763  1.2219
  603MOL0     H81358  12.367   0.425   5.669 -0.9147 -0.8754  1.7666
  603MOL0     H81359  12.269   0.694   5.579 -0.6887  0.1460  1.9476
  603MOL0     H81360  12.374   0.670   5.703  0.3615 -0.4634 -0.8399
  603MOL0     H81361  12.453   0.624   5.414  1.7365  2.3114 -0.3441
  603MOL0     H81362  12.543   0.553   5.555 -1.3499  0.3690  1.4244
  603MOL0     H81363  12.638   0.770   5.481  3.2057 -1.8644  2.1580
  603MOL0     H81364  12.563   0.773   5.652 -0.2524 -3.5814  0.5536
  603MOL0     H81365  12.521   0.970   5.290  2.0113 -0.8439  0.9986
  603MOL0     H81366  12.578   1.207   5.240 -0.2067  0.5814 -0.0170
  603MOL0     H81367  12.856   1.645   5.558  0.0682  0.0947  0.0737
  603MOL0     H81368  12.878   1.880   5.478  1.5871 -2.0670 -1.1666
  603MOL0     H81369  12.655   2.016   5.136 -1.1221  0.5547 -0.4163
  603MOL0     H81370  12.534   2.058   5.268 -1.2170  2.2981 -0.2465
  603MOL0     H81371  12.784   2.212   5.203  0.2658 -1.1428  1.5400
  603MOL0     H81372  12.624   2.261   5.145 -1.2036  1.6790  0.3387
  603MOL0     H81373  12.533   2.305   5.349 -0.5708  0.3750  5.0535
  603MOL0     H81374  12.668   2.251   5.446  2.2932 -3.2799 -1.1074
  603MOL0     H81375  12.817   2.395   5.355 -1.2543 -1.1837 -0.6258
  603MOL0     H81376  12.673   2.472   5.432 -3.8863  2.9059 -2.6507
  603MOL0     H81377  12.603   2.508   5.173  1.0459  1.4183 -0.0794
  603MOL0     H81378  12.768   2.462   5.137  0.3160 -1.7620  0.4775
  603MOL0     H81379  12.828   2.667   5.300  0.5286  2.3091 -2.3655
  603MOL0     H81380  12.736   2.714   5.156 -1.1123 -2.0316 -2.5717
  603MOL0     H81381  12.662   2.830   5.367 -2.4683  1.9496 -0.1343
  603MOL0     H81382  12.609   2.659   5.411  0.4776 -1.1590 -3.1248
  603MOL0     H81383  12.516   2.843   5.179  1.3241  1.3378  0.7814
  603MOL0     H81384  12.456   2.676   5.215  2.1078 -0.7372  0.0051
  603MOL0     H81385  12.482   1.854   5.325 -2.7338 -2.9502  1.3548
  603MOL0     H81386  12.452   1.638   5.417  0.4999 -1.9749  0.4684
  603MOL0     H81387  12.614   1.269   5.664  3.6467 -0.7119 -0.0641
  603MOL0     H81388  12.529   1.045   5.710 -1.3041 -0.5442  0.5905
  603MOL0     H81389  11.458   0.794   5.834  0.1445  0.3767  1.9766
  603MOL0     H81390  11.439   0.995   5.980 -1.7725 -1.7310 -0.7887
  603MOL0     H81391  11.581   1.413   5.974  0.2566 -1.4214  2.9653
  603MOL0     H81392  11.653   1.586   6.116 -0.1968  0.9186  1.2726
  603MOL0     H81393  11.383   1.955   6.242  1.3828  3.0516 -0.6685
  603MOL0     H81394  11.413   1.918   6.070  1.5866  1.3143 -0.1064
  603MOL0     H81395  11.642   1.964   6.091  3.4463  2.6723  0.0123
  603MOL0     H81396  11.612   2.043   6.252 -4.1945  2.5750  1.2071
  603MOL0     H81397  11.439   2.178   6.102 -0.9428 -2.3279  0.3579
  603MOL0     H81398  11.527   2.089   5.968  2.7117 -2.9268  0.9403
  603MOL0     H81399  11.747   2.186   6.096  0.1710 -0.6259 -2.7466
  603MOL0     H81400  11.673   2.295   5.986 -1.0716  1.7416  0.2218
  603MOL0     H81401  11.603   2.452   6.386  1.7603  1.0462 -0.5542
  603MOL0     H81402  11.249   1.741   6.111 -0.6460  0.1217 -0.2097
  603MOL0     H81403  11.115   1.441   6.063 -0.7261 -0.0927  0.6029
  603MOL0     H81404  11.079   1.614   6.060  1.1780 -1.7479  2.7689
  603MOL0     H81405  11.093   1.544   5.903  2.6942  2.3607 -0.3715
  604MOL0     O81406   6.329   1.699   5.762  0.1116 -0.6768  0.1720
  604MOL0     C81407   6.276   1.791   5.828 -0.5703 -0.0687 -0.6064
  604MOL0     O81408   6.188   1.883   5.779  0.1395 -0.3216  0.7688
  604MOL0     C81409   6.117   1.856   5.660  0.1121 -0.5073  0.2387
  604MOL0     C81410   6.100   1.964   5.570  0.6365 -0.8598 -0.4729
  604MOL0     C81411   6.013   1.941   5.455 -0.7006 -0.0715 -0.3757
  604MOL0     C81412   5.944   1.823   5.436  0.3777  1.2589  0.0828
  604MOL0     O81413   5.866   1.805   5.325 -0.7181  0.8548  0.2827
  604MOL0     C81414   5.925   1.839   5.189 -0.9719 -0.6575 -1.0185
  604MOL0     C81415   5.898   1.723   5.093  0.4020 -0.4755  0.2659
  604MOL0     C81416   5.748   1.719   5.060 -0.0875  0.1866 -0.1471
  604MOL0     C81417   5.709   1.820   4.949 -0.5963 -0.4867  0.2803
  604MOL0     C81418   5.564   1.796   4.906  0.1833  0.3552  0.4353
  604MOL0     C81419   5.504   1.878   4.776 -0.5810 -0.3611  0.4556
  604MOL0     C81420   5.381   1.816   4.711 -1.2484  0.2792  0.6504
  604MOL0     C81421   5.253   1.866   4.777 -0.0916 -0.0213 -0.3011
  604MOL0     N81422   5.134   1.792   4.736  0.5307 -0.2693  0.1048
  604MOL0     C81423   5.013   1.800   4.805  0.2539 -0.5248  0.5913
  604MOL0     C81424   4.925   1.730   4.721  0.6496 -0.6476  0.7261
  604MOL0     C81425   4.780   1.713   4.723  0.2832  0.4885 -0.0383
  604MOL0     C81426   4.719   1.610   4.613  0.3908 -0.5314  0.0882
  604MOL0     C81427   4.564   1.585   4.614 -0.5804  0.1837  0.1920
  604MOL0     C81428   4.532   1.513   4.744  0.5877 -0.4528  0.4738
  604MOL0     O81429   4.391   1.469   4.745 -0.1526 -0.9588  0.4865
  604MOL0     C81430   4.339   1.364   4.670 -0.0071 -0.1945  0.5716
  604MOL0     C81431   4.203   1.349   4.664 -0.3271 -0.3224 -0.3269
  604MOL0     C81432   4.159   1.244   4.584  0.5144  0.7170  0.0986
  604MOL0     C81433   4.241   1.152   4.512  0.6048  0.4216 -0.4221
  604MOL0     C81434   4.180   1.043   4.434  0.9721  0.0018  0.1991
  604MOL0     O81435   4.065   1.079   4.354 -0.4808  0.2354 -0.3435
  604MOL0     C81436   4.023   1.002   4.247  0.4753 -0.2601 -0.0381
  604MOL0     C81437   4.099   0.916   4.165  0.6392 -0.3333 -0.6742
  604MOL0     C81438   4.039   0.855   4.049  0.1504  0.6620 -0.5130
  604MOL0     C81439   3.898   0.859   4.023  0.3480 -0.2684  0.1438
  604MOL0     O81440   3.824   0.801   3.916  0.2212 -0.3813 -0.1929
  604MOL0     C81441   3.887   0.753   3.798  0.1404  0.3632 -0.4430
  604MOL0     C81442   3.787   0.694   3.690  0.5835  0.4692  0.2594
  604MOL0     C81443   3.764   0.538   3.694 -1.0255 -0.0291  0.2081
  604MOL0     C81444   3.630   0.501   3.617  0.0181  0.2369 -0.5994
  604MOL0     C81445   3.500   0.524   3.698 -0.7144  0.3577  0.7580
  604MOL0     C81446   3.393   0.435   3.618  0.5901 -0.3808 -0.7685
  604MOL0     C81447   3.271   0.437   3.712  0.0893 -0.0594  0.9577
  604MOL0     C81448   3.196   0.568   3.704  0.4056  0.0635 -1.1072
  604MOL0    Cl81449   3.053   0.562   3.815 -0.1851  0.0821  0.2339
  604MOL0     C81450   3.823   0.936   4.114 -0.2893 -0.2699 -0.0651
  604MOL0     C81451   3.879   1.004   4.222 -0.4327  0.1708 -0.4049
  604MOL0     O81452   4.237   0.936   4.426 -0.4308 -0.6877  0.4601
  604MOL0     C81453   4.378   1.158   4.536  0.6853  0.3820  0.5044
  604MOL0     C81454   4.426   1.274   4.606 -0.0455  0.8622  0.1412
  604MOL0     N81455   4.991   1.694   4.601 -0.2043 -0.1868 -0.3644
  604MOL0     N81456   5.109   1.728   4.621  0.8911  0.4635 -0.7054
  604MOL0     C81457   5.968   1.718   5.525  0.2663 -0.0421  0.3400
  604MOL0     C81458   6.042   1.738   5.640 -0.0712 -1.8744  0.8048
  604MOL0     C81459   6.310   1.793   5.975  0.0512  0.0355  1.1344
  604MOL0     C81460   6.400   1.700   6.024 -0.3002 -0.1759 -1.4990
  604MOL0     C81461   6.437   1.698   6.164  0.5546  0.0680  0.4298
  604MOL0     C81462   6.381   1.790   6.258  0.4324 -0.7281 -1.4443
  604MOL0     O81463   6.425   1.771   6.384  0.1539 -0.1359  0.5472
  604MOL0     C81464   6.410   1.870   6.482 -0.6689  0.5737  0.1311
  604MOL0     C81465   6.520   1.866   6.593 -0.0760  0.0371 -0.4586
  604MOL0     C81466   6.569   1.724   6.623 -0.2592  0.1035 -0.2304
  604MOL0     C81467   6.683   1.717   6.722  1.6427 -1.0065  0.6981
  604MOL0     C81468   6.740   1.575   6.733  0.6141  0.3912 -0.4862
  604MOL0     C81469   6.778   1.462   6.757  0.1600 -0.8577 -0.9851
  604MOL0     C81470   6.288   1.885   6.212  0.7216 -0.0537  1.1165
  604MOL0     C81471   6.250   1.885   6.069 -0.5153 -0.2967  0.9386
  604MOL0     C81472   6.140   1.982   6.027 -0.0035 -0.0643  0.1557
  604MOL0     H81473   6.147   2.059   5.593 -1.0130 -0.5783  2.2677
  604MOL0     H81474   6.001   2.019   5.381 -1.0927  0.8494  0.6331
  604MOL0     H81475   5.895   1.936   5.149 -0.2405  0.5111  1.0830
  604MOL0     H81476   6.035   1.840   5.190 -0.9685  0.4749 -0.4605
  604MOL0     H81477   5.911   1.624   5.139 -3.4000 -0.7771  1.0465
  604MOL0     H81478   5.950   1.734   4.998 -0.1528  5.2422  0.2883
  604MOL0     H81479   5.687   1.746   5.147 -0.2683 -0.4426 -0.0746
  604MOL0     H81480   5.722   1.615   5.038  2.0216 -0.5105  0.3758
  604MOL0     H81481   5.736   1.922   4.978 -0.1940 -0.6270  0.4180
  604MOL0     H81482   5.775   1.798   4.864  3.9418  5.2390  1.6503
  604MOL0     H81483   5.559   1.689   4.886 -1.5216  0.8650 -2.4869
  604MOL0     H81484   5.488   1.827   4.977 -0.9799 -2.9629  0.8076
  604MOL0     H81485   5.488   1.981   4.811 -0.9210 -0.2244 -0.0877
  604MOL0     H81486   5.575   1.878   4.693  2.9113 -1.6504  3.2032
  604MOL0     H81487   5.387   1.707   4.713 -2.9676  0.0161 -2.1642
  604MOL0     H81488   5.378   1.837   4.604 -0.6295 -2.6839 -0.0429
  604MOL0     H81489   5.257   1.855   4.886  2.1189 -0.2191 -0.3524
  604MOL0     H81490   5.246   1.973   4.758 -1.1850 -0.1403 -0.6427
  604MOL0     H81491   4.978   1.867   4.883 -2.7198  1.6314 -2.3524
  604MOL0     H81492   4.761   1.668   4.821  1.0935  0.4486  0.1134
  604MOL0     H81493   4.729   1.809   4.718 -0.9762 -0.1814 -0.4168
  604MOL0     H81494   4.759   1.652   4.520  0.6748  0.6474  0.7244
  604MOL0     H81495   4.780   1.519   4.617 -0.5529 -1.2122 -0.5698
  604MOL0     H81496   4.548   1.532   4.520  0.0418  2.0187 -1.0128
  604MOL0     H81497   4.513   1.680   4.597 -1.0429 -0.5037 -2.9709
  604MOL0     H81498   4.548   1.575   4.832  0.9435 -0.6762  0.5698
  604MOL0     H81499   4.590   1.422   4.763 -0.4687 -0.4635  4.8057
  604MOL0     H81500   4.135   1.404   4.728 -0.2686 -0.7148  0.0856
  604MOL0     H81501   4.057   1.213   4.601  0.6434 -0.2790 -0.8590
  604MOL0     H81502   4.206   0.933   4.165  0.6573 -0.2909 -2.6440
  604MOL0     H81503   4.099   0.808   3.971  2.2066  1.9837  0.2141
  604MOL0     H81504   3.946   0.838   3.763  0.5860  0.3832  0.3198
  604MOL0     H81505   3.953   0.668   3.820 -0.1769 -0.3029 -1.9902
  604MOL0     H81506   3.685   0.734   3.699  1.2243  2.0249  1.0984
  604MOL0     H81507   3.826   0.718   3.590 -0.7094 -3.9936 -1.5424
  604MOL0     H81508   3.854   0.486   3.657 -1.8445 -0.7982 -0.7561
  604MOL0     H81509   3.744   0.510   3.798  0.6078  0.8679  0.8020
  604MOL0     H81510   3.637   0.395   3.591 -0.4758 -0.0401  0.3288
  604MOL0     H81511   3.629   0.554   3.522 -0.8886 -1.9002 -1.8499
  604MOL0     H81512   3.472   0.630   3.698  1.6205  1.0276  0.4965
  604MOL0     H81513   3.511   0.497   3.803 -0.4263  1.3630  0.9966
  604MOL0     H81514   3.369   0.470   3.518 -1.6063  0.5757  0.0314
  604MOL0     H81515   3.429   0.333   3.603 -0.0086 -0.6406 -0.4597
  604MOL0     H81516   3.298   0.406   3.814  2.8566 -1.7983 -0.2037
  604MOL0     H81517   3.207   0.354   3.681  1.7769 -0.6937 -0.9955
  604MOL0     H81518   3.265   0.651   3.726  0.9692 -1.1372  2.3002
  604MOL0     H81519   3.158   0.570   3.602 -0.3738  1.9519 -0.8222
  604MOL0     H81520   3.718   0.946   4.089 -0.4790 -1.2499  0.3022
  604MOL0     H81521   3.821   1.073   4.283 -1.6101 -0.2977 -0.9684
  604MOL0     H81522   4.441   1.078   4.500 -0.6659  0.7783 -3.2079
  604MOL0     H81523   4.534   1.277   4.613  0.1180  0.0491 -1.4989
  604MOL0     H81524   5.915   1.623   5.523  1.0703 -0.5343 -2.9654
  604MOL0     H81525   6.049   1.657   5.712 -0.9077 -1.2599  1.6195
  604MOL0     H81526   6.447   1.619   5.968 -3.7260 -1.4069 -2.8430
  604MOL0     H81527   6.520   1.636   6.196 -1.3915 -1.9070  1.9781
  604MOL0     H81528   6.308   1.865   6.520 -1.9133  1.1053 -2.8688
  604MOL0     H81529   6.418   1.968   6.432  0.3158 -0.0095 -0.9141
  604MOL0     H81530   6.484   1.915   6.684 -1.1329  2.3200 -2.0099
  604MOL0     H81531   6.612   1.921   6.570  1.0736 -1.1663  1.0338
  604MOL0     H81532   6.604   1.689   6.525 -1.4303  0.6365 -0.8572
  604MOL0     H81533   6.484   1.657   6.639 -0.5461  0.3801 -0.5543
  604MOL0     H81534   6.765   1.784   6.696  1.6431  0.6196  4.3228
  604MOL0     H81535   6.653   1.744   6.823 -0.2546  2.6595 -0.6423
  604MOL0     H81536   6.819   1.364   6.773  1.9480 -0.0429 -0.2236
  604MOL0     H81537   6.234   1.959   6.270 -2.4082 -0.5369 -0.9109
  604MOL0     H81538   6.103   2.020   6.122  0.5958  0.0094  0.3645
  604MOL0     H81539   6.181   2.059   5.961  0.8251 -1.0607 -0.5228
  604MOL0     H81540   6.060   1.926   5.977  1.5084 -2.3263  0.1497
  605MOL0     O81541   4.169   0.693  10.457  0.6012 -0.4962  0.8295
  605MOL0     C81542   4.275   0.746  10.418 -0.6749  0.1282  0.7300
  605MOL0     O81543   4.384   0.787  10.498  0.7365 -0.3831 -0.4680
  605MOL0     C81544   4.389   0.745  10.628 -0.0056 -0.9107 -0.1653
  605MOL0     C81545   4.513   0.703  10.676 -0.2381 -0.1110 -0.8067
  605MOL0     C81546   4.533   0.669  10.811  0.6425  0.6848  0.8952
  605MOL0     C81547   4.423   0.695  10.901 -0.3425  0.6574  0.1493
  605MOL0     O81548   4.437   0.662  11.032 -0.2922 -0.4153 -0.1183
  605MOL0     C81549   4.320   0.692  11.115 -0.0247  0.6421  1.0365
  605MOL0     C81550   4.361   0.659  11.256  0.9397  0.0185 -1.1474
  605MOL0     C81551   4.469   0.758  11.319  0.8953 -0.0195  0.0488
  605MOL0     C81552   4.431   0.919  11.327 -0.2749 -0.0619  0.4540
  605MOL0     C81553   4.461   0.976  11.476  0.3564  1.4127  0.5265
  605MOL0     C81554   4.422   1.127  11.496  0.1198  0.1856 -0.6555
  605MOL0     C81555   4.543   1.222  11.480  0.0089  0.1728  0.4099
  605MOL0     C81556   4.501   1.363  11.444 -0.2557  0.2533  0.3311
  605MOL0     N81557   4.426   1.377  11.322  0.3262 -0.6733 -0.0998
  605MOL0     C81558   4.293   1.433  11.321  0.2870  0.6447  0.0570
  605MOL0     C81559   4.281   1.465  11.188  0.6005 -0.0720  0.1822
  605MOL0     C81560   4.147   1.528  11.157  0.4192  0.5683 -0.2930
  605MOL0     C81561   4.185   1.637  11.056  0.0777  0.5185 -0.4046
  605MOL0     C81562   4.075   1.727  11.025  0.0478 -0.1597 -0.0104
  605MOL0     C81563   4.118   1.822  10.920 -0.8425  0.6581  0.1817
  605MOL0     O81564   4.009   1.889  10.868  1.1208 -0.0318  0.1216
  605MOL0     C81565   4.027   1.972  10.769  0.5598  0.0399 -0.3171
  605MOL0     C81566   4.140   2.000  10.697  0.2440  0.3442  0.3102
  605MOL0     C81567   4.148   2.105  10.601 -1.2436 -0.3572  0.2884
  605MOL0     C81568   4.043   2.193  10.591  0.1792 -0.4342  0.4924
  605MOL0     C81569   4.044   2.304  10.499  0.1262  0.0610  0.0901
  605MOL0     O81570   4.135   2.300  10.402  0.3905  0.5589 -0.3547
  605MOL0     C81571   4.132   2.402  10.311  0.8229 -0.2921  0.2099
  605MOL0     C81572   4.238   2.491  10.307 -0.6338  1.1154 -0.0278
  605MOL0     C81573   4.260   2.583  10.209  0.6572 -0.5174  0.7843
  605MOL0     C81574   4.164   2.603  10.115 -0.4928 -0.0923  0.3940
  605MOL0     O81575   4.202   2.702  10.023  0.1875  0.0755  0.8605
  605MOL0     C81576   4.101   2.796   9.976  0.5845 -0.9299 -0.8367
  605MOL0     C81577   4.168   2.872   9.853 -0.5791  1.2137  0.6244
  605MOL0     C81578   4.057   2.964   9.787  0.5393  0.6094 -0.2297
  605MOL0     C81579   4.088   3.007   9.643 -0.2660 -0.3098  0.4021
  605MOL0     C81580   4.220   3.080   9.613 -0.1557 -0.0429 -0.8684
  605MOL0     C81581   4.253   3.091   9.460  0.2044  0.2329 -0.3658
  605MOL0     C81582   4.389   3.124   9.432 -0.4581  0.7314  0.4465
  605MOL0     C81583   4.496   3.018   9.482  0.4942 -0.8692  0.1293
  605MOL0    Cl81584   4.435   2.846   9.467  0.0059  0.2183 -0.5345
  605MOL0     C81585   4.051   2.524  10.116  0.1739 -0.2387 -0.3416
  605MOL0     C81586   4.044   2.413  10.204  0.1266  0.0353  0.2909
  605MOL0     O81587   3.955   2.394  10.513  0.2676  1.0494  0.0424
  605MOL0     C81588   3.931   2.169  10.663 -0.5283 -0.5721 -0.1762
  605MOL0     C81589   3.923   2.058  10.751  0.4951 -0.4525  0.2637
  605MOL0     N81590   4.384   1.423  11.109  0.2252  0.1121  0.3883
  605MOL0     N81591   4.461   1.366  11.189 -0.8003  0.1733 -0.1138
  605MOL0     C81592   4.305   0.759  10.848  0.8913  0.2262 -0.5582
  605MOL0     C81593   4.289   0.777  10.711  0.0372  0.4002  0.1551
  605MOL0     C81594   4.311   0.760  10.272  0.1894  0.3472  0.8161
  605MOL0     C81595   4.424   0.833  10.245  0.3017  0.0107 -1.0189
  605MOL0     C81596   4.468   0.854  10.116 -0.6951 -0.1710  0.5654
  605MOL0     C81597   4.397   0.799  10.010 -0.1263  0.4264 -0.3070
  605MOL0     O81598   4.453   0.821   9.884  0.3984 -0.5718 -0.0347
  605MOL0     C81599   4.390   0.784   9.763  0.1989 -0.4855 -0.6894
  605MOL0     C81600   4.463   0.852   9.645 -0.3816 -0.0610 -0.7423
  605MOL0     C81601   4.395   0.818   9.514  0.1841 -0.8906 -0.3640
  605MOL0     C81602   4.311   0.933   9.466 -0.7045  0.3651 -0.6257
  605MOL0     C81603   4.200   0.958   9.556  1.0644 -0.8183  0.5589
  605MOL0     C81604   4.116   0.975   9.642  0.4450 -0.6860  0.5490
  605MOL0     C81605   4.286   0.726  10.036  0.8280 -0.8124  0.6290
  605MOL0     C81606   4.245   0.693  10.164  0.5531  0.4469 -0.1530
  605MOL0     C81607   4.123   0.605  10.178 -0.9691 -0.0359  0.0160
  605MOL0     H81608   4.605   0.688  10.620  0.2517 -0.5915  0.0949
  605MOL0     H81609   4.622   0.617  10.843 -0.4058 -0.7664  1.5915
  605MOL0     H81610   4.284   0.796  11.116 -0.1887  0.6381 -1.0923
  605MOL0     H81611   4.232   0.631  11.092 -2.3397  3.3521  2.0589
  605MOL0     H81612   4.402   0.559  11.272  1.5656  0.4439  0.0368
  605MOL0     H81613   4.268   0.675  11.311  2.3171  1.0450  1.0057
  605MOL0     H81614   4.560   0.753  11.259  1.6713 -0.8266  1.2475
  605MOL0     H81615   4.505   0.729  11.418 -0.5508  3.3386  1.7100
  605MOL0     H81616   4.501   0.966  11.257  2.0970  0.6966  3.1279
  605MOL0     H81617   4.327   0.928  11.295 -0.3617  2.4682  1.2704
  605MOL0     H81618   4.405   0.911  11.543 -0.3907  0.1547 -1.2372
  605MOL0     H81619   4.566   0.972  11.508  0.6756  1.2872 -0.4877
  605MOL0     H81620   4.344   1.156  11.424 -1.7338 -0.0467  1.1598
  605MOL0     H81621   4.386   1.151  11.596  0.2677 -1.7483 -0.1074
  605MOL0     H81622   4.605   1.170  11.408 -0.5599 -0.7685  0.5867
  605MOL0     H81623   4.603   1.240  11.569 -2.2065  3.3952  1.4453
  605MOL0     H81624   4.441   1.411  11.522  0.0062 -0.0464  0.7204
  605MOL0     H81625   4.589   1.427  11.442  2.4731 -2.9951  2.8961
  605MOL0     H81626   4.228   1.444  11.408 -1.5826 -1.9052 -0.8734
  605MOL0     H81627   4.077   1.464  11.103  1.2208 -0.7003  0.1377
  605MOL0     H81628   4.101   1.552  11.253 -0.2997 -0.5147 -0.3556
  605MOL0     H81629   4.251   1.711  11.102  0.7943  1.3064 -2.5486
  605MOL0     H81630   4.213   1.581  10.966 -1.0688  0.5703 -0.8107
  605MOL0     H81631   4.047   1.793  11.107 -1.2249  1.7801 -1.9000
  605MOL0     H81632   3.989   1.670  10.989 -0.5629 -1.3181  2.9579
  605MOL0     H81633   4.177   1.760  10.852 -0.4699  0.5916  0.5584
  605MOL0     H81634   4.193   1.891  10.960 -1.0645  0.0660  1.7029
  605MOL0     H81635   4.228   1.936  10.702 -0.8460 -1.3761 -1.1590
  605MOL0     H81636   4.239   2.124  10.545 -1.0129 -0.1016  0.7477
  605MOL0     H81637   4.316   2.478  10.381 -1.8056  2.7072  1.6026
  605MOL0     H81638   4.345   2.650  10.216 -0.5665  1.0238  1.6095
  605MOL0     H81639   4.018   2.735   9.940 -1.7268  1.9412 -0.6833
  605MOL0     H81640   4.068   2.855  10.062 -0.3912 -2.2277 -0.2849
  605MOL0     H81641   4.256   2.922   9.895  0.2129 -1.4569  2.4417
  605MOL0     H81642   4.202   2.795   9.782 -0.7800  2.5394 -0.9496
  605MOL0     H81643   3.966   2.903   9.795 -0.7662  2.0629 -2.6706
  605MOL0     H81644   4.031   3.048   9.853 -0.9188  0.2318 -0.2953
  605MOL0     H81645   4.008   3.075   9.614  1.9987  2.0117 -0.7572
  605MOL0     H81646   4.087   2.914   9.585 -2.1107 -0.3013  0.3849
  605MOL0     H81647   4.297   3.016   9.657 -3.4153 -2.7212  1.3250
  605MOL0     H81648   4.219   3.176   9.665 -0.5063 -0.7667  0.4993
  605MOL0     H81649   4.223   3.001   9.404  0.8938  0.3944 -1.0074
  605MOL0     H81650   4.184   3.168   9.425 -1.4648 -1.2045 -0.4449
  605MOL0     H81651   4.410   3.224   9.471 -1.0522  1.9613 -2.1556
  605MOL0     H81652   4.396   3.139   9.323 -1.0233 -1.4558  0.0627
  605MOL0     H81653   4.597   3.041   9.446 -0.4845  2.5317 -0.7825
  605MOL0     H81654   4.512   3.055   9.583 -2.0933  0.9246 -0.0295
  605MOL0     H81655   3.974   2.521  10.038  1.1415 -2.0685 -1.2826
  605MOL0     H81656   3.962   2.342  10.198  2.1821 -2.6087  1.3259
  605MOL0     H81657   3.850   2.241  10.657  0.0515  0.0777 -0.3102
  605MOL0     H81658   3.830   2.036  10.802  1.7054  1.1093  3.3635
  605MOL0     H81659   4.218   0.768  10.912  0.6363  1.1542 -1.0179
  605MOL0     H81660   4.198   0.824  10.675  1.0368  2.2888  0.0047
  605MOL0     H81661   4.473   0.890  10.323  0.5179 -0.7451 -0.5961
  605MOL0     H81662   4.549   0.922  10.091 -2.0773  1.6138  0.7074
  605MOL0     H81663   4.285   0.813   9.761  0.3356  0.1860  0.7615
  605MOL0     H81664   4.406   0.676   9.759 -0.0378 -0.5385 -0.2524
  605MOL0     H81665   4.567   0.822   9.664 -1.3977 -1.0266  5.8760
  605MOL0     H81666   4.466   0.959   9.667  1.0864 -0.2719  0.2206
  605MOL0     H81667   4.353   0.717   9.516 -0.7730 -0.6193  4.1096
  605MOL0     H81668   4.480   0.818   9.445  2.0176  1.6518  1.6872
  605MOL0     H81669   4.380   1.015   9.445  2.7563 -2.4107 -1.1449
  605MOL0     H81670   4.271   0.917   9.366  0.4217  0.6539 -1.1396
  605MOL0     H81671   4.029   0.981   9.705 -0.4509  0.1468 -0.7330
  605MOL0     H81672   4.240   0.680   9.949  2.1043 -0.8410 -0.0534
  605MOL0     H81673   4.151   0.504  10.210 -0.8802  0.1337  0.4830
  605MOL0     H81674   4.050   0.649  10.247 -1.1829 -1.1889  0.5539
  605MOL0     H81675   4.075   0.591  10.080 -0.6632 -1.0292 -0.0052
  606MOL0     O81676   8.018   1.846  10.954 -0.3785  0.3621 -0.1250
  606MOL0     C81677   7.999   1.960  10.915  0.6832  0.6362 -1.4199
  606MOL0     O81678   7.892   1.991  10.832  0.0918 -0.5397 -0.5018
  606MOL0     C81679   7.842   1.901  10.747  0.7088  0.5126  1.3141
  606MOL0     C81680   7.828   1.760  10.772 -0.3321 -0.0126  0.2136
  606MOL0     C81681   7.783   1.661  10.684 -0.4650 -1.0513 -0.3748
  606MOL0     C81682   7.734   1.706  10.562 -0.7401  0.0075 -0.2741
  606MOL0     O81683   7.682   1.626  10.468 -0.9103  0.0766  0.5416
  606MOL0     C81684   7.602   1.518  10.510 -0.2868 -0.3168 -0.3410
  606MOL0     C81685   7.566   1.451  10.374 -0.0571 -0.7372 -0.1694
  606MOL0     C81686   7.474   1.335  10.405 -0.3072  0.0981 -0.4259
  606MOL0     C81687   7.486   1.232  10.289 -1.0088 -0.4967 -0.0775
  606MOL0     C81688   7.384   1.119  10.287 -1.2405  0.4896 -1.0637
  606MOL0     C81689   7.246   1.183  10.307 -0.2592 -0.5444  0.1364
  606MOL0     C81690   7.122   1.081  10.285  0.1086 -0.9785  1.2443
  606MOL0     C81691   7.118   0.965  10.380  0.0378  0.0126 -0.3877
  606MOL0     N81692   7.003   0.878  10.375  0.1044 -0.3838  0.6760
  606MOL0     C81693   6.926   0.852  10.267 -1.2763  0.4593  0.5620
  606MOL0     C81694   6.862   0.737  10.303 -0.2110 -0.2441  0.4200
  606MOL0     C81695   6.761   0.674  10.213 -0.0706 -0.7543  0.4042
  606MOL0     C81696   6.624   0.647  10.276  0.3153 -0.1196 -0.2240
  606MOL0     C81697   6.557   0.789  10.271 -0.2862  0.4267 -0.6077
  606MOL0     C81698   6.427   0.781  10.352  0.5464  0.7982 -0.1075
  606MOL0     O81699   6.336   0.697  10.286 -0.5564 -0.0277 -0.6142
  606MOL0     C81700   6.221   0.677  10.352 -0.8757  0.2048 -0.3780
  606MOL0     C81701   6.187   0.549  10.399  0.2275  0.0267 -0.2963
  606MOL0     C81702   6.064   0.515  10.446 -0.1847  0.9056 -0.6585
  606MOL0     C81703   5.958   0.609  10.444 -0.8127 -0.6870 -0.3762
  606MOL0     C81704   5.823   0.580  10.481 -0.4769  0.9140 -0.2427
  606MOL0     O81705   5.727   0.667  10.466 -0.2819  0.2522  0.3119
  606MOL0     C81706   5.602   0.617  10.433  1.2673 -0.4190  0.2329
  606MOL0     C81707   5.489   0.709  10.419  0.2023  0.3913 -0.6636
  606MOL0     C81708   5.368   0.672  10.371  0.0152  0.8171 -0.2592
  606MOL0     C81709   5.349   0.542  10.337 -0.4379  0.7678 -0.0225
  606MOL0     O81710   5.229   0.514  10.274  0.0317  0.0246 -0.3783
  606MOL0     C81711   5.232   0.403  10.178 -0.4132 -0.8886  1.2310
  606MOL0     C81712   5.100   0.404  10.107  0.3169  0.2150 -0.3226
  606MOL0     C81713   4.974   0.351  10.184 -0.2306 -0.5153  0.5493
  606MOL0     C81714   4.924   0.459  10.281  0.4899  0.2913  0.7321
  606MOL0     C81715   4.787   0.417  10.348  0.4324 -0.6833  1.0028
  606MOL0     C81716   4.664   0.404  10.251 -0.5875  0.5167  0.3117
  606MOL0     C81717   4.650   0.518  10.147  0.6832  0.0483  0.1908
  606MOL0     C81718   4.537   0.504  10.037  0.5710 -0.3244  0.0053
  606MOL0    Cl81719   4.537   0.342   9.960  0.3712 -0.1355 -0.3182
  606MOL0     C81720   5.449   0.456  10.342 -0.2638 -0.0788  0.1428
  606MOL0     C81721   5.583   0.490  10.378  0.4610 -0.9684  1.1102
  606MOL0     O81722   5.804   0.472  10.542 -0.6657 -0.1491  0.3414
  606MOL0     C81723   5.993   0.742  10.399 -0.1468  0.6201  0.7896
  606MOL0     C81724   6.124   0.779  10.369 -0.2141 -0.8378  0.4095
  606MOL0     N81725   6.894   0.709  10.432 -0.2155  1.2589  0.3673
  606MOL0     N81726   6.982   0.791  10.475  0.0315 -0.4238  0.1609
  606MOL0     C81727   7.748   1.842  10.530  0.3702 -0.4131  0.7770
  606MOL0     C81728   7.797   1.932  10.620 -0.3443 -0.1654 -0.0059
  606MOL0     C81729   8.079   2.073  10.968 -0.3211 -0.2330 -0.1964
  606MOL0     C81730   8.070   2.192  10.905  0.0950 -0.1436 -0.2447
  606MOL0     C81731   8.155   2.296  10.934 -0.7302  0.0056  0.9141
  606MOL0     C81732   8.250   2.278  11.027 -1.3922 -0.9080 -0.1395
  606MOL0     O81733   8.346   2.376  11.036 -0.0387  0.1135  0.6177
  606MOL0     C81734   8.342   2.432  11.168  0.1370 -0.3343  0.7182
  606MOL0     C81735   8.483   2.462  11.229 -0.6910  0.0763  0.0182
  606MOL0     C81736   8.473   2.474  11.382  0.2307 -0.7036 -0.3930
  606MOL0     C81737   8.400   2.608  11.444  0.2630 -0.0846  0.3888
  606MOL0     C81738   8.318   2.593  11.564  0.6973 -0.1538 -0.2894
  606MOL0     C81739   8.263   2.573  11.676 -0.9266  0.5165  0.3566
  606MOL0     C81740   8.264   2.169  11.107  1.2577  0.1620 -0.4607
  606MOL0     C81741   8.178   2.058  11.078 -0.4658 -0.7416  0.4317
  606MOL0     C81742   8.193   1.947  11.182  0.0852  0.6340 -0.3303
  606MOL0     H81743   7.833   1.729  10.876  1.2617  0.0086  0.1555
  606MOL0     H81744   7.762   1.560  10.717 -3.7221  0.5647  3.1709
  606MOL0     H81745   7.664   1.455  10.573 -1.8806 -1.9050 -0.2946
  606MOL0     H81746   7.507   1.552  10.553 -1.7255 -0.7773 -2.9701
  606MOL0     H81747   7.663   1.421  10.334 -0.6308  0.4467 -2.6396
  606MOL0     H81748   7.520   1.514  10.297  3.3971  3.0524  0.5193
  606MOL0     H81749   7.379   1.390  10.401  0.6708  1.9069 -4.5196
  606MOL0     H81750   7.496   1.297  10.505 -1.5852  0.0028 -0.1575
  606MOL0     H81751   7.487   1.286  10.193  1.8982 -0.1303  0.0541
  606MOL0     H81752   7.582   1.181  10.302 -0.0894  1.1312 -0.2201
  606MOL0     H81753   7.399   1.066  10.193  2.6017 -1.1691  0.2949
  606MOL0     H81754   7.396   1.051  10.372 -3.3908 -0.6565 -1.5982
  606MOL0     H81755   7.233   1.229  10.405  2.9193  0.6424  0.1020
  606MOL0     H81756   7.219   1.253  10.227 -1.6081 -1.0221  0.1346
  606MOL0     H81757   7.123   1.051  10.180  4.4433  0.0292  0.8073
  606MOL0     H81758   7.029   1.137  10.290 -0.2294 -1.1338 -1.7223
  606MOL0     H81759   7.208   0.913  10.346  0.4804  1.6482 -1.8583
  606MOL0     H81760   7.132   1.006  10.481  1.3550  0.7720 -0.8491
  606MOL0     H81761   6.928   0.899  10.170 -2.1056 -2.3992 -0.9677
  606MOL0     H81762   6.752   0.735  10.123 -1.2811 -1.2009  0.1947
  606MOL0     H81763   6.803   0.582  10.173 -0.8152 -0.4640 -1.1043
  606MOL0     H81764   6.570   0.581  10.208  1.6482 -3.6365  1.8471
  606MOL0     H81765   6.633   0.606  10.377  4.1998 -2.4883 -1.2906
  606MOL0     H81766   6.526   0.810  10.168 -0.2123 -0.2769 -0.7783
  606MOL0     H81767   6.621   0.867  10.312  0.4343 -0.8506  0.7945
  606MOL0     H81768   6.381   0.880  10.347  0.4103  0.8532  1.7217
  606MOL0     H81769   6.430   0.765  10.460 -0.7660  4.9758  0.7384
  606MOL0     H81770   6.253   0.462  10.392 -2.2589 -1.9304 -0.9037
  606MOL0     H81771   6.040   0.411  10.466 -1.2082  0.7904 -2.2864
  606MOL0     H81772   5.504   0.809  10.458  0.8050 -0.8750  2.6564
  606MOL0     H81773   5.278   0.733  10.373 -2.5314 -2.6412  0.4294
  606MOL0     H81774   5.302   0.407  10.094 -0.4705 -3.3758  0.9722
  606MOL0     H81775   5.251   0.314  10.239  0.1557 -0.5290  1.5846
  606MOL0     H81776   5.081   0.501  10.060 -1.3295 -0.0297 -0.2228
  606MOL0     H81777   5.096   0.333  10.024 -4.4815  0.3878 -0.4819
  606MOL0     H81778   4.899   0.321  10.111 -0.1700  0.5071  0.0406
  606MOL0     H81779   5.002   0.260  10.237  1.8181 -1.1055 -1.3703
  606MOL0     H81780   4.906   0.553  10.228 -2.9225 -0.7569 -0.2531
  606MOL0     H81781   4.990   0.468  10.367 -0.6708  1.8499  1.5063
  606MOL0     H81782   4.765   0.499  10.416 -2.7635  0.6311 -1.3830
  606MOL0     H81783   4.800   0.331  10.414  0.9294  0.1585  2.0286
  606MOL0     H81784   4.674   0.308  10.200  1.2684 -1.9219  4.6848
  606MOL0     H81785   4.570   0.414  10.306  0.3937 -0.6577  2.3533
  606MOL0     H81786   4.744   0.531  10.094 -0.1304 -1.2017 -1.6950
  606MOL0     H81787   4.628   0.615  10.192 -0.3117  0.5807 -1.3466
  606MOL0     H81788   4.443   0.511  10.093  1.4090  1.7782  1.2512
  606MOL0     H81789   4.556   0.578   9.959  1.3275 -0.6693 -0.1447
  606MOL0     H81790   5.450   0.359  10.294 -0.8126  0.9354 -2.0107
  606MOL0     H81791   5.657   0.414  10.355 -0.4756 -1.3734 -0.7982
  606MOL0     H81792   5.917   0.819  10.393  0.1832  1.0817  2.2732
  606MOL0     H81793   6.134   0.875  10.319 -1.8591 -2.7187 -4.0749
  606MOL0     H81794   7.702   1.887  10.443  2.6044  1.3847  0.4620
  606MOL0     H81795   7.800   2.039  10.600  1.3187 -0.3599 -1.0258
  606MOL0     H81796   7.988   2.214  10.837 -0.1830 -2.0099 -0.5485
  606MOL0     H81797   8.156   2.390  10.880  1.6961  0.0245  0.8854
  606MOL0     H81798   8.285   2.373  11.239 -2.5299  2.9393  1.5584
  606MOL0     H81799   8.280   2.520  11.149 -5.8458 -4.3747 -1.5052
  606MOL0     H81800   8.529   2.550  11.182  0.5978 -0.1608  0.8012
  606MOL0     H81801   8.549   2.381  11.197 -1.9886 -0.8981 -0.2772
  606MOL0     H81802   8.572   2.469  11.427  1.2001 -1.7671 -2.4792
  606MOL0     H81803   8.420   2.385  11.416 -1.6601  0.9853  1.3141
  606MOL0     H81804   8.471   2.689  11.465 -0.0021  0.0410  0.8150
  606MOL0     H81805   8.336   2.652  11.368  1.4152  3.5979  1.3683
  606MOL0     H81806   8.222   2.544  11.771 -1.1660 -0.4163 -0.0149
  606MOL0     H81807   8.341   2.172  11.183 -1.1262  1.6422  2.1111
  606MOL0     H81808   8.243   1.861  11.138 -1.9175 -0.4647 -0.5931
  606MOL0     H81809   8.243   1.991  11.269  0.0326  1.0486 -0.5032
  606MOL0     H81810   8.096   1.901  11.202  1.5525 -1.9141  1.4740
  607MOL0     O81811   8.167  11.352  11.208 -0.2673 -0.7090 -0.8082
  607MOL0     C81812   8.158  11.250  11.147 -0.0418  0.5285  0.8708
  607MOL0     O81813   8.031  11.202  11.095 -0.5606  0.1129 -0.9765
  607MOL0     C81814   7.907  11.246  11.134 -0.1569 -0.5632  0.0791
  607MOL0     C81815   7.794  11.215  11.052  0.0190 -0.3907  0.4689
  607MOL0     C81816   7.672  11.273  11.085  0.1285 -0.0028 -0.0521
  607MOL0     C81817   7.655  11.362  11.192  0.7900 -0.0136  0.1286
  607MOL0     O81818   7.544  11.438  11.227 -0.2224 -0.5684 -0.5120
  607MOL0     C81819   7.446  11.459  11.124 -0.5072  0.0003  0.2563
  607MOL0     C81820   7.479  11.595  11.061  0.1016 -0.1882  0.8522
  607MOL0     C81821   7.445  11.707  11.161 -0.7764  0.2350  0.6541
  607MOL0     C81822   7.439  11.846  11.089 -0.7631  0.4627 -0.0048
  607MOL0     C81823   7.457  11.958  11.196  0.0909  0.7898 -1.2725
  607MOL0     C81824   7.448  12.097  11.113 -0.1428  0.4675  1.0822
  607MOL0     C81825   7.455  12.210  11.215  0.2714 -0.0612  0.8891
  607MOL0     C81826   7.532  12.323  11.155 -0.0651  0.2719  0.8061
  607MOL0     N81827   7.519  12.440  11.247 -0.8045 -0.4152 -0.1003
  607MOL0     C81828   7.403  12.498  11.308  0.4369 -0.2177  1.0102
  607MOL0     C81829   7.441  12.606  11.384 -0.9304 -0.4238  0.7962
  607MOL0     C81830   7.339  12.691  11.461 -0.0529 -0.2744  0.1173
  607MOL0     C81831   7.395  12.839  11.477  0.5420  1.1903 -0.0002
  607MOL0     C81832   7.404  12.904  11.344 -0.0696 -0.1520 -0.4592
  607MOL0     C81833   7.457  13.045  11.376 -1.0713 -0.3654  0.2785
  607MOL0     O81834   7.594  13.038  11.445  0.2533 -0.5055  0.1251
  607MOL0     C81835   7.700  12.986  11.365 -0.2586 -0.2828 -0.1562
  607MOL0     C81836   7.765  12.874  11.395 -0.3772 -0.7118 -0.0907
  607MOL0     C81837   7.862  12.816  11.312 -0.7579 -0.1588 -0.7263
  607MOL0     C81838   7.900  12.880  11.195 -0.5743 -0.5260 -0.1187
  607MOL0     C81839   8.013  12.820  11.111 -0.6711 -0.3123 -0.1215
  607MOL0     O81840   8.115  12.749  11.162 -0.0844  1.1757 -0.2432
  607MOL0     C81841   8.226  12.699  11.099 -1.3315 -0.4249 -0.8070
  607MOL0     C81842   8.276  12.572  11.141  0.8252  0.0478 -0.1135
  607MOL0     C81843   8.385  12.508  11.077 -0.5556 -0.7991 -0.6973
  607MOL0     C81844   8.450  12.574  10.968 -0.2909  0.3133 -0.1682
  607MOL0     O81845   8.566  12.515  10.923 -0.0320 -0.5786  0.2818
  607MOL0     C81846   8.629  12.538  10.793  0.5480 -0.0239 -0.7657
  607MOL0     C81847   8.768  12.475  10.795  0.1256  0.8151 -0.3068
  607MOL0     C81848   8.797  12.325  10.775  0.0977  0.4056 -0.4506
  607MOL0     C81849   8.702  12.246  10.689 -0.2241  0.5888 -0.6308
  607MOL0     C81850   8.754  12.102  10.685  0.1137  0.0476 -0.2648
  607MOL0     C81851   8.666  12.006  10.607 -0.5118  0.5299  0.6081
  607MOL0     C81852   8.699  12.032  10.459  1.2558  0.3900  0.0086
  607MOL0     C81853   8.582  11.970  10.373  0.4492 -0.3682 -0.6729
  607MOL0    Cl81854   8.648  11.939  10.211  0.2284 -0.3422  0.1975
  607MOL0     C81855   8.405  12.698  10.928  0.1011  0.4348 -0.6728
  607MOL0     C81856   8.296  12.766  10.994 -0.7327 -0.2176  0.7202
  607MOL0     O81857   8.005  12.860  10.997  0.3338  0.0825  1.1516
  607MOL0     C81858   7.843  13.005  11.171  0.0861 -0.1814 -0.2296
  607MOL0     C81859   7.745  13.063  11.262  0.2322  0.4136  0.7300
  607MOL0     N81860   7.579  12.615  11.372 -0.5184 -0.0862  0.1167
  607MOL0     N81861   7.623  12.523  11.291 -0.2298 -0.0512 -0.1992
  607MOL0     C81862   7.758  11.363  11.279 -0.7074  0.2943  0.0004
  607MOL0     C81863   7.884  11.297  11.260  0.0634 -1.2606  0.2262
  607MOL0     C81864   8.282  11.172  11.113  0.3801  0.5909  0.5200
  607MOL0     C81865   8.261  11.045  11.054  0.2544 -0.1319  0.6487
  607MOL0     C81866   8.380  10.964  11.034  0.9128 -0.5130 -0.0556
  607MOL0     C81867   8.502  11.004  11.072  0.6911  0.0008  0.5851
  607MOL0     O81868   8.615  10.934  11.047  0.3361  0.4617  0.4471
  607MOL0     C81869   8.601  10.828  10.953  0.1418 -0.2148 -0.0519
  607MOL0     C81870   8.742  10.784  10.909 -0.0607  1.0162  0.0462
  607MOL0     C81871   8.735  10.639  10.830  0.1113 -0.4357 -0.2262
  607MOL0     C81872   8.848  10.633  10.734 -0.1720  0.7678 -0.4424
  607MOL0     C81873   8.812  10.535  10.623 -1.2507 -0.8767  0.0990
  607MOL0     C81874   8.790  10.433  10.556 -0.1766  0.7045 -0.6510
  607MOL0     C81875   8.520  11.127  11.134  0.3306  1.3657  0.2511
  607MOL0     C81876   8.408  11.214  11.165  0.6435  0.1785  0.5168
  607MOL0     C81877   8.434  11.346  11.231 -0.9697  0.5630  0.3513
  607MOL0     H81878   7.809  11.153  10.964  0.4794 -0.7830  0.8201
  607MOL0     H81879   7.588  11.268  11.017  0.3983  0.0796 -0.3992
  607MOL0     H81880   7.434  11.377  11.052 -1.9316  1.1771 -0.9343
  607MOL0     H81881   7.345  11.466  11.166 -2.2018 -3.6282 -2.5511
  607MOL0     H81882   7.419  11.624  10.974 -2.4340  0.3396  2.6359
  607MOL0     H81883   7.586  11.597  11.038 -0.4883  0.5559 -2.2897
  607MOL0     H81884   7.527  11.704  11.232  0.9477 -1.2294 -1.2810
  607MOL0     H81885   7.348  11.694  11.210 -0.2662 -1.5671  1.2590
  607MOL0     H81886   7.526  11.856  11.024 -0.0838 -4.6140 -0.2520
  607MOL0     H81887   7.345  11.866  11.037 -2.2525 -1.6138  1.6920
  607MOL0     H81888   7.378  11.962  11.271  2.6907  2.5658  1.5863
  607MOL0     H81889   7.554  11.949  11.246  0.3299 -6.0719 -1.9206
  607MOL0     H81890   7.535  12.105  11.046 -1.2744  1.7855 -0.2831
  607MOL0     H81891   7.359  12.097  11.051  0.8038 -2.5494 -0.5152
  607MOL0     H81892   7.495  12.184  11.313 -1.0148  2.4654  2.1812
  607MOL0     H81893   7.353  12.242  11.235 -0.1962 -0.8893 -0.1072
  607MOL0     H81894   7.637  12.293  11.164 -0.3853 -0.5614  1.9649
  607MOL0     H81895   7.505  12.355  11.054  0.0778  0.9400  0.9762
  607MOL0     H81896   7.305  12.453  11.301 -0.1790  1.3325 -2.0628
  607MOL0     H81897   7.238  12.686  11.419 -0.0989 -3.5123  0.3138
  607MOL0     H81898   7.335  12.651  11.563 -2.0000 -0.4294  0.0221
  607MOL0     H81899   7.331  12.891  11.549 -1.3853 -1.9918  0.7616
  607MOL0     H81900   7.500  12.826  11.507  0.6927 -1.2683 -1.3717
  607MOL0     H81901   7.309  12.907  11.290  0.9507 -4.1555 -2.9013
  607MOL0     H81902   7.469  12.849  11.276 -1.1189 -1.0316 -0.7758
  607MOL0     H81903   7.378  13.097  11.430 -3.6162 -2.0123 -1.6473
  607MOL0     H81904   7.469  13.108  11.288  0.2557 -0.1977  0.5532
  607MOL0     H81905   7.751  12.820  11.488 -0.6780  0.6268  0.6623
  607MOL0     H81906   7.917  12.726  11.335  2.2623  1.3807 -1.3946
  607MOL0     H81907   8.215  12.531  11.221  1.4020  1.8495  1.3455
  607MOL0     H81908   8.432  12.415  11.110  1.6260 -0.2796 -2.1148
  607MOL0     H81909   8.567  12.495  10.713  0.2673 -1.1796  0.0520
  607MOL0     H81910   8.635  12.646  10.782  0.3645 -0.1634 -2.6385
  607MOL0     H81911   8.805  12.523  10.704 -2.0867 -2.7649 -3.3782
  607MOL0     H81912   8.834  12.505  10.877  2.5205 -3.0780 -0.5864
  607MOL0     H81913   8.899  12.319  10.735  1.0279 -1.1851  1.8927
  607MOL0     H81914   8.806  12.267  10.867 -1.0408 -4.1731 -2.9153
  607MOL0     H81915   8.697  12.278  10.585  3.6987 -4.1250 -2.7003
  607MOL0     H81916   8.602  12.237  10.732  0.3160 -0.3055  0.5017
  607MOL0     H81917   8.752  12.065  10.788 -1.2536  3.3025  1.0303
  607MOL0     H81918   8.858  12.096  10.652  0.6197 -2.0968  1.4928
  607MOL0     H81919   8.687  11.901  10.627 -0.2755  0.8219  2.0371
  607MOL0     H81920   8.560  12.021  10.627 -0.5454  1.2172 -0.0419
  607MOL0     H81921   8.785  11.969  10.433  0.7350 -0.0374 -0.7329
  607MOL0     H81922   8.709  12.137  10.430 -5.7266  1.9796  1.6397
  607MOL0     H81923   8.545  11.881  10.426 -0.1283 -1.7267 -3.1831
  607MOL0     H81924   8.502  12.044  10.364 -1.2136 -2.0073 -0.0548
  607MOL0     H81925   8.438  12.743  10.835 -0.0546  0.4516 -0.7215
  607MOL0     H81926   8.262  12.861  10.955  0.9853 -0.5957 -1.9858
  607MOL0     H81927   7.861  13.058  11.078 -1.3570  2.3838  0.8539
  607MOL0     H81928   7.702  13.159  11.235 -0.8404 -0.5093 -1.0362
  607MOL0     H81929   7.758  11.413  11.375  1.7925  0.3954 -0.0022
  607MOL0     H81930   7.966  11.315  11.328  1.1623 -3.9472 -0.2756
  607MOL0     H81931   8.157  11.017  11.042  0.1758 -0.3377  1.6934
  607MOL0     H81932   8.368  10.865  10.992 -1.5279  0.0683 -0.9074
  607MOL0     H81933   8.543  10.866  10.869 -0.5427 -3.1338 -0.9959
  607MOL0     H81934   8.544  10.740  10.984 -0.8717  0.3283 -0.3386
  607MOL0     H81935   8.802  10.765  10.998  0.8587 -1.7560 -1.0474
  607MOL0     H81936   8.776  10.870  10.851 -1.8348  1.2480 -0.7281
  607MOL0     H81937   8.635  10.639  10.785  0.2454 -1.5379 -0.5667
  607MOL0     H81938   8.757  10.558  10.901  1.4642 -0.4180 -0.5955
  607MOL0     H81939   8.871  10.733  10.696 -1.7748  1.5666  0.5735
  607MOL0     H81940   8.946  10.600  10.768 -0.2734 -1.5922 -2.2226
  607MOL0     H81941   8.772  10.345  10.497  0.8083  0.2996 -0.3559
  607MOL0     H81942   8.622  11.154  11.159  1.4812 -0.7840 -1.6983
  607MOL0     H81943   8.538  11.350  11.264 -0.6647 -1.8025 -0.1334
  607MOL0     H81944   8.418  11.425  11.157  1.1379 -1.1384 -2.1195
  607MOL0     H81945   8.378  11.370  11.322  0.0913  6.5207 -0.1703
  608MOL0     O81946   9.761   5.440   3.607  0.0133 -0.5060  1.1007
  608MOL0     C81947   9.859   5.413   3.535  0.0628  0.4060 -0.1808
  608MOL0     O81948   9.987   5.467   3.549 -0.6689 -0.0874  0.2239
  608MOL0     C81949  10.017   5.539   3.663  0.0849 -0.0212  0.6023
  608MOL0     C81950   9.973   5.669   3.680  1.0093  0.6270 -0.1468
  608MOL0     C81951  10.000   5.744   3.797  0.0049 -0.5547 -0.0340
  608MOL0     C81952  10.083   5.686   3.902 -0.4769  0.1131 -0.6736
  608MOL0     O81953  10.118   5.752   4.022  0.5093  0.8586 -0.0694
  608MOL0     C81954  10.010   5.809   4.097 -0.3684  0.1143  0.0894
  608MOL0     C81955  10.080   5.862   4.232  0.5291 -0.0615  0.7586
  608MOL0     C81956  10.160   5.993   4.222 -0.5901 -0.1241 -0.0422
  608MOL0     C81957  10.059   6.102   4.186 -0.4263 -0.5233  0.9127
  608MOL0     C81958  10.115   6.240   4.154  0.0551 -0.5770 -0.2206
  608MOL0     C81959  10.205   6.236   4.032  0.1356 -0.3327  0.5355
  608MOL0     C81960  10.230   6.374   3.980 -1.0933  0.4109 -0.1283
  608MOL0     C81961  10.326   6.471   4.060  0.1000 -0.3609  0.3190
  608MOL0     N81962  10.365   6.591   3.984 -0.3629 -0.5505  0.6521
  608MOL0     C81963  10.468   6.600   3.894 -0.5698  0.5300  0.2455
  608MOL0     C81964  10.493   6.740   3.895 -0.4513  0.3617 -0.1808
  608MOL0     C81965  10.604   6.804   3.815 -0.6240  0.3330 -0.8494
  608MOL0     C81966  10.740   6.785   3.869 -0.4168 -0.0757 -0.1246
  608MOL0     C81967  10.789   6.641   3.868  0.9286 -0.4353 -0.2151
  608MOL0     C81968  10.938   6.632   3.896  0.7819  0.1252  0.3321
  608MOL0     O81969  10.950   6.602   4.039 -0.0983  0.5130  0.7854
  608MOL0     C81970  11.078   6.592   4.085  0.6045 -0.3243  0.1427
  608MOL0     C81971  11.085   6.586   4.228 -1.1269  0.2134  0.4616
  608MOL0     C81972  11.204   6.585   4.297  0.7238 -0.0086 -0.0640
  608MOL0     C81973  11.327   6.586   4.236 -0.4445  0.3500  0.3998
  608MOL0     C81974  11.460   6.572   4.311  0.9583 -0.5962 -0.8918
  608MOL0     O81975  11.572   6.590   4.241  0.6234 -0.4789  0.0314
  608MOL0     C81976  11.689   6.596   4.304 -1.5910  0.7691 -0.4931
  608MOL0     C81977  11.762   6.478   4.313 -0.2645  0.1984  0.2264
  608MOL0     C81978  11.894   6.485   4.357 -0.2032 -0.1207  0.6082
  608MOL0     C81979  11.962   6.605   4.400  0.2543 -0.0576  0.1141
  608MOL0     O81980  12.089   6.600   4.427  0.6350  0.2877 -0.3067
  608MOL0     C81981  12.169   6.717   4.449  0.1467 -0.8586  0.2558
  608MOL0     C81982  12.314   6.689   4.468  0.1230  0.1900  0.3270
  608MOL0     C81983  12.345   6.635   4.608  0.5854  0.1097 -0.3980
  608MOL0     C81984  12.490   6.637   4.646 -0.4745 -0.0995 -0.9513
  608MOL0     C81985  12.565   6.522   4.567 -0.4338 -0.0931  0.0507
  608MOL0     C81986  12.716   6.512   4.586  0.1809  0.3732  0.1083
  608MOL0     C81987  12.762   6.365   4.552  0.2121  0.0672 -1.0484
  608MOL0     C81988  12.798   6.348   4.405 -0.5362 -0.5729  0.0959
  608MOL0    Cl81989  12.853   6.180   4.372  0.2624  0.1577  0.0268
  608MOL0     C81990  11.878   6.722   4.386  0.3176 -0.2231  0.3326
  608MOL0     C81991  11.747   6.717   4.341 -0.2082 -0.2285  0.8091
  608MOL0     O81992  11.443   6.554   4.432  0.2698 -0.2312 -0.1918
  608MOL0     C81993  11.327   6.593   4.094 -1.3297 -0.4245 -0.1801
  608MOL0     C81994  11.206   6.587   4.014  0.1245  0.5074  0.0197
  608MOL0     N81995  10.393   6.807   3.966  0.2207 -0.2481 -1.0103
  608MOL0     N81996  10.324   6.716   4.029  0.2144  0.1107 -0.8138
  608MOL0     C81997  10.137   5.559   3.882  1.6433 -0.2652  0.3669
  608MOL0     C81998  10.102   5.488   3.761 -0.1994  0.3112  0.6256
  608MOL0     C81999   9.839   5.320   3.425  1.3697 -0.2330  0.6673
  608MOL0     C82000   9.929   5.321   3.319 -0.0427 -0.1183  0.1766
  608MOL0     C82001   9.908   5.253   3.204  0.2884 -0.0836  0.2472
  608MOL0     C82002   9.791   5.172   3.194  0.4737  0.5799 -0.8757
  608MOL0     O82003   9.784   5.109   3.071  0.0137  0.4035 -0.9113
  608MOL0     C82004   9.684   5.005   3.076  0.0728  0.6242  0.1187
  608MOL0     C82005   9.709   4.924   2.949 -0.0607 -0.4883 -0.2624
  608MOL0     C82006   9.852   4.872   2.940  0.4910 -0.4667 -0.7940
  608MOL0     C82007   9.875   4.750   2.856 -0.2940 -0.4332 -0.3415
  608MOL0     C82008   9.766   4.653   2.877  0.1956  0.0269 -0.1581
  608MOL0     C82009   9.670   4.581   2.879 -0.1028  1.0335  0.5901
  608MOL0     C82010   9.703   5.163   3.306 -0.2412 -0.7480  0.9677
  608MOL0     C82011   9.727   5.234   3.416  0.0622 -0.4431  0.2951
  608MOL0     C82012   9.619   5.223   3.536  0.6845 -0.7358  0.5896
  608MOL0     H82013   9.903   5.711   3.609 -1.7181  1.1129  2.6301
  608MOL0     H82014   9.966   5.847   3.797  2.4187  0.3068  0.1723
  608MOL0     H82015   9.971   5.891   4.036 -0.1462  0.2830  0.1719
  608MOL0     H82016   9.930   5.738   4.121  0.6234 -0.5996  1.4752
  608MOL0     H82017  10.137   5.789   4.290 -1.2359  1.6682  5.0374
  608MOL0     H82018   9.998   5.886   4.300 -1.2439  4.2315 -2.4291
  608MOL0     H82019  10.242   5.983   4.149  1.1141 -3.7402  2.0730
  608MOL0     H82020  10.198   6.017   4.321  1.9537  2.5576 -1.4993
  608MOL0     H82021   9.987   6.084   4.107  0.5352  2.5566 -0.8250
  608MOL0     H82022  10.000   6.109   4.278 -2.2578  0.0441 -0.2679
  608MOL0     H82023  10.032   6.310   4.142 -0.9612 -1.9990 -1.8348
  608MOL0     H82024  10.178   6.278   4.235 -1.9989 -1.9125  2.1661
  608MOL0     H82025  10.296   6.183   4.060  1.3575  1.8286  0.8618
  608MOL0     H82026  10.155   6.168   3.961  0.7042  0.4055 -0.6019
  608MOL0     H82027  10.141   6.437   3.974  1.6001  4.5194 -1.9187
  608MOL0     H82028  10.260   6.355   3.877 -0.2325 -2.7343  0.5937
  608MOL0     H82029  10.265   6.509   4.142 -0.2811  2.6143 -1.1959
  608MOL0     H82030  10.415   6.412   4.084  0.8266 -1.3822 -4.0670
  608MOL0     H82031  10.530   6.519   3.857 -3.0049 -1.8524  1.0492
  608MOL0     H82032  10.584   6.793   3.708 -2.3886 -0.0894 -0.5213
  608MOL0     H82033  10.591   6.910   3.840  1.2378  0.1770  1.0055
  608MOL0     H82034  10.804   6.856   3.817 -0.8386  0.2228 -0.2371
  608MOL0     H82035  10.740   6.816   3.974 -1.3967 -2.5391  0.6690
  608MOL0     H82036  10.771   6.601   3.768 -1.9967  0.6703 -0.2444
  608MOL0     H82037  10.729   6.577   3.935  0.8989 -2.2906 -1.9363
  608MOL0     H82038  11.005   6.713   3.864  1.3971 -0.9536 -1.2571
  608MOL0     H82039  10.975   6.547   3.838 -0.2210 -0.1552  0.0913
  608MOL0     H82040  10.994   6.584   4.287 -1.5098 -0.9604 -0.1594
  608MOL0     H82041  11.195   6.580   4.405  0.9706 -0.9445 -0.0761
  608MOL0     H82042  11.714   6.381   4.305  1.3556 -1.2017  4.7152
  608MOL0     H82043  11.949   6.392   4.355 -0.1878 -0.1326  1.3875
  608MOL0     H82044  12.180   6.773   4.355 -1.3285  1.6386  1.4621
  608MOL0     H82045  12.120   6.787   4.518  0.4701 -0.3836  0.0115
  608MOL0     H82046  12.337   6.607   4.398 -1.4043 -1.4011  1.5880
  608MOL0     H82047  12.368   6.781   4.443  0.5582 -0.1861 -0.1676
  608MOL0     H82048  12.292   6.696   4.682  0.2267 -0.0823 -0.4947
  608MOL0     H82049  12.296   6.539   4.623  0.1109  0.6198  1.5655
  608MOL0     H82050  12.493   6.619   4.754  0.3431 -2.0854 -1.2709
  608MOL0     H82051  12.524   6.737   4.618  0.8939  0.0247  0.9466
  608MOL0     H82052  12.545   6.534   4.460 -0.6530 -2.9406 -0.3047
  608MOL0     H82053  12.525   6.426   4.601 -2.5678  1.2618  1.6690
  608MOL0     H82054  12.767   6.588   4.526  1.0002 -0.0954  0.1897
  608MOL0     H82055  12.735   6.537   4.691 -1.5358  1.5798  0.1673
  608MOL0     H82056  12.688   6.288   4.579  0.2212 -0.5916 -2.7205
  608MOL0     H82057  12.848   6.354   4.619  1.4314 -1.3657 -2.7453
  608MOL0     H82058  12.710   6.373   4.345 -1.0579 -2.6621 -0.0736
  608MOL0     H82059  12.869   6.429   4.386  1.2336 -1.4562  2.4362
  608MOL0     H82060  11.912   6.824   4.402 -2.0323  0.9979 -1.8183
  608MOL0     H82061  11.700   6.801   4.290 -0.5636  0.3053  1.9832
  608MOL0     H82062  11.419   6.573   4.039 -0.9846  2.8560 -1.0041
  608MOL0     H82063  11.211   6.590   3.905  1.6978 -0.4496  0.0409
  608MOL0     H82064  10.193   5.519   3.966 -1.6504 -2.2203  1.8470
  608MOL0     H82065  10.143   5.390   3.742 -1.7730 -0.1045 -0.9705
  608MOL0     H82066  10.022   5.378   3.321  1.0056 -1.8018  1.5005
  608MOL0     H82067   9.966   5.255   3.112 -0.6445  1.1166 -0.3496
  608MOL0     H82068   9.585   5.051   3.080 -0.1500  0.0876  3.2891
  608MOL0     H82069   9.698   4.934   3.158  1.6672 -1.2809 -1.6913
  608MOL0     H82070   9.690   4.997   2.870 -0.3690  1.3142  1.4277
  608MOL0     H82071   9.634   4.845   2.952 -1.4418  0.3501 -4.7088
  608MOL0     H82072   9.877   4.836   3.041 -0.9311  0.5739 -0.0464
  608MOL0     H82073   9.922   4.947   2.903  0.8929 -1.2906 -1.7625
  608MOL0     H82074   9.881   4.792   2.755  2.5287  3.6284  1.2322
  608MOL0     H82075   9.975   4.712   2.881 -0.5078 -1.1652 -0.5869
  608MOL0     H82076   9.585   4.521   2.854 -1.7136  4.1745 -2.1872
  608MOL0     H82077   9.620   5.093   3.297 -0.1782 -0.5796 -1.3271
  608MOL0     H82078   9.573   5.320   3.556  3.1533  0.5765  0.3605
  608MOL0     H82079   9.536   5.159   3.504  0.0648 -0.1805  1.0465
  608MOL0     H82080   9.664   5.203   3.634  0.5014  2.1739  1.3481
  609MOL0     O82081   3.654  11.229   5.809  0.3804 -0.8412 -0.3912
  609MOL0     C82082   3.586  11.272   5.713  0.1638 -0.2404  0.0022
  609MOL0     O82083   3.600  11.389   5.654  0.5939 -0.1534  0.1581
  609MOL0     C82084   3.666  11.475   5.725  0.2758  0.5762 -0.1784
  609MOL0     C82085   3.592  11.570   5.809  0.8790  0.2738 -0.3837
  609MOL0     C82086   3.650  11.660   5.897  0.6973  0.4503 -0.3940
  609MOL0     C82087   3.791  11.656   5.905  0.2430  0.3295  0.2802
  609MOL0     O82088   3.854  11.740   5.992 -0.5240 -0.9850  0.1573
  609MOL0     C82089   3.954  11.833   5.944  0.0413  0.2411 -0.8164
  609MOL0     C82090   4.074  11.821   6.040 -0.3605  1.1385 -0.0699
  609MOL0     C82091   4.209  11.874   5.988 -0.2719  0.0715 -0.5376
  609MOL0     C82092   4.268  11.786   5.879  0.2301 -0.2616 -0.2514
  609MOL0     C82093   4.414  11.816   5.846  0.6410 -0.6529  0.3052
  609MOL0     C82094   4.518  11.823   5.951 -0.2569  0.4723 -0.2958
  609MOL0     C82095   4.660  11.855   5.910 -0.4900  0.5921  0.0477
  609MOL0     C82096   4.680  11.980   5.814 -0.0170  0.1550 -0.3242
  609MOL0     N82097   4.820  12.005   5.797 -0.3587  0.7346  0.4576
  609MOL0     C82098   4.892  11.946   5.703  0.2002  0.5511  0.0625
  609MOL0     C82099   5.013  12.006   5.698  0.2482 -0.2928  0.0301
  609MOL0     C82100   5.127  11.988   5.609  1.0545 -0.0862  0.5544
  609MOL0     C82101   5.101  12.058   5.472  0.2287  0.7472 -1.0263
  609MOL0     C82102   5.180  11.972   5.372  0.0536  0.2679  0.2319
  609MOL0     C82103   5.218  12.064   5.244  0.3420 -0.0920  0.2093
  609MOL0     O82104   5.261  12.199   5.268 -0.3327  0.4797  0.6133
  609MOL0     C82105   5.383  12.227   5.332 -0.3085  1.0530  0.6880
  609MOL0     C82106   5.473  12.133   5.382  0.1567  0.3064 -0.5186
  609MOL0     C82107   5.593  12.169   5.431  0.6260  0.4528 -0.9137
  609MOL0     C82108   5.642  12.297   5.441 -0.2785  0.7765  0.3393
  609MOL0     C82109   5.784  12.318   5.482  0.3894 -0.6637 -0.3883
  609MOL0     O82110   5.819  12.444   5.535 -0.4374  0.5111  0.7296
  609MOL0     C82111   5.960  12.482   5.539 -0.1112  0.0413 -1.2389
  609MOL0     C82112   6.046  12.468   5.431  0.3750  0.3917 -0.8497
  609MOL0     C82113   6.183  12.497   5.444  0.2847  0.4712  0.7367
  609MOL0     C82114   6.239  12.555   5.553 -1.0205 -0.3923 -0.3474
  609MOL0     O82115   6.368  12.586   5.550 -0.2865  0.0619  0.9721
  609MOL0     C82116   6.459  12.521   5.645  0.1476  0.1696  0.4385
  609MOL0     C82117   6.596  12.600   5.637 -0.3738 -0.4662  0.0056
  609MOL0     C82118   6.717  12.554   5.729 -0.4693  1.0055  0.0286
  609MOL0     C82119   6.786  12.449   5.657 -0.4356  0.4540  0.8981
  609MOL0     C82120   6.897  12.380   5.742 -0.5624  0.5255  0.7641
  609MOL0     C82121   7.018  12.468   5.789  0.1998  0.6022 -0.5122
  609MOL0     C82122   7.114  12.368   5.869  0.2396 -0.2876  0.0137
  609MOL0     C82123   7.244  12.443   5.897 -0.6462  0.2199  0.4250
  609MOL0    Cl82124   7.357  12.333   5.981 -0.3750  0.7371  0.0321
  609MOL0     C82125   6.154  12.582   5.661  0.3586  0.5150 -0.0101
  609MOL0     C82126   6.017  12.542   5.656 -0.1123 -0.2871  0.2086
  609MOL0     O82127   5.863  12.228   5.452 -0.8076  0.1380  0.9613
  609MOL0     C82128   5.558  12.396   5.409  0.5095 -1.0448 -0.1335
  609MOL0     C82129   5.429  12.363   5.361 -0.7198 -0.4318  0.1056
  609MOL0     N82130   5.016  12.092   5.802  0.7620 -0.3077 -0.3885
  609MOL0     N82131   4.896  12.101   5.854  0.9327  0.2205  0.3957
  609MOL0     C82132   3.862  11.571   5.813  0.0952  0.7442 -0.3813
  609MOL0     C82133   3.804  11.484   5.725  0.0743 -0.0550 -0.7146
  609MOL0     C82134   3.455  11.200   5.684  0.5285 -1.1943  0.2850
  609MOL0     C82135   3.360  11.269   5.618 -0.2712 -0.3536  1.3239
  609MOL0     C82136   3.242  11.209   5.589 -0.1178  0.0130  0.1849
  609MOL0     C82137   3.211  11.082   5.615  0.3047  0.2987 -0.7636
  609MOL0     O82138   3.095  11.030   5.576 -0.2851 -0.1279  0.5266
  609MOL0     C82139   3.115  10.963   5.455  0.1235  0.2272 -0.5422
  609MOL0     C82140   2.968  10.900   5.428  0.9900 -0.2492  0.3050
  609MOL0     C82141   2.967  10.860   5.280 -0.1957 -0.1073 -0.6988
  609MOL0     C82142   2.866  10.744   5.262  0.4815 -0.0686 -0.2453
  609MOL0     C82143   2.726  10.804   5.277  0.4429  0.2355  0.6263
  609MOL0     C82144   2.620  10.861   5.295  0.0082  0.4168  0.8679
  609MOL0     C82145   3.302  11.013   5.694  0.1711  0.8164  0.1669
  609MOL0     C82146   3.427  11.062   5.716  0.8490 -0.2013  0.1188
  609MOL0     C82147   3.537  10.967   5.768  0.6598  0.3787 -0.0650
  609MOL0     H82148   3.484  11.566   5.797  0.7441  0.0320  0.8074
  609MOL0     H82149   3.590  11.737   5.944 -0.5593 -2.1110  2.5252
  609MOL0     H82150   3.969  11.808   5.838  1.3431 -1.6283 -0.2381
  609MOL0     H82151   3.937  11.941   5.941  1.6558  0.5352 -0.5334
  609MOL0     H82152   4.078  11.713   6.051 -5.0433  0.7164 -0.4887
  609MOL0     H82153   4.056  11.867   6.138 -2.3537 -0.7466  0.5114
  609MOL0     H82154   4.277  11.869   6.074 -0.9981 -2.6901 -0.0147
  609MOL0     H82155   4.193  11.977   5.957 -2.3500 -0.3714 -1.0768
  609MOL0     H82156   4.259  11.683   5.913  0.6621 -0.2642 -0.1429
  609MOL0     H82157   4.210  11.783   5.786 -2.0053  0.3039  1.0490
  609MOL0     H82158   4.453  11.754   5.766  2.1192  2.7094 -1.8254
  609MOL0     H82159   4.414  11.918   5.805  1.3467 -1.4175 -1.6523
  609MOL0     H82160   4.482  11.903   6.017 -0.4491 -0.0211  0.2076
  609MOL0     H82161   4.502  11.739   6.019 -2.5372  0.5245 -0.6894
  609MOL0     H82162   4.711  11.771   5.861 -0.3918  1.6060 -1.6756
  609MOL0     H82163   4.710  11.868   6.006 -1.7161 -0.7501  0.9067
  609MOL0     H82164   4.637  11.967   5.714  1.0731  0.5900 -0.8693
  609MOL0     H82165   4.626  12.065   5.857 -2.2914  0.1593 -2.9292
  609MOL0     H82166   4.863  11.876   5.626  1.4559  2.1970 -2.0322
  609MOL0     H82167   5.221  12.017   5.656  1.6319  1.2172 -1.3134
  609MOL0     H82168   5.122  11.880   5.591  0.3032 -0.1118  0.8839
  609MOL0     H82169   4.995  12.063   5.448  0.6254  1.6825 -2.7344
  609MOL0     H82170   5.148  12.156   5.482 -0.4701  0.9361  0.5356
  609MOL0     H82171   5.114  11.896   5.329 -2.5670  2.3440  0.2930
  609MOL0     H82172   5.269  11.927   5.417 -2.1120 -2.9835  1.6886
  609MOL0     H82173   5.136  12.060   5.171  1.3992  0.3692 -1.0566
  609MOL0     H82174   5.299  12.016   5.190  0.0413 -2.5680  1.8190
  609MOL0     H82175   5.456  12.026   5.386  3.5135 -0.3026  1.1756
  609MOL0     H82176   5.656  12.082   5.443 -0.7813 -0.4363  0.4308
  609MOL0     H82177   6.003  12.438   5.336 -0.0525 -0.7179 -0.3260
  609MOL0     H82178   6.256  12.482   5.365 -0.9618  0.4235 -0.4393
  609MOL0     H82179   6.422  12.520   5.748 -0.0303 -2.6661  0.4083
  609MOL0     H82180   6.475  12.416   5.623 -0.9709  0.4893 -2.3735
  609MOL0     H82181   6.623  12.593   5.531  2.3428  1.7371  0.4369
  609MOL0     H82182   6.583  12.702   5.675  2.1986 -0.3795  0.8133
  609MOL0     H82183   6.786  12.631   5.764  0.3832 -0.1281  0.9201
  609MOL0     H82184   6.673  12.513   5.821 -0.7718  0.0264 -0.5380
  609MOL0     H82185   6.831  12.487   5.565  0.9767 -3.0412 -0.0076
  609MOL0     H82186   6.719  12.368   5.625 -0.9672  0.7920  1.1314
  609MOL0     H82187   6.947  12.308   5.676  1.1999 -1.0642  3.6287
  609MOL0     H82188   6.849  12.326   5.824 -3.5807 -1.5436 -2.0828
  609MOL0     H82189   7.067  12.512   5.702 -0.6418  0.6111 -0.9959
  609MOL0     H82190   6.979  12.552   5.848 -2.9550  0.2338 -1.8988
  609MOL0     H82191   7.138  12.283   5.804 -0.9795 -1.6152  1.2253
  609MOL0     H82192   7.066  12.322   5.956 -2.7869 -0.1019 -1.4310
  609MOL0     H82193   7.293  12.473   5.804  0.9650 -0.6510  0.9531
  609MOL0     H82194   7.228  12.525   5.968 -1.8172  1.3044 -1.0169
  609MOL0     H82195   6.198  12.627   5.749  1.3780 -2.6245  1.2508
  609MOL0     H82196   5.952  12.554   5.742  0.9169 -0.5379  1.0405
  609MOL0     H82197   5.578  12.501   5.425  0.9166 -0.8184 -1.9037
  609MOL0     H82198   5.359  12.444   5.341  2.3154  2.3683 -0.0439
  609MOL0     H82199   3.970  11.582   5.818  0.1727  2.4689 -3.4635
  609MOL0     H82200   3.863  11.410   5.673  3.1838  1.4526  0.3818
  609MOL0     H82201   3.376  11.371   5.584 -0.5318 -0.8747 -0.4651
  609MOL0     H82202   3.166  11.275   5.548 -1.1484 -0.8954  0.5932
  609MOL0     H82203   3.189  10.882   5.461  1.9894  1.9384  3.3491
  609MOL0     H82204   3.133  11.033   5.373  0.0943  1.4949  0.4815
  609MOL0     H82205   2.891  10.971   5.457  1.0983  0.0507 -0.1281
  609MOL0     H82206   2.959  10.809   5.488  0.4476 -2.1977 -2.5408
  609MOL0     H82207   3.066  10.823   5.254 -0.1287 -0.5921  0.2254
  609MOL0     H82208   2.936  10.950   5.225  1.0536  1.0806  0.4726
  609MOL0     H82209   2.868  10.686   5.169 -0.9055 -3.3019  1.5538
  609MOL0     H82210   2.865  10.668   5.341  1.8858 -1.5841 -1.6119
  609MOL0     H82211   2.522  10.904   5.303 -0.4906 -0.5538  0.1087
  609MOL0     H82212   3.268  10.911   5.710 -0.8728  0.6577 -2.5359
  609MOL0     H82213   3.575  10.998   5.866 -1.5835 -0.9010  1.3166
  609MOL0     H82214   3.504  10.864   5.785 -0.3828  0.2335 -2.5530
  609MOL0     H82215   3.618  10.969   5.695  1.4084 -0.3689  0.7147
  610MOL0     O82216   9.564   0.213   8.468  0.2933  0.1460 -0.1965
  610MOL0     C82217   9.472   0.254   8.395 -0.2480  0.7950  0.3477
  610MOL0     O82218   9.491   0.333   8.278  0.5472 -0.0938 -0.1880
  610MOL0     C82219   9.614   0.326   8.223 -0.1841 -0.0489 -0.7432
  610MOL0     C82220   9.638   0.266   8.103 -0.4527  0.1375  1.8219
  610MOL0     C82221   9.764   0.290   8.036  0.8047 -0.1374  0.3979
  610MOL0     C82222   9.866   0.362   8.101  0.2122  0.5980 -0.4263
  610MOL0     O82223   9.994   0.396   8.053  0.4327  0.2510  0.6040
  610MOL0     C82224  10.054   0.287   7.981  0.7933 -1.2136  0.1228
  610MOL0     C82225  10.198   0.306   7.952 -0.3272 -0.0420  0.9405
  610MOL0     C82226  10.282   0.296   8.088  0.6051  0.3369 -0.4213
  610MOL0     C82227  10.387   0.408   8.106 -0.1391 -0.5106  0.5173
  610MOL0     C82228  10.492   0.408   8.220  0.5174  0.9327  1.0292
  610MOL0     C82229  10.591   0.531   8.219 -0.1279  0.8465  0.5233
  610MOL0     C82230  10.711   0.507   8.134  0.1688  0.1516  0.0572
  610MOL0     C82231  10.806   0.617   8.117 -0.4340  0.5011  0.2496
  610MOL0     N82232  10.884   0.627   8.247 -0.0161 -0.4859  0.2506
  610MOL0     C82233  10.843   0.697   8.357 -0.8142  0.3243 -0.9563
  610MOL0     C82234  10.957   0.715   8.433  0.4324  0.4307 -0.4112
  610MOL0     C82235  10.966   0.794   8.564 -0.1522 -0.7454 -0.2550
  610MOL0     C82236  11.032   0.929   8.562 -0.9232  0.2470 -0.7450
  610MOL0     C82237  10.944   1.015   8.474  0.3977 -1.2748  0.6174
  610MOL0     C82238  11.003   1.154   8.450  1.1559  0.8806 -0.3340
  610MOL0     O82239  11.104   1.143   8.344  0.0437 -0.3882  0.0255
  610MOL0     C82240  11.210   1.227   8.360  0.1090 -0.2253 -0.4351
  610MOL0     C82241  11.205   1.352   8.422  0.8810 -0.5437 -0.4963
  610MOL0     C82242  11.319   1.432   8.434  0.9056  0.3891 -0.4436
  610MOL0     C82243  11.439   1.401   8.357 -0.3424  0.0146  0.0405
  610MOL0     C82244  11.553   1.494   8.351 -1.1131  0.4241  0.1614
  610MOL0     O82245  11.536   1.620   8.399  0.0333  0.1624 -0.1265
  610MOL0     C82246  11.649   1.695   8.432 -1.1185 -0.0557 -0.4391
  610MOL0     C82247  11.729   1.739   8.324  0.0260 -1.2979 -0.0842
  610MOL0     C82248  11.852   1.803   8.348  0.6361  0.5455  0.8163
  610MOL0     C82249  11.892   1.834   8.479 -0.0520 -0.9035 -0.6542
  610MOL0     O82250  12.009   1.896   8.521 -0.6513  0.0764 -0.4641
  610MOL0     C82251  12.096   1.947   8.423  0.6864  1.0376 -0.6790
  610MOL0     C82252  12.196   2.037   8.493  0.3342 -1.0902 -0.2414
  610MOL0     C82253  12.294   1.958   8.594  0.4512  0.2139  0.0967
  610MOL0     C82254  12.404   1.900   8.519 -0.7691  0.8782 -0.5488
  610MOL0     C82255  12.457   1.786   8.607  0.2637 -0.2982 -0.5024
  610MOL0     C82256  12.580   1.716   8.556 -0.6147  0.6045  0.7995
  610MOL0     C82257  12.708   1.793   8.544  0.7352 -0.2471  0.3241
  610MOL0     C82258  12.746   1.877   8.661 -0.3429  0.0903  0.0723
  610MOL0    Cl82259  12.771   1.791   8.811 -0.4268 -0.6878 -0.2293
  610MOL0     C82260  11.801   1.793   8.590 -0.2010 -0.8816 -0.8804
  610MOL0     C82261  11.684   1.728   8.562 -1.0476  0.1411  0.3038
  610MOL0     O82262  11.658   1.453   8.301  0.5036 -0.2663 -1.2851
  610MOL0     C82263  11.439   1.280   8.289 -0.0740 -0.1846 -0.0434
  610MOL0     C82264  11.331   1.195   8.293 -0.8820  0.4161  0.7325
  610MOL0     N82265  11.058   0.649   8.363 -0.1235  0.8037 -0.1369
  610MOL0     N82266  11.017   0.595   8.255  0.0952  0.7296  0.4987
  610MOL0     C82267   9.836   0.419   8.226  0.6593  0.4439 -0.3516
  610MOL0     C82268   9.710   0.398   8.289  0.9454 -0.3324  0.0218
  610MOL0     C82269   9.336   0.226   8.443  0.0620  0.2327  0.1283
  610MOL0     C82270   9.234   0.295   8.377 -0.3755 -0.1566  0.3043
  610MOL0     C82271   9.103   0.261   8.390 -0.4754  0.6215 -1.0163
  610MOL0     C82272   9.065   0.153   8.467  0.4029  0.9049  0.1505
  610MOL0     O82273   8.935   0.104   8.474 -0.0298 -0.2526 -0.9448
  610MOL0     C82274   8.824   0.182   8.530  0.5417  0.4958 -0.2355
  610MOL0     C82275   8.810   0.159   8.670  0.5373  0.0888 -0.8099
  610MOL0     C82276   8.788   0.006   8.709 -0.1345  0.5397 -0.1802
  610MOL0     C82277   8.648  -0.029   8.778  0.0613 -0.2778 -0.4500
  610MOL0     C82278   8.529  -0.005   8.702 -0.6233  1.1803  1.1290
  610MOL0     C82279   8.435   0.037   8.635 -0.1076 -0.9498  0.1507
  610MOL0     C82280   9.165   0.086   8.531  1.3801 -0.2731 -0.7945
  610MOL0     C82281   9.293   0.122   8.533 -0.1764 -0.9531 -0.2245
  610MOL0     C82282   9.382   0.049   8.630  0.8104 -0.1046 -0.0056
  610MOL0     H82283   9.569   0.199   8.052  1.1221  1.2267 -2.1245
  610MOL0     H82284   9.765   0.248   7.936  0.0525  3.7558 -1.4434
  610MOL0     H82285  10.030   0.193   8.032  0.4335 -0.8703  0.5862
  610MOL0     H82286  10.000   0.295   7.886  1.7660 -0.0558 -0.3500
  610MOL0     H82287  10.211   0.402   7.903 -2.1302  0.7798  1.9811
  610MOL0     H82288  10.235   0.227   7.886 -3.1345 -2.1195  1.6800
  610MOL0     H82289  10.338   0.202   8.078 -0.1281  0.0192 -1.7429
  610MOL0     H82290  10.221   0.300   8.178  0.5155  3.1152 -0.5107
  610MOL0     H82291  10.455   0.415   8.020 -1.6362 -0.4103 -0.7177
  610MOL0     H82292  10.323   0.497   8.101  0.1001 -0.3767 -0.5785
  610MOL0     H82293  10.446   0.398   8.318 -1.5261 -0.5056 -0.0029
  610MOL0     H82294  10.548   0.313   8.215 -0.6635  0.1664  1.8829
  610MOL0     H82295  10.530   0.615   8.183  0.6079  0.8204 -0.8441
  610MOL0     H82296  10.633   0.551   8.318  0.2560 -0.7245  0.7031
  610MOL0     H82297  10.675   0.470   8.037 -1.4829 -1.6758  1.2993
  610MOL0     H82298  10.769   0.425   8.175 -2.8279 -1.9807  0.3638
  610MOL0     H82299  10.873   0.604   8.031 -0.1753  3.0800 -0.0194
  610MOL0     H82300  10.760   0.710   8.083 -0.2242  1.6057  2.7471
  610MOL0     H82301  10.743   0.732   8.383 -0.1597  2.7436 -1.5114
  610MOL0     H82302  10.873   0.805   8.621  0.4341  2.4707  0.2815
  610MOL0     H82303  11.033   0.736   8.629  2.1334  3.0863  1.1647
  610MOL0     H82304  11.032   0.973   8.662  0.2139 -1.1935 -0.0669
  610MOL0     H82305  11.134   0.918   8.526 -0.7561 -1.2601  0.1083
  610MOL0     H82306  10.847   1.024   8.524 -0.7188  1.6036 -1.7779
  610MOL0     H82307  10.937   0.964   8.377  0.6294  0.7838 -0.5434
  610MOL0     H82308  11.031   1.181   8.552 -1.2400 -1.9624  1.2276
  610MOL0     H82309  10.924   1.221   8.414 -2.8388 -3.2311 -0.1117
  610MOL0     H82310  11.111   1.394   8.454  1.1623  0.6682 -1.2322
  610MOL0     H82311  11.304   1.526   8.486  0.5559 -1.1927  2.5607
  610MOL0     H82312  11.708   1.712   8.221  1.6600 -2.8992 -0.0323
  610MOL0     H82313  11.921   1.811   8.264  1.8178 -1.4044  1.5068
  610MOL0     H82314  12.145   1.869   8.364 -0.4074 -2.3405  2.4598
  610MOL0     H82315  12.041   2.005   8.348  1.0896  0.7512 -1.1969
  610MOL0     H82316  12.236   2.101   8.413 -4.1471  0.7585 -1.3737
  610MOL0     H82317  12.144   2.112   8.554  3.8070 -0.1135  1.7897
  610MOL0     H82318  12.350   2.027   8.658  3.4714 -2.4130  0.5009
  610MOL0     H82319  12.231   1.889   8.650 -1.0690 -1.2380 -3.1117
  610MOL0     H82320  12.475   1.976   8.484 -0.6274  0.4671 -1.1749
  610MOL0     H82321  12.360   1.851   8.431 -1.6204 -0.4126  0.5616
  610MOL0     H82322  12.382   1.709   8.624 -1.8867  1.5532 -1.1169
  610MOL0     H82323  12.471   1.839   8.702 -1.8449  0.9422 -0.8200
  610MOL0     H82324  12.612   1.638   8.626  3.7025 -0.0933 -1.5908
  610MOL0     H82325  12.547   1.676   8.460 -0.4752  1.8054  0.2324
  610MOL0     H82326  12.701   1.853   8.453 -0.3450 -0.6241  0.1455
  610MOL0     H82327  12.795   1.726   8.548  1.1820  0.3861  3.3558
  610MOL0     H82328  12.840   1.933   8.655 -0.5723  0.9411  3.1282
  610MOL0     H82329  12.660   1.943   8.668  0.2468  0.8400  0.3641
  610MOL0     H82330  11.820   1.826   8.692 -0.6028  0.7470 -1.3032
  610MOL0     H82331  11.624   1.714   8.651  0.1231 -0.4831  1.0141
  610MOL0     H82332  11.517   1.264   8.214  0.2440  0.9064  0.0407
  610MOL0     H82333  11.339   1.101   8.240  1.1823  1.8320 -1.7121
  610MOL0     H82334   9.915   0.462   8.286 -0.6581  3.6944 -0.7707
  610MOL0     H82335   9.677   0.456   8.375 -1.7273 -0.9838 -0.4762
  610MOL0     H82336   9.247   0.385   8.318  1.9600 -0.6919 -0.0768
  610MOL0     H82337   9.033   0.312   8.324 -2.7530 -0.1461  0.6637
  610MOL0     H82338   8.735   0.155   8.471  0.5929 -0.4284  0.0832
  610MOL0     H82339   8.858   0.284   8.515  1.3604  0.2368 -0.1864
  610MOL0     H82340   8.732   0.230   8.697  2.2446  1.5058  0.6808
  610MOL0     H82341   8.889   0.198   8.736  0.1739  0.3709 -0.5417
  610MOL0     H82342   8.864  -0.038   8.773 -1.2910  2.5747  2.8618
  610MOL0     H82343   8.779  -0.046   8.613  0.7627  2.8925 -1.6354
  610MOL0     H82344   8.657  -0.138   8.791  0.3634 -0.2780 -0.6697
  610MOL0     H82345   8.640   0.018   8.877  2.9917 -2.5713  1.0354
  610MOL0     H82346   8.363   0.091   8.576 -0.0015  0.3482  1.1621
  610MOL0     H82347   9.134   0.006   8.598 -1.8874  1.5707  0.1185
  610MOL0     H82348   9.450  -0.023   8.583  0.1259 -1.0211  0.3995
  610MOL0     H82349   9.438   0.124   8.687 -2.5516  1.8653  0.9628
  610MOL0     H82350   9.323   0.005   8.710  2.1287  0.5878  1.4092
  611MOL0     O82351  11.030   7.202   0.677  0.1764  0.6273  0.1518
  611MOL0     C82352  11.090   7.097   0.718 -0.4356  0.7027 -0.0996
  611MOL0     O82353  11.180   7.020   0.638 -0.2365 -0.4803  0.1550
  611MOL0     C82354  11.209   7.031   0.505  0.2166 -0.8049  0.0780
  611MOL0     C82355  11.156   7.126   0.418  0.5126  0.3361 -0.8594
  611MOL0     C82356  11.189   7.121   0.280  0.7586 -0.7178 -0.7563
  611MOL0     C82357  11.298   7.040   0.242  0.1834 -0.5052 -0.0898
  611MOL0     O82358  11.342   7.026   0.114 -1.1798 -0.5956 -0.5533
  611MOL0     C82359  11.345   7.148   0.044  0.2379 -0.1537  0.2261
  611MOL0     C82360  11.475   7.147  -0.049  0.2602 -1.8487 -0.2837
  611MOL0     C82361  11.483   7.277  -0.126  0.8193  0.6919  0.2182
  611MOL0     C82362  11.585   7.266  -0.245 -0.0418 -0.0369 -0.6700
  611MOL0     C82363  11.592   7.403  -0.327  0.0449  1.2070  0.6205
  611MOL0     C82364  11.497   7.384  -0.454 -0.1549  0.3858 -0.2921
  611MOL0     C82365  11.500   7.519  -0.520 -0.2453 -0.7026  0.2991
  611MOL0     C82366  11.630   7.549  -0.597 -0.4345 -0.3181 -0.2948
  611MOL0     N82367  11.612   7.527  -0.738 -0.0573  0.0804 -0.0159
  611MOL0     C82368  11.661   7.422  -0.817 -0.8956  0.1692  0.0365
  611MOL0     C82369  11.656   7.458  -0.949  0.6119  0.3867  0.0963
  611MOL0     C82370  11.656   7.363  -1.072  0.7265 -0.1003  0.6046
  611MOL0     C82371  11.781   7.367  -1.162  0.1449 -0.7384 -1.5859
  611MOL0     C82372  11.796   7.509  -1.221 -0.3898  0.5882 -0.0536
  611MOL0     C82373  11.911   7.512  -1.331 -0.5938  0.3147  0.1070
  611MOL0     O82374  12.023   7.444  -1.272 -0.1814 -0.1641 -1.1022
  611MOL0     C82375  12.089   7.355  -1.351  1.1317  1.1799 -0.3585
  611MOL0     C82376  12.136   7.241  -1.291  0.4525  0.4207 -0.1321
  611MOL0     C82377  12.194   7.133  -1.364 -0.5197  0.7816 -1.0740
  611MOL0     C82378  12.211   7.145  -1.493 -0.2121  0.3903  0.5185
  611MOL0     C82379  12.278   7.039  -1.574  0.3519 -0.0175  0.0650
  611MOL0     O82380  12.319   6.935  -1.498 -0.1712 -0.5974 -0.6294
  611MOL0     C82381  12.356   6.823  -1.574  0.0950 -0.8828  0.1445
  611MOL0     C82382  12.471   6.826  -1.655  0.4782  0.3629 -0.5613
  611MOL0     C82383  12.504   6.708  -1.722  0.5476  0.5483 -0.9411
  611MOL0     C82384  12.435   6.591  -1.692  0.3424  0.0468  0.5447
  611MOL0     O82385  12.450   6.479  -1.756  0.2698  0.8366  0.1225
  611MOL0     C82386  12.552   6.463  -1.866  0.3785 -0.5013  0.5886
  611MOL0     C82387  12.623   6.334  -1.855 -0.0679  0.6817 -0.1206
  611MOL0     C82388  12.543   6.204  -1.898  0.1740  0.3915 -0.6085
  611MOL0     C82389  12.614   6.072  -1.861  0.3427  0.8947  0.4529
  611MOL0     C82390  12.538   5.939  -1.909 -0.1024 -0.3699 -0.1378
  611MOL0     C82391  12.614   5.814  -1.858 -0.6832 -0.5606 -0.2882
  611MOL0     C82392  12.539   5.684  -1.883  0.2151  0.7743  0.1041
  611MOL0     C82393  12.510   5.649  -2.028 -0.4197 -0.0188 -0.1915
  611MOL0    Cl82394  12.491   5.470  -2.023  0.2543 -0.3908 -0.3636
  611MOL0     C82395  12.333   6.590  -1.605 -0.5314 -0.1791  0.1126
  611MOL0     C82396  12.293   6.706  -1.535  0.2679  0.5496  0.6265
  611MOL0     O82397  12.277   7.045  -1.700  0.3070 -0.5331  0.6121
  611MOL0     C82398  12.181   7.271  -1.553 -1.2019  0.8772  0.3132
  611MOL0     C82399  12.120   7.369  -1.484 -0.2263 -0.1203 -0.3309
  611MOL0     N82400  11.627   7.592  -0.945  0.4494 -0.4022  0.0673
  611MOL0     N82401  11.595   7.637  -0.824 -0.4798 -0.7790 -0.3597
  611MOL0     C82402  11.351   6.942   0.332  0.6808 -0.2514  0.5622
  611MOL0     C82403  11.295   6.933   0.460  0.5234 -0.0178 -0.3141
  611MOL0     C82404  11.065   7.062   0.859  0.2369  0.0942 -0.4217
  611MOL0     C82405  10.950   7.111   0.920  0.3609 -0.2795 -0.1913
  611MOL0     C82406  10.912   7.081   1.044  0.2354 -0.5698 -0.7785
  611MOL0     C82407  10.994   6.992   1.122 -1.1363 -0.8738  1.0869
  611MOL0     O82408  10.933   6.958   1.237 -0.6327 -0.8731  0.0655
  611MOL0     C82409  11.002   6.864   1.323  0.2899  0.3663  0.1605
  611MOL0     C82410  10.919   6.835   1.450  0.1627 -0.1872  0.7979
  611MOL0     C82411  10.770   6.790   1.428 -0.3318  0.2585  0.8048
  611MOL0     C82412  10.716   6.734   1.565 -0.0249  0.3383  0.5832
  611MOL0     C82413  10.565   6.728   1.552  0.4900  0.0780  0.1649
  611MOL0     C82414  10.449   6.723   1.521 -0.0760 -0.0731 -0.2137
  611MOL0     C82415  11.115   6.949   1.074 -0.0096  0.0653 -0.4156
  611MOL0     C82416  11.152   6.979   0.940  0.9537 -1.2380 -0.2825
  611MOL0     C82417  11.280   6.929   0.897  0.1748  0.0837  1.2121
  611MOL0     H82418  11.082   7.199   0.450  1.5229  1.6674 -1.4750
  611MOL0     H82419  11.144   7.182   0.202 -0.2667  0.4424  0.6977
  611MOL0     H82420  11.246   7.167   0.002 -0.3853 -2.5737  0.4833
  611MOL0     H82421  11.360   7.233   0.112  0.6836 -0.5657  0.6503
  611MOL0     H82422  11.471   7.063  -0.119 -0.4660 -0.7789 -1.5694
  611MOL0     H82423  11.561   7.139   0.018  1.8573  3.0037 -1.3673
  611MOL0     H82424  11.525   7.353  -0.060 -0.1201  2.1588 -0.7947
  611MOL0     H82425  11.381   7.304  -0.153  0.4974 -1.9448 -1.6279
  611MOL0     H82426  11.680   7.255  -0.193 -1.2784  2.9384  2.5861
  611MOL0     H82427  11.561   7.183  -0.313  1.3168 -1.2984  0.3219
  611MOL0     H82428  11.569   7.487  -0.261  1.0314 -0.9239  3.9508
  611MOL0     H82429  11.697   7.415  -0.354 -0.8308  1.9479 -3.0083
  611MOL0     H82430  11.528   7.300  -0.517  1.4896  0.3082  0.5749
  611MOL0     H82431  11.398   7.362  -0.414 -0.1590  1.4149  0.2921
  611MOL0     H82432  11.503   7.595  -0.441 -2.0278 -1.8651  1.5478
  611MOL0     H82433  11.411   7.519  -0.583 -1.5549 -2.3622  2.0119
  611MOL0     H82434  11.659   7.653  -0.581 -1.1170 -0.0408 -0.8095
  611MOL0     H82435  11.710   7.488  -0.553  3.2663  5.1149  1.6556
  611MOL0     H82436  11.693   7.323  -0.787  1.0135  0.8955  0.4849
  611MOL0     H82437  11.649   7.264  -1.026  2.6623 -0.3157  0.5409
  611MOL0     H82438  11.564   7.389  -1.124  0.3443 -2.2434  0.1292
  611MOL0     H82439  11.859   7.338  -1.091 -1.8903  1.8289  2.0364
  611MOL0     H82440  11.775   7.298  -1.246 -2.4730 -2.0755 -0.4161
  611MOL0     H82441  11.843   7.565  -1.140  2.8072 -0.2198 -1.2194
  611MOL0     H82442  11.707   7.550  -1.271  0.6961  1.4802 -1.3022
  611MOL0     H82443  11.940   7.615  -1.353  0.3631 -0.4826 -2.7517
  611MOL0     H82444  11.894   7.452  -1.421  3.7079 -2.4889  0.8510
  611MOL0     H82445  12.122   7.237  -1.183 -0.6904  3.1100 -0.0952
  611MOL0     H82446  12.225   7.046  -1.307  0.4838 -0.0970 -2.8770
  611MOL0     H82447  12.518   6.923  -1.664 -0.8271  1.3507  2.1465
  611MOL0     H82448  12.590   6.708  -1.789  1.9042 -2.7345  0.6158
  611MOL0     H82449  12.507   6.452  -1.965 -0.6827 -1.4164  1.1512
  611MOL0     H82450  12.631   6.538  -1.873  0.2355 -0.4411 -0.7417
  611MOL0     H82451  12.698   6.334  -1.934 -2.2074 -0.9522 -2.3222
  611MOL0     H82452  12.666   6.327  -1.755  0.1503  4.2736  0.1849
  611MOL0     H82453  12.447   6.207  -1.846 -1.0742  0.8633 -2.8040
  611MOL0     H82454  12.526   6.211  -2.006  0.5250 -1.7015 -0.8389
  611MOL0     H82455  12.610   6.066  -1.752 -0.0570  3.8764  0.6862
  611MOL0     H82456  12.719   6.082  -1.888  0.7360 -0.2530  1.4884
  611MOL0     H82457  12.524   5.936  -2.018 -7.0461  2.7651  0.1039
  611MOL0     H82458  12.438   5.940  -1.865  0.3791 -1.3422  1.0219
  611MOL0     H82459  12.721   5.821  -1.879 -0.9135  3.2159 -0.8952
  611MOL0     H82460  12.621   5.824  -1.749  1.1542  0.7259 -0.4849
  611MOL0     H82461  12.447   5.690  -1.824  1.3509 -0.1270  2.0720
  611MOL0     H82462  12.603   5.604  -1.845 -2.8556 -0.8606  2.2965
  611MOL0     H82463  12.422   5.704  -2.065  1.3031  2.4371 -0.8774
  611MOL0     H82464  12.594   5.686  -2.087 -2.0697  1.2994 -1.8658
  611MOL0     H82465  12.273   6.501  -1.590 -1.3947 -0.4030 -3.6257
  611MOL0     H82466  12.215   6.710  -1.460 -0.3928 -0.8419  0.0477
  611MOL0     H82467  12.204   7.281  -1.659  2.8814 -2.4615  0.5901
  611MOL0     H82468  12.088   7.459  -1.537  0.4508 -0.2235 -0.9334
  611MOL0     H82469  11.419   6.868   0.292  1.8342  0.0223  1.9208
  611MOL0     H82470  11.322   6.852   0.527  2.9001  0.5361 -0.5214
  611MOL0     H82471  10.886   7.183   0.869 -0.4312  0.0267  1.1769
  611MOL0     H82472  10.817   7.109   1.087  0.1432 -0.3230 -1.1447
  611MOL0     H82473  11.096   6.916   1.344  1.3197 -1.5123  0.3471
  611MOL0     H82474  11.016   6.769   1.271 -1.4930 -0.4821  1.1248
  611MOL0     H82475  10.918   6.923   1.515 -0.6136 -2.0953  3.5302
  611MOL0     H82476  10.966   6.757   1.510  1.3776  1.0197  1.4800
  611MOL0     H82477  10.764   6.719   1.346  0.6732  0.1486  0.8198
  611MOL0     H82478  10.714   6.879   1.398  2.9633  2.1996 -0.1173
  611MOL0     H82479  10.755   6.636   1.595 -4.8339 -1.8072  0.7729
  611MOL0     H82480  10.738   6.814   1.637 -0.8725  0.7096  0.4443
  611MOL0     H82481  10.352   6.710   1.477  0.6264 -2.4233 -1.1998
  611MOL0     H82482  11.178   6.888   1.138  2.3577  1.9934 -0.7491
  611MOL0     H82483  11.347   6.929   0.984  3.1169  0.4380 -0.9034
  611MOL0     H82484  11.262   6.829   0.857  3.7913 -0.6793  1.1848
  611MOL0     H82485  11.322   7.007   0.833  4.2224 -2.0527  0.9103
  612MOL0     O82486   8.895   0.950   6.661 -0.2142  0.5819  0.7263
  612MOL0     C82487   8.870   0.839   6.706  0.8158 -0.5804  0.2279
  612MOL0     O82488   8.865   0.809   6.837 -0.6164 -0.3865 -0.0291
  612MOL0     C82489   8.827   0.911   6.924  0.4935 -0.5868  0.1679
  612MOL0     C82490   8.820   0.869   7.059 -0.5772  0.4439 -0.7669
  612MOL0     C82491   8.772   0.945   7.165 -0.2221 -0.3906  0.1101
  612MOL0     C82492   8.717   1.069   7.140 -0.3009 -0.1691  1.0685
  612MOL0     O82493   8.680   1.143   7.247 -0.5244  0.3785 -0.9133
  612MOL0     C82494   8.689   1.285   7.227  0.5231 -0.3347 -0.4746
  612MOL0     C82495   8.672   1.355   7.362  0.1619 -0.6048 -1.3446
  612MOL0     C82496   8.710   1.502   7.363 -0.2197 -0.4793 -0.0161
  612MOL0     C82497   8.697   1.556   7.510 -0.5482 -0.8261 -0.1792
  612MOL0     C82498   8.730   1.706   7.526 -0.9854 -0.8294  0.2120
  612MOL0     C82499   8.619   1.809   7.473 -0.6736 -0.0490 -0.1159
  612MOL0     C82500   8.500   1.794   7.560  0.8449 -0.1434 -0.3588
  612MOL0     C82501   8.372   1.828   7.497  0.4971  0.4709  0.1034
  612MOL0     N82502   8.377   1.973   7.453  0.1966  0.6905 -0.0265
  612MOL0     C82503   8.347   2.018   7.325  0.0283 -0.3173  0.0960
  612MOL0     C82504   8.355   2.151   7.342  0.3591  0.8327  0.4823
  612MOL0     C82505   8.318   2.256   7.238 -0.0863  0.3767 -0.4179
  612MOL0     C82506   8.424   2.367   7.211 -0.2684  0.0737  0.3173
  612MOL0     C82507   8.536   2.293   7.123  0.0764  0.4375 -0.1887
  612MOL0     C82508   8.670   2.361   7.116  1.0339  0.6572  0.6323
  612MOL0     O82509   8.656   2.497   7.081  0.3339  0.1574 -0.6558
  612MOL0     C82510   8.780   2.550   7.052  0.1348  0.3134 -0.0069
  612MOL0     C82511   8.790   2.602   6.924 -1.1439 -0.3091  0.5599
  612MOL0     C82512   8.916   2.652   6.870  0.1207 -0.4304  0.3057
  612MOL0     C82513   9.027   2.652   6.956  0.2601  0.8588 -0.0075
  612MOL0     C82514   9.158   2.700   6.902 -0.3518  0.6655 -0.9046
  612MOL0     O82515   9.188   2.701   6.772 -0.2049  0.1831  0.0439
  612MOL0     C82516   9.309   2.750   6.722  0.4781 -0.1994  0.1390
  612MOL0     C82517   9.384   2.864   6.772 -0.2967  0.5116 -0.3608
  612MOL0     C82518   9.502   2.900   6.700 -0.1030  0.2927  0.5219
  612MOL0     C82519   9.537   2.849   6.575 -0.7839  1.1588 -0.7166
  612MOL0     O82520   9.659   2.883   6.511  0.0792 -0.0911  0.0896
  612MOL0     C82521   9.754   2.778   6.479 -1.0510 -0.1618 -0.3620
  612MOL0     C82522   9.899   2.821   6.482  0.3006 -0.0339 -0.3659
  612MOL0     C82523   9.955   2.880   6.614  0.7426 -0.3262 -1.1409
  612MOL0     C82524   9.927   2.781   6.735  0.4262  0.3940 -1.0142
  612MOL0     C82525   9.941   2.842   6.871 -0.1483 -1.2071 -0.8750
  612MOL0     C82526  10.078   2.895   6.893  0.1452 -0.4857 -0.6025
  612MOL0     C82527  10.200   2.787   6.887  0.0141 -0.9375 -0.4402
  612MOL0     C82528  10.179   2.659   6.966 -0.2076 -0.4538  0.9469
  612MOL0    Cl82529  10.133   2.711   7.133 -0.3001  0.5782 -0.0583
  612MOL0     C82530   9.464   2.729   6.542 -0.7857 -0.7315  0.8780
  612MOL0     C82531   9.367   2.673   6.618  0.8331 -0.2250 -0.3979
  612MOL0     O82532   9.236   2.743   6.990  0.1359 -0.4801  0.5465
  612MOL0     C82533   9.018   2.596   7.079  0.0164 -0.4888 -0.5635
  612MOL0     C82534   8.896   2.535   7.132  0.0437 -0.7467 -0.3753
  612MOL0     N82535   8.380   2.187   7.473  0.3610  0.4480 -0.7843
  612MOL0     N82536   8.385   2.078   7.546 -0.0446 -0.2967 -0.6627
  612MOL0     C82537   8.718   1.120   7.005  0.5824  0.2894  0.7221
  612MOL0     C82538   8.772   1.035   6.899  0.6253 -0.5803  1.4880
  612MOL0     C82539   8.832   0.735   6.613 -0.3154  0.1552  0.6447
  612MOL0     C82540   8.703   0.692   6.618 -0.1932  0.3821  0.0562
  612MOL0     C82541   8.668   0.582   6.536 -0.0295 -0.4947 -0.6179
  612MOL0     C82542   8.764   0.530   6.445 -0.2498 -0.8092 -0.4994
  612MOL0     O82543   8.750   0.411   6.372 -0.6897  0.4228  0.5980
  612MOL0     C82544   8.627   0.370   6.325 -0.4426 -0.4867 -0.1214
  612MOL0     C82545   8.581   0.272   6.433  0.9265  0.4963 -0.5622
  612MOL0     C82546   8.448   0.198   6.403  0.4866 -0.0275 -0.4104
  612MOL0     C82547   8.319   0.279   6.431  0.5680  0.7989  0.8466
  612MOL0     C82548   8.332   0.336   6.569  0.4948 -0.1151  0.6140
  612MOL0     C82549   8.334   0.394   6.681 -0.5908 -0.6293  0.8553
  612MOL0     C82550   8.894   0.587   6.429 -0.7228  0.6889 -0.5896
  612MOL0     C82551   8.925   0.694   6.514  0.2508 -0.2438 -0.7541
  612MOL0     C82552   9.066   0.739   6.508  0.0918 -0.4889 -0.9177
  612MOL0     H82553   8.854   0.768   7.083  2.1896  1.3416 -0.5180
  612MOL0     H82554   8.793   0.916   7.268  3.0771  0.7341 -0.1055
  612MOL0     H82555   8.784   1.321   7.187  0.2470  1.2751  0.2193
  612MOL0     H82556   8.606   1.308   7.160 -1.4593  0.1220  1.9732
  612MOL0     H82557   8.742   1.297   7.423 -0.3619  0.0014 -0.1352
  612MOL0     H82558   8.568   1.352   7.395  0.0808  1.8177 -1.2269
  612MOL0     H82559   8.639   1.562   7.304  0.0716  2.3402  2.2814
  612MOL0     H82560   8.810   1.525   7.326  0.5557 -0.7987  1.7741
  612MOL0     H82561   8.599   1.524   7.548 -0.2376  1.1933  2.6944
  612MOL0     H82562   8.780   1.502   7.556 -0.7648 -2.7126 -1.8861
  612MOL0     H82563   8.751   1.728   7.632 -1.0550 -1.3945  0.3447
  612MOL0     H82564   8.821   1.735   7.473 -2.9539 -0.5891 -3.2986
  612MOL0     H82565   8.665   1.908   7.485  1.3201 -0.9048 -0.2432
  612MOL0     H82566   8.601   1.796   7.366  2.7183  1.2971 -0.9849
  612MOL0     H82567   8.507   1.862   7.645  0.2813 -0.0603 -0.3769
  612MOL0     H82568   8.493   1.687   7.583  1.7922  0.0141  0.7613
  612MOL0     H82569   8.331   1.776   7.410 -0.6637 -2.5392  2.2800
  612MOL0     H82570   8.293   1.825   7.573 -0.4106  1.6015 -0.7517
  612MOL0     H82571   8.315   1.961   7.238  1.7660 -2.2580  0.6421
  612MOL0     H82572   8.285   2.201   7.149  0.8948 -1.7701  0.4644
  612MOL0     H82573   8.224   2.304   7.267 -0.3381 -0.5172  0.3156
  612MOL0     H82574   8.384   2.456   7.160 -2.6372 -0.8553  0.4038
  612MOL0     H82575   8.467   2.405   7.304 -0.9003  1.9792 -0.1052
  612MOL0     H82576   8.494   2.293   7.023 -2.2650  3.4331  0.6568
  612MOL0     H82577   8.543   2.194   7.170 -2.9378  0.0360 -0.4053
  612MOL0     H82578   8.727   2.305   7.042 -0.9429  1.7986 -1.8999
  612MOL0     H82579   8.710   2.350   7.218 -0.2473 -1.1480  0.9903
  612MOL0     H82580   8.704   2.614   6.860 -0.9534  3.4407  0.8062
  612MOL0     H82581   8.920   2.687   6.767 -1.1946  1.1879  0.7517
  612MOL0     H82582   9.357   2.917   6.863  0.9684  1.8514 -0.7189
  612MOL0     H82583   9.565   2.983   6.731  0.7949  0.2109 -0.9559
  612MOL0     H82584   9.741   2.686   6.537 -0.5324 -1.4898 -2.2394
  612MOL0     H82585   9.721   2.756   6.377 -4.7147  1.0750  0.3919
  612MOL0     H82586   9.963   2.743   6.442 -1.7151 -1.0832 -1.7260
  612MOL0     H82587   9.889   2.902   6.408 -1.9138 -0.6768 -0.8524
  612MOL0     H82588  10.063   2.895   6.612  1.0263 -2.1128 -2.9788
  612MOL0     H82589   9.896   2.970   6.631 -1.2725 -1.8334  0.3544
  612MOL0     H82590   9.993   2.694   6.735 -0.2351 -0.1439  0.5384
  612MOL0     H82591   9.824   2.745   6.723  0.8264 -1.9447  1.3981
  612MOL0     H82592   9.916   2.773   6.952  3.5065  0.7769  2.2702
  612MOL0     H82593   9.869   2.925   6.877  3.2254  2.0106 -1.6279
  612MOL0     H82594  10.102   2.979   6.827  1.1722  0.5096  0.9767
  612MOL0     H82595  10.070   2.934   6.994 -3.7481  0.4248 -1.0933
  612MOL0     H82596  10.298   2.824   6.919  0.4282 -0.7177 -1.8902
  612MOL0     H82597  10.212   2.769   6.780  0.3998  1.2057 -0.8058
  612MOL0     H82598  10.103   2.601   6.913 -0.3469  0.6249 -0.0832
  612MOL0     H82599  10.275   2.608   6.965  1.8221  3.0172  1.4282
  612MOL0     H82600   9.491   2.666   6.458 -2.0100 -0.5554  0.3382
  612MOL0     H82601   9.342   2.571   6.591  3.1988 -1.1742  0.7414
  612MOL0     H82602   9.105   2.588   7.144 -0.3849 -1.0253 -0.0749
  612MOL0     H82603   8.883   2.511   7.237 -2.0346  1.5551 -0.0089
  612MOL0     H82604   8.673   1.215   6.979 -0.9371 -0.6609 -0.2863
  612MOL0     H82605   8.773   1.081   6.800  2.1274  1.6020  2.4358
  612MOL0     H82606   8.637   0.730   6.696 -0.5033  2.6826 -1.2449
  612MOL0     H82607   8.563   0.557   6.544 -0.3053  1.0760  4.5098
  612MOL0     H82608   8.646   0.322   6.228 -1.7052  0.3637 -0.8122
  612MOL0     H82609   8.556   0.452   6.308 -1.2885 -1.3896 -1.0949
  612MOL0     H82610   8.586   0.313   6.535  0.3936  0.0569 -0.3504
  612MOL0     H82611   8.652   0.190   6.443  0.4831 -0.4097 -3.9483
  612MOL0     H82612   8.449   0.102   6.455  0.9258 -0.1409 -0.6266
  612MOL0     H82613   8.446   0.179   6.296  1.3468 -0.4488 -0.3596
  612MOL0     H82614   8.321   0.366   6.366  3.8670 -0.0673 -0.4041
  612MOL0     H82615   8.223   0.227   6.419  0.1743  1.7965 -0.6607
  612MOL0     H82616   8.345   0.452   6.770 -1.5204  0.2449  0.4187
  612MOL0     H82617   8.963   0.558   6.350  1.5118  1.6015  0.9505
  612MOL0     H82618   9.123   0.653   6.471  2.9339 -0.4437  2.7266
  612MOL0     H82619   9.085   0.829   6.449 -1.5931 -1.4824 -3.1382
  612MOL0     H82620   9.117   0.763   6.602  0.6925 -0.3404 -1.2775
  613MOL0     O82621  10.462  10.893   6.697 -0.6182 -0.3897  0.0637
  613MOL0     C82622  10.511  10.793   6.756  0.3589  1.4344  0.0047
  613MOL0     O82623  10.448  10.664   6.753 -1.1649 -0.4833 -1.3690
  613MOL0     C82624  10.360  10.629   6.660  0.2539  0.2598  0.7342
  613MOL0     C82625  10.394  10.635   6.523  0.0235 -0.1733 -0.7244
  613MOL0     C82626  10.315  10.579   6.417 -0.5916  0.9860 -0.1417
  613MOL0     C82627  10.196  10.507   6.453  0.8855  0.2870 -0.2881
  613MOL0     O82628  10.127  10.437   6.358  0.0457 -0.9381  0.4713
  613MOL0     C82629   9.986  10.445   6.373 -0.1984  0.1811 -0.0605
  613MOL0     C82630   9.929  10.393   6.235 -1.1557 -0.1195  0.6352
  613MOL0     C82631   9.787  10.426   6.181  0.6543 -0.2097 -0.6885
  613MOL0     C82632   9.751  10.333   6.066  0.5861  0.0933  0.4641
  613MOL0     C82633   9.624  10.386   5.992  0.4471  0.4149 -0.8242
  613MOL0     C82634   9.617  10.538   5.960  0.0019  1.0755  0.3105
  613MOL0     C82635   9.743  10.593   5.894 -0.5776 -0.3677  0.3729
  613MOL0     C82636   9.705  10.685   5.778  0.8964 -0.4456  0.2248
  613MOL0     N82637   9.828  10.735   5.710  0.0603  0.0759 -0.7211
  613MOL0     C82638   9.894  10.666   5.615  0.7662 -0.0036 -0.1588
  613MOL0     C82639  10.011  10.721   5.607  0.2861 -0.3763 -0.1522
  613MOL0     C82640  10.124  10.677   5.530  0.2399 -0.3379 -0.0941
  613MOL0     C82641  10.219  10.588   5.608 -0.0842 -0.5001  0.5743
  613MOL0     C82642  10.313  10.528   5.503 -0.4561  0.3362  0.6417
  613MOL0     C82643  10.277  10.379   5.476 -0.7444  0.2167 -0.0433
  613MOL0     O82644  10.336  10.298   5.583 -0.3166 -0.4878 -0.6099
  613MOL0     C82645  10.463  10.260   5.560 -0.6713  0.4671  0.8842
  613MOL0     C82646  10.562  10.305   5.646  0.3017  0.1326 -0.0000
  613MOL0     C82647  10.692  10.259   5.643 -0.5581  1.0125  0.2571
  613MOL0     C82648  10.731  10.174   5.531 -0.5239  0.9198 -0.3320
  613MOL0     C82649  10.867  10.106   5.523  0.0230  0.1173  1.1634
  613MOL0     O82650  10.915  10.050   5.410  0.9502  0.4686 -0.6783
  613MOL0     C82651  11.005   9.948   5.424  0.3699  0.4712  0.0571
  613MOL0     C82652  10.985   9.845   5.519 -0.0529 -0.9670 -0.3238
  613MOL0     C82653  11.092   9.755   5.530  0.2116 -0.5561 -0.1871
  613MOL0     C82654  11.199   9.761   5.442 -0.4175 -0.0775  0.2580
  613MOL0     O82655  11.297   9.664   5.436 -0.7801  0.0230 -0.2164
  613MOL0     C82656  11.258   9.539   5.501  0.2868 -0.1966  1.0038
  613MOL0     C82657  11.370   9.437   5.482  0.0243 -0.4353 -0.0533
  613MOL0     C82658  11.510   9.489   5.517  0.4170 -0.1281  0.5692
  613MOL0     C82659  11.600   9.362   5.544  0.3510  0.1782 -0.5757
  613MOL0     C82660  11.676   9.320   5.418 -0.7398 -0.3456 -1.1118
  613MOL0     C82661  11.809   9.236   5.456  0.2168 -0.9058  0.5002
  613MOL0     C82662  11.781   9.117   5.536 -0.2159  0.8558  0.1608
  613MOL0     C82663  11.903   9.040   5.592  0.7743 -0.2438  0.0443
  613MOL0    Cl82664  12.001   9.141   5.703  0.2853 -0.1738  0.5866
  613MOL0     C82665  11.221   9.862   5.358  0.3760 -0.0916  0.1688
  613MOL0     C82666  11.123   9.958   5.348 -0.4044  0.2342 -1.3160
  613MOL0     O82667  10.941  10.133   5.617  0.5562  0.2775 -0.4965
  613MOL0     C82668  10.632  10.139   5.432 -1.4036 -0.2036  0.0401
  613MOL0     C82669  10.496  10.171   5.455 -0.1285  0.6658 -0.4294
  613MOL0     N82670  10.019  10.835   5.683 -1.1949  0.1070 -0.6041
  613MOL0     N82671   9.913  10.837   5.751  0.6687 -0.2274 -0.6463
  613MOL0     C82672  10.158  10.498   6.593 -0.0513  0.7848 -0.1193
  613MOL0     C82673  10.245  10.553   6.688  0.0707 -0.7730  0.9844
  613MOL0     C82674  10.631  10.799   6.847  0.0617  0.9499  0.0280
  613MOL0     C82675  10.714  10.677   6.848 -0.0561 -0.6632  0.1434
  613MOL0     C82676  10.822  10.675   6.938  0.3877 -0.5055 -0.0520
  613MOL0     C82677  10.838  10.779   7.031 -0.0178 -0.1597  0.8558
  613MOL0     O82678  10.918  10.759   7.141 -0.1636 -0.6291 -0.1363
  613MOL0     C82679  10.835  10.742   7.262 -0.3996 -0.3875 -0.1402
  613MOL0     C82680  10.927  10.702   7.376 -0.0816  0.7714  0.6381
  613MOL0     C82681  10.845  10.681   7.499  0.3387  0.0541 -0.4008
  613MOL0     C82682  10.932  10.606   7.606 -0.2513 -0.0911 -0.2569
  613MOL0     C82683  10.926  10.657   7.739  0.0320 -0.8637 -0.0046
  613MOL0     C82684  10.915  10.662   7.862  1.3381  0.4307  1.5560
  613MOL0     C82685  10.767  10.901   7.024  0.2683  0.1096  0.2469
  613MOL0     C82686  10.664  10.912   6.929 -0.2466  0.3763 -0.0516
  613MOL0     C82687  10.591  11.048   6.931 -0.5426  0.0546 -0.2386
  613MOL0     H82688  10.490  10.678   6.496  0.7277  0.3806  2.2525
  613MOL0     H82689  10.348  10.582   6.314  1.5741  1.0182  0.5117
  613MOL0     H82690   9.950  10.386   6.459  0.6360 -0.6155 -0.2343
  613MOL0     H82691   9.963  10.551   6.372  2.0375  0.7460 -2.6467
  613MOL0     H82692   9.941  10.284   6.234  0.2488  0.0007  1.3497
  613MOL0     H82693   9.997  10.426   6.156  0.1554  1.7388  2.4317
  613MOL0     H82694   9.798  10.530   6.150 -0.7814 -0.2918 -1.5181
  613MOL0     H82695   9.709  10.421   6.257  1.7861 -1.3744  0.4630
  613MOL0     H82696   9.815  10.324   5.978  1.1787 -6.3574  1.0898
  613MOL0     H82697   9.739  10.232   6.105 -0.9277 -0.5088 -1.4065
  613MOL0     H82698   9.607  10.329   5.900 -2.5593  1.6558 -1.1544
  613MOL0     H82699   9.541  10.365   6.060  2.0515 -2.1944  0.5034
  613MOL0     H82700   9.527  10.543   5.898  0.2564  1.6019 -0.0304
  613MOL0     H82701   9.581  10.591   6.049 -0.9656  0.1043  0.5136
  613MOL0     H82702   9.803  10.512   5.852 -2.1142 -0.9187 -0.8971
  613MOL0     H82703   9.798  10.657   5.964  0.4814 -0.6141 -0.2118
  613MOL0     H82704   9.645  10.635   5.703 -0.4301  1.8538 -0.3548
  613MOL0     H82705   9.653  10.774   5.816  0.8915 -1.0778  1.7911
  613MOL0     H82706   9.880  10.565   5.576 -0.5963  0.4082 -0.7760
  613MOL0     H82707  10.082  10.621   5.446  0.5411  1.3020 -1.4046
  613MOL0     H82708  10.186  10.763   5.501  0.6943 -0.6271  0.0237
  613MOL0     H82709  10.272  10.654   5.677 -3.6156  1.9063  1.2796
  613MOL0     H82710  10.164  10.508   5.659 -2.9262  0.7341 -0.3686
  613MOL0     H82711  10.414  10.521   5.546  0.0026 -4.8574 -0.6171
  613MOL0     H82712  10.309  10.577   5.405  2.1163  0.9161  0.7450
  613MOL0     H82713  10.304  10.355   5.372 -1.2443  0.3416 -0.2038
  613MOL0     H82714  10.169  10.366   5.476 -0.9074  0.7336  3.6460
  613MOL0     H82715  10.525  10.356   5.734  1.4040 -0.3047  0.7484
  613MOL0     H82716  10.773  10.288   5.709  1.2664 -0.6686 -1.1213
  613MOL0     H82717  10.903   9.826   5.586 -0.0642  0.6677  0.1702
  613MOL0     H82718  11.081   9.691   5.617  2.8856  1.1362  1.5130
  613MOL0     H82719  11.250   9.561   5.608 -0.9852  0.8046  0.7355
  613MOL0     H82720  11.157   9.507   5.471 -0.6254  1.8820  1.6314
  613MOL0     H82721  11.347   9.353   5.548  0.2231 -1.1301 -0.8458
  613MOL0     H82722  11.363   9.391   5.383 -2.9974  1.1283 -0.6772
  613MOL0     H82723  11.542   9.573   5.455 -3.0991  1.5736  0.7825
  613MOL0     H82724  11.499   9.537   5.615 -2.2664 -0.5570  0.5585
  613MOL0     H82725  11.543   9.279   5.588 -0.6352  0.4513 -1.3050
  613MOL0     H82726  11.673   9.390   5.620 -0.0904  1.2449 -0.5351
  613MOL0     H82727  11.707   9.412   5.369 -0.3789 -1.0395 -2.2379
  613MOL0     H82728  11.606   9.260   5.357 -0.8828  0.3450 -1.6358
  613MOL0     H82729  11.852   9.213   5.358 -1.0626  0.0937 -0.3361
  613MOL0     H82730  11.885   9.301   5.500  1.9420 -0.1866 -3.1622
  613MOL0     H82731  11.725   9.042   5.479  0.6138 -0.5924  1.1743
  613MOL0     H82732  11.718   9.135   5.623  0.8676  0.9212  0.9475
  613MOL0     H82733  11.883   8.946   5.645  4.4306 -1.3351 -0.2255
  613MOL0     H82734  11.973   9.011   5.513  1.4901  0.6721  0.3346
  613MOL0     H82735  11.295   9.861   5.279  0.3652  4.4249 -0.2033
  613MOL0     H82736  11.125  10.039   5.275  0.7130  2.4523  1.0178
  613MOL0     H82737  10.659  10.072   5.351  0.6524 -0.8473  1.1658
  613MOL0     H82738  10.416  10.155   5.384 -0.9942 -0.4469  0.7556
  613MOL0     H82739  10.085  10.422   6.619  2.9902 -1.8878  1.3175
  613MOL0     H82740  10.211  10.546   6.791  0.4726 -1.7626  1.0664
  613MOL0     H82741  10.688  10.601   6.776 -3.9761  2.4327 -2.1554
  613MOL0     H82742  10.902  10.602   6.940  0.3714 -0.6434 -2.1994
  613MOL0     H82743  10.754  10.670   7.249 -2.4117  1.7732 -0.2730
  613MOL0     H82744  10.788  10.840   7.279  0.1870  0.7306 -3.9168
  613MOL0     H82745  11.005  10.777   7.393  2.6290 -1.7208  0.1306
  613MOL0     H82746  10.969  10.608   7.339 -0.9902  0.5151  0.2243
  613MOL0     H82747  10.758  10.619   7.476  0.5357 -1.0575  1.6454
  613MOL0     H82748  10.814  10.779   7.538  1.6840  0.3808 -0.1098
  613MOL0     H82749  10.888  10.506   7.604  2.8988 -1.6827  1.7200
  613MOL0     H82750  11.038  10.594   7.586  0.0798  0.6845  0.9652
  613MOL0     H82751  10.911  10.653   7.969 -3.2293 -1.4200  1.4646
  613MOL0     H82752  10.775  10.973   7.104  2.3062 -0.5991  0.7413
  613MOL0     H82753  10.654  11.122   6.981 -0.0712 -0.0236 -0.7127
  613MOL0     H82754  10.585  11.076   6.825 -0.5465 -0.8555 -0.4833
  613MOL0     H82755  10.490  11.047   6.972 -0.0819  2.3614  1.1184
  614MOL0     O82756   3.601   1.624   0.664 -0.2643  0.5587 -0.3724
  614MOL0     C82757   3.648   1.612   0.549  0.6564 -0.0727 -0.2550
  614MOL0     O82758   3.703   1.715   0.481  0.7529 -0.4450  0.8050
  614MOL0     C82759   3.693   1.836   0.549  0.2736  0.6382 -0.6472
  614MOL0     C82760   3.808   1.902   0.589 -1.0169  0.1337  0.0134
  614MOL0     C82761   3.812   2.028   0.644  0.2007  0.3317 -0.2731
  614MOL0     C82762   3.689   2.093   0.644  0.2343  0.4518  0.3042
  614MOL0     O82763   3.699   2.215   0.702 -0.4507  0.2356  0.0241
  614MOL0     C82764   3.587   2.301   0.690  0.0727 -1.0335  0.4208
  614MOL0     C82765   3.638   2.443   0.709  0.0391  0.1197  1.0961
  614MOL0     C82766   3.759   2.483   0.622 -0.0448  0.1107  0.8210
  614MOL0     C82767   3.761   2.637   0.613 -0.8294  0.3758  0.2631
  614MOL0     C82768   3.894   2.681   0.562  0.9981 -0.3234 -0.3495
  614MOL0     C82769   3.910   2.804   0.484 -0.7790 -0.4623  0.0761
  614MOL0     C82770   4.005   2.804   0.365 -0.1490  0.0097  0.2948
  614MOL0     C82771   4.139   2.736   0.397  0.1255  0.2710  0.0264
  614MOL0     N82772   4.235   2.733   0.282  0.2250  0.0050 -0.0192
  614MOL0     C82773   4.307   2.834   0.232 -0.1547  0.5046  0.4346
  614MOL0     C82774   4.407   2.775   0.165 -0.3513 -0.8001 -0.3302
  614MOL0     C82775   4.533   2.842   0.108 -0.0302 -0.6814 -0.5994
  614MOL0     C82776   4.670   2.772   0.145 -0.6916 -0.0794 -0.7789
  614MOL0     C82777   4.781   2.867   0.102 -0.0348  0.7804  0.2372
  614MOL0     C82778   4.924   2.823   0.128 -0.7445 -0.8733  0.5825
  614MOL0     O82779   4.955   2.704   0.058  0.3007  0.3977 -0.2417
  614MOL0     C82780   5.019   2.705  -0.062 -0.9839  0.7594  0.3919
  614MOL0     C82781   4.989   2.616  -0.169  0.9290 -0.7528  0.0392
  614MOL0     C82782   5.055   2.617  -0.293 -0.4864  0.3816 -0.2223
  614MOL0     C82783   5.168   2.696  -0.311  0.2600 -0.7992  0.5651
  614MOL0     C82784   5.242   2.711  -0.442  0.3932 -0.3191 -1.2664
  614MOL0     O82785   5.309   2.828  -0.452  0.5069 -0.0187 -0.1203
  614MOL0     C82786   5.373   2.867  -0.570  0.6817 -0.7435  0.0996
  614MOL0     C82787   5.297   2.914  -0.681  0.1613  0.3449  0.7349
  614MOL0     C82788   5.367   2.939  -0.803 -0.7517 -0.0911 -0.0912
  614MOL0     C82789   5.508   2.908  -0.815 -0.5729 -0.2564 -1.1932
  614MOL0     O82790   5.561   2.927  -0.937  0.1956 -0.9024 -0.9019
  614MOL0     C82791   5.707   2.908  -0.954  0.3395 -0.3773  0.0490
  614MOL0     C82792   5.791   3.029  -0.932 -0.4390 -0.2002 -0.2582
  614MOL0     C82793   5.809   3.117  -1.060  0.2650 -0.3457  0.2491
  614MOL0     C82794   5.900   3.230  -1.031  0.4588  0.7194 -0.4985
  614MOL0     C82795   5.930   3.335  -1.146 -0.0652  0.9974  0.5653
  614MOL0     C82796   6.032   3.284  -1.245 -0.3254  1.3056 -0.6386
  614MOL0     C82797   6.043   3.367  -1.368 -0.4869  0.1770  1.1844
  614MOL0     C82798   6.143   3.312  -1.474 -0.6530  0.0479  0.6210
  614MOL0    Cl82799   6.119   3.394  -1.627 -0.1456  0.3173  0.4083
  614MOL0     C82800   5.578   2.874  -0.692  0.1407 -0.9431 -0.0801
  614MOL0     C82801   5.513   2.859  -0.567  0.2256  0.6840  0.1468
  614MOL0     O82802   5.225   2.631  -0.525  0.7075  0.1997  0.3529
  614MOL0     C82803   5.218   2.764  -0.196  0.0055  1.0103  0.9617
  614MOL0     C82804   5.135   2.773  -0.081  0.6626  0.4294  1.0987
  614MOL0     N82805   4.390   2.636   0.176  0.3190  0.6148 -0.2795
  614MOL0     N82806   4.280   2.616   0.240  0.3115  0.9755  0.1719
  614MOL0     C82807   3.566   2.033   0.606 -0.2637 -0.9507  0.3451
  614MOL0     C82808   3.570   1.907   0.557  0.3670 -0.0784 -0.7738
  614MOL0     C82809   3.659   1.480   0.476 -0.6509 -1.1807 -0.6964
  614MOL0     C82810   3.689   1.478   0.334  0.1097 -0.3484 -0.0762
  614MOL0     C82811   3.713   1.367   0.256 -0.8592  0.6759 -0.0813
  614MOL0     C82812   3.701   1.242   0.319  0.2880  1.0200 -0.1965
  614MOL0     O82813   3.734   1.120   0.251 -0.0575  0.3050 -0.5377
  614MOL0     C82814   3.728   1.106   0.105  0.7625  0.9420  0.4663
  614MOL0     C82815   3.772   0.960   0.072  0.0933 -0.2615 -0.2132
  614MOL0     C82816   3.924   0.915   0.098 -0.5858 -0.6544  0.2285
  614MOL0     C82817   4.032   1.007   0.050 -0.3444 -0.0491  0.7412
  614MOL0     C82818   4.044   0.998  -0.089  0.2453  0.3236 -0.2356
  614MOL0     C82819   4.064   1.015  -0.206  0.4149 -0.4907 -0.1532
  614MOL0     C82820   3.678   1.239   0.453 -0.8019  1.1661 -0.6746
  614MOL0     C82821   3.648   1.351   0.536  0.5310 -0.3448 -0.2002
  614MOL0     C82822   3.607   1.335   0.682  0.1430 -0.1994 -0.3583
  614MOL0     H82823   3.906   1.856   0.575 -1.1592 -0.7456  1.6154
  614MOL0     H82824   3.908   2.076   0.663  0.6399 -0.1712 -1.1729
  614MOL0     H82825   3.552   2.294   0.586 -1.4150 -0.2082  0.8411
  614MOL0     H82826   3.507   2.270   0.757  0.1506 -1.3786  0.3539
  614MOL0     H82827   3.657   2.449   0.816  0.5076 -0.5435  1.0564
  614MOL0     H82828   3.558   2.512   0.680 -0.1041 -1.3897 -2.7117
  614MOL0     H82829   3.747   2.427   0.529 -0.1472  0.4482  0.6283
  614MOL0     H82830   3.849   2.447   0.672 -0.5047 -0.3124  1.3674
  614MOL0     H82831   3.678   2.680   0.555  0.0866  2.2575  0.2836
  614MOL0     H82832   3.749   2.678   0.714  0.2562  0.0858  0.5172
  614MOL0     H82833   3.960   2.683   0.649  0.4169 -0.0195  0.0883
  614MOL0     H82834   3.934   2.609   0.491  1.3165 -0.1153 -0.3836
  614MOL0     H82835   3.807   2.838   0.468 -0.4518  1.4534  1.6866
  614MOL0     H82836   3.951   2.873   0.558  2.2499  0.6562 -2.4279
  614MOL0     H82837   4.026   2.907   0.335 -2.0710  0.8989  1.7753
  614MOL0     H82838   3.951   2.753   0.285  2.8806  0.0778 -1.9880
  614MOL0     H82839   4.183   2.786   0.484  1.4204 -3.8864  2.0228
  614MOL0     H82840   4.126   2.635   0.437  2.4198  0.3898  1.2885
  614MOL0     H82841   4.296   2.941   0.247  1.4793  0.6718  0.6458
  614MOL0     H82842   4.517   2.840  -0.001  0.4746  0.7190 -0.7168
  614MOL0     H82843   4.543   2.950   0.123  0.5908 -0.0902 -4.1667
  614MOL0     H82844   4.670   2.760   0.253 -2.1800  1.0058 -0.6387
  614MOL0     H82845   4.695   2.680   0.090  1.7099  0.7144 -1.1218
  614MOL0     H82846   4.765   2.953   0.167 -3.3412 -0.2828  1.0412
  614MOL0     H82847   4.782   2.899  -0.003 -0.2176  0.0682  0.0099
  614MOL0     H82848   4.930   2.791   0.232  0.3651 -1.5756  0.3232
  614MOL0     H82849   5.001   2.899   0.112 -1.9141 -0.1040 -1.9778
  614MOL0     H82850   4.904   2.555  -0.139 -0.3603  0.0337 -1.8194
  614MOL0     H82851   5.026   2.553  -0.376  2.9589 -1.4393 -0.2207
  614MOL0     H82852   5.192   2.943  -0.683 -1.4850 -4.6709 -2.1359
  614MOL0     H82853   5.314   2.978  -0.889  0.0787 -1.5340 -1.2925
  614MOL0     H82854   5.746   2.822  -0.898 -0.4686 -1.7819 -1.4558
  614MOL0     H82855   5.719   2.884  -1.060  0.8054 -1.1756  0.2690
  614MOL0     H82856   5.758   3.091  -0.848 -0.5508  1.1792 -1.2812
  614MOL0     H82857   5.884   2.979  -0.904 -2.4607 -4.1443  0.2707
  614MOL0     H82858   5.847   3.054  -1.141  0.6370  0.3535 -0.1276
  614MOL0     H82859   5.710   3.149  -1.092  0.1760 -0.0025  0.8653
  614MOL0     H82860   5.996   3.181  -1.014  0.3911  0.8315  0.2264
  614MOL0     H82861   5.867   3.283  -0.942  1.8240 -1.2799  1.2945
  614MOL0     H82862   5.975   3.420  -1.093 -1.7647  0.6346  2.7263
  614MOL0     H82863   5.837   3.367  -1.194  2.2474  4.6864 -2.0242
  614MOL0     H82864   6.123   3.268  -1.188 -0.5771 -1.1707 -0.7823
  614MOL0     H82865   6.003   3.187  -1.288  0.2499  0.9009 -0.1230
  614MOL0     H82866   6.092   3.461  -1.338 -0.3806  0.5474 -0.1034
  614MOL0     H82867   5.946   3.383  -1.414  0.0315 -0.6869 -0.2475
  614MOL0     H82868   6.248   3.321  -1.444 -0.3771 -1.7106  0.2696
  614MOL0     H82869   6.129   3.204  -1.484  0.5978  0.0566 -2.4380
  614MOL0     H82870   5.686   2.869  -0.691  0.2561 -0.5738 -3.0422
  614MOL0     H82871   5.563   2.813  -0.483  1.7343 -1.6958 -1.9419
  614MOL0     H82872   5.307   2.826  -0.204  2.1512 -1.9610  0.1493
  614MOL0     H82873   5.162   2.833   0.005 -3.6577 -0.6257  3.4571
  614MOL0     H82874   3.471   2.083   0.621 -0.8268 -1.4374 -1.3454
  614MOL0     H82875   3.477   1.856   0.535  1.2381 -2.1141  0.0773
  614MOL0     H82876   3.686   1.574   0.282  1.5695 -2.2610 -4.1266
  614MOL0     H82877   3.733   1.379   0.150  1.3342  3.7605  0.5400
  614MOL0     H82878   3.798   1.177   0.059  0.2653  0.3320 -1.3085
  614MOL0     H82879   3.630   1.136   0.066  0.9140  2.2205  1.0004
  614MOL0     H82880   3.738   0.940  -0.030 -2.7343  0.7742  0.4279
  614MOL0     H82881   3.707   0.893   0.129  0.6708 -0.5816  0.0819
  614MOL0     H82882   3.931   0.808   0.075  1.7982 -0.7416  1.1206
  614MOL0     H82883   3.949   0.910   0.204  2.8139 -0.9242 -0.4908
  614MOL0     H82884   4.015   1.109   0.087 -0.5728 -0.0540  0.6540
  614MOL0     H82885   4.125   0.985   0.103 -0.7049  0.0740  1.4426
  614MOL0     H82886   4.087   1.037  -0.307  0.5147 -1.3846 -0.3379
  614MOL0     H82887   3.674   1.137   0.492 -0.5158  0.9749 -1.1393
  614MOL0     H82888   3.631   1.231   0.704  0.5132 -0.2331 -0.8907
  614MOL0     H82889   3.664   1.400   0.749  1.8189  0.7220 -2.5253
  614MOL0     H82890   3.503   1.366   0.695 -0.0793 -1.0953  0.0235
  615MOL0     O82891   9.466   3.333   0.136 -0.3259  0.3041 -0.2477
  615MOL0     C82892   9.391   3.295   0.052 -0.7177 -0.0764  0.3485
  615MOL0     O82893   9.258   3.310   0.063  0.8784 -0.6444 -0.1862
  615MOL0     C82894   9.200   3.421   0.127 -0.2506  0.5725  0.3686
  615MOL0     C82895   9.258   3.548   0.125 -0.7098  0.1182  0.7197
  615MOL0     C82896   9.201   3.660   0.188  0.3187 -1.0987 -0.0110
  615MOL0     C82897   9.085   3.632   0.270 -0.4121 -0.6642 -0.3218
  615MOL0     O82898   9.020   3.727   0.347  0.3689 -0.1068 -0.2565
  615MOL0     C82899   9.066   3.864   0.344 -0.1250  0.1735 -0.4485
  615MOL0     C82900   8.972   3.954   0.429  0.1051  0.7551 -0.4379
  615MOL0     C82901   8.826   3.947   0.382 -0.4009  1.2050  0.5237
  615MOL0     C82902   8.738   4.044   0.440  0.3329  0.7828  0.3435
  615MOL0     C82903   8.738   4.043   0.592 -1.0069  0.1046 -0.1216
  615MOL0     C82904   8.618   4.108   0.656 -0.0110  0.6858 -0.2751
  615MOL0     C82905   8.628   4.257   0.668 -0.1876  0.5197 -0.0499
  615MOL0     C82906   8.534   4.318   0.774  0.7698 -0.7501 -0.7323
  615MOL0     N82907   8.545   4.464   0.795 -0.0498 -0.6060  0.3555
  615MOL0     C82908   8.505   4.567   0.706  0.4314 -0.1007 -0.3356
  615MOL0     C82909   8.576   4.675   0.746 -0.3449 -0.1995  0.3795
  615MOL0     C82910   8.556   4.813   0.677  0.4617 -0.5096 -0.5409
  615MOL0     C82911   8.428   4.868   0.752  1.2135 -0.5045 -0.2429
  615MOL0     C82912   8.379   5.006   0.693  0.3673 -0.2484 -0.3279
  615MOL0     C82913   8.251   5.063   0.759 -0.3768  0.7368 -0.1952
  615MOL0     O82914   8.167   5.132   0.676 -0.5686 -0.3118 -0.1625
  615MOL0     C82915   8.099   5.069   0.573 -0.1771  0.0712 -0.9210
  615MOL0     C82916   7.988   4.979   0.592  0.4808  0.8221  0.8076
  615MOL0     C82917   7.918   4.927   0.482  0.5005  0.7272 -0.0808
  615MOL0     C82918   7.954   4.949   0.349  1.0959 -0.8805 -0.7762
  615MOL0     C82919   7.882   4.900   0.236 -0.6760  0.0989  0.0874
  615MOL0     O82920   7.954   4.895   0.123 -0.2438 -0.0522 -0.0651
  615MOL0     C82921   7.936   4.830   0.002  0.5505 -0.1553  0.7404
  615MOL0     C82922   7.821   4.757  -0.034  0.9162 -0.1168  1.1218
  615MOL0     C82923   7.801   4.725  -0.165  0.7788 -0.1103  1.0898
  615MOL0     C82924   7.890   4.756  -0.268 -0.6599  0.2991  0.0701
  615MOL0     O82925   7.862   4.741  -0.404 -0.2190  0.5642 -0.1207
  615MOL0     C82926   7.952   4.646  -0.457  0.3225  1.1055 -0.2739
  615MOL0     C82927   7.911   4.504  -0.402 -0.8647 -0.0427  1.0737
  615MOL0     C82928   7.778   4.451  -0.461  0.3000  0.0076 -0.3696
  615MOL0     C82929   7.743   4.315  -0.397 -0.4970 -1.1688 -0.4929
  615MOL0     C82930   7.662   4.221  -0.479  0.9450  0.1238 -0.4655
  615MOL0     C82931   7.523   4.290  -0.505  0.9885 -0.1353 -0.5274
  615MOL0     C82932   7.400   4.203  -0.526  0.4748 -0.0506  0.2816
  615MOL0     C82933   7.282   4.276  -0.572 -0.0321  0.0454  0.3603
  615MOL0    Cl82934   7.296   4.334  -0.743  0.5930  0.3727 -0.1301
  615MOL0     C82935   8.006   4.836  -0.246 -0.6127  0.4006 -0.7023
  615MOL0     C82936   8.029   4.873  -0.107  0.7922 -0.2175 -0.3854
  615MOL0     O82937   7.770   4.860   0.249  0.0596 -0.6149  0.3193
  615MOL0     C82938   8.052   5.038   0.333  0.0350 -0.5781 -0.1244
  615MOL0     C82939   8.131   5.099   0.441 -0.3492  0.6259  0.3862
  615MOL0     N82940   8.651   4.645   0.855 -0.1201  0.2294 -0.3678
  615MOL0     N82941   8.624   4.525   0.883  0.0855 -0.2883  0.1935
  615MOL0     C82942   9.025   3.508   0.258  0.4152  0.5580 -0.5292
  615MOL0     C82943   9.078   3.396   0.182 -0.0559  0.1483 -0.3649
  615MOL0     C82944   9.456   3.207  -0.061  1.0947 -0.5490  0.1604
  615MOL0     C82945   9.352   3.137  -0.136 -1.0123  0.8559  0.4523
  615MOL0     C82946   9.395   3.039  -0.227  0.0064 -0.2405  0.0250
  615MOL0     C82947   9.531   3.036  -0.252  0.0769 -0.4811  0.0787
  615MOL0     O82948   9.567   2.958  -0.364 -0.4622 -0.2200  0.2798
  615MOL0     C82949   9.502   3.025  -0.475  0.0150 -0.3188  0.3126
  615MOL0     C82950   9.597   3.007  -0.591 -1.4014  0.0860 -0.2703
  615MOL0     C82951   9.733   3.088  -0.577  1.1384  0.3505  0.0387
  615MOL0     C82952   9.720   3.245  -0.581 -0.0850  0.6875  0.0015
  615MOL0     C82953   9.851   3.306  -0.608  0.3637  0.3819  0.1337
  615MOL0     C82954   9.960   3.343  -0.627 -0.1512 -0.3519 -0.4071
  615MOL0     C82955   9.627   3.109  -0.188  0.4980 -0.1941 -0.8514
  615MOL0     C82956   9.592   3.191  -0.079 -0.3572 -0.2369 -0.4075
  615MOL0     C82957   9.691   3.262   0.004  0.0362  0.1249 -0.0632
  615MOL0     H82958   9.350   3.560   0.069 -0.0358 -1.1901  1.4803
  615MOL0     H82959   9.239   3.760   0.170  3.2285 -2.2344 -0.7917
  615MOL0     H82960   9.169   3.854   0.379 -0.0965 -1.9112 -0.9539
  615MOL0     H82961   9.077   3.904   0.242  2.3282 -1.6287 -0.9933
  615MOL0     H82962   9.014   4.055   0.432  3.9130 -0.6750  1.4720
  615MOL0     H82963   8.985   3.921   0.533  3.3484  1.1190 -0.6237
  615MOL0     H82964   8.787   3.845   0.393  1.4994  0.4477  0.4661
  615MOL0     H82965   8.822   3.960   0.273  3.0506 -2.0750 -0.2101
  615MOL0     H82966   8.763   4.145   0.407 -1.7837  0.5967 -2.0994
  615MOL0     H82967   8.642   4.020   0.393  0.4508  0.0043  0.4881
  615MOL0     H82968   8.734   3.939   0.624 -1.9565 -0.0426 -0.6940
  615MOL0     H82969   8.832   4.083   0.630  1.4882 -5.9076  1.2668
  615MOL0     H82970   8.531   4.083   0.595 -0.5896 -0.2542  0.8816
  615MOL0     H82971   8.605   4.071   0.758 -0.5555  2.2942  0.2718
  615MOL0     H82972   8.590   4.301   0.575 -1.5670 -2.4378 -1.0070
  615MOL0     H82973   8.726   4.282   0.710 -0.4090  0.5597  0.4422
  615MOL0     H82974   8.433   4.302   0.737  1.0710 -3.5637 -0.6130
  615MOL0     H82975   8.560   4.276   0.872  1.3893  3.9545  1.3838
  615MOL0     H82976   8.444   4.557   0.617 -2.6112  0.8855  1.4587
  615MOL0     H82977   8.642   4.875   0.706  1.5670 -1.1060 -2.3824
  615MOL0     H82978   8.551   4.816   0.568  2.0955  1.3254 -0.6214
  615MOL0     H82979   8.351   4.791   0.736  1.8658 -0.6833 -2.9946
  615MOL0     H82980   8.458   4.868   0.857 -0.1337 -1.7497  0.1784
  615MOL0     H82981   8.353   4.986   0.589  0.9451 -1.0127 -0.3361
  615MOL0     H82982   8.460   5.075   0.669 -0.4617 -0.0504 -2.8513
  615MOL0     H82983   8.285   5.132   0.837 -1.7485  1.9465 -0.6098
  615MOL0     H82984   8.189   4.979   0.790 -3.4277  1.6707 -3.2019
  615MOL0     H82985   7.956   4.951   0.692 -1.4931  1.5297  0.4300
  615MOL0     H82986   7.837   4.858   0.504  1.3286  0.2630  1.7079
  615MOL0     H82987   7.742   4.724   0.033  0.1793 -1.5858 -0.3948
  615MOL0     H82988   7.710   4.680  -0.202  0.6282  1.6876 -0.9803
  615MOL0     H82989   7.928   4.649  -0.563  1.4496 -2.0298 -0.7236
  615MOL0     H82990   8.058   4.673  -0.448  0.9382  0.0005 -3.2199
  615MOL0     H82991   7.992   4.437  -0.433  1.0979  1.1633  3.2335
  615MOL0     H82992   7.895   4.497  -0.294 -3.3427 -3.5744  0.6507
  615MOL0     H82993   7.698   4.523  -0.441  0.6043  0.3949 -0.5572
  615MOL0     H82994   7.788   4.430  -0.568 -2.3952 -2.8432 -0.2278
  615MOL0     H82995   7.694   4.345  -0.304  1.7590  0.3867  0.2811
  615MOL0     H82996   7.840   4.269  -0.379  0.6268  0.0512 -2.9856
  615MOL0     H82997   7.644   4.130  -0.422 -1.1608 -0.4425 -1.9149
  615MOL0     H82998   7.703   4.201  -0.579 -0.1856 -0.3243 -0.8548
  615MOL0     H82999   7.504   4.351  -0.416  0.3405  3.0436 -2.6740
  615MOL0     H83000   7.541   4.358  -0.589 -2.1657 -0.6523 -1.7506
  615MOL0     H83001   7.377   4.169  -0.424 -1.0416 -0.4041 -0.1518
  615MOL0     H83002   7.413   4.117  -0.591 -0.4327  0.4113 -0.5539
  615MOL0     H83003   7.199   4.204  -0.567 -2.3596  2.6244  1.9736
  615MOL0     H83004   7.263   4.356  -0.499  2.6821 -0.1653  1.3864
  615MOL0     H83005   8.053   4.892  -0.326 -0.6574  2.3194  0.5449
  615MOL0     H83006   8.117   4.930  -0.079  1.9239 -2.5617  1.0801
  615MOL0     H83007   8.077   5.055   0.228 -1.5979 -2.5401 -0.8933
  615MOL0     H83008   8.192   5.183   0.411  0.1535 -0.6067 -2.3813
  615MOL0     H83009   8.941   3.499   0.326  1.2953 -0.0663  0.5070
  615MOL0     H83010   9.009   3.313   0.170 -0.9591  0.7750  0.3253
  615MOL0     H83011   9.252   3.128  -0.096  0.2289  1.2006  4.0120
  615MOL0     H83012   9.329   2.970  -0.278 -0.2237  0.1260 -0.1727
  615MOL0     H83013   9.483   3.132  -0.460 -0.5610 -0.6369  1.9634
  615MOL0     H83014   9.405   2.982  -0.500 -1.8350  3.5796  0.0956
  615MOL0     H83015   9.546   3.026  -0.686 -0.5936  0.7429 -0.5848
  615MOL0     H83016   9.628   2.902  -0.591  0.9443  0.7136  0.4073
  615MOL0     H83017   9.784   3.064  -0.671 -0.6648  0.2454 -0.9606
  615MOL0     H83018   9.781   3.065  -0.482 -1.5671  0.7381  1.5808
  615MOL0     H83019   9.661   3.275  -0.669 -0.3110  1.4884  0.4155
  615MOL0     H83020   9.676   3.295  -0.494  2.1475 -0.7901  2.0987
  615MOL0     H83021  10.062   3.371  -0.647 -0.0348 -0.3248  0.2235
  615MOL0     H83022   9.729   3.092  -0.221  0.3577  0.3798 -1.6063
  615MOL0     H83023   9.789   3.247  -0.042 -0.1549 -2.6291  0.2234
  615MOL0     H83024   9.665   3.367  -0.006 -1.7193 -0.1970  0.7305
  615MOL0     H83025   9.695   3.230   0.109 -0.4204  2.2389  0.6314
  616MOL0     O83026   7.893   3.580   1.482 -0.1137 -0.2703 -0.5152
  616MOL0     C83027   7.838   3.544   1.586  0.0801 -0.1763 -1.1761
  616MOL0     O83028   7.703   3.559   1.618 -0.8187 -0.4119  1.2012
  616MOL0     C83029   7.616   3.629   1.538 -0.3326  0.2083  0.1509
  616MOL0     C83030   7.493   3.669   1.593  0.0615 -0.2633  0.6500
  616MOL0     C83031   7.403   3.750   1.521  0.5119  0.6869 -0.5828
  616MOL0     C83032   7.416   3.778   1.385  0.1755  0.4968  0.1918
  616MOL0     O83033   7.333   3.856   1.316  0.5766  0.3370 -0.2173
  616MOL0     C83034   7.315   3.824   1.179 -0.9456  0.0368 -1.0911
  616MOL0     C83035   7.155   3.813   1.184 -0.3838  0.2589 -0.0399
  616MOL0     C83036   7.108   3.808   1.039 -0.3558  0.0580 -0.8696
  616MOL0     C83037   7.051   3.944   1.005  0.3265 -0.0960  0.5924
  616MOL0     C83038   6.964   3.973   0.881  0.6205  0.0634 -0.1545
  616MOL0     C83039   7.033   3.933   0.752  0.3631  0.4825  0.1576
  616MOL0     C83040   7.165   4.008   0.734  0.0822 -0.0335 -0.6648
  616MOL0     C83041   7.144   4.164   0.712  0.1755 -0.1317  0.4519
  616MOL0     N83042   7.250   4.218   0.627 -0.3326 -0.2663  0.0475
  616MOL0     C83043   7.228   4.291   0.509 -0.6008  0.3059  1.0184
  616MOL0     C83044   7.352   4.346   0.478  0.0332  0.3948  0.0279
  616MOL0     C83045   7.385   4.429   0.351  1.0272  0.6551  0.9900
  616MOL0     C83046   7.413   4.574   0.388 -1.0428 -0.2159 -0.0714
  616MOL0     C83047   7.459   4.651   0.259  0.0312  0.2432  0.6082
  616MOL0     C83048   7.462   4.803   0.284  0.1384  0.5120 -0.4102
  616MOL0     O83049   7.337   4.854   0.312  0.5597  0.2378 -0.4197
  616MOL0     C83050   7.309   4.940   0.417  0.7347 -0.0191 -0.2618
  616MOL0     C83051   7.184   4.923   0.488  0.2348 -1.2524  0.2292
  616MOL0     C83052   7.157   5.011   0.586 -0.5906 -0.2892 -0.4491
  616MOL0     C83053   7.241   5.120   0.626 -0.4109 -1.0592 -0.7443
  616MOL0     C83054   7.199   5.215   0.729 -1.4096  0.1471 -0.7794
  616MOL0     O83055   7.264   5.337   0.730  0.0294  0.5533  0.2116
  616MOL0     C83056   7.262   5.424   0.830  0.4984 -0.2819  0.4080
  616MOL0     C83057   7.230   5.552   0.795  0.1258  0.0070  0.3142
  616MOL0     C83058   7.234   5.656   0.889 -0.0905  1.2223 -0.1573
  616MOL0     C83059   7.276   5.625   1.019 -0.7744 -0.7316 -0.3213
  616MOL0     O83060   7.283   5.722   1.121 -0.2394  0.5711  0.0075
  616MOL0     C83061   7.239   5.852   1.102  0.2536  0.0592 -0.6154
  616MOL0     C83062   7.278   5.938   1.235  0.5292 -0.1337  0.4894
  616MOL0     C83063   7.420   6.001   1.223  0.4715  0.3008  0.5384
  616MOL0     C83064   7.453   6.096   1.329 -0.3174  0.1996  0.0579
  616MOL0     C83065   7.477   6.021   1.458  0.0262 -0.3241  0.5757
  616MOL0     C83066   7.512   6.132   1.562 -0.0141  0.6464  0.9296
  616MOL0     C83067   7.586   6.079   1.683 -0.4067  0.0101  0.8021
  616MOL0     C83068   7.685   6.185   1.737  0.1346 -0.4696  0.2200
  616MOL0    Cl83069   7.828   6.115   1.832 -0.3779  0.4386  0.0931
  616MOL0     C83070   7.300   5.490   1.055  0.4837 -0.5592  0.5250
  616MOL0     C83071   7.301   5.388   0.958  0.2588  0.3578 -0.0667
  616MOL0     O83072   7.107   5.175   0.801  0.0993  0.0221 -0.1933
  616MOL0     C83073   7.362   5.141   0.558 -0.9555  1.1908  0.4826
  616MOL0     C83074   7.396   5.039   0.458 -0.4841  0.4379 -0.1407
  616MOL0     N83075   7.441   4.295   0.565 -0.4457 -0.0415  0.3380
  616MOL0     N83076   7.378   4.228   0.656 -0.3086 -0.4079  0.1686
  616MOL0     C83077   7.534   3.728   1.329 -0.1508 -0.3964 -0.0675
  616MOL0     C83078   7.630   3.656   1.402 -0.3399  0.3746  0.4451
  616MOL0     C83079   7.914   3.467   1.684  0.4236 -0.0943  0.4700
  616MOL0     C83080   8.015   3.524   1.765  0.1333  0.0571  0.9141
  616MOL0     C83081   8.077   3.451   1.863  0.1254 -1.1501  0.2111
  616MOL0     C83082   8.041   3.321   1.893  0.0348 -1.0703  0.2805
  616MOL0     O83083   8.085   3.267   2.003  0.0791 -0.0430  0.0033
  616MOL0     C83084   8.181   3.162   1.985 -0.1519  0.4851 -0.4240
  616MOL0     C83085   8.140   3.030   2.044 -0.3135 -0.0449  0.5634
  616MOL0     C83086   8.128   3.025   2.194 -0.2970  0.3746 -0.6328
  616MOL0     C83087   8.061   2.896   2.250  0.9140  0.5468 -0.1474
  616MOL0     C83088   8.126   2.778   2.184 -0.1023  0.2445 -0.2027
  616MOL0     C83089   8.173   2.684   2.127 -0.3615  0.8909 -0.2369
  616MOL0     C83090   7.944   3.258   1.815  0.3413 -0.2189 -1.1514
  616MOL0     C83091   7.876   3.328   1.716 -1.0705 -0.1358 -0.0181
  616MOL0     C83092   7.764   3.251   1.643  0.9426  0.2576  0.2036
  616MOL0     H83093   7.472   3.635   1.694  0.9162  1.8570  1.6185
  616MOL0     H83094   7.310   3.783   1.567 -0.6586 -1.0079 -1.6177
  616MOL0     H83095   7.349   3.906   1.116 -1.5098 -0.8159 -2.5600
  616MOL0     H83096   7.354   3.729   1.141 -0.5170 -1.2761  2.2598
  616MOL0     H83097   7.123   3.905   1.233 -2.3243 -0.8522  0.8860
  616MOL0     H83098   7.135   3.724   1.244 -1.6826  1.5703  1.5841
  616MOL0     H83099   7.033   3.728   1.041 -2.9700  2.3418 -0.8563
  616MOL0     H83100   7.191   3.780   0.973  0.5646 -3.8465  1.6018
  616MOL0     H83101   6.980   3.966   1.086  1.5133 -0.3077  1.7102
  616MOL0     H83102   7.128   4.022   1.002 -0.0966  0.3068 -2.0626
  616MOL0     H83103   6.867   3.926   0.902  1.0915 -0.4470  0.9378
  616MOL0     H83104   6.946   4.081   0.878 -0.1727 -0.0701 -0.5026
  616MOL0     H83105   7.056   3.826   0.744 -0.3318  0.4670 -2.7196
  616MOL0     H83106   6.971   3.941   0.662 -0.6350 -3.0279  0.3885
  616MOL0     H83107   7.202   3.964   0.641  1.4998  2.2099 -1.2435
  616MOL0     H83108   7.232   3.993   0.818 -2.7229 -2.3418  1.3681
  616MOL0     H83109   7.045   4.184   0.672 -0.1701 -1.1552  0.7671
  616MOL0     H83110   7.144   4.215   0.809 -3.8707 -1.8173  1.5496
  616MOL0     H83111   7.145   4.294   0.439  0.9346 -0.3616 -0.9554
  616MOL0     H83112   7.471   4.390   0.296  0.2830 -1.5405  1.2744
  616MOL0     H83113   7.298   4.427   0.285 -0.6388 -0.7771  3.0836
  616MOL0     H83114   7.318   4.616   0.422  0.1675  0.3809  2.8959
  616MOL0     H83115   7.483   4.576   0.472  0.7200 -2.6790 -1.3790
  616MOL0     H83116   7.386   4.618   0.185 -2.1077  1.3501  2.1291
  616MOL0     H83117   7.564   4.627   0.237  0.5675  1.1879  1.9531
  616MOL0     H83118   7.474   4.871   0.198  1.5209  1.5267  0.5264
  616MOL0     H83119   7.542   4.824   0.356  0.0040  1.5690 -0.5577
  616MOL0     H83120   7.119   4.842   0.457  1.6137 -0.9141 -4.1428
  616MOL0     H83121   7.066   4.994   0.643 -0.3650  1.8559  0.6616
  616MOL0     H83122   7.210   5.574   0.690  2.1858  1.4893  0.1704
  616MOL0     H83123   7.211   5.753   0.848  3.1278  1.6457 -1.1725
  616MOL0     H83124   7.299   5.887   1.017 -1.6745  0.1654 -2.0070
  616MOL0     H83125   7.137   5.848   1.064  0.2149  1.4407 -0.7290
  616MOL0     H83126   7.215   6.028   1.240  1.2614  0.3055  3.9279
  616MOL0     H83127   7.262   5.874   1.322  1.7693 -0.7058  0.3078
  616MOL0     H83128   7.489   5.916   1.221  0.2274  0.1070 -1.1033
  616MOL0     H83129   7.440   6.040   1.123  2.7777 -2.7880 -0.3477
  616MOL0     H83130   7.379   6.177   1.327  1.3674  1.7753 -0.9411
  616MOL0     H83131   7.542   6.150   1.298  0.0141  0.0894  0.7899
  616MOL0     H83132   7.565   5.956   1.452  3.8263  4.1373  1.6439
  616MOL0     H83133   7.393   5.956   1.483 -0.1146 -0.9040 -1.2620
  616MOL0     H83134   7.574   6.206   1.511 -2.1338  0.3062 -2.4648
  616MOL0     H83135   7.418   6.180   1.591  1.2909  2.1396  2.9070
  616MOL0     H83136   7.640   5.988   1.655 -2.3515 -1.5351  1.8230
  616MOL0     H83137   7.512   6.047   1.756  0.0945 -1.2971  0.7696
  616MOL0     H83138   7.740   6.238   1.658  2.2189 -3.0150 -0.1800
  616MOL0     H83139   7.625   6.264   1.783  0.7727  0.4456 -0.4757
  616MOL0     H83140   7.324   5.459   1.156 -0.5847  2.0116  1.6802
  616MOL0     H83141   7.333   5.287   0.982  5.3174  1.2237 -1.9785
  616MOL0     H83142   7.433   5.219   0.582 -2.5413  1.8074  3.7848
  616MOL0     H83143   7.491   5.045   0.406 -1.1115 -1.4134 -1.6013
  616MOL0     H83144   7.565   3.764   1.231 -0.3152 -0.0250  0.0163
  616MOL0     H83145   7.721   3.641   1.344  1.1033  0.3090  2.6099
  616MOL0     H83146   8.051   3.624   1.743 -0.2969 -0.2046 -1.1508
  616MOL0     H83147   8.144   3.509   1.926  1.4074 -1.5061 -0.7852
  616MOL0     H83148   8.279   3.189   2.025  0.5341 -2.6480  0.2968
  616MOL0     H83149   8.192   3.144   1.878 -1.1872  1.5247 -0.7251
  616MOL0     H83150   8.217   2.968   1.998  0.7179 -0.4491  2.6949
  616MOL0     H83151   8.049   3.003   1.989 -2.1768  2.3800  2.1773
  616MOL0     H83152   8.067   3.110   2.229 -1.7913 -0.0869 -1.9630
  616MOL0     H83153   8.224   3.030   2.246 -1.4934  0.1825  1.7504
  616MOL0     H83154   8.085   2.892   2.357  2.7197 -2.8755 -0.5332
  616MOL0     H83155   7.957   2.894   2.217 -0.2911  1.3613  3.2063
  616MOL0     H83156   8.217   2.604   2.071 -1.1078  1.3203 -1.4900
  616MOL0     H83157   7.913   3.157   1.842 -2.0876  0.2317 -1.9812
  616MOL0     H83158   7.774   3.277   1.538  2.0509  0.0316  0.2419
  616MOL0     H83159   7.774   3.142   1.647  1.0426  0.2710  0.3164
  616MOL0     H83160   7.668   3.277   1.689  0.7867 -1.0356  0.6596
  617MOL0     O83161   9.704   8.077   3.620  0.7886  0.1150  0.6051
  617MOL0     C83162   9.765   8.098   3.724 -0.3391  0.4008 -0.1215
  617MOL0     O83163   9.901   8.062   3.755 -0.3485 -0.0481  0.8129
  617MOL0     C83164   9.988   8.021   3.650  0.2331 -0.3235 -1.6793
  617MOL0     C83165   9.993   8.063   3.521  0.8120 -0.2071 -0.3792
  617MOL0     C83166  10.109   8.041   3.448  0.2344  0.0917  0.0044
  617MOL0     C83167  10.221   7.957   3.497  0.1270  0.6499  0.8448
  617MOL0     O83168  10.335   7.939   3.420 -0.3020 -0.0178  0.0253
  617MOL0     C83169  10.448   8.024   3.445 -0.3125  0.1041  0.3045
  617MOL0     C83170  10.533   7.964   3.551 -1.1213 -0.0643  0.6208
  617MOL0     C83171  10.597   7.820   3.513  0.6805 -0.5056 -1.2473
  617MOL0     C83172  10.700   7.763   3.618 -0.3080 -0.3013 -0.6619
  617MOL0     C83173  10.834   7.823   3.612  0.5417  0.0755 -0.2124
  617MOL0     C83174  10.958   7.736   3.663  0.2183  0.7941 -0.1248
  617MOL0     C83175  10.962   7.694   3.802  0.0414 -0.1263 -0.5201
  617MOL0     C83176  10.947   7.825   3.888 -0.6363  0.4447  0.2930
  617MOL0     N83177  10.996   7.821   4.032  0.3883 -0.7205  0.7459
  617MOL0     C83178  11.130   7.836   4.072  0.0336 -0.0877  0.6517
  617MOL0     C83179  11.125   7.830   4.206  0.1223 -1.0385  0.8022
  617MOL0     C83180  11.244   7.810   4.290 -0.3757  1.0044  0.2389
  617MOL0     C83181  11.216   7.792   4.444  0.6719 -1.1835  0.1768
  617MOL0     C83182  11.349   7.826   4.520 -0.0912  0.9724 -0.2946
  617MOL0     C83183  11.372   7.733   4.641 -0.3895 -0.3132 -0.4429
  617MOL0     O83184  11.396   7.607   4.602  0.3407  0.8338 -0.2562
  617MOL0     C83185  11.397   7.507   4.698 -0.0551  0.1741 -0.2327
  617MOL0     C83186  11.361   7.531   4.836  0.3221 -0.4243  0.5037
  617MOL0     C83187  11.385   7.434   4.935 -0.4080  0.3497  0.2266
  617MOL0     C83188  11.427   7.307   4.902  0.2823  0.0443  0.9460
  617MOL0     C83189  11.448   7.200   4.998 -1.4984 -1.5198 -0.4827
  617MOL0     O83190  11.383   7.227   5.120 -0.4607 -0.3700  0.3294
  617MOL0     C83191  11.418   7.140   5.219 -0.2571  0.4436 -0.1204
  617MOL0     C83192  11.319   7.060   5.282  0.1305 -0.0752 -0.1799
  617MOL0     C83193  11.343   6.991   5.401 -1.3171  0.4261 -0.2204
  617MOL0     C83194  11.462   6.996   5.466 -0.3796  0.0999 -0.6222
  617MOL0     O83195  11.481   6.932   5.579 -0.4899 -0.6783  0.2270
  617MOL0     C83196  11.589   6.823   5.585  0.0786 -0.7634 -0.3389
  617MOL0     C83197  11.676   6.841   5.710  0.5257  0.5822 -0.9313
  617MOL0     C83198  11.610   6.784   5.841 -0.5987  0.0873 -0.3472
  617MOL0     C83199  11.591   6.629   5.833  0.2408  0.2143 -0.6141
  617MOL0     C83200  11.512   6.588   5.957 -0.3632 -0.0308 -0.8054
  617MOL0     C83201  11.378   6.643   5.972 -0.0159  0.0377  0.9152
  617MOL0     C83202  11.307   6.585   6.092 -0.1433  0.2935  0.3621
  617MOL0     C83203  11.173   6.658   6.110 -0.1501  0.5176  1.3175
  617MOL0    Cl83204  11.079   6.647   5.962  0.2224 -0.0682  0.0573
  617MOL0     C83205  11.562   7.082   5.405  0.1199  0.4218  0.1812
  617MOL0     C83206  11.537   7.157   5.288  0.4899  1.0750 -0.5037
  617MOL0     O83207  11.534   7.113   4.979 -0.2897 -0.4034  0.3870
  617MOL0     C83208  11.457   7.282   4.771 -1.0652  0.0064 -0.0054
  617MOL0     C83209  11.452   7.384   4.679 -0.2315 -0.4903 -0.3925
  617MOL0     N83210  10.988   7.813   4.245 -1.0759  0.6827  0.7077
  617MOL0     N83211  10.916   7.821   4.142  0.5124  0.8496  0.7868
  617MOL0     C83212  10.197   7.903   3.616 -0.2915  1.5508  0.9042
  617MOL0     C83213  10.079   7.934   3.695 -0.1789  0.0988 -0.5651
  617MOL0     C83214   9.687   8.145   3.845  0.3848  0.4461 -0.4858
  617MOL0     C83215   9.678   8.065   3.959 -0.7394 -0.0672  0.3882
  617MOL0     C83216   9.617   8.115   4.067  0.4674  1.3888 -0.4996
  617MOL0     C83217   9.553   8.240   4.077 -0.3758  0.3899  1.0640
  617MOL0     O83218   9.489   8.274   4.199  0.4642  0.7634 -0.3720
  617MOL0     C83219   9.345   8.261   4.192 -0.1388 -0.9116 -0.3580
  617MOL0     C83220   9.298   8.109   4.206 -0.3367 -1.0447  0.0604
  617MOL0     C83221   9.306   8.068   4.356 -0.2392  0.8832  1.2134
  617MOL0     C83222   9.246   7.931   4.371  0.2321  0.0669 -1.0032
  617MOL0     C83223   9.250   7.905   4.520 -0.2635  0.8102 -0.8519
  617MOL0     C83224   9.238   7.869   4.641 -0.2596  0.7157  0.1619
  617MOL0     C83225   9.546   8.318   3.961 -1.6414  0.6687 -0.6728
  617MOL0     C83226   9.622   8.277   3.853 -1.0587  1.0155  0.7422
  617MOL0     C83227   9.636   8.374   3.739  0.4978 -0.6491  0.4766
  617MOL0     H83228   9.905   8.115   3.484  1.2180 -0.7451 -2.2110
  617MOL0     H83229  10.118   8.098   3.356 -4.0484  1.1413  0.0373
  617MOL0     H83230  10.497   8.038   3.348 -1.6358  0.1166 -0.3880
  617MOL0     H83231  10.414   8.121   3.481 -3.0472 -0.1441 -1.3234
  617MOL0     H83232  10.467   7.960   3.639 -0.7035  0.6031  0.9750
  617MOL0     H83233  10.614   8.036   3.568 -1.2220  0.2259 -0.0831
  617MOL0     H83234  10.640   7.820   3.413 -1.4745  2.8440 -2.3580
  617MOL0     H83235  10.509   7.755   3.516  0.0753  0.3059  0.3937
  617MOL0     H83236  10.644   7.769   3.712  2.9261  0.9148  1.3354
  617MOL0     H83237  10.713   7.659   3.585  1.0868  0.3141 -2.2385
  617MOL0     H83238  10.844   7.844   3.505  1.9931 -0.4538 -0.1983
  617MOL0     H83239  10.835   7.919   3.664 -0.9079 -1.4641  2.9156
  617MOL0     H83240  10.952   7.643   3.606 -1.5925  1.5430 -1.2331
  617MOL0     H83241  11.054   7.776   3.630  0.7322 -2.0505 -2.4915
  617MOL0     H83242  11.051   7.635   3.827 -0.1379 -0.6440 -1.0725
  617MOL0     H83243  10.877   7.628   3.817  1.6717 -1.8483  1.8101
  617MOL0     H83244  11.013   7.906   3.854 -0.3892  1.3184  2.6520
  617MOL0     H83245  10.841   7.850   3.903 -1.2360 -1.4924 -0.4743
  617MOL0     H83246  11.215   7.838   4.005  1.1598  4.3105  1.8295
  617MOL0     H83247  11.294   7.719   4.256  0.1448  0.5200  2.1587
  617MOL0     H83248  11.314   7.889   4.264  1.2458 -0.3354  0.3643
  617MOL0     H83249  11.139   7.861   4.476  2.4561  1.8272 -1.5758
  617MOL0     H83250  11.184   7.688   4.459 -1.9772 -0.4326  0.1809
  617MOL0     H83251  11.356   7.930   4.552  1.8322  0.1961  2.0811
  617MOL0     H83252  11.432   7.817   4.448 -0.4068  1.5819 -0.7441
  617MOL0     H83253  11.286   7.752   4.706 -1.4587  1.7489 -2.3420
  617MOL0     H83254  11.461   7.751   4.702 -1.9322 -1.3002  2.2503
  617MOL0     H83255  11.312   7.621   4.869 -4.2534 -2.0489 -1.0361
  617MOL0     H83256  11.356   7.454   5.038 -3.5435 -1.1459 -0.2562
  617MOL0     H83257  11.213   7.053   5.258 -0.1711 -0.9718  1.2559
  617MOL0     H83258  11.264   6.926   5.438 -0.9392 -0.5942 -1.1756
  617MOL0     H83259  11.554   6.719   5.582  4.2099 -2.3649  0.0980
  617MOL0     H83260  11.657   6.835   5.500  0.3256 -1.2297 -0.2071
  617MOL0     H83261  11.766   6.783   5.689  1.6093  0.6917  2.7338
  617MOL0     H83262  11.706   6.945   5.725  2.4178 -0.0448 -0.0686
  617MOL0     H83263  11.653   6.820   5.936 -2.7660  2.5963 -0.1989
  617MOL0     H83264  11.516   6.839   5.846  0.3977  1.7966  0.6249
  617MOL0     H83265  11.689   6.581   5.826 -0.1865 -2.0131  4.3848
  617MOL0     H83266  11.534   6.594   5.746  2.3944  1.4511 -2.6127
  617MOL0     H83267  11.580   6.608   6.041  0.8832 -0.3504 -1.7005
  617MOL0     H83268  11.509   6.478   5.952  0.1507 -0.1565  0.9849
  617MOL0     H83269  11.374   6.753   5.975 -1.8837  0.0254  0.5228
  617MOL0     H83270  11.326   6.621   5.878  3.5497  1.1208 -1.5036
  617MOL0     H83271  11.374   6.592   6.178  0.9981  2.3981 -0.6016
  617MOL0     H83272  11.290   6.479   6.071 -0.3140  0.4742 -0.4772
  617MOL0     H83273  11.122   6.611   6.195  1.2951  0.0758  1.9830
  617MOL0     H83274  11.197   6.764   6.123  0.3286  0.7863 -1.2594
  617MOL0     H83275  11.653   7.111   5.458 -0.9936  0.9166  1.8897
  617MOL0     H83276  11.611   7.232   5.264 -0.6389  3.0880  1.8674
  617MOL0     H83277  11.497   7.187   4.737  1.5616  1.4684 -1.3670
  617MOL0     H83278  11.477   7.353   4.578  2.2311 -2.0452  0.6090
  617MOL0     H83279  10.271   7.835   3.656 -1.0110 -0.7682 -1.4296
  617MOL0     H83280  10.074   7.897   3.797  0.9499 -1.2983 -0.9829
  617MOL0     H83281   9.715   7.963   3.952  0.9348  0.5923 -1.5564
  617MOL0     H83282   9.596   8.045   4.147 -3.3124 -1.8264 -3.8732
  617MOL0     H83283   9.299   8.295   4.099  0.5932 -0.4807 -0.5666
  617MOL0     H83284   9.304   8.323   4.273 -0.9839  0.8468 -2.0651
  617MOL0     H83285   9.356   8.042   4.142 -0.9509 -0.9191 -0.6427
  617MOL0     H83286   9.195   8.102   4.170 -1.0864 -0.5840  1.9668
  617MOL0     H83287   9.254   8.141   4.417  0.5781  0.0039  3.0432
  617MOL0     H83288   9.409   8.064   4.395  0.3623  0.4784 -0.3423
  617MOL0     H83289   9.141   7.934   4.343  0.4155  1.0902 -1.6308
  617MOL0     H83290   9.303   7.866   4.304  3.9744  1.6845  0.3262
  617MOL0     H83291   9.234   7.829   4.740 -1.4725  0.2356 -0.0582
  617MOL0     H83292   9.485   8.408   3.956 -1.6511  0.7297  0.3836
  617MOL0     H83293   9.579   8.357   3.647  1.7293  0.7349 -0.5831
  617MOL0     H83294   9.609   8.472   3.778  1.3955 -1.0788  2.3017
  617MOL0     H83295   9.740   8.384   3.708  0.8684 -2.1964  1.1131
  618MOL0     O83296  10.468   1.121   9.800  0.0434  0.9786  0.3363
  618MOL0     C83297  10.431   1.127   9.909  0.6474  0.1207  0.1259
  618MOL0     O83298  10.299   1.113   9.947  0.0797 -0.6103  0.1840
  618MOL0     C83299  10.219   1.043   9.859 -0.7870  0.0046  0.9940
  618MOL0     C83300  10.087   1.097   9.838 -0.4251 -0.3156 -0.1862
  618MOL0     C83301  10.001   1.013   9.771 -0.5338 -0.2297  0.1508
  618MOL0     C83302  10.028   0.886   9.728 -0.9027  0.5707 -0.2207
  618MOL0     O83303   9.921   0.823   9.664  0.3960  0.4414  0.6961
  618MOL0     C83304   9.886   0.694   9.716  0.0487 -0.7136 -0.2436
  618MOL0     C83305   9.738   0.666   9.671  0.7320  0.0440  0.9286
  618MOL0     C83306   9.668   0.597   9.780  0.9339 -0.2253 -0.3712
  618MOL0     C83307   9.528   0.560   9.736  1.3169  0.6381 -0.7145
  618MOL0     C83308   9.426   0.533   9.856  0.3621 -0.0473  0.4998
  618MOL0     C83309   9.432   0.394   9.903 -0.2518  0.6848  0.4051
  618MOL0     C83310   9.291   0.339   9.943  0.4692  0.6399 -0.3135
  618MOL0     C83311   9.294   0.194  10.002 -0.2118 -0.8972  0.5845
  618MOL0     N83312   9.163   0.145  10.024  0.4286 -0.7492  0.1796
  618MOL0     C83313   9.098   0.061   9.929  0.1643 -1.0550  0.3721
  618MOL0     C83314   8.979   0.038   9.982 -1.0861 -1.1222  0.5437
  618MOL0     C83315   8.884  -0.040   9.906  1.2145 -1.4418 -0.4330
  618MOL0     C83316   8.740   0.014   9.911 -0.5517  0.1012 -0.8632
  618MOL0     C83317   8.668   0.008  10.042  0.8155 -0.9511 -0.0010
  618MOL0     C83318   8.544   0.105  10.047  0.3588 -0.4258  0.8820
  618MOL0     O83319   8.471   0.087   9.924 -0.4838  0.2734 -0.0405
  618MOL0     C83320   8.348   0.155   9.907 -0.0886 -0.6604  0.7526
  618MOL0     C83321   8.314   0.276   9.976  0.1979  0.0412  0.2955
  618MOL0     C83322   8.190   0.338   9.946 -0.1256  0.4524  0.0304
  618MOL0     C83323   8.095   0.284   9.856  0.2389  0.2332  0.4674
  618MOL0     C83324   7.952   0.337   9.842  0.4426  0.7183  0.2404
  618MOL0     O83325   7.915   0.436   9.918 -0.1625  0.5117  0.8673
  618MOL0     C83326   7.784   0.458   9.942  0.8307  0.5472 -0.6057
  618MOL0     C83327   7.740   0.591   9.954 -0.0974  0.0662 -0.1696
  618MOL0     C83328   7.615   0.623   9.994 -0.0186 -0.3354  1.0864
  618MOL0     C83329   7.522   0.519  10.005  0.9107  0.8953 -0.5811
  618MOL0     O83330   7.382   0.545  10.028  0.0671 -0.6282 -0.0477
  618MOL0     C83331   7.346   0.656  10.112  0.0836 -0.8277  0.2999
  618MOL0     C83332   7.274   0.765  10.033  0.2622  0.1650 -0.0874
  618MOL0     C83333   7.133   0.728   9.997  0.1786  0.1319 -0.5400
  618MOL0     C83334   7.116   0.610   9.913 -0.5057  0.6838 -0.0258
  618MOL0     C83335   6.975   0.588   9.861  0.0395 -0.0216 -1.5028
  618MOL0     C83336   6.939   0.681   9.752  0.0959 -0.2145  0.9691
  618MOL0     C83337   6.807   0.638   9.686 -0.4524  0.6045 -0.3777
  618MOL0     C83338   6.691   0.606   9.776 -0.3992 -0.4182 -0.5963
  618MOL0    Cl83339   6.553   0.529   9.695 -0.2348  0.1478  0.2433
  618MOL0     C83340   7.561   0.384   9.996  0.9720  0.2923 -0.3920
  618MOL0     C83341   7.686   0.357   9.948  0.1799 -0.3261 -0.9930
  618MOL0     O83342   7.881   0.268   9.767 -0.2081 -0.7331 -0.1198
  618MOL0     C83343   8.131   0.159   9.794  0.7856  0.3704 -0.1408
  618MOL0     C83344   8.256   0.100   9.817  0.0172 -0.4075  0.0670
  618MOL0     N83345   8.974   0.103  10.105 -0.1595  0.8049  0.6951
  618MOL0     N83346   9.078   0.173  10.128 -0.8589  0.2521 -0.1393
  618MOL0     C83347  10.155   0.839   9.737 -0.2293 -0.0299 -0.1486
  618MOL0     C83348  10.257   0.912   9.803 -0.3292  0.0437  0.5645
  618MOL0     C83349  10.517   1.159  10.029  0.1653  0.2374 -0.5929
  618MOL0     C83350  10.465   1.225  10.143  0.1465  0.0599 -0.3493
  618MOL0     C83351  10.543   1.249  10.261  0.1511 -0.0741  0.0462
  618MOL0     C83352  10.671   1.199  10.273  0.2285 -0.8155  0.2023
  618MOL0     O83353  10.752   1.202  10.377  0.1756  0.2488  0.1685
  618MOL0     C83354  10.712   1.124  10.489  0.2127  0.4178  0.1913
  618MOL0     C83355  10.614   1.203  10.584  0.5139 -0.1691 -0.1455
  618MOL0     C83356  10.693   1.319  10.660 -0.3637  0.0151 -0.2172
  618MOL0     C83357  10.605   1.340  10.784  0.5849 -0.1491  0.3203
  618MOL0     C83358  10.650   1.478  10.835 -0.6282  0.9180  0.2005
  618MOL0     C83359  10.695   1.584  10.866 -0.1568 -0.8961 -0.5525
  618MOL0     C83360  10.727   1.148  10.161 -0.4571  0.4755 -0.9565
  618MOL0     C83361  10.658   1.135  10.034  0.0784 -0.6398 -0.5540
  618MOL0     C83362  10.736   1.111   9.913 -0.3106 -0.3372  0.1218
  618MOL0     H83363  10.055   1.200   9.853  1.9849  0.9817 -3.0248
  618MOL0     H83364   9.902   1.057   9.761  1.5432  4.6771 -2.1102
  618MOL0     H83365   9.958   0.624   9.674 -0.1895 -0.2063 -1.5525
  618MOL0     H83366   9.899   0.678   9.823 -0.2169 -2.2548 -0.4272
  618MOL0     H83367   9.737   0.603   9.582 -0.3892 -0.4304  1.2640
  618MOL0     H83368   9.689   0.762   9.648  2.3354  1.4245  2.9049
  618MOL0     H83369   9.659   0.669   9.863 -1.9632  0.9269 -1.5263
  618MOL0     H83370   9.721   0.509   9.814  3.5642  0.6912 -1.8139
  618MOL0     H83371   9.485   0.646   9.684  0.4915  0.8121  0.2304
  618MOL0     H83372   9.532   0.472   9.671  0.7626 -0.7381  1.0275
  618MOL0     H83373   9.440   0.608   9.934 -1.2676  2.7172 -1.6329
  618MOL0     H83374   9.328   0.559   9.813  1.2026  1.2397 -0.7217
  618MOL0     H83375   9.479   0.329   9.830 -0.2352  0.8225  0.2928
  618MOL0     H83376   9.500   0.386   9.988  0.7695  0.9729 -0.3707
  618MOL0     H83377   9.237   0.325   9.849  0.3680 -1.4271 -0.0046
  618MOL0     H83378   9.236   0.403  10.012 -0.7407 -0.2623 -0.4001
  618MOL0     H83379   9.350   0.128   9.935  0.3139  0.6721 -0.5603
  618MOL0     H83380   9.343   0.198  10.099  1.3858 -2.1731 -0.1237
  618MOL0     H83381   9.129   0.016   9.835  1.3228  0.4193  0.0134
  618MOL0     H83382   8.904  -0.048   9.799 -1.7248  2.0165 -1.4556
  618MOL0     H83383   8.873  -0.136   9.956 -2.5248 -1.0622 -0.2846
  618MOL0     H83384   8.729   0.121   9.889 -2.0385  0.6329  1.9751
  618MOL0     H83385   8.682  -0.052   9.846  0.1591 -1.3469 -0.0745
  618MOL0     H83386   8.741   0.038  10.118  0.0604  1.5947 -0.2134
  618MOL0     H83387   8.634  -0.094  10.064 -0.3586 -1.0259 -2.0152
  618MOL0     H83388   8.574   0.210  10.050 -2.4131  0.4418  1.5548
  618MOL0     H83389   8.478   0.093  10.134  0.3029 -2.3314  0.6076
  618MOL0     H83390   8.377   0.320  10.053 -0.0102  0.1992  0.3786
  618MOL0     H83391   8.161   0.430   9.995 -2.3322  0.7635 -1.6719
  618MOL0     H83392   7.801   0.681   9.944  0.4230 -0.1398  0.9355
  618MOL0     H83393   7.586   0.726  10.009  3.9929  0.5185  4.9777
  618MOL0     H83394   7.270   0.629  10.187 -2.1137  1.7213 -0.8503
  618MOL0     H83395   7.430   0.695  10.170  1.2673 -1.5900 -0.8531
  618MOL0     H83396   7.280   0.852  10.100  4.2593  0.1421 -0.1593
  618MOL0     H83397   7.328   0.801   9.945 -3.9191  2.9903 -1.8509
  618MOL0     H83398   7.083   0.710  10.092  4.5769  2.9491  2.7066
  618MOL0     H83399   7.082   0.816   9.955  0.1724  0.7491  0.7261
  618MOL0     H83400   7.130   0.521   9.976  1.1945  0.8084 -0.1974
  618MOL0     H83401   7.188   0.596   9.832 -0.0795 -2.6609  0.7916
  618MOL0     H83402   6.906   0.606   9.944 -0.8921 -1.9362 -1.8216
  618MOL0     H83403   6.960   0.482   9.838  0.2389 -0.3604 -0.1507
  618MOL0     H83404   6.929   0.781   9.796  0.3283  0.4018 -0.3137
  618MOL0     H83405   7.020   0.699   9.681 -2.4392  4.7827 -1.1576
  618MOL0     H83406   6.847   0.553   9.629  2.1852  0.0989  1.9742
  618MOL0     H83407   6.772   0.725   9.629 -0.2726  0.6672 -0.3925
  618MOL0     H83408   6.737   0.531   9.841  0.5811 -0.6678 -1.5482
  618MOL0     H83409   6.660   0.689   9.840 -2.5480 -0.5457 -1.3814
  618MOL0     H83410   7.481   0.312  10.013 -1.3929  3.1852  1.9772
  618MOL0     H83411   7.720   0.255   9.934  0.2959 -0.1579 -1.9553
  618MOL0     H83412   8.056   0.104   9.738  3.1862 -2.9073 -0.4714
  618MOL0     H83413   8.275   0.013   9.755 -0.6055  0.9786 -2.1755
  618MOL0     H83414  10.168   0.743   9.688 -1.6369  0.0933 -0.8149
  618MOL0     H83415  10.356   0.870   9.817  0.8050  2.7002  1.0395
  618MOL0     H83416  10.366   1.268  10.136 -0.5531 -1.7276 -3.0407
  618MOL0     H83417  10.500   1.308  10.341  0.4931 -0.6110  0.6334
  618MOL0     H83418  10.798   1.089  10.547  0.0084  0.3184  0.4394
  618MOL0     H83419  10.661   1.034  10.454  0.5717  0.0300  0.6466
  618MOL0     H83420  10.582   1.128  10.658  0.7969 -1.2501 -1.0879
  618MOL0     H83421  10.527   1.251  10.539  0.7071  1.6233  1.2736
  618MOL0     H83422  10.702   1.404  10.592  0.6935  3.5064  3.8475
  618MOL0     H83423  10.797   1.288  10.674 -0.0731 -0.6706 -3.2211
  618MOL0     H83424  10.504   1.349  10.744  0.2545 -5.9018 -1.0065
  618MOL0     H83425  10.612   1.260  10.859  1.4628  1.8328  2.5046
  618MOL0     H83426  10.738   1.680  10.886  0.8436 -1.4589  0.1371
  618MOL0     H83427  10.833   1.123  10.155 -0.9874 -1.6667 -3.5292
  618MOL0     H83428  10.710   1.011   9.877  1.9414 -1.0017  0.1565
  618MOL0     H83429  10.702   1.179   9.834  2.2333  0.4037 -0.4253
  618MOL0     H83430  10.843   1.125   9.930 -0.7795 -0.2410  3.7964
  619MOL0     O83431   4.859   7.437   9.590  0.5686 -0.2316 -0.1568
  619MOL0     C83432   4.801   7.388   9.491  0.0290 -0.9706  0.1800
  619MOL0     O83433   4.851   7.382   9.362  0.7085  0.1903  0.2180
  619MOL0     C83434   4.968   7.444   9.339  0.1204 -0.2459 -0.0840
  619MOL0     C83435   4.974   7.583   9.342 -0.2542  0.8792 -1.7738
  619MOL0     C83436   5.078   7.652   9.274 -0.2945 -0.4729 -0.8492
  619MOL0     C83437   5.190   7.591   9.220 -0.3703 -0.6382  0.6058
  619MOL0     O83438   5.294   7.671   9.168 -0.8196  0.0359  0.0857
  619MOL0     C83439   5.380   7.627   9.068 -0.1911  0.5554 -0.3019
  619MOL0     C83440   5.303   7.643   8.936 -0.2815  1.0854  0.0841
  619MOL0     C83441   5.248   7.779   8.904  0.8793 -0.0172  0.2503
  619MOL0     C83442   5.334   7.910   8.910  0.1100  1.0084  0.6739
  619MOL0     C83443   5.245   8.030   8.927 -0.4940  0.2938 -0.3271
  619MOL0     C83444   5.332   8.156   8.953 -0.0101 -0.5244  0.7201
  619MOL0     C83445   5.242   8.277   8.973  0.0653 -0.6662  0.5015
  619MOL0     C83446   5.310   8.403   9.019 -0.6476 -0.3847 -0.5619
  619MOL0     N83447   5.231   8.523   9.048  0.3888  0.5612  0.3331
  619MOL0     C83448   5.140   8.568   8.958 -0.7407 -1.1289 -0.1476
  619MOL0     C83449   5.085   8.677   9.017  0.3927 -0.5042 -0.0173
  619MOL0     C83450   5.013   8.801   8.949 -0.1397  1.1769  0.8288
  619MOL0     C83451   5.071   8.822   8.813  0.5072  0.5665  0.6271
  619MOL0     C83452   5.225   8.850   8.811 -0.0574  0.0651  0.1131
  619MOL0     C83453   5.276   8.952   8.916 -0.8861  0.3201 -0.6061
  619MOL0     O83454   5.191   9.068   8.907 -0.6514  0.0152  0.0546
  619MOL0     C83455   5.224   9.191   8.964 -0.2197  0.2842  0.3884
  619MOL0     C83456   5.130   9.260   9.045 -0.3544 -0.1843 -0.1695
  619MOL0     C83457   5.157   9.384   9.107  0.0624 -0.5630  0.0617
  619MOL0     C83458   5.276   9.456   9.068  0.6718  0.4614 -0.3950
  619MOL0     C83459   5.297   9.588   9.115  0.1878  0.6197  0.0099
  619MOL0     O83460   5.185   9.661   9.143 -0.7516 -0.4278 -0.2894
  619MOL0     C83461   5.195   9.796   9.172  1.2321 -0.0870 -0.2548
  619MOL0     C83462   5.289   9.890   9.137  0.4052 -1.4886 -0.1660
  619MOL0     C83463   5.305  10.011   9.221 -0.5130  0.2794 -0.2339
  619MOL0     C83464   5.215  10.037   9.319 -0.1942  0.1810  0.9541
  619MOL0     O83465   5.219  10.146   9.402 -0.2198  0.8268  0.0154
  619MOL0     C83466   5.099  10.231   9.397 -0.8093  0.1299 -0.9224
  619MOL0     C83467   5.064  10.273   9.250 -0.1453  0.6077  0.2537
  619MOL0     C83468   5.146  10.387   9.202 -0.0439  0.3470  0.5737
  619MOL0     C83469   5.100  10.522   9.250  0.0696 -0.2515  0.5225
  619MOL0     C83470   5.209  10.622   9.183 -0.0822 -0.4914 -0.0053
  619MOL0     C83471   5.200  10.764   9.225 -0.0945 -0.5317 -0.0887
  619MOL0     C83472   5.297  10.840   9.133 -0.5950 -0.9123 -0.6688
  619MOL0     C83473   5.310  10.994   9.156 -0.2669  0.0016  0.6679
  619MOL0    Cl83474   5.161  11.074   9.088 -0.0290  0.2921  0.1065
  619MOL0     C83475   5.117   9.947   9.344 -0.3911 -0.4279  0.3868
  619MOL0     C83476   5.109   9.831   9.276 -0.2048 -0.7944  0.3980
  619MOL0     O83477   5.415   9.636   9.118  0.7410 -0.0425  0.0971
  619MOL0     C83478   5.366   9.380   8.997  0.4154 -0.9333 -0.6762
  619MOL0     C83479   5.347   9.253   8.941  0.6344 -0.2740  0.0331
  619MOL0     N83480   5.126   8.686   9.143 -0.4897 -0.0606 -0.0978
  619MOL0     N83481   5.208   8.585   9.165  0.5670 -0.5379 -0.7084
  619MOL0     C83482   5.178   7.454   9.204  0.2997 -0.1221 -0.0371
  619MOL0     C83483   5.068   7.380   9.261  0.7116 -0.3929 -0.2993
  619MOL0     C83484   4.665   7.334   9.501  0.5398  1.0075 -0.7509
  619MOL0     C83485   4.563   7.411   9.560 -0.0132 -0.5779 -0.5636
  619MOL0     C83486   4.433   7.360   9.577 -0.3485  0.8262 -0.6689
  619MOL0     C83487   4.405   7.232   9.542  0.4871  0.1331  0.2777
  619MOL0     O83488   4.280   7.170   9.552 -0.3218 -0.0510  0.2979
  619MOL0     C83489   4.264   7.033   9.555 -0.2158  0.0508  0.0921
  619MOL0     C83490   4.123   6.997   9.604  0.3022 -0.0875  0.0511
  619MOL0     C83491   4.053   6.919   9.501 -0.3555  0.0244 -0.5223
  619MOL0     C83492   3.930   6.842   9.547 -0.3684 -0.2011  0.7526
  619MOL0     C83493   3.966   6.732   9.642  0.5675 -0.6338  0.8732
  619MOL0     C83494   3.982   6.640   9.716 -0.2432 -0.5426  0.1125
  619MOL0     C83495   4.506   7.146   9.491 -0.3169  0.3398  0.8370
  619MOL0     C83496   4.628   7.199   9.460 -0.2320 -0.5042  0.6395
  619MOL0     C83497   4.731   7.111   9.381 -0.0950  0.6396 -0.0229
  619MOL0     H83498   4.909   7.637   9.410  1.7963  0.9848  0.2234
  619MOL0     H83499   5.088   7.760   9.277  5.1886 -0.7396  1.3428
  619MOL0     H83500   5.472   7.685   9.060 -0.4546  0.9527 -0.4951
  619MOL0     H83501   5.401   7.521   9.087 -4.3555 -0.6519 -1.2805
  619MOL0     H83502   5.226   7.566   8.928  0.3197  0.6904 -3.8481
  619MOL0     H83503   5.364   7.611   8.851 -1.2773 -1.3572  0.2238
  619MOL0     H83504   5.162   7.789   8.971  0.3168  2.9818 -0.7904
  619MOL0     H83505   5.210   7.755   8.804 -2.2285 -2.8505  1.9115
  619MOL0     H83506   5.424   7.902   8.971  3.5232  2.7218 -3.5763
  619MOL0     H83507   5.368   7.913   8.806 -2.6544 -4.1245 -0.7553
  619MOL0     H83508   5.183   8.036   8.837 -0.9384  0.9432  0.0136
  619MOL0     H83509   5.178   8.020   9.012  0.0661  1.5006  0.2791
  619MOL0     H83510   5.383   8.151   9.050 -2.6729  5.5287  2.9329
  619MOL0     H83511   5.402   8.170   8.870 -2.2018 -0.0966 -1.1381
  619MOL0     H83512   5.170   8.249   9.049  1.3422 -0.8731  1.6801
  619MOL0     H83513   5.212   8.312   8.874  1.5057  2.7545  1.1177
  619MOL0     H83514   5.354   8.377   9.116  0.8271 -0.1563 -1.1439
  619MOL0     H83515   5.390   8.442   8.956 -1.0800  2.2471  0.3905
  619MOL0     H83516   5.130   8.538   8.854  0.2992 -0.2866 -0.5015
  619MOL0     H83517   4.908   8.771   8.953  0.3682 -1.1231 -0.8781
  619MOL0     H83518   5.016   8.896   9.002 -1.4916  1.4862  0.3972
  619MOL0     H83519   5.054   8.731   8.755 -0.7136 -0.5326  2.5933
  619MOL0     H83520   5.003   8.904   8.788 -0.9310  0.3135  3.3439
  619MOL0     H83521   5.241   8.906   8.718 -1.9404  0.2908 -0.0996
  619MOL0     H83522   5.281   8.756   8.804 -1.1603 -0.6105  0.1897
  619MOL0     H83523   5.381   8.971   8.895 -0.6579 -0.7677 -0.5067
  619MOL0     H83524   5.257   8.921   9.019 -3.9554  1.4739 -0.7208
  619MOL0     H83525   5.033   9.211   9.051 -1.3041  1.1055 -3.1554
  619MOL0     H83526   5.074   9.429   9.161 -0.5779  0.4056 -1.6303
  619MOL0     H83527   5.363   9.880   9.058 -2.2602  5.0834 -4.3663
  619MOL0     H83528   5.386  10.082   9.216  1.8613 -2.2558 -0.0642
  619MOL0     H83529   5.013  10.194   9.452 -1.6238  1.2521 -1.4061
  619MOL0     H83530   5.132  10.314   9.461 -1.3005 -0.7272  0.4977
  619MOL0     H83531   5.081  10.180   9.196 -0.4622 -0.5594  2.0897
  619MOL0     H83532   4.960  10.307   9.240 -0.0112  0.4442 -2.4560
  619MOL0     H83533   5.252  10.380   9.226 -0.1161  4.7659  3.0988
  619MOL0     H83534   5.129  10.378   9.094 -0.0735 -0.8132  0.6655
  619MOL0     H83535   5.095  10.527   9.359 -1.2685  1.3170  0.4274
  619MOL0     H83536   4.997  10.539   9.216 -0.5304 -3.7077  0.2759
  619MOL0     H83537   5.189  10.615   9.076  2.5898 -0.8005 -0.5578
  619MOL0     H83538   5.309  10.582   9.201  0.2140 -0.2482 -1.0573
  619MOL0     H83539   5.101  10.795   9.190 -0.4486 -1.8098 -0.2603
  619MOL0     H83540   5.206  10.778   9.333  0.0805 -2.7427  0.2298
  619MOL0     H83541   5.275  10.826   9.027 -1.5985  0.8669 -0.7258
  619MOL0     H83542   5.393  10.800   9.168 -1.9833 -1.5339  2.8683
  619MOL0     H83543   5.320  11.023   9.261 -0.1905 -0.9720  0.9437
  619MOL0     H83544   5.393  11.026   9.092 -0.6585 -0.4630 -0.0752
  619MOL0     H83545   5.050   9.976   9.424  0.8369 -0.5483  1.4970
  619MOL0     H83546   5.038   9.761   9.319 -0.0486  0.6341  3.2232
  619MOL0     H83547   5.456   9.436   8.974 -0.7329  1.5761  0.6529
  619MOL0     H83548   5.421   9.216   8.870  1.3900  1.5792 -0.1890
  619MOL0     H83549   5.263   7.396   9.167  0.8235 -1.5766  3.0965
  619MOL0     H83550   5.061   7.274   9.238 -1.9129 -0.3196 -0.1522
  619MOL0     H83551   4.572   7.513   9.594  0.2629 -0.7372 -0.1407
  619MOL0     H83552   4.349   7.421   9.608  1.3675  2.6227  0.7259
  619MOL0     H83553   4.340   6.984   9.617  0.0925  0.0706 -0.2650
  619MOL0     H83554   4.279   6.998   9.453 -0.4251 -0.2047  0.1474
  619MOL0     H83555   4.055   7.082   9.592 -3.2039 -2.3233  2.3812
  619MOL0     H83556   4.108   6.970   9.709 -2.5278 -0.9205 -0.5000
  619MOL0     H83557   4.128   6.850   9.461  0.4707 -0.7737  2.1767
  619MOL0     H83558   4.031   6.984   9.416  0.6328  0.1564 -0.6819
  619MOL0     H83559   3.846   6.902   9.584 -0.0963  1.0887 -0.6625
  619MOL0     H83560   3.887   6.804   9.454 -4.4346  2.5884  1.2096
  619MOL0     H83561   4.000   6.568   9.794  0.7903  0.0292  0.4194
  619MOL0     H83562   4.483   7.046   9.456 -1.2687  0.6127  0.6828
  619MOL0     H83563   4.831   7.127   9.423 -0.1091 -0.3177  0.4130
  619MOL0     H83564   4.707   7.004   9.384 -0.3461  0.6679 -0.9154
  619MOL0     H83565   4.742   7.140   9.277  1.8663  1.8111  0.4519
  620MOL0     O83566   4.230   9.595   7.939  0.2616  0.1203  0.2481
  620MOL0     C83567   4.222   9.576   8.058 -0.0638 -1.0775  0.3245
  620MOL0     O83568   4.213   9.455   8.117 -0.1533  0.7399  0.2069
  620MOL0     C83569   4.196   9.342   8.040 -0.1374 -0.5343 -0.5984
  620MOL0     C83570   4.065   9.303   8.011  0.4181  0.1738 -0.9586
  620MOL0     C83571   4.043   9.188   7.939 -0.8452  0.1803  0.2916
  620MOL0     C83572   4.153   9.100   7.912 -0.4894 -0.1571  0.4675
  620MOL0     O83573   4.145   8.975   7.856 -0.1588 -0.3223  0.1427
  620MOL0     C83574   4.026   8.903   7.834 -0.0880 -0.4083  0.0113
  620MOL0     C83575   3.966   8.942   7.693 -0.7523 -0.7937  0.8321
  620MOL0     C83576   4.047   8.886   7.577 -0.2858 -0.6265 -0.3671
  620MOL0     C83577   3.980   8.915   7.442 -0.0726 -1.0286  0.3629
  620MOL0     C83578   4.079   8.894   7.331 -0.4664  0.0364  0.8074
  620MOL0     C83579   4.013   8.919   7.195 -0.0442 -0.1146 -0.0657
  620MOL0     C83580   4.094   8.879   7.063 -0.1040  0.7315 -0.5348
  620MOL0     C83581   4.180   8.996   7.005 -0.5953  0.3419 -0.5874
  620MOL0     N83582   4.295   9.034   7.092 -0.0033  0.1323  0.5743
  620MOL0     C83583   4.323   9.145   7.163 -0.7426 -0.7727 -0.9611
  620MOL0     C83584   4.450   9.129   7.222 -0.1485  0.9546  0.1249
  620MOL0     C83585   4.521   9.218   7.318  0.6375  0.1374  0.6353
  620MOL0     C83586   4.630   9.308   7.243  0.8077 -0.2473 -0.1365
  620MOL0     C83587   4.673   9.443   7.313  0.1976  0.1320 -0.4620
  620MOL0     C83588   4.570   9.544   7.318  0.7979 -0.1340 -1.1424
  620MOL0     O83589   4.523   9.568   7.187 -0.7657 -0.3040  0.6913
  620MOL0     C83590   4.451   9.678   7.165  0.8913  0.2274  0.1052
  620MOL0     C83591   4.458   9.736   7.038 -0.5408 -0.6555 -0.2721
  620MOL0     C83592   4.378   9.840   7.013  0.1989 -0.5119 -0.6058
  620MOL0     C83593   4.276   9.888   7.100 -0.1829  0.0118  0.3934
  620MOL0     C83594   4.187   9.997   7.064  0.7566 -0.1353  0.3047
  620MOL0     O83595   4.119  10.055   7.168 -0.4943  0.3265  0.5986
  620MOL0     C83596   4.053  10.172   7.134 -0.2630 -0.4695  0.3346
  620MOL0     C83597   3.918  10.162   7.093 -0.4462 -0.0238  0.2906
  620MOL0     C83598   3.844  10.273   7.070 -0.1103 -0.2148 -0.5926
  620MOL0     C83599   3.899  10.406   7.087  0.3371  0.5389  0.9422
  620MOL0     O83600   3.839  10.522   7.034  0.8608  0.4035  0.6107
  620MOL0     C83601   3.730  10.508   6.945 -0.5309 -0.0382 -0.3638
  620MOL0     C83602   3.704  10.652   6.896 -1.1923 -0.1678  0.3954
  620MOL0     C83603   3.639  10.743   7.006 -0.2182 -0.4733 -0.3411
  620MOL0     C83604   3.483  10.714   7.023  0.3552 -0.7009 -0.0667
  620MOL0     C83605   3.419  10.816   7.123  0.1883 -0.5423 -0.0549
  620MOL0     C83606   3.273  10.815   7.108  0.9976  0.5063  0.1327
  620MOL0     C83607   3.204  10.679   7.135 -0.3293  0.8053 -0.4475
  620MOL0     C83608   3.055  10.701   7.143 -0.0087 -0.0608 -0.4448
  620MOL0    Cl83609   3.003  10.787   7.290  0.2730 -0.1559  0.3266
  620MOL0     C83610   4.031  10.415   7.138 -0.1897  0.6519  0.8605
  620MOL0     C83611   4.099  10.297   7.174  0.3081 -0.0386  0.4215
  620MOL0     O83612   4.199  10.047   6.951 -0.1229 -0.3035 -0.5931
  620MOL0     C83613   4.265   9.828   7.231 -0.5387 -0.1217  0.0619
  620MOL0     C83614   4.353   9.721   7.257 -0.3107 -0.0810 -1.3480
  620MOL0     N83615   4.491   9.001   7.183  0.5747 -0.7012  0.7577
  620MOL0     N83616   4.403   8.953   7.101 -0.6832 -0.2965  0.6627
  620MOL0     C83617   4.278   9.143   7.946 -0.1148 -0.5607 -0.5251
  620MOL0     C83618   4.302   9.266   8.006 -0.2573  0.5611  0.0701
  620MOL0     C83619   4.247   9.685   8.152  0.9870  0.7070  0.0810
  620MOL0     C83620   4.280   9.657   8.288 -0.0406  0.4277 -0.3666
  620MOL0     C83621   4.287   9.759   8.382  0.6361 -1.3921 -0.0168
  620MOL0     C83622   4.274   9.902   8.343  0.6884  0.7794  0.7319
  620MOL0     O83623   4.269  10.011   8.422 -0.2075  0.0227 -0.2209
  620MOL0     C83624   4.269   9.995   8.564 -0.1957  0.6231 -0.0361
  620MOL0     C83625   4.304  10.135   8.626 -0.5812 -0.7666 -0.4935
  620MOL0     C83626   4.198  10.244   8.573 -1.2297  0.3499 -0.2234
  620MOL0     C83627   4.178  10.367   8.659  0.0018 -0.4328  0.5104
  620MOL0     C83628   4.131  10.337   8.793  0.2901  0.5227 -0.1368
  620MOL0     C83629   4.095  10.346   8.906 -0.7909  0.5630  0.1683
  620MOL0     C83630   4.276   9.924   8.206  0.4950  0.0885  0.0666
  620MOL0     C83631   4.259   9.823   8.115  0.5823  1.0387 -0.3143
  620MOL0     C83632   4.254   9.885   7.978 -0.2673  0.8805  0.1732
  620MOL0     H83633   3.985   9.364   8.052 -0.1144 -1.7600  1.1086
  620MOL0     H83634   3.943   9.168   7.903 -0.6557  0.9351 -0.7042
  620MOL0     H83635   4.042   8.796   7.848  3.5803  0.0819  0.4830
  620MOL0     H83636   3.953   8.924   7.913 -0.7493  4.8710 -1.6000
  620MOL0     H83637   3.948   9.049   7.679 -4.1541 -0.9919  2.4948
  620MOL0     H83638   3.863   8.905   7.692 -1.1180  0.1695  1.5439
  620MOL0     H83639   4.062   8.780   7.599  0.7721 -0.7952 -1.8046
  620MOL0     H83640   4.147   8.928   7.585  0.1087 -1.7413  0.9322
  620MOL0     H83641   3.890   8.853   7.438 -0.9676  0.1538  1.2765
  620MOL0     H83642   3.953   9.021   7.437 -0.8314 -1.1796  1.0269
  620MOL0     H83643   4.164   8.963   7.341  1.4162 -1.9852 -0.3025
  620MOL0     H83644   4.128   8.797   7.321  0.0835  0.4933 -1.5181
  620MOL0     H83645   3.911   8.878   7.198  0.9100 -2.5693  1.6510
  620MOL0     H83646   3.994   9.027   7.193  0.3517  0.0004  1.4534
  620MOL0     H83647   4.030   8.839   6.984 -0.3918  0.0140  0.0575
  620MOL0     H83648   4.165   8.801   7.092  0.5905  1.2662 -0.7636
  620MOL0     H83649   4.220   8.956   6.911  0.6385 -0.8441  0.4243
  620MOL0     H83650   4.114   9.084   6.998 -0.0623  0.6603 -2.3085
  620MOL0     H83651   4.264   9.236   7.169 -0.5074 -0.4793 -2.4997
  620MOL0     H83652   4.450   9.278   7.376 -0.4216 -1.0338  0.6153
  620MOL0     H83653   4.573   9.159   7.395  1.1576 -0.7308 -0.3552
  620MOL0     H83654   4.721   9.249   7.228  2.2252  0.7130  3.6452
  620MOL0     H83655   4.598   9.340   7.144  2.7406  1.6096 -0.2385
  620MOL0     H83656   4.758   9.490   7.263 -0.5298  4.5534  1.9192
  620MOL0     H83657   4.711   9.419   7.413  1.1991  4.7921  0.4942
  620MOL0     H83658   4.612   9.632   7.367 -0.5318 -0.9447  1.6443
  620MOL0     H83659   4.488   9.501   7.377 -0.5192  0.7437 -2.2668
  620MOL0     H83660   4.543   9.718   6.973 -2.5528 -1.4587 -2.8503
  620MOL0     H83661   4.387   9.883   6.913 -3.1962  0.5842 -0.5636
  620MOL0     H83662   3.873  10.064   7.081 -2.5849  0.6797  1.8895
  620MOL0     H83663   3.741  10.269   7.035 -0.5278  2.1943  0.1108
  620MOL0     H83664   3.744  10.439   6.862  1.2663 -2.5761  1.8577
  620MOL0     H83665   3.649  10.462   7.002 -0.0351  0.4065  0.7266
  620MOL0     H83666   3.792  10.710   6.868 -2.7121  2.3934  0.6050
  620MOL0     H83667   3.646  10.641   6.804 -0.3986 -1.4242  0.0217
  620MOL0     H83668   3.691  10.735   7.101 -1.4778  2.2085  0.6781
  620MOL0     H83669   3.652  10.844   6.964  2.5932 -0.7895 -0.4650
  620MOL0     H83670   3.479  10.616   7.071  3.6215 -1.9741 -2.0442
  620MOL0     H83671   3.434  10.710   6.925 -2.4286  2.1273  1.0423
  620MOL0     H83672   3.453  10.920   7.114  0.1045 -0.6686 -2.4501
  620MOL0     H83673   3.450  10.790   7.224  1.2895  1.1020  0.0679
  620MOL0     H83674   3.244  10.891   7.181  0.0977 -1.3991  1.8641
  620MOL0     H83675   3.262  10.856   7.007  2.5467 -1.0008 -0.6929
  620MOL0     H83676   3.239  10.636   7.229 -1.3751  0.7732 -0.0588
  620MOL0     H83677   3.224  10.611   7.051  0.1707  2.6890 -1.9369
  620MOL0     H83678   3.024  10.750   7.051  0.4721 -0.6026 -0.8985
  620MOL0     H83679   3.001  10.607   7.126  1.4427 -0.9373 -0.3462
  620MOL0     H83680   4.077  10.513   7.147 -2.1835  2.0237 -2.0848
  620MOL0     H83681   4.201  10.310   7.211  0.3868  1.5921 -0.2857
  620MOL0     H83682   4.187   9.863   7.298  0.2115 -1.9633  2.0215
  620MOL0     H83683   4.348   9.675   7.355  1.7029  2.5621  0.1307
  620MOL0     H83684   4.359   9.073   7.928 -1.2549 -2.0712  0.0334
  620MOL0     H83685   4.404   9.301   8.023 -1.0875  1.9712  2.6261
  620MOL0     H83686   4.304   9.555   8.317 -2.2273 -1.1437 -3.4890
  620MOL0     H83687   4.306   9.725   8.483 -3.5066 -2.7602  0.4631
  620MOL0     H83688   4.344   9.921   8.592  1.0339  1.8746  0.0679
  620MOL0     H83689   4.172   9.960   8.601  0.7061 -0.2286  1.6357
  620MOL0     H83690   4.406  10.160   8.593  0.4986 -1.6201  1.9271
  620MOL0     H83691   4.293  10.129   8.735 -1.1785 -2.1861 -0.6131
  620MOL0     H83692   4.110  10.180   8.564 -0.4128 -0.7341 -0.7513
  620MOL0     H83693   4.220  10.283   8.473  1.6976  0.5108  0.3857
  620MOL0     H83694   4.270  10.426   8.660  0.5576 -1.1396 -1.9908
  620MOL0     H83695   4.106  10.435   8.613  1.1488  3.6825  4.1133
  620MOL0     H83696   4.059  10.360   9.006  0.0430 -0.2292  0.5893
  620MOL0     H83697   4.262  10.029   8.185 -1.0140  0.1693  1.2807
  620MOL0     H83698   4.335   9.836   7.922 -0.5431 -0.0835  0.5936
  620MOL0     H83699   4.159   9.849   7.936 -1.5990 -1.2657  4.4775
  620MOL0     H83700   4.276   9.992   7.972  2.7423  0.4882  2.1465
  621MOL0     O83701   9.076   2.410   0.576 -0.1976 -0.4377 -0.0425
  621MOL0     C83702   9.127   2.508   0.521  0.5125  0.1642  0.3620
  621MOL0     O83703   9.069   2.636   0.520  0.7354  0.0919 -0.6604
  621MOL0     C83704   8.978   2.685   0.618  0.5446 -0.4509 -0.6995
  621MOL0     C83705   8.918   2.803   0.588 -0.4613 -1.0200 -0.2775
  621MOL0     C83706   8.829   2.869   0.677  0.0867 -0.2711  0.6587
  621MOL0     C83707   8.789   2.813   0.799 -0.7421 -0.4824  0.4918
  621MOL0     O83708   8.719   2.889   0.883  0.4635 -0.5402 -0.0999
  621MOL0     C83709   8.641   2.825   0.980  0.9307 -0.0053 -0.9810
  621MOL0     C83710   8.557   2.928   1.054 -0.0441 -0.5903  0.0605
  621MOL0     C83711   8.457   2.870   1.153 -0.4425  0.5123 -0.5485
  621MOL0     C83712   8.527   2.769   1.258 -0.2504 -0.1101  0.5849
  621MOL0     C83713   8.493   2.816   1.393 -0.8669  0.1658 -0.8625
  621MOL0     C83714   8.518   2.716   1.504  0.6857  0.7367  0.6625
  621MOL0     C83715   8.645   2.644   1.508  0.8305  0.1316 -0.2266
  621MOL0     C83716   8.647   2.560   1.625 -0.4398  0.5184 -0.6027
  621MOL0     N83717   8.753   2.465   1.623 -0.4672  0.5816  0.1344
  621MOL0     C83718   8.885   2.509   1.630 -0.4796 -0.2896  0.4074
  621MOL0     C83719   8.954   2.398   1.592 -0.6392 -0.6132  0.3561
  621MOL0     C83720   9.104   2.369   1.578 -0.0742  0.6483 -0.9013
  621MOL0     C83721   9.157   2.397   1.446  0.1485  0.0538  0.1811
  621MOL0     C83722   9.303   2.421   1.420 -0.9894 -0.3610 -0.5944
  621MOL0     C83723   9.348   2.562   1.464 -0.4771  1.2408  0.3600
  621MOL0     O83724   9.439   2.612   1.366 -0.1285 -0.0474 -0.8594
  621MOL0     C83725   9.477   2.741   1.391 -0.8283  0.1508  0.6801
  621MOL0     C83726   9.431   2.823   1.491 -0.0715  0.2706  0.0459
  621MOL0     C83727   9.453   2.963   1.489 -0.1073  0.1659 -0.0703
  621MOL0     C83728   9.510   3.024   1.385 -0.1909 -0.7592 -0.0825
  621MOL0     C83729   9.525   3.163   1.393  0.5251  0.6161  0.4088
  621MOL0     O83730   9.444   3.233   1.478  0.2864 -0.1860 -0.9987
  621MOL0     C83731   9.447   3.369   1.490 -0.0865  0.4108  0.0889
  621MOL0     C83732   9.574   3.443   1.517  0.4814 -0.2412  0.4199
  621MOL0     C83733   9.574   3.568   1.571 -0.6988  0.3189 -0.4738
  621MOL0     C83734   9.449   3.634   1.593 -0.4530  0.0153 -0.4294
  621MOL0     O83735   9.463   3.759   1.644  0.6662 -0.3851 -0.3994
  621MOL0     C83736   9.350   3.831   1.701  0.4506  1.4798 -0.0471
  621MOL0     C83737   9.386   3.927   1.812 -0.3250 -0.0566 -0.7361
  621MOL0     C83738   9.458   3.857   1.937  0.3077 -0.5904  0.8804
  621MOL0     C83739   9.497   3.966   2.040  0.6708 -0.1262 -0.0335
  621MOL0     C83740   9.586   3.894   2.150 -0.2027 -0.3144 -0.4023
  621MOL0     C83741   9.647   4.006   2.235 -0.2124 -0.1127  0.8999
  621MOL0     C83742   9.773   3.959   2.307  0.1819  0.2812  0.9568
  621MOL0     C83743   9.756   3.850   2.419  0.2823  0.0064  0.2248
  621MOL0    Cl83744   9.646   3.925   2.547 -0.0482  0.3900 -0.0794
  621MOL0     C83745   9.334   3.577   1.560  0.9018  0.3859  0.1637
  621MOL0     C83746   9.326   3.446   1.505  0.5966 -0.0390 -0.0188
  621MOL0     O83747   9.607   3.223   1.321  0.1709  0.1277  0.4417
  621MOL0     C83748   9.557   2.947   1.283  0.5419  0.7037  0.1947
  621MOL0     C83749   9.551   2.804   1.286 -0.5856 -0.0858  0.1239
  621MOL0     N83750   8.868   2.299   1.572 -0.0487  0.0217 -0.0102
  621MOL0     N83751   8.748   2.343   1.582 -0.0315 -0.5410 -0.6441
  621MOL0     C83752   8.840   2.683   0.823 -0.0527  0.3795  0.1085
  621MOL0     C83753   8.937   2.619   0.736  0.2208  0.6629 -0.1059
  621MOL0     C83754   9.246   2.495   0.441 -0.1872 -0.1341  0.4409
  621MOL0     C83755   9.364   2.537   0.496 -0.3253 -0.4011  0.2634
  621MOL0     C83756   9.482   2.533   0.424  0.9449  0.1201  0.3801
  621MOL0     C83757   9.479   2.482   0.290 -0.1264  0.6547 -0.7955
  621MOL0     O83758   9.586   2.485   0.204  0.1774  0.5090 -0.0735
  621MOL0     C83759   9.714   2.462   0.267  0.3781  0.1018  0.0989
  621MOL0     C83760   9.800   2.385   0.160 -0.5196  0.1861 -0.3258
  621MOL0     C83761   9.957   2.368   0.173 -0.3047  0.3088  0.6875
  621MOL0     C83762  10.006   2.310   0.038 -0.4075  0.3524  0.2441
  621MOL0     C83763  10.034   2.171   0.052 -0.2180 -0.0919 -0.6397
  621MOL0     C83764  10.076   2.055   0.062 -0.1477 -0.1269  0.5258
  621MOL0     C83765   9.353   2.464   0.230 -0.5581 -0.2259  0.3601
  621MOL0     C83766   9.233   2.465   0.305  0.2261  0.0957  1.1927
  621MOL0     C83767   9.093   2.460   0.251 -0.8771  0.1257  0.4792
  621MOL0     H83768   8.949   2.855   0.498  1.8132 -2.0614 -0.1724
  621MOL0     H83769   8.786   2.969   0.671  0.5959 -0.0646  0.3876
  621MOL0     H83770   8.571   2.757   0.930 -0.6641  3.7554 -4.5149
  621MOL0     H83771   8.710   2.772   1.046  1.6327  1.6196 -0.3547
  621MOL0     H83772   8.500   2.987   0.982  2.7918  1.5224 -0.6225
  621MOL0     H83773   8.614   3.002   1.111 -1.5490  3.5031 -3.2029
  621MOL0     H83774   8.372   2.815   1.111 -0.8157  0.9008 -0.3086
  621MOL0     H83775   8.405   2.948   1.210  1.7790 -0.1364  2.6323
  621MOL0     H83776   8.479   2.672   1.246 -1.4387 -0.1136  4.1087
  621MOL0     H83777   8.636   2.764   1.252 -0.0348  2.7832  0.4924
  621MOL0     H83778   8.570   2.889   1.421  1.0999 -1.9888 -0.3387
  621MOL0     H83779   8.391   2.855   1.401  0.1236  2.6779  0.8851
  621MOL0     H83780   8.505   2.764   1.601  1.5353 -1.4421  1.9285
  621MOL0     H83781   8.440   2.639   1.504  2.1762 -0.8460 -0.0823
  621MOL0     H83782   8.730   2.713   1.512  0.8850  0.1450 -1.1971
  621MOL0     H83783   8.644   2.582   1.418 -0.2473  1.3141 -1.0636
  621MOL0     H83784   8.647   2.617   1.719 -2.7241 -2.1828  1.1677
  621MOL0     H83785   8.557   2.500   1.632  0.7357 -1.2994 -0.3905
  621MOL0     H83786   8.936   2.600   1.658 -0.7292 -0.0634  0.1294
  621MOL0     H83787   9.153   2.433   1.653 -0.8108  1.0592 -0.7644
  621MOL0     H83788   9.128   2.267   1.609 -2.0827 -0.2432 -2.1193
  621MOL0     H83789   9.130   2.305   1.393 -0.4644  1.1543 -1.5097
  621MOL0     H83790   9.106   2.485   1.404 -0.3457 -0.2488  0.1411
  621MOL0     H83791   9.314   2.423   1.311 -1.4938 -2.0108 -0.7089
  621MOL0     H83792   9.374   2.346   1.456 -1.0796 -0.6267 -0.9600
  621MOL0     H83793   9.410   2.540   1.551  1.2587 -0.0237 -1.1318
  621MOL0     H83794   9.254   2.618   1.475 -0.9685  0.7681 -1.2498
  621MOL0     H83795   9.372   2.787   1.574  0.7259  0.9659  0.9404
  621MOL0     H83796   9.426   3.018   1.578 -0.2290 -1.4405  0.9271
  621MOL0     H83797   9.670   3.401   1.491 -1.3435 -3.2602 -2.1888
  621MOL0     H83798   9.664   3.627   1.580  1.7656 -3.0854 -1.0091
  621MOL0     H83799   9.294   3.878   1.619  0.9670  1.3593 -0.4777
  621MOL0     H83800   9.283   3.759   1.749  0.4405  0.6075 -1.3198
  621MOL0     H83801   9.459   3.994   1.763 -0.2888  1.1157  0.8475
  621MOL0     H83802   9.293   3.975   1.844 -1.7135 -2.7268 -0.5070
  621MOL0     H83803   9.386   3.788   1.981  2.0526 -2.4491  0.9261
  621MOL0     H83804   9.534   3.786   1.902 -1.1867 -0.7591 -2.4569
  621MOL0     H83805   9.403   3.991   2.090  0.9587  1.9921 -0.4461
  621MOL0     H83806   9.535   4.055   1.989  1.0070 -0.3120 -0.1096
  621MOL0     H83807   9.668   3.835   2.108 -1.0361 -0.9506 -1.1640
  621MOL0     H83808   9.527   3.823   2.209 -0.1745  0.6778  0.8643
  621MOL0     H83809   9.687   4.084   2.170 -3.4053  3.0373  2.3602
  621MOL0     H83810   9.569   4.043   2.303 -0.8775 -2.6121  1.6231
  621MOL0     H83811   9.820   4.039   2.365  0.3949  1.4338 -0.7267
  621MOL0     H83812   9.842   3.919   2.233  1.0798  2.0350  0.8005
  621MOL0     H83813   9.701   3.760   2.390  0.5526  0.7712 -2.9564
  621MOL0     H83814   9.854   3.827   2.461  0.2111  0.5601  0.7071
  621MOL0     H83815   9.243   3.637   1.564 -1.7235 -3.3134  2.1940
  621MOL0     H83816   9.232   3.399   1.479  1.6001 -0.0079 -4.4847
  621MOL0     H83817   9.600   2.994   1.195 -0.1472  1.7097  0.3828
  621MOL0     H83818   9.586   2.743   1.204 -0.3977  0.8205 -0.4849
  621MOL0     H83819   8.802   2.626   0.908  2.0722 -3.2626 -1.1860
  621MOL0     H83820   8.980   2.520   0.745  4.1334  2.2252  0.2296
  621MOL0     H83821   9.349   2.572   0.597 -2.9367 -0.1922 -0.1203
  621MOL0     H83822   9.577   2.566   0.464  1.1039 -0.5032  0.5284
  621MOL0     H83823   9.705   2.403   0.359 -2.7943  0.5906  0.2019
  621MOL0     H83824   9.748   2.562   0.294  3.9362 -0.2857 -2.3754
  621MOL0     H83825   9.772   2.436   0.067 -0.9364 -1.0803 -0.9196
  621MOL0     H83826   9.747   2.290   0.165 -2.8290  1.3231 -1.4964
  621MOL0     H83827   9.973   2.302   0.258 -1.4018 -1.4734 -0.4165
  621MOL0     H83828   9.996   2.469   0.188 -1.7398  0.9041  0.5814
  621MOL0     H83829   9.927   2.329  -0.036 -0.8569 -0.1776  0.5856
  621MOL0     H83830  10.103   2.354   0.012 -0.0425 -0.1749  0.7023
  621MOL0     H83831  10.116   1.957   0.078 -0.3377 -0.7945 -2.5357
  621MOL0     H83832   9.356   2.444   0.123 -0.8133  1.8262 -0.0641
  621MOL0     H83833   9.031   2.400   0.318  1.5716 -0.6967  2.1412
  621MOL0     H83834   9.050   2.561   0.250 -1.6497 -0.1968 -0.4438
  621MOL0     H83835   9.101   2.405   0.157  6.5962 -1.8490  1.6262
  622MOL0     O83836   2.574   7.978   4.604  0.3297  0.2492 -0.7838
  622MOL0     C83837   2.527   7.864   4.595 -0.9329 -0.7236  0.2353
  622MOL0     O83838   2.403   7.829   4.630 -0.4419 -0.2378 -0.5078
  622MOL0     C83839   2.313   7.922   4.669  0.3999 -0.2151 -0.5779
  622MOL0     C83840   2.233   7.976   4.570 -0.3017 -1.0544  0.2367
  622MOL0     C83841   2.143   8.083   4.607 -0.4067  0.7768 -0.1008
  622MOL0     C83842   2.124   8.120   4.738 -0.9277 -0.2642 -0.8443
  622MOL0     O83843   2.039   8.214   4.785  0.9448  0.0203 -0.2319
  622MOL0     C83844   1.971   8.313   4.704 -0.1818 -0.2538 -0.2301
  622MOL0     C83845   2.081   8.428   4.695  0.1238  0.1961  0.3415
  622MOL0     C83846   2.164   8.424   4.566 -0.0556  0.7193 -0.0255
  622MOL0     C83847   2.236   8.550   4.551 -0.6708 -0.1935  0.7112
  622MOL0     C83848   2.291   8.575   4.413 -0.6823 -0.4572  0.6128
  622MOL0     C83849   2.384   8.699   4.418 -0.0517 -0.7386  0.9990
  622MOL0     C83850   2.475   8.696   4.296  0.5489 -0.0995  0.0604
  622MOL0     C83851   2.560   8.824   4.298 -0.4492  0.0844 -0.1474
  622MOL0     N83852   2.634   8.841   4.166  0.4165 -0.0727 -0.7644
  622MOL0     C83853   2.746   8.777   4.127 -0.5283 -0.2442  0.0950
  622MOL0     C83854   2.775   8.809   3.996  0.7262  0.6161  0.4621
  622MOL0     C83855   2.879   8.761   3.900  0.3609 -0.0082  0.4311
  622MOL0     C83856   2.917   8.617   3.921 -0.1499 -0.8125  0.2844
  622MOL0     C83857   3.041   8.575   3.848  0.0744 -0.0412  0.4136
  622MOL0     C83858   3.163   8.650   3.898  0.6507  1.0312  0.9654
  622MOL0     O83859   3.273   8.605   3.819 -0.6168  0.1022 -0.0663
  622MOL0     C83860   3.388   8.647   3.883 -0.0756  0.2196  0.4315
  622MOL0     C83861   3.420   8.774   3.927  0.0105 -0.0563 -0.0861
  622MOL0     C83862   3.548   8.800   3.969 -0.3205  0.2793  0.1393
  622MOL0     C83863   3.651   8.704   3.967 -0.3988 -0.9641 -0.0682
  622MOL0     C83864   3.788   8.734   4.020 -1.4896  0.4597 -1.4002
  622MOL0     O83865   3.791   8.851   4.090  0.2490 -0.1771 -0.3835
  622MOL0     C83866   3.911   8.916   4.141  0.6416  0.6356  0.9441
  622MOL0     C83867   3.904   9.053   4.158  0.6859 -0.0425  0.5502
  622MOL0     C83868   4.004   9.122   4.214 -0.4731  0.0030  0.5116
  622MOL0     C83869   4.132   9.053   4.226  0.0973 -0.4051  0.4902
  622MOL0     O83870   4.238   9.127   4.266  0.1980  0.2660 -0.1567
  622MOL0     C83871   4.352   9.104   4.188 -0.2454 -0.4054  0.3898
  622MOL0     C83872   4.378   9.236   4.101  0.2690 -0.7944  0.3743
  622MOL0     C83873   4.486   9.199   3.995 -0.2774  0.5632 -0.8660
  622MOL0     C83874   4.540   9.328   3.914 -0.2839  0.5859 -0.1138
  622MOL0     C83875   4.622   9.297   3.787  0.6694 -1.3395 -0.1175
  622MOL0     C83876   4.525   9.258   3.670  0.7445  0.1085 -0.0001
  622MOL0     C83877   4.584   9.292   3.534  0.8218  0.7278 -0.7187
  622MOL0     C83878   4.519   9.211   3.430  0.3106 -0.8743  0.5150
  622MOL0    Cl83879   4.343   9.246   3.407  0.2696 -0.0483 -0.2747
  622MOL0     C83880   4.146   8.917   4.210  1.0743 -0.2516  0.3816
  622MOL0     C83881   4.025   8.847   4.173 -0.1552 -0.5994 -0.0928
  622MOL0     O83882   3.891   8.667   3.986 -0.1495  0.3421  0.1639
  622MOL0     C83883   3.621   8.567   3.917 -0.5349  0.0815 -0.4542
  622MOL0     C83884   3.490   8.550   3.879  0.8016  0.0379  0.0583
  622MOL0     N83885   2.686   8.907   3.966  0.2680 -0.0903 -0.7416
  622MOL0     N83886   2.603   8.924   4.065 -0.1335 -1.0666  0.0848
  622MOL0     C83887   2.198   8.059   4.833 -0.5699 -0.7420 -0.3454
  622MOL0     C83888   2.305   7.971   4.801  0.3896  0.0534  0.9033
  622MOL0     C83889   2.619   7.763   4.529  0.3772 -0.2212 -0.6038
  622MOL0     C83890   2.552   7.644   4.509 -0.1404 -0.1796  0.0560
  622MOL0     C83891   2.622   7.540   4.444  0.5214  1.0614 -0.4159
  622MOL0     C83892   2.764   7.533   4.436 -1.2819  1.4033 -0.7585
  622MOL0     O83893   2.814   7.418   4.383  0.5824 -0.4945 -0.8568
  622MOL0     C83894   2.953   7.388   4.380  0.4260  0.0108  0.3176
  622MOL0     C83895   2.981   7.252   4.319 -0.6631 -0.6423  0.0571
  622MOL0     C83896   2.955   7.247   4.163 -0.2150 -0.0231  1.0349
  622MOL0     C83897   2.969   7.099   4.125  0.7501  0.5748  0.9508
  622MOL0     C83898   3.111   7.058   4.151 -0.1820 -0.8470 -0.7516
  622MOL0     C83899   3.225   7.011   4.155 -0.5947 -0.2395 -0.3210
  622MOL0     C83900   2.830   7.647   4.481 -0.0906  0.8041  0.3459
  622MOL0     C83901   2.761   7.765   4.515  0.2862  0.3716  0.5425
  622MOL0     C83902   2.840   7.888   4.551  0.2846 -0.7617  0.6007
  622MOL0     H83903   2.245   7.947   4.466 -1.2733 -5.8103  1.1791
  622MOL0     H83904   2.093   8.131   4.524 -0.1520  0.4761 -0.4304
  622MOL0     H83905   1.928   8.275   4.610 -2.1983 -0.6571  0.7902
  622MOL0     H83906   1.889   8.364   4.756  1.4925  1.8094  0.4937
  622MOL0     H83907   2.150   8.437   4.779 -1.4871 -0.1606  1.7768
  622MOL0     H83908   2.029   8.524   4.704  0.0077  0.3542 -1.6036
  622MOL0     H83909   2.097   8.420   4.480  0.4927 -1.5563 -0.3896
  622MOL0     H83910   2.222   8.332   4.577  1.1709  1.5465  0.5893
  622MOL0     H83911   2.171   8.635   4.571 -0.8827  0.5540 -2.5848
  622MOL0     H83912   2.317   8.554   4.624 -0.0328  2.3431 -0.0326
  622MOL0     H83913   2.340   8.481   4.388 -0.9787 -0.7707  1.1870
  622MOL0     H83914   2.213   8.598   4.340 -0.2250  2.5459  0.9321
  622MOL0     H83915   2.319   8.786   4.424 -0.8034 -1.1067 -1.1394
  622MOL0     H83916   2.446   8.706   4.508 -2.2566  3.2916  2.4689
  622MOL0     H83917   2.412   8.710   4.208 -1.3768 -0.6078  1.2964
  622MOL0     H83918   2.536   8.605   4.300 -0.8760 -1.0534  0.4895
  622MOL0     H83919   2.492   8.910   4.303 -2.0992 -0.6085 -5.0461
  622MOL0     H83920   2.633   8.826   4.380 -1.8902 -3.1228  1.3876
  622MOL0     H83921   2.794   8.701   4.187  2.4570  0.9337 -0.6003
  622MOL0     H83922   2.833   8.776   3.801 -1.4639 -2.4483  0.7871
  622MOL0     H83923   2.961   8.832   3.908 -0.2645  0.6107  1.5089
  622MOL0     H83924   2.944   8.606   4.027  1.0979 -0.7300 -0.0223
  622MOL0     H83925   2.834   8.547   3.905 -0.3224 -0.4566 -0.3933
  622MOL0     H83926   3.028   8.598   3.741  3.4405 -1.1109 -0.3603
  622MOL0     H83927   3.064   8.470   3.865 -1.3445 -0.3970  0.2496
  622MOL0     H83928   3.168   8.647   4.008 -0.1145  0.9081  1.0003
  622MOL0     H83929   3.149   8.755   3.872  1.8543  1.0649  0.3565
  622MOL0     H83930   3.343   8.849   3.912 -1.0085 -1.4599 -2.4826
  622MOL0     H83931   3.571   8.905   3.987  0.3281  1.3046 -4.9787
  622MOL0     H83932   3.803   9.089   4.139  0.2774 -1.8029 -0.9697
  622MOL0     H83933   3.999   9.227   4.237 -2.1535  0.4451 -1.5443
  622MOL0     H83934   4.444   9.108   4.247  1.3747 -0.8454 -1.9678
  622MOL0     H83935   4.351   9.010   4.132  0.0484 -0.1442 -0.0674
  622MOL0     H83936   4.297   9.265   4.033 -0.4569 -0.5998  1.2996
  622MOL0     H83937   4.394   9.319   4.170 -1.0780  0.3889 -0.6735
  622MOL0     H83938   4.567   9.142   4.041 -2.0432 -2.4660 -1.2243
  622MOL0     H83939   4.442   9.140   3.914  0.9078  0.1311 -1.2176
  622MOL0     H83940   4.603   9.389   3.980  0.9829 -2.1737  1.4180
  622MOL0     H83941   4.450   9.382   3.885  1.1063  1.9175 -2.2072
  622MOL0     H83942   4.703   9.224   3.803  3.5576  1.7767  0.6757
  622MOL0     H83943   4.666   9.396   3.771 -4.0675  1.2851  1.3522
  622MOL0     H83944   4.509   9.151   3.680  2.0481  0.0513  2.0940
  622MOL0     H83945   4.429   9.308   3.680 -1.3683 -3.0428 -2.4823
  622MOL0     H83946   4.683   9.253   3.512 -0.1590 -0.0875 -4.4409
  622MOL0     H83947   4.577   9.401   3.529 -0.0135  0.8438  1.6762
  622MOL0     H83948   4.568   9.234   3.334 -1.0824  0.2893  0.0457
  622MOL0     H83949   4.542   9.106   3.451  3.4134 -0.2213  0.7643
  622MOL0     H83950   4.237   8.859   4.220 -0.2229 -2.2241  1.4457
  622MOL0     H83951   4.036   8.740   4.163  1.8144 -0.2733 -2.4880
  622MOL0     H83952   3.689   8.484   3.929 -0.6856  0.2635  2.6784
  622MOL0     H83953   3.460   8.463   3.822 -0.1345  1.0820 -1.1204
  622MOL0     H83954   2.184   8.089   4.937 -0.4674 -2.4522  0.1934
  622MOL0     H83955   2.388   7.944   4.866  0.9980 -0.5167 -0.0740
  622MOL0     H83956   2.444   7.640   4.517 -0.1980  0.8726 -0.1038
  622MOL0     H83957   2.570   7.456   4.400  1.7780  1.3639 -2.6348
  622MOL0     H83958   2.992   7.394   4.482  2.3830 -0.2215 -0.3814
  622MOL0     H83959   2.999   7.462   4.313 -1.6543 -2.6334 -4.5680
  622MOL0     H83960   2.914   7.180   4.368 -0.4228  1.5210  4.0067
  622MOL0     H83961   3.085   7.223   4.336 -1.5182 -3.8898  0.4097
  622MOL0     H83962   3.028   7.315   4.117 -1.8476  1.5606  0.7013
  622MOL0     H83963   2.854   7.280   4.138  0.5976  0.9183 -1.2252
  622MOL0     H83964   2.897   7.041   4.183  0.0565  1.0149  0.5370
  622MOL0     H83965   2.947   7.080   4.019  1.4988  1.9016  0.5419
  622MOL0     H83966   3.322   6.965   4.149 -1.7861 -2.7929 -1.6982
  622MOL0     H83967   2.938   7.644   4.468 -0.1543 -0.2923 -0.0700
  622MOL0     H83968   2.949   7.889   4.545  0.5534  4.1158  1.4301
  622MOL0     H83969   2.802   7.973   4.492 -1.7642 -3.0123 -1.5521
  622MOL0     H83970   2.830   7.924   4.654  0.2737 -1.8215  0.9819
  623MOL0     O83971   5.608   4.937  11.043 -0.1089 -0.2256 -0.2642
  623MOL0     C83972   5.610   4.920  10.927  0.2668  0.5568 -0.4506
  623MOL0     O83973   5.718   4.878  10.857 -0.0693  0.3862  0.0307
  623MOL0     C83974   5.842   4.846  10.921 -0.1887  0.1156  0.1434
  623MOL0     C83975   5.833   4.735  11.004 -0.0386  0.3847 -0.2114
  623MOL0     C83976   5.954   4.684  11.060 -0.1495 -1.3444 -0.6078
  623MOL0     C83977   6.079   4.736  11.021 -0.0136  0.7386 -0.0740
  623MOL0     O83978   6.184   4.677  11.082 -0.3816  0.5181 -0.2501
  623MOL0     C83979   6.304   4.754  11.074  1.0756  0.3800  0.4399
  623MOL0     C83980   6.405   4.687  11.155  0.4590 -0.2965  0.6299
  623MOL0     C83981   6.391   4.678  11.310 -0.0559 -0.3699 -0.4800
  623MOL0     C83982   6.413   4.815  11.363  0.6873  0.2455  0.3054
  623MOL0     C83983   6.357   4.824  11.508  0.0765 -0.3827  0.6125
  623MOL0     C83984   6.201   4.823  11.519 -0.9153  0.5359  0.2379
  623MOL0     C83985   6.120   4.918  11.433 -0.8433 -0.1536  0.1197
  623MOL0     C83986   5.973   4.876  11.457  0.1569  0.0262  0.3690
  623MOL0     N83987   5.884   4.976  11.392  0.3559 -0.7976  0.4652
  623MOL0     C83988   5.876   5.011  11.256  0.7509  1.1527  0.8537
  623MOL0     C83989   5.790   5.120  11.259 -0.3780  0.6398 -0.6493
  623MOL0     C83990   5.720   5.201  11.154 -0.0384 -0.2027 -0.0588
  623MOL0     C83991   5.815   5.215  11.036 -0.1386 -0.7893  0.5734
  623MOL0     C83992   5.747   5.278  10.914 -0.0305  0.9349  0.1718
  623MOL0     C83993   5.847   5.335  10.811  0.1998 -0.2547  0.3474
  623MOL0     O83994   5.894   5.466  10.843 -0.4717  0.7071 -0.7046
  623MOL0     C83995   6.028   5.493  10.862  0.0587  0.6039  0.1320
  623MOL0     C83996   6.125   5.499  10.759  0.0258  0.2134 -0.0547
  623MOL0     C83997   6.258   5.520  10.784  0.1010 -0.6457 -0.1949
  623MOL0     C83998   6.300   5.532  10.913 -0.1294  0.1609 -0.1926
  623MOL0     C83999   6.445   5.545  10.952 -0.7884  0.1160 -0.2242
  623MOL0     O84000   6.534   5.512  10.855 -0.2423 -0.5932  0.0161
  623MOL0     C84001   6.660   5.502  10.888 -0.5226  0.5549  0.2727
  623MOL0     C84002   6.706   5.396  10.965  0.3129  0.3884 -0.0095
  623MOL0     C84003   6.842   5.379  10.999 -0.8480 -1.3603  0.4942
  623MOL0     C84004   6.932   5.485  10.951 -0.3048  0.4197 -0.8819
  623MOL0     O84005   7.070   5.495  10.994  0.5925 -0.7136  0.5365
  623MOL0     C84006   7.128   5.376  11.025  0.5798  0.4738  0.4533
  623MOL0     C84007   7.282   5.372  11.025 -0.5375  0.4963  0.1738
  623MOL0     C84008   7.352   5.449  11.144  0.4922  0.5034  0.0297
  623MOL0     C84009   7.322   5.601  11.133  0.1210 -0.3488 -0.8518
  623MOL0     C84010   7.214   5.652  11.234 -0.0318 -0.9117  0.1876
  623MOL0     C84011   7.152   5.782  11.187  0.0349 -0.6821 -0.3647
  623MOL0     C84012   7.053   5.849  11.280  0.5186 -0.1773 -0.3489
  623MOL0     C84013   6.911   5.779  11.292  0.2515  0.6365  0.9678
  623MOL0    Cl84014   6.811   5.882  11.397 -0.0059  0.2392 -0.0537
  623MOL0     C84015   6.884   5.582  10.866 -0.2534  0.1054 -0.1411
  623MOL0     C84016   6.752   5.597  10.840  0.1438  0.9671 -0.5232
  623MOL0     O84017   6.471   5.599  11.055 -1.6363 -0.0332  0.3440
  623MOL0     C84018   6.205   5.529  11.014  0.3944 -0.7003 -0.0947
  623MOL0     C84019   6.075   5.522  10.987  0.0475  0.2745 -0.0357
  623MOL0     N84020   5.753   5.151  11.393 -0.4413  0.0799  0.3623
  623MOL0     N84021   5.812   5.063  11.469  0.4301 -0.0976  0.9194
  623MOL0     C84022   6.084   4.847  10.926 -0.0186 -0.1657 -0.1324
  623MOL0     C84023   5.964   4.909  10.883 -0.4357  1.1855  1.0593
  623MOL0     C84024   5.491   4.954  10.848  0.0773 -0.0968  0.3109
  623MOL0     C84025   5.505   5.011  10.721 -0.1480  0.2395 -0.4303
  623MOL0     C84026   5.395   5.027  10.637 -1.1039  0.0486 -0.4684
  623MOL0     C84027   5.263   5.006  10.678 -0.8509 -0.0545 -0.2344
  623MOL0     O84028   5.163   5.023  10.590 -0.3857  0.1047  1.4991
  623MOL0     C84029   5.027   5.007  10.626  0.3466 -0.3980 -0.0429
  623MOL0     C84030   4.933   5.064  10.519  0.0355  0.3820  0.4019
  623MOL0     C84031   4.913   5.212  10.538  0.3028  0.1916 -0.9640
  623MOL0     C84032   4.764   5.262  10.514 -0.4309  0.4870 -0.1418
  623MOL0     C84033   4.696   5.215  10.396 -0.1663 -0.2485  0.0208
  623MOL0     C84034   4.648   5.197  10.286 -0.3604 -0.5639  0.0694
  623MOL0     C84035   5.252   4.947  10.802 -0.4298 -0.5348 -0.2247
  623MOL0     C84036   5.356   4.925  10.888 -0.2541 -0.2408  0.1359
  623MOL0     C84037   5.323   4.859  11.027  0.6683  0.6593 -0.1271
  623MOL0     H84038   5.733   4.697  11.019 -0.3295  0.7883 -1.0569
  623MOL0     H84039   5.959   4.598  11.126 -2.5750 -0.0225  1.5066
  623MOL0     H84040   6.341   4.770  10.973 -0.1778 -0.4120 -0.1819
  623MOL0     H84041   6.275   4.853  11.111 -0.3808  0.1595 -0.0223
  623MOL0     H84042   6.495   4.744  11.130 -1.3834  2.4535 -0.1818
  623MOL0     H84043   6.422   4.583  11.125 -0.7443 -0.1672 -0.6078
  623MOL0     H84044   6.464   4.609  11.352  0.0421  0.5271  0.8762
  623MOL0     H84045   6.292   4.637  11.334 -0.7554 -0.1303 -2.6968
  623MOL0     H84046   6.521   4.827  11.371  1.2888 -3.5051 -0.2599
  623MOL0     H84047   6.373   4.889  11.293 -0.3226 -0.0286  0.5707
  623MOL0     H84048   6.394   4.743  11.572 -0.1335  1.3954  3.1394
  623MOL0     H84049   6.398   4.915  11.552  1.0283 -0.6560  0.3166
  623MOL0     H84050   6.176   4.717  11.517  0.7667  0.1189  0.2080
  623MOL0     H84051   6.180   4.860  11.620 -0.9290  1.8876 -0.2333
  623MOL0     H84052   6.134   4.919  11.325 -3.9350  2.3334 -0.4015
  623MOL0     H84053   6.134   5.018  11.475 -0.9458 -0.0139 -0.1826
  623MOL0     H84054   5.942   4.779  11.418 -2.2978  0.6750  0.5719
  623MOL0     H84055   5.944   4.855  11.559 -0.0705 -2.2389 -0.1263
  623MOL0     H84056   5.930   4.959  11.177 -0.5679 -1.7833  1.7615
  623MOL0     H84057   5.619   5.165  11.130 -0.7601  2.0211 -0.6546
  623MOL0     H84058   5.696   5.304  11.183 -2.7037 -0.4723 -1.0122
  623MOL0     H84059   5.905   5.268  11.068  0.1041  0.7221 -2.3217
  623MOL0     H84060   5.856   5.123  10.995 -0.8647 -0.3433 -1.2341
  623MOL0     H84061   5.677   5.354  10.949  0.0751  0.5969  1.1454
  623MOL0     H84062   5.698   5.193  10.865 -1.6669  1.0293  1.5428
  623MOL0     H84063   5.808   5.329  10.710  2.2527 -1.4429 -0.4491
  623MOL0     H84064   5.942   5.279  10.811  0.5132  0.2719 -0.0426
  623MOL0     H84065   6.094   5.505  10.655 -0.3103  1.2912  0.0889
  623MOL0     H84066   6.330   5.516  10.704  0.1803 -1.0350 -0.1069
  623MOL0     H84067   6.632   5.321  10.990 -1.1793  2.0123  0.6919
  623MOL0     H84068   6.862   5.300  11.072 -2.6806 -0.7001  1.7926
  623MOL0     H84069   7.092   5.348  11.125 -1.5236  1.0766 -0.0844
  623MOL0     H84070   7.092   5.305  10.949 -2.2783  1.7756  0.4746
  623MOL0     H84071   7.304   5.265  11.036  0.1699  0.5610 -0.4360
  623MOL0     H84072   7.318   5.404  10.927  0.5411  0.8232  0.6602
  623MOL0     H84073   7.326   5.407  11.242 -0.6747  0.3178 -0.3394
  623MOL0     H84074   7.456   5.422  11.129  1.8212  3.1562  3.1838
  623MOL0     H84075   7.296   5.638  11.034 -2.4094 -2.8016 -1.2140
  623MOL0     H84076   7.420   5.646  11.154  1.0363 -0.5886 -4.1163
  623MOL0     H84077   7.251   5.660  11.337  0.6922  1.0724 -0.1916
  623MOL0     H84078   7.124   5.589  11.226 -0.7930  0.3342 -1.7479
  623MOL0     H84079   7.227   5.860  11.169 -2.2846  2.1301  1.3195
  623MOL0     H84080   7.109   5.773  11.087  2.1876 -0.9338 -1.3277
  623MOL0     H84081   7.018   5.946  11.241 -0.4454 -0.2879  0.2083
  623MOL0     H84082   7.106   5.865  11.374  1.2053 -1.9396 -0.4057
  623MOL0     H84083   6.867   5.765  11.192 -2.8678  0.2666  2.2606
  623MOL0     H84084   6.914   5.686  11.350 -2.1171  0.1359  0.3951
  623MOL0     H84085   6.956   5.656  10.834  1.8087 -1.4917  0.5482
  623MOL0     H84086   6.719   5.683  10.782 -0.5665  0.5998 -0.6742
  623MOL0     H84087   6.243   5.528  11.116 -1.7097 -0.4286  0.7485
  623MOL0     H84088   5.994   5.532  11.058 -1.4491 -6.3194 -0.1701
  623MOL0     H84089   6.174   4.892  10.887 -1.4607  2.2927 -0.8414
  623MOL0     H84090   5.965   4.995  10.816 -1.8849  3.0154  3.2432
  623MOL0     H84091   5.603   5.046  10.690 -1.0734  2.2186 -1.3367
  623MOL0     H84092   5.405   5.093  10.551  3.4548  4.4026  2.8361
  623MOL0     H84093   5.001   5.060  10.718 -3.2599 -4.8952  1.9191
  623MOL0     H84094   5.001   4.905  10.655 -0.8193  1.1055  5.3024
  623MOL0     H84095   4.837   5.011  10.523 -0.8814  1.8854 -0.6017
  623MOL0     H84096   4.969   5.032  10.421 -3.0914 -1.5642 -0.2718
  623MOL0     H84097   4.977   5.267  10.468  1.0050 -0.1791 -0.6174
  623MOL0     H84098   4.951   5.250  10.633 -0.7294  2.8084 -1.4969
  623MOL0     H84099   4.706   5.227  10.600 -0.3480  2.4709  0.7755
  623MOL0     H84100   4.762   5.371  10.526  1.8087  0.4603  1.2411
  623MOL0     H84101   4.593   5.184  10.195 -2.1989  2.3600  0.6322
  623MOL0     H84102   5.151   4.909  10.815 -1.1824  1.7989  1.4930
  623MOL0     H84103   5.372   4.762  11.041  1.0305  1.0046  1.1226
  623MOL0     H84104   5.353   4.928  11.106 -2.0048  0.4260  1.2182
  623MOL0     H84105   5.215   4.853  11.045  0.9128 -0.5709  1.1258
  624MOL0     O84106   5.222   2.010   3.261 -0.2232  0.0146 -0.8335
  624MOL0     C84107   5.261   2.080   3.361  0.0983  0.6563 -1.4088
  624MOL0     O84108   5.371   2.052   3.436  0.5102  0.6075  0.7469
  624MOL0     C84109   5.448   1.942   3.399 -0.0509 -1.4429 -0.0558
  624MOL0     C84110   5.511   1.878   3.512  0.7529  0.8837  1.2017
  624MOL0     C84111   5.602   1.773   3.491  0.0971  0.6857 -1.5167
  624MOL0     C84112   5.628   1.726   3.361 -0.2544 -0.5974 -0.0208
  624MOL0     O84113   5.704   1.612   3.353  0.3403 -0.5817  0.4519
  624MOL0     C84114   5.715   1.554   3.223 -0.3636  0.6313 -0.9455
  624MOL0     C84115   5.784   1.423   3.226 -0.4012 -0.2724  0.1680
  624MOL0     C84116   5.724   1.329   3.340 -0.2314 -0.4636  0.3201
  624MOL0     C84117   5.803   1.211   3.369 -0.3078  0.8799  0.3763
  624MOL0     C84118   5.732   1.102   3.440 -0.1055  0.3692  0.4107
  624MOL0     C84119   5.662   1.009   3.337  0.2604 -0.3013  0.3527
  624MOL0     C84120   5.574   0.914   3.409  0.3418  0.1554 -0.0847
  624MOL0     C84121   5.505   0.811   3.316  0.4500  0.5287 -0.1755
  624MOL0     N84122   5.368   0.797   3.385 -1.1429  1.0362  0.4706
  624MOL0     C84123   5.246   0.854   3.361  0.1895 -0.2382 -0.0050
  624MOL0     C84124   5.153   0.794   3.439 -0.3523  1.1679  0.2991
  624MOL0     C84125   5.007   0.820   3.431  0.4737 -0.8662  0.1323
  624MOL0     C84126   4.957   0.733   3.313  0.0424 -0.0451 -0.2977
  624MOL0     C84127   4.824   0.787   3.271 -0.4976  0.5653  0.3701
  624MOL0     C84128   4.832   0.925   3.183 -0.1442 -1.4918 -0.5858
  624MOL0     O84129   4.929   0.923   3.081 -0.0532  0.4634 -0.0010
  624MOL0     C84130   5.013   1.023   3.057 -0.8914  0.7884 -0.1529
  624MOL0     C84131   4.989   1.161   3.101  1.0580 -0.2047  1.2295
  624MOL0     C84132   5.094   1.252   3.086 -0.3096 -0.1801  0.1063
  624MOL0     C84133   5.220   1.217   3.030 -0.7267 -0.6848 -0.1008
  624MOL0     C84134   5.327   1.316   3.024  0.0462 -0.5838  0.5989
  624MOL0     O84135   5.284   1.447   3.017  0.2128 -0.3536  0.3303
  624MOL0     C84136   5.379   1.544   2.984 -0.5276 -0.2755 -0.3206
  624MOL0     C84137   5.516   1.538   2.944 -0.1351 -0.4433 -0.4838
  624MOL0     C84138   5.581   1.663   2.907 -0.0230 -0.3803  0.2041
  624MOL0     C84139   5.509   1.785   2.908  0.0153  0.1202 -0.3094
  624MOL0     O84140   5.565   1.901   2.859  0.1563  0.0087 -0.3531
  624MOL0     C84141   5.529   1.939   2.720  0.0909  0.1628 -0.0467
  624MOL0     C84142   5.597   2.071   2.681 -0.0298 -0.4818  0.0731
  624MOL0     C84143   5.520   2.194   2.741 -0.4230  0.8613  0.9447
  624MOL0     C84144   5.514   2.322   2.668  0.0902 -0.2254  0.0281
  624MOL0     C84145   5.468   2.318   2.513  0.4017 -0.0317 -0.7478
  624MOL0     C84146   5.329   2.235   2.500 -0.1955  0.6264 -0.0381
  624MOL0     C84147   5.282   2.240   2.355  0.1954 -0.1554 -0.3772
  624MOL0     C84148   5.169   2.140   2.338 -0.0381 -0.0016  0.9452
  624MOL0    Cl84149   5.013   2.188   2.413  0.1357 -0.2173  0.0622
  624MOL0     C84150   5.386   1.793   2.965 -0.6200  0.0914 -0.3176
  624MOL0     C84151   5.323   1.670   2.999  0.6795  0.2838 -0.2010
  624MOL0     O84152   5.443   1.282   3.038 -0.0830 -0.3535  0.4272
  624MOL0     C84153   5.251   1.084   2.990  0.6136 -0.0451 -0.2057
  624MOL0     C84154   5.140   0.995   3.005  0.0174  0.6587  0.1312
  624MOL0     N84155   5.215   0.694   3.507  0.2662  0.3888  0.0778
  624MOL0     N84156   5.341   0.695   3.472 -0.6119 -0.1666 -0.5860
  624MOL0     C84157   5.572   1.797   3.251  0.2057  0.5161 -0.9839
  624MOL0     C84158   5.486   1.901   3.274 -0.4103 -0.8536 -0.0525
  624MOL0     C84159   5.185   2.210   3.393  1.5197  0.8973  0.0075
  624MOL0     C84160   5.242   2.299   3.488 -0.2361 -0.2804  0.9810
  624MOL0     C84161   5.173   2.414   3.526  0.5576 -0.3936  0.7247
  624MOL0     C84162   5.052   2.461   3.474 -0.1928 -0.1301  0.1313
  624MOL0     O84163   4.990   2.582   3.508 -0.2611 -0.5751  0.5883
  624MOL0     C84164   4.855   2.601   3.489  0.3881 -0.4905 -0.5243
  624MOL0     C84165   4.800   2.729   3.554  0.1332  0.1889  0.2693
  624MOL0     C84166   4.803   2.727   3.712  0.2883 -1.6618  0.3633
  624MOL0     C84167   4.662   2.715   3.775 -0.1196  0.2921 -0.3387
  624MOL0     C84168   4.665   2.779   3.904 -0.4482  0.9001 -0.0026
  624MOL0     C84169   4.651   2.840   4.001  0.0104  0.1370 -0.9409
  624MOL0     C84170   4.993   2.378   3.375 -0.0573 -0.9206  0.2485
  624MOL0     C84171   5.059   2.257   3.336 -0.4425 -0.0991 -0.1166
  624MOL0     C84172   4.975   2.170   3.247 -0.1204 -0.6760 -0.6743
  624MOL0     H84173   5.494   1.908   3.615  1.1565  2.9185  0.7222
  624MOL0     H84174   5.649   1.718   3.571 -0.9349 -0.1627 -1.4728
  624MOL0     H84175   5.616   1.529   3.184 -0.5740 -0.2856  0.1491
  624MOL0     H84176   5.777   1.615   3.156  1.4854 -0.2936 -0.1746
  624MOL0     H84177   5.891   1.443   3.242 -0.7318  0.0992  2.1915
  624MOL0     H84178   5.770   1.373   3.130  0.0271 -1.2605  0.6016
  624MOL0     H84179   5.629   1.290   3.305  0.3846 -3.1424  1.3263
  624MOL0     H84180   5.714   1.395   3.427  1.9955 -0.4781  0.6596
  624MOL0     H84181   5.827   1.184   3.266  2.0202  4.0991 -0.0639
  624MOL0     H84182   5.895   1.237   3.423  0.2299  1.9655 -1.0031
  624MOL0     H84183   5.799   1.039   3.499 -0.8587 -1.3929 -0.5421
  624MOL0     H84184   5.644   1.144   3.490 -2.1908  0.3408 -2.9402
  624MOL0     H84185   5.608   1.067   3.262  5.5700  0.8755 -3.0893
  624MOL0     H84186   5.735   0.957   3.275  0.3037  1.9088 -1.5966
  624MOL0     H84187   5.501   0.968   3.470 -0.2106  0.8636 -1.3324
  624MOL0     H84188   5.640   0.859   3.477  2.5945  1.9591 -0.6940
  624MOL0     H84189   5.505   0.840   3.211 -1.6294 -3.6834 -1.5882
  624MOL0     H84190   5.543   0.709   3.323 -1.5568 -0.1547  2.8205
  624MOL0     H84191   5.218   0.949   3.316 -1.5258  0.1171  1.6802
  624MOL0     H84192   4.955   0.787   3.522  2.0617  2.6647  2.5388
  624MOL0     H84193   4.993   0.925   3.404 -1.7870 -1.1683 -0.0454
  624MOL0     H84194   5.027   0.749   3.231 -2.3018  3.2726 -1.9431
  624MOL0     H84195   4.941   0.631   3.348  0.7777  0.1199  0.5569
  624MOL0     H84196   4.763   0.809   3.360 -0.7786 -0.1458  0.3540
  624MOL0     H84197   4.770   0.708   3.218  2.2943  0.0452 -1.9020
  624MOL0     H84198   4.851   1.006   3.254 -0.7138 -4.0904  2.7933
  624MOL0     H84199   4.749   0.945   3.115  2.0632 -0.8065 -3.2514
  624MOL0     H84200   4.889   1.183   3.137 -0.5134 -3.9063 -0.3629
  624MOL0     H84201   5.080   1.359   3.100 -1.4194 -0.4356  1.0905
  624MOL0     H84202   5.567   1.445   2.922  0.1124 -0.3779 -0.1917
  624MOL0     H84203   5.683   1.655   2.869  2.0737  1.5367  4.7143
  624MOL0     H84204   5.565   1.861   2.651 -0.7130 -1.4850  1.3212
  624MOL0     H84205   5.420   1.939   2.710  0.2763  0.6535 -4.7533
  624MOL0     H84206   5.700   2.063   2.717  0.0344 -0.6359 -0.1482
  624MOL0     H84207   5.597   2.079   2.572  0.4298  2.6482  0.1960
  624MOL0     H84208   5.416   2.167   2.763 -0.4367  0.0555 -0.0334
  624MOL0     H84209   5.566   2.196   2.841  2.5260 -0.0969 -0.2815
  624MOL0     H84210   5.610   2.375   2.672  0.5761 -1.1103  2.1933
  624MOL0     H84211   5.440   2.382   2.721  0.4799 -1.3769  1.9880
  624MOL0     H84212   5.543   2.273   2.448 -0.2981  0.1123 -1.6752
  624MOL0     H84213   5.469   2.419   2.470  2.1077  0.7785  1.0313
  624MOL0     H84214   5.339   2.133   2.537 -1.9881  1.0429  1.7605
  624MOL0     H84215   5.249   2.280   2.560 -1.2305  2.2761 -2.5050
  624MOL0     H84216   5.358   2.217   2.281 -0.4106 -0.8848 -0.7801
  624MOL0     H84217   5.246   2.341   2.332 -1.0137 -1.3050 -4.3794
  624MOL0     H84218   5.143   2.121   2.233 -0.2637 -1.1328  1.1965
  624MOL0     H84219   5.207   2.043   2.371  4.2433 -0.1626 -3.3982
  624MOL0     H84220   5.342   1.892   2.974 -1.4011 -0.4690  3.6400
  624MOL0     H84221   5.223   1.662   3.039  0.5988  1.2074 -0.1893
  624MOL0     H84222   5.350   1.057   2.954  1.1054 -0.2476  1.1959
  624MOL0     H84223   5.157   0.892   2.974 -1.0360  0.4174  0.2903
  624MOL0     H84224   5.601   1.762   3.152  1.2507  0.1677 -0.5752
  624MOL0     H84225   5.447   1.956   3.190  0.0512 -1.4878 -0.6947
  624MOL0     H84226   5.342   2.286   3.528  1.6401  2.1221 -2.3613
  624MOL0     H84227   5.213   2.477   3.605 -0.2815  1.8641 -0.5391
  624MOL0     H84228   4.799   2.515   3.528 -0.7217  0.9318  1.2265
  624MOL0     H84229   4.847   2.612   3.381  3.5886 -1.3327 -0.9444
  624MOL0     H84230   4.697   2.741   3.520 -0.5992  2.2225  2.8693
  624MOL0     H84231   4.854   2.818   3.521 -1.4269  1.4550  0.9616
  624MOL0     H84232   4.845   2.827   3.731 -1.8019 -0.0192 -2.7400
  624MOL0     H84233   4.865   2.646   3.750  1.6606 -0.8684 -0.0917
  624MOL0     H84234   4.587   2.771   3.717 -1.0739  1.4187  1.8449
  624MOL0     H84235   4.633   2.610   3.774 -0.6247  0.4140  0.6720
  624MOL0     H84236   4.641   2.897   4.092  0.2195  0.2760 -1.0044
  624MOL0     H84237   4.895   2.390   3.329  1.0729 -0.0035 -2.0879
  624MOL0     H84238   4.874   2.207   3.225  0.4972  1.9126  0.4551
  624MOL0     H84239   5.035   2.159   3.156  0.1956 -0.5477 -0.4817
  624MOL0     H84240   4.961   2.079   3.306  2.2040  0.8049  2.4535
  625MOL0     O84241   9.622   6.063   4.435  0.8922  0.3450  0.1954
  625MOL0     C84242   9.538   5.996   4.488  0.2176 -0.4915  1.3253
  625MOL0     O84243   9.540   5.860   4.504 -0.2728 -0.2399 -0.2023
  625MOL0     C84244   9.605   5.786   4.417 -1.0116  0.2684  0.1128
  625MOL0     C84245   9.586   5.786   4.277 -0.1062 -0.5867  0.2879
  625MOL0     C84246   9.643   5.691   4.200  0.2584  0.4430 -0.0992
  625MOL0     C84247   9.730   5.591   4.249 -0.7090  1.0776 -0.0029
  625MOL0     O84248   9.765   5.483   4.182 -0.0865  0.1492  0.6376
  625MOL0     C84249   9.799   5.492   4.045  0.3151 -0.1107 -0.4001
  625MOL0     C84250   9.695   5.422   3.952 -0.1977  0.5490  1.0627
  625MOL0     C84251   9.712   5.270   3.973 -0.0542 -0.3100 -0.2170
  625MOL0     C84252   9.576   5.189   3.955 -1.2034 -0.3941  0.0774
  625MOL0     C84253   9.613   5.035   3.969 -0.6512 -0.3166 -0.6342
  625MOL0     C84254   9.507   4.947   3.918  1.2104  0.5214 -0.4397
  625MOL0     C84255   9.446   4.853   4.027 -1.1063  0.6519  0.2921
  625MOL0     C84256   9.365   4.931   4.131  0.5271 -0.1613 -0.7222
  625MOL0     N84257   9.251   4.999   4.086  0.1418  0.1030 -0.7790
  625MOL0     C84258   9.176   4.939   3.994  0.8615 -0.1704 -0.7245
  625MOL0     C84259   9.092   5.037   3.945  0.3763 -0.6090  0.0116
  625MOL0     C84260   8.975   5.041   3.850  0.2016  0.2935 -1.0513
  625MOL0     C84261   8.998   4.946   3.731 -0.1354 -0.2653  0.0488
  625MOL0     C84262   8.900   4.951   3.623 -0.8375 -0.2292 -0.4022
  625MOL0     C84263   8.929   5.055   3.512 -0.2370  0.8504  0.2100
  625MOL0     O84264   8.824   5.064   3.416 -1.3078  0.6757 -0.2093
  625MOL0     C84265   8.802   4.963   3.341  0.3721  0.9822  0.6042
  625MOL0     C84266   8.882   4.854   3.312  0.1928  1.0047  1.4484
  625MOL0     C84267   8.841   4.764   3.215  1.1154 -0.1401 -0.4086
  625MOL0     C84268   8.714   4.774   3.153 -0.7716 -0.7944  0.2221
  625MOL0     C84269   8.672   4.677   3.041  0.4065 -0.4402 -0.2531
  625MOL0     O84270   8.590   4.722   2.939 -0.2165  0.8866 -0.0507
  625MOL0     C84271   8.548   4.625   2.855  0.4066 -0.4036 -0.2322
  625MOL0     C84272   8.430   4.546   2.875 -0.3294  0.3304 -0.2804
  625MOL0     C84273   8.399   4.452   2.776 -0.6312 -0.1828  0.3242
  625MOL0     C84274   8.470   4.447   2.659 -0.2331  0.9710 -0.1061
  625MOL0     O84275   8.421   4.359   2.572 -0.9650  0.1944 -0.5625
  625MOL0     C84276   8.498   4.324   2.454 -0.2061  0.1660  0.6267
  625MOL0     C84277   8.443   4.203   2.368  0.1085 -0.0652  0.3288
  625MOL0     C84278   8.316   4.232   2.276  0.3234  0.5935  0.0816
  625MOL0     C84279   8.356   4.318   2.154 -0.6517 -0.0113  0.2046
  625MOL0     C84280   8.252   4.293   2.037  0.5718  0.0871  0.5509
  625MOL0     C84281   8.106   4.310   2.086  0.2199  0.3241  0.4911
  625MOL0     C84282   8.009   4.252   1.990 -0.1732  0.4774  0.6197
  625MOL0     C84283   7.863   4.271   2.042 -0.1338 -0.5349 -0.1073
  625MOL0    Cl84284   7.807   4.167   2.169 -0.2668 -0.0995  0.1643
  625MOL0     C84285   8.587   4.515   2.649  0.2113  0.0137 -0.1628
  625MOL0     C84286   8.629   4.602   2.746 -0.1902  0.1719 -0.1136
  625MOL0     O84287   8.721   4.567   3.056 -0.4132  0.1217  0.7771
  625MOL0     C84288   8.631   4.879   3.181  0.3927 -0.1297  0.0091
  625MOL0     C84289   8.678   4.971   3.270 -0.1356 -0.3089 -0.1251
  625MOL0     N84290   9.119   5.153   4.011  0.4450 -0.0756  0.2868
  625MOL0     N84291   9.220   5.134   4.085  0.4436  1.0670 -0.8023
  625MOL0     C84292   9.761   5.599   4.389 -0.3704  0.1192  0.6502
  625MOL0     C84293   9.696   5.694   4.465  0.3715  0.9263  1.2850
  625MOL0     C84294   9.417   6.082   4.529 -0.5623  0.1294 -0.3257
  625MOL0     C84295   9.288   6.025   4.517 -0.3348  0.7318 -0.1066
  625MOL0     C84296   9.172   6.093   4.555  0.4826 -1.0798 -0.7400
  625MOL0     C84297   9.182   6.228   4.592  0.8382 -0.8752  0.5713
  625MOL0     O84298   9.069   6.294   4.632  0.0686  0.4167  0.0101
  625MOL0     C84299   8.991   6.343   4.525 -0.4854 -1.1755  1.1718
  625MOL0     C84300   9.031   6.487   4.488 -0.3791 -0.4433 -0.9550
  625MOL0     C84301   8.932   6.543   4.385 -0.5111 -0.4663  0.3816
  625MOL0     C84302   8.814   6.618   4.448  0.2628  0.8818 -0.3359
  625MOL0     C84303   8.843   6.759   4.448 -0.5251  0.1366  0.6071
  625MOL0     C84304   8.887   6.873   4.451  0.2281 -0.4656  0.2353
  625MOL0     C84305   9.316   6.282   4.623  0.1725  0.0041 -0.2369
  625MOL0     C84306   9.433   6.214   4.588  0.4794 -0.0953 -0.5701
  625MOL0     C84307   9.563   6.294   4.600 -0.8040  0.0696  0.1396
  625MOL0     H84308   9.523   5.862   4.233  0.6343  0.8792  1.6429
  625MOL0     H84309   9.612   5.674   4.097 -2.1584  0.7705  0.5087
  625MOL0     H84310   9.796   5.596   4.011 -3.4281  1.7872  4.4517
  625MOL0     H84311   9.893   5.441   4.022  0.0291 -2.6561  3.2269
  625MOL0     H84312   9.713   5.449   3.848 -1.4740 -0.1222  0.6452
  625MOL0     H84313   9.592   5.446   3.980 -0.6810 -0.8428  0.5618
  625MOL0     H84314   9.748   5.251   4.075 -0.8878  1.0313  0.3541
  625MOL0     H84315   9.785   5.229   3.903 -0.3016 -1.7871  0.3541
  625MOL0     H84316   9.497   5.212   4.028 -2.0655 -0.0620 -0.9396
  625MOL0     H84317   9.536   5.219   3.858 -1.9435 -1.4839  0.0247
  625MOL0     H84318   9.705   5.017   3.913  0.6014 -0.0175  1.2566
  625MOL0     H84319   9.640   5.010   4.072 -1.4453 -2.1131 -0.8339
  625MOL0     H84320   9.438   4.990   3.845 -0.9203 -0.4265  0.9290
  625MOL0     H84321   9.553   4.878   3.847  0.1225  0.2743 -0.9272
  625MOL0     H84322   9.517   4.790   4.081 -0.1236  1.5056  0.0307
  625MOL0     H84323   9.389   4.779   3.969  1.0773 -1.8096  1.1041
  625MOL0     H84324   9.333   4.859   4.207  0.4364  0.7088  0.0846
  625MOL0     H84325   9.427   5.010   4.176 -0.7895  0.0534  0.7846
  625MOL0     H84326   9.187   4.837   3.960  3.3988 -1.3857  3.0775
  625MOL0     H84327   8.878   5.034   3.900  1.6996 -3.8541  1.8145
  625MOL0     H84328   8.988   5.142   3.809  1.8313  0.7681  0.5384
  625MOL0     H84329   9.098   4.974   3.696 -0.3062  4.2471  2.4406
  625MOL0     H84330   9.002   4.848   3.780 -1.1394  0.1988  1.0945
  625MOL0     H84331   8.806   4.979   3.671 -1.0290 -1.4258 -0.0268
  625MOL0     H84332   8.886   4.854   3.572 -3.7022  0.9400 -2.1493
  625MOL0     H84333   9.030   5.033   3.476 -0.1294  0.1929  0.8844
  625MOL0     H84334   8.938   5.152   3.562 -3.9237  0.9145  1.0382
  625MOL0     H84335   8.976   4.845   3.366  0.1221  0.9628  1.5636
  625MOL0     H84336   8.917   4.697   3.176  0.1089 -2.2086  1.0275
  625MOL0     H84337   8.364   4.564   2.959 -0.8355  2.9103 -1.1535
  625MOL0     H84338   8.304   4.399   2.773 -0.4329 -0.4820 -1.9628
  625MOL0     H84339   8.513   4.408   2.386 -0.7411 -0.3775 -0.1814
  625MOL0     H84340   8.598   4.292   2.485  0.9539  1.0954 -1.8814
  625MOL0     H84341   8.512   4.149   2.303 -0.8902 -3.1702  1.6528
  625MOL0     H84342   8.407   4.134   2.444 -1.8194  0.5686  0.0601
  625MOL0     H84343   8.270   4.136   2.250  1.1367  0.7849 -2.3602
  625MOL0     H84344   8.240   4.279   2.339 -1.0677  0.0326 -1.0982
  625MOL0     H84345   8.451   4.294   2.104  0.4238 -1.6176  2.7912
  625MOL0     H84346   8.365   4.420   2.193 -0.8656  0.1151 -0.0820
  625MOL0     H84347   8.263   4.188   2.009 -0.4374 -0.1305  0.9270
  625MOL0     H84348   8.266   4.363   1.954 -1.1162 -0.0948  0.0867
  625MOL0     H84349   8.091   4.268   2.185  1.7791  2.3562  1.6744
  625MOL0     H84350   8.089   4.418   2.096 -0.6549  0.3327 -0.7887
  625MOL0     H84351   8.030   4.148   1.968  1.1493  0.1146  3.1765
  625MOL0     H84352   8.017   4.309   1.897  1.0744  0.6143  0.7960
  625MOL0     H84353   7.854   4.375   2.075 -1.5095 -1.5553  3.1203
  625MOL0     H84354   7.793   4.258   1.959 -0.9322 -0.5873  0.5676
  625MOL0     H84355   8.640   4.533   2.556 -0.0177  0.4476 -0.2101
  625MOL0     H84356   8.716   4.661   2.718 -1.3028  2.4736  1.0272
  625MOL0     H84357   8.535   4.872   3.132  0.7160 -4.0342 -0.3868
  625MOL0     H84358   8.623   5.061   3.298 -1.1534 -0.3294 -1.9168
  625MOL0     H84359   9.833   5.527   4.428  0.3824  1.0515  1.0131
  625MOL0     H84360   9.729   5.683   4.568  4.2963 -0.9231  0.0463
  625MOL0     H84361   9.288   5.925   4.474  2.6485  0.4045  0.4400
  625MOL0     H84362   9.070   6.055   4.549 -0.6331  1.3431  1.1952
  625MOL0     H84363   8.890   6.341   4.567 -0.5825  2.2998  1.3523
  625MOL0     H84364   8.997   6.285   4.433 -2.3805  0.2437  0.1046
  625MOL0     H84365   9.136   6.499   4.460  0.2677  2.6278  2.1060
  625MOL0     H84366   9.026   6.533   4.587  3.1052 -3.2904  0.7865
  625MOL0     H84367   8.884   6.476   4.314  0.3129  1.3797 -2.0633
  625MOL0     H84368   8.983   6.620   4.326  0.2817 -1.9894 -0.9930
  625MOL0     H84369   8.723   6.589   4.394 -1.5481  1.2804  2.3477
  625MOL0     H84370   8.792   6.584   4.549 -1.9234  0.1924 -0.9855
  625MOL0     H84371   8.915   6.976   4.456 -1.8223  0.2954 -2.1125
  625MOL0     H84372   9.312   6.382   4.664 -2.3231  0.3467 -1.1264
  625MOL0     H84373   9.581   6.338   4.698  2.1877 -0.8407  0.0929
  625MOL0     H84374   9.654   6.234   4.594  1.5991  3.3687  0.8978
  625MOL0     H84375   9.570   6.368   4.520  0.4427 -1.6504 -1.4415
  626MOL0     O84376   2.489   5.931   3.538 -0.2770 -0.4117  0.1102
  626MOL0     C84377   2.585   5.973   3.606  0.2205  0.5317 -0.3144
  626MOL0     O84378   2.681   5.893   3.660 -0.0271 -0.9750 -0.6465
  626MOL0     C84379   2.660   5.760   3.686 -1.0075 -0.1355  0.2719
  626MOL0     C84380   2.626   5.656   3.593 -0.3140 -0.5722  0.0791
  626MOL0     C84381   2.616   5.520   3.637  1.0523 -0.4264  0.1581
  626MOL0     C84382   2.653   5.488   3.764 -0.3998 -0.1671  0.7513
  626MOL0     O84383   2.652   5.359   3.798 -0.1280  0.7226  0.3696
  626MOL0     C84384   2.728   5.318   3.908  0.0315  0.1558 -0.2453
  626MOL0     C84385   2.765   5.168   3.888 -0.5116 -0.0402 -0.2364
  626MOL0     C84386   2.637   5.076   3.894  0.4936 -0.8942  0.2097
  626MOL0     C84387   2.687   4.941   3.851  0.1282 -0.4081  1.0667
  626MOL0     C84388   2.568   4.836   3.846 -0.9498 -0.0077  0.4017
  626MOL0     C84389   2.614   4.713   3.782 -0.6986 -1.8651 -0.0741
  626MOL0     C84390   2.486   4.624   3.756  0.0926 -0.4369 -0.3551
  626MOL0     C84391   2.529   4.479   3.771  0.8887 -0.8603  0.2406
  626MOL0     N84392   2.428   4.377   3.761  0.6058  0.0733 -0.0830
  626MOL0     C84393   2.338   4.322   3.845 -0.4579  0.1461 -0.4910
  626MOL0     C84394   2.271   4.226   3.781 -0.0515 -0.8086  0.7837
  626MOL0     C84395   2.152   4.161   3.835  0.3389 -0.3561 -0.0151
  626MOL0     C84396   2.126   4.011   3.806  0.4517  0.5023 -0.7061
  626MOL0     C84397   2.208   3.919   3.898  0.6554 -0.5006  0.2089
  626MOL0     C84398   2.161   3.777   3.875 -0.1139  0.8817  0.4807
  626MOL0     O84399   2.228   3.728   3.757 -0.0465 -0.9915 -0.7028
  626MOL0     C84400   2.154   3.655   3.663 -0.2561 -0.7029 -0.0366
  626MOL0     C84401   2.044   3.569   3.700  0.0138 -1.0789 -0.2311
  626MOL0     C84402   1.960   3.514   3.601  0.2079 -0.1263  0.5969
  626MOL0     C84403   1.988   3.540   3.462  1.2696  1.0998  1.0864
  626MOL0     C84404   1.894   3.488   3.353  0.0854  0.4462  0.0498
  626MOL0     O84405   1.940   3.507   3.221  0.0310 -0.0316  0.2922
  626MOL0     C84406   1.863   3.478   3.103 -0.5594  1.0100 -0.2990
  626MOL0     C84407   1.937   3.429   2.991  0.7304  1.0316 -0.5844
  626MOL0     C84408   1.865   3.409   2.871 -0.0752 -1.2124  0.0074
  626MOL0     C84409   1.727   3.414   2.870  0.4159  0.2500  0.5689
  626MOL0     O84410   1.672   3.371   2.753 -1.0501 -0.2375 -0.1645
  626MOL0     C84411   1.532   3.347   2.732  0.5826  0.5707 -0.4795
  626MOL0     C84412   1.505   3.233   2.634  0.8673 -0.6077 -0.2939
  626MOL0     C84413   1.522   3.277   2.481 -0.3958  0.2575  0.8667
  626MOL0     C84414   1.664   3.251   2.413  0.8593 -0.6220 -0.4523
  626MOL0     C84415   1.755   3.360   2.445  0.0907 -0.2601 -0.0072
  626MOL0     C84416   1.887   3.363   2.352 -0.0674 -0.5558 -0.3833
  626MOL0     C84417   1.961   3.493   2.386  0.1436  0.6135 -0.1262
  626MOL0     C84418   2.082   3.505   2.288 -0.1626 -0.4513  0.9263
  626MOL0    Cl84419   2.016   3.509   2.119 -0.3105 -0.4582  0.3358
  626MOL0     C84420   1.659   3.454   2.985  0.6405 -0.6188 -0.8775
  626MOL0     C84421   1.725   3.506   3.089  0.5997 -0.0007 -1.1169
  626MOL0     O84422   1.802   3.411   3.385 -0.8192 -0.1887 -0.4002
  626MOL0     C84423   2.091   3.629   3.429  0.1755  0.4749  0.2351
  626MOL0     C84424   2.176   3.683   3.526 -0.3187  0.6333  1.0199
  626MOL0     N84425   2.304   4.238   3.649 -0.5456 -0.1568 -0.2770
  626MOL0     N84426   2.384   4.332   3.643 -0.0682 -0.2783  1.3612
  626MOL0     C84427   2.695   5.590   3.851  0.2473  0.3786  0.4590
  626MOL0     C84428   2.692   5.721   3.813 -0.5099  0.1021 -0.6221
  626MOL0     C84429   2.595   6.109   3.649  0.4951 -0.3414  0.1276
  626MOL0     C84430   2.726   6.158   3.655 -0.6569  0.2182  0.7266
  626MOL0     C84431   2.757   6.294   3.691 -0.2900  0.5523  0.4405
  626MOL0     C84432   2.655   6.383   3.724  0.1247  0.1747 -0.0900
  626MOL0     O84433   2.701   6.520   3.755  0.2793  0.0955 -0.3912
  626MOL0     C84434   2.613   6.613   3.814 -0.0039 -0.2408  0.1052
  626MOL0     C84435   2.694   6.699   3.903 -0.6807 -0.1764  0.1529
  626MOL0     C84436   2.610   6.782   4.003 -0.4843  0.6111 -0.7852
  626MOL0     C84437   2.663   6.920   4.027 -1.0999  0.1559  0.2297
  626MOL0     C84438   2.590   6.993   4.130  0.1357 -0.0816 -0.1955
  626MOL0     C84439   2.530   7.060   4.215 -0.7207 -0.4951  0.3451
  626MOL0     C84440   2.524   6.325   3.721 -0.2246 -0.5104 -0.7175
  626MOL0     C84441   2.488   6.192   3.694  1.0451 -0.2029  0.1379
  626MOL0     C84442   2.335   6.158   3.682  0.8103 -0.5949 -0.7431
  626MOL0     H84443   2.599   5.684   3.492 -1.6402 -0.5352  0.4264
  626MOL0     H84444   2.597   5.444   3.562 -2.2978  1.9156 -1.6297
  626MOL0     H84445   2.821   5.376   3.904 -0.4007  0.8658 -0.2328
  626MOL0     H84446   2.674   5.340   4.000 -0.6168  3.8418 -1.3278
  626MOL0     H84447   2.837   5.132   3.962  1.8032  2.5079 -1.0832
  626MOL0     H84448   2.802   5.152   3.786  0.4772 -2.3401  0.4296
  626MOL0     H84449   2.565   5.131   3.832  0.5604  2.2935  2.6619
  626MOL0     H84450   2.605   5.073   3.999  1.0841  2.0311  0.5748
  626MOL0     H84451   2.733   4.948   3.752 -0.2956 -0.1530  0.8858
  626MOL0     H84452   2.773   4.902   3.907  0.0101 -0.8920  0.9205
  626MOL0     H84453   2.527   4.807   3.943  1.2814 -2.5485  0.6998
  626MOL0     H84454   2.492   4.880   3.781  1.8190  1.4303 -2.1184
  626MOL0     H84455   2.653   4.733   3.682  0.2028 -1.0422  0.4206
  626MOL0     H84456   2.695   4.671   3.843  1.6120  3.1083  0.8329
  626MOL0     H84457   2.430   4.643   3.665 -0.0347 -1.7660 -0.5652
  626MOL0     H84458   2.407   4.646   3.828  1.3254  2.6031  0.2562
  626MOL0     H84459   2.608   4.448   3.702  1.1549 -2.6365  1.2842
  626MOL0     H84460   2.586   4.462   3.863  1.7678 -0.1280 -0.1495
  626MOL0     H84461   2.321   4.345   3.950 -0.2006 -0.4255 -0.3205
  626MOL0     H84462   2.150   4.165   3.945  0.4016  0.3485 -0.0333
  626MOL0     H84463   2.065   4.218   3.800  0.8453  0.0804 -0.5884
  626MOL0     H84464   2.019   4.002   3.822  0.1391  0.7702 -2.4778
  626MOL0     H84465   2.144   3.985   3.701  0.0190  0.6018 -0.8075
  626MOL0     H84466   2.187   3.952   4.001 -1.5680  0.1535 -0.3818
  626MOL0     H84467   2.314   3.940   3.884  0.9512 -1.6822  0.5998
  626MOL0     H84468   2.053   3.761   3.872  0.2705 -3.1222  1.8129
  626MOL0     H84469   2.190   3.710   3.956 -2.5472 -0.2557  0.4872
  626MOL0     H84470   2.009   3.543   3.799 -2.2697  1.9277 -0.1039
  626MOL0     H84471   1.871   3.467   3.642 -0.0478 -1.0004 -0.9053
  626MOL0     H84472   2.046   3.428   2.986  0.8772  2.9853  0.9357
  626MOL0     H84473   1.908   3.373   2.778  1.8843  2.4004 -0.6332
  626MOL0     H84474   1.481   3.321   2.825 -0.3110  2.5506 -0.3750
  626MOL0     H84475   1.490   3.444   2.703 -1.0367 -0.4038 -1.5736
  626MOL0     H84476   1.556   3.140   2.658 -0.3438 -1.8650 -2.3347
  626MOL0     H84477   1.399   3.214   2.651  0.7795  0.4691  0.4778
  626MOL0     H84478   1.455   3.217   2.418  0.5508  2.4999 -2.5606
  626MOL0     H84479   1.485   3.380   2.467 -1.9721  0.0433  2.9844
  626MOL0     H84480   1.659   3.242   2.304  0.9778  5.1251 -1.2674
  626MOL0     H84481   1.712   3.162   2.453  0.7612  0.0311  1.1866
  626MOL0     H84482   1.775   3.368   2.553  0.1425  1.8939 -0.1391
  626MOL0     H84483   1.710   3.458   2.427  0.4151  0.2150  1.5505
  626MOL0     H84484   1.950   3.276   2.372 -0.5573 -0.2908  2.9053
  626MOL0     H84485   1.860   3.349   2.247 -0.6419 -0.7951 -0.2072
  626MOL0     H84486   1.991   3.476   2.490 -1.5153  0.6700  0.3853
  626MOL0     H84487   1.903   3.586   2.394  1.1189  1.1072  1.8917
  626MOL0     H84488   2.131   3.599   2.313  3.0908 -2.0436  1.1367
  626MOL0     H84489   2.155   3.423   2.292  1.4999  0.8932 -0.2357
  626MOL0     H84490   1.551   3.454   2.997  0.8986 -1.2641  2.1640
  626MOL0     H84491   1.672   3.534   3.180 -3.0071 -1.5574 -2.5515
  626MOL0     H84492   2.116   3.663   3.329  1.1395  0.0209  0.3037
  626MOL0     H84493   2.250   3.762   3.517  2.5448 -1.9657 -0.1684
  626MOL0     H84494   2.714   5.572   3.957 -0.0831  0.2705  0.5006
  626MOL0     H84495   2.732   5.806   3.868 -2.1310  1.8225 -1.9510
  626MOL0     H84496   2.814   6.110   3.613 -0.1763  2.1033 -0.5114
  626MOL0     H84497   2.850   6.348   3.674 -2.0909  3.0334 -2.6072
  626MOL0     H84498   2.531   6.555   3.859 -1.6831 -3.7522 -6.2952
  626MOL0     H84499   2.568   6.678   3.738  0.3211 -1.7340 -1.4220
  626MOL0     H84500   2.760   6.767   3.848 -0.5706 -1.3561 -1.2514
  626MOL0     H84501   2.767   6.640   3.959  0.7881  1.5980  0.2153
  626MOL0     H84502   2.608   6.720   4.093  0.7220  1.2898 -0.2822
  626MOL0     H84503   2.504   6.796   3.977 -0.8431  0.1725  0.3744
  626MOL0     H84504   2.765   6.906   4.064 -0.6915  0.8751 -0.5887
  626MOL0     H84505   2.660   6.971   3.931  0.6796 -0.9881 -0.4814
  626MOL0     H84506   2.471   7.102   4.294 -1.9818 -0.2863 -0.6710
  626MOL0     H84507   2.438   6.391   3.730 -0.4258 -0.8654 -0.0096
  626MOL0     H84508   2.289   6.221   3.760  1.1524 -1.1694 -0.0620
  626MOL0     H84509   2.283   6.169   3.587 -3.6765 -5.6354  0.6342
  626MOL0     H84510   2.312   6.058   3.720 -0.2927 -0.4137 -0.9102
  627MOL0     O84511   7.426  11.393   7.646  0.2971  0.0144 -0.1669
  627MOL0     C84512   7.517  11.446   7.578  0.2629  0.0834  0.4531
  627MOL0     O84513   7.596  11.375   7.500 -0.4581  0.3904  0.5394
  627MOL0     C84514   7.587  11.240   7.494  0.5603 -0.1144 -0.1809
  627MOL0     C84515   7.688  11.168   7.565  0.3748 -0.7194 -0.0128
  627MOL0     C84516   7.669  11.024   7.565  0.4041  0.3242  0.1160
  627MOL0     C84517   7.558  10.966   7.499 -0.5566 -0.2047  0.2740
  627MOL0     O84518   7.528  10.833   7.520  0.1284 -1.5027  0.4414
  627MOL0     C84519   7.608  10.748   7.605 -0.5846 -0.5671  0.1573
  627MOL0     C84520   7.721  10.693   7.533 -0.2082 -0.0038  0.4985
  627MOL0     C84521   7.793  10.568   7.603 -0.1661 -0.3308 -0.4671
  627MOL0     C84522   7.935  10.593   7.636 -0.4657  0.0783  0.1262
  627MOL0     C84523   7.956  10.696   7.748 -0.0982  0.2377 -0.4647
  627MOL0     C84524   7.928  10.624   7.887 -0.0535  0.0032  0.7005
  627MOL0     C84525   7.977  10.718   7.995 -0.1072 -0.9233 -0.5599
  627MOL0     C84526   7.972  10.656   8.129  0.3556 -0.8333 -0.0694
  627MOL0     N84527   8.028  10.751   8.223  0.1251 -0.0612 -0.6065
  627MOL0     C84528   7.943  10.822   8.303 -0.2115 -0.8546  0.2447
  627MOL0     C84529   8.031  10.859   8.401 -0.0601 -0.0040  0.2075
  627MOL0     C84530   7.973  10.921   8.527  0.2190 -0.6365 -0.4521
  627MOL0     C84531   7.992  11.071   8.524  0.2330  0.4964 -0.3917
  627MOL0     C84532   7.896  11.126   8.411 -0.8769 -0.0835  0.0026
  627MOL0     C84533   7.905  11.275   8.386 -0.0437 -0.3857 -0.5138
  627MOL0     O84534   8.040  11.328   8.357 -0.2043  0.7467  0.1270
  627MOL0     C84535   8.049  11.437   8.279  0.7902  0.0725 -0.0806
  627MOL0     C84536   7.948  11.537   8.260 -0.0748  0.0012  0.2623
  627MOL0     C84537   7.968  11.632   8.159  0.3601 -0.7436  0.2262
  627MOL0     C84538   8.094  11.646   8.095 -0.2536 -1.6608  0.4431
  627MOL0     C84539   8.126  11.757   8.004  0.4686 -0.9016 -0.6738
  627MOL0     O84540   8.024  11.864   7.997 -0.1757  0.1399  0.6103
  627MOL0     C84541   8.050  11.968   7.917  0.2662  0.0795  0.1789
  627MOL0     C84542   8.169  12.041   7.936 -0.0834  0.2998  0.7095
  627MOL0     C84543   8.197  12.139   7.839 -0.6605  0.8891 -0.1583
  627MOL0     C84544   8.096  12.177   7.737 -1.0225  1.3378 -0.4140
  627MOL0     O84545   8.132  12.280   7.654  0.0944 -0.4024  0.5740
  627MOL0     C84546   8.257  12.258   7.583 -0.5462  0.0990  0.5683
  627MOL0     C84547   8.238  12.286   7.438 -0.5783  1.1523 -0.6160
  627MOL0     C84548   8.370  12.252   7.373 -0.6768 -0.2617  0.4633
  627MOL0     C84549   8.361  12.256   7.225 -0.1223 -0.4976 -0.0908
  627MOL0     C84550   8.493  12.265   7.161 -0.4435  0.2792  0.3390
  627MOL0     C84551   8.502  12.261   7.004 -0.1135 -0.3401  0.4135
  627MOL0     C84552   8.399  12.346   6.929  0.0770 -0.4620  0.8497
  627MOL0     C84553   8.391  12.497   6.972 -0.3462  0.2316  0.5970
  627MOL0    Cl84554   8.244  12.572   6.892 -0.1776  0.2257  0.1891
  627MOL0     C84555   7.975  12.105   7.728  1.0929 -0.2307  0.4582
  627MOL0     C84556   7.957  12.001   7.813  0.2542 -0.3654 -0.5322
  627MOL0     O84557   8.233  11.757   7.943  0.2083 -0.2487 -0.4865
  627MOL0     C84558   8.195  11.557   8.131  0.3258  0.4133  0.4970
  627MOL0     C84559   8.163  11.447   8.215  0.4056  0.4521  0.3807
  627MOL0     N84560   8.166  10.822   8.372  0.1055  0.3198  0.7571
  627MOL0     N84561   8.157  10.752   8.263  0.1060  0.4794 -0.4001
  627MOL0     C84562   7.465  11.051   7.431 -0.1913 -0.2081  0.0395
  627MOL0     C84563   7.485  11.185   7.419  0.3630 -0.4016  0.3853
  627MOL0     C84564   7.519  11.596   7.559 -0.2513  1.1546  0.2055
  627MOL0     C84565   7.597  11.648   7.451 -0.7502  0.7627 -0.4726
  627MOL0     C84566   7.603  11.782   7.421 -0.3111 -0.1912 -0.0980
  627MOL0     C84567   7.537  11.873   7.502 -0.6403 -0.0872  0.4300
  627MOL0     O84568   7.520  12.010   7.473  0.0080 -0.3401 -0.2036
  627MOL0     C84569   7.559  12.057   7.348 -0.3132 -1.2766  0.6761
  627MOL0     C84570   7.537  12.218   7.342  0.4124  1.1501 -0.5952
  627MOL0     C84571   7.523  12.263   7.198  0.2225  0.1395  0.4079
  627MOL0     C84572   7.526  12.414   7.198 -0.1003  0.0319 -0.0493
  627MOL0     C84573   7.493  12.479   7.070  0.3422 -0.7122 -0.2243
  627MOL0     C84574   7.466  12.546   6.973  1.0645 -0.3234  0.5173
  627MOL0     C84575   7.470  11.820   7.622  0.2421  0.0939  0.0543
  627MOL0     C84576   7.460  11.687   7.650  0.4598 -0.4861 -0.6663
  627MOL0     C84577   7.363  11.646   7.763 -0.1225 -0.6224  0.2333
  627MOL0     H84578   7.765  11.224   7.619  0.6512 -1.8196  0.7739
  627MOL0     H84579   7.746  10.968   7.619  1.3527 -0.1290 -1.6242
  627MOL0     H84580   7.641  10.800   7.695 -1.6885 -1.3994  1.0728
  627MOL0     H84581   7.534  10.672   7.633 -2.1482  0.5706 -0.7140
  627MOL0     H84582   7.798  10.766   7.507 -1.0377  0.1038 -1.8841
  627MOL0     H84583   7.688  10.657   7.435  0.9867  0.2376 -0.0083
  627MOL0     H84584   7.775  10.490   7.529 -3.5433  0.5894 -0.7843
  627MOL0     H84585   7.743  10.534   7.694 -2.2107  0.2307 -1.3132
  627MOL0     H84586   7.993  10.503   7.662 -2.7096 -1.6086 -0.4028
  627MOL0     H84587   7.971  10.633   7.542  1.7534  1.7487  1.5864
  627MOL0     H84588   8.060  10.729   7.738 -0.1398  1.6777  2.4339
  627MOL0     H84589   7.884  10.779   7.744 -0.1776  0.3503  1.7499
  627MOL0     H84590   7.819  10.613   7.893 -0.5106  1.7636 -2.3911
  627MOL0     H84591   7.960  10.520   7.895 -2.3626 -0.9442 -1.1303
  627MOL0     H84592   7.929  10.815   8.007  0.1262 -0.8390 -0.2979
  627MOL0     H84593   8.083  10.717   7.967 -0.0467 -4.2918 -0.6921
  627MOL0     H84594   7.865  10.642   8.150  0.0180 -0.9391 -1.7146
  627MOL0     H84595   8.034  10.567   8.141 -0.9998 -1.5086  2.8983
  627MOL0     H84596   7.835  10.833   8.294 -0.4083 -2.3261  0.5297
  627MOL0     H84597   7.867  10.901   8.542 -0.6611  2.6069 -1.5926
  627MOL0     H84598   8.020  10.870   8.612 -0.8228 -1.2132 -0.1983
  627MOL0     H84599   7.970  11.119   8.620  2.8506 -0.5379  0.8004
  627MOL0     H84600   8.097  11.100   8.515  0.2492  0.4703 -0.2907
  627MOL0     H84601   7.798  11.097   8.449 -1.1814  1.1264  0.1973
  627MOL0     H84602   7.907  11.090   8.308 -1.9391 -0.3675 -0.0248
  627MOL0     H84603   7.876  11.339   8.470  2.4696  2.5156 -1.6555
  627MOL0     H84604   7.828  11.313   8.319 -1.1794 -1.5991  0.0413
  627MOL0     H84605   7.853  11.532   8.314  1.9828 -1.0021  4.1784
  627MOL0     H84606   7.887  11.697   8.129  3.8277  3.7087 -0.7540
  627MOL0     H84607   8.241  12.010   8.011 -1.3163 -1.2944  1.2834
  627MOL0     H84608   8.294  12.188   7.837  0.1065 -0.5784 -0.8087
  627MOL0     H84609   8.335  12.326   7.619 -0.2598 -1.1079  2.3947
  627MOL0     H84610   8.292  12.154   7.582 -0.3873  0.1375  1.3264
  627MOL0     H84611   8.160  12.217   7.405  1.4131 -1.6468  0.1550
  627MOL0     H84612   8.216  12.390   7.411  2.2245  1.6328 -1.3315
  627MOL0     H84613   8.447  12.323   7.406  1.7926 -1.4332 -2.2563
  627MOL0     H84614   8.403  12.150   7.398  1.9091  0.6589  1.1823
  627MOL0     H84615   8.298  12.344   7.208 -1.4640 -0.9574  2.2357
  627MOL0     H84616   8.316  12.163   7.189  0.4645 -0.2431 -1.5827
  627MOL0     H84617   8.557  12.189   7.209 -2.2862 -2.1932 -0.8951
  627MOL0     H84618   8.540  12.359   7.192  2.4504 -0.5709 -1.0849
  627MOL0     H84619   8.600  12.284   6.961 -0.1703 -0.3033  0.3024
  627MOL0     H84620   8.486  12.155   6.980 -0.0941 -0.1329 -0.5581
  627MOL0     H84621   8.301  12.298   6.933  0.3690 -1.1084  0.3784
  627MOL0     H84622   8.417  12.331   6.822 -0.0626  1.3937  0.5343
  627MOL0     H84623   8.392  12.493   7.081 -1.6960 -0.3896  0.6143
  627MOL0     H84624   8.471  12.560   6.933  1.0333 -0.9906  1.3528
  627MOL0     H84625   7.913  12.126   7.642  2.3084 -0.8972 -0.6158
  627MOL0     H84626   7.863  11.945   7.814  0.4514 -0.6966  0.2651
  627MOL0     H84627   8.300  11.557   8.102  0.7922 -3.0861  1.6438
  627MOL0     H84628   8.243  11.374   8.226 -2.2187 -2.2703  4.3796
  627MOL0     H84629   7.374  11.007   7.390 -1.0915  1.8148 -0.2359
  627MOL0     H84630   7.422  11.237   7.348  0.7114 -1.1094 -0.4607
  627MOL0     H84631   7.647  11.579   7.384 -0.2604 -0.0211  0.6478
  627MOL0     H84632   7.659  11.827   7.340  1.1095  0.9598  1.4373
  627MOL0     H84633   7.504  12.008   7.267 -1.7950  0.5856  0.4894
  627MOL0     H84634   7.667  12.041   7.344  0.3462  2.1764  1.6589
  627MOL0     H84635   7.612  12.282   7.390 -1.1221  2.3557  0.2837
  627MOL0     H84636   7.441  12.242   7.387  0.6797 -0.0505  0.6731
  627MOL0     H84637   7.429  12.221   7.160  0.4198 -1.9367  2.0852
  627MOL0     H84638   7.606  12.228   7.136  1.6457  0.0780  2.2610
  627MOL0     H84639   7.457  12.452   7.274 -2.3507 -1.7826 -1.0605
  627MOL0     H84640   7.629  12.445   7.217 -0.5603  2.0341 -0.5642
  627MOL0     H84641   7.442  12.621   6.900  0.1310 -1.4294 -0.3449
  627MOL0     H84642   7.418  11.890   7.687  0.0349  0.2105 -0.2381
  627MOL0     H84643   7.418  11.572   7.822  1.2083  0.3219  0.2126
  627MOL0     H84644   7.345  11.730   7.831  0.5641  0.9900 -1.5280
  627MOL0     H84645   7.269  11.603   7.729 -2.0214  2.5945  0.9809
  628MOL0     O84646   2.753   4.752   1.174  0.0838 -0.0985 -0.1985
  628MOL0     C84647   2.692   4.693   1.262 -0.0460  0.6129 -0.5455
  628MOL0     O84648   2.722   4.705   1.398  0.5638  0.9523 -0.9158
  628MOL0     C84649   2.849   4.746   1.432 -0.3664 -0.4765 -0.3053
  628MOL0     C84650   2.864   4.839   1.532  0.4170 -1.2147 -0.1966
  628MOL0     C84651   2.984   4.902   1.565 -0.3165 -0.0911  0.4304
  628MOL0     C84652   3.095   4.843   1.499 -0.1777 -0.1546 -0.6727
  628MOL0     O84653   3.218   4.874   1.521 -0.4469  0.2520 -0.0540
  628MOL0     C84654   3.261   4.896   1.652  0.6007 -0.2222  0.4114
  628MOL0     C84655   3.231   4.774   1.742  1.0024 -0.5592 -0.9641
  628MOL0     C84656   3.284   4.792   1.884  0.4047 -0.0653 -0.0772
  628MOL0     C84657   3.337   4.668   1.957 -0.2812  0.4781  0.0028
  628MOL0     C84658   3.355   4.702   2.111 -0.8321 -1.0294 -0.2901
  628MOL0     C84659   3.241   4.693   2.217 -0.7087 -0.2050  0.7488
  628MOL0     C84660   3.178   4.551   2.232  0.2027 -0.0141  0.6298
  628MOL0     C84661   3.047   4.568   2.321 -0.6735 -0.0997  0.1202
  628MOL0     N84662   2.992   4.429   2.326 -1.1443 -0.5398  0.2728
  628MOL0     C84663   2.971   4.366   2.444  0.2500  0.3198 -0.0621
  628MOL0     C84664   2.984   4.235   2.419  1.1573 -0.4885 -0.2884
  628MOL0     C84665   2.935   4.122   2.509 -0.3190  1.2023 -0.6601
  628MOL0     C84666   2.884   4.010   2.427  0.1172  0.3078 -0.2276
  628MOL0     C84667   2.802   3.908   2.517 -0.2381 -0.1800  0.0215
  628MOL0     C84668   2.797   3.772   2.456 -0.5906  0.6389  0.2286
  628MOL0     O84669   2.936   3.728   2.445  0.5599 -0.7179  0.8966
  628MOL0     C84670   2.962   3.660   2.330  0.2889 -0.6518  0.7286
  628MOL0     C84671   3.086   3.685   2.268 -0.8940  0.3091 -0.5498
  628MOL0     C84672   3.128   3.631   2.141 -0.2336 -0.7619  0.2228
  628MOL0     C84673   3.046   3.542   2.082 -0.9251  0.3737  0.1030
  628MOL0     C84674   3.089   3.496   1.950  0.7682  0.4837  0.2195
  628MOL0     O84675   3.169   3.571   1.860  0.1151 -0.7770  0.6925
  628MOL0     C84676   3.214   3.522   1.736 -0.9974  0.2636 -0.8869
  628MOL0     C84677   3.235   3.612   1.633  0.3854 -0.7291 -0.3452
  628MOL0     C84678   3.288   3.582   1.504  1.3065 -0.4330  0.4076
  628MOL0     C84679   3.309   3.444   1.483 -0.7977 -0.0892 -0.9514
  628MOL0     O84680   3.347   3.390   1.360 -0.4454  0.5402  0.5464
  628MOL0     C84681   3.383   3.485   1.261 -0.4070 -0.1079  0.6424
  628MOL0     C84682   3.456   3.416   1.142 -0.3685 -0.0320 -0.5230
  628MOL0     C84683   3.360   3.305   1.086 -1.1164  0.9280  0.0853
  628MOL0     C84684   3.424   3.163   1.120 -0.1262 -0.0547 -0.2616
  628MOL0     C84685   3.347   3.053   1.051  0.4400 -1.2387  0.3852
  628MOL0     C84686   3.393   2.919   1.103 -0.3960 -0.1457 -0.7469
  628MOL0     C84687   3.539   2.893   1.045  0.2943 -0.3389 -0.5386
  628MOL0     C84688   3.566   2.769   0.961 -0.6898  0.6832 -0.1976
  628MOL0    Cl84689   3.468   2.761   0.817 -0.2673 -0.1622  0.3053
  628MOL0     C84690   3.308   3.356   1.590 -0.3356  0.6663 -0.1737
  628MOL0     C84691   3.249   3.391   1.711  0.0379  0.1824 -0.3336
  628MOL0     O84692   3.027   3.387   1.924 -0.2673 -0.1567 -0.5860
  628MOL0     C84693   2.923   3.517   2.149  0.5763  0.4131  0.3028
  628MOL0     C84694   2.879   3.564   2.268  0.0627 -0.1573  1.1337
  628MOL0     N84695   3.001   4.225   2.280 -0.5968  1.2266  0.4486
  628MOL0     N84696   2.993   4.341   2.225 -0.5450  0.1154  0.2002
  628MOL0     C84697   3.085   4.742   1.410 -0.1355 -0.7200  0.1086
  628MOL0     C84698   2.965   4.690   1.386  0.6967 -0.0409  0.0006
  628MOL0     C84699   2.589   4.590   1.235 -0.1001 -0.3769  0.0220
  628MOL0     C84700   2.537   4.525   1.340  0.1225 -0.0799 -0.3368
  628MOL0     C84701   2.445   4.427   1.319 -0.1766  1.1686  0.3232
  628MOL0     C84702   2.408   4.381   1.191  0.4687 -0.2088  0.5504
  628MOL0     O84703   2.314   4.284   1.185 -0.3424 -0.0156 -0.3762
  628MOL0     C84704   2.332   4.194   1.071 -0.2185  0.3908 -1.2606
  628MOL0     C84705   2.295   4.054   1.087  0.4398  0.7250  0.5137
  628MOL0     C84706   2.150   4.017   1.094 -0.4979  0.1600 -0.3656
  628MOL0     C84707   2.069   4.055   0.967  0.3443  0.3449 -0.3420
  628MOL0     C84708   2.135   4.021   0.836  0.2035 -0.6512 -0.9466
  628MOL0     C84709   2.196   3.988   0.739 -0.7287 -1.2134 -0.2216
  628MOL0     C84710   2.461   4.453   1.086 -0.3253  0.7499 -0.3280
  628MOL0     C84711   2.550   4.558   1.099 -0.2845 -0.1793 -0.1234
  628MOL0     C84712   2.589   4.629   0.971  0.8297  0.1545  0.0266
  628MOL0     H84713   2.780   4.886   1.581 -0.0955 -0.2461 -1.9256
  628MOL0     H84714   2.994   4.989   1.628 -2.3737  1.0817 -0.7747
  628MOL0     H84715   3.367   4.914   1.633  0.1993  1.5764 -0.3980
  628MOL0     H84716   3.229   4.995   1.686  0.6982  0.4105 -1.2442
  628MOL0     H84717   3.278   4.684   1.704 -0.2428 -1.7641  0.2062
  628MOL0     H84718   3.126   4.744   1.753  1.9230 -3.1165  2.4672
  628MOL0     H84719   3.206   4.837   1.946  1.7366 -0.0064  1.6286
  628MOL0     H84720   3.365   4.866   1.887  1.3028 -1.0557  1.3212
  628MOL0     H84721   3.282   4.574   1.946 -1.2601  0.6264  2.8137
  628MOL0     H84722   3.435   4.649   1.912 -0.6201 -0.4778 -0.3450
  628MOL0     H84723   3.420   4.622   2.148 -1.3724 -2.3413 -2.0022
  628MOL0     H84724   3.409   4.796   2.121 -0.0314 -1.2749 -1.9358
  628MOL0     H84725   3.280   4.718   2.315  0.6415 -1.6744  0.6322
  628MOL0     H84726   3.166   4.768   2.190 -2.2553 -2.4151 -1.6847
  628MOL0     H84727   3.247   4.478   2.275 -1.1054 -1.4134  0.4374
  628MOL0     H84728   3.154   4.507   2.135 -0.0129  0.1452  0.6120
  628MOL0     H84729   3.083   4.611   2.415  0.8895  1.3567 -1.0735
  628MOL0     H84730   2.973   4.624   2.263 -1.0397 -1.9036 -1.2472
  628MOL0     H84731   2.952   4.416   2.539  4.4336 -0.5588  1.4474
  628MOL0     H84732   3.019   4.088   2.570 -0.1155  2.7879 -0.0191
  628MOL0     H84733   2.857   4.154   2.580 -0.9499  2.8190 -2.0094
  628MOL0     H84734   2.823   4.054   2.347  0.7432  0.7168 -0.4977
  628MOL0     H84735   2.967   3.964   2.372  0.5575  1.4408 -0.5550
  628MOL0     H84736   2.699   3.941   2.536  0.4059  1.1181  1.4776
  628MOL0     H84737   2.846   3.908   2.617 -1.2154  0.9501  0.4838
  628MOL0     H84738   2.747   3.800   2.362 -0.6269  3.7156  1.0357
  628MOL0     H84739   2.741   3.690   2.501  1.3276 -2.1517 -2.1231
  628MOL0     H84740   3.150   3.763   2.307 -2.5158  1.1262  0.6128
  628MOL0     H84741   3.221   3.665   2.096 -0.9115  2.4232  0.9618
  628MOL0     H84742   3.212   3.716   1.655 -1.1758 -1.5259  2.1529
  628MOL0     H84743   3.294   3.655   1.424  1.3239 -1.2999 -0.4130
  628MOL0     H84744   3.300   3.550   1.230  0.2665  0.4601 -0.0020
  628MOL0     H84745   3.463   3.546   1.301  1.1961 -2.5398  1.3661
  628MOL0     H84746   3.458   3.486   1.058 -0.0334  0.2946 -0.2463
  628MOL0     H84747   3.555   3.381   1.173  0.9770  3.9007  0.2153
  628MOL0     H84748   3.260   3.321   1.127 -2.1843 -3.9023 -0.0472
  628MOL0     H84749   3.366   3.316   0.977 -1.9155 -2.9308 -0.4658
  628MOL0     H84750   3.421   3.146   1.228 -2.7515  2.5273  0.1779
  628MOL0     H84751   3.530   3.161   1.092 -0.1696  1.6544 -0.6599
  628MOL0     H84752   3.370   3.066   0.945  1.9153 -2.4859  0.5260
  628MOL0     H84753   3.241   3.064   1.074  0.3080  2.4454 -1.2049
  628MOL0     H84754   3.392   2.929   1.212 -0.8283 -0.5595 -0.7062
  628MOL0     H84755   3.338   2.826   1.083 -0.0873 -0.5032  0.0379
  628MOL0     H84756   3.606   2.881   1.131  2.8574  3.1095 -1.8337
  628MOL0     H84757   3.576   2.977   0.986 -0.5606  0.1226 -0.4318
  628MOL0     H84758   3.667   2.788   0.925 -0.1688  0.1232  0.9041
  628MOL0     H84759   3.566   2.675   1.017  1.5959  2.1952  2.6032
  628MOL0     H84760   3.323   3.251   1.567  0.2980  1.2669 -2.8115
  628MOL0     H84761   3.249   3.307   1.779 -2.5219 -2.9139 -3.7793
  628MOL0     H84762   2.871   3.439   2.095  0.7543  0.3969  0.1519
  628MOL0     H84763   2.774   3.551   2.290 -0.8990  0.0583 -2.6805
  628MOL0     H84764   3.165   4.690   1.357  0.4272  0.7056 -0.4748
  628MOL0     H84765   2.951   4.617   1.307  2.5670  0.9635 -1.3366
  628MOL0     H84766   2.573   4.553   1.439  2.6950  2.2818 -1.8051
  628MOL0     H84767   2.396   4.393   1.410 -2.4427 -1.0177 -1.5711
  628MOL0     H84768   2.437   4.203   1.041  0.3521  2.2080  0.9368
  628MOL0     H84769   2.293   4.238   0.978 -1.2447  0.3118 -0.8677
  628MOL0     H84770   2.343   4.004   1.173 -0.5816 -2.0932 -0.4648
  628MOL0     H84771   2.335   4.004   0.999 -0.2197 -0.9284  1.1226
  628MOL0     H84772   2.109   4.064   1.184  2.4082  0.0986  1.0836
  628MOL0     H84773   2.138   3.909   1.111  1.5918  0.1860  1.7206
  628MOL0     H84774   1.972   4.011   0.990  0.4391  1.4518  2.6146
  628MOL0     H84775   2.051   4.163   0.957 -2.2198 -0.0184 -0.3504
  628MOL0     H84776   2.253   3.954   0.655  3.8917 -0.2173  2.1751
  628MOL0     H84777   2.424   4.432   0.986 -0.4099  0.3482 -0.2145
  628MOL0     H84778   2.565   4.732   0.998  0.2336 -0.4353  1.8860
  628MOL0     H84779   2.695   4.611   0.953  0.5170 -0.7783 -1.0444
  628MOL0     H84780   2.528   4.600   0.884  3.8270  0.0043 -2.1810
  629MOL0     O84781   0.562   2.605  10.748 -0.2093 -0.8184 -0.3680
  629MOL0     C84782   0.508   2.658  10.844  0.3956 -0.9031 -0.5014
  629MOL0     O84783   0.447   2.580  10.934 -0.3778  0.6302 -0.0658
  629MOL0     C84784   0.339   2.625  11.010  0.0394 -0.6269  0.1892
  629MOL0     C84785   0.361   2.729  11.104  0.2972  0.4475  0.3274
  629MOL0     C84786   0.258   2.774  11.183  0.1007 -0.0987  0.1057
  629MOL0     C84787   0.129   2.716  11.173  0.6063  0.3110 -0.1510
  629MOL0     O84788   0.022   2.765  11.254  0.8325 -0.2156  0.4842
  629MOL0     C84789  -0.115   2.737  11.221  0.3593  0.1968  0.2535
  629MOL0     C84790  -0.190   2.821  11.319  0.3862 -0.0552 -0.4736
  629MOL0     C84791  -0.340   2.790  11.310 -0.1235 -0.6353  0.1071
  629MOL0     C84792  -0.412   2.887  11.415 -0.0724  0.0477  0.0441
  629MOL0     C84793  -0.559   2.841  11.451 -0.2153 -0.1078 -0.2384
  629MOL0     C84794  -0.660   2.961  11.421 -0.3027  0.3089 -0.1896
  629MOL0     C84795  -0.779   2.925  11.521 -0.1245 -0.0203  0.4678
  629MOL0     C84796  -0.846   2.799  11.475  0.7077  0.0649  0.6158
  629MOL0     N84797  -0.965   2.774  11.562 -0.3523 -0.3711  0.5447
  629MOL0     C84798  -0.968   2.704  11.683 -0.0143  0.3378  0.2361
  629MOL0     C84799  -1.097   2.718  11.728  0.2889  0.9515 -0.8056
  629MOL0     C84800  -1.157   2.643  11.838  0.5593 -0.3998  0.2378
  629MOL0     C84801  -1.093   2.687  11.968  0.0415 -0.3322  0.5885
  629MOL0     C84802  -1.150   2.820  12.011 -0.1677 -0.0096  0.5621
  629MOL0     C84803  -1.051   2.905  12.100  1.1873  0.7278 -0.9403
  629MOL0     O84804  -1.009   2.818  12.214 -0.8554 -0.1722  0.3943
  629MOL0     C84805  -0.992   2.879  12.335 -0.8644  0.6103 -0.0205
  629MOL0     C84806  -1.043   2.813  12.452 -0.3333  0.0448 -0.0017
  629MOL0     C84807  -1.037   2.877  12.575 -0.4509 -0.2581  0.5430
  629MOL0     C84808  -0.981   3.009  12.591 -0.2545  0.7210 -0.1614
  629MOL0     C84809  -0.972   3.082  12.723  0.3091 -0.0184 -0.1969
  629MOL0     O84810  -1.011   3.013  12.831  0.5835 -0.1847  0.3433
  629MOL0     C84811  -1.055   3.062  12.950 -0.6936 -0.4554 -0.1483
  629MOL0     C84812  -1.157   2.987  13.013 -0.2261  0.2120 -0.5350
  629MOL0     C84813  -1.216   3.019  13.134  0.0236 -0.0459  0.6092
  629MOL0     C84814  -1.161   3.132  13.202 -0.0854 -0.2693  0.7633
  629MOL0     O84815  -1.209   3.160  13.323 -0.1076 -0.6370 -0.5571
  629MOL0     C84816  -1.274   3.293  13.336 -0.1721 -1.0886 -0.7021
  629MOL0     C84817  -1.394   3.313  13.250  0.3080 -0.0834  0.2513
  629MOL0     C84818  -1.491   3.430  13.291 -0.1562  1.7738 -0.7209
  629MOL0     C84819  -1.574   3.389  13.417  0.3891 -0.7416  0.2628
  629MOL0     C84820  -1.668   3.504  13.458 -0.0170 -0.5405  0.1046
  629MOL0     C84821  -1.730   3.488  13.593  0.2070 -0.4809  0.2292
  629MOL0     C84822  -1.645   3.518  13.718  0.5371 -0.1530  0.6126
  629MOL0     C84823  -1.711   3.464  13.849 -0.7217 -0.0565 -0.8693
  629MOL0    Cl84824  -1.774   3.298  13.828  0.1769 -0.0234 -0.0770
  629MOL0     C84825  -1.063   3.217  13.136 -0.2130 -0.0960  0.3273
  629MOL0     C84826  -1.013   3.181  13.013  0.6265  0.4071  0.5311
  629MOL0     O84827  -0.921   3.190  12.724  0.3490 -0.6830  0.2149
  629MOL0     C84828  -0.927   3.068  12.480  1.3474 -0.3837 -0.3145
  629MOL0     C84829  -0.933   3.012  12.351 -0.6959 -0.3949 -0.2461
  629MOL0     N84830  -1.162   2.805  11.647 -0.4998 -0.3173  0.2866
  629MOL0     N84831  -1.088   2.823  11.542  0.0814 -0.5274 -0.2310
  629MOL0     C84832   0.112   2.611  11.077 -0.0040  0.0562 -0.3743
  629MOL0     C84833   0.212   2.567  10.995 -0.4292  0.8028  0.1812
  629MOL0     C84834   0.517   2.806  10.867  0.2023  0.2990  0.6746
  629MOL0     C84835   0.411   2.888  10.818  0.2068 -0.8745 -0.3139
  629MOL0     C84836   0.423   3.026  10.823  0.3917 -0.2400  0.7005
  629MOL0     C84837   0.545   3.083  10.874  0.5123  1.0067 -0.1005
  629MOL0     O84838   0.570   3.219  10.879  0.0332 -0.7659  0.7433
  629MOL0     C84839   0.471   3.297  10.942  0.6995 -1.2757  0.0115
  629MOL0     C84840   0.461   3.279  11.094 -0.8857  0.4695 -0.6973
  629MOL0     C84841   0.379   3.382  11.172  0.3208 -0.6761 -0.0710
  629MOL0     C84842   0.403   3.366  11.328 -0.1021 -0.4968 -0.6499
  629MOL0     C84843   0.300   3.277  11.382  1.1777 -0.3954  0.7798
  629MOL0     C84844   0.215   3.198  11.429 -0.2088 -0.1125 -0.5080
  629MOL0     C84845   0.653   2.996  10.895  1.0024 -0.2952 -0.1578
  629MOL0     C84846   0.642   2.860  10.896  0.1661  0.4969 -0.2250
  629MOL0     C84847   0.763   2.777  10.941  0.4934  0.1833 -0.7156
  629MOL0     H84848   0.459   2.774  11.120  0.7638 -1.1940  2.6573
  629MOL0     H84849   0.274   2.850  11.259 -0.5756  0.1908 -0.0361
  629MOL0     H84850  -0.145   2.754  11.118  1.0241  2.0073  0.3283
  629MOL0     H84851  -0.115   2.629  11.240 -1.1355  0.1324 -0.0406
  629MOL0     H84852  -0.181   2.926  11.291 -1.3052 -0.2305 -1.8631
  629MOL0     H84853  -0.153   2.799  11.420 -0.7551  0.9365  0.1906
  629MOL0     H84854  -0.363   2.689  11.344 -2.8578  0.7247  2.8054
  629MOL0     H84855  -0.391   2.808  11.214 -4.5343  2.6158  2.6871
  629MOL0     H84856  -0.357   2.899  11.509  1.2617  2.0878 -0.9247
  629MOL0     H84857  -0.423   2.984  11.365  1.7994  1.2863  1.8791
  629MOL0     H84858  -0.579   2.758  11.383  1.8880  0.0452 -1.1323
  629MOL0     H84859  -0.553   2.816  11.557 -0.2655 -1.8697 -0.6114
  629MOL0     H84860  -0.615   3.056  11.451 -0.7291  0.5861 -0.4117
  629MOL0     H84861  -0.683   2.962  11.314  0.8693 -0.6421 -0.4724
  629MOL0     H84862  -0.861   2.998  11.523  0.3410  0.4870  1.7960
  629MOL0     H84863  -0.742   2.926  11.624  2.6508  0.9986 -0.4687
  629MOL0     H84864  -0.865   2.801  11.367  0.4744 -2.5037  0.5430
  629MOL0     H84865  -0.788   2.707  11.487 -1.4737 -1.5972 -0.7940
  629MOL0     H84866  -0.888   2.638  11.717 -0.9229 -0.7684  0.2805
  629MOL0     H84867  -1.265   2.659  11.842  0.5539  0.1741 -1.3950
  629MOL0     H84868  -1.128   2.538  11.830 -0.9051 -0.8811  0.8778
  629MOL0     H84869  -1.129   2.616  12.043 -0.8998 -0.6717 -0.1691
  629MOL0     H84870  -0.984   2.690  11.963  0.0576 -1.8138 -1.3816
  629MOL0     H84871  -1.247   2.797  12.056  0.2193 -1.9615  0.4859
  629MOL0     H84872  -1.175   2.881  11.924  0.5658  1.0221  1.0557
  629MOL0     H84873  -1.119   2.982  12.139  1.3690  1.3437 -1.7973
  629MOL0     H84874  -0.967   2.949  12.044  1.4581  0.9234 -0.3841
  629MOL0     H84875  -1.066   2.707  12.451  2.0811 -0.6850 -5.0494
  629MOL0     H84876  -1.079   2.833  12.665 -2.5125 -0.8210 -0.6221
  629MOL0     H84877  -1.168   2.892  12.961 -0.5892 -0.6299  1.0116
  629MOL0     H84878  -1.300   2.958  13.164 -2.5550  2.7094 -0.4269
  629MOL0     H84879  -1.308   3.298  13.440  1.4580 -2.3959 -0.0612
  629MOL0     H84880  -1.202   3.374  13.321 -1.0964 -0.2910 -0.9447
  629MOL0     H84881  -1.359   3.323  13.146  1.1809  1.4421  0.6525
  629MOL0     H84882  -1.452   3.222  13.264  1.1410 -0.7451 -0.4773
  629MOL0     H84883  -1.426   3.518  13.301  2.2171 -0.0651  1.2602
  629MOL0     H84884  -1.566   3.445  13.212 -1.2839 -0.8911 -0.2541
  629MOL0     H84885  -1.518   3.363  13.508 -0.9821 -2.3929  0.6792
  629MOL0     H84886  -1.637   3.302  13.399  0.9783 -0.9847 -0.6959
  629MOL0     H84887  -1.740   3.516  13.376  1.1288 -1.4426 -1.0767
  629MOL0     H84888  -1.603   3.591  13.459 -0.7503  0.0195  1.1284
  629MOL0     H84889  -1.818   3.553  13.602  0.2365 -0.2641 -0.8068
  629MOL0     H84890  -1.780   3.391  13.602  0.4051 -0.6232 -0.1721
  629MOL0     H84891  -1.625   3.625  13.722  1.0812 -0.2716  1.3135
  629MOL0     H84892  -1.545   3.472  13.714  0.7280 -0.2579  4.0071
  629MOL0     H84893  -1.626   3.477  13.916 -1.1203 -1.4820 -0.0559
  629MOL0     H84894  -1.786   3.534  13.887  1.7599  2.3949 -0.1969
  629MOL0     H84895  -1.024   3.305  13.187  0.9010  0.2362 -1.0404
  629MOL0     H84896  -0.932   3.239  12.972  0.4717  1.0711  1.1343
  629MOL0     H84897  -0.903   3.174  12.475 -1.9671  0.6176  1.7048
  629MOL0     H84898  -0.893   3.064  12.265  0.7780 -1.4133 -0.2217
  629MOL0     H84899   0.017   2.558  11.071 -1.1378  2.0293 -1.0435
  629MOL0     H84900   0.208   2.485  10.925  0.1718  0.3120  0.7040
  629MOL0     H84901   0.317   2.869  10.768  0.7509  0.4019 -1.9157
  629MOL0     H84902   0.340   3.081  10.780 -1.9382 -2.1139  2.5137
  629MOL0     H84903   0.374   3.289  10.892  1.3146 -0.6827 -1.3272
  629MOL0     H84904   0.503   3.400  10.924  1.0158 -1.0552  1.6966
  629MOL0     H84905   0.567   3.279  11.121 -0.7500 -0.9299 -1.1430
  629MOL0     H84906   0.405   3.185  11.104 -3.8006  2.0299 -1.1609
  629MOL0     H84907   0.274   3.369  11.146  0.8245  0.2492 -2.8500
  629MOL0     H84908   0.407   3.484  11.148  0.4367 -0.8724 -0.7825
  629MOL0     H84909   0.503   3.325  11.340  0.3073  0.5631 -0.2502
  629MOL0     H84910   0.404   3.464  11.377 -1.2472 -1.0329  0.5068
  629MOL0     H84911   0.122   3.151  11.453  1.9754 -2.9162  3.7124
  629MOL0     H84912   0.749   3.033  10.931  1.1789 -1.4238  0.5919
  629MOL0     H84913   0.797   2.807  11.041 -1.5825 -1.2613  0.4938
  629MOL0     H84914   0.743   2.670  10.945 -0.5121  0.2703 -2.5877
  629MOL0     H84915   0.843   2.784  10.866  2.7266 -0.4424  1.4546
  630MOL0     O84916   1.215   7.398   3.959 -0.0671 -0.3643  0.4181
  630MOL0     C84917   1.152   7.304   3.912  0.1634 -0.0635 -0.2428
  630MOL0     O84918   1.020   7.302   3.907  0.3305 -0.4036  0.6400
  630MOL0     C84919   0.956   7.414   3.915  1.6342 -0.0294 -0.8150
  630MOL0     C84920   0.888   7.460   3.805  0.6950 -0.9581 -0.5513
  630MOL0     C84921   0.807   7.572   3.807  0.3327 -0.3362  0.3791
  630MOL0     C84922   0.803   7.651   3.928  0.2230  0.3969  0.8798
  630MOL0     O84923   0.728   7.763   3.937 -0.2158  0.2506 -0.1511
  630MOL0     C84924   0.677   7.829   3.822 -0.3418  0.5795  0.7228
  630MOL0     C84925   0.639   7.967   3.857 -0.5745  0.3463  0.4708
  630MOL0     C84926   0.545   7.975   3.981  1.5113  0.1421  0.9264
  630MOL0     C84927   0.397   7.943   3.943  0.2424  0.7063 -0.0470
  630MOL0     C84928   0.313   8.030   3.845 -1.5252 -0.3447  0.8007
  630MOL0     C84929   0.315   8.181   3.865  0.0771 -0.1265 -0.2017
  630MOL0     C84930   0.194   8.239   3.786 -0.2982 -0.5584  1.4805
  630MOL0     C84931   0.204   8.389   3.769  0.6203  0.6414  0.9634
  630MOL0     N84932   0.186   8.458   3.894  0.2219 -0.2898 -0.1777
  630MOL0     C84933   0.092   8.430   3.985 -0.8464  0.0439  0.4777
  630MOL0     C84934   0.148   8.469   4.103 -0.4893  0.1867  0.5381
  630MOL0     C84935   0.077   8.449   4.229 -0.2714 -0.4571 -0.2417
  630MOL0     C84936   0.164   8.422   4.353  0.1105  0.5869 -1.1589
  630MOL0     C84937   0.064   8.397   4.474  0.1764 -0.0385  0.5153
  630MOL0     C84938   0.133   8.366   4.606 -0.1380  0.5110 -0.2129
  630MOL0     O84939   0.043   8.381   4.718 -0.4657 -0.1463  0.7871
  630MOL0     C84940   0.096   8.380   4.838 -0.1339  0.4006 -0.2855
  630MOL0     C84941   0.239   8.368   4.868  0.2658  0.0760 -0.5730
  630MOL0     C84942   0.279   8.367   5.012 -0.5646  1.0534  1.1237
  630MOL0     C84943   0.182   8.352   5.111 -0.3560  0.6940  0.8774
  630MOL0     C84944   0.216   8.339   5.257  0.1508 -0.2950 -0.4023
  630MOL0     O84945   0.122   8.318   5.350 -0.0502 -0.2444 -0.4106
  630MOL0     C84946   0.167   8.284   5.481 -0.7364 -0.2350 -0.5825
  630MOL0     C84947   0.143   8.373   5.590 -0.0902 -0.7147 -0.2314
  630MOL0     C84948   0.181   8.345   5.725  0.6440  0.0031 -0.7409
  630MOL0     C84949   0.232   8.210   5.753  1.3890 -0.5881 -0.5655
  630MOL0     O84950   0.239   8.174   5.885 -0.2067  0.1590 -0.0463
  630MOL0     C84951   0.112   8.136   5.953  0.4576  0.0564  0.7472
  630MOL0     C84952   0.141   8.031   6.059 -0.2105  0.1732  0.0873
  630MOL0     C84953   0.247   8.073   6.163 -0.1088 -2.0065  0.0568
  630MOL0     C84954   0.248   7.974   6.277  0.1450  0.6763  0.3858
  630MOL0     C84955   0.292   8.024   6.415 -0.9428 -0.4703 -1.2977
  630MOL0     C84956   0.281   7.921   6.531 -1.3268  0.9967 -0.0067
  630MOL0     C84957   0.146   7.844   6.534  0.0597  0.6063 -0.0202
  630MOL0     C84958   0.028   7.937   6.550  0.1062 -0.6050 -0.2981
  630MOL0    Cl84959   0.028   8.037   6.695  0.1524 -0.2051  0.0326
  630MOL0     C84960   0.266   8.125   5.644  1.3281 -0.8457 -0.1963
  630MOL0     C84961   0.228   8.160   5.510  0.2320  0.5240 -0.6509
  630MOL0     O84962   0.339   8.346   5.280  0.1717 -0.1467 -0.3449
  630MOL0     C84963   0.046   8.360   5.079  0.1770 -0.1106  0.5662
  630MOL0     C84964   0.008   8.372   4.943  0.1831 -0.0664  0.8761
  630MOL0     N84965   0.272   8.531   4.086  0.4419  0.3926 -1.0883
  630MOL0     N84966   0.290   8.526   3.953  0.1858  0.3804 -0.1218
  630MOL0     C84967   0.867   7.606   4.041  1.0311 -0.1820 -0.0021
  630MOL0     C84968   0.945   7.491   4.036  0.0120 -0.1478  0.3828
  630MOL0     C84969   1.232   7.192   3.848 -0.6603 -0.0809 -1.1731
  630MOL0     C84970   1.170   7.074   3.827  0.1357 -0.4451  1.5001
  630MOL0     C84971   1.232   6.965   3.766  1.2343 -1.0164  0.1324
  630MOL0     C84972   1.362   6.976   3.722  0.2262  0.0060  0.9861
  630MOL0     O84973   1.430   6.868   3.675 -0.0697  0.1028  0.4372
  630MOL0     C84974   1.427   6.874   3.529 -1.1385 -0.4125  0.1572
  630MOL0     C84975   1.546   6.955   3.468 -0.0132  0.3496 -0.4075
  630MOL0     C84976   1.677   6.911   3.530 -0.1067  0.4017 -0.6384
  630MOL0     C84977   1.742   6.786   3.455 -0.3414 -0.5395 -0.4914
  630MOL0     C84978   1.809   6.840   3.339 -0.1214 -0.2883 -0.9864
  630MOL0     C84979   1.883   6.887   3.260 -1.3368  0.2201 -0.3271
  630MOL0     C84980   1.441   7.090   3.753  0.6950 -0.3672  0.0970
  630MOL0     C84981   1.376   7.205   3.809 -0.2678 -0.0227 -0.2641
  630MOL0     C84982   1.465   7.320   3.846  0.2201 -0.0631 -0.3580
  630MOL0     H84983   0.885   7.411   3.708  1.0547  1.2843 -1.7465
  630MOL0     H84984   0.762   7.608   3.715  0.2345 -0.5839  0.3302
  630MOL0     H84985   0.744   7.825   3.736  1.0217  1.2385  1.7070
  630MOL0     H84986   0.586   7.784   3.781  0.9958 -0.0458 -1.7809
  630MOL0     H84987   0.598   8.021   3.770  0.2714  0.6322  0.2393
  630MOL0     H84988   0.735   8.018   3.873 -2.7020  4.4093  1.6608
  630MOL0     H84989   0.555   8.077   4.019  2.6151  0.3092  0.2340
  630MOL0     H84990   0.585   7.903   4.053 -0.3917 -3.8973 -1.6865
  630MOL0     H84991   0.407   7.843   3.899  0.0270  1.4073 -1.8085
  630MOL0     H84992   0.339   7.927   4.034 -0.1391  1.0076 -0.2307
  630MOL0     H84993   0.328   8.007   3.739 -1.7058 -0.9580  0.9027
  630MOL0     H84994   0.209   7.999   3.856 -1.2553 -3.2179 -2.6431
  630MOL0     H84995   0.299   8.214   3.968  1.6687  0.5681 -0.1408
  630MOL0     H84996   0.407   8.223   3.823 -0.8621  0.7268 -1.4804
  630MOL0     H84997   0.098   8.208   3.829 -0.4286 -3.7398 -0.7835
  630MOL0     H84998   0.203   8.201   3.684  1.5123  1.6381  0.7205
  630MOL0     H84999   0.305   8.411   3.733  1.7107 -2.6806  1.6238
  630MOL0     H85000   0.127   8.435   3.706  0.5935  2.4557  2.2194
  630MOL0     H85001  -0.008   8.392   3.963 -2.2619  2.6783  1.8426
  630MOL0     H85002   0.026   8.543   4.249  1.6190  0.8607 -1.2471
  630MOL0     H85003   0.010   8.364   4.212  0.8858 -1.1480 -1.6129
  630MOL0     H85004   0.226   8.333   4.339  1.8024  1.5546 -0.0330
  630MOL0     H85005   0.233   8.503   4.379  1.4127 -1.1211  0.9808
  630MOL0     H85006  -0.006   8.315   4.455  0.3363  0.2567 -1.6045
  630MOL0     H85007   0.004   8.488   4.486 -0.1314 -0.2249  0.4087
  630MOL0     H85008   0.210   8.443   4.621 -0.2829  0.3875  1.4125
  630MOL0     H85009   0.183   8.269   4.607  1.7651  1.3934 -1.5224
  630MOL0     H85010   0.310   8.374   4.786  2.2203 -2.1077  0.8649
  630MOL0     H85011   0.385   8.363   5.034 -1.0065 -2.2773  3.2839
  630MOL0     H85012   0.105   8.474   5.579 -1.3681 -1.0557  0.7378
  630MOL0     H85013   0.170   8.418   5.804 -0.2311 -0.5994 -0.2844
  630MOL0     H85014   0.067   8.225   5.997  1.0401  1.3841 -1.2140
  630MOL0     H85015   0.048   8.080   5.884  1.1274  1.1376 -0.8087
  630MOL0     H85016   0.046   8.014   6.110 -0.1740 -0.0485  0.0818
  630MOL0     H85017   0.183   7.944   6.008  2.7404  0.8352  1.1787
  630MOL0     H85018   0.345   8.082   6.114  2.7834 -0.0409  5.3910
  630MOL0     H85019   0.230   8.174   6.201  4.2518 -1.7575  1.8663
  630MOL0     H85020   0.323   7.894   6.269 -2.0138 -1.8935  3.4963
  630MOL0     H85021   0.149   7.928   6.269  0.5619 -0.3102  0.7271
  630MOL0     H85022   0.233   8.112   6.444 -0.2017 -0.9858  2.3174
  630MOL0     H85023   0.396   8.056   6.408 -1.1235  1.4185  2.1487
  630MOL0     H85024   0.370   7.861   6.508 -1.4970  1.8496 -3.4361
  630MOL0     H85025   0.302   7.957   6.633 -0.4644 -2.7008  1.2674
  630MOL0     H85026   0.147   7.781   6.623 -1.5672  1.7856  0.8861
  630MOL0     H85027   0.133   7.796   6.436 -1.2992  1.0025 -0.0557
  630MOL0     H85028   0.032   8.009   6.468  1.0870  0.2424  0.4669
  630MOL0     H85029  -0.063   7.879   6.533 -0.8536  1.5679 -3.6878
  630MOL0     H85030   0.300   8.024   5.662  0.4487 -1.2849 -0.9360
  630MOL0     H85031   0.251   8.077   5.444  1.4286  0.8015 -0.6220
  630MOL0     H85032  -0.034   8.355   5.152 -2.2573  1.9385 -1.7519
  630MOL0     H85033  -0.098   8.372   4.918  0.4198 -0.5309 -0.1831
  630MOL0     H85034   0.855   7.678   4.121  0.1432  0.2155 -0.4742
  630MOL0     H85035   1.015   7.456   4.111  0.4098 -1.8277 -0.7055
  630MOL0     H85036   1.073   7.056   3.873 -1.4888  4.2487  0.4329
  630MOL0     H85037   1.193   6.864   3.765  2.6718 -1.6556  2.1310
  630MOL0     H85038   1.332   6.914   3.495 -1.3019 -0.3525  0.6807
  630MOL0     H85039   1.429   6.775   3.483 -2.6641 -1.3128  1.9256
  630MOL0     H85040   1.520   7.061   3.482  1.2913  0.8197 -1.4179
  630MOL0     H85041   1.551   6.934   3.361  2.5159  0.9574 -0.4566
  630MOL0     H85042   1.678   6.885   3.636  1.6423  1.4863 -0.3474
  630MOL0     H85043   1.742   6.999   3.529 -0.6893  0.9045  1.6597
  630MOL0     H85044   1.816   6.736   3.517 -1.1068  1.1021  1.8908
  630MOL0     H85045   1.664   6.718   3.420 -0.1732 -0.3725 -1.2025
  630MOL0     H85046   1.940   6.938   3.184 -3.6141  0.7156 -1.7930
  630MOL0     H85047   1.545   7.084   3.723  0.0204 -1.1769 -2.2929
  630MOL0     H85048   1.443   7.415   3.795 -0.7526  1.9009  3.3648
  630MOL0     H85049   1.451   7.340   3.952 -0.4724 -0.3060 -0.4037
  630MOL0     H85050   1.571   7.295   3.831 -0.0562 -2.2121  0.9000
  631MOL0     O85051   0.731   8.721   2.409 -0.2917  0.2353  0.0329
  631MOL0     C85052   0.695   8.657   2.505 -0.7365 -0.3954  0.2667
  631MOL0     O85053   0.777   8.576   2.575 -0.0620 -0.3305  0.2105
  631MOL0     C85054   0.917   8.558   2.553  0.0236  1.1027 -1.3081
  631MOL0     C85055   0.978   8.481   2.652  0.1183  0.8022 -0.4779
  631MOL0     C85056   1.104   8.424   2.647 -0.0332 -0.1069  0.3743
  631MOL0     C85057   1.189   8.464   2.539 -0.5543 -0.3559 -0.3642
  631MOL0     O85058   1.319   8.407   2.537  0.0172 -0.2002  0.3443
  631MOL0     C85059   1.392   8.418   2.411  0.0533  0.2273 -0.5417
  631MOL0     C85060   1.501   8.309   2.414 -0.0122 -0.2183  0.6971
  631MOL0     C85061   1.447   8.161   2.395  0.4562 -1.7952 -0.4312
  631MOL0     C85062   1.535   8.056   2.363  0.0180  0.6693  0.9455
  631MOL0     C85063   1.608   8.075   2.223 -0.6331 -0.1377  0.7055
  631MOL0     C85064   1.527   8.103   2.098  0.4581 -0.0732  0.1750
  631MOL0     C85065   1.608   8.088   1.967 -0.4442 -1.0014 -0.9670
  631MOL0     C85066   1.530   8.088   1.830 -0.7335  0.4609 -0.4128
  631MOL0     N85067   1.497   8.221   1.778 -0.4440 -0.6063 -0.1992
  631MOL0     C85068   1.415   8.247   1.677 -0.0649  0.0531 -0.9026
  631MOL0     C85069   1.405   8.385   1.684  0.0661  0.1569 -0.1626
  631MOL0     C85070   1.317   8.460   1.585 -0.7897  0.4174 -0.4828
  631MOL0     C85071   1.378   8.594   1.527  0.6448  0.0678 -0.8422
  631MOL0     C85072   1.499   8.590   1.433 -0.2550 -0.1289  0.9979
  631MOL0     C85073   1.471   8.548   1.290 -0.0119  0.1274 -0.0430
  631MOL0     O85074   1.337   8.582   1.253 -0.3346  0.5259 -0.2785
  631MOL0     C85075   1.260   8.501   1.178  0.0565  0.4179  0.2899
  631MOL0     C85076   1.125   8.533   1.183  0.0032  0.6876  0.3542
  631MOL0     C85077   1.036   8.458   1.108  0.4603 -0.0048  0.6824
  631MOL0     C85078   1.079   8.357   1.018 -0.5685  0.4700 -0.5627
  631MOL0     C85079   0.984   8.278   0.945 -0.6257  0.4139 -0.0928
  631MOL0     O85080   1.047   8.200   0.853  0.0797  0.3500 -0.1913
  631MOL0     C85081   0.979   8.122   0.770 -0.0062  0.4160  0.8400
  631MOL0     C85082   1.002   8.138   0.636 -0.4726  0.4250 -0.0163
  631MOL0     C85083   0.934   8.057   0.546  0.8459  0.8908 -0.4511
  631MOL0     C85084   0.843   7.958   0.593  0.1367 -0.3489  0.7610
  631MOL0     O85085   0.795   7.866   0.498 -0.1720 -0.0591  0.5435
  631MOL0     C85086   0.650   7.864   0.487  0.3499  0.0570 -1.0698
  631MOL0     C85087   0.614   7.729   0.421 -1.5962  0.3556  0.6824
  631MOL0     C85088   0.501   7.629   0.489 -0.2660  0.4553 -0.1763
  631MOL0     C85089   0.517   7.572   0.640 -0.5901 -0.4178  0.9599
  631MOL0     C85090   0.632   7.477   0.651  0.2910 -0.1924  0.4696
  631MOL0     C85091   0.656   7.443   0.796 -0.3542 -0.2172 -0.3840
  631MOL0     C85092   0.782   7.525   0.839  0.3880  0.0328  0.7145
  631MOL0     C85093   0.877   7.418   0.887  1.0160 -0.1789 -0.6102
  631MOL0    Cl85094   1.024   7.501   0.947  0.0721  0.2151 -0.3956
  631MOL0     C85095   0.833   7.936   0.726 -0.5442  0.5617 -0.3418
  631MOL0     C85096   0.897   8.027   0.816  0.2227 -0.2196  0.3928
  631MOL0     O85097   0.863   8.289   0.965  0.9281 -0.4412 -0.1163
  631MOL0     C85098   1.218   8.328   1.022 -0.0957 -0.5164 -0.3871
  631MOL0     C85099   1.305   8.398   1.096 -0.0305 -0.5942 -0.0291
  631MOL0     N85100   1.488   8.440   1.782  0.9092  0.4541 -0.4563
  631MOL0     N85101   1.531   8.335   1.843 -0.3260 -0.9530  0.6277
  631MOL0     C85102   1.135   8.553   2.440  0.1654 -0.0614  0.1708
  631MOL0     C85103   0.995   8.598   2.445  0.9465  0.3950  0.1020
  631MOL0     C85104   0.555   8.672   2.550  0.2407  0.3384 -0.6954
  631MOL0     C85105   0.531   8.617   2.680  0.9446 -0.6328 -0.9225
  631MOL0     C85106   0.404   8.627   2.724 -0.3429  0.1370 -0.3733
  631MOL0     C85107   0.294   8.694   2.674 -0.2817 -0.1971  0.0836
  631MOL0     O85108   0.172   8.695   2.739 -0.2448 -0.0932  0.3640
  631MOL0     C85109   0.070   8.708   2.644 -0.7534 -0.2781 -0.3345
  631MOL0     C85110  -0.068   8.668   2.706 -0.0254 -0.2282 -0.5565
  631MOL0     C85111  -0.171   8.667   2.584 -0.6172 -0.6255 -0.7664
  631MOL0     C85112  -0.315   8.632   2.635  1.4114  0.1277 -0.4384
  631MOL0     C85113  -0.431   8.718   2.598  0.3895 -0.1444 -0.8259
  631MOL0     C85114  -0.519   8.785   2.544  0.2252 -0.2771 -0.4305
  631MOL0     C85115   0.329   8.763   2.553 -0.1016 -0.3948 -0.5558
  631MOL0     C85116   0.446   8.741   2.494 -0.6589 -0.3927 -0.3939
  631MOL0     C85117   0.462   8.797   2.354 -0.1278 -0.1115 -0.6397
  631MOL0     H85118   0.917   8.470   2.741  0.5764  1.3676 -0.0851
  631MOL0     H85119   1.155   8.357   2.715  0.3334 -1.4825 -1.1910
  631MOL0     H85120   1.327   8.398   2.325 -0.9840 -0.6343  0.4188
  631MOL0     H85121   1.436   8.518   2.417 -0.6821  0.4859  1.5698
  631MOL0     H85122   1.553   8.313   2.511  0.3169 -3.9662  0.8452
  631MOL0     H85123   1.572   8.338   2.336  0.9517  2.5810  2.4505
  631MOL0     H85124   1.374   8.164   2.313 -1.2156  1.0511  0.9622
  631MOL0     H85125   1.387   8.136   2.483 -0.5337  1.2830 -0.0835
  631MOL0     H85126   1.612   8.053   2.441 -0.6208 -0.3651  1.5617
  631MOL0     H85127   1.489   7.957   2.364  0.5923  0.3919  2.3814
  631MOL0     H85128   1.689   8.147   2.239  1.4560 -2.6178  2.1822
  631MOL0     H85129   1.664   7.985   2.196  4.6651  1.6222  4.2076
  631MOL0     H85130   1.433   8.047   2.088 -2.2796  4.1579 -0.5861
  631MOL0     H85131   1.481   8.202   2.086 -3.5288 -1.9600 -2.5396
  631MOL0     H85132   1.654   7.991   1.983  0.6183  0.0583  4.1902
  631MOL0     H85133   1.690   8.160   1.960 -2.9960  2.6008  2.2288
  631MOL0     H85134   1.580   8.029   1.752 -2.2855 -0.7451 -0.5351
  631MOL0     H85135   1.434   8.036   1.835 -1.4893  1.7873 -0.6892
  631MOL0     H85136   1.356   8.191   1.606 -1.2374 -0.7121  0.6216
  631MOL0     H85137   1.294   8.390   1.505 -1.6779  0.2894 -0.1234
  631MOL0     H85138   1.221   8.497   1.623 -0.3594  1.4268 -0.3415
  631MOL0     H85139   1.293   8.636   1.473 -2.0567 -2.0306  1.4355
  631MOL0     H85140   1.401   8.661   1.610  1.0821  0.6249 -1.4107
  631MOL0     H85141   1.576   8.534   1.487  0.8221  2.2083  2.0218
  631MOL0     H85142   1.528   8.695   1.431  1.2740 -0.4947  1.8427
  631MOL0     H85143   1.471   8.439   1.296  0.0971  0.1821  1.2339
  631MOL0     H85144   1.549   8.579   1.219  0.2615  1.4640  0.8105
  631MOL0     H85145   1.082   8.610   1.246 -1.7763 -0.9083  1.1890
  631MOL0     H85146   0.929   8.472   1.095  0.5195 -0.6226 -0.5340
  631MOL0     H85147   1.064   8.213   0.586  1.5869 -1.6034 -0.6875
  631MOL0     H85148   0.952   8.066   0.440  1.8137  1.0489 -0.2869
  631MOL0     H85149   0.598   7.859   0.583  0.7444  0.9625 -0.8031
  631MOL0     H85150   0.615   7.942   0.419 -0.7248  0.2102 -0.3610
  631MOL0     H85151   0.570   7.749   0.323 -2.1670  0.0815  0.8849
  631MOL0     H85152   0.712   7.681   0.411 -0.1868  2.5450  2.7316
  631MOL0     H85153   0.406   7.684   0.492 -0.1342  0.6493  0.7267
  631MOL0     H85154   0.485   7.537   0.433 -0.1731  0.1685  0.2634
  631MOL0     H85155   0.430   7.519   0.679  0.2345 -2.0584  0.6783
  631MOL0     H85156   0.530   7.659   0.705 -4.5540 -0.1221  1.5854
  631MOL0     H85157   0.716   7.508   0.589 -0.1162 -0.0890 -0.0445
  631MOL0     H85158   0.590   7.395   0.590 -1.5277  1.2045 -0.2563
  631MOL0     H85159   0.576   7.458   0.870 -0.4852 -0.5919 -0.4466
  631MOL0     H85160   0.675   7.335   0.807  1.7306 -0.0940 -2.2197
  631MOL0     H85161   0.769   7.605   0.913  0.8587  2.3392 -1.5368
  631MOL0     H85162   0.827   7.576   0.753  1.1360 -0.9629  0.4932
  631MOL0     H85163   0.819   7.376   0.971 -0.0856  1.8006 -0.3021
  631MOL0     H85164   0.886   7.346   0.806 -4.7054  1.0435 -2.7942
  631MOL0     H85165   0.774   7.855   0.768  1.7880 -1.7151 -1.1889
  631MOL0     H85166   0.860   8.025   0.918 -0.7731 -0.9532  0.0368
  631MOL0     H85167   1.257   8.246   0.963  0.6564  0.7918 -1.7690
  631MOL0     H85168   1.412   8.381   1.092 -0.0614 -0.7065 -0.4141
  631MOL0     H85169   1.203   8.568   2.357  1.2714 -3.7824  0.1872
  631MOL0     H85170   0.948   8.645   2.359  1.8213  0.0206 -0.6002
  631MOL0     H85171   0.599   8.573   2.753 -1.2922  1.1493  2.5287
  631MOL0     H85172   0.387   8.585   2.823 -0.3323 -0.2241 -0.5253
  631MOL0     H85173   0.085   8.628   2.572 -1.9556 -1.1545  0.3691
  631MOL0     H85174   0.067   8.807   2.598  0.7249  0.2944  0.6990
  631MOL0     H85175  -0.104   8.752   2.766 -1.2790 -0.5026 -0.9089
  631MOL0     H85176  -0.073   8.571   2.756  2.7313 -2.4528 -4.0787
  631MOL0     H85177  -0.154   8.593   2.505 -0.5950  0.9372 -2.2767
  631MOL0     H85178  -0.176   8.762   2.531 -1.6684 -1.2336 -1.8145
  631MOL0     H85179  -0.330   8.533   2.591  3.8104 -0.5480  0.1286
  631MOL0     H85180  -0.328   8.625   2.744  0.3391 -2.4665 -0.6398
  631MOL0     H85181  -0.586   8.852   2.493 -1.6608 -1.1057  0.8409
  631MOL0     H85182   0.270   8.835   2.498  2.7686  1.0402 -1.9612
  631MOL0     H85183   0.501   8.723   2.284  1.3664  1.2616 -1.3068
  631MOL0     H85184   0.366   8.836   2.322 -0.0730  1.4031  0.8879
  631MOL0     H85185   0.519   8.890   2.359 -1.8592  0.9104  1.1994
  632MOL0     O85186   3.419   7.475   9.068 -0.8293  0.1231 -0.4421
  632MOL0     C85187   3.361   7.524   8.973  0.0458 -1.3854  0.9848
  632MOL0     O85188   3.412   7.540   8.844  0.3043 -0.0235  0.1424
  632MOL0     C85189   3.518   7.461   8.809 -0.0353  0.6443  0.9806
  632MOL0     C85190   3.530   7.327   8.863 -0.1579  0.3632  0.7347
  632MOL0     C85191   3.634   7.251   8.812 -0.4980 -0.2768  0.0977
  632MOL0     C85192   3.732   7.289   8.716  1.0628  0.1480 -0.8747
  632MOL0     O85193   3.845   7.217   8.673  0.3552 -0.9040  0.0001
  632MOL0     C85194   3.846   7.081   8.708 -0.3355  0.0460  0.6174
  632MOL0     C85195   3.963   7.015   8.648  0.5656 -0.0634 -0.5578
  632MOL0     C85196   4.075   6.976   8.741  0.3457 -0.2265 -0.0977
  632MOL0     C85197   4.209   6.955   8.672  0.0008  1.0289  0.6792
  632MOL0     C85198   4.211   6.828   8.589 -0.1584  0.2787 -0.3397
  632MOL0     C85199   4.325   6.833   8.489  0.1424 -0.2932  0.1671
  632MOL0     C85200   4.307   6.725   8.384 -0.3626  0.2279  0.1207
  632MOL0     C85201   4.440   6.687   8.298  1.2055  0.0945 -0.5006
  632MOL0     N85202   4.472   6.796   8.202  0.4357 -0.3256 -0.2712
  632MOL0     C85203   4.581   6.877   8.220 -0.8245  0.1650  0.3387
  632MOL0     C85204   4.550   6.976   8.120 -0.4143 -0.6538 -0.5474
  632MOL0     C85205   4.642   7.084   8.091  0.1038  0.1369  0.4281
  632MOL0     C85206   4.645   7.210   8.182  0.2623 -0.8160 -0.0139
  632MOL0     C85207   4.501   7.246   8.235 -0.1909 -0.1854 -0.4169
  632MOL0     C85208   4.513   7.313   8.367  0.7267  0.3216 -0.3381
  632MOL0     O85209   4.581   7.436   8.355 -0.1999 -0.4038 -0.1768
  632MOL0     C85210   4.549   7.520   8.456  0.3698 -0.3121 -0.3993
  632MOL0     C85211   4.578   7.651   8.438 -0.4318  0.6130  0.5318
  632MOL0     C85212   4.553   7.746   8.528  0.5409 -0.3993  0.5976
  632MOL0     C85213   4.484   7.722   8.648 -1.3882  0.1894 -1.5452
  632MOL0     C85214   4.454   7.827   8.743 -0.3430  0.3298 -0.8338
  632MOL0     O85215   4.480   7.955   8.701 -0.6506  0.1285  0.2127
  632MOL0     C85216   4.431   8.071   8.756  0.2671  0.0652  0.6635
  632MOL0     C85217   4.348   8.088   8.866 -0.2852  0.5511  1.1135
  632MOL0     C85218   4.309   8.214   8.905 -0.1001  0.3246 -0.2128
  632MOL0     C85219   4.364   8.329   8.841  0.7703  0.7137 -0.3561
  632MOL0     O85220   4.311   8.449   8.882 -0.3331 -0.4949  0.0248
  632MOL0     C85221   4.327   8.570   8.802 -0.1994  0.1999 -0.0111
  632MOL0     C85222   4.253   8.687   8.867  0.3230 -0.3424 -0.5354
  632MOL0     C85223   4.328   8.823   8.861 -0.4369 -0.2507 -0.8097
  632MOL0     C85224   4.272   8.921   8.966 -0.1328 -0.2062  0.6350
  632MOL0     C85225   4.344   9.062   8.948 -1.9345  0.4715  0.3314
  632MOL0     C85226   4.334   9.153   9.066 -0.0051 -0.1117  0.2510
  632MOL0     C85227   4.199   9.153   9.146  0.8514  0.8381  0.7787
  632MOL0     C85228   4.188   9.265   9.247  0.1427  0.7369 -1.3784
  632MOL0    Cl85229   4.182   9.419   9.164 -0.0736  0.1550 -0.2182
  632MOL0     C85230   4.439   8.310   8.725  0.1745  0.7266 -0.0345
  632MOL0     C85231   4.481   8.184   8.695  0.3622  0.4067 -0.2958
  632MOL0     O85232   4.413   7.804   8.855  0.1941 -0.0515  0.2416
  632MOL0     C85233   4.445   7.588   8.670  1.2585  0.4672 -0.4125
  632MOL0     C85234   4.483   7.490   8.578  0.3275  0.5223 -0.5897
  632MOL0     N85235   4.434   6.949   8.062  0.7807 -0.1805 -0.0616
  632MOL0     N85236   4.380   6.849   8.120  0.6656 -0.0603  0.3105
  632MOL0     C85237   3.711   7.417   8.663 -0.5182  0.9473 -0.6220
  632MOL0     C85238   3.610   7.497   8.707 -0.1586  0.5210 -0.3105
  632MOL0     C85239   3.233   7.603   8.999 -0.3379  0.6982 -0.1809
  632MOL0     C85240   3.172   7.654   8.885  0.0797  0.1537  0.2218
  632MOL0     C85241   3.044   7.705   8.896  0.3320  0.1424  0.3189
  632MOL0     C85242   2.978   7.722   9.012  0.0674 -0.6534 -0.3097
  632MOL0     O85243   2.848   7.777   9.022  0.2859  0.1014 -0.0139
  632MOL0     C85244   2.763   7.743   9.135 -0.9827  0.7043 -0.3386
  632MOL0     C85245   2.717   7.602   9.128  0.5923 -0.5067 -0.3159
  632MOL0     C85246   2.640   7.578   9.266  0.2955 -0.4879 -0.3494
  632MOL0     C85247   2.536   7.463   9.253 -0.3406 -0.3999  0.4961
  632MOL0     C85248   2.606   7.333   9.246  0.4024 -1.2506  0.3515
  632MOL0     C85249   2.644   7.219   9.229 -0.4237 -0.6454 -0.3042
  632MOL0     C85250   3.043   7.673   9.125 -1.0403 -0.4328 -0.9002
  632MOL0     C85251   3.167   7.600   9.123  0.1595 -1.0379 -0.7381
  632MOL0     C85252   3.227   7.536   9.245  0.1922 -0.7108 -0.2561
  632MOL0     H85253   3.468   7.279   8.938  2.7802 -0.7203  2.6585
  632MOL0     H85254   3.659   7.160   8.866  3.2469  1.5058  1.7763
  632MOL0     H85255   3.852   7.081   8.818 -2.1107  0.0001  0.7394
  632MOL0     H85256   3.757   7.027   8.674  0.3485  0.1302 -1.3737
  632MOL0     H85257   4.000   7.094   8.583 -0.9864  0.9822 -0.2124
  632MOL0     H85258   3.930   6.925   8.594  1.3071 -0.3453 -0.5553
  632MOL0     H85259   4.038   6.888   8.794 -0.9312  0.4864  0.2377
  632MOL0     H85260   4.089   7.049   8.822  0.1232 -0.4863  0.1757
  632MOL0     H85261   4.247   7.043   8.620  0.5427  0.7466  0.5885
  632MOL0     H85262   4.286   6.945   8.749 -0.5883  0.0177  1.1548
  632MOL0     H85263   4.213   6.741   8.654  0.0261 -1.7865 -2.9494
  632MOL0     H85264   4.115   6.819   8.537 -1.9307  0.0836  2.7451
  632MOL0     H85265   4.338   6.932   8.444  1.3619 -0.5131  0.0154
  632MOL0     H85266   4.412   6.806   8.549 -0.8385 -0.9286  1.3558
  632MOL0     H85267   4.228   6.752   8.313  0.0136 -2.3276 -1.4099
  632MOL0     H85268   4.274   6.633   8.434 -0.6169  0.9928  1.4136
  632MOL0     H85269   4.529   6.662   8.356  4.0324  3.3245 -3.0186
  632MOL0     H85270   4.413   6.603   8.233  1.0624 -0.3176  0.0907
  632MOL0     H85271   4.661   6.846   8.286 -0.9810 -2.1454 -0.4632
  632MOL0     H85272   4.740   7.036   8.100 -0.2783 -0.1552  5.5476
  632MOL0     H85273   4.629   7.122   7.989 -0.0217 -2.6994 -0.6949
  632MOL0     H85274   4.697   7.193   8.276  0.0000 -1.0465  0.0927
  632MOL0     H85275   4.693   7.296   8.134 -2.1926 -1.0523 -3.2283
  632MOL0     H85276   4.444   7.155   8.259  1.4819 -0.9433  0.8678
  632MOL0     H85277   4.440   7.300   8.162 -0.1847  0.2189 -0.1244
  632MOL0     H85278   4.561   7.262   8.450  3.9479  2.9956 -0.3503
  632MOL0     H85279   4.410   7.338   8.396  0.2631 -0.1622 -1.5019
  632MOL0     H85280   4.634   7.677   8.348  1.0428  4.4335  2.3427
  632MOL0     H85281   4.588   7.847   8.513 -0.2377 -0.2860 -0.5955
  632MOL0     H85282   4.302   8.001   8.912  0.4863 -0.0943  0.7060
  632MOL0     H85283   4.257   8.219   9.000 -1.0874  2.4941 -0.7941
  632MOL0     H85284   4.432   8.598   8.795 -0.0317 -0.6974 -1.5863
  632MOL0     H85285   4.272   8.564   8.707 -1.4351  0.5782  0.6646
  632MOL0     H85286   4.155   8.709   8.823  1.0319  1.1805 -1.4297
  632MOL0     H85287   4.232   8.656   8.969  3.4974  0.3405  0.4196
  632MOL0     H85288   4.432   8.807   8.889 -0.9341 -1.0041  0.7477
  632MOL0     H85289   4.329   8.879   8.767  1.4507  1.8732  0.3697
  632MOL0     H85290   4.291   8.880   9.065 -2.5540  1.8959  2.0833
  632MOL0     H85291   4.162   8.923   8.969 -0.1554 -1.4304  1.5340
  632MOL0     H85292   4.310   9.110   8.856  1.1314 -1.1255 -1.8357
  632MOL0     H85293   4.451   9.041   8.934 -1.5066  1.2876  2.1951
  632MOL0     H85294   4.407   9.126   9.144  0.3874  2.6788  0.9481
  632MOL0     H85295   4.354   9.255   9.033 -1.5109  0.8394  2.0680
  632MOL0     H85296   4.183   9.056   9.194  2.2642  0.7548  1.1355
  632MOL0     H85297   4.109   9.167   9.085 -0.2985  1.6382  2.5642
  632MOL0     H85298   4.090   9.239   9.288  1.2943 -0.6255  0.7504
  632MOL0     H85299   4.273   9.250   9.314  1.0660  1.4666 -2.3660
  632MOL0     H85300   4.486   8.390   8.668  3.3208 -1.6102 -1.0012
  632MOL0     H85301   4.559   8.168   8.621 -0.7579 -1.4586 -1.1483
  632MOL0     H85302   4.386   7.555   8.756  0.1194  2.3347 -0.4106
  632MOL0     H85303   4.486   7.387   8.613  2.9054 -0.0334 -2.1543
  632MOL0     H85304   3.776   7.456   8.585 -1.2888  1.7573 -0.8777
  632MOL0     H85305   3.615   7.602   8.679  0.2582  0.3712 -0.8177
  632MOL0     H85306   3.215   7.648   8.785  0.0037  2.8438 -0.0580
  632MOL0     H85307   2.999   7.732   8.801 -1.5089  2.6762  1.7974
  632MOL0     H85308   2.678   7.810   9.148 -0.7819  1.2191 -1.5066
  632MOL0     H85309   2.814   7.764   9.229 -3.0454 -1.4213  1.3623
  632MOL0     H85310   2.797   7.529   9.111  0.5142 -0.8953  0.8884
  632MOL0     H85311   2.645   7.599   9.047  2.3816 -1.8788 -1.9439
  632MOL0     H85312   2.583   7.666   9.295 -1.1465 -1.9348  1.4343
  632MOL0     H85313   2.711   7.558   9.346  3.9428  0.8497 -2.9467
  632MOL0     H85314   2.472   7.470   9.342 -0.6962 -2.3407  0.4296
  632MOL0     H85315   2.471   7.482   9.167 -2.4614  4.4636  2.7547
  632MOL0     H85316   2.681   7.118   9.239 -0.6586 -0.5742  1.7640
  632MOL0     H85317   2.994   7.676   9.222 -0.8077  0.3337 -0.8039
  632MOL0     H85318   3.161   7.567   9.327  0.6303 -0.1932 -0.0988
  632MOL0     H85319   3.228   7.427   9.239  2.5287 -0.8080  0.8864
  632MOL0     H85320   3.324   7.569   9.282 -1.5901  2.8880  1.8251
  633MOL0     O85321  10.917   1.590   7.555  0.8456  0.7066  0.3641
  633MOL0     C85322  10.966   1.487   7.515 -0.2724  0.4914 -0.0267
  633MOL0     O85323  10.898   1.376   7.479  0.4868 -0.5740  0.3713
  633MOL0     C85324  10.767   1.369   7.519 -0.2569 -1.2063 -0.3586
  633MOL0     C85325  10.675   1.377   7.420 -0.4198  0.2496  1.1548
  633MOL0     C85326  10.535   1.350   7.446  0.4648  0.9609 -0.0120
  633MOL0     C85327  10.486   1.331   7.577  0.6931  0.3416  0.6729
  633MOL0     O85328  10.356   1.314   7.597  0.3197  0.0709  0.2962
  633MOL0     C85329  10.286   1.418   7.669  0.8243 -0.3322 -0.3235
  633MOL0     C85330  10.141   1.424   7.607 -0.2673  0.5527 -0.3593
  633MOL0     C85331  10.047   1.314   7.671  0.9660  0.3088  0.4440
  633MOL0     C85332   9.931   1.308   7.575  0.0264  0.8093 -0.3735
  633MOL0     C85333   9.825   1.206   7.611  1.0606  0.2902  0.0616
  633MOL0     C85334   9.716   1.271   7.710  0.3222  0.3542 -0.0005
  633MOL0     C85335   9.625   1.165   7.785  0.4852  0.7674 -0.1479
  633MOL0     C85336   9.714   1.091   7.888 -1.1309 -0.3521 -0.0023
  633MOL0     N85337   9.639   1.019   7.989  0.9726  0.1246 -0.6721
  633MOL0     C85338   9.681   0.961   8.106  0.1699 -0.3136  0.2476
  633MOL0     C85339   9.578   0.885   8.151 -0.1665 -0.2077  0.2045
  633MOL0     C85340   9.585   0.815   8.287 -0.4906 -0.8174  0.9281
  633MOL0     C85341   9.480   0.707   8.330  0.7981 -0.5137  0.9307
  633MOL0     C85342   9.397   0.763   8.443 -0.0443  0.0815 -0.8526
  633MOL0     C85343   9.283   0.677   8.489  0.3187  0.2122 -0.2267
  633MOL0     O85344   9.333   0.566   8.572 -0.2799  0.6119  0.8625
  633MOL0     C85345   9.244   0.495   8.654 -0.4747 -0.7817 -0.0061
  633MOL0     C85346   9.107   0.516   8.639 -0.2376 -0.1577 -0.4297
  633MOL0     C85347   9.017   0.458   8.738  0.6457  0.7182  0.6450
  633MOL0     C85348   9.067   0.381   8.845  0.3684 -0.0839  0.0498
  633MOL0     C85349   8.985   0.315   8.958  0.1798 -0.9340 -0.3113
  633MOL0     O85350   9.038   0.238   9.049 -0.1022 -0.6494 -1.1155
  633MOL0     C85351   8.950   0.188   9.143 -0.9818  0.3705 -0.0776
  633MOL0     C85352   8.960   0.226   9.279  0.2457 -0.4279 -0.1263
  633MOL0     C85353   8.877   0.167   9.369 -0.2810 -0.2184 -0.8477
  633MOL0     C85354   8.781   0.083   9.337  0.9302 -0.1769  0.9226
  633MOL0     O85355   8.716   0.028   9.437  0.2560  0.3173 -0.0286
  633MOL0     C85356   8.578  -0.020   9.432  0.2611  0.7155 -0.4105
  633MOL0     C85357   8.471   0.087   9.416 -1.0965 -0.9919 -0.4515
  633MOL0     C85358   8.480   0.173   9.544 -0.1460 -0.0832  0.1980
  633MOL0     C85359   8.437   0.322   9.515 -0.2122  0.1158  0.1716
  633MOL0     C85360   8.282   0.309   9.520  0.1416  0.6718 -0.1452
  633MOL0     C85361   8.231   0.420   9.438 -0.3240 -0.0155  0.0734
  633MOL0     C85362   8.081   0.415   9.419  0.1788  0.8582 -0.5075
  633MOL0     C85363   8.058   0.559   9.357  0.3352 -0.6314 -0.2311
  633MOL0    Cl85364   8.114   0.555   9.183 -0.2019 -0.0240 -0.3987
  633MOL0     C85365   8.773   0.033   9.204 -1.1336 -0.7145 -0.3086
  633MOL0     C85366   8.854   0.093   9.105  0.6250  0.5561 -0.1283
  633MOL0     O85367   8.866   0.350   8.956 -0.3241  0.8136  0.3708
  633MOL0     C85368   9.207   0.355   8.839  0.2301 -0.8638 -0.0100
  633MOL0     C85369   9.300   0.411   8.748 -0.2086 -0.2225 -1.4870
  633MOL0     N85370   9.468   0.920   8.071 -0.5120 -0.5200  1.2788
  633MOL0     N85371   9.505   0.995   7.974 -0.4297 -0.1051 -0.5577
  633MOL0     C85372  10.581   1.334   7.683  0.1960  0.1250  0.2052
  633MOL0     C85373  10.720   1.348   7.648 -0.2067 -0.0655 -0.2479
  633MOL0     C85374  11.117   1.476   7.483 -0.1161  0.7717 -0.8779
  633MOL0     C85375  11.168   1.356   7.450  0.5327  1.0069 -0.2428
  633MOL0     C85376  11.299   1.328   7.419 -0.0498  0.8725  0.0869
  633MOL0     C85377  11.386   1.439   7.394  0.2909  1.4195  0.0073
  633MOL0     O85378  11.508   1.399   7.349  0.0063  0.2989  0.8514
  633MOL0     C85379  11.601   1.491   7.275  0.4444  0.7219 -0.5386
  633MOL0     C85380  11.542   1.546   7.150  0.3520 -0.5731 -0.5560
  633MOL0     C85381  11.503   1.438   7.035 -0.4729  0.4020  0.9384
  633MOL0     C85382  11.495   1.501   6.902  0.6913 -0.3146  0.0608
  633MOL0     C85383  11.394   1.605   6.906  0.6765 -0.2574  0.6513
  633MOL0     C85384  11.314   1.704   6.892 -1.1317 -0.3950  0.1607
  633MOL0     C85385  11.342   1.564   7.417  0.1463  0.1263 -0.1741
  633MOL0     C85386  11.213   1.585   7.467  0.3410  0.1792  0.6024
  633MOL0     C85387  11.172   1.730   7.474 -0.2511 -0.2883 -0.4905
  633MOL0     H85388  10.712   1.378   7.318  0.8766  0.8631  1.6150
  633MOL0     H85389  10.458   1.360   7.370 -2.3684 -0.2757  2.4590
  633MOL0     H85390  10.285   1.382   7.772 -0.2017 -2.5812 -1.0462
  633MOL0     H85391  10.331   1.516   7.649  0.6262  0.1170  1.3348
  633MOL0     H85392  10.144   1.421   7.498 -1.6551 -2.3635 -0.4065
  633MOL0     H85393  10.102   1.520   7.642 -1.6070 -0.4409  1.0168
  633MOL0     H85394  10.005   1.337   7.769 -0.8259  0.6556 -0.3650
  633MOL0     H85395  10.106   1.222   7.679 -0.3580 -0.4857  1.3750
  633MOL0     H85396   9.886   1.407   7.561 -0.2138  0.7084 -0.3134
  633MOL0     H85397   9.966   1.273   7.477 -4.3538  1.7415 -2.5350
  633MOL0     H85398   9.773   1.170   7.521  0.9498 -3.0752  1.3325
  633MOL0     H85399   9.872   1.121   7.660  0.5436 -0.0431 -0.0133
  633MOL0     H85400   9.755   1.349   7.775 -0.0760 -0.7604  1.6358
  633MOL0     H85401   9.645   1.324   7.646  1.3789  1.4309 -0.3125
  633MOL0     H85402   9.588   1.087   7.719  0.0845 -0.7043  1.7379
  633MOL0     H85403   9.535   1.212   7.826 -1.0643 -1.1299 -1.2328
  633MOL0     H85404   9.771   1.009   7.844  2.1747  1.6294  0.2222
  633MOL0     H85405   9.783   1.163   7.933 -3.3367  2.4076 -0.6919
  633MOL0     H85406   9.780   0.968   8.150 -0.2018  3.1855  0.7620
  633MOL0     H85407   9.678   0.758   8.274  0.0305  0.3079 -0.6435
  633MOL0     H85408   9.596   0.900   8.354 -0.2207  0.6488 -0.8932
  633MOL0     H85409   9.409   0.691   8.248 -0.6863 -1.9417  2.4379
  633MOL0     H85410   9.524   0.614   8.367  3.5454  0.4135  0.2049
  633MOL0     H85411   9.387   0.869   8.418  3.7611  0.2415 -2.4250
  633MOL0     H85412   9.465   0.776   8.528 -1.3806 -0.0596  0.2622
  633MOL0     H85413   9.218   0.642   8.407  0.1007  2.0816 -0.9081
  633MOL0     H85414   9.208   0.738   8.540  0.9915  2.4488 -1.7564
  633MOL0     H85415   9.068   0.556   8.546 -1.0588 -1.2389 -0.5676
  633MOL0     H85416   8.909   0.473   8.727  1.0370  2.4082 -1.8538
  633MOL0     H85417   9.036   0.299   9.304  1.1660 -0.1507 -3.3137
  633MOL0     H85418   8.877   0.196   9.474 -1.2517 -0.4338 -0.7757
  633MOL0     H85419   8.563  -0.095   9.353 -2.8264 -1.3409  1.8687
  633MOL0     H85420   8.546  -0.068   9.525 -1.0364 -0.8649 -1.6066
  633MOL0     H85421   8.494   0.145   9.326  1.6838  1.5588  1.7191
  633MOL0     H85422   8.368   0.051   9.423 -1.7017  0.8784  1.1996
  633MOL0     H85423   8.425   0.144   9.634  0.7936  0.2957  0.9190
  633MOL0     H85424   8.587   0.185   9.564  0.1560 -1.8141 -0.2565
  633MOL0     H85425   8.467   0.357   9.416  1.1513 -2.0768 -0.2649
  633MOL0     H85426   8.469   0.403   9.582  2.4945  1.0695 -2.1293
  633MOL0     H85427   8.256   0.323   9.626 -0.3437  1.1797 -0.3285
  633MOL0     H85428   8.239   0.221   9.472  2.3161 -0.2205 -0.5618
  633MOL0     H85429   8.267   0.515   9.478 -3.8220  0.6940  1.8893
  633MOL0     H85430   8.275   0.411   9.338 -0.1701 -2.1006  0.2832
  633MOL0     H85431   8.023   0.411   9.511 -2.6335 -1.6831 -2.2123
  633MOL0     H85432   8.045   0.348   9.340 -1.1388  3.0484 -1.8657
  633MOL0     H85433   7.952   0.584   9.362  0.4633  0.6216 -2.4208
  633MOL0     H85434   8.121   0.629   9.413 -0.4261 -0.2921  0.2172
  633MOL0     H85435   8.701  -0.040   9.168 -0.1993 -2.3730  1.0338
  633MOL0     H85436   8.849   0.058   9.003 -1.9990  1.2023 -0.2869
  633MOL0     H85437   9.259   0.284   8.902 -1.1399 -3.1707 -1.3305
  633MOL0     H85438   9.406   0.390   8.761 -0.5805 -0.2101  3.8002
  633MOL0     H85439  10.547   1.314   7.784 -0.7418  3.3714  0.6476
  633MOL0     H85440  10.787   1.350   7.734 -0.2864  2.1667 -0.1890
  633MOL0     H85441  11.110   1.264   7.458 -0.1955  1.1440 -2.8829
  633MOL0     H85442  11.334   1.228   7.397  1.9607  1.6639 -0.5853
  633MOL0     H85443  11.696   1.439   7.263 -1.4869 -3.8241  1.4097
  633MOL0     H85444  11.610   1.575   7.344  2.5183 -0.1218  0.2969
  633MOL0     H85445  11.621   1.605   7.102  1.2755 -1.5287 -0.2268
  633MOL0     H85446  11.468   1.618   7.186  3.9681  1.5626  3.5131
  633MOL0     H85447  11.405   1.394   7.053 -2.2251  2.0053 -3.3760
  633MOL0     H85448  11.573   1.357   7.016 -0.7152  0.5213 -0.5992
  633MOL0     H85449  11.593   1.543   6.876  0.1731  0.2192 -1.1196
  633MOL0     H85450  11.461   1.427   6.829  0.1085  1.8866 -2.0228
  633MOL0     H85451  11.242   1.780   6.868  1.0289  1.1948 -1.6618
  633MOL0     H85452  11.410   1.648   7.403  0.7816 -0.6201 -1.8688
  633MOL0     H85453  11.216   1.773   7.383  2.8864 -2.6934 -0.2834
  633MOL0     H85454  11.066   1.754   7.485 -0.2275 -1.1257  2.3596
  633MOL0     H85455  11.219   1.789   7.553 -1.6759  1.2360 -0.7356
  634MOL0     O85456   1.172   7.469  10.455  0.6405 -0.8546 -0.1203
  634MOL0     C85457   1.239   7.474  10.356 -0.3555 -0.2024  0.2135
  634MOL0     O85458   1.378   7.491  10.362  0.8868 -0.0404 -0.5905
  634MOL0     C85459   1.419   7.506  10.489  0.9952 -1.0727 -0.3891
  634MOL0     C85460   1.491   7.406  10.550  0.2362 -0.2870  0.2336
  634MOL0     C85461   1.550   7.441  10.678  0.2483  0.3864 -0.5623
  634MOL0     C85462   1.539   7.565  10.744  0.8128  0.7000  1.1022
  634MOL0     O85463   1.587   7.604  10.868 -0.3242  0.1386  0.2270
  634MOL0     C85464   1.736   7.588  10.863 -0.1681 -0.1861 -1.2160
  634MOL0     C85465   1.785   7.714  10.936  0.4458  0.6331  0.0127
  634MOL0     C85466   1.938   7.749  10.957 -0.8262  0.1641  0.6497
  634MOL0     C85467   2.008   7.650  11.051 -0.6418 -0.0836 -0.7206
  634MOL0     C85468   2.109   7.559  10.986 -0.1319  0.2275  0.3547
  634MOL0     C85469   2.054   7.457  10.889 -0.9682  0.8755 -0.1620
  634MOL0     C85470   2.169   7.377  10.811 -0.0702 -0.3545 -0.0746
  634MOL0     C85471   2.276   7.447  10.737  0.3800  0.2886  0.5657
  634MOL0     N85472   2.311   7.362  10.628  0.5645  0.8156  0.9354
  634MOL0     C85473   2.438   7.312  10.622 -0.4437 -1.0835  0.3323
  634MOL0     C85474   2.454   7.269  10.496  0.5827 -0.1208 -0.4428
  634MOL0     C85475   2.575   7.187  10.457 -0.1993  0.1619  0.4687
  634MOL0     C85476   2.694   7.270  10.415 -0.3271  0.3434 -0.2353
  634MOL0     C85477   2.783   7.300  10.537  0.2846 -0.0169 -0.1788
  634MOL0     C85478   2.914   7.363  10.470  0.7406 -0.0214  0.9125
  634MOL0     O85479   3.003   7.412  10.566  0.0286  0.2025 -0.1958
  634MOL0     C85480   3.114   7.479  10.518  0.5431 -0.6263 -0.1283
  634MOL0     C85481   3.228   7.400  10.490 -0.6664 -0.5739 -0.2548
  634MOL0     C85482   3.334   7.459  10.431  0.1647 -0.2618  0.3812
  634MOL0     C85483   3.333   7.601  10.395 -0.8492 -0.3958 -0.2461
  634MOL0     C85484   3.453   7.654  10.325 -0.1602 -0.3873  0.4204
  634MOL0     O85485   3.468   7.792  10.332 -1.0045  0.1141 -0.4715
  634MOL0     C85486   3.588   7.838  10.296  0.1622 -0.7379 -0.4669
  634MOL0     C85487   3.615   7.874  10.168 -0.2289 -0.0749  0.0644
  634MOL0     C85488   3.738   7.935  10.130 -0.0078 -0.3483 -0.8052
  634MOL0     C85489   3.840   7.959  10.230  0.5946 -0.9319  0.3675
  634MOL0     O85490   3.952   8.034  10.193 -0.5348  0.5540 -0.1053
  634MOL0     C85491   4.005   8.122  10.285 -0.8946  0.3540 -0.7845
  634MOL0     C85492   4.095   8.223  10.206  0.1187 -0.1539 -1.0477
  634MOL0     C85493   4.012   8.309  10.106  1.0002 -0.1983 -1.3106
  634MOL0     C85494   4.048   8.467  10.106  0.7300  0.3244  0.7201
  634MOL0     C85495   4.015   8.545  10.237 -0.5982  0.1895  0.4425
  634MOL0     C85496   4.097   8.676  10.240  0.1856  1.4411 -0.2099
  634MOL0     C85497   4.050   8.780  10.136 -1.1519  0.3222  0.1563
  634MOL0     C85498   4.137   8.909  10.154 -0.6874 -0.0471  0.0294
  634MOL0    Cl85499   4.111   8.988  10.315 -0.0089  0.3168  0.0021
  634MOL0     C85500   3.817   7.911  10.358  1.1551  0.7087 -0.5230
  634MOL0     C85501   3.694   7.847  10.393  0.7146 -0.3442  0.0440
  634MOL0     O85502   3.531   7.577  10.270  0.1185  0.6077 -0.0421
  634MOL0     C85503   3.220   7.678  10.427 -0.0957  0.7073  1.0122
  634MOL0     C85504   3.106   7.611  10.479 -0.0094 -0.7083 -0.0292
  634MOL0     N85505   2.336   7.287  10.426  0.2483  0.1981  0.9718
  634MOL0     N85506   2.255   7.356  10.501  0.4143 -0.2805  0.2367
  634MOL0     C85507   1.458   7.659  10.674 -0.3984 -1.1214  0.4277
  634MOL0     C85508   1.403   7.632  10.552 -0.9412  0.2007  0.1121
  634MOL0     C85509   1.153   7.448  10.229  0.8652 -0.6376  0.0655
  634MOL0     C85510   1.007   7.450  10.239  0.2496  1.0737  1.1232
  634MOL0     C85511   0.935   7.437  10.120  0.1077 -0.4357 -0.1254
  634MOL0     C85512   0.993   7.408  10.001 -0.3589  0.6106  0.8048
  634MOL0     O85513   0.922   7.400   9.889 -0.3212 -0.1042  0.5383
  634MOL0     C85514   0.873   7.526   9.844 -0.1763 -0.7821 -0.3948
  634MOL0     C85515   0.919   7.565   9.701 -0.1201  0.3271  0.3430
  634MOL0     C85516   0.826   7.497   9.593  0.3528 -0.8405 -0.7967
  634MOL0     C85517   0.913   7.455   9.474  0.7794 -0.1094  0.3066
  634MOL0     C85518   0.835   7.451   9.349  0.1482  0.2727 -0.2232
  634MOL0     C85519   0.765   7.445   9.248 -0.3795  0.1015 -0.8317
  634MOL0     C85520   1.132   7.393   9.997 -0.6735 -1.1647  0.2077
  634MOL0     C85521   1.214   7.420  10.107 -0.4116  0.3706 -0.8840
  634MOL0     C85522   1.368   7.382  10.088  0.9377 -0.0887 -0.4862
  634MOL0     H85523   1.520   7.315  10.498 -1.6681 -0.3594 -0.7570
  634MOL0     H85524   1.614   7.363  10.718  1.4966  0.5576 -2.1389
  634MOL0     H85525   1.769   7.505  10.926  1.5495  0.2045 -1.5506
  634MOL0     H85526   1.780   7.575  10.764  0.5478 -0.0317 -0.9259
  634MOL0     H85527   1.734   7.719  11.033 -0.8234 -1.1012 -0.4999
  634MOL0     H85528   1.741   7.801  10.886 -1.3234 -1.3664 -2.1684
  634MOL0     H85529   1.954   7.841  11.014  4.0214  0.4684 -0.7217
  634MOL0     H85530   1.990   7.756  10.861 -2.3959 -1.0860 -0.3437
  634MOL0     H85531   2.047   7.716  11.129 -3.3424  1.1056 -0.2377
  634MOL0     H85532   1.936   7.592  11.110  0.0587 -0.2192  0.0198
  634MOL0     H85533   2.180   7.614  10.925  1.0200 -1.1407  0.4263
  634MOL0     H85534   2.161   7.506  11.066  0.8979  0.4660 -0.1469
  634MOL0     H85535   1.990   7.383  10.938 -0.8790  0.7478 -0.2359
  634MOL0     H85536   2.004   7.515  10.811  4.1877  1.6185 -3.4569
  634MOL0     H85537   2.116   7.320  10.734 -2.3064  1.5446 -0.0580
  634MOL0     H85538   2.227   7.313  10.878  0.2980  1.6182  1.5822
  634MOL0     H85539   2.232   7.540  10.699 -1.2236 -1.0649 -1.1092
  634MOL0     H85540   2.363   7.464  10.802  2.3358  0.3671 -1.9074
  634MOL0     H85541   2.517   7.308  10.696 -2.1172  1.1963  2.4085
  634MOL0     H85542   2.599   7.105  10.526 -0.1428 -0.0802  0.1639
  634MOL0     H85543   2.533   7.130  10.374 -0.2421 -0.8343  1.1625
  634MOL0     H85544   2.746   7.201  10.348 -0.4333  1.9327 -2.0612
  634MOL0     H85545   2.659   7.358  10.360 -1.0866  0.6968  0.7801
  634MOL0     H85546   2.818   7.203  10.575  0.7689  0.2799  0.1317
  634MOL0     H85547   2.736   7.354  10.619 -0.9953 -2.4941  0.8472
  634MOL0     H85548   2.897   7.453  10.410  0.7246  0.0350  1.0013
  634MOL0     H85549   2.961   7.297  10.397  0.2685  0.8503 -0.2181
  634MOL0     H85550   3.219   7.294  10.511  0.3485 -0.6257 -0.0268
  634MOL0     H85551   3.414   7.392  10.402 -1.1304 -0.1256 -4.2425
  634MOL0     H85552   3.548   7.867  10.082 -1.3926 -0.6234  0.9878
  634MOL0     H85553   3.748   7.968  10.027  0.9166  0.0017 -0.6056
  634MOL0     H85554   3.927   8.164  10.349 -1.3695 -1.0289 -0.4166
  634MOL0     H85555   4.067   8.071  10.360 -2.2597 -1.1370 -0.5994
  634MOL0     H85556   4.137   8.291  10.281 -1.1707  1.2982 -1.5938
  634MOL0     H85557   4.185   8.185  10.156 -0.2725 -1.3485 -0.8793
  634MOL0     H85558   4.022   8.270  10.005 -1.7942 -0.9497 -1.3766
  634MOL0     H85559   3.909   8.306  10.142  2.5033 -3.2914  3.9722
  634MOL0     H85560   3.993   8.514  10.023  1.0290 -1.4518 -0.5391
  634MOL0     H85561   4.151   8.470  10.071 -0.2251  3.3445 -2.5435
  634MOL0     H85562   4.035   8.473  10.318 -2.3301 -0.1905  0.5761
  634MOL0     H85563   3.908   8.568  10.249 -0.1076  1.8690  2.0564
  634MOL0     H85564   4.085   8.714  10.342  2.8428 -3.2588  2.1830
  634MOL0     H85565   4.201   8.651  10.219  0.3758  2.6108 -0.7245
  634MOL0     H85566   3.944   8.804  10.152 -0.6931  1.3682  1.8885
  634MOL0     H85567   4.066   8.746  10.034  0.4847 -1.2227  0.8681
  634MOL0     H85568   4.242   8.880  10.153 -0.8317 -0.6427  0.8687
  634MOL0     H85569   4.119   8.987  10.079 -0.3839 -0.0963 -0.0948
  634MOL0     H85570   3.889   7.927  10.439 -0.5892  1.2055  0.9980
  634MOL0     H85571   3.684   7.786  10.482  0.2620 -0.4467 -0.0727
  634MOL0     H85572   3.223   7.784  10.404 -0.7051  0.1820 -1.8643
  634MOL0     H85573   3.028   7.681  10.508  2.7692  1.4778  2.8742
  634MOL0     H85574   1.456   7.762  10.708  2.7025 -0.7569 -0.2107
  634MOL0     H85575   1.345   7.703  10.495 -0.2560  2.5672  2.1900
  634MOL0     H85576   0.953   7.474  10.330 -0.6693  1.2599  0.5397
  634MOL0     H85577   0.831   7.466  10.114 -0.3532 -2.3078 -2.3705
  634MOL0     H85578   0.927   7.611   9.887 -2.7503  0.3110  0.9311
  634MOL0     H85579   0.767   7.552   9.851  0.4925  2.8119 -1.3012
  634MOL0     H85580   1.018   7.524   9.679 -0.5125 -0.3369 -0.2405
  634MOL0     H85581   0.918   7.674   9.692  0.7890  0.1840 -2.9242
  634MOL0     H85582   0.752   7.570   9.561  0.5439 -0.3029 -0.0293
  634MOL0     H85583   0.778   7.411   9.641 -2.0449 -0.9493 -3.1100
  634MOL0     H85584   0.991   7.531   9.465 -1.5486  2.6247  1.6897
  634MOL0     H85585   0.965   7.361   9.492  1.5015  0.0921 -0.6464
  634MOL0     H85586   0.709   7.411   9.163 -0.2283 -2.2157 -0.0592
  634MOL0     H85587   1.165   7.376   9.895 -1.9133 -0.4504 -0.3447
  634MOL0     H85588   1.376   7.321   9.998 -1.3422  2.6441 -2.7150
  634MOL0     H85589   1.430   7.472  10.097  2.1937 -1.1218  2.0869
  634MOL0     H85590   1.405   7.316  10.167  2.1293  0.4049 -0.6081
  635MOL0     O85591   7.488   4.420  11.399  0.4736  0.2369 -0.5280
  635MOL0     C85592   7.475   4.300  11.416 -0.0903 -0.1544  0.1995
  635MOL0     O85593   7.573   4.212  11.447  0.0026  0.5380 -0.9557
  635MOL0     C85594   7.701   4.254  11.474  0.6583 -0.4887  0.0512
  635MOL0     C85595   7.800   4.152  11.456 -0.0087  0.3789  0.3584
  635MOL0     C85596   7.936   4.161  11.487  0.1027  0.6960  0.3980
  635MOL0     C85597   7.979   4.289  11.521  0.9801 -0.6262 -0.4953
  635MOL0     O85598   8.108   4.312  11.550  0.3600  0.1807 -0.2469
  635MOL0     C85599   8.204   4.374  11.466  0.2780 -0.9065 -0.0016
  635MOL0     C85600   8.226   4.518  11.503  0.3358 -1.0239 -0.0774
  635MOL0     C85601   8.348   4.572  11.413  0.4116 -0.2601 -0.1444
  635MOL0     C85602   8.294   4.595  11.263 -0.1689 -0.3803  0.3761
  635MOL0     C85603   8.385   4.675  11.161 -0.1010  0.3813 -0.1718
  635MOL0     C85604   8.423   4.821  11.187  0.5194 -0.8057 -0.1688
  635MOL0     C85605   8.411   4.907  11.060  0.0320 -0.3541  0.5052
  635MOL0     C85606   8.465   5.048  11.099  0.9618  0.0858  0.3891
  635MOL0     N85607   8.385   5.117  11.199 -0.0321  0.0980  0.2120
  635MOL0     C85608   8.267   5.168  11.180  1.2859 -0.0368 -0.2552
  635MOL0     C85609   8.199   5.196  11.296 -0.4971  0.6452 -0.4058
  635MOL0     C85610   8.057   5.256  11.316 -0.7249 -0.1741  0.5205
  635MOL0     C85611   8.032   5.386  11.238 -0.2801  0.5439  0.3696
  635MOL0     C85612   8.062   5.518  11.304 -0.8832  0.2265 -0.2458
  635MOL0     C85613   8.209   5.517  11.356 -0.2920  0.2986  0.9701
  635MOL0     O85614   8.271   5.644  11.358 -0.0869  0.2458 -0.0810
  635MOL0     C85615   8.238   5.744  11.451 -0.2502 -0.4059  0.2256
  635MOL0     C85616   8.166   5.744  11.565 -0.2063  0.4183  0.6623
  635MOL0     C85617   8.145   5.854  11.639  0.5699 -0.1446 -0.0946
  635MOL0     C85618   8.191   5.979  11.594 -0.7706 -0.4796  0.2900
  635MOL0     C85619   8.173   6.103  11.678 -0.3938  0.6608 -0.1379
  635MOL0     O85620   8.206   6.227  11.633 -0.1422  0.4177 -0.7083
  635MOL0     C85621   8.205   6.338  11.714 -0.0180  0.3172 -0.0920
  635MOL0     C85622   8.164   6.464  11.682 -0.1544  0.5017  0.6872
  635MOL0     C85623   8.164   6.578  11.758  0.5181  0.2821 -0.1671
  635MOL0     C85624   8.205   6.569  11.894 -0.4133 -1.1300 -0.5387
  635MOL0     O85625   8.215   6.672  11.983 -0.1862  0.3336 -0.6962
  635MOL0     C85626   8.107   6.777  11.978 -0.8432  1.3609  0.7705
  635MOL0     C85627   8.099   6.875  12.102 -0.8750  1.1851 -0.7540
  635MOL0     C85628   8.040   6.810  12.220 -0.2206 -0.0248 -0.5646
  635MOL0     C85629   7.976   6.909  12.321 -0.4435 -0.6990 -0.1683
  635MOL0     C85630   7.847   6.965  12.269 -0.6219  0.6242 -0.4567
  635MOL0     C85631   7.752   7.007  12.378  0.2253  0.1204  0.5645
  635MOL0     C85632   7.636   7.080  12.296 -0.0983 -0.4829 -0.5391
  635MOL0     C85633   7.524   7.119  12.384  0.7017 -0.9334  0.2817
  635MOL0    Cl85634   7.509   7.293  12.393 -0.3598  0.0589  0.0690
  635MOL0     C85635   8.246   6.445  11.938  0.2236  0.4444  0.8162
  635MOL0     C85636   8.247   6.337  11.850 -0.1304  0.0417 -0.6507
  635MOL0     O85637   8.127   6.088  11.795 -0.4700 -1.1635 -0.5176
  635MOL0     C85638   8.261   5.987  11.477  0.1948 -0.4959  0.5097
  635MOL0     C85639   8.285   5.873  11.405  1.3183 -0.2342 -0.1212
  635MOL0     N85640   8.294   5.162  11.385 -0.0643 -0.2452  0.1079
  635MOL0     N85641   8.399   5.111  11.330 -0.2388 -0.5737 -0.6310
  635MOL0     C85642   7.884   4.397  11.535  0.4879 -0.0342 -0.8192
  635MOL0     C85643   7.748   4.375  11.520  0.6156 -0.1537  0.3551
  635MOL0     C85644   7.347   4.238  11.367  0.2197 -1.5406 -0.5062
  635MOL0     C85645   7.312   4.104  11.390 -0.2655  0.1419 -0.3297
  635MOL0     C85646   7.199   4.060  11.339  0.5020  1.1261  0.6515
  635MOL0     C85647   7.103   4.134  11.275 -0.5312 -0.0106 -0.6422
  635MOL0     O85648   6.985   4.089  11.228 -0.1135  0.1048 -0.3609
  635MOL0     C85649   6.961   3.950  11.216 -0.4343  0.3614  0.3864
  635MOL0     C85650   6.871   3.868  11.309  0.3329 -0.3444 -0.3415
  635MOL0     C85651   6.932   3.855  11.449 -0.2366  0.1722  0.7913
  635MOL0     C85652   6.839   3.791  11.547  0.3592 -0.6133  0.3608
  635MOL0     C85653   6.905   3.684  11.627  0.0866 -0.4850 -0.5463
  635MOL0     C85654   6.966   3.614  11.710  0.0103  0.1327 -0.0722
  635MOL0     C85655   7.118   4.273  11.283 -0.2032 -0.0163 -0.2844
  635MOL0     C85656   7.240   4.327  11.320  0.3495  1.3077  0.0838
  635MOL0     C85657   7.232   4.479  11.317  1.1611  0.2567 -0.0767
  635MOL0     H85658   7.778   4.056  11.411  2.0596 -0.1481  0.3639
  635MOL0     H85659   8.011   4.087  11.463  0.7530  1.5696 -0.3468
  635MOL0     H85660   8.300   4.322  11.472 -0.5781 -2.7793 -1.6142
  635MOL0     H85661   8.167   4.368  11.363  0.2319 -3.6017  0.0954
  635MOL0     H85662   8.258   4.536  11.606  1.4253 -0.2605 -0.5300
  635MOL0     H85663   8.135   4.572  11.475  0.3825 -1.4180 -1.0240
  635MOL0     H85664   8.437   4.509  11.411 -0.5751 -1.6672 -1.7410
  635MOL0     H85665   8.380   4.670  11.449  1.4752  0.5219 -3.0008
  635MOL0     H85666   8.270   4.500  11.215  0.8500 -0.0069 -0.9546
  635MOL0     H85667   8.203   4.654  11.275  0.2179  0.0873  1.1587
  635MOL0     H85668   8.478   4.621  11.140  1.3808  3.5473 -2.7276
  635MOL0     H85669   8.327   4.682  11.068  2.7528 -1.7757 -2.2819
  635MOL0     H85670   8.354   4.857  11.264 -1.6147  0.9450 -2.7206
  635MOL0     H85671   8.522   4.833  11.233  1.4038 -1.5225 -1.7834
  635MOL0     H85672   8.307   4.911  11.026 -0.2591  1.8116  1.5051
  635MOL0     H85673   8.462   4.873  10.969 -1.0943  0.5209 -0.4876
  635MOL0     H85674   8.564   5.039  11.145 -1.1649 -3.6451  5.0691
  635MOL0     H85675   8.463   5.099  11.002  1.8479 -2.7965 -1.2613
  635MOL0     H85676   8.218   5.184  11.084  0.7502 -2.6038 -0.4677
  635MOL0     H85677   7.989   5.183  11.274  1.1663 -0.3984 -2.4296
  635MOL0     H85678   8.024   5.263  11.420 -0.0090 -1.5776  0.8609
  635MOL0     H85679   8.089   5.398  11.145  0.0374  3.0119  0.7901
  635MOL0     H85680   7.927   5.391  11.207 -0.3127 -0.7051  0.2563
  635MOL0     H85681   7.995   5.535  11.389 -0.5395 -0.3759  0.1545
  635MOL0     H85682   8.035   5.600  11.238 -1.4875  0.3672  0.1638
  635MOL0     H85683   8.272   5.462  11.284 -1.2516 -1.0461  1.1271
  635MOL0     H85684   8.211   5.465  11.452  0.0092 -0.5043  0.5325
  635MOL0     H85685   8.138   5.649  11.608  2.7952 -0.4505  0.9236
  635MOL0     H85686   8.098   5.851  11.737 -0.9320 -2.2047 -0.8000
  635MOL0     H85687   8.119   6.490  11.586 -1.2975  0.0296  1.0719
  635MOL0     H85688   8.132   6.677  11.726  0.1223  0.8714  1.9250
  635MOL0     H85689   8.131   6.827  11.884 -2.1421  3.0915  1.3138
  635MOL0     H85690   8.010   6.732  11.957  0.6396 -0.9914 -1.6951
  635MOL0     H85691   8.201   6.910  12.124 -0.0933 -1.3744  0.0488
  635MOL0     H85692   8.041   6.962  12.068 -0.7314  1.5980  0.0356
  635MOL0     H85693   7.964   6.742  12.182 -0.4928 -0.1277  0.1599
  635MOL0     H85694   8.110   6.751  12.279  1.3093  1.5214 -0.7299
  635MOL0     H85695   8.043   6.993  12.337  0.5085 -1.8461  2.4168
  635MOL0     H85696   7.951   6.866  12.418  1.9066 -2.6980 -0.3688
  635MOL0     H85697   7.802   6.895  12.197  0.4122  0.2507 -0.7565
  635MOL0     H85698   7.873   7.052  12.208 -1.2481  1.4261  0.3944
  635MOL0     H85699   7.710   6.912  12.413  4.1465 -2.3001 -0.6035
  635MOL0     H85700   7.787   7.067  12.462  0.6373  2.0202 -0.8858
  635MOL0     H85701   7.606   7.026  12.206 -0.8694 -1.9229  0.5304
  635MOL0     H85702   7.691   7.172  12.274 -0.2183 -0.6259 -1.4757
  635MOL0     H85703   7.428   7.081  12.350  0.7858 -0.1301 -0.9429
  635MOL0     H85704   7.536   7.073  12.483  2.1862  0.3191  0.7221
  635MOL0     H85705   8.283   6.445  12.041 -1.5048  2.0581  1.4960
  635MOL0     H85706   8.285   6.238  11.870 -3.2289 -1.2697 -0.5999
  635MOL0     H85707   8.296   6.086  11.449  0.1212 -0.7693 -0.6252
  635MOL0     H85708   8.352   5.872  11.319  0.6552  2.2058 -0.7505
  635MOL0     H85709   7.928   4.493  11.560  0.2742 -0.5362  1.8352
  635MOL0     H85710   7.682   4.459  11.541 -2.1513 -2.0382 -0.3211
  635MOL0     H85711   7.376   4.049  11.459  0.2081  1.1328  0.0475
  635MOL0     H85712   7.179   3.956  11.362  0.1242  1.4453  1.8333
  635MOL0     H85713   7.057   3.898  11.204  0.7780  2.2775  1.2724
  635MOL0     H85714   6.913   3.939  11.118 -0.2488 -1.9195  0.4792
  635MOL0     H85715   6.841   3.775  11.261 -1.8936 -0.1002  0.4472
  635MOL0     H85716   6.774   3.919  11.304  1.5788  2.3104  0.7317
  635MOL0     H85717   6.967   3.947  11.498  1.2620  0.1162 -0.1099
  635MOL0     H85718   7.022   3.793  11.448 -2.0285 -2.7681 -3.2688
  635MOL0     H85719   6.807   3.870  11.616 -1.0877  0.7670 -1.7523
  635MOL0     H85720   6.750   3.757  11.494  1.1880  0.1589 -1.6318
  635MOL0     H85721   7.007   3.560  11.793 -1.6878 -1.7145 -0.3514
  635MOL0     H85722   7.031   4.330  11.250  0.8131 -0.1183 -3.3873
  635MOL0     H85723   7.144   4.524  11.271  2.5820  2.4745 -0.7974
  635MOL0     H85724   7.234   4.507  11.423  2.8100 -1.1094  0.2856
  635MOL0     H85725   7.317   4.527  11.268  1.1671  1.2084  0.8365
  636MOL0     O85726   3.984  11.268   2.375 -0.1513 -0.6889  0.3441
  636MOL0     C85727   4.088  11.331   2.405 -0.0048 -0.2987  0.3621
  636MOL0     O85728   4.180  11.374   2.321 -0.3422 -0.3775 -0.3284
  636MOL0     C85729   4.169  11.368   2.177  0.0505 -0.5785  0.1244
  636MOL0     C85730   4.264  11.449   2.106 -0.0476 -0.2403  0.3089
  636MOL0     C85731   4.271  11.450   1.970  0.5289  0.2981 -0.0473
  636MOL0     C85732   4.183  11.371   1.893  0.1620  0.1606 -0.3167
  636MOL0     O85733   4.192  11.366   1.757 -0.5090 -0.7321  0.7388
  636MOL0     C85734   4.149  11.254   1.684 -0.3938  0.3253  0.5706
  636MOL0     C85735   4.172  11.272   1.529  0.6454 -0.1456  0.0614
  636MOL0     C85736   4.131  11.141   1.459  0.3780  0.3685  0.6310
  636MOL0     C85737   4.210  11.129   1.329  0.4494  0.5907 -0.7681
  636MOL0     C85738   4.172  10.980   1.278 -0.0905 -0.8687  0.8079
  636MOL0     C85739   4.050  10.986   1.191  0.2559  0.0081  0.5473
  636MOL0     C85740   4.004  10.854   1.116  0.3661 -0.4501 -0.2170
  636MOL0     C85741   4.121  10.812   1.012  0.1841 -0.1149 -0.4519
  636MOL0     N85742   4.122  10.888   0.888 -0.5317  0.1317 -0.2223
  636MOL0     C85743   4.046  10.998   0.857 -0.0282  0.3605 -0.4906
  636MOL0     C85744   4.094  11.056   0.742  0.8017 -0.4544 -0.2662
  636MOL0     C85745   4.061  11.193   0.684 -0.1906 -0.1565 -0.2696
  636MOL0     C85746   3.935  11.183   0.599  2.2555  0.3012  0.7235
  636MOL0     C85747   3.809  11.112   0.658 -0.3158  0.9784  1.0889
  636MOL0     C85748   3.691  11.104   0.558 -0.4652  0.1187 -0.1390
  636MOL0     O85749   3.632  11.228   0.546 -0.5698 -0.2277 -0.7487
  636MOL0     C85750   3.532  11.251   0.462  0.8648 -1.1643  0.1372
  636MOL0     C85751   3.524  11.191   0.341  1.2973  1.0548 -0.0766
  636MOL0     C85752   3.423  11.225   0.249 -0.3397 -0.8039 -0.2111
  636MOL0     C85753   3.315  11.308   0.288  1.2952 -0.6803 -0.7031
  636MOL0     C85754   3.195  11.347   0.200 -0.4036  0.2239 -0.1148
  636MOL0     O85755   3.220  11.380   0.073 -0.4425 -0.4548  0.2435
  636MOL0     C85756   3.127  11.419  -0.022  0.9885 -0.6785 -0.0979
  636MOL0     C85757   3.135  11.541  -0.085  0.2891  0.4997  0.9202
  636MOL0     C85758   3.037  11.579  -0.184  0.2023  0.3053 -0.0399
  636MOL0     C85759   2.925  11.502  -0.212 -0.3952  0.7358 -0.2254
  636MOL0     O85760   2.823  11.558  -0.290 -0.3187 -0.0963 -0.3821
  636MOL0     C85761   2.699  11.504  -0.259  0.5393 -0.0408 -0.9752
  636MOL0     C85762   2.593  11.588  -0.330  1.5451  0.7140 -0.2920
  636MOL0     C85763   2.454  11.548  -0.289  1.6740  0.8814 -0.8554
  636MOL0     C85764   2.401  11.612  -0.152  0.1777  0.0441  0.3603
  636MOL0     C85765   2.253  11.601  -0.129 -0.0433 -0.5795 -0.0129
  636MOL0     C85766   2.211  11.652   0.010 -0.9067 -1.0268 -0.1591
  636MOL0     C85767   2.061  11.628   0.033 -0.7486  0.5282 -0.7397
  636MOL0     C85768   1.959  11.720  -0.040 -0.2152  0.1519 -0.2018
  636MOL0    Cl85769   1.799  11.712   0.036 -0.3050 -0.0972  0.0922
  636MOL0     C85770   2.921  11.371  -0.149  0.4455 -0.5478  0.2152
  636MOL0     C85771   3.021  11.333  -0.049  0.8921 -0.2833  0.0369
  636MOL0     O85772   3.085  11.359   0.258  0.0780  0.2869 -0.0243
  636MOL0     C85773   3.327  11.371   0.415  0.1600 -0.0941 -0.2738
  636MOL0     C85774   3.433  11.351   0.494 -0.3847 -0.5513 -0.5127
  636MOL0     N85775   4.194  10.977   0.695  0.4508  0.1001 -0.2194
  636MOL0     N85776   4.219  10.888   0.793 -0.6570  0.1059 -0.4651
  636MOL0     C85777   4.081  11.301   1.958  1.0257 -0.5409 -0.2013
  636MOL0     C85778   4.074  11.307   2.100 -0.5142  0.0464  0.1840
  636MOL0     C85779   4.120  11.368   2.545  0.1423 -0.6997 -0.6650
  636MOL0     C85780   4.212  11.474   2.568 -0.7304  1.0342  0.3413
  636MOL0     C85781   4.252  11.506   2.705  0.0750  0.3544  0.0726
  636MOL0     C85782   4.190  11.440   2.802  0.6115  0.0618 -0.0159
  636MOL0     O85783   4.238  11.481   2.924  0.0341 -0.6709  0.2311
  636MOL0     C85784   4.158  11.454   3.039  0.4805 -0.4618 -0.3535
  636MOL0     C85785   4.029  11.541   3.047 -0.2243 -0.0032 -0.8858
  636MOL0     C85786   4.044  11.691   3.037 -0.3691 -0.3620 -0.8522
  636MOL0     C85787   3.928  11.760   3.085  0.8391  1.3901 -0.5977
  636MOL0     C85788   3.915  11.774   3.232 -0.0086  0.4176 -1.2079
  636MOL0     C85789   3.909  11.808   3.347  0.0413 -0.7391  0.4124
  636MOL0     C85790   4.084  11.347   2.776  0.3763 -0.3231  1.2106
  636MOL0     C85791   4.052  11.302   2.651  1.0437 -0.1895  0.2585
  636MOL0     C85792   3.960  11.176   2.638  0.2865 -0.2589  0.0680
  636MOL0     H85793   4.336  11.511   2.159 -0.4972  1.6794 -1.2216
  636MOL0     H85794   4.348  11.507   1.919 -1.5177  3.3222  0.0280
  636MOL0     H85795   4.211  11.173   1.722  2.7699  2.6844  0.8217
  636MOL0     H85796   4.046  11.220   1.702 -0.2019 -0.0190  1.0287
  636MOL0     H85797   4.277  11.296   1.514  0.5487 -0.3825 -1.1332
  636MOL0     H85798   4.125  11.359   1.483  1.3953  1.4364  2.1361
  636MOL0     H85799   4.025  11.151   1.437  1.0403  1.7623 -2.4838
  636MOL0     H85800   4.141  11.057   1.528 -2.1973  0.6725  1.4513
  636MOL0     H85801   4.181  11.210   1.262 -1.8238 -0.8141 -1.5985
  636MOL0     H85802   4.316  11.147   1.352  1.0231  0.3159 -2.9441
  636MOL0     H85803   4.251  10.947   1.211 -0.7021 -0.0058 -0.3819
  636MOL0     H85804   4.161  10.904   1.355 -1.5006 -0.4164  1.0781
  636MOL0     H85805   3.966  11.020   1.252  0.7702  0.4460  1.0223
  636MOL0     H85806   4.066  11.062   1.114 -0.2412 -1.3268 -0.9289
  636MOL0     H85807   3.910  10.857   1.061 -1.4450 -2.1855  2.5127
  636MOL0     H85808   4.005  10.769   1.185  1.2560 -1.3561 -1.3071
  636MOL0     H85809   4.217  10.815   1.064 -0.8381 -2.5930  1.8125
  636MOL0     H85810   4.122  10.703   1.000 -4.7118 -0.5745  1.1083
  636MOL0     H85811   3.965  11.041   0.915 -2.6202 -3.0669 -1.2225
  636MOL0     H85812   4.026  11.251   0.770  1.3627 -1.5423  1.3633
  636MOL0     H85813   4.151  11.235   0.639  0.4181 -1.6999 -0.5574
  636MOL0     H85814   3.918  11.276   0.544  0.9439 -1.7026 -2.6444
  636MOL0     H85815   3.970  11.118   0.518 -0.2486  1.6990 -1.6543
  636MOL0     H85816   3.776  11.158   0.751 -0.9209  1.4274  0.6546
  636MOL0     H85817   3.835  11.009   0.684 -0.2856  0.5201 -0.6749
  636MOL0     H85818   3.628  11.028   0.605 -0.0344 -0.7721 -0.9636
  636MOL0     H85819   3.731  11.076   0.460  0.9235 -0.1116  0.4695
  636MOL0     H85820   3.604  11.127   0.307  0.7579 -1.1935  2.5854
  636MOL0     H85821   3.431  11.200   0.144 -4.0848  0.2419 -0.9284
  636MOL0     H85822   3.219  11.608  -0.069  1.9183 -1.1155 -0.3656
  636MOL0     H85823   3.043  11.671  -0.242 -1.1707  0.3420 -0.1653
  636MOL0     H85824   2.703  11.405  -0.307 -1.9858 -0.6676 -0.0699
  636MOL0     H85825   2.688  11.501  -0.150  4.2960 -2.3460 -0.4499
  636MOL0     H85826   2.607  11.695  -0.311 -2.5380  1.7387 -1.9386
  636MOL0     H85827   2.600  11.586  -0.439 -2.1714  3.6431 -0.8141
  636MOL0     H85828   2.386  11.600  -0.358  1.1335  0.9350 -0.2931
  636MOL0     H85829   2.441  11.440  -0.295 -0.4188  1.0128  0.3836
  636MOL0     H85830   2.457  11.705  -0.141 -1.9831  1.4666 -0.0611
  636MOL0     H85831   2.453  11.541  -0.087 -0.2710 -0.8360 -0.2317
  636MOL0     H85832   2.234  11.494  -0.124 -0.8625 -0.4278  0.3742
  636MOL0     H85833   2.203  11.642  -0.218  0.1927 -1.5860 -0.6293
  636MOL0     H85834   2.263  11.592   0.086  0.2279 -1.8272 -1.5190
  636MOL0     H85835   2.226  11.760   0.018  2.5941 -1.2933 -1.3124
  636MOL0     H85836   2.040  11.660   0.136  2.7843  3.2372 -0.6819
  636MOL0     H85837   2.046  11.524   0.003 -3.7030  0.1454  1.6176
  636MOL0     H85838   1.997  11.821  -0.022 -0.4156  0.2308 -0.2253
  636MOL0     H85839   1.958  11.692  -0.146 -3.0128 -1.2342  0.1110
  636MOL0     H85840   2.840  11.304  -0.176 -0.6392  0.5640  0.6047
  636MOL0     H85841   3.006  11.246   0.015  0.2829  0.7862  1.4137
  636MOL0     H85842   3.243  11.433   0.444 -0.5428 -1.4042  0.6307
  636MOL0     H85843   3.432  11.394   0.593 -2.2274 -3.4522  0.8563
  636MOL0     H85844   4.012  11.246   1.895  0.4030  0.7636 -0.7118
  636MOL0     H85845   4.013  11.232   2.150 -0.8696 -1.6423 -2.5788
  636MOL0     H85846   4.257  11.525   2.484 -2.0447 -0.9195 -1.6776
  636MOL0     H85847   4.327  11.576   2.738  2.1498 -1.0966 -1.3076
  636MOL0     H85848   4.224  11.470   3.124  0.2357 -1.7823  0.1038
  636MOL0     H85849   4.134  11.348   3.047 -2.3291 -0.1903 -3.2249
  636MOL0     H85850   3.982  11.516   3.143  1.7417  0.1933  0.1833
  636MOL0     H85851   3.962  11.509   2.967 -0.4332 -0.0066 -0.7094
  636MOL0     H85852   4.059  11.708   2.930 -3.4484 -1.7907 -1.6092
  636MOL0     H85853   4.130  11.721   3.098 -0.9136 -2.6454  1.1972
  636MOL0     H85854   3.918  11.855   3.032  1.6794  0.4528 -2.5863
  636MOL0     H85855   3.847  11.691   3.059  0.9624  0.5847  1.0740
  636MOL0     H85856   3.909  11.847   3.446  0.1857 -0.5135  0.3246
  636MOL0     H85857   4.052  11.311   2.873  2.7357  0.1095  2.2198
  636MOL0     H85858   3.932  11.128   2.732 -3.5038 -1.5563 -1.5154
  636MOL0     H85859   3.867  11.216   2.595 -1.0781 -1.9527  1.2617
  636MOL0     H85860   3.996  11.097   2.571 -0.3106 -0.2859 -0.2366
  637MOL0     O85861   4.729   4.830   3.015  0.8782  0.1355  0.1567
  637MOL0     C85862   4.649   4.907   2.960 -0.6330  0.4468 -0.0006
  637MOL0     O85863   4.681   4.975   2.846 -0.0419  0.5043 -0.2194
  637MOL0     C85864   4.794   4.957   2.768 -0.4259 -1.0831 -0.6668
  637MOL0     C85865   4.824   5.068   2.690 -0.2588  0.2690 -0.3026
  637MOL0     C85866   4.932   5.066   2.606  0.8104 -0.0684 -0.2085
  637MOL0     C85867   5.019   4.955   2.606 -0.6114  0.8689 -0.0420
  637MOL0     O85868   5.144   4.947   2.548 -0.2160 -0.2465  0.6933
  637MOL0     C85869   5.134   4.910   2.402  0.3816  0.7882 -1.2921
  637MOL0     C85870   5.262   4.931   2.323  0.7391 -0.4823 -0.0620
  637MOL0     C85871   5.380   4.837   2.351 -0.1881  0.8654  0.1410
  637MOL0     C85872   5.495   4.847   2.253  1.5384 -0.0489  0.7464
  637MOL0     C85873   5.471   4.787   2.115 -0.1089  0.3483  0.3726
  637MOL0     C85874   5.602   4.774   2.038  0.1539 -0.7639 -0.2792
  637MOL0     C85875   5.592   4.674   1.926  0.7459 -0.2102  0.1437
  637MOL0     C85876   5.610   4.534   1.986 -0.6728  0.1362 -0.5522
  637MOL0     N85877   5.609   4.420   1.883 -0.7806  0.5135 -0.8023
  637MOL0     C85878   5.500   4.379   1.811 -0.1508  1.1028 -0.1754
  637MOL0     C85879   5.537   4.278   1.729  1.2714 -0.6784 -0.7938
  637MOL0     C85880   5.438   4.201   1.643  0.1630 -0.4205  0.7591
  637MOL0     C85881   5.379   4.294   1.536  0.0668  0.1659  0.5080
  637MOL0     C85882   5.295   4.205   1.436  0.3284  0.6887 -1.2311
  637MOL0     C85883   5.248   4.285   1.316  0.1659  0.1191  0.0612
  637MOL0     O85884   5.159   4.392   1.342  0.1784  0.1589  0.4023
  637MOL0     C85885   5.038   4.367   1.394  0.0022 -0.4331  0.4240
  637MOL0     C85886   4.926   4.320   1.316  1.2542  0.6611 -0.0039
  637MOL0     C85887   4.805   4.302   1.378  0.2161 -0.3760 -0.5318
  637MOL0     C85888   4.784   4.355   1.510 -0.1538 -0.0935 -0.6116
  637MOL0     C85889   4.652   4.355   1.572 -0.8480 -0.1268  0.3462
  637MOL0     O85890   4.636   4.350   1.708  0.4222 -0.2634  0.0028
  637MOL0     C85891   4.501   4.378   1.742  0.7016  0.2891  0.0242
  637MOL0     C85892   4.416   4.285   1.799  0.0705 -0.5348 -0.0837
  637MOL0     C85893   4.291   4.313   1.844  0.5482 -0.1884  0.5280
  637MOL0     C85894   4.234   4.439   1.812 -0.3183  0.2757 -0.6066
  637MOL0     O85895   4.104   4.475   1.841 -0.2570 -0.2704  1.1735
  637MOL0     C85896   4.013   4.389   1.899  0.0560  1.2069 -0.3056
  637MOL0     C85897   3.871   4.431   1.885 -0.5447 -0.5776  0.4389
  637MOL0     C85898   3.818   4.509   2.003 -0.8119 -0.1423  0.4523
  637MOL0     C85899   3.684   4.571   1.970 -0.1643 -0.9107 -0.0449
  637MOL0     C85900   3.707   4.723   1.955 -0.8931 -0.2892  0.8362
  637MOL0     C85901   3.798   4.765   1.840  0.8994  0.7130  0.2723
  637MOL0     C85902   3.800   4.916   1.837 -0.5092  0.6108 -0.0521
  637MOL0     C85903   3.904   4.964   1.731  0.1268 -0.2717 -0.1181
  637MOL0    Cl85904   3.916   5.152   1.744  0.5588  0.5139 -0.1044
  637MOL0     C85905   4.320   4.536   1.767 -0.4049  0.4527  0.3484
  637MOL0     C85906   4.449   4.504   1.716 -0.6731  0.3206  0.1774
  637MOL0     O85907   4.562   4.343   1.493 -0.2594 -0.6185  0.3158
  637MOL0     C85908   4.897   4.395   1.587  0.4995 -0.8412 -0.2683
  637MOL0     C85909   5.020   4.401   1.528 -0.1735  0.2552  0.4493
  637MOL0     N85910   5.669   4.258   1.746  0.2000 -0.1408  0.4129
  637MOL0     N85911   5.712   4.339   1.846  1.1533  0.1901  0.4059
  637MOL0     C85912   4.987   4.849   2.686  0.8774  0.9831 -0.6194
  637MOL0     C85913   4.874   4.837   2.758  0.4384  0.4655  0.5691
  637MOL0     C85914   4.510   4.918   3.018  0.2354 -0.8141  0.2358
  637MOL0     C85915   4.436   5.038   2.972  0.2829  0.1461 -1.0902
  637MOL0     C85916   4.306   5.069   3.011 -1.0632  0.6492 -0.9551
  637MOL0     C85917   4.241   4.974   3.091 -0.9744  0.5501 -1.1392
  637MOL0     O85918   4.118   4.991   3.147 -0.2943 -0.6987 -0.1182
  637MOL0     C85919   4.090   5.124   3.206  0.2354 -0.4592 -0.2475
  637MOL0     C85920   3.998   5.086   3.317 -0.0596 -0.1047 -0.5776
  637MOL0     C85921   3.854   5.050   3.276  0.1383 -0.1645 -0.7472
  637MOL0     C85922   3.772   5.050   3.409 -0.0167  0.3961  0.0380
  637MOL0     C85923   3.634   5.013   3.397  0.0099 -1.1012 -0.1282
  637MOL0     C85924   3.519   4.982   3.380 -0.5573  0.1066  0.3828
  637MOL0     C85925   4.314   4.862   3.136  0.0224  0.4381  0.3882
  637MOL0     C85926   4.446   4.829   3.100 -0.6918 -0.3746  0.0895
  637MOL0     C85927   4.508   4.707   3.149  0.4129  0.2954  0.2822
  637MOL0     H85928   4.753   5.150   2.688 -1.6305 -0.8676 -1.7730
  637MOL0     H85929   4.940   5.141   2.528 -0.7331  1.2896  0.8902
  637MOL0     H85930   5.096   4.808   2.389  1.0052  0.6183 -1.8622
  637MOL0     H85931   5.054   4.970   2.358  2.1571  2.0681 -2.9355
  637MOL0     H85932   5.304   5.031   2.309  0.1115 -0.2631 -0.4384
  637MOL0     H85933   5.225   4.898   2.225  1.6165 -1.4150 -0.0947
  637MOL0     H85934   5.353   4.731   2.346 -1.7422  1.1790  0.9078
  637MOL0     H85935   5.413   4.850   2.455  2.1550  0.6762 -0.5439
  637MOL0     H85936   5.519   4.953   2.246  0.9234  0.0578  0.1164
  637MOL0     H85937   5.571   4.792   2.309 -0.3271 -2.9688  0.6428
  637MOL0     H85938   5.419   4.691   2.125  0.6561  0.1429  3.3442
  637MOL0     H85939   5.401   4.852   2.062 -0.8655  2.3702  3.5790
  637MOL0     H85940   5.609   4.879   2.006 -2.0656  0.8841  3.8650
  637MOL0     H85941   5.685   4.749   2.105 -0.1706  1.0496  0.8807
  637MOL0     H85942   5.673   4.689   1.854 -0.0773  3.1288 -0.2447
  637MOL0     H85943   5.504   4.690   1.863  1.8552  0.6901 -1.2329
  637MOL0     H85944   5.708   4.530   2.036 -2.1700 -1.7426  2.5504
  637MOL0     H85945   5.532   4.517   2.061  1.2738  1.3067  1.8968
  637MOL0     H85946   5.398   4.413   1.826 -0.2466  0.7186  0.0611
  637MOL0     H85947   5.482   4.116   1.590 -1.7443  0.3876 -2.4016
  637MOL0     H85948   5.357   4.155   1.701  1.2835 -3.3571  0.1751
  637MOL0     H85949   5.323   4.368   1.594 -1.4272 -0.9217  0.5014
  637MOL0     H85950   5.456   4.343   1.475 -0.4585  1.1144  0.5764
  637MOL0     H85951   5.218   4.149   1.490  1.8501 -1.0975 -0.8004
  637MOL0     H85952   5.347   4.119   1.393 -0.0313  0.8377 -1.9776
  637MOL0     H85953   5.200   4.210   1.252  2.3459  1.5675 -3.5650
  637MOL0     H85954   5.340   4.318   1.267 -0.2338  1.4948  0.1923
  637MOL0     H85955   4.947   4.288   1.214  0.1679  2.9195 -1.0198
  637MOL0     H85956   4.724   4.258   1.322 -0.1482  0.2152 -0.4782
  637MOL0     H85957   4.452   4.187   1.829  1.2883  0.2785  1.2513
  637MOL0     H85958   4.224   4.239   1.886 -1.7092  1.1346 -0.5598
  637MOL0     H85959   4.013   4.289   1.855 -1.5207  1.7430 -1.6168
  637MOL0     H85960   4.039   4.364   2.003 -0.5642  0.3319 -0.3469
  637MOL0     H85961   3.872   4.502   1.802  0.8223  1.2493  1.9270
  637MOL0     H85962   3.805   4.345   1.873 -1.3394 -0.3707  2.9059
  637MOL0     H85963   3.815   4.436   2.084  1.6226 -0.2676  0.4868
  637MOL0     H85964   3.886   4.592   2.022  1.6661 -1.1960 -2.8273
  637MOL0     H85965   3.623   4.546   2.056  3.4517  2.3007  3.8890
  637MOL0     H85966   3.650   4.529   1.875 -1.2771  2.2454 -1.1667
  637MOL0     H85967   3.750   4.756   2.050 -0.2477  1.2056  0.0592
  637MOL0     H85968   3.618   4.782   1.929  0.7306  0.8384 -2.8550
  637MOL0     H85969   3.902   4.733   1.847  0.5143 -0.2492  2.2115
  637MOL0     H85970   3.754   4.730   1.746  1.0272  1.3670 -0.0330
  637MOL0     H85971   3.819   4.959   1.936  0.5516  0.6616 -0.2584
  637MOL0     H85972   3.705   4.952   1.797 -0.9741 -1.5291 -0.9884
  637MOL0     H85973   4.002   4.924   1.757  0.3250 -0.8238 -1.6229
  637MOL0     H85974   3.876   4.932   1.630  0.8613 -1.6736  0.0989
  637MOL0     H85975   4.294   4.637   1.738  0.5813  0.3433 -1.0075
  637MOL0     H85976   4.510   4.572   1.658 -1.3716  0.9521  0.1701
  637MOL0     H85977   4.879   4.430   1.688 -0.9362  1.1197 -1.1459
  637MOL0     H85978   5.103   4.432   1.590  0.3284  0.2689 -0.2265
  637MOL0     H85979   5.050   4.762   2.690 -2.9606 -2.1084  4.2663
  637MOL0     H85980   4.841   4.746   2.806  1.5663  1.4812  3.5294
  637MOL0     H85981   4.484   5.109   2.906  1.5626  1.0924  0.7574
  637MOL0     H85982   4.251   5.161   2.995 -0.4954  0.8629 -1.7335
  637MOL0     H85983   4.049   5.191   3.130 -1.4746  1.1999  1.9662
  637MOL0     H85984   4.177   5.173   3.251 -0.7683  2.7657 -1.5173
  637MOL0     H85985   3.991   5.172   3.384  1.9860  1.3836 -2.1434
  637MOL0     H85986   4.045   5.004   3.372 -0.0423  0.1702 -0.1776
  637MOL0     H85987   3.853   4.953   3.225  0.1632 -0.3151 -0.4649
  637MOL0     H85988   3.817   5.127   3.208 -0.1795  0.9404  0.6217
  637MOL0     H85989   3.821   4.986   3.482  0.9414  2.3991  1.2388
  637MOL0     H85990   3.769   5.144   3.465 -0.1659  0.2345  0.3051
  637MOL0     H85991   3.423   4.949   3.347 -0.4242  0.1695 -0.0708
  637MOL0     H85992   4.257   4.806   3.209  0.4287  1.4513  1.5390
  637MOL0     H85993   4.440   4.651   3.214  0.5217 -0.0160  0.1295
  637MOL0     H85994   4.545   4.653   3.062 -0.2873  0.7368 -0.3028
  637MOL0     H85995   4.584   4.744   3.218  0.8624 -2.1152  1.1843
  638MOL0     O85996   3.316   1.530   0.872 -0.1240 -0.5769 -0.0266
  638MOL0     C85997   3.203   1.505   0.896  1.0320 -0.1981 -0.0124
  638MOL0     O85998   3.153   1.498   1.022 -0.1052  0.0119  0.3164
  638MOL0     C85999   3.236   1.529   1.132 -0.4067  0.0659  0.9330
  638MOL0     C86000   3.324   1.438   1.199 -0.2381  0.3820 -0.0813
  638MOL0     C86001   3.406   1.486   1.307 -0.6628  0.4018  0.7510
  638MOL0     C86002   3.400   1.614   1.357  0.1081  0.2276 -0.3326
  638MOL0     O86003   3.475   1.652   1.463  0.1346  0.2818  0.1392
  638MOL0     C86004   3.594   1.737   1.450 -0.0393  0.3823  0.4650
  638MOL0     C86005   3.558   1.889   1.467 -0.6870 -0.3038 -0.7992
  638MOL0     C86006   3.515   1.943   1.605  0.3809  0.3992 -0.7457
  638MOL0     C86007   3.638   1.955   1.700  0.0724  0.3757 -0.9490
  638MOL0     C86008   3.591   1.983   1.840 -0.5115 -0.2199 -0.5055
  638MOL0     C86009   3.708   2.006   1.937  0.0249  0.3361  0.9638
  638MOL0     C86010   3.666   2.001   2.089  0.9177  0.6029 -0.0217
  638MOL0     C86011   3.589   2.131   2.140  0.9199 -0.6798  0.2033
  638MOL0     N86012   3.677   2.245   2.103 -0.2957  0.1024  0.6031
  638MOL0     C86013   3.794   2.275   2.170  0.0886 -0.7113  0.5211
  638MOL0     C86014   3.834   2.386   2.117 -0.8432  1.2362 -0.2222
  638MOL0     C86015   3.963   2.462   2.149 -0.5699  0.2904  0.4098
  638MOL0     C86016   3.976   2.584   2.064 -0.2900  1.0044  0.3578
  638MOL0     C86017   3.887   2.704   2.070 -0.0127  0.3295  0.4135
  638MOL0     C86018   3.866   2.747   2.211  0.2540 -0.1343 -0.3183
  638MOL0     O86019   3.986   2.810   2.260  0.9993 -0.4294  0.5528
  638MOL0     C86020   3.978   2.861   2.387  0.2500 -0.5492 -1.0400
  638MOL0     C86021   4.070   2.948   2.450  0.1371 -0.5892 -0.3418
  638MOL0     C86022   4.072   2.981   2.588 -0.0887 -0.5912 -0.1956
  638MOL0     C86023   3.972   2.937   2.677 -0.1196  1.1261 -0.2942
  638MOL0     C86024   3.971   2.957   2.826 -0.1854 -0.7847  0.2162
  638MOL0     O86025   4.081   3.024   2.886  1.3418  0.1694 -0.7421
  638MOL0     C86026   4.087   3.053   3.025  0.2759  0.6420  0.1929
  638MOL0     C86027   4.203   3.010   3.094  0.4591 -0.9101 -0.2772
  638MOL0     C86028   4.220   3.042   3.235  1.4266 -0.5617 -0.1897
  638MOL0     C86029   4.130   3.119   3.302  0.4514 -1.1562 -0.2519
  638MOL0     O86030   4.160   3.154   3.429 -0.6413  0.0504  0.2100
  638MOL0     C86031   4.091   3.244   3.505  0.4542 -0.3955  0.5643
  638MOL0     C86032   4.154   3.380   3.501  0.4176 -0.6029 -0.1611
  638MOL0     C86033   4.277   3.383   3.589 -1.1680 -0.4286 -0.5359
  638MOL0     C86034   4.305   3.533   3.620  0.2134  0.4044  1.2505
  638MOL0     C86035   4.450   3.557   3.682  0.4432  0.3583 -0.3503
  638MOL0     C86036   4.587   3.536   3.592  0.1178 -0.3679 -0.6543
  638MOL0     C86037   4.717   3.551   3.670  0.4662  0.7549  0.6272
  638MOL0     C86038   4.837   3.512   3.589 -0.2061  0.2322 -0.7642
  638MOL0    Cl86039   4.969   3.467   3.702  0.0540  0.3121  0.3440
  638MOL0     C86040   4.014   3.169   3.230 -0.1958  1.4767 -0.2827
  638MOL0     C86041   3.994   3.135   3.093  0.4084  0.3133  0.4271
  638MOL0     O86042   3.871   2.918   2.887 -0.2993  0.0360 -0.5147
  638MOL0     C86043   3.878   2.848   2.619  0.1450 -0.7042  0.1041
  638MOL0     C86044   3.876   2.810   2.486 -0.4639 -0.7095  1.0315
  638MOL0     N86045   3.753   2.418   2.010 -0.9974  0.0840 -0.8795
  638MOL0     N86046   3.657   2.330   1.995  0.4071  0.3863 -0.6083
  638MOL0     C86047   3.322   1.699   1.294  1.6572  0.3285  0.0720
  638MOL0     C86048   3.236   1.659   1.185 -0.2106 -0.3038 -0.7867
  638MOL0     C86049   3.115   1.483   0.779  0.6036  0.5900 -0.2124
  638MOL0     C86050   2.981   1.428   0.798  0.1215 -0.8080  0.5958
  638MOL0     C86051   2.886   1.419   0.691  0.1561 -0.0321  0.0304
  638MOL0     C86052   2.927   1.450   0.562 -0.1279 -0.7484  0.1434
  638MOL0     O86053   2.847   1.428   0.453  0.2488 -0.2808 -0.7836
  638MOL0     C86054   2.749   1.314   0.456  0.3279  0.2085  1.0057
  638MOL0     C86055   2.744   1.238   0.323  0.3762  0.0564 -0.7486
  638MOL0     C86056   2.645   1.285   0.228 -0.4752 -0.3294  0.7007
  638MOL0     C86057   2.656   1.440   0.203 -0.5516  0.1729 -0.0273
  638MOL0     C86058   2.742   1.455   0.084  0.5344  0.7054  0.9594
  638MOL0     C86059   2.828   1.465  -0.004 -0.1415 -0.0409 -1.0330
  638MOL0     C86060   3.053   1.492   0.537  0.2710  0.0359  0.0897
  638MOL0     C86061   3.141   1.515   0.642 -0.2062 -0.0858 -0.3508
  638MOL0     C86062   3.271   1.583   0.606 -0.0225 -0.0449  0.4281
  638MOL0     H86063   3.338   1.335   1.169 -0.4949  0.5425 -0.7690
  638MOL0     H86064   3.472   1.414   1.354  2.2450  1.9568 -0.6894
  638MOL0     H86065   3.666   1.713   1.529  2.0766 -1.4267 -1.8700
  638MOL0     H86066   3.657   1.726   1.362 -3.6820 -0.5474 -2.2670
  638MOL0     H86067   3.474   1.907   1.399 -0.3858 -0.3661 -1.1959
  638MOL0     H86068   3.641   1.948   1.426 -0.1902 -0.6903 -0.3465
  638MOL0     H86069   3.440   1.874   1.646  0.6012  0.3458 -0.4305
  638MOL0     H86070   3.459   2.037   1.600  1.5460  1.3637  2.0785
  638MOL0     H86071   3.710   1.872   1.694  1.5005  1.3682  1.1549
  638MOL0     H86072   3.691   2.043   1.661 -0.3499  1.6630  1.2191
  638MOL0     H86073   3.528   2.073   1.836 -1.7783 -1.1137 -1.7900
  638MOL0     H86074   3.531   1.905   1.887  0.1539  1.8281  4.3546
  638MOL0     H86075   3.774   1.921   1.916 -2.5453 -1.0083 -2.5488
  638MOL0     H86076   3.762   2.098   1.911  2.3498 -0.5994  2.1568
  638MOL0     H86077   3.755   1.976   2.147  1.3874  3.4196  0.6457
  638MOL0     H86078   3.594   1.920   2.106 -0.7024  1.3896 -2.5117
  638MOL0     H86079   3.491   2.145   2.092  0.9094 -0.7389  0.2081
  638MOL0     H86080   3.574   2.126   2.248 -2.2800 -0.9906 -0.1320
  638MOL0     H86081   3.840   2.232   2.258  2.0480 -3.0335 -1.5022
  638MOL0     H86082   3.965   2.491   2.254  0.2238  1.2406  0.1405
  638MOL0     H86083   4.041   2.385   2.137 -0.9066 -0.2692  1.6834
  638MOL0     H86084   4.077   2.621   2.082 -0.4806  1.4798  0.4654
  638MOL0     H86085   3.987   2.548   1.961  1.8091 -0.3257  0.9949
  638MOL0     H86086   3.792   2.671   2.027  1.1099  0.8788 -2.6969
  638MOL0     H86087   3.941   2.782   2.015  0.1837 -1.4364 -2.0915
  638MOL0     H86088   3.839   2.666   2.279  0.5120 -0.4072 -0.5410
  638MOL0     H86089   3.788   2.824   2.211  0.7973  0.6648  3.9860
  638MOL0     H86090   4.155   2.983   2.392 -0.6723  1.1143 -0.5650
  638MOL0     H86091   4.158   3.039   2.621 -0.4458 -0.3196  0.2591
  638MOL0     H86092   4.287   2.965   3.041  1.3422  2.8976 -2.4914
  638MOL0     H86093   4.301   2.995   3.291  2.5259 -0.5218 -1.6732
  638MOL0     H86094   3.988   3.235   3.471  1.5118 -1.3677 -2.7434
  638MOL0     H86095   4.085   3.202   3.606 -1.6493 -0.3920  0.4845
  638MOL0     H86096   4.197   3.388   3.401 -0.8102  0.2283 -0.6459
  638MOL0     H86097   4.086   3.465   3.506  1.0522  0.0471 -1.7396
  638MOL0     H86098   4.271   3.336   3.688 -0.0053  1.5060  0.5233
  638MOL0     H86099   4.366   3.340   3.543  1.4585  1.9081  1.9289
  638MOL0     H86100   4.220   3.580   3.671 -0.9024  1.2467 -1.2114
  638MOL0     H86101   4.304   3.580   3.521 -1.0512 -2.8613 -0.4089
  638MOL0     H86102   4.466   3.487   3.764 -1.4613 -0.2692 -0.4697
  638MOL0     H86103   4.453   3.661   3.716  2.2040  0.3743 -0.4653
  638MOL0     H86104   4.583   3.435   3.549  5.6402 -1.6508  0.9698
  638MOL0     H86105   4.584   3.605   3.507  2.4560  0.1151 -0.4347
  638MOL0     H86106   4.711   3.484   3.756 -0.5531 -0.0671 -0.0566
  638MOL0     H86107   4.734   3.652   3.708 -1.5845 -0.1073  4.3093
  638MOL0     H86108   4.797   3.426   3.534  0.3829  0.3379 -1.3802
  638MOL0     H86109   4.870   3.573   3.505  1.0075  1.6915  0.7222
  638MOL0     H86110   3.952   3.246   3.276 -1.0663  0.1496  0.8479
  638MOL0     H86111   3.905   3.170   3.044 -0.3854 -1.2756  0.6554
  638MOL0     H86112   3.797   2.809   2.681  0.8700 -4.3208 -0.9671
  638MOL0     H86113   3.794   2.749   2.450 -1.4807  0.5552  1.1125
  638MOL0     H86114   3.309   1.798   1.335  0.5296  0.7536 -1.2191
  638MOL0     H86115   3.165   1.724   1.136  2.3893  2.5073 -1.1201
  638MOL0     H86116   2.958   1.419   0.904 -1.2336  2.6911  0.7318
  638MOL0     H86117   2.791   1.374   0.718  1.3725 -1.7013  1.8583
  638MOL0     H86118   2.650   1.342   0.493  0.9279  0.9226  2.1140
  638MOL0     H86119   2.780   1.240   0.530  0.5207 -0.1362  0.5882
  638MOL0     H86120   2.724   1.137   0.357  0.8493  0.4741  0.8422
  638MOL0     H86121   2.847   1.238   0.287  0.4570  0.2677 -0.5213
  638MOL0     H86122   2.546   1.273   0.272 -0.6568  1.2211  0.7708
  638MOL0     H86123   2.642   1.231   0.133 -1.8661 -0.6163  0.8822
  638MOL0     H86124   2.567   1.494   0.169  0.2858  0.8362 -1.2303
  638MOL0     H86125   2.690   1.495   0.291  1.3745 -0.7156 -0.1670
  638MOL0     H86126   2.910   1.483  -0.071  1.3100  0.6900  0.8486
  638MOL0     H86127   3.075   1.518   0.434  0.0251  2.4550  0.5839
  638MOL0     H86128   3.301   1.660   0.677 -2.2520 -1.9250  3.7177
  638MOL0     H86129   3.350   1.508   0.598  0.1681  0.3292 -2.2791
  638MOL0     H86130   3.280   1.608   0.500  5.1478 -1.6582  0.1947
  639MOL0     O86131   8.075   4.273   1.552  0.1452  0.1766 -0.0830
  639MOL0     C86132   8.097   4.386   1.576 -0.7649  0.4182 -0.3942
  639MOL0     O86133   8.223   4.445   1.623 -0.2391 -0.4051  0.6228
  639MOL0     C86134   8.327   4.360   1.641 -0.2299 -0.1493  0.1130
  639MOL0     C86135   8.452   4.404   1.599 -0.3247 -0.0374 -0.6861
  639MOL0     C86136   8.571   4.337   1.639  0.5879 -0.1123  0.8495
  639MOL0     C86137   8.571   4.227   1.726  0.4944 -0.0022  0.4165
  639MOL0     O86138   8.680   4.172   1.787 -0.0750 -0.3494  0.3489
  639MOL0     C86139   8.806   4.243   1.781 -0.0860  0.5942 -0.2169
  639MOL0     C86140   8.917   4.147   1.835 -0.4392  0.2252 -0.3295
  639MOL0     C86141   8.857   4.045   1.938  0.4075  1.2264 -0.5882
  639MOL0     C86142   8.961   3.964   2.022  0.1342  0.3952  0.7154
  639MOL0     C86143   8.894   3.828   2.041 -0.1270  0.5344 -0.0055
  639MOL0     C86144   8.994   3.715   2.077  0.8138  1.0226  0.3375
  639MOL0     C86145   9.083   3.742   2.193  0.6042 -0.1782  0.2979
  639MOL0     C86146   9.137   3.615   2.251 -0.9073  0.2720 -0.1160
  639MOL0     N86147   9.238   3.544   2.170  0.4257  0.4141 -0.1020
  639MOL0     C86148   9.208   3.461   2.059  0.0054  0.5349  0.2577
  639MOL0     C86149   9.330   3.435   2.007 -0.0129  0.2213 -0.8552
  639MOL0     C86150   9.341   3.361   1.880 -0.3197  0.3053  0.1691
  639MOL0     C86151   9.487   3.325   1.854  0.6738 -1.3653 -0.7229
  639MOL0     C86152   9.504   3.165   1.855 -1.0535 -0.2423 -0.7788
  639MOL0     C86153   9.511   3.108   1.992 -0.2857  0.2057  0.3643
  639MOL0     O86154   9.527   2.967   1.990  0.2818  0.3402 -0.5091
  639MOL0     C86155   9.595   2.914   2.101  0.4260  0.7762 -1.3435
  639MOL0     C86156   9.726   2.935   2.139  0.5555  1.2720  0.2870
  639MOL0     C86157   9.777   2.873   2.248 -0.1701  0.9351 -0.4410
  639MOL0     C86158   9.714   2.768   2.311  1.1571  0.1644 -0.0316
  639MOL0     C86159   9.775   2.691   2.413 -0.3845  0.1824  0.5304
  639MOL0     O86160   9.697   2.587   2.465  0.9045  0.6617 -0.2931
  639MOL0     C86161   9.757   2.507   2.562 -1.5936 -0.6825 -0.6026
  639MOL0     C86162   9.791   2.559   2.687  0.4526  0.7780  0.2953
  639MOL0     C86163   9.848   2.470   2.788  0.6057 -0.7304 -0.1103
  639MOL0     C86164   9.885   2.340   2.747  0.1791  0.3605 -0.3830
  639MOL0     O86165   9.954   2.249   2.829 -0.2288  0.0821  0.3752
  639MOL0     C86166  10.015   2.308   2.941 -0.7204 -0.3644 -0.8691
  639MOL0     C86167  10.162   2.257   2.935 -0.5082 -0.9766  0.7180
  639MOL0     C86168  10.215   2.276   3.081 -0.1823 -0.2063 -1.2934
  639MOL0     C86169  10.345   2.218   3.114  0.8531 -0.0778 -0.1258
  639MOL0     C86170  10.477   2.286   3.065  0.2869 -0.9537 -0.0225
  639MOL0     C86171  10.592   2.191   3.080  0.5100 -0.5471  0.1369
  639MOL0     C86172  10.720   2.271   3.033  0.0575 -0.4071  0.5121
  639MOL0     C86173  10.848   2.203   3.050 -0.6141 -0.3539 -0.1680
  639MOL0    Cl86174  10.852   2.038   2.983  0.0931  0.2080  0.0140
  639MOL0     C86175   9.842   2.284   2.624 -0.8883  0.2268 -0.8204
  639MOL0     C86176   9.788   2.374   2.534  0.2774 -0.3725 -0.1245
  639MOL0     O86177   9.899   2.708   2.444  0.3817  0.3675  0.2556
  639MOL0     C86178   9.581   2.747   2.277  1.3480  0.2971 -0.1362
  639MOL0     C86179   9.519   2.826   2.179 -0.7083  0.1940 -0.6312
  639MOL0     N86180   9.414   3.495   2.094 -0.1229 -0.3218  0.6849
  639MOL0     N86181   9.367   3.566   2.189 -0.4448  1.1640 -0.1943
  639MOL0     C86182   8.441   4.177   1.764 -0.2367  0.9671 -0.5330
  639MOL0     C86183   8.328   4.241   1.717  0.3184 -0.3616  0.5814
  639MOL0     C86184   7.979   4.477   1.564  0.3363 -0.6879 -0.0890
  639MOL0     C86185   7.941   4.553   1.668  0.3112  0.2888  1.0554
  639MOL0     C86186   7.836   4.645   1.663  0.5623 -0.4877 -0.2319
  639MOL0     C86187   7.769   4.667   1.548  0.2490  0.0542  0.0026
  639MOL0     O86188   7.671   4.768   1.554  0.0556 -0.1038  0.3312
  639MOL0     C86189   7.591   4.800   1.431  0.1499  1.4368 -0.1990
  639MOL0     C86190   7.653   4.885   1.319 -0.5946 -0.1137 -0.2350
  639MOL0     C86191   7.539   4.933   1.222  0.7095 -0.0716 -0.4181
  639MOL0     C86192   7.439   5.043   1.280  0.7764 -0.0942 -1.1598
  639MOL0     C86193   7.330   5.067   1.185  0.6870  0.2484 -0.7947
  639MOL0     C86194   7.235   5.078   1.106 -0.0015 -0.1181 -0.3363
  639MOL0     C86195   7.798   4.582   1.438  1.3103 -0.4171 -0.5140
  639MOL0     C86196   7.901   4.486   1.445 -0.3757 -0.4859 -0.2273
  639MOL0     C86197   7.942   4.412   1.309 -0.5278 -0.4049 -0.8050
  639MOL0     H86198   8.452   4.496   1.541  2.4991  0.8485  0.5260
  639MOL0     H86199   8.661   4.376   1.593 -0.6675  1.7341 -0.1371
  639MOL0     H86200   8.835   4.268   1.679  1.2340 -1.7216 -0.4952
  639MOL0     H86201   8.807   4.328   1.850 -1.1293 -0.3081  0.9573
  639MOL0     H86202   9.000   4.195   1.887 -0.5840  0.5986 -0.4374
  639MOL0     H86203   8.964   4.086   1.757  1.6650  1.1287  0.1791
  639MOL0     H86204   8.790   3.976   1.886  0.9812 -1.1809  1.6558
  639MOL0     H86205   8.790   4.099   2.005 -1.6546 -1.2442 -0.4997
  639MOL0     H86206   9.053   3.953   1.963  0.6722  0.1225  1.5905
  639MOL0     H86207   8.971   4.023   2.113 -0.5387  0.7053  0.5949
  639MOL0     H86208   8.827   3.848   2.126  1.7466 -1.1330  1.9947
  639MOL0     H86209   8.844   3.794   1.950 -1.4438  1.1282  0.4705
  639MOL0     H86210   8.930   3.630   2.103 -0.6514  2.5297  1.9865
  639MOL0     H86211   9.060   3.687   1.995  2.4767 -1.2404  2.3020
  639MOL0     H86212   9.018   3.785   2.269  0.4979  1.5701 -0.7269
  639MOL0     H86213   9.162   3.813   2.168  1.4570 -0.6625  1.5315
  639MOL0     H86214   9.192   3.650   2.339 -4.2437  0.9907  1.8734
  639MOL0     H86215   9.059   3.551   2.293 -2.6262  1.0345 -1.9475
  639MOL0     H86216   9.112   3.434   2.017  0.2391 -3.0759  1.7373
  639MOL0     H86217   9.290   3.264   1.888 -0.4834  0.3509 -0.3021
  639MOL0     H86218   9.296   3.404   1.790  2.8353 -1.1494 -2.3068
  639MOL0     H86219   9.501   3.369   1.755 -1.9885  1.4788 -0.0042
  639MOL0     H86220   9.554   3.376   1.924 -1.4849 -0.6955  0.9666
  639MOL0     H86221   9.599   3.146   1.804 -1.0528 -1.7181 -0.2938
  639MOL0     H86222   9.415   3.126   1.804 -2.2459  1.7403 -0.3331
  639MOL0     H86223   9.428   3.139   2.057 -2.2786 -1.7074 -1.1429
  639MOL0     H86224   9.596   3.159   2.038  0.6027 -2.0557  1.3357
  639MOL0     H86225   9.787   2.988   2.066  0.0144 -2.9518 -3.7075
  639MOL0     H86226   9.874   2.899   2.287 -0.4265  0.6834  0.3780
  639MOL0     H86227   9.742   2.652   2.714 -0.3294  0.6604 -0.6673
  639MOL0     H86228   9.864   2.505   2.890  1.5717 -1.4024 -0.0257
  639MOL0     H86229  10.028   2.416   2.947 -1.3891 -0.3329  0.3130
  639MOL0     H86230   9.950   2.272   3.021 -0.1500  1.0955  0.2940
  639MOL0     H86231  10.171   2.154   2.899 -0.5791 -0.4579 -0.8840
  639MOL0     H86232  10.225   2.321   2.872 -0.4848 -0.4190  1.2921
  639MOL0     H86233  10.229   2.384   3.080  0.7994 -0.2625  1.1614
  639MOL0     H86234  10.136   2.242   3.148  0.7616  3.0511  1.7634
  639MOL0     H86235  10.353   2.118   3.071  0.2993 -0.9343  1.6602
  639MOL0     H86236  10.341   2.211   3.223  1.3656 -2.0950 -0.2035
  639MOL0     H86237  10.488   2.382   3.116  0.3071 -0.7229 -0.4575
  639MOL0     H86238  10.475   2.306   2.957 -0.1738  0.7583  0.2724
  639MOL0     H86239  10.611   2.149   3.179  1.0735  1.7823  1.1003
  639MOL0     H86240  10.586   2.105   3.012  2.8670 -1.9032  1.5217
  639MOL0     H86241  10.722   2.366   3.088 -1.6428  0.7804 -1.3583
  639MOL0     H86242  10.710   2.300   2.928 -1.2704 -2.6246 -0.0392
  639MOL0     H86243  10.920   2.266   2.996 -1.4643  0.9354  0.1753
  639MOL0     H86244  10.870   2.187   3.156 -1.3773 -0.4553 -0.0217
  639MOL0     H86245   9.861   2.179   2.604 -1.1630  0.0767 -0.3086
  639MOL0     H86246   9.768   2.335   2.435  1.4465 -4.3677  1.0287
  639MOL0     H86247   9.521   2.667   2.318 -0.4354  2.4491  1.7644
  639MOL0     H86248   9.416   2.804   2.153 -0.9027 -1.7896  1.4643
  639MOL0     H86249   8.419   4.099   1.837  1.2162  2.3209  1.4793
  639MOL0     H86250   8.233   4.196   1.743 -0.5636  1.7441  1.2212
  639MOL0     H86251   7.991   4.548   1.765  1.2170 -0.0794  0.5865
  639MOL0     H86252   7.817   4.703   1.753 -3.3651  0.0262 -1.2367
  639MOL0     H86253   7.495   4.842   1.464  0.8987  4.4741 -1.5337
  639MOL0     H86254   7.575   4.708   1.373  4.0661  1.4348 -1.5359
  639MOL0     H86255   7.732   4.836   1.262 -2.3353 -1.7660 -1.3648
  639MOL0     H86256   7.696   4.973   1.368 -2.8400 -0.7732  3.2883
  639MOL0     H86257   7.483   4.844   1.192 -0.1590 -0.2426  1.5524
  639MOL0     H86258   7.602   4.967   1.139 -0.0913  1.8915 -0.2872
  639MOL0     H86259   7.395   5.009   1.374  2.4782  4.6951  1.7543
  639MOL0     H86260   7.479   5.139   1.313 -2.2185  0.5310  1.0907
  639MOL0     H86261   7.157   5.074   1.032 -0.2024 -2.6488 -0.0852
  639MOL0     H86262   7.739   4.588   1.347  0.2551  0.7540  0.2136
  639MOL0     H86263   7.968   4.306   1.307  3.8545  0.3391  2.2058
  639MOL0     H86264   7.850   4.423   1.250 -0.5641 -0.1002 -0.6927
  639MOL0     H86265   8.019   4.471   1.260  0.2333 -0.1107  0.7004
  640MOL0     O86266   8.196   1.917   1.320  0.2426  0.2776 -0.3787
  640MOL0     C86267   8.231   2.012   1.393 -0.5420 -0.4321  0.2187
  640MOL0     O86268   8.243   2.143   1.355  0.2717  0.3845  0.5712
  640MOL0     C86269   8.275   2.176   1.221  0.2107  0.1013  0.2948
  640MOL0     C86270   8.324   2.097   1.121  0.0318 -0.6743 -0.2694
  640MOL0     C86271   8.373   2.151   0.999 -0.3438 -0.3473 -0.5037
  640MOL0     C86272   8.373   2.292   0.986 -0.7900  0.4626  0.4884
  640MOL0     O86273   8.420   2.335   0.865 -0.8364  0.1456  0.5112
  640MOL0     C86274   8.524   2.440   0.872 -0.3516 -0.5785  0.4555
  640MOL0     C86275   8.560   2.492   0.736  0.7060 -0.4632  0.3470
  640MOL0     C86276   8.610   2.386   0.647  0.6797  0.4267  0.8367
  640MOL0     C86277   8.698   2.429   0.527  0.1554  0.2961  0.4768
  640MOL0     C86278   8.644   2.538   0.433 -0.0374 -0.0507 -0.5564
  640MOL0     C86279   8.749   2.587   0.324  0.2559 -0.3798 -0.1394
  640MOL0     C86280   8.694   2.710   0.245  0.5263 -0.2961 -0.2254
  640MOL0     C86281   8.808   2.757   0.149  0.6250  0.3669 -0.4897
  640MOL0     N86282   8.748   2.848   0.050  0.0977 -0.5042 -0.1483
  640MOL0     C86283   8.682   2.969   0.080  0.5709  0.8467 -0.6538
  640MOL0     C86284   8.654   3.021  -0.037  0.2660  0.3361 -0.1550
  640MOL0     C86285   8.592   3.148  -0.065 -0.7893 -0.7448  0.6664
  640MOL0     C86286   8.651   3.212  -0.198  0.2154 -0.6796  0.0826
  640MOL0     C86287   8.788   3.269  -0.161 -0.3237 -0.3852 -0.0626
  640MOL0     C86288   8.855   3.339  -0.271 -0.0959  0.0859  0.4508
  640MOL0     O86289   8.981   3.389  -0.225 -0.3527  0.2277 -0.3777
  640MOL0     C86290   9.071   3.444  -0.317 -0.3933  0.2186 -0.2026
  640MOL0     C86291   9.059   3.435  -0.454 -0.2702  0.4186 -0.7841
  640MOL0     C86292   9.158   3.482  -0.539 -0.2186 -0.4823 -0.4683
  640MOL0     C86293   9.275   3.533  -0.486  0.2121  0.4245 -0.1506
  640MOL0     C86294   9.379   3.584  -0.578  0.3425 -0.4770 -0.3779
  640MOL0     O86295   9.505   3.543  -0.547 -0.6015 -0.0365 -0.8279
  640MOL0     C86296   9.610   3.577  -0.624 -0.7730  0.3622 -0.2140
  640MOL0     C86297   9.605   3.549  -0.760 -0.1380 -0.3140  0.6807
  640MOL0     C86298   9.711   3.590  -0.838 -0.4456  0.0629  0.1503
  640MOL0     C86299   9.829   3.655  -0.790 -0.1588  1.0330 -0.8771
  640MOL0     O86300   9.934   3.674  -0.883  1.0782 -0.4196  0.5874
  640MOL0     C86301  10.040   3.756  -0.830  0.5498 -1.2112  0.2047
  640MOL0     C86302  10.128   3.797  -0.949  1.0740 -0.3662 -0.8790
  640MOL0     C86303  10.258   3.862  -0.901  0.0378 -0.5074  0.8468
  640MOL0     C86304  10.366   3.864  -1.014 -0.7249  0.2542 -0.0640
  640MOL0     C86305  10.488   3.944  -0.989  0.5644  0.4328  0.4053
  640MOL0     C86306  10.593   3.881  -0.882  0.0236 -0.0797 -0.1373
  640MOL0     C86307  10.685   3.998  -0.835 -0.2515 -0.7674  0.8444
  640MOL0     C86308  10.740   3.989  -0.695  0.4327  0.8837  0.3364
  640MOL0    Cl86309  10.910   4.062  -0.701 -0.2555 -0.1026 -0.0481
  640MOL0     C86310   9.835   3.684  -0.654 -0.5216 -0.0044 -0.0174
  640MOL0     C86311   9.723   3.643  -0.570  0.2922  1.1119 -0.0511
  640MOL0     O86312   9.344   3.655  -0.674  0.4291 -0.4928 -0.1351
  640MOL0     C86313   9.297   3.540  -0.346 -0.2405 -0.4586 -0.5336
  640MOL0     C86314   9.190   3.503  -0.261  0.5479 -0.1269  0.7178
  640MOL0     N86315   8.697   2.930  -0.141  0.1269  0.1115  0.1006
  640MOL0     N86316   8.748   2.828  -0.084 -0.4100  0.2409 -0.2005
  640MOL0     C86317   8.314   2.374   1.086  0.4030 -0.8679 -0.0490
  640MOL0     C86318   8.266   2.309   1.211 -1.1056  0.0406 -0.1355
  640MOL0     C86319   8.222   1.976   1.538 -0.9080 -0.0915 -0.6361
  640MOL0     C86320   8.158   1.858   1.573  0.2303 -0.4326  0.0088
  640MOL0     C86321   8.160   1.813   1.707 -0.6955  0.4728 -0.6917
  640MOL0     C86322   8.223   1.886   1.809 -0.0636 -0.3898 -0.1417
  640MOL0     O86323   8.215   1.828   1.934 -0.2098  0.0705  0.0878
  640MOL0     C86324   8.257   1.922   2.036  0.5533 -0.1904 -0.4675
  640MOL0     C86325   8.246   1.857   2.167 -0.8821 -0.9279 -0.7432
  640MOL0     C86326   8.103   1.828   2.213 -0.4456 -0.7491 -0.7949
  640MOL0     C86327   8.026   1.955   2.263  0.0929  0.0635 -0.1563
  640MOL0     C86328   7.888   1.923   2.288 -0.0789 -1.0596 -0.0363
  640MOL0     C86329   7.766   1.908   2.287  0.4141  0.1905  0.3106
  640MOL0     C86330   8.268   2.017   1.778 -0.4181 -0.0149  0.0878
  640MOL0     C86331   8.270   2.068   1.647  0.1926  0.2557  0.1303
  640MOL0     C86332   8.328   2.210   1.623 -0.3823 -0.2946  0.3124
  640MOL0     H86333   8.328   1.991   1.141 -0.7035 -0.4161  1.4068
  640MOL0     H86334   8.420   2.088   0.924  2.2635  1.1258 -0.2333
  640MOL0     H86335   8.478   2.518   0.933 -4.5032 -1.7603 -0.7890
  640MOL0     H86336   8.612   2.411   0.930 -1.4032 -1.0302  1.8831
  640MOL0     H86337   8.635   2.571   0.748 -1.1124  2.0856 -3.2357
  640MOL0     H86338   8.477   2.549   0.693  1.2392  0.6185  0.7062
  640MOL0     H86339   8.522   2.334   0.607  0.5378  1.0682  0.3025
  640MOL0     H86340   8.673   2.317   0.704  2.1196  0.9685 -0.0591
  640MOL0     H86341   8.798   2.453   0.566 -0.4188  1.5659  1.2223
  640MOL0     H86342   8.704   2.336   0.471 -0.6250 -2.5806  4.6768
  640MOL0     H86343   8.556   2.494   0.386 -0.6110 -0.6096  0.9688
  640MOL0     H86344   8.609   2.624   0.491 -1.8497 -1.2844  0.2877
  640MOL0     H86345   8.829   2.632   0.382 -1.0645  0.8126  0.8377
  640MOL0     H86346   8.792   2.513   0.256  0.4154 -0.6492  0.2532
  640MOL0     H86347   8.669   2.789   0.317 -0.7542 -1.6136  0.8252
  640MOL0     H86348   8.604   2.689   0.187  1.0265  0.0205 -1.1339
  640MOL0     H86349   8.880   2.799   0.220  0.1891 -0.0941  0.2379
  640MOL0     H86350   8.848   2.668   0.098 -1.4429 -0.9977  0.1588
  640MOL0     H86351   8.659   3.002   0.181  0.5687 -1.9793  0.3749
  640MOL0     H86352   8.484   3.145  -0.086 -0.5133 -4.3367 -0.9483
  640MOL0     H86353   8.597   3.210   0.024  0.0696 -0.3750  0.3703
  640MOL0     H86354   8.666   3.140  -0.279 -0.0972  1.5801 -2.1113
  640MOL0     H86355   8.584   3.285  -0.245  2.5349  1.0345 -0.8072
  640MOL0     H86356   8.844   3.179  -0.132  0.6418  0.0441 -0.5578
  640MOL0     H86357   8.769   3.345  -0.084  0.5560 -0.8387  0.6186
  640MOL0     H86358   8.788   3.415  -0.312 -0.9827  0.9168  3.2422
  640MOL0     H86359   8.870   3.267  -0.352  0.4849 -2.0299  2.3304
  640MOL0     H86360   8.972   3.393  -0.505  1.1500 -3.2158 -0.5582
  640MOL0     H86361   9.133   3.469  -0.643 -1.8868 -0.8790 -0.0352
  640MOL0     H86362   9.523   3.504  -0.815  0.8791  1.2163 -2.2886
  640MOL0     H86363   9.716   3.552  -0.939  1.3799 -1.7600  0.8632
  640MOL0     H86364   9.999   3.848  -0.786  1.1964 -1.1010  0.5807
  640MOL0     H86365  10.095   3.695  -0.759  1.6241 -1.0254 -0.4400
  640MOL0     H86366  10.152   3.707  -1.005 -0.0316  0.0090 -2.0019
  640MOL0     H86367  10.063   3.860  -1.011  0.3184 -0.3993 -0.1526
  640MOL0     H86368  10.249   3.969  -0.883  3.7770  1.3899 -5.4917
  640MOL0     H86369  10.313   3.827  -0.814  1.6733  2.3946  1.1016
  640MOL0     H86370  10.315   3.895  -1.105 -1.1244 -0.3139 -0.0377
  640MOL0     H86371  10.389   3.757  -1.020 -0.8407  0.1545  0.9440
  640MOL0     H86372  10.464   4.047  -0.962  4.0875  1.4818  0.1051
  640MOL0     H86373  10.553   3.948  -1.078 -0.4144 -2.1983 -0.5207
  640MOL0     H86374  10.525   3.858  -0.799  1.4614  1.5911  1.6070
  640MOL0     H86375  10.643   3.795  -0.928  2.9140  2.2894 -1.7132
  640MOL0     H86376  10.633   4.093  -0.854  1.8542  0.5783  1.3619
  640MOL0     H86377  10.775   4.001  -0.897 -0.1718 -1.4083  0.9265
  640MOL0     H86378  10.663   4.043  -0.639 -2.2311 -4.0492  2.1353
  640MOL0     H86379  10.750   3.887  -0.656  5.8518  1.5769  1.5767
  640MOL0     H86380   9.905   3.746  -0.599  0.3451  0.5423 -1.6645
  640MOL0     H86381   9.731   3.674  -0.466  0.2972  0.4574  0.1487
  640MOL0     H86382   9.373   3.601  -0.299 -1.1910 -0.5062  1.1485
  640MOL0     H86383   9.196   3.514  -0.153 -1.8677 -0.6738  0.9582
  640MOL0     H86384   8.320   2.483   1.087 -1.0394 -0.7739  0.2916
  640MOL0     H86385   8.219   2.367   1.289 -0.2774 -1.6279  1.6789
  640MOL0     H86386   8.102   1.797   1.503  1.7611 -1.7459 -0.1273
  640MOL0     H86387   8.123   1.712   1.721 -0.4117  0.0386 -2.7561
  640MOL0     H86388   8.199   2.014   2.038  0.4390 -0.2424 -1.1840
  640MOL0     H86389   8.362   1.953   2.029  0.4846  0.3035  0.4794
  640MOL0     H86390   8.278   1.937   2.236 -2.8967  0.0881 -0.9083
  640MOL0     H86391   8.322   1.779   2.179  0.3350  0.2383 -0.5421
  640MOL0     H86392   8.107   1.763   2.301 -0.6858  0.5531  0.2170
  640MOL0     H86393   8.044   1.780   2.135 -2.8902 -0.2853  0.6696
  640MOL0     H86394   8.079   1.995   2.349  1.5828 -0.5670 -0.7468
  640MOL0     H86395   8.031   2.031   2.184  2.2805  0.9019  0.7351
  640MOL0     H86396   7.659   1.902   2.291  0.4608 -1.1081  0.1586
  640MOL0     H86397   8.306   2.094   1.844  0.4657  0.3110 -0.7831
  640MOL0     H86398   8.321   2.267   1.715 -2.0698 -0.1053  0.0829
  640MOL0     H86399   8.434   2.209   1.595 -0.7455 -1.8550 -1.1784
  640MOL0     H86400   8.286   2.283   1.554  5.0267  2.0099 -1.0805
  641MOL0     O86401   8.688   4.587   5.098  0.3531  0.5170 -0.7548
  641MOL0     C86402   8.568   4.564   5.102  1.0671 -0.5117  0.1516
  641MOL0     O86403   8.466   4.657   5.123  0.1723  0.9308 -0.2916
  641MOL0     C86404   8.474   4.788   5.124 -0.3815 -0.7856  0.9715
  641MOL0     C86405   8.405   4.861   5.225  0.1469 -0.0582 -0.0221
  641MOL0     C86406   8.398   4.998   5.223 -0.3952 -0.5905 -1.3189
  641MOL0     C86407   8.481   5.073   5.133  0.5069 -0.3355 -0.1476
  641MOL0     O86408   8.481   5.214   5.133  0.7065 -0.4850  0.2440
  641MOL0     C86409   8.571   5.295   5.068 -0.3849 -0.2478  0.5169
  641MOL0     C86410   8.702   5.287   5.143 -0.2836  0.2107 -0.3536
  641MOL0     C86411   8.804   5.367   5.069 -0.1558  0.0164 -0.2640
  641MOL0     C86412   8.943   5.355   5.139  0.2425 -0.4069  0.6617
  641MOL0     C86413   9.048   5.406   5.048 -1.2961 -0.2367  0.2836
  641MOL0     C86414   9.194   5.368   5.093 -0.8212  0.0803 -0.9228
  641MOL0     C86415   9.227   5.441   5.232  0.1667 -0.1518  0.4136
  641MOL0     C86416   9.369   5.485   5.253  0.5717  0.4220  1.3588
  641MOL0     N86417   9.425   5.566   5.144  0.0888  0.3242  0.4283
  641MOL0     C86418   9.391   5.697   5.122 -0.0922  0.2689  0.4922
  641MOL0     C86419   9.459   5.724   5.006 -1.2060 -1.3223  0.0078
  641MOL0     C86420   9.479   5.851   4.920  0.0237  0.8942  0.0836
  641MOL0     C86421   9.596   5.863   4.824 -0.1956 -0.1115  0.3185
  641MOL0     C86422   9.727   5.881   4.902  0.5651 -0.0647  0.6213
  641MOL0     C86423   9.838   5.811   4.820 -0.8473 -0.1950  0.2582
  641MOL0     O86424   9.884   5.879   4.702  0.2804  0.1412 -0.5869
  641MOL0     C86425   9.955   5.997   4.717  0.1860  0.3334  0.1421
  641MOL0     C86426  10.014   6.042   4.834 -0.0723 -0.8565 -0.5017
  641MOL0     C86427  10.082   6.169   4.831 -0.0333 -0.4236  0.9700
  641MOL0     C86428  10.102   6.243   4.708  0.6315  0.1687 -0.5090
  641MOL0     C86429  10.167   6.378   4.707  0.2291  0.4244  0.2044
  641MOL0     O86430  10.157   6.438   4.583  0.3885 -0.0135  0.1605
  641MOL0     C86431  10.144   6.570   4.551  0.4749 -0.3153  0.4553
  641MOL0     C86432  10.171   6.621   4.425  0.3184  0.3567  1.0079
  641MOL0     C86433  10.146   6.754   4.396 -1.4789 -0.1627  0.6280
  641MOL0     C86434  10.128   6.854   4.488 -0.1029  0.3199 -0.3908
  641MOL0     O86435  10.121   6.990   4.465  0.2153 -0.0754  0.2796
  641MOL0     C86436  10.197   7.027   4.349  1.0317  0.6111  1.0488
  641MOL0     C86437  10.255   7.167   4.375 -0.0961  0.1297  0.4439
  641MOL0     C86438  10.318   7.237   4.250 -0.1932  1.0610 -0.0781
  641MOL0     C86439  10.450   7.166   4.221  0.5611  0.2630 -0.5891
  641MOL0     C86440  10.535   7.227   4.111  0.0178 -0.0385 -0.9777
  641MOL0     C86441  10.682   7.169   4.112 -0.4307  0.3181 -0.2103
  641MOL0     C86442  10.759   7.259   4.017  0.6311  0.6512  0.9941
  641MOL0     C86443  10.913   7.225   4.009 -0.0083 -0.0537 -0.7137
  641MOL0    Cl86444  10.957   7.053   3.971  0.2699 -0.1995  0.7629
  641MOL0     C86445  10.106   6.809   4.613  0.3276 -0.2350  0.2687
  641MOL0     C86446  10.110   6.669   4.647 -0.3493  0.3449  0.3644
  641MOL0     O86447  10.231   6.420   4.795  0.4299  0.0913 -0.4894
  641MOL0     C86448  10.038   6.186   4.588 -0.4634  0.1820 -0.9534
  641MOL0     C86449   9.983   6.060   4.590 -0.0315  0.1025 -0.3385
  641MOL0     N86450   9.531   5.615   4.962 -0.5121  0.8445 -0.5524
  641MOL0     N86451   9.515   5.527   5.049 -0.0705 -0.5858 -0.5896
  641MOL0     C86452   8.556   5.001   5.041 -0.8239 -1.0765 -0.1249
  641MOL0     C86453   8.557   4.862   5.028  0.7578  0.1413 -0.3644
  641MOL0     C86454   8.527   4.425   5.120 -0.2453  0.3313  0.4050
  641MOL0     C86455   8.411   4.401   5.200 -0.4021 -0.2486 -0.0833
  641MOL0     C86456   8.357   4.273   5.209  1.4083  0.3349 -0.4861
  641MOL0     C86457   8.420   4.170   5.142  0.7468  0.9492  0.3586
  641MOL0     O86458   8.355   4.049   5.129 -0.2258 -0.2109  0.3098
  641MOL0     C86459   8.409   3.944   5.051 -0.1034 -0.1543  0.3433
  641MOL0     C86460   8.380   3.955   4.902  0.0147  0.2584  0.0120
  641MOL0     C86461   8.480   3.866   4.816  1.5654 -0.5317 -0.1129
  641MOL0     C86462   8.451   3.893   4.671  0.2184  0.2046 -0.1317
  641MOL0     C86463   8.317   3.844   4.630  1.2529 -0.5922  0.7932
  641MOL0     C86464   8.206   3.803   4.589  0.5975 -0.5503 -0.4600
  641MOL0     C86465   8.537   4.194   5.063 -0.1100  0.7384 -0.1342
  641MOL0     C86466   8.593   4.318   5.049  0.6491 -0.3851  0.0311
  641MOL0     C86467   8.715   4.315   4.960 -0.2381 -0.3704  0.0595
  641MOL0     H86468   8.350   4.793   5.289  1.3796 -1.1681 -0.0749
  641MOL0     H86469   8.336   5.053   5.294  0.0088 -0.3924 -1.1127
  641MOL0     H86470   8.588   5.265   4.964  2.7405  1.3536  0.4359
  641MOL0     H86471   8.536   5.399   5.076  1.1739  0.6064 -2.2541
  641MOL0     H86472   8.729   5.182   5.153 -1.2351 -0.0546 -0.4729
  641MOL0     H86473   8.691   5.321   5.246  1.4753  1.2819 -0.4741
  641MOL0     H86474   8.771   5.471   5.057 -2.7395 -0.9513 -2.6560
  641MOL0     H86475   8.808   5.333   4.965 -0.5051  3.3739 -1.4975
  641MOL0     H86476   8.939   5.406   5.236 -0.1163 -0.8319  0.8724
  641MOL0     H86477   8.972   5.251   5.156 -0.7081 -0.7474  0.2128
  641MOL0     H86478   9.042   5.362   4.948 -0.0787 -0.2618  0.1991
  641MOL0     H86479   9.047   5.514   5.032  0.1662 -0.2668 -0.2337
  641MOL0     H86480   9.179   5.262   5.117  0.5810  0.7243  3.8639
  641MOL0     H86481   9.271   5.374   5.015 -0.9919 -1.4607 -1.2337
  641MOL0     H86482   9.189   5.387   5.319 -0.5814  1.4433  1.1048
  641MOL0     H86483   9.181   5.540   5.236  1.2077  0.3864 -0.5319
  641MOL0     H86484   9.373   5.542   5.346 -2.1230 -1.3557  2.7073
  641MOL0     H86485   9.431   5.395   5.264 -1.6064 -1.7145 -1.9176
  641MOL0     H86486   9.326   5.765   5.177 -2.5573 -2.1118  0.7619
  641MOL0     H86487   9.387   5.865   4.863 -2.3272 -1.3544  3.0259
  641MOL0     H86488   9.476   5.937   4.988 -0.1136  0.2415  0.9150
  641MOL0     H86489   9.597   5.773   4.761 -0.4272 -0.5642  0.9539
  641MOL0     H86490   9.586   5.955   4.765  0.3253  1.4502  2.5396
  641MOL0     H86491   9.724   5.832   4.999 -1.1006  2.0790  1.7231
  641MOL0     H86492   9.751   5.985   4.926  0.8019 -0.2645  1.2471
  641MOL0     H86493   9.802   5.716   4.781 -2.4144  1.9871 -4.3834
  641MOL0     H86494   9.923   5.773   4.877 -0.7842 -0.6165 -0.1147
  641MOL0     H86495   9.989   5.989   4.925  0.5135 -1.0260 -0.4361
  641MOL0     H86496  10.110   6.217   4.924 -4.6770  0.9985  1.8928
  641MOL0     H86497  10.180   6.545   4.348 -0.4312 -0.8274  2.0535
  641MOL0     H86498  10.181   6.784   4.297  0.4013  0.0637  1.3182
  641MOL0     H86499  10.283   6.960   4.335  1.2295  1.3305 -1.9649
  641MOL0     H86500  10.136   7.023   4.258  0.8970 -0.4379  1.1699
  641MOL0     H86501  10.173   7.226   4.418 -1.1499  0.4504 -1.8546
  641MOL0     H86502  10.334   7.169   4.451 -0.6831  1.1473  1.0545
  641MOL0     H86503  10.240   7.228   4.174 -0.1267 -0.8580  0.0245
  641MOL0     H86504  10.331   7.345   4.260 -0.5351  1.2794 -1.7299
  641MOL0     H86505  10.422   7.063   4.197  0.2958 -0.2906  1.8683
  641MOL0     H86506  10.509   7.179   4.312  0.3000  0.1044 -0.3945
  641MOL0     H86507  10.535   7.336   4.127  0.9336 -0.0631 -0.7204
  641MOL0     H86508  10.500   7.194   4.013 -0.0178 -0.7594 -0.7215
  641MOL0     H86509  10.735   7.175   4.208  3.0564  0.8478 -2.0251
  641MOL0     H86510  10.681   7.065   4.079 -0.1380 -1.1808  3.8898
  641MOL0     H86511  10.744   7.367   4.030  4.1167  1.3935 -0.0998
  641MOL0     H86512  10.710   7.237   3.922 -2.6277 -0.6173  2.8162
  641MOL0     H86513  10.960   7.277   3.924  1.2318 -0.6058 -0.3908
  641MOL0     H86514  10.966   7.260   4.098  0.1381 -0.4683 -0.6332
  641MOL0     H86515  10.092   6.874   4.699  1.6726  0.3688  0.0504
  641MOL0     H86516  10.076   6.626   4.741  0.9666 -3.0497 -0.5714
  641MOL0     H86517  10.031   6.236   4.492  2.3126 -0.5659 -1.6405
  641MOL0     H86518   9.936   6.005   4.509 -2.2076 -0.6683  1.3638
  641MOL0     H86519   8.623   5.056   4.976  0.7053 -1.9049  0.6961
  641MOL0     H86520   8.613   4.805   4.954 -0.4136 -0.5882 -0.7142
  641MOL0     H86521   8.350   4.481   5.241 -1.4290 -0.8768 -0.3347
  641MOL0     H86522   8.264   4.247   5.259  2.4794 -4.5274 -0.5087
  641MOL0     H86523   8.360   3.856   5.094  0.0563 -0.4331 -0.0316
  641MOL0     H86524   8.515   3.941   5.080  0.0272  1.5144  0.1422
  641MOL0     H86525   8.391   4.059   4.871  2.1643 -0.1709 -0.7824
  641MOL0     H86526   8.278   3.918   4.883  0.6322 -1.9927  0.7836
  641MOL0     H86527   8.458   3.761   4.835 -0.0339 -0.6523 -2.1954
  641MOL0     H86528   8.585   3.882   4.844  0.5791  0.6996  3.3116
  641MOL0     H86529   8.464   3.999   4.646 -2.1958  0.4689 -0.5990
  641MOL0     H86530   8.523   3.840   4.609  4.2047  2.0495  2.5072
  641MOL0     H86531   8.118   3.765   4.540  0.4932 -2.7600  1.2537
  641MOL0     H86532   8.588   4.115   5.010 -0.1942 -0.9159  2.1086
  641MOL0     H86533   8.803   4.279   5.015  1.6958 -1.7298 -3.6082
  641MOL0     H86534   8.697   4.258   4.869  2.1984  0.5236 -1.0654
  641MOL0     H86535   8.733   4.412   4.914 -5.2930  0.4983 -0.5765
  642MOL0     O86536   0.824   9.231   0.522 -0.0529 -0.1024  0.6665
  642MOL0     C86537   0.747   9.295   0.597 -1.0747  0.0137  0.4464
  642MOL0     O86538   0.635   9.253   0.660  0.0248 -0.1043 -0.1086
  642MOL0     C86539   0.572   9.137   0.637 -0.3331  0.3223 -0.1350
  642MOL0     C86540   0.638   9.015   0.663  0.0356 -0.4992 -0.5343
  642MOL0     C86541   0.563   8.902   0.652  0.0667  0.2563  0.0975
  642MOL0     C86542   0.434   8.904   0.598 -0.4818  0.1716  0.2581
  642MOL0     O86543   0.343   8.803   0.581  0.2077 -0.2615 -0.2932
  642MOL0     C86544   0.315   8.775   0.440  1.2550  0.0399 -0.1915
  642MOL0     C86545   0.237   8.630   0.430 -0.1582 -0.0815 -0.3808
  642MOL0     C86546   0.164   8.607   0.301  0.0150  0.7755  0.2210
  642MOL0     C86547   0.263   8.584   0.177  0.6955 -0.5777  0.0246
  642MOL0     C86548   0.179   8.601   0.054 -0.0210 -0.1106  0.3073
  642MOL0     C86549   0.244   8.559  -0.081 -0.2124  0.5703  0.5002
  642MOL0     C86550   0.370   8.633  -0.129  0.6422 -0.1695 -0.4236
  642MOL0     C86551   0.338   8.775  -0.194  0.0706  0.2979 -0.0150
  642MOL0     N86552   0.331   8.890  -0.091 -0.4069 -0.0210 -0.2578
  642MOL0     C86553   0.437   8.921  -0.005 -0.2263 -0.0054  0.0053
  642MOL0     C86554   0.404   9.035   0.057  0.1346  0.0872  0.2443
  642MOL0     C86555   0.480   9.134   0.145  0.4601  0.6158 -0.1509
  642MOL0     C86556   0.467   9.275   0.098 -0.0514 -0.2648 -0.5712
  642MOL0     C86557   0.364   9.354   0.188 -0.5629 -0.2657 -0.1337
  642MOL0     C86558   0.409   9.385   0.325 -0.9191  0.2804  0.1241
  642MOL0     O86559   0.301   9.408   0.415  0.6412  0.4073  0.4612
  642MOL0     C86560   0.222   9.516   0.387  0.4495  0.0996  0.3321
  642MOL0     C86561   0.256   9.637   0.319 -0.0992  0.8015 -0.1000
  642MOL0     C86562   0.168   9.746   0.310 -0.2993 -0.2640 -0.2528
  642MOL0     C86563   0.040   9.735   0.356 -0.0047 -0.8308 -0.7777
  642MOL0     C86564  -0.054   9.856   0.355  0.1784 -0.0693 -0.6242
  642MOL0     O86565  -0.163   9.850   0.436 -0.2367 -0.0540 -0.5100
  642MOL0     C86566  -0.224   9.967   0.456 -0.2761 -0.0823  0.2218
  642MOL0     C86567  -0.288  10.048   0.359 -1.1378 -0.6957  0.6302
  642MOL0     C86568  -0.361  10.166   0.392 -0.9316 -0.3812  0.5720
  642MOL0     C86569  -0.363  10.213   0.525 -0.6103  0.4376 -0.1775
  642MOL0     O86570  -0.430  10.319   0.573 -0.1839 -0.1286 -0.2422
  642MOL0     C86571  -0.474  10.413   0.471  0.3320 -0.1225  1.1945
  642MOL0     C86572  -0.548  10.534   0.521  0.4302 -0.2870 -0.0738
  642MOL0     C86573  -0.451  10.617   0.604 -0.3123 -1.5743  0.5549
  642MOL0     C86574  -0.501  10.750   0.653  0.7614 -0.7355 -1.1322
  642MOL0     C86575  -0.402  10.834   0.734  0.6691 -0.0895  0.3630
  642MOL0     C86576  -0.463  10.899   0.851  1.6139  0.6331 -0.1796
  642MOL0     C86577  -0.352  10.966   0.932  0.0154 -0.0863 -0.1256
  642MOL0     C86578  -0.400  11.102   0.996 -0.2621 -0.9080 -0.7214
  642MOL0    Cl86579  -0.527  11.078   1.110  0.0270  0.2580  0.4475
  642MOL0     C86580  -0.277  10.137   0.617  1.2834 -0.4672  0.2269
  642MOL0     C86581  -0.218  10.016   0.590 -0.5616  0.1459 -0.1054
  642MOL0     O86582  -0.020   9.948   0.281 -0.0219  0.6381 -0.3604
  642MOL0     C86583   0.000   9.612   0.400  0.3619  0.5529  0.6465
  642MOL0     C86584   0.089   9.504   0.413  1.4185  0.5649 -0.1159
  642MOL0     N86585   0.272   9.064   0.013 -0.2447 -0.0280  0.1592
  642MOL0     N86586   0.221   8.975  -0.074  1.1584 -0.7402 -0.3573
  642MOL0     C86587   0.378   9.026   0.561  0.3265 -0.6745 -0.2920
  642MOL0     C86588   0.440   9.150   0.594 -0.0297  0.4561 -0.0520
  642MOL0     C86589   0.807   9.421   0.638 -0.4100  1.0133 -0.1288
  642MOL0     C86590   0.723   9.532   0.604 -0.5790 -0.5634 -0.1937
  642MOL0     C86591   0.763   9.662   0.625 -0.2230 -0.4350  0.4394
  642MOL0     C86592   0.897   9.688   0.668 -0.0244  0.0394  0.3186
  642MOL0     O86593   0.956   9.812   0.663 -0.4208 -0.3499  0.1089
  642MOL0     C86594   0.877   9.937   0.677 -0.7075  0.2033 -0.2766
  642MOL0     C86595   0.817   9.952   0.818 -0.0484  0.4018  0.1816
  642MOL0     C86596   0.919  10.013   0.919  1.2607 -0.0548  0.3173
  642MOL0     C86597   1.016   9.918   0.987 -0.5148  0.5055 -0.0652
  642MOL0     C86598   0.943   9.835   1.070 -0.0083  1.5545 -0.7425
  642MOL0     C86599   0.889   9.747   1.137 -0.6700  0.2262 -0.4724
  642MOL0     C86600   0.973   9.580   0.711  0.2983  0.4466  1.0364
  642MOL0     C86601   0.929   9.443   0.692 -0.3954 -0.1329  0.5382
  642MOL0     C86602   1.025   9.325   0.729 -0.6389 -0.1785  0.2681
  642MOL0     H86603   0.736   9.015   0.709 -1.0039  0.4670  1.8316
  642MOL0     H86604   0.603   8.807   0.687 -1.3205  0.4306  2.3191
  642MOL0     H86605   0.256   8.856   0.397  0.0280 -2.0579 -2.7112
  642MOL0     H86606   0.407   8.781   0.382  0.9086  1.5393 -0.6287
  642MOL0     H86607   0.157   8.617   0.504  0.8631 -1.8982  0.4779
  642MOL0     H86608   0.309   8.548   0.439  0.0429 -0.3517 -3.4859
  642MOL0     H86609   0.104   8.697   0.288  1.4877  1.9672  1.3503
  642MOL0     H86610   0.102   8.517   0.310  0.8016 -0.2044 -2.8475
  642MOL0     H86611   0.339   8.661   0.189  3.6143 -3.1936 -0.2750
  642MOL0     H86612   0.319   8.490   0.172  0.4790 -0.6470 -1.4740
  642MOL0     H86613   0.087   8.547   0.078  1.1937 -1.0306  3.2967
  642MOL0     H86614   0.156   8.706   0.039  1.8165 -0.0381 -3.1070
  642MOL0     H86615   0.266   8.452  -0.073  2.1764  1.0739  1.3962
  642MOL0     H86616   0.170   8.573  -0.160  0.8649  0.7206 -0.5043
  642MOL0     H86617   0.406   8.573  -0.213  1.3278 -0.7970  0.2931
  642MOL0     H86618   0.452   8.637  -0.056  0.0712 -0.8844  0.2818
  642MOL0     H86619   0.424   8.793  -0.260  1.8432 -1.6355  1.5862
  642MOL0     H86620   0.246   8.768  -0.253 -1.2805 -1.6146  2.1420
  642MOL0     H86621   0.522   8.853   0.000 -4.7393 -7.1120 -3.1184
  642MOL0     H86622   0.456   9.112   0.249 -0.0820 -0.3570 -0.4758
  642MOL0     H86623   0.579   9.095   0.118  0.9846  0.9744  1.1476
  642MOL0     H86624   0.560   9.331   0.083 -0.7752  1.2215  0.2682
  642MOL0     H86625   0.417   9.277   0.001 -1.3765  0.5477  0.1031
  642MOL0     H86626   0.271   9.298   0.200 -1.4610  1.4538  1.1968
  642MOL0     H86627   0.346   9.443   0.128  1.1568 -0.0815 -0.4466
  642MOL0     H86628   0.478   9.468   0.308  4.3661 -3.4728  0.8418
  642MOL0     H86629   0.464   9.296   0.358  1.7514  1.7558 -0.0603
  642MOL0     H86630   0.360   9.657   0.295  0.6841 -1.9858  0.5848
  642MOL0     H86631   0.206   9.841   0.273 -0.9524  0.0976 -0.0090
  642MOL0     H86632  -0.285   9.998   0.262  1.4116  0.0526  0.2459
  642MOL0     H86633  -0.410  10.216   0.310 -0.0459 -1.6016 -0.7417
  642MOL0     H86634  -0.401  10.446   0.397 -0.8114  0.0432  0.1103
  642MOL0     H86635  -0.551  10.358   0.415  0.7593 -0.4444  0.9156
  642MOL0     H86636  -0.571  10.591   0.431 -2.8475 -0.2129  0.6838
  642MOL0     H86637  -0.639  10.504   0.573  0.4421 -3.9709 -1.8672
  642MOL0     H86638  -0.406  10.558   0.685  1.3652  0.2457  1.0172
  642MOL0     H86639  -0.359  10.628   0.545  0.0188 -1.0268  1.1682
  642MOL0     H86640  -0.585  10.724   0.718  2.1225 -0.5082  0.7924
  642MOL0     H86641  -0.535  10.820   0.576  0.1791 -1.2723 -1.3707
  642MOL0     H86642  -0.337  10.888   0.665  1.6718 -0.4013  1.0299
  642MOL0     H86643  -0.343  10.757   0.785  0.3630 -0.9388 -0.5638
  642MOL0     H86644  -0.544  10.964   0.818  0.0506 -0.1238  2.0010
  642MOL0     H86645  -0.506  10.816   0.908  0.5919  0.0449 -1.7268
  642MOL0     H86646  -0.259  10.978   0.877 -0.1676 -3.4697 -1.3888
  642MOL0     H86647  -0.328  10.894   1.011  0.1864  1.7712  1.6112
  642MOL0     H86648  -0.309  11.148   1.036 -0.6628  0.8046 -1.7074
  642MOL0     H86649  -0.438  11.160   0.912 -1.9639  0.3206  0.8326
  642MOL0     H86650  -0.278  10.175   0.719  1.8308 -3.3560  1.3980
  642MOL0     H86651  -0.163   9.968   0.670  4.4625  2.4532 -1.7665
  642MOL0     H86652  -0.100   9.603   0.441  0.3305 -0.6779  0.3150
  642MOL0     H86653   0.042   9.414   0.451  1.5899  0.5931  0.1678
  642MOL0     H86654   0.277   9.042   0.525  1.1243  0.6058 -2.1037
  642MOL0     H86655   0.403   9.250   0.570 -1.0022 -0.6448 -3.8423
  642MOL0     H86656   0.634   9.501   0.551 -0.1223 -1.1200 -0.6435
  642MOL0     H86657   0.699   9.732   0.573  1.0192  2.8061  2.9423
  642MOL0     H86658   0.797   9.952   0.604  1.4286  0.9111 -2.6214
  642MOL0     H86659   0.946  10.018   0.652  0.2321 -0.5292 -0.1173
  642MOL0     H86660   0.784   9.853   0.852  1.2324 -0.2190 -0.3433
  642MOL0     H86661   0.736  10.026   0.811 -1.8893 -1.1894  2.7451
  642MOL0     H86662   0.851  10.058   0.991  0.6243  1.8529 -1.3761
  642MOL0     H86663   0.960  10.101   0.869 -0.8988  0.6264 -0.3451
  642MOL0     H86664   1.070   9.859   0.912 -1.9709 -2.2333  0.8974
  642MOL0     H86665   1.098   9.970   1.038 -1.1244 -0.0349  1.5332
  642MOL0     H86666   0.845   9.675   1.203 -3.1274  1.7437 -0.3239
  642MOL0     H86667   1.070   9.586   0.758 -0.8254 -0.8381  3.7387
  642MOL0     H86668   0.999   9.280   0.825  2.2525  1.0507  1.7381
  642MOL0     H86669   1.017   9.249   0.651 -1.3727 -0.7407  0.8728
  642MOL0     H86670   1.128   9.361   0.732 -1.5307  2.9426 -1.5381
  643MOL0     O86671  10.555   5.898  10.869  0.0816  0.7236  0.2674
  643MOL0     C86672  10.600   5.945  10.972 -0.1415  0.2644 -0.0087
  643MOL0     O86673  10.673   6.069  10.986  0.2202 -0.2447  0.0519
  643MOL0     C86674  10.721   6.132  10.873 -0.1323  0.7403  0.4637
  643MOL0     C86675  10.680   6.267  10.849 -0.7286  0.2495  0.1747
  643MOL0     C86676  10.743   6.334  10.739  1.5591  0.5664 -0.0194
  643MOL0     C86677  10.831   6.267  10.653 -0.2196  0.4206  0.8851
  643MOL0     O86678  10.881   6.315  10.536  0.9487  0.1589 -0.5214
  643MOL0     C86679  10.783   6.399  10.463 -0.1866  0.2073  0.9456
  643MOL0     C86680  10.835   6.411  10.315 -0.0664 -0.5682  0.2319
  643MOL0     C86681  10.810   6.295  10.221  0.1949 -0.3641 -0.3326
  643MOL0     C86682  10.910   6.179  10.240 -0.3806  0.3053  0.8917
  643MOL0     C86683  10.886   6.074  10.125  0.0631 -0.8954  0.4317
  643MOL0     C86684  11.005   5.982  10.111  0.0298 -0.2338  0.1812
  643MOL0     C86685  11.001   5.882  10.236 -0.3871 -0.7062  0.4937
  643MOL0     C86686  11.112   5.777  10.243  0.2030 -0.6016  1.2913
  643MOL0     N86687  11.114   5.718  10.378  0.2233 -0.5548 -0.0897
  643MOL0     C86688  11.052   5.595  10.407 -0.5191 -0.4871 -0.3590
  643MOL0     C86689  11.085   5.602  10.543 -0.4120  1.2736  0.0271
  643MOL0     C86690  11.054   5.485  10.640 -0.5335  0.2993 -0.0060
  643MOL0     C86691  11.041   5.519  10.791  0.0811 -0.5536 -0.1694
  643MOL0     C86692  10.916   5.600  10.818  0.7886  0.1719  0.5933
  643MOL0     C86693  10.907   5.648  10.963  0.2042 -0.3990 -0.0419
  643MOL0     O86694  11.014   5.735  10.988 -0.2012  0.6359  0.1438
  643MOL0     C86695  11.086   5.734  11.111 -0.0163 -0.7118  0.5792
  643MOL0     C86696  11.212   5.786  11.119  0.2782 -0.2572  0.1635
  643MOL0     C86697  11.286   5.771  11.246 -0.7555 -0.0230 -1.0812
  643MOL0     C86698  11.221   5.731  11.361 -0.5189 -0.0204  0.5718
  643MOL0     C86699  11.286   5.749  11.493  0.9894  0.3610 -0.6128
  643MOL0     O86700  11.410   5.786  11.491  0.4817 -0.6398  0.1523
  643MOL0     C86701  11.478   5.808  11.611 -0.4857 -0.3446 -0.4206
  643MOL0     C86702  11.613   5.762  11.626  0.5489 -0.4381  0.3881
  643MOL0     C86703  11.695   5.788  11.733 -0.4841  0.5928 -0.0982
  643MOL0     C86704  11.635   5.854  11.845  0.3612 -0.4865  1.1066
  643MOL0     O86705  11.701   5.870  11.959  0.0887 -0.3878 -0.8134
  643MOL0     C86706  11.746   6.006  11.987  0.9087  0.1291  0.0132
  643MOL0     C86707  11.799   6.013  12.131  0.8657 -1.5201 -0.0854
  643MOL0     C86708  11.687   6.032  12.242 -0.8357 -0.5683 -0.0637
  643MOL0     C86709  11.615   5.912  12.280  0.5815  0.1923  0.3546
  643MOL0     C86710  11.493   5.927  12.374  0.4706 -0.5794 -0.4080
  643MOL0     C86711  11.381   6.018  12.331 -0.1854  0.2755 -0.4896
  643MOL0     C86712  11.250   6.012  12.416  0.2099 -1.3943  0.2121
  643MOL0     C86713  11.167   6.146  12.427 -1.5959  0.5200 -0.3569
  643MOL0    Cl86714  11.018   6.116  12.533 -0.0095 -0.2501  0.0467
  643MOL0     C86715  11.497   5.895  11.841  0.4400  0.6367  0.2443
  643MOL0     C86716  11.419   5.871  11.725 -0.4099  0.2627  0.3244
  643MOL0     O86717  11.224   5.725  11.592  0.2206 -0.1284 -0.1723
  643MOL0     C86718  11.093   5.693  11.350  0.4268 -0.1210  1.0313
  643MOL0     C86719  11.025   5.690  11.228  0.6743 -0.1411  0.5282
  643MOL0     N86720  11.146   5.722  10.585 -0.3354  0.5629  0.7051
  643MOL0     N86721  11.163   5.791  10.481 -0.5316  0.3986  0.5674
  643MOL0     C86722  10.865   6.127  10.678 -1.4382 -0.5201  0.8557
  643MOL0     C86723  10.803   6.061  10.784 -0.3104  0.0057 -0.2529
  643MOL0     C86724  10.569   5.875  11.108  0.5808 -0.4356 -0.0357
  643MOL0     C86725  10.659   5.897  11.213 -0.0135 -1.0414 -0.2526
  643MOL0     C86726  10.638   5.845  11.342  0.0604 -0.3937  0.2130
  643MOL0     C86727  10.511   5.770  11.366 -0.0673  0.6774  1.0732
  643MOL0     O86728  10.467   5.720  11.482 -0.9465  0.5162 -0.4331
  643MOL0     C86729  10.559   5.708  11.590  0.3533 -0.2739 -0.6217
  643MOL0     C86730  10.633   5.566  11.584  0.1237 -0.0085 -1.1427
  643MOL0     C86731  10.710   5.541  11.449  0.4317 -0.1593 -0.5208
  643MOL0     C86732  10.794   5.412  11.464 -0.7744 -0.8261 -1.1535
  643MOL0     C86733  10.913   5.419  11.551  0.1741  0.1618  0.4364
  643MOL0     C86734  11.010   5.419  11.634  0.8759  0.0666  0.3272
  643MOL0     C86735  10.425   5.751  11.256 -0.1922 -0.5513  0.6392
  643MOL0     C86736  10.451   5.798  11.127  0.1297 -0.1304 -0.2215
  643MOL0     C86737  10.348   5.786  11.023  0.3560 -0.3504  0.7849
  643MOL0     H86738  10.614   6.307  10.926 -0.4295 -2.1539  1.7825
  643MOL0     H86739  10.715   6.437  10.719  3.7891  1.5408  1.5864
  643MOL0     H86740  10.683   6.355  10.467 -0.6329  1.2665  1.5243
  643MOL0     H86741  10.789   6.485  10.530  2.0430 -1.1742  2.6548
  643MOL0     H86742  10.937   6.448  10.304 -1.2713  2.3448 -3.8355
  643MOL0     H86743  10.770   6.489  10.273  0.4475  0.0839  0.6140
  643MOL0     H86744  10.824   6.337  10.121 -1.9861 -0.1326 -0.5891
  643MOL0     H86745  10.711   6.250  10.236  1.7733 -3.2215  2.8884
  643MOL0     H86746  11.012   6.218  10.242 -0.1739 -0.2455  1.0709
  643MOL0     H86747  10.907   6.137  10.341  2.7960 -0.9851  0.5405
  643MOL0     H86748  10.800   6.011  10.146  0.7005 -2.2730 -0.9727
  643MOL0     H86749  10.871   6.126  10.030  1.1757  0.1774  0.8104
  643MOL0     H86750  11.007   5.921  10.021  1.1907  0.9232 -0.6131
  643MOL0     H86751  11.102   6.033  10.111  0.0180 -0.1657  1.4367
  643MOL0     H86752  10.905   5.832  10.251 -1.7497  0.8752 -2.1788
  643MOL0     H86753  11.025   5.947  10.321  3.7001  0.0775 -1.0342
  643MOL0     H86754  11.096   5.714  10.155 -1.7954  0.5201  0.8051
  643MOL0     H86755  11.207   5.826  10.222 -0.9151  1.7589  1.4378
  643MOL0     H86756  10.992   5.529  10.346 -2.1922  0.0975  0.6054
  643MOL0     H86757  10.964   5.434  10.607 -0.2190 -0.7906  0.7859
  643MOL0     H86758  11.131   5.407  10.638  1.0471  1.7848 -0.0702
  643MOL0     H86759  11.054   5.430  10.854 -0.2873 -0.9750 -0.6783
  643MOL0     H86760  11.131   5.575  10.817  1.0104 -0.0527 -3.9173
  643MOL0     H86761  10.827   5.539  10.799  0.4569  0.5503  0.9121
  643MOL0     H86762  10.924   5.683  10.747 -0.9017 -0.2520 -0.1383
  643MOL0     H86763  10.902   5.562  11.031 -0.7424  0.0728  0.5161
  643MOL0     H86764  10.813   5.702  10.975  0.3943  0.1215 -0.8394
  643MOL0     H86765  11.283   5.811  11.041  0.5190 -0.8581  0.1897
  643MOL0     H86766  11.391   5.797  11.258  1.0611 -6.3486  1.0704
  643MOL0     H86767  11.656   5.716  11.537 -1.4383 -2.0704  0.1977
  643MOL0     H86768  11.796   5.749  11.739 -0.9238 -0.4502  1.3262
  643MOL0     H86769  11.824   6.039  11.918  2.1584 -1.9763  0.3319
  643MOL0     H86770  11.663   6.076  11.973  0.5835 -0.3356 -0.3837
  643MOL0     H86771  11.848   5.917  12.145 -2.5397 -3.1633  1.7623
  643MOL0     H86772  11.873   6.094  12.137  2.2075 -2.5588 -1.8165
  643MOL0     H86773  11.731   6.058  12.339 -1.0787 -2.3845  0.5723
  643MOL0     H86774  11.623   6.113  12.206 -0.9603 -1.7375 -2.7155
  643MOL0     H86775  11.689   5.844  12.322  1.7604  1.4395  0.3860
  643MOL0     H86776  11.572   5.865  12.191 -5.9085 -1.0114  3.5584
  643MOL0     H86777  11.529   5.954  12.473 -1.4371 -2.7749  1.0034
  643MOL0     H86778  11.448   5.827  12.370  0.4592 -0.5542 -3.3818
  643MOL0     H86779  11.418   6.121  12.327  0.3501  0.0472 -1.5957
  643MOL0     H86780  11.360   6.001  12.225 -1.2309 -3.1686  0.1355
  643MOL0     H86781  11.275   5.982  12.518  0.6671 -1.7044  0.0147
  643MOL0     H86782  11.179   5.938  12.381 -1.1643 -0.3060  0.6216
  643MOL0     H86783  11.229   6.232  12.453 -0.3446  0.5507 -3.1390
  643MOL0     H86784  11.138   6.161  12.323  2.9010  2.9494 -1.4748
  643MOL0     H86785  11.452   5.927  11.935  1.2185  0.4958  0.6697
  643MOL0     H86786  11.319   5.912  11.729 -1.0210 -1.2303  1.4280
  643MOL0     H86787  11.041   5.661  11.440 -0.8506 -0.9028  0.0617
  643MOL0     H86788  10.925   5.649  11.221 -0.7437  3.1595 -0.8978
  643MOL0     H86789  10.936   6.068  10.622  0.8412  1.8078  1.0948
  643MOL0     H86790  10.811   5.953  10.797 -0.9064  0.0335  0.4410
  643MOL0     H86791  10.750   5.952  11.192  0.1474 -1.0815  0.3181
  643MOL0     H86792  10.724   5.862  11.406  1.9956 -1.4905 -1.9204
  643MOL0     H86793  10.492   5.721  11.675  0.4625  2.0533 -0.8467
  643MOL0     H86794  10.632   5.788  11.599 -0.6931  1.0517 -3.0411
  643MOL0     H86795  10.563   5.484  11.603  0.8818  0.0382  2.3929
  643MOL0     H86796  10.703   5.573  11.667  1.5289  0.6945 -2.3311
  643MOL0     H86797  10.787   5.618  11.437 -0.0990  0.6112  0.8609
  643MOL0     H86798  10.641   5.531  11.365 -1.0176 -0.3144  0.6620
  643MOL0     H86799  10.731   5.327  11.493 -0.9694  0.1611  1.5854
  643MOL0     H86800  10.817   5.390  11.359 -0.3535 -0.1681 -1.2008
  643MOL0     H86801  11.096   5.415  11.698  0.9893 -0.8686  0.1256
  643MOL0     H86802  10.334   5.696  11.278 -0.8181  0.4222  0.5484
  643MOL0     H86803  10.382   5.724  10.939  4.0873  1.6734  0.5891
  643MOL0     H86804  10.255   5.748  11.068  0.8868 -0.5676  1.7253
  643MOL0     H86805  10.315   5.883  10.985  0.1869  0.1974  2.2609
  644MOL0     O86806   8.017   8.641   4.925 -0.1707 -0.8080  0.5712
  644MOL0     C86807   8.052   8.549   5.001  1.1861  0.2214 -0.1685
  644MOL0     O86808   8.023   8.540   5.136  0.2470 -0.0384  0.4194
  644MOL0     C86809   7.973   8.654   5.194  0.2793 -0.0546 -0.1978
  644MOL0     C86810   8.032   8.743   5.287  0.4668  1.2918  0.6853
  644MOL0     C86811   7.965   8.857   5.338  0.2842  0.0297  0.0938
  644MOL0     C86812   7.829   8.876   5.297  0.0212  0.6372 -0.0968
  644MOL0     O86813   7.774   8.989   5.354 -1.0166 -0.5909  0.6153
  644MOL0     C86814   7.638   9.007   5.325 -1.0215  0.5897 -0.0168
  644MOL0     C86815   7.597   9.126   5.412 -0.3961 -1.0318  0.6085
  644MOL0     C86816   7.633   9.141   5.558  0.0651  0.1647  0.4417
  644MOL0     C86817   7.785   9.180   5.587  0.8130  0.3525 -0.6841
  644MOL0     C86818   7.819   9.324   5.551  0.4737  0.6956 -0.1520
  644MOL0     C86819   7.917   9.391   5.648  0.0093 -0.5909  1.0056
  644MOL0     C86820   7.936   9.538   5.599  0.3318  0.0158  0.6660
  644MOL0     C86821   8.043   9.605   5.687  0.0779 -0.5432  0.0688
  644MOL0     N86822   7.994   9.704   5.793  0.3447  0.3457  0.2942
  644MOL0     C86823   7.965   9.833   5.763 -0.1786  0.3218 -0.4209
  644MOL0     C86824   7.907   9.874   5.876  0.5660 -0.5517  0.9407
  644MOL0     C86825   7.823   9.997   5.864  0.1636  0.5293 -0.2653
  644MOL0     C86826   7.689   9.972   5.798  0.4844 -0.4586 -0.2966
  644MOL0     C86827   7.575   9.916   5.885 -0.1325 -0.9011  0.0144
  644MOL0     C86828   7.443   9.910   5.820  0.4017  0.5922  0.0914
  644MOL0     O86829   7.410  10.053   5.800  0.4469 -0.0481  0.4579
  644MOL0     C86830   7.275  10.093   5.778  0.0609 -0.3408  1.1096
  644MOL0     C86831   7.254  10.228   5.766 -0.3273 -0.7115  0.7020
  644MOL0     C86832   7.132  10.278   5.729 -0.2145 -0.5236  0.9888
  644MOL0     C86833   7.028  10.191   5.703  0.3252  0.4189  0.5799
  644MOL0     C86834   6.898  10.256   5.664  0.2098 -0.2199 -0.6724
  644MOL0     O86835   6.891  10.395   5.681 -0.4686  0.0901  0.0426
  644MOL0     C86836   6.793  10.469   5.616  0.2670  1.0953 -0.0557
  644MOL0     C86837   6.760  10.600   5.659  0.6818 -0.2902 -0.7297
  644MOL0     C86838   6.686  10.685   5.586  0.1070  0.3418  0.4545
  644MOL0     C86839   6.632  10.654   5.462  0.3455 -0.1290  0.7733
  644MOL0     O86840   6.555  10.740   5.384 -0.5476 -0.2098 -0.1351
  644MOL0     C86841   6.458  10.668   5.298 -0.1848 -0.4671 -0.1168
  644MOL0     C86842   6.395  10.767   5.207  0.1049 -0.3677 -0.5693
  644MOL0     C86843   6.282  10.706   5.124 -0.1925 -0.9180 -0.5302
  644MOL0     C86844   6.145  10.685   5.198  0.3379  0.0486  0.0155
  644MOL0     C86845   6.036  10.717   5.103  0.9487 -0.8891  0.2092
  644MOL0     C86846   5.912  10.723   5.191  0.2603  1.4331  0.8872
  644MOL0     C86847   5.777  10.725   5.123  0.2312  0.5647  0.1088
  644MOL0     C86848   5.666  10.746   5.238  0.1346  0.0177 -0.6353
  644MOL0    Cl86849   5.517  10.821   5.177  0.2617  0.8653 -0.4692
  644MOL0     C86850   6.665  10.523   5.425 -0.1644 -0.2380 -0.1625
  644MOL0     C86851   6.739  10.427   5.500  0.7903  0.0052  0.5520
  644MOL0     O86852   6.803  10.186   5.623  0.0556 -0.7162 -0.5263
  644MOL0     C86853   7.044  10.053   5.722  0.4253  0.1123 -0.3972
  644MOL0     C86854   7.168   9.999   5.746 -0.3187  0.4624  0.5038
  644MOL0     N86855   7.910   9.779   5.971  1.0099  0.5604  0.0832
  644MOL0     N86856   7.970   9.676   5.922 -0.1923  0.2550  0.2295
  644MOL0     C86857   7.774   8.798   5.194  0.4756  0.0994  0.2056
  644MOL0     C86858   7.843   8.690   5.152 -1.2532  1.2236 -0.5373
  644MOL0     C86859   8.134   8.440   4.938  0.0472 -0.4428 -0.7951
  644MOL0     C86860   8.237   8.389   5.019  0.3805  0.1388 -0.4006
  644MOL0     C86861   8.323   8.291   4.969  0.5082  0.4163 -0.6483
  644MOL0     C86862   8.303   8.233   4.848  0.1088 -0.4560  0.1445
  644MOL0     O86863   8.384   8.135   4.790 -0.3666 -0.1382  0.2566
  644MOL0     C86864   8.464   8.059   4.883  0.1657 -0.2904 -0.5163
  644MOL0     C86865   8.544   7.956   4.812  0.0755  0.8019 -0.0263
  644MOL0     C86866   8.616   7.856   4.901 -0.6132  0.1722  0.1529
  644MOL0     C86867   8.758   7.798   4.861  0.5493 -0.4620 -0.6671
  644MOL0     C86868   8.848   7.894   4.800 -0.7568  0.4836 -0.3699
  644MOL0     C86869   8.945   7.961   4.775 -0.2469  0.5050  0.3959
  644MOL0     C86870   8.200   8.288   4.774  0.1749  0.2641  0.8388
  644MOL0     C86871   8.115   8.385   4.814 -0.3034  0.0411  0.3549
  644MOL0     C86872   8.026   8.440   4.714  1.0632  0.0397  0.7628
  644MOL0     H86873   8.136   8.715   5.301  0.8164  1.0598 -1.8246
  644MOL0     H86874   8.025   8.933   5.388 -1.8901  2.3016 -0.5860
  644MOL0     H86875   7.615   9.031   5.221  0.3651 -2.6575 -1.2245
  644MOL0     H86876   7.579   8.920   5.355 -1.8221  1.3815  0.7599
  644MOL0     H86877   7.488   9.136   5.412 -0.4170 -0.7474  2.9526
  644MOL0     H86878   7.631   9.218   5.364  0.2936 -0.5317  1.9933
  644MOL0     H86879   7.610   9.049   5.612  0.9600  1.5801  3.4666
  644MOL0     H86880   7.576   9.219   5.608  2.5685  1.5237  1.3921
  644MOL0     H86881   7.782   9.173   5.696 -0.1828  2.5903 -0.5001
  644MOL0     H86882   7.854   9.107   5.545  2.8225  2.2132 -0.8030
  644MOL0     H86883   7.847   9.340   5.447 -2.1911  0.2268 -1.0209
  644MOL0     H86884   7.726   9.381   5.564 -0.4094 -0.4175 -1.3317
  644MOL0     H86885   7.869   9.397   5.745  1.7718 -1.4621  1.9762
  644MOL0     H86886   8.006   9.328   5.652 -1.1499 -2.5027 -0.8163
  644MOL0     H86887   7.840   9.589   5.602  0.5589  0.5960 -1.0664
  644MOL0     H86888   7.975   9.536   5.497  1.1602  0.2673  0.9689
  644MOL0     H86889   8.108   9.535   5.739  0.5216  1.0513  1.7800
  644MOL0     H86890   8.111   9.661   5.622 -0.2686  1.5620  1.4060
  644MOL0     H86891   7.956   9.871   5.662  1.2878  3.8730  0.6349
  644MOL0     H86892   7.822  10.033   5.968 -0.7996  1.0733 -0.4532
  644MOL0     H86893   7.874  10.076   5.808 -0.6955  0.0096 -1.8440
  644MOL0     H86894   7.657  10.062   5.744  2.9271 -0.9934 -2.8059
  644MOL0     H86895   7.718   9.900   5.722  1.1340 -1.6977  1.0829
  644MOL0     H86896   7.555   9.958   5.984 -1.5607  0.0760 -0.6449
  644MOL0     H86897   7.609   9.814   5.906  2.7509  0.2539  1.5480
  644MOL0     H86898   7.376   9.848   5.880  0.4752 -1.6863 -2.0402
  644MOL0     H86899   7.460   9.871   5.720  0.3055 -0.3326  0.4288
  644MOL0     H86900   7.343  10.290   5.767  1.1966 -2.7523 -0.7606
  644MOL0     H86901   7.125  10.384   5.708  0.8929 -0.4540  0.9120
  644MOL0     H86902   6.810  10.628   5.751 -0.4997 -0.9182  0.1315
  644MOL0     H86903   6.658  10.787   5.610 -0.4602  0.6157 -1.1878
  644MOL0     H86904   6.500  10.589   5.235  0.5457 -0.6892  0.6445
  644MOL0     H86905   6.385  10.622   5.366  3.1985 -4.0389  1.4564
  644MOL0     H86906   6.361  10.856   5.260 -1.1505 -1.3982  0.4375
  644MOL0     H86907   6.463  10.807   5.132 -0.2849  2.0418  0.2679
  644MOL0     H86908   6.275  10.787   5.051  1.7592  0.9580  1.2577
  644MOL0     H86909   6.303  10.611   5.073  1.9250 -0.5542 -0.4024
  644MOL0     H86910   6.150  10.762   5.275  1.1074  2.7848 -2.5815
  644MOL0     H86911   6.137  10.584   5.240  1.7911 -1.0389 -2.1633
  644MOL0     H86912   6.030  10.642   5.023 -0.7287 -0.5615 -0.0001
  644MOL0     H86913   6.039  10.815   5.055  0.9326 -0.2822  1.4072
  644MOL0     H86914   5.901  10.635   5.255 -1.0491 -0.0170 -1.2063
  644MOL0     H86915   5.924  10.810   5.256 -1.3967  1.4990  1.1501
  644MOL0     H86916   5.756  10.637   5.062 -0.7917  1.3304 -0.6725
  644MOL0     H86917   5.778  10.818   5.065 -0.0271 -0.4839 -1.6431
  644MOL0     H86918   5.649  10.656   5.297 -1.1959  1.0930  0.6661
  644MOL0     H86919   5.708  10.826   5.299  5.1290 -1.7005 -1.3473
  644MOL0     H86920   6.649  10.481   5.327  1.8917  0.9261 -1.0551
  644MOL0     H86921   6.747  10.336   5.442 -0.2164 -1.0994  2.0690
  644MOL0     H86922   6.959   9.988   5.704 -0.4604  1.4581 -1.2477
  644MOL0     H86923   7.182   9.892   5.740 -0.0719  0.5860 -1.7504
  644MOL0     H86924   7.672   8.813   5.160  1.4836  3.2353 -1.8256
  644MOL0     H86925   7.798   8.618   5.085  1.4770  0.7702 -2.0556
  644MOL0     H86926   8.263   8.421   5.119  1.5294 -2.0468  0.0757
  644MOL0     H86927   8.403   8.252   5.032  1.2555 -0.7875 -2.2564
  644MOL0     H86928   8.394   8.011   4.951 -0.5941  0.7895 -0.5020
  644MOL0     H86929   8.537   8.118   4.939  2.6331 -2.4557 -1.2893
  644MOL0     H86930   8.618   8.010   4.754 -0.8034  2.6091  0.4482
  644MOL0     H86931   8.468   7.915   4.744 -0.4477  3.0876 -0.9312
  644MOL0     H86932   8.547   7.776   4.933 -1.6756  2.1594  3.2967
  644MOL0     H86933   8.648   7.905   4.993  2.2935 -0.6752 -0.2947
  644MOL0     H86934   8.801   7.771   4.958 -0.6734  3.1769  1.0743
  644MOL0     H86935   8.745   7.711   4.796 -2.0221  0.0795 -0.9782
  644MOL0     H86936   9.040   7.988   4.733 -1.3109  0.9985 -1.8815
  644MOL0     H86937   8.191   8.236   4.679  3.9533 -0.5396  0.7555
  644MOL0     H86938   7.946   8.502   4.756 -0.2203 -0.7652 -0.3756
  644MOL0     H86939   8.088   8.509   4.656 -0.9763  2.1085  0.8775
  644MOL0     H86940   7.982   8.373   4.639 -0.4686  4.4137 -2.7525
  645MOL0     O86941   4.014   8.333   2.009  0.7967 -0.9940 -0.3069
  645MOL0     C86942   4.049   8.377   2.117 -0.4638  0.2649  0.4564
  645MOL0     O86943   4.178   8.367   2.164  0.6613  0.3144  0.6008
  645MOL0     C86944   4.264   8.312   2.086 -0.9873  0.7563  0.7016
  645MOL0     C86945   4.285   8.175   2.052  0.4169  0.0881 -0.8747
  645MOL0     C86946   4.379   8.141   1.953 -0.0218 -0.0772 -0.2544
  645MOL0     C86947   4.456   8.240   1.892 -0.5949  0.4106 -0.1092
  645MOL0     O86948   4.563   8.201   1.810  0.0244  0.0024  0.4919
  645MOL0     C86949   4.689   8.275   1.815 -0.1960 -0.9813 -0.1814
  645MOL0     C86950   4.745   8.287   1.673  0.3615  0.7320 -0.8259
  645MOL0     C86951   4.636   8.357   1.584  1.1596  0.0042  0.7844
  645MOL0     C86952   4.687   8.371   1.435  0.1455  0.8037  0.0029
  645MOL0     C86953   4.558   8.435   1.366  0.1669  0.0504  0.4100
  645MOL0     C86954   4.434   8.340   1.332 -0.3366  0.5655 -0.7364
  645MOL0     C86955   4.309   8.425   1.289  0.3164 -0.2257  0.0618
  645MOL0     C86956   4.336   8.544   1.185 -1.2228  0.9470 -0.9976
  645MOL0     N86957   4.202   8.596   1.146  0.4006  0.1868 -0.8373
  645MOL0     C86958   4.107   8.652   1.222 -0.6535 -0.3133 -0.3461
  645MOL0     C86959   4.039   8.725   1.137  0.7657  0.7466 -0.2212
  645MOL0     C86960   3.931   8.831   1.169 -0.0105  0.5261  0.6760
  645MOL0     C86961   3.791   8.772   1.195 -0.7157 -1.1671  0.6303
  645MOL0     C86962   3.696   8.875   1.259  1.1956 -0.0820  1.1279
  645MOL0     C86963   3.675   9.012   1.179  0.2573  0.7803  0.1823
  645MOL0     O86964   3.569   9.098   1.232  0.1017 -0.1061 -0.5846
  645MOL0     C86965   3.582   9.158   1.358 -0.2891  0.4644  0.7567
  645MOL0     C86966   3.692   9.136   1.441 -0.7977 -1.3858  0.3813
  645MOL0     C86967   3.686   9.179   1.573  1.2140 -0.2995  0.5703
  645MOL0     C86968   3.564   9.238   1.621  1.0173 -1.3582  0.1574
  645MOL0     C86969   3.540   9.280   1.763  0.4980  0.7968  1.1281
  645MOL0     O86970   3.416   9.279   1.821  0.9370  0.3489 -0.1404
  645MOL0     C86971   3.395   9.311   1.953  0.0263  0.1289  0.7597
  645MOL0     C86972   3.434   9.433   1.999  0.6364  0.0336 -0.3627
  645MOL0     C86973   3.400   9.475   2.132 -0.0802  0.1083 -0.2153
  645MOL0     C86974   3.350   9.380   2.225 -0.5197  0.1536  0.8565
  645MOL0     O86975   3.328   9.416   2.358  0.1249 -0.2442  0.0604
  645MOL0     C86976   3.380   9.342   2.460 -0.6021  0.4393 -0.5772
  645MOL0     C86977   3.348   9.415   2.590 -0.5284 -0.3939 -0.4112
  645MOL0     C86978   3.207   9.371   2.634  0.0518 -0.6396 -0.6453
  645MOL0     C86979   3.128   9.447   2.744 -0.3070 -0.3113 -0.1002
  645MOL0     C86980   3.036   9.547   2.679 -0.6196  1.1721  0.2939
  645MOL0     C86981   2.960   9.642   2.774 -0.6802 -0.5609 -1.1332
  645MOL0     C86982   2.853   9.710   2.686  0.0996 -0.2983  0.2740
  645MOL0     C86983   2.739   9.767   2.772  0.1797 -0.0224  0.4618
  645MOL0    Cl86984   2.596   9.837   2.683  0.4137  0.2136  0.0295
  645MOL0     C86985   3.297   9.264   2.168  1.8247 -0.4166 -0.2272
  645MOL0     C86986   3.311   9.234   2.033 -0.2715 -0.1000  0.7532
  645MOL0     O86987   3.643   9.295   1.823  0.1711 -0.0103 -0.7841
  645MOL0     C86988   3.448   9.263   1.538 -0.7890 -1.2325 -0.6036
  645MOL0     C86989   3.463   9.219   1.403  0.3506  0.4577  0.2128
  645MOL0     N86990   4.085   8.715   1.012 -0.4749  0.6077  0.5219
  645MOL0     N86991   4.184   8.631   1.014 -0.2437 -0.4420  0.2352
  645MOL0     C86992   4.431   8.378   1.919  0.1984  0.1287 -0.1866
  645MOL0     C86993   4.332   8.411   2.010 -0.3632 -0.1618 -0.4761
  645MOL0     C86994   3.947   8.425   2.215  0.5590 -0.6435  0.1630
  645MOL0     C86995   3.995   8.460   2.344  0.4748  1.3002  0.0884
  645MOL0     C86996   3.907   8.492   2.446 -0.6493  0.3296 -0.3355
  645MOL0     C86997   3.770   8.505   2.428  1.0254 -0.0878  0.6090
  645MOL0     O86998   3.672   8.526   2.523  0.1099 -0.0037  0.0889
  645MOL0     C86999   3.706   8.569   2.654 -0.3904  0.1736 -0.7444
  645MOL0     C87000   3.688   8.715   2.672  0.2755  0.7264  1.1323
  645MOL0     C87001   3.819   8.799   2.649  0.1157 -0.3158  0.6575
  645MOL0     C87002   3.813   8.946   2.702 -0.0806  0.5095  0.2199
  645MOL0     C87003   3.709   9.029   2.630 -0.8796  0.4851  0.0718
  645MOL0     C87004   3.618   9.083   2.579 -0.1041 -0.4537  0.2182
  645MOL0     C87005   3.720   8.492   2.290 -0.8502 -0.5026  0.0571
  645MOL0     C87006   3.806   8.449   2.188 -0.1844  0.6720  0.3063
  645MOL0     C87007   3.738   8.406   2.062 -0.0365  0.1855 -0.9711
  645MOL0     H87008   4.228   8.095   2.099  2.7337 -0.5479  1.1056
  645MOL0     H87009   4.411   8.037   1.957 -1.8578 -0.8598 -3.0497
  645MOL0     H87010   4.701   8.366   1.875 -2.7211 -0.2306 -0.6945
  645MOL0     H87011   4.749   8.209   1.878 -1.0747  0.9761  2.9385
  645MOL0     H87012   4.773   8.189   1.634 -1.7745  0.0184 -0.7198
  645MOL0     H87013   4.839   8.342   1.680  1.5112 -1.1742 -0.4854
  645MOL0     H87014   4.624   8.459   1.623 -1.0168  0.9011 -1.9384
  645MOL0     H87015   4.538   8.309   1.586  0.0972  2.0535  2.6894
  645MOL0     H87016   4.776   8.433   1.425 -0.3179  1.1486 -3.3424
  645MOL0     H87017   4.703   8.275   1.384 -0.1437  0.6277  0.2400
  645MOL0     H87018   4.518   8.523   1.418 -1.5157  0.7933 -1.9519
  645MOL0     H87019   4.578   8.456   1.261 -1.3871 -0.8716 -0.1022
  645MOL0     H87020   4.478   8.274   1.256 -0.5184  2.1762 -2.3203
  645MOL0     H87021   4.419   8.284   1.424  1.6404  2.3336  0.7830
  645MOL0     H87022   4.260   8.457   1.381  2.2587  2.6357  0.2173
  645MOL0     H87023   4.245   8.346   1.248 -1.0104  0.5657  0.5489
  645MOL0     H87024   4.389   8.623   1.239 -3.9804  0.4742  2.8723
  645MOL0     H87025   4.401   8.521   1.100  2.1852  1.9385  1.1401
  645MOL0     H87026   4.106   8.658   1.330 -2.0572  1.6486 -0.4174
  645MOL0     H87027   3.969   8.878   1.260  3.3952 -0.0828 -0.2864
  645MOL0     H87028   3.918   8.904   1.089  1.5068  0.9833  0.8100
  645MOL0     H87029   3.747   8.737   1.102 -1.2380  0.9601  0.0357
  645MOL0     H87030   3.811   8.690   1.265  2.5407 -0.7924  0.2818
  645MOL0     H87031   3.733   8.895   1.360  2.3892  1.2548  0.4545
  645MOL0     H87032   3.599   8.826   1.269  0.5500  0.9588  0.2728
  645MOL0     H87033   3.628   8.976   1.087 -1.7754  4.1500 -0.2561
  645MOL0     H87034   3.772   9.058   1.159  0.4446  0.4275  0.2741
  645MOL0     H87035   3.778   9.081   1.404 -1.8581 -3.3857  0.7607
  645MOL0     H87036   3.776   9.177   1.633  1.5114 -0.0454  0.1364
  645MOL0     H87037   3.484   9.501   1.931 -1.4872  2.1535  0.0820
  645MOL0     H87038   3.402   9.574   2.176 -1.7515  0.8393 -1.6694
  645MOL0     H87039   3.341   9.239   2.462 -0.1634  0.2412  2.6895
  645MOL0     H87040   3.489   9.344   2.449 -0.5390  3.0999 -0.0672
  645MOL0     H87041   3.419   9.374   2.663 -0.9920  0.6584  0.6631
  645MOL0     H87042   3.356   9.523   2.575  0.9425 -0.1260  1.7564
  645MOL0     H87043   3.139   9.365   2.549 -2.2514  0.1611  1.0315
  645MOL0     H87044   3.214   9.271   2.677 -2.6548 -1.2981 -1.5274
  645MOL0     H87045   3.194   9.495   2.816  0.9488 -2.4449  0.2649
  645MOL0     H87046   3.063   9.382   2.803 -0.8384  0.4376  0.1598
  645MOL0     H87047   2.961   9.486   2.628  0.1928 -2.2506  2.8754
  645MOL0     H87048   3.083   9.613   2.605 -0.2187  0.1389 -0.3891
  645MOL0     H87049   2.902   9.580   2.844 -0.6925 -0.1916 -0.8148
  645MOL0     H87050   3.028   9.715   2.817  1.3449  0.3186 -5.3705
  645MOL0     H87051   2.815   9.642   2.609  1.4379 -2.1951  1.2152
  645MOL0     H87052   2.904   9.791   2.633 -0.0824 -0.7183 -0.5759
  645MOL0     H87053   2.708   9.686   2.839  0.5318  1.4902  2.5453
  645MOL0     H87054   2.783   9.842   2.837  0.5436  1.2634 -1.2108
  645MOL0     H87055   3.238   9.217   2.245  0.7534  3.0052  1.2664
  645MOL0     H87056   3.276   9.141   1.989  1.1407  0.0743 -0.8058
  645MOL0     H87057   3.360   9.321   1.564  0.8394  1.8648 -1.6291
  645MOL0     H87058   3.380   9.219   1.334  0.3752 -0.9949  0.1532
  645MOL0     H87059   4.492   8.450   1.867 -1.0309  2.2812  1.2083
  645MOL0     H87060   4.309   8.517   2.020  1.5278  0.1319  1.7674
  645MOL0     H87061   4.101   8.454   2.369  0.3851  1.8071  0.6119
  645MOL0     H87062   3.941   8.498   2.549  0.9059 -1.9591 -0.6495
  645MOL0     H87063   3.803   8.526   2.683 -0.4559  1.7711  2.1495
  645MOL0     H87064   3.636   8.521   2.723 -0.5133  0.9726 -0.3051
  645MOL0     H87065   3.660   8.729   2.776 -0.2792  0.3504  1.0354
  645MOL0     H87066   3.602   8.746   2.612  0.5228 -2.9729 -1.4699
  645MOL0     H87067   3.837   8.819   2.543 -1.5395  4.3354  0.9896
  645MOL0     H87068   3.907   8.748   2.689 -0.0170 -2.0580 -1.1247
  645MOL0     H87069   3.785   8.955   2.807  1.3561  1.5803  0.5398
  645MOL0     H87070   3.911   8.990   2.683 -0.6619  1.3494 -0.9757
  645MOL0     H87071   3.539   9.133   2.527 -0.6148 -0.5061  0.9317
  645MOL0     H87072   3.612   8.491   2.283 -0.7267 -1.4323 -2.9425
  645MOL0     H87073   3.645   8.462   2.047 -0.2608 -0.1667 -0.9373
  645MOL0     H87074   3.793   8.437   1.973  1.9097  2.5206  0.9212
  645MOL0     H87075   3.720   8.299   2.079  1.9380  0.2738  2.4572
  646MOL0     O87076   1.403   2.708   1.069 -0.1635  0.8934 -0.8121
  646MOL0     C87077   1.320   2.739   0.990 -0.3661  0.7106 -0.1719
  646MOL0     O87078   1.333   2.734   0.856 -0.4329 -0.1687  1.1490
  646MOL0     C87079   1.457   2.727   0.800  0.3649  0.3256 -0.9757
  646MOL0     C87080   1.492   2.815   0.703 -0.9369 -0.7222  0.5203
  646MOL0     C87081   1.615   2.798   0.628  0.1378 -0.1593 -0.0751
  646MOL0     C87082   1.707   2.702   0.674 -0.5734 -0.5653 -1.0670
  646MOL0     O87083   1.842   2.684   0.638  0.1749  0.4677 -0.6038
  646MOL0     C87084   1.895   2.772   0.530  0.0985  0.8615 -0.3293
  646MOL0     C87085   1.924   2.677   0.404 -0.1490  0.0167  0.6472
  646MOL0     C87086   1.795   2.633   0.332  0.7856  0.8486  0.1053
  646MOL0     C87087   1.770   2.473   0.356 -0.3510  0.2898  0.3402
  646MOL0     C87088   1.622   2.447   0.332  0.6503  0.1307 -0.9875
  646MOL0     C87089   1.590   2.297   0.374 -0.6634 -0.7969 -0.6429
  646MOL0     C87090   1.448   2.250   0.329 -0.1754 -0.3230  0.5616
  646MOL0     C87091   1.447   2.170   0.196  0.2538  0.0812  0.0698
  646MOL0     N87092   1.454   2.023   0.219  0.4005  0.6861  0.3723
  646MOL0     C87093   1.553   1.959   0.291 -0.1133 -1.1101 -0.8675
  646MOL0     C87094   1.561   1.833   0.248  0.0848  0.8693  0.1064
  646MOL0     C87095   1.655   1.737   0.310 -1.3779 -0.4242  0.5142
  646MOL0     C87096   1.654   1.594   0.241  0.1392 -1.0269  0.3647
  646MOL0     C87097   1.777   1.504   0.278 -0.1332  0.6940  0.3725
  646MOL0     C87098   1.776   1.453   0.416 -0.4515 -1.1200 -0.1647
  646MOL0     O87099   1.701   1.328   0.414  0.4327 -0.6328  0.1076
  646MOL0     C87100   1.651   1.290   0.538  0.2257 -0.7400 -1.6226
  646MOL0     C87101   1.634   1.365   0.659  0.6610 -0.2427  0.2625
  646MOL0     C87102   1.555   1.324   0.764  0.3578  0.2407 -0.4242
  646MOL0     C87103   1.488   1.199   0.755  0.1646 -0.4004 -0.4132
  646MOL0     C87104   1.390   1.169   0.862  0.3840  0.7639 -0.1514
  646MOL0     O87105   1.292   1.074   0.823 -0.0953 -0.6851 -0.2298
  646MOL0     C87106   1.191   1.052   0.912  0.2658 -0.3508 -0.5156
  646MOL0     C87107   1.095   1.152   0.955 -0.9327  0.0757  0.7250
  646MOL0     C87108   1.004   1.117   1.051 -0.5992  0.7606  0.8066
  646MOL0     C87109   0.981   0.979   1.078  0.2906 -1.2458  0.6035
  646MOL0     O87110   0.876   0.943   1.164 -0.0001  0.3330  0.3676
  646MOL0     C87111   0.746   0.989   1.116 -0.1914  0.4050  0.3902
  646MOL0     C87112   0.696   0.889   1.017  0.1887  0.3981 -0.1536
  646MOL0     C87113   0.705   0.742   1.063  0.7778 -0.9883 -0.1065
  646MOL0     C87114   0.618   0.638   0.997  0.0789  0.2304 -0.0032
  646MOL0     C87115   0.637   0.637   0.842  0.2186 -0.3164  0.1424
  646MOL0     C87116   0.782   0.587   0.828 -0.9014 -0.2846  0.2963
  646MOL0     C87117   0.819   0.568   0.686 -0.1163  0.0728  0.0858
  646MOL0     C87118   0.840   0.704   0.611  0.4845  1.3389  0.6261
  646MOL0    Cl87119   0.990   0.778   0.683 -0.1857  0.0353  0.3196
  646MOL0     C87120   1.072   0.886   1.035  1.0629 -0.2866  0.2880
  646MOL0     C87121   1.179   0.924   0.951 -0.7651 -0.3705  0.2874
  646MOL0     O87122   1.396   1.228   0.971  0.0232  0.1472 -0.1290
  646MOL0     C87123   1.516   1.110   0.646 -0.3366 -0.0290 -0.2042
  646MOL0     C87124   1.593   1.165   0.544 -0.1461  0.3789  1.0042
  646MOL0     N87125   1.465   1.812   0.149 -0.4478 -0.2387 -0.4248
  646MOL0     N87126   1.411   1.924   0.129 -0.3534 -0.3637 -0.4103
  646MOL0     C87127   1.661   2.600   0.761 -0.4236 -0.4404  0.0102
  646MOL0     C87128   1.541   2.614   0.822  0.7857 -0.2226 -0.8484
  646MOL0     C87129   1.175   2.779   1.028 -0.2210  0.5698 -0.6245
  646MOL0     C87130   1.060   2.713   0.969 -1.1546  0.0160 -1.0753
  646MOL0     C87131   0.933   2.723   1.025 -0.4096  0.7107 -0.0916
  646MOL0     C87132   0.906   2.814   1.130  0.2968 -0.7509 -0.0912
  646MOL0     O87133   0.785   2.837   1.188  0.2649  0.3222 -0.0336
  646MOL0     C87134   0.659   2.785   1.142 -0.7363 -1.0490  0.2728
  646MOL0     C87135   0.625   2.666   1.234  0.3308 -0.1200  0.2510
  646MOL0     C87136   0.572   2.698   1.373 -0.0551  0.6609  0.0672
  646MOL0     C87137   0.425   2.728   1.377 -0.1603 -0.1376 -0.2582
  646MOL0     C87138   0.392   2.777   1.509 -0.3787 -0.2487  0.4613
  646MOL0     C87139   0.352   2.792   1.622 -1.1985  0.7967 -0.4377
  646MOL0     C87140   1.016   2.898   1.169 -0.2438  0.4388 -0.7503
  646MOL0     C87141   1.144   2.877   1.128 -1.1377  1.0531 -0.8876
  646MOL0     C87142   1.252   2.953   1.188 -0.5085 -0.6153 -0.0727
  646MOL0     H87143   1.421   2.892   0.674  0.6056  0.0427 -1.4210
  646MOL0     H87144   1.646   2.876   0.559 -0.3145  2.2977  2.3336
  646MOL0     H87145   1.823   2.848   0.499 -0.4318  2.7401  4.5951
  646MOL0     H87146   1.985   2.822   0.567 -0.8304  2.6196 -0.3269
  646MOL0     H87147   1.981   2.585   0.418 -1.2718 -0.7794  0.1091
  646MOL0     H87148   1.977   2.741   0.333 -4.1264  0.0513 -2.6081
  646MOL0     H87149   1.799   2.658   0.225 -0.1352  0.5482 -0.0107
  646MOL0     H87150   1.711   2.688   0.375  0.5567 -0.6987  1.7672
  646MOL0     H87151   1.836   2.417   0.289  0.1977  2.8945 -1.4958
  646MOL0     H87152   1.791   2.450   0.461  1.3736 -1.2156 -0.2712
  646MOL0     H87153   1.565   2.512   0.399  1.8282 -2.8307  3.3848
  646MOL0     H87154   1.594   2.456   0.227  2.8286 -1.0031 -1.7277
  646MOL0     H87155   1.664   2.230   0.330  0.8131  0.8400 -0.7480
  646MOL0     H87156   1.598   2.281   0.482  3.4888 -0.0751 -0.6945
  646MOL0     H87157   1.379   2.334   0.315  3.0747  2.1772 -2.6028
  646MOL0     H87158   1.402   2.189   0.407  0.6406 -0.3914  0.9972
  646MOL0     H87159   1.346   2.188   0.158  0.3143  0.3566  0.0351
  646MOL0     H87160   1.525   2.200   0.125 -1.0017  1.7330 -0.6823
  646MOL0     H87161   1.613   2.004   0.370 -1.9141  0.7703 -0.4733
  646MOL0     H87162   1.762   1.758   0.297 -1.2680 -1.4128 -0.2953
  646MOL0     H87163   1.638   1.734   0.418  2.6275 -1.2734  1.2924
  646MOL0     H87164   1.570   1.529   0.269 -0.6421  0.6116  2.0322
  646MOL0     H87165   1.673   1.596   0.133  2.3195 -1.6353  0.6996
  646MOL0     H87166   1.857   1.574   0.252 -1.7000  2.8962  1.0912
  646MOL0     H87167   1.784   1.425   0.203  2.0111  3.1715 -2.3064
  646MOL0     H87168   1.734   1.528   0.483  2.5591 -0.8486  1.5987
  646MOL0     H87169   1.875   1.431   0.457 -0.8833 -2.0635  0.4055
  646MOL0     H87170   1.675   1.466   0.659 -3.1233  1.4856 -0.6530
  646MOL0     H87171   1.537   1.387   0.851  2.1451 -0.3649  0.4386
  646MOL0     H87172   1.097   1.256   0.924 -0.7972 -0.1308  0.0016
  646MOL0     H87173   0.940   1.199   1.081  1.1574  2.8911 -0.9563
  646MOL0     H87174   0.671   1.001   1.194 -0.0199  2.2336  0.3098
  646MOL0     H87175   0.756   1.090   1.076  3.6497 -0.1372 -0.4974
  646MOL0     H87176   0.591   0.919   1.002  0.3647  0.8330 -0.5678
  646MOL0     H87177   0.759   0.899   0.928  0.5530  0.3419  0.0990
  646MOL0     H87178   0.808   0.707   1.060  2.3446  2.8784  1.7310
  646MOL0     H87179   0.687   0.746   1.171  2.9359 -0.9059  0.2944
  646MOL0     H87180   0.516   0.670   1.022 -0.0975 -1.4533  1.6148
  646MOL0     H87181   0.636   0.540   1.041  1.1195  1.1007  1.5753
  646MOL0     H87182   0.628   0.733   0.790 -0.8904  1.2763  3.0458
  646MOL0     H87183   0.560   0.572   0.800  0.3764 -0.7595  0.5293
  646MOL0     H87184   0.856   0.659   0.867  1.2899 -1.8141 -0.8272
  646MOL0     H87185   0.803   0.493   0.880  0.1032 -1.0607 -1.4272
  646MOL0     H87186   0.746   0.503   0.637 -0.8171  1.3896 -0.6597
  646MOL0     H87187   0.906   0.503   0.674 -1.3214 -1.6046 -0.0100
  646MOL0     H87188   0.864   0.676   0.508 -1.4677  1.7086  0.0374
  646MOL0     H87189   0.750   0.765   0.619  1.7549  3.0288  3.9894
  646MOL0     H87190   1.062   0.781   1.059 -1.0806 -0.5478 -1.3769
  646MOL0     H87191   1.261   0.856   0.931 -0.2725  0.5700 -1.0118
  646MOL0     H87192   1.460   1.020   0.623  4.5783 -2.7618 -3.2343
  646MOL0     H87193   1.599   1.125   0.443  1.9842 -3.0938  2.2830
  646MOL0     H87194   1.734   2.527   0.795 -0.6473  0.3776  2.4812
  646MOL0     H87195   1.504   2.527   0.876 -2.0056  1.2714 -0.1517
  646MOL0     H87196   1.072   2.637   0.893 -1.3700 -0.3012 -0.7964
  646MOL0     H87197   0.858   2.652   0.992  3.3241 -3.9010  0.3425
  646MOL0     H87198   0.667   2.772   1.034 -1.4215 -2.0700  0.3324
  646MOL0     H87199   0.578   2.858   1.155  0.1619  1.2023 -4.5958
  646MOL0     H87200   0.715   2.610   1.260 -0.3927 -1.2020  0.5105
  646MOL0     H87201   0.571   2.596   1.169 -0.0370  0.4639 -0.0853
  646MOL0     H87202   0.625   2.779   1.425  0.1470 -0.3402  1.4962
  646MOL0     H87203   0.586   2.610   1.436  3.3702  1.8916  1.3238
  646MOL0     H87204   0.407   2.806   1.302  0.3386 -0.2582 -0.5144
  646MOL0     H87205   0.369   2.635   1.367 -2.8652  1.5014 -1.5892
  646MOL0     H87206   0.319   2.815   1.721  0.2396 -0.7964  0.4698
  646MOL0     H87207   0.995   2.977   1.241  0.1699 -0.1459  0.0262
  646MOL0     H87208   1.339   2.959   1.121 -0.1071 -1.8076  0.3079
  646MOL0     H87209   1.220   3.052   1.220  2.2282  0.3140  0.0534
  646MOL0     H87210   1.288   2.892   1.272 -3.8769 -2.7423 -0.0125
  647MOL0     O87211   2.981  11.498  10.224 -0.2506 -0.1565 -0.7968
  647MOL0     C87212   2.885  11.437  10.179  0.3838 -0.3447  0.1950
  647MOL0     O87213   2.804  11.482  10.078 -0.2049  0.6090 -0.1673
  647MOL0     C87214   2.785  11.617  10.061 -1.0778 -0.5475  0.6697
  647MOL0     C87215   2.659  11.665  10.041 -0.6423  0.5555 -1.2806
  647MOL0     C87216   2.637  11.786   9.987  0.8695  0.0630  0.2501
  647MOL0     C87217   2.751  11.877   9.961  0.3730  0.4395  0.1277
  647MOL0     O87218   2.752  11.994   9.901  0.2043  0.2618  0.3287
  647MOL0     C87219   2.632  12.062   9.893  1.4166  0.0821  0.0762
  647MOL0     C87220   2.654  12.205   9.892  1.2998 -0.4613  0.0992
  647MOL0     C87221   2.521  12.284   9.874  0.2853 -0.3019 -0.2358
  647MOL0     C87222   2.554  12.435   9.886 -0.2693  0.0586  0.6033
  647MOL0     C87223   2.614  12.472  10.026  0.4154 -0.6246 -0.6674
  647MOL0     C87224   2.605  12.624  10.047 -0.5669  0.0482 -0.0245
  647MOL0     C87225   2.710  12.708   9.977  0.5928 -0.2685 -1.0801
  647MOL0     C87226   2.668  12.850   9.954  0.5378  0.3235  0.1034
  647MOL0     N87227   2.768  12.928   9.885  0.2194 -0.3159  0.0491
  647MOL0     C87228   2.906  12.915   9.886 -0.2983  0.2593  0.2642
  647MOL0     C87229   2.959  13.008   9.805 -0.2927  1.1499 -0.3286
  647MOL0     C87230   3.101  13.037   9.774  0.0211  0.7731  0.2650
  647MOL0     C87231   3.108  13.177   9.722  0.2007 -0.8491  0.5243
  647MOL0     C87232   3.243  13.244   9.712  0.0978  0.5115  0.0291
  647MOL0     C87233   3.348  13.157   9.633  1.3871  0.4894  0.6019
  647MOL0     O87234   3.467  13.203   9.677 -0.3465 -0.5065 -0.1405
  647MOL0     C87235   3.579  13.139   9.627 -0.4655 -1.4194 -0.2296
  647MOL0     C87236   3.698  13.199   9.672 -0.7411  0.6194  0.1712
  647MOL0     C87237   3.822  13.138   9.637 -1.0056  0.0709  0.4327
  647MOL0     C87238   3.838  13.019   9.571  0.1414  0.4075 -0.6849
  647MOL0     C87239   3.969  12.960   9.560  0.0041  0.5662 -0.3395
  647MOL0     O87240   4.071  13.028   9.614  1.0803 -0.2724 -0.4586
  647MOL0     C87241   4.198  12.986   9.636  0.8575 -0.5676  0.0649
  647MOL0     C87242   4.297  13.077   9.633 -0.8104  0.3405 -0.8135
  647MOL0     C87243   4.428  13.036   9.640  0.1491  0.0958  0.1716
  647MOL0     C87244   4.470  12.895   9.644 -0.4973 -0.4570 -0.2299
  647MOL0     O87245   4.600  12.843   9.643  0.3208 -0.0085 -0.1590
  647MOL0     C87246   4.711  12.926   9.604  0.1752 -0.1126 -0.9941
  647MOL0     C87247   4.809  12.841   9.534 -0.2809 -1.1787  0.3356
  647MOL0     C87248   4.750  12.797   9.398  0.4193 -0.2202  0.7049
  647MOL0     C87249   4.850  12.733   9.311 -0.3136  0.9773 -0.4726
  647MOL0     C87250   4.780  12.656   9.193  0.0908 -0.2225 -0.3310
  647MOL0     C87251   4.900  12.592   9.121  0.2727  0.6481  0.4527
  647MOL0     C87252   4.830  12.541   8.982 -0.4824  0.5120  0.1865
  647MOL0     C87253   4.899  12.441   8.910 -0.3916 -0.6015  0.7621
  647MOL0    Cl87254   4.907  12.278   8.982 -0.0806  0.0986  0.1655
  647MOL0     C87255   4.361  12.817   9.647  0.5562  0.0209  0.0005
  647MOL0     C87256   4.231  12.855   9.645  0.1798  0.3280  0.6762
  647MOL0     O87257   3.989  12.859   9.492 -0.3196  0.5917  0.3750
  647MOL0     C87258   3.718  12.973   9.513 -0.3894 -0.3819  0.0401
  647MOL0     C87259   3.596  13.033   9.537 -0.5893 -0.4505 -0.7196
  647MOL0     N87260   2.848  13.077   9.753 -1.6181  0.5770 -0.4549
  647MOL0     N87261   2.739  13.021   9.794  0.4924 -1.2586 -0.1609
  647MOL0     C87262   2.877  11.822   9.987  0.5560 -0.7658  0.3216
  647MOL0     C87263   2.896  11.697  10.037  0.2408 -0.2949 -0.1169
  647MOL0     C87264   2.870  11.296  10.217  0.8450 -0.5833 -0.5267
  647MOL0     C87265   2.773  11.220  10.141  0.7513 -0.2008 -0.4965
  647MOL0     C87266   2.760  11.075  10.161  0.6406 -0.5665 -0.1964
  647MOL0     C87267   2.848  11.014  10.242  0.1130 -1.3662 -0.5020
  647MOL0     O87268   2.838  10.885  10.271 -0.0474  0.0297  0.3515
  647MOL0     C87269   2.715  10.808  10.240 -0.7190 -0.2611  0.0469
  647MOL0     C87270   2.720  10.700  10.338 -0.6744  0.2050  0.2475
  647MOL0     C87271   2.594  10.616  10.341 -0.1157  0.5352  0.0943
  647MOL0     C87272   2.575  10.522  10.218 -0.4164  0.3840 -0.0791
  647MOL0     C87273   2.435  10.473  10.198  0.1623 -0.2245  0.4223
  647MOL0     C87274   2.324  10.440  10.173 -0.2333  0.9119 -0.2058
  647MOL0     C87275   2.935  11.087  10.322 -0.2184  0.2352 -0.4274
  647MOL0     C87276   2.954  11.223  10.307  0.4055 -0.9205  1.6527
  647MOL0     C87277   3.062  11.288  10.389 -0.1748  0.4498 -0.1775
  647MOL0     H87278   2.578  11.598  10.067  0.7481 -1.6733 -2.3696
  647MOL0     H87279   2.540  11.818   9.952 -0.1229 -0.4791  2.3299
  647MOL0     H87280   2.577  12.017   9.810 -3.4401  0.8948  2.5369
  647MOL0     H87281   2.577  12.048   9.986  0.5702  0.1982 -0.3971
  647MOL0     H87282   2.717  12.222   9.804  0.8651  0.6944 -0.0152
  647MOL0     H87283   2.713  12.242   9.977  0.0088  0.4276  0.6457
  647MOL0     H87284   2.444  12.255   9.946 -1.5557 -0.5340 -2.2078
  647MOL0     H87285   2.478  12.259   9.777 -1.8337 -1.5339  0.9465
  647MOL0     H87286   2.636  12.435   9.813  0.0176 -0.6727  0.9149
  647MOL0     H87287   2.468  12.500   9.866 -1.3989 -1.0019  1.8574
  647MOL0     H87288   2.548  12.421  10.098  1.6093 -2.9947 -1.1362
  647MOL0     H87289   2.717  12.436  10.040  0.0019 -1.2320  1.2323
  647MOL0     H87290   2.504  12.663  10.038  0.8474  4.0403 -0.7557
  647MOL0     H87291   2.630  12.644  10.152  1.0165 -0.9921 -0.1689
  647MOL0     H87292   2.750  12.673   9.881  3.1413  2.3217 -1.1183
  647MOL0     H87293   2.789  12.705  10.053 -1.0063  1.3683  0.7455
  647MOL0     H87294   2.583  12.844   9.886  1.3223  0.0073 -0.8807
  647MOL0     H87295   2.635  12.902  10.044 -1.6403  0.3668 -0.6731
  647MOL0     H87296   2.956  12.848   9.955 -3.3202  0.5541  3.0048
  647MOL0     H87297   3.170  13.026   9.858 -1.2051  1.0025  1.3312
  647MOL0     H87298   3.125  12.973   9.689 -0.6383 -2.1221  2.1423
  647MOL0     H87299   3.057  13.190   9.625  1.8528  0.4344 -0.2308
  647MOL0     H87300   3.052  13.236   9.795  0.8591  1.3018 -0.6074
  647MOL0     H87301   3.282  13.239   9.814  0.1885  2.8396  0.1651
  647MOL0     H87302   3.233  13.341   9.662 -3.3401 -0.1253 -0.7268
  647MOL0     H87303   3.326  13.174   9.527 -1.0241 -1.2774  0.7423
  647MOL0     H87304   3.324  13.053   9.656 -0.0534  1.1968  2.5704
  647MOL0     H87305   3.686  13.282   9.741  0.1257  1.1864 -0.3386
  647MOL0     H87306   3.907  13.185   9.685 -1.7614  1.6097  0.3331
  647MOL0     H87307   4.258  13.178   9.631 -0.6808  0.3742 -2.1314
  647MOL0     H87308   4.503  13.114   9.650 -2.8520  3.3900 -1.1687
  647MOL0     H87309   4.684  13.011   9.541 -1.5615  2.0002  2.2973
  647MOL0     H87310   4.764  12.960   9.694 -1.7208 -1.0621  0.5776
  647MOL0     H87311   4.894  12.907   9.515 -2.8162  2.8612  1.8162
  647MOL0     H87312   4.837  12.758   9.600 -1.0331 -1.1097  0.7527
  647MOL0     H87313   4.675  12.721   9.423 -0.4418  0.3363 -0.1414
  647MOL0     H87314   4.710  12.881   9.342  1.3743 -2.5694 -3.9740
  647MOL0     H87315   4.920  12.664   9.360 -0.7351  0.4515 -0.6071
  647MOL0     H87316   4.912  12.812   9.267 -0.3813  1.8272  0.8732
  647MOL0     H87317   4.722  12.719   9.126  2.0817 -0.4387 -2.3727
  647MOL0     H87318   4.718  12.576   9.235 -1.3931  0.1215 -1.7789
  647MOL0     H87319   4.974  12.672   9.107 -0.9659  2.1124  1.8765
  647MOL0     H87320   4.947  12.519   9.188 -1.3141  0.0704  1.0008
  647MOL0     H87321   4.833  12.629   8.917  0.4248 -0.1348 -0.6816
  647MOL0     H87322   4.725  12.516   9.000 -0.6819  0.2104 -1.2986
  647MOL0     H87323   4.849  12.418   8.816 -1.8439  0.4137  1.2391
  647MOL0     H87324   4.998  12.476   8.879 -1.9244 -0.2048 -4.8290
  647MOL0     H87325   4.369  12.709   9.654 -1.3413 -0.0375  2.9152
  647MOL0     H87326   4.154  12.779   9.655 -0.0802  0.2817 -1.2771
  647MOL0     H87327   3.714  12.889   9.444  0.1640 -0.0504 -0.4016
  647MOL0     H87328   3.506  12.994   9.491 -1.1527 -0.7879  0.6082
  647MOL0     H87329   2.961  11.887   9.965  0.9250 -1.1237  0.6607
  647MOL0     H87330   2.996  11.659  10.055 -0.0714 -0.3202  1.8027
  647MOL0     H87331   2.697  11.265  10.079  0.5698  0.3184  0.0903
  647MOL0     H87332   2.676  11.026  10.112  0.2913 -1.2377  1.0422
  647MOL0     H87333   2.719  10.773  10.136  0.6303 -1.8583  0.5873
  647MOL0     H87334   2.628  10.872  10.257  0.6983  1.6190  0.4059
  647MOL0     H87335   2.730  10.738  10.440  1.1659  0.9578 -0.1806
  647MOL0     H87336   2.807  10.638  10.315 -0.7035 -1.2164  3.4377
  647MOL0     H87337   2.519  10.696  10.341  2.0644  2.7091 -0.0978
  647MOL0     H87338   2.590  10.559  10.434  2.3405 -1.5487 -0.9672
  647MOL0     H87339   2.613  10.572  10.129  0.1726  0.2729  0.1047
  647MOL0     H87340   2.637  10.434  10.236 -2.0259 -0.0559  5.0172
  647MOL0     H87341   2.227  10.398  10.151  0.6451 -1.4075  0.0743
  647MOL0     H87342   2.991  11.026  10.392  2.1799 -3.4372 -5.0054
  647MOL0     H87343   3.117  11.212  10.446 -0.4356  0.1555 -0.3152
  647MOL0     H87344   3.136  11.340  10.328  0.0342 -0.4908 -0.7452
  647MOL0     H87345   3.021  11.369  10.450  0.1206  1.1117 -0.8432
  648MOL0     O87346   7.375  11.253   3.740 -1.6931  0.0974  0.0714
  648MOL0     C87347   7.408  11.366   3.709  0.9833  0.3676  0.6226
  648MOL0     O87348   7.489  11.385   3.603 -0.1231 -0.4490  0.1976
  648MOL0     C87349   7.448  11.330   3.486 -0.5514 -0.0547  0.5448
  648MOL0     C87350   7.546  11.266   3.395 -1.6764  0.3056 -0.0965
  648MOL0     C87351   7.518  11.219   3.265 -0.3198 -0.1694 -0.0638
  648MOL0     C87352   7.387  11.231   3.218  0.1405  0.9104 -0.3544
  648MOL0     O87353   7.344  11.188   3.094 -0.5443  0.4947  0.0985
  648MOL0     C87354   7.441  11.175   2.982  0.1753 -0.0797  0.0224
  648MOL0     C87355   7.361  11.136   2.856 -0.0124 -1.0001  0.4144
  648MOL0     C87356   7.460  11.125   2.737  0.6242 -0.3574  0.1203
  648MOL0     C87357   7.376  11.087   2.609  0.2799  0.8466 -0.2163
  648MOL0     C87358   7.470  11.059   2.487 -0.1699 -0.4193  0.8770
  648MOL0     C87359   7.380  10.995   2.371  0.4090 -0.8429 -0.8260
  648MOL0     C87360   7.468  10.981   2.247  0.1849 -0.1079 -0.8066
  648MOL0     C87361   7.391  10.949   2.119 -0.0565 -0.3730 -0.0668
  648MOL0     N87362   7.323  10.818   2.118  0.3769 -0.0872  0.7103
  648MOL0     C87363   7.217  10.772   2.193 -0.2099  0.2178  0.8198
  648MOL0     C87364   7.203  10.636   2.163 -0.1689 -0.1986 -0.1018
  648MOL0     C87365   7.096  10.542   2.202 -0.7319 -0.0886 -0.8078
  648MOL0     C87366   7.050  10.567   2.346 -0.8416  0.4616  0.2993
  648MOL0     C87367   6.945  10.455   2.398 -1.2380  0.0919 -0.3328
  648MOL0     C87368   6.800  10.467   2.351 -0.4759 -1.3030  0.4033
  648MOL0     O87369   6.742  10.600   2.390 -0.7240 -0.3422 -0.3071
  648MOL0     C87370   6.684  10.615   2.513 -0.5136  0.2899 -0.0847
  648MOL0     C87371   6.688  10.515   2.616 -0.0327 -1.0925  0.8927
  648MOL0     C87372   6.600  10.523   2.730 -0.0532 -0.1409 -0.0006
  648MOL0     C87373   6.511  10.625   2.740 -0.5101 -0.2489 -1.0501
  648MOL0     C87374   6.426  10.639   2.862 -0.1744  0.1945  0.1456
  648MOL0     O87375   6.456  10.569   2.976 -0.2672  0.2351 -0.9128
  648MOL0     C87376   6.360  10.589   3.081 -0.5848 -0.0355  0.5708
  648MOL0     C87377   6.392  10.697   3.169  0.3282  0.1500  0.6211
  648MOL0     C87378   6.300  10.744   3.265 -0.2578  0.1431  0.1308
  648MOL0     C87379   6.195  10.656   3.299  0.5364  0.2774  0.6285
  648MOL0     O87380   6.098  10.692   3.396  0.1143  0.0799  0.0992
  648MOL0     C87381   6.044  10.591   3.482  0.2243  1.0403  0.0114
  648MOL0     C87382   5.963  10.671   3.588  0.5400  1.0806 -0.3435
  648MOL0     C87383   5.835  10.599   3.639 -0.8121  0.4113  0.0123
  648MOL0     C87384   5.884  10.486   3.727  0.6553  0.3312 -0.2959
  648MOL0     C87385   5.769  10.417   3.795  0.0071  1.0308  0.0174
  648MOL0     C87386   5.813  10.302   3.883  0.6968 -0.1423  0.3921
  648MOL0     C87387   5.890  10.328   4.016 -0.2216 -0.5658 -0.4308
  648MOL0     C87388   5.821  10.446   4.087 -0.5216 -0.3198  0.3215
  648MOL0    Cl87389   5.650  10.408   4.107  0.2252  0.3905 -0.0404
  648MOL0     C87390   6.166  10.546   3.218  0.4845  0.2851  0.2394
  648MOL0     C87391   6.254  10.512   3.119 -0.7691 -0.4920  1.4891
  648MOL0     O87392   6.331  10.713   2.856  0.1604 -0.6865 -0.2578
  648MOL0     C87393   6.504  10.722   2.638  0.6836 -0.3459 -0.5385
  648MOL0     C87394   6.582  10.711   2.525 -1.1962 -0.6350  0.2416
  648MOL0     N87395   7.304  10.606   2.076  0.1560 -0.6460 -0.6701
  648MOL0     N87396   7.377  10.706   2.062 -0.0997 -0.5820  0.7736
  648MOL0     C87397   7.288  11.285   3.308  0.3813  0.8589  0.4714
  648MOL0     C87398   7.317  11.331   3.436  0.0154  0.1570  0.2551
  648MOL0     C87399   7.354  11.476   3.788 -0.2007  0.3738  0.0141
  648MOL0     C87400   7.413  11.604   3.774  0.1643  1.0255 -0.1184
  648MOL0     C87401   7.369  11.715   3.849  0.5628 -0.2203 -0.0572
  648MOL0     C87402   7.253  11.700   3.928 -0.1479  0.0945  0.7649
  648MOL0     O87403   7.192  11.797   4.006 -0.2299 -0.3776  0.2182
  648MOL0     C87404   7.223  11.932   3.982 -0.2581 -0.2886 -0.2258
  648MOL0     C87405   7.107  12.016   4.031 -0.0430 -0.4418 -1.1105
  648MOL0     C87406   7.086  12.002   4.182  0.2371 -0.2031 -0.5330
  648MOL0     C87407   7.196  12.064   4.268 -0.9426 -0.7920 -0.1164
  648MOL0     C87408   7.141  12.105   4.389  0.3511 -0.2152 -0.5657
  648MOL0     C87409   7.079  12.125   4.493  0.2619  0.2749  0.0003
  648MOL0     C87410   7.204  11.569   3.939 -0.6762 -1.3330 -0.6439
  648MOL0     C87411   7.244  11.458   3.871 -0.5097  1.0216  1.0804
  648MOL0     C87412   7.189  11.327   3.907 -0.4611 -0.1713  0.5751
  648MOL0     H87413   7.650  11.274   3.428 -1.9856 -0.4827  1.1511
  648MOL0     H87414   7.595  11.195   3.191 -1.2469 -2.8567 -0.2534
  648MOL0     H87415   7.506  11.261   2.965  0.3663  0.0783  1.3909
  648MOL0     H87416   7.515  11.099   3.006  3.1768  1.7536 -2.6869
  648MOL0     H87417   7.292  11.218   2.835  0.3805 -0.8316 -0.2228
  648MOL0     H87418   7.307  11.040   2.857 -4.0869  0.9302 -2.9895
  648MOL0     H87419   7.542  11.054   2.752  1.6466 -0.0944 -3.3397
  648MOL0     H87420   7.507  11.223   2.723  0.5106 -0.2570  0.4300
  648MOL0     H87421   7.345  10.984   2.627  0.4654  1.1731  2.3418
  648MOL0     H87422   7.296  11.155   2.577  0.8759 -0.7491 -6.3990
  648MOL0     H87423   7.504  11.158   2.456  1.1850 -1.2803 -0.5071
  648MOL0     H87424   7.555  10.991   2.493  0.2060  0.0101  0.3936
  648MOL0     H87425   7.335  10.901   2.405 -1.1706  0.0411 -0.4011
  648MOL0     H87426   7.302  11.069   2.352 -2.8448 -3.1468  2.2957
  648MOL0     H87427   7.545  10.905   2.265 -0.6166 -1.2033 -1.8180
  648MOL0     H87428   7.514  11.078   2.228 -2.4083  1.2736 -0.3542
  648MOL0     H87429   7.318  11.026   2.093  1.0181  0.5751 -0.3513
  648MOL0     H87430   7.462  10.943   2.036 -0.3647  3.1169 -0.7321
  648MOL0     H87431   7.155  10.832   2.260 -0.5484  2.4885 -1.3685
  648MOL0     H87432   7.012  10.560   2.135  1.4640  0.1591 -3.7137
  648MOL0     H87433   7.142  10.442   2.206  3.5036  1.6674 -0.5514
  648MOL0     H87434   7.142  10.556   2.405 -1.7270 -3.1868  1.2885
  648MOL0     H87435   6.997  10.662   2.349 -1.9838  0.1085 -3.4588
  648MOL0     H87436   6.939  10.451   2.507  0.2172 -1.0502 -0.2606
  648MOL0     H87437   6.975  10.357   2.359  0.9180 -0.3703  2.2085
  648MOL0     H87438   6.742  10.392   2.406 -2.3921  0.3465  0.7598
  648MOL0     H87439   6.785  10.446   2.245 -4.9473  0.0032  0.5754
  648MOL0     H87440   6.769  10.443   2.622  2.4534  1.5799  1.5854
  648MOL0     H87441   6.606  10.445   2.805 -2.4415 -0.6430 -0.2454
  648MOL0     H87442   6.478  10.763   3.161  0.9994 -0.6506  1.1443
  648MOL0     H87443   6.328  10.837   3.313  1.2580  1.4667 -3.0729
  648MOL0     H87444   5.982  10.518   3.431  1.1660 -1.1485  1.7878
  648MOL0     H87445   6.114  10.524   3.533  0.4229  2.0510  1.1184
  648MOL0     H87446   6.037  10.705   3.661  1.4831  2.0081 -1.6847
  648MOL0     H87447   5.930  10.761   3.536  0.1610  1.3969  0.4242
  648MOL0     H87448   5.782  10.675   3.698 -0.8011  0.2249  0.2651
  648MOL0     H87449   5.760  10.564   3.566 -1.1073  1.3816 -0.1601
  648MOL0     H87450   5.965  10.523   3.792  0.1371 -0.8869  1.1133
  648MOL0     H87451   5.943  10.413   3.671  3.2523 -0.5800  3.2178
  648MOL0     H87452   5.692  10.375   3.729  0.4810 -2.8012  1.6146
  648MOL0     H87453   5.710  10.491   3.850  0.1868  1.8497 -0.8837
  648MOL0     H87454   5.730  10.232   3.890 -0.1010  0.6202 -0.9235
  648MOL0     H87455   5.877  10.241   3.819 -1.9250 -1.5742 -1.0379
  648MOL0     H87456   5.993  10.356   3.993 -0.6862 -0.0265 -2.0212
  648MOL0     H87457   5.884  10.240   4.081 -2.0082  0.1605  0.4454
  648MOL0     H87458   5.872  10.448   4.183  0.2718  0.6606 -0.1027
  648MOL0     H87459   5.839  10.537   4.030 -5.3692 -0.8726 -2.7106
  648MOL0     H87460   6.071  10.493   3.218 -0.4709  1.8852 -0.8506
  648MOL0     H87461   6.250  10.423   3.056 -0.0258  1.6671 -1.8789
  648MOL0     H87462   6.438  10.809   2.638  1.1537  0.0586 -2.4638
  648MOL0     H87463   6.574  10.780   2.442 -0.1480  0.2800  0.8684
  648MOL0     H87464   7.183  11.297   3.282  0.7927  1.3162 -1.0722
  648MOL0     H87465   7.235  11.375   3.492  2.4943 -0.1442  4.5812
  648MOL0     H87466   7.503  11.612   3.715  0.6579 -0.9535  0.2889
  648MOL0     H87467   7.420  11.811   3.852 -2.6201  1.6231 -0.6217
  648MOL0     H87468   7.230  11.948   3.874 -1.5963 -0.6126 -0.3795
  648MOL0     H87469   7.316  11.963   4.030 -0.4834 -2.9761  2.2010
  648MOL0     H87470   7.013  12.000   3.978  0.8001 -1.4538 -2.3860
  648MOL0     H87471   7.128  12.117   3.995 -2.9708  0.7975  0.3363
  648MOL0     H87472   7.067  11.897   4.207 -0.4230 -0.2281 -1.1195
  648MOL0     H87473   6.996  12.057   4.213 -0.0910  1.1511 -3.5431
  648MOL0     H87474   7.275  11.991   4.285 -0.9999 -0.3512  2.3250
  648MOL0     H87475   7.236  12.151   4.214 -1.4816  1.2265  2.5250
  648MOL0     H87476   7.002  12.136   4.567  0.3745  0.9651  0.0273
  648MOL0     H87477   7.128  11.564   4.017  1.1091  0.7906  1.3794
  648MOL0     H87478   7.269  11.285   3.968  0.5186 -0.2597 -0.7334
  648MOL0     H87479   7.096  11.341   3.964 -0.7009  2.2725 -0.3089
  648MOL0     H87480   7.167  11.267   3.818  2.9379  0.0482 -0.5201
  649MOL0     O87481   2.030  10.703   0.797 -0.3177  0.3499  0.7332
  649MOL0     C87482   2.052  10.746   0.908 -1.0142  0.2643  0.3904
  649MOL0     O87483   2.173  10.737   0.972  0.1559 -0.0281 -0.0036
  649MOL0     C87484   2.269  10.665   0.911  0.0337  0.0122  0.3256
  649MOL0     C87485   2.280  10.535   0.948 -0.0944  0.2232 -0.4464
  649MOL0     C87486   2.377  10.450   0.895 -0.2016 -0.3134 -0.2046
  649MOL0     C87487   2.478  10.506   0.813  0.3201 -0.2804 -0.8152
  649MOL0     O87488   2.575  10.424   0.761 -0.3520  0.2060 -0.2203
  649MOL0     C87489   2.646  10.463   0.643 -0.4202 -0.3810  0.6254
  649MOL0     C87490   2.719  10.347   0.579 -0.0175  0.1889  0.7082
  649MOL0     C87491   2.599  10.258   0.521 -0.5792  0.6580  0.2827
  649MOL0     C87492   2.646  10.126   0.451 -0.3359  0.2991 -1.0885
  649MOL0     C87493   2.528  10.041   0.410 -0.2570 -0.0860 -0.1171
  649MOL0     C87494   2.589   9.903   0.383 -0.4514 -0.4125  0.2655
  649MOL0     C87495   2.503   9.811   0.288 -0.0081  0.2214 -0.9430
  649MOL0     C87496   2.485   9.862   0.145  0.5095  0.1897 -0.4607
  649MOL0     N87497   2.601   9.888   0.068 -0.4342  1.2212 -0.5650
  649MOL0     C87498   2.677   9.798  -0.007 -0.4837  0.4489 -0.4782
  649MOL0     C87499   2.751   9.878  -0.083  0.3702  0.2972 -0.8440
  649MOL0     C87500   2.849   9.830  -0.178  0.2861 -0.4602 -0.7204
  649MOL0     C87501   2.809   9.875  -0.324 -0.0938  0.7069 -0.0112
  649MOL0     C87502   2.864   9.775  -0.423  0.0805  0.5275 -0.0533
  649MOL0     C87503   2.990   9.814  -0.508  0.0003 -0.6774  0.5876
  649MOL0     O87504   3.093   9.841  -0.416  0.2787  0.6029 -0.0428
  649MOL0     C87505   3.220   9.855  -0.469 -0.2347  0.1340 -0.3271
  649MOL0     C87506   3.269   9.811  -0.594  0.3437  0.5013 -0.4819
  649MOL0     C87507   3.397   9.842  -0.639 -1.1982  0.5716 -1.0379
  649MOL0     C87508   3.494   9.902  -0.543  0.0105  0.0283 -0.1254
  649MOL0     C87509   3.629   9.935  -0.580  0.1518 -0.2116 -0.0197
  649MOL0     O87510   3.658   9.962  -0.721  0.7204  0.6261  0.1552
  649MOL0     C87511   3.782  10.017  -0.750  0.4412  1.0214  0.6369
  649MOL0     C87512   3.791  10.146  -0.793  0.0730  0.8997 -0.8247
  649MOL0     C87513   3.915  10.205  -0.813 -0.5578  0.2440  0.1336
  649MOL0     C87514   4.039  10.146  -0.790  0.3587 -0.0120  0.2067
  649MOL0     O87515   4.146  10.221  -0.837  0.0562  0.2362 -0.0806
  649MOL0     C87516   4.248  10.144  -0.909 -0.8192  0.0937  0.5033
  649MOL0     C87517   4.332  10.243  -0.985 -0.1509 -0.1175  0.6692
  649MOL0     C87518   4.462  10.181  -1.049 -0.5207  0.0613  0.2245
  649MOL0     C87519   4.427  10.045  -1.105  0.8116 -0.2351 -0.2670
  649MOL0     C87520   4.544   9.991  -1.187  1.2890  0.2535  0.7581
  649MOL0     C87521   4.500   9.908  -1.304 -0.8826 -0.1579 -0.1398
  649MOL0     C87522   4.463   9.993  -1.430  0.1166 -0.5849 -0.8614
  649MOL0     C87523   4.410   9.886  -1.531 -0.3901  0.5680  0.0164
  649MOL0    Cl87524   4.376   9.981  -1.685 -0.3311 -0.5057  0.0266
  649MOL0     C87525   4.033  10.011  -0.752  0.1407  0.0950  0.8223
  649MOL0     C87526   3.911   9.951  -0.731  0.6057  0.9473 -0.2984
  649MOL0     O87527   3.706   9.955  -0.482  0.2388 -0.1858  0.9875
  649MOL0     C87528   3.446   9.930  -0.412  0.6383  0.4488 -0.5886
  649MOL0     C87529   3.308   9.909  -0.371 -0.1668 -0.5952  0.6565
  649MOL0     N87530   2.738  10.007  -0.032  0.7971  0.2526  0.2516
  649MOL0     N87531   2.644  10.016   0.060 -0.2372 -0.6461  0.1097
  649MOL0     C87532   2.464  10.640   0.777 -0.3273  1.3872  0.6177
  649MOL0     C87533   2.357  10.725   0.818  0.2451 -0.2568  0.1206
  649MOL0     C87534   1.939  10.807   0.989  0.0111 -1.3809  0.1174
  649MOL0     C87535   1.944  10.794   1.131 -0.3806  0.1541 -0.2666
  649MOL0     C87536   1.846  10.862   1.202  1.0079 -0.8431  0.4137
  649MOL0     C87537   1.738  10.933   1.151  0.7036  0.5102  0.4104
  649MOL0     O87538   1.640  11.004   1.222  0.7580 -0.3940  0.0425
  649MOL0     C87539   1.663  11.035   1.359 -0.3427 -0.0509  0.1273
  649MOL0     C87540   1.566  11.149   1.408  1.4154  0.9800 -0.8365
  649MOL0     C87541   1.416  11.144   1.384  0.2420  0.9202  0.5313
  649MOL0     C87542   1.348  11.027   1.454  0.6564  0.6179 -0.3856
  649MOL0     C87543   1.203  11.025   1.415 -0.1686  0.0614  0.7740
  649MOL0     C87544   1.091  11.032   1.373  0.3556  0.5935 -0.3434
  649MOL0     C87545   1.729  10.934   1.015 -0.4616  1.1550  0.2560
  649MOL0     C87546   1.830  10.877   0.932 -0.0735 -0.3639 -0.5262
  649MOL0     C87547   1.818  10.903   0.786 -0.1854 -0.4325  1.0095
  649MOL0     H87548   2.200  10.501   1.013  0.7430  0.2127  0.6079
  649MOL0     H87549   2.378  10.345   0.921 -0.1699 -0.3469 -0.3387
  649MOL0     H87550   2.594  10.514   0.562  2.3796  0.2114 -0.9231
  649MOL0     H87551   2.728  10.531   0.670  1.6338 -1.4479 -2.4203
  649MOL0     H87552   2.780  10.304   0.660  1.3135  0.7451  0.0355
  649MOL0     H87553   2.793  10.380   0.505 -0.7545  1.0860  0.3537
  649MOL0     H87554   2.544  10.317   0.448  0.3597 -0.3697 -1.3291
  649MOL0     H87555   2.535  10.236   0.607 -0.6930 -2.2666 -0.4390
  649MOL0     H87556   2.720  10.149   0.374  2.2943  1.8291  1.6612
  649MOL0     H87557   2.685  10.055   0.525 -2.7023  1.2211  1.2044
  649MOL0     H87558   2.457  10.025   0.491 -0.2736  1.7521  0.2730
  649MOL0     H87559   2.480  10.075   0.317 -1.0099 -3.4247 -1.1039
  649MOL0     H87560   2.689   9.911   0.341 -0.2536 -1.6896  0.4539
  649MOL0     H87561   2.608   9.850   0.476  4.6135  1.7840  0.7814
  649MOL0     H87562   2.402   9.793   0.326  1.1777 -4.0409  0.7446
  649MOL0     H87563   2.563   9.719   0.293  2.6885  1.8538 -1.0146
  649MOL0     H87564   2.425   9.789   0.090  2.7016  0.4573 -3.5009
  649MOL0     H87565   2.420   9.949   0.158  2.8937  2.2476 -1.3209
  649MOL0     H87566   2.641   9.696  -0.022 -3.6998  1.4607 -0.5187
  649MOL0     H87567   2.940   9.879  -0.144 -0.8746  1.2297  0.1211
  649MOL0     H87568   2.849   9.720  -0.175  0.9337 -0.4748 -1.0305
  649MOL0     H87569   2.700   9.873  -0.337 -0.3622  1.0779  1.8459
  649MOL0     H87570   2.839   9.977  -0.346 -0.0395  0.6975  0.0209
  649MOL0     H87571   2.779   9.743  -0.483 -1.5266 -1.0089  2.8357
  649MOL0     H87572   2.905   9.687  -0.371  3.1923  1.0721 -1.3260
  649MOL0     H87573   2.962   9.899  -0.570 -1.2356 -1.0610  0.5810
  649MOL0     H87574   3.012   9.737  -0.583 -1.8557 -0.7115  0.0338
  649MOL0     H87575   3.195   9.772  -0.663 -1.2981 -1.2925  2.1117
  649MOL0     H87576   3.441   9.793  -0.726  2.5207  3.5085 -1.0751
  649MOL0     H87577   3.709  10.211  -0.819 -1.5557 -0.5427  0.5080
  649MOL0     H87578   3.905  10.303  -0.860  0.3184 -0.5947 -1.9305
  649MOL0     H87579   4.309  10.101  -0.828 -2.0720 -4.8222 -0.8194
  649MOL0     H87580   4.210  10.068  -0.977 -0.5211 -0.0831  0.5298
  649MOL0     H87581   4.278  10.296  -1.064  4.6868  0.6599 -2.5497
  649MOL0     H87582   4.360  10.324  -0.916  0.1054  2.5370 -2.3057
  649MOL0     H87583   4.503  10.245  -1.128  3.8161 -0.4039  1.8545
  649MOL0     H87584   4.532  10.179  -0.965 -0.7204  1.3887  0.4530
  649MOL0     H87585   4.343  10.062  -1.174 -0.0459  1.5827  1.1612
  649MOL0     H87586   4.397   9.979  -1.023  0.8098 -1.6866 -1.3876
  649MOL0     H87587   4.609   9.935  -1.120  1.3010 -1.3627 -0.5204
  649MOL0     H87588   4.602  10.076  -1.225 -0.0640 -0.5235 -3.6082
  649MOL0     H87589   4.584   9.841  -1.320 -0.2817  0.1742  1.3646
  649MOL0     H87590   4.410   9.852  -1.275 -2.9222  2.3746 -1.1472
  649MOL0     H87591   4.546  10.054  -1.468  0.4748 -1.0025 -0.7559
  649MOL0     H87592   4.384  10.063  -1.401  0.4042 -1.0408  1.1885
  649MOL0     H87593   4.480   9.805  -1.551 -1.6612 -0.5802  0.0639
  649MOL0     H87594   4.325   9.833  -1.488  1.7301 -4.7459 -1.5952
  649MOL0     H87595   4.130   9.968  -0.727 -0.3895 -1.4027  0.4162
  649MOL0     H87596   3.911   9.843  -0.724  0.5864  0.7784 -2.3163
  649MOL0     H87597   3.506   9.965  -0.328  1.6801  0.8628 -1.4852
  649MOL0     H87598   3.254   9.918  -0.277 -3.3604  1.8623 -1.2352
  649MOL0     H87599   2.537  10.686   0.710  1.6155 -1.1153  0.8403
  649MOL0     H87600   2.363  10.823   0.772  0.2588 -0.8595 -1.2453
  649MOL0     H87601   2.021  10.746   1.191 -1.0320 -0.7205 -0.1129
  649MOL0     H87602   1.831  10.845   1.308 -4.7615 -1.2903 -0.1353
  649MOL0     H87603   1.767  11.066   1.375 -0.3195  0.2529 -0.5999
  649MOL0     H87604   1.642  10.945   1.418 -1.4664  1.0503  1.4856
  649MOL0     H87605   1.596  11.241   1.356 -0.5524  2.1173 -0.0395
  649MOL0     H87606   1.584  11.160   1.515  2.0081 -2.8817 -0.4163
  649MOL0     H87607   1.392  11.135   1.278 -0.8046  1.5353  0.6994
  649MOL0     H87608   1.366  11.238   1.406 -3.0394 -0.5938  0.1858
  649MOL0     H87609   1.399  10.932   1.440 -0.8648 -0.1540 -0.9589
  649MOL0     H87610   1.343  11.054   1.560 -0.0881  1.2059 -0.5600
  649MOL0     H87611   0.996  11.025   1.325  2.1515 -1.9189 -4.1369
  649MOL0     H87612   1.652  10.995   0.968 -1.6782  0.8078  1.7069
  649MOL0     H87613   1.814  10.809   0.731 -1.4552  0.8328 -1.1880
  649MOL0     H87614   1.734  10.964   0.751  1.7067  1.7975  0.0329
  649MOL0     H87615   1.906  10.952   0.744  0.0707 -2.0460 -0.4617
  650MOL0     O87616   5.876  10.880   7.918 -0.1779  0.7355 -0.2101
  650MOL0     C87617   5.931  10.779   7.953 -1.0004  0.0036  0.1641
  650MOL0     O87618   5.854  10.668   7.995 -0.3340  0.4412 -0.5607
  650MOL0     C87619   5.717  10.679   7.994  0.6556 -0.6594 -0.1265
  650MOL0     C87620   5.643  10.740   8.098 -0.4148 -0.0218  0.1488
  650MOL0     C87621   5.499  10.749   8.095 -1.0453  0.1656  0.4277
  650MOL0     C87622   5.435  10.686   7.983  0.8729 -0.5188 -0.5565
  650MOL0     O87623   5.301  10.684   7.992 -0.3490  0.4052  0.9149
  650MOL0     C87624   5.236  10.577   7.938  0.0470  0.3359 -0.3576
  650MOL0     C87625   5.093  10.580   7.982 -0.8270  0.1103  0.2344
  650MOL0     C87626   5.073  10.600   8.131  1.0874  0.2402  1.2413
  650MOL0     C87627   4.922  10.652   8.162 -0.2142  0.7801  0.2774
  650MOL0     C87628   4.813  10.543   8.156  0.2753  0.2005  0.5082
  650MOL0     C87629   4.810  10.453   8.284  0.5631  0.9549 -0.9484
  650MOL0     C87630   4.710  10.340   8.259  0.0102 -0.9460 -0.2944
  650MOL0     C87631   4.568  10.394   8.263  0.5436 -0.7310  1.2295
  650MOL0     N87632   4.535  10.462   8.392  0.1687 -0.5289 -0.0940
  650MOL0     C87633   4.534  10.595   8.418  0.0065 -0.3876 -0.0955
  650MOL0     C87634   4.491  10.611   8.550  0.8807  0.7840 -1.0797
  650MOL0     C87635   4.477  10.732   8.625  0.2126 -1.2642  0.1875
  650MOL0     C87636   4.366  10.723   8.737 -0.0781 -0.3677 -0.4738
  650MOL0     C87637   4.351  10.862   8.814  0.1485  1.0218  0.3976
  650MOL0     C87638   4.484  10.918   8.866  0.4755  0.6054 -0.7923
  650MOL0     O87639   4.437  10.970   8.989 -0.2992  0.4235 -0.8031
  650MOL0     C87640   4.532  11.018   9.072 -0.4780  0.2044  0.1208
  650MOL0     C87641   4.520  11.148   9.116 -0.9568  1.0937 -0.4677
  650MOL0     C87642   4.608  11.194   9.220  1.1590 -0.1035 -0.3553
  650MOL0     C87643   4.703  11.118   9.269 -0.4149  0.3789 -0.2720
  650MOL0     C87644   4.799  11.171   9.373  0.6019 -0.0444 -0.2049
  650MOL0     O87645   4.908  11.108   9.389 -0.0243 -0.3075  0.4734
  650MOL0     C87646   5.032  11.162   9.423  0.2809 -0.1641 -0.8369
  650MOL0     C87647   5.079  11.282   9.368 -0.3549  0.4823  0.7180
  650MOL0     C87648   5.203  11.332   9.404 -0.1030 -0.3085  0.3235
  650MOL0     C87649   5.277  11.279   9.506  0.1135  0.5248 -0.2186
  650MOL0     O87650   5.398  11.328   9.554 -0.4643 -0.2107 -0.4097
  650MOL0     C87651   5.443  11.452   9.500 -0.4845 -0.0977  0.4955
  650MOL0     C87652   5.556  11.504   9.591  0.2434 -0.2882 -0.4041
  650MOL0     C87653   5.643  11.627   9.538 -0.2332 -0.3132  1.1863
  650MOL0     C87654   5.707  11.597   9.400 -0.3757 -0.5819  0.9311
  650MOL0     C87655   5.781  11.727   9.344 -0.0424 -0.1022 -0.6068
  650MOL0     C87656   5.822  11.697   9.197  0.2286 -0.0792  0.3921
  650MOL0     C87657   5.898  11.824   9.149  0.5589  0.3022  1.1459
  650MOL0     C87658   5.996  11.785   9.050  0.4395 -0.1335 -0.2594
  650MOL0    Cl87659   5.914  11.757   8.889  0.4108  0.3029 -0.3482
  650MOL0     C87660   5.233  11.155   9.567 -0.2860 -0.1237  0.0446
  650MOL0     C87661   5.105  11.097   9.517  0.2528 -0.3987 -0.8280
  650MOL0     O87662   4.763  11.277   9.422 -0.2321  0.0632 -0.0051
  650MOL0     C87663   4.723  10.983   9.224 -0.3836  1.2498 -0.0212
  650MOL0     C87664   4.627  10.936   9.127 -0.1570 -1.8326 -0.0081
  650MOL0     N87665   4.482  10.479   8.600  0.1943  0.4385  0.4693
  650MOL0     N87666   4.500  10.390   8.505 -0.6025  1.0081  1.0643
  650MOL0     C87667   5.506  10.630   7.890 -0.2971 -0.3947  0.0464
  650MOL0     C87668   5.645  10.609   7.898 -0.5709 -0.5898 -0.1056
  650MOL0     C87669   6.085  10.758   7.952 -1.1561 -1.2080 -0.5408
  650MOL0     C87670   6.141  10.631   7.946  0.1506 -0.2242  1.1606
  650MOL0     C87671   6.286  10.614   7.927  0.8897 -0.3061 -0.6414
  650MOL0     C87672   6.376  10.721   7.929 -0.7336 -0.1835 -0.3759
  650MOL0     O87673   6.514  10.710   7.924  0.2813 -0.8326 -0.7663
  650MOL0     C87674   6.571  10.591   7.871 -0.2208  0.6210  0.0036
  650MOL0     C87675   6.627  10.506   7.979  0.3714  0.0465 -0.8168
  650MOL0     C87676   6.528  10.480   8.090 -0.1270 -0.1820  0.4723
  650MOL0     C87677   6.597  10.390   8.187 -0.9398  0.8962  0.0596
  650MOL0     C87678   6.684  10.454   8.290  0.3571  0.8149  0.0546
  650MOL0     C87679   6.730  10.515   8.382 -0.2321 -0.1357  0.1830
  650MOL0     C87680   6.317  10.846   7.949  0.0418 -0.6358  0.5441
  650MOL0     C87681   6.179  10.867   7.950  0.7018  0.5095  0.6353
  650MOL0     C87682   6.135  11.010   7.958  1.0074  0.3397 -0.2768
  650MOL0     H87683   5.700  10.783   8.180 -2.0563 -1.8634  2.3565
  650MOL0     H87684   5.440  10.785   8.179  0.2323  1.1512  0.9347
  650MOL0     H87685   5.231  10.583   7.829 -0.1711 -0.0393 -0.3674
  650MOL0     H87686   5.283  10.484   7.969  0.4635  0.5054 -0.4730
  650MOL0     H87687   5.043  10.488   7.949  1.3958 -0.5778 -1.4958
  650MOL0     H87688   5.038  10.655   7.925 -2.7090 -1.8284 -0.6551
  650MOL0     H87689   5.141  10.674   8.176 -1.0163  0.5292  4.2651
  650MOL0     H87690   5.106  10.510   8.185  0.4325  1.1892  3.3405
  650MOL0     H87691   4.926  10.689   8.265  1.5456  0.9892  0.1616
  650MOL0     H87692   4.883  10.724   8.090 -2.7670 -1.2360 -0.4937
  650MOL0     H87693   4.715  10.589   8.165  1.5506  2.8217  2.3376
  650MOL0     H87694   4.817  10.489   8.061 -0.8159  2.0336 -0.6503
  650MOL0     H87695   4.907  10.404   8.301 -0.3151 -1.5210 -2.5843
  650MOL0     H87696   4.785  10.511   8.373  1.0189  0.2234 -0.3270
  650MOL0     H87697   4.709  10.267   8.340 -3.5034  1.3396  2.0152
  650MOL0     H87698   4.727  10.284   8.167  1.0304 -1.8908  0.4371
  650MOL0     H87699   4.549  10.452   8.172  0.1881  1.2662  2.5255
  650MOL0     H87700   4.515  10.299   8.250 -1.6267  0.6727 -0.9873
  650MOL0     H87701   4.570  10.678   8.357  1.6326  1.3856  2.9713
  650MOL0     H87702   4.569  10.769   8.672 -0.6225 -0.4676  1.2438
  650MOL0     H87703   4.444  10.800   8.546 -0.2267 -4.4318 -2.5645
  650MOL0     H87704   4.271  10.698   8.687 -1.3052  3.2530 -0.2251
  650MOL0     H87705   4.389  10.641   8.805 -1.0788  0.7146  1.2441
  650MOL0     H87706   4.276  10.850   8.894  2.4428  1.2562  2.7032
  650MOL0     H87707   4.306  10.929   8.740 -1.3254 -1.9367 -1.6135
  650MOL0     H87708   4.540  10.991   8.808  4.7192 -1.4287  0.3608
  650MOL0     H87709   4.553  10.837   8.888 -2.4166 -1.6996  0.5989
  650MOL0     H87710   4.457  11.227   9.077 -0.6482  0.1455 -3.1377
  650MOL0     H87711   4.593  11.293   9.260 -0.5307 -0.2891 -0.4472
  650MOL0     H87712   5.032  11.330   9.283 -0.5315  0.4252  0.7846
  650MOL0     H87713   5.217  11.425   9.350 -0.1409 -1.5694 -1.9936
  650MOL0     H87714   5.494  11.433   9.405 -0.6524  0.0326  0.3799
  650MOL0     H87715   5.368  11.527   9.476  0.5837  0.2021 -2.2586
  650MOL0     H87716   5.505  11.542   9.680 -0.8306 -5.5858  1.5766
  650MOL0     H87717   5.625  11.426   9.625 -0.2577 -1.0069 -0.9950
  650MOL0     H87718   5.571  11.708   9.525 -0.0975 -0.3974 -0.2690
  650MOL0     H87719   5.717  11.661   9.611  1.5333  1.0971 -1.1253
  650MOL0     H87720   5.628  11.590   9.324  0.8472  1.3626 -0.6024
  650MOL0     H87721   5.769  11.507   9.407 -0.5949 -0.8472 -0.2799
  650MOL0     H87722   5.870  11.747   9.403  0.3179  3.1819 -2.0408
  650MOL0     H87723   5.718  11.817   9.339 -0.0403 -0.1471 -1.9771
  650MOL0     H87724   5.874  11.601   9.205  0.7821  0.1680 -0.1290
  650MOL0     H87725   5.733  11.683   9.136 -0.8334  1.0201  1.6362
  650MOL0     H87726   5.955  11.873   9.228  1.6671 -0.1829  0.6644
  650MOL0     H87727   5.823  11.897   9.115  1.4173  0.5130 -0.3620
  650MOL0     H87728   6.066  11.869   9.043  0.4294 -0.0088  0.9953
  650MOL0     H87729   6.049  11.698   9.089 -0.4389  0.3001  2.0021
  650MOL0     H87730   5.287  11.119   9.653 -3.0348  2.3561  3.0605
  650MOL0     H87731   5.056  11.007   9.552  1.2572 -1.1590 -1.3177
  650MOL0     H87732   4.797  10.910   9.255 -2.1061 -0.5506  0.0532
  650MOL0     H87733   4.637  10.838   9.079  2.2013 -1.1904 -0.9825
  650MOL0     H87734   5.460  10.555   7.826  4.4588 -1.7884 -2.2165
  650MOL0     H87735   5.700  10.553   7.823  4.2546 -0.8532  3.1519
  650MOL0     H87736   6.073  10.547   7.935 -0.8655  0.7232 -0.0121
  650MOL0     H87737   6.317  10.511   7.914  0.3962 -0.9311  2.3016
  650MOL0     H87738   6.647  10.618   7.797  0.3376 -1.1032 -0.1149
  650MOL0     H87739   6.506  10.525   7.813  0.2279  1.8988 -2.0720
  650MOL0     H87740   6.722  10.541   8.021 -0.1833  1.2299 -0.5164
  650MOL0     H87741   6.641  10.412   7.924 -1.5933  0.2595 -1.7463
  650MOL0     H87742   6.430  10.435   8.068 -1.3962  0.9103  3.4054
  650MOL0     H87743   6.504  10.572   8.143  2.0798  0.4061  0.5491
  650MOL0     H87744   6.514  10.347   8.244 -0.7909  1.3239  0.5988
  650MOL0     H87745   6.643  10.313   8.124 -1.2419  2.4989 -2.2466
  650MOL0     H87746   6.769  10.561   8.470  1.5962  1.8440 -1.5288
  650MOL0     H87747   6.373  10.938   7.937 -2.1778  0.4598 -3.2747
  650MOL0     H87748   6.118  11.056   7.860 -0.9936  0.4813  0.1079
  650MOL0     H87749   6.041  11.014   8.013 -1.5941  0.3604 -4.3291
  650MOL0     H87750   6.215  11.070   8.002 -0.6561  2.8896 -0.5916
  651MOL0     O87751   7.211   9.949   2.235 -0.0191  0.1454  0.2096
  651MOL0     C87752   7.255   9.921   2.120 -0.4083  0.4640  0.5812
  651MOL0     O87753   7.353   9.841   2.081 -1.2566  0.1398 -0.8938
  651MOL0     C87754   7.396   9.756   2.181 -0.1271 -0.1604 -0.7749
  651MOL0     C87755   7.533   9.739   2.189 -1.1023 -0.5188  0.1770
  651MOL0     C87756   7.595   9.649   2.289  0.0972 -0.6270 -0.3761
  651MOL0     C87757   7.511   9.566   2.365  0.6228 -0.7925  0.0697
  651MOL0     O87758   7.572   9.480   2.457  0.4404  0.5015  0.3739
  651MOL0     C87759   7.584   9.351   2.394 -0.2981 -0.6546 -0.6106
  651MOL0     C87760   7.735   9.332   2.373 -0.9609  0.3014  0.5293
  651MOL0     C87761   7.829   9.357   2.488  0.9252 -0.1188 -1.0658
  651MOL0     C87762   7.973   9.355   2.440  0.8661 -0.6963 -0.0571
  651MOL0     C87763   8.059   9.462   2.510  0.6034  0.1767  0.2186
  651MOL0     C87764   8.092   9.414   2.657 -0.2754  0.3221  0.7128
  651MOL0     C87765   8.223   9.473   2.715  0.5396 -0.1665  0.5587
  651MOL0     C87766   8.251   9.420   2.854  0.9822  0.2103 -0.0482
  651MOL0     N87767   8.350   9.507   2.924  0.1413  0.2005  0.1246
  651MOL0     C87768   8.478   9.517   2.879 -0.0000  0.9846  0.7273
  651MOL0     C87769   8.546   9.542   2.988  0.0433  1.1834 -0.2057
  651MOL0     C87770   8.690   9.567   2.996  0.2127  0.1548  0.4169
  651MOL0     C87771   8.784   9.449   2.973 -0.9554  0.4490  0.1414
  651MOL0     C87772   8.802   9.349   3.088 -0.4663  0.2778  0.8937
  651MOL0     C87773   8.882   9.413   3.205 -0.5705  0.1104  0.2827
  651MOL0     O87774   8.983   9.486   3.156 -0.2375  1.1072 -0.0269
  651MOL0     C87775   9.078   9.530   3.247  0.5440  0.6661  1.0133
  651MOL0     C87776   9.193   9.582   3.190 -0.0774 -0.2568  0.3734
  651MOL0     C87777   9.291   9.642   3.277 -0.7506  0.5658  0.6396
  651MOL0     C87778   9.276   9.639   3.422 -0.1950  0.0411  0.0620
  651MOL0     C87779   9.392   9.685   3.508 -0.5351  0.5047  0.2263
  651MOL0     O87780   9.388   9.661   3.646  0.6914  0.8554 -0.0282
  651MOL0     C87781   9.486   9.711   3.734  0.2113  0.2495 -0.0625
  651MOL0     C87782   9.435   9.767   3.854 -0.3460  0.3368  0.6133
  651MOL0     C87783   9.529   9.803   3.952 -0.0297 -0.0720  1.0700
  651MOL0     C87784   9.665   9.784   3.930 -0.9921  1.0422  0.5560
  651MOL0     O87785   9.765   9.824   4.015  0.0934 -0.6631 -0.3816
  651MOL0     C87786   9.850   9.737   4.084  0.1201  0.4171 -0.3140
  651MOL0     C87787   9.959   9.806   4.171  0.8512  0.1751  0.0846
  651MOL0     C87788  10.047   9.900   4.086  0.2976  0.3065  0.2793
  651MOL0     C87789  10.172   9.820   4.031 -0.1434  0.0251  0.5235
  651MOL0     C87790  10.265   9.920   3.951  0.5456 -1.2773 -0.2262
  651MOL0     C87791  10.192   9.979   3.832 -0.2560  0.8220  0.8681
  651MOL0     C87792  10.291  10.004   3.719  0.7254  0.4462  0.2308
  651MOL0     C87793  10.331   9.869   3.654 -0.3914 -0.0038  0.1200
  651MOL0    Cl87794  10.405   9.900   3.484 -0.1105 -0.4574 -0.1936
  651MOL0     C87795   9.719   9.730   3.809  0.0341 -0.3326  0.9085
  651MOL0     C87796   9.626   9.690   3.716 -0.2175 -0.5454 -0.0078
  651MOL0     O87797   9.475   9.759   3.445 -1.1927  0.1647  0.4019
  651MOL0     C87798   9.155   9.588   3.474  0.4936 -0.0019  0.4429
  651MOL0     C87799   9.062   9.525   3.381  0.9826 -0.3572 -1.4312
  651MOL0     N87800   8.463   9.531   3.103 -0.8803 -0.3772 -0.3422
  651MOL0     N87801   8.341   9.528   3.059 -0.5153  0.5400 -0.2148
  651MOL0     C87802   7.365   9.562   2.336 -1.0197 -0.5419 -0.1015
  651MOL0     C87803   7.314   9.669   2.250 -0.6312 -0.4243 -0.1823
  651MOL0     C87804   7.233  10.018   2.010 -0.2159  0.1876  0.8898
  651MOL0     C87805   7.257  10.146   2.052 -0.3274 -1.4223 -0.0474
  651MOL0     C87806   7.264  10.250   1.958  0.9811 -1.0985  0.2455
  651MOL0     C87807   7.255  10.226   1.826 -0.2010  0.3941  0.0291
  651MOL0     O87808   7.278  10.318   1.732 -0.6241  1.0095  0.5435
  651MOL0     C87809   7.409  10.388   1.744 -0.2746 -0.4313 -0.0621
  651MOL0     C87810   7.397  10.541   1.755 -0.7014  0.0042 -0.2962
  651MOL0     C87811   7.355  10.610   1.624 -0.1694  0.0332  0.6353
  651MOL0     C87812   7.432  10.748   1.618  0.4156 -0.8153 -0.7327
  651MOL0     C87813   7.381  10.846   1.717  0.5421 -0.0760 -0.0246
  651MOL0     C87814   7.331  10.933   1.789  0.3230  0.3378  0.0273
  651MOL0     C87815   7.248  10.088   1.782 -0.3265 -0.1145  0.0446
  651MOL0     C87816   7.230   9.987   1.876  0.2583 -0.0528  0.6831
  651MOL0     C87817   7.217   9.842   1.829 -0.2514  0.9083 -0.0438
  651MOL0     H87818   7.596   9.796   2.121 -1.0163 -1.0928 -0.2234
  651MOL0     H87819   7.703   9.650   2.300 -0.1711  1.6610  4.5711
  651MOL0     H87820   7.550   9.277   2.466 -2.5471 -1.0824 -2.0159
  651MOL0     H87821   7.531   9.332   2.300 -0.5089  0.3017 -0.6964
  651MOL0     H87822   7.767   9.389   2.286  3.8112 -2.3465  0.1619
  651MOL0     H87823   7.760   9.234   2.330  0.0753  0.8645 -0.2020
  651MOL0     H87824   7.813   9.278   2.562 -0.7531  0.1613 -1.0905
  651MOL0     H87825   7.813   9.459   2.523  1.1746  0.5128 -2.6977
  651MOL0     H87826   8.017   9.257   2.461  0.0385 -1.0003  0.3160
  651MOL0     H87827   7.985   9.383   2.335  0.7615  1.0342  0.3551
  651MOL0     H87828   8.152   9.462   2.453 -0.2449  3.3805 -1.4076
  651MOL0     H87829   8.033   9.568   2.510  0.3608  0.1201 -0.2804
  651MOL0     H87830   8.003   9.437   2.716 -0.2362  1.2185  0.4376
  651MOL0     H87831   8.089   9.305   2.661 -1.2347  0.3221  0.1513
  651MOL0     H87832   8.215   9.582   2.727 -0.1930  0.1560 -2.1949
  651MOL0     H87833   8.310   9.448   2.654  0.1588  0.7181 -0.3947
  651MOL0     H87834   8.159   9.410   2.912  0.8424  1.3647 -0.0540
  651MOL0     H87835   8.288   9.317   2.864 -0.3544 -0.0911  2.9462
  651MOL0     H87836   8.526   9.515   2.782 -0.6198 -2.6660  0.3597
  651MOL0     H87837   8.717   9.644   2.923 -0.8385 -1.8764 -2.3001
  651MOL0     H87838   8.712   9.608   3.094  2.7049 -1.7057  0.7465
  651MOL0     H87839   8.751   9.409   2.877  0.7262  1.1545 -0.7740
  651MOL0     H87840   8.882   9.486   2.941 -0.4933 -1.3643 -0.6841
  651MOL0     H87841   8.845   9.259   3.043 -2.9998 -0.2209 -0.6864
  651MOL0     H87842   8.700   9.328   3.121 -1.2936  2.2775 -0.1920
  651MOL0     H87843   8.925   9.328   3.260  1.2501  0.6493 -0.2475
  651MOL0     H87844   8.831   9.483   3.272  0.0497 -1.2592  2.3079
  651MOL0     H87845   9.212   9.586   3.083 -0.3218  1.8984  0.3647
  651MOL0     H87846   9.377   9.680   3.222 -2.0516 -0.4317 -2.2944
  651MOL0     H87847   9.329   9.775   3.874 -0.6096 -1.6345  0.1880
  651MOL0     H87848   9.495   9.842   4.047 -1.0607  1.0560  0.2602
  651MOL0     H87849   9.802   9.666   4.152  0.0630  2.1580  1.5754
  651MOL0     H87850   9.903   9.673   4.013  2.2177  1.6510  0.0675
  651MOL0     H87851   9.897   9.863   4.242 -1.3036  0.1595 -1.6638
  651MOL0     H87852  10.022   9.730   4.218 -0.4731  0.3189  2.2667
  651MOL0     H87853   9.985   9.950   4.012 -1.1774 -4.5758 -2.2586
  651MOL0     H87854  10.087   9.982   4.146  0.0228  1.3300 -0.8964
  651MOL0     H87855  10.136   9.747   3.958 -0.2554 -1.1976  1.7619
  651MOL0     H87856  10.219   9.764   4.113  0.5156 -2.5832 -1.4997
  651MOL0     H87857  10.359   9.873   3.918 -0.3189 -2.3239 -1.3209
  651MOL0     H87858  10.295  10.008   4.008 -1.6818 -0.6155  0.0168
  651MOL0     H87859  10.121   9.903   3.798  0.1611  1.8830 -2.8082
  651MOL0     H87860  10.139  10.066   3.870  0.1654  1.8691 -0.8174
  651MOL0     H87861  10.380  10.052   3.760  2.1641 -3.7646  2.7122
  651MOL0     H87862  10.242  10.068   3.646  1.3918 -1.5106 -2.0610
  651MOL0     H87863  10.400   9.816   3.720 -0.3977  0.1648  0.2641
  651MOL0     H87864  10.249   9.798   3.643  0.5567 -1.1324  0.2053
  651MOL0     H87865   9.824   9.717   3.784 -0.5707 -1.9569 -1.0957
  651MOL0     H87866   9.662   9.631   3.632 -0.6205 -0.9317  0.0894
  651MOL0     H87867   9.138   9.579   3.581  1.0993 -3.0804  0.3921
  651MOL0     H87868   8.975   9.503   3.443  3.6603  0.0883  2.8883
  651MOL0     H87869   7.291   9.505   2.392  1.2977 -1.3684  2.3781
  651MOL0     H87870   7.209   9.691   2.241 -0.6252  0.7459  1.9520
  651MOL0     H87871   7.273  10.182   2.153  2.2140  2.9607 -1.7325
  651MOL0     H87872   7.266  10.351   2.000  0.7601  0.0799 -2.3777
  651MOL0     H87873   7.469  10.373   1.653 -1.7851  0.8285 -1.3328
  651MOL0     H87874   7.463  10.352   1.832 -1.5101  2.8250  2.2221
  651MOL0     H87875   7.496  10.573   1.790  0.4024 -3.2605 -0.0800
  651MOL0     H87876   7.320  10.558   1.831 -1.4409  1.7442 -1.3734
  651MOL0     H87877   7.246  10.621   1.617 -0.2439 -1.3688 -1.7186
  651MOL0     H87878   7.396  10.551   1.541  1.3747  0.5663  0.9828
  651MOL0     H87879   7.540  10.736   1.632  0.5161  0.7666  0.1304
  651MOL0     H87880   7.436  10.783   1.515 -0.5894  1.4726 -0.0569
  651MOL0     H87881   7.303  11.015   1.852  0.8372  1.5984 -1.3111
  651MOL0     H87882   7.244  10.081   1.673  1.0027  4.6539 -0.5451
  651MOL0     H87883   7.150   9.832   1.743 -0.1323  0.3926 -0.0755
  651MOL0     H87884   7.316   9.810   1.795 -0.0747  0.6530  0.6907
  651MOL0     H87885   7.182   9.778   1.911  1.9985  0.3665  0.5471
  652MOL0     O87886   6.009   2.423   1.045 -0.3596 -0.5539 -0.7060
  652MOL0     C87887   5.964   2.513   0.975  0.0523 -0.1792  0.3780
  652MOL0     O87888   5.976   2.654   0.996 -0.0363  0.2593  0.4484
  652MOL0     C87889   6.010   2.702   1.122 -1.6662  0.0870 -0.1649
  652MOL0     C87890   6.101   2.803   1.123  0.3022 -0.4090  0.1345
  652MOL0     C87891   6.150   2.854   1.245 -0.2318  0.4809  0.3150
  652MOL0     C87892   6.103   2.811   1.363 -0.1712 -0.8499  0.1438
  652MOL0     O87893   6.142   2.854   1.488 -0.2625  0.2826  0.5682
  652MOL0     C87894   6.198   2.990   1.511  0.3924  0.2797 -0.0128
  652MOL0     C87895   6.247   3.007   1.651 -1.4637 -1.0256 -0.1893
  652MOL0     C87896   6.357   3.121   1.669 -0.9805  0.0366  0.7259
  652MOL0     C87897   6.383   3.154   1.817  0.1834 -0.3450  1.0117
  652MOL0     C87898   6.496   3.257   1.837 -0.1007 -0.1158 -0.9563
  652MOL0     C87899   6.526   3.268   1.986  0.0554  0.1339  0.2357
  652MOL0     C87900   6.600   3.394   2.020 -0.5462  1.2396 -0.2054
  652MOL0     C87901   6.658   3.386   2.167 -0.2343  0.0947  0.8299
  652MOL0     N87902   6.541   3.376   2.255 -0.1509 -0.0771 -0.5412
  652MOL0     C87903   6.559   3.328   2.386  1.1945 -0.3538 -0.0945
  652MOL0     C87904   6.473   3.405   2.454 -0.5120 -0.0349 -0.9441
  652MOL0     C87905   6.447   3.385   2.599  0.1362  0.3606 -0.1333
  652MOL0     C87906   6.299   3.332   2.630  0.0679  0.1988  0.0427
  652MOL0     C87907   6.181   3.431   2.614  0.9382 -1.1807  0.1074
  652MOL0     C87908   6.047   3.373   2.648  0.0452 -0.3272  0.3522
  652MOL0     O87909   6.026   3.251   2.580 -0.0032  0.2720 -0.2981
  652MOL0     C87910   5.902   3.198   2.588  0.3281  0.3238 -0.2229
  652MOL0     C87911   5.808   3.210   2.698 -0.4477  1.0554  0.0492
  652MOL0     C87912   5.684   3.153   2.690  1.7912  0.7611  0.3365
  652MOL0     C87913   5.637   3.063   2.580 -0.5551 -0.1258  0.2891
  652MOL0     C87914   5.509   2.991   2.580 -0.3427 -0.0381 -0.5221
  652MOL0     O87915   5.498   2.898   2.482 -0.1632  0.1160  0.0748
  652MOL0     C87916   5.367   2.848   2.463 -0.0811 -0.4528 -0.1320
  652MOL0     C87917   5.263   2.946   2.425  0.4746  0.0627 -0.0849
  652MOL0     C87918   5.137   2.890   2.425 -0.0614  0.0817  0.3948
  652MOL0     C87919   5.108   2.761   2.466  0.2092  0.0353  0.3691
  652MOL0     O87920   4.987   2.704   2.472 -0.1493 -0.7416 -0.2865
  652MOL0     C87921   4.900   2.708   2.355  0.2235 -0.0038  0.6287
  652MOL0     C87922   4.780   2.626   2.403 -0.0372 -0.3102  0.0614
  652MOL0     C87923   4.780   2.472   2.375 -0.9558 -0.4704  0.4258
  652MOL0     C87924   4.637   2.418   2.388  0.0798  0.4355 -0.1712
  652MOL0     C87925   4.629   2.265   2.407 -1.0777 -0.2293 -0.0827
  652MOL0     C87926   4.657   2.181   2.282  0.3198  0.4273  0.0346
  652MOL0     C87927   4.657   2.023   2.302  0.2785  0.1656  0.0107
  652MOL0     C87928   4.695   1.949   2.178 -0.0847 -0.0159 -0.0659
  652MOL0    Cl87929   4.859   1.977   2.128  0.0608 -0.0095 -0.0365
  652MOL0     C87930   5.207   2.679   2.493 -0.5570 -0.2032  0.6350
  652MOL0     C87931   5.338   2.720   2.486  0.6338  0.0689  0.0579
  652MOL0     O87932   5.429   3.016   2.672 -0.4016  0.8174 -0.4566
  652MOL0     C87933   5.735   3.053   2.479  0.4629 -0.3188  0.1934
  652MOL0     C87934   5.870   3.113   2.487 -0.1582 -0.5018 -0.2749
  652MOL0     N87935   6.403   3.484   2.378  0.5871 -0.4061  0.0864
  652MOL0     N87936   6.440   3.468   2.263 -0.0208  0.5558  0.2674
  652MOL0     C87937   6.019   2.707   1.360  0.3680 -0.3504 -0.9442
  652MOL0     C87938   5.966   2.650   1.250  1.0188  0.5574 -0.8350
  652MOL0     C87939   5.868   2.481   0.869 -0.2429  0.4102 -1.0133
  652MOL0     C87940   5.791   2.584   0.801 -0.2336 -0.2304  0.3383
  652MOL0     C87941   5.708   2.551   0.696 -0.1431 -0.2966  0.0283
  652MOL0     C87942   5.700   2.419   0.657 -0.6339  0.0619  0.6049
  652MOL0     O87943   5.627   2.379   0.559 -0.3068 -0.7479  0.4650
  652MOL0     C87944   5.483   2.383   0.578  0.0055  0.3860  0.6728
  652MOL0     C87945   5.416   2.369   0.434  0.7140 -0.3220 -1.2867
  652MOL0     C87946   5.443   2.229   0.383 -0.2075 -0.5131 -0.1400
  652MOL0     C87947   5.362   2.195   0.257  0.4968 -0.3412  0.1589
  652MOL0     C87948   5.359   2.305   0.155  0.2775  0.7587 -0.1010
  652MOL0     C87949   5.365   2.390   0.079  0.4635 -0.1031  0.1479
  652MOL0     C87950   5.778   2.318   0.708 -0.1562  0.3081  0.3743
  652MOL0     C87951   5.862   2.346   0.817 -0.8378  0.4783  0.0624
  652MOL0     C87952   5.936   2.219   0.868  0.7597 -0.3198 -0.1338
  652MOL0     H87953   6.139   2.840   1.028 -0.9073  1.8201  0.4335
  652MOL0     H87954   6.223   2.934   1.233  1.8440 -0.9006  2.7298
  652MOL0     H87955   6.270   3.018   1.433  0.4224  1.0996  0.2932
  652MOL0     H87956   6.106   3.049   1.502 -1.3669 -2.3219 -0.1114
  652MOL0     H87957   6.301   2.920   1.688 -1.6906 -1.3120 -0.5211
  652MOL0     H87958   6.166   3.023   1.723  2.1888  1.6609  3.8274
  652MOL0     H87959   6.321   3.210   1.616 -0.6065  0.6995  1.5673
  652MOL0     H87960   6.454   3.097   1.624 -1.1220  0.4625  0.1863
  652MOL0     H87961   6.294   3.190   1.869 -0.4498  0.8607 -0.7972
  652MOL0     H87962   6.401   3.057   1.864 -1.3605 -0.3263  1.7022
  652MOL0     H87963   6.587   3.226   1.785 -0.0274 -1.0441 -0.3033
  652MOL0     H87964   6.457   3.356   1.813  1.2683  0.8408  0.4938
  652MOL0     H87965   6.429   3.269   2.036  0.6108 -0.8792  1.3894
  652MOL0     H87966   6.594   3.187   2.015  0.2504  0.0313 -0.4723
  652MOL0     H87967   6.543   3.487   2.016 -3.6792 -0.3483  2.2918
  652MOL0     H87968   6.684   3.388   1.951 -0.2269 -1.6137  0.2706
  652MOL0     H87969   6.715   3.294   2.186 -0.3997  0.1033  1.3969
  652MOL0     H87970   6.729   3.468   2.180 -1.0837  0.6910  1.8579
  652MOL0     H87971   6.629   3.250   2.414  2.0745 -0.1493 -1.5749
  652MOL0     H87972   6.518   3.319   2.649  0.4875  1.8170  1.3871
  652MOL0     H87973   6.470   3.482   2.645  1.9578 -0.7374  1.4203
  652MOL0     H87974   6.279   3.241   2.575  1.9426  1.0987 -2.2695
  652MOL0     H87975   6.303   3.317   2.739  1.8649  0.6244  0.0697
  652MOL0     H87976   6.175   3.453   2.507 -2.2586 -0.2892  0.3669
  652MOL0     H87977   6.202   3.513   2.683 -1.4775 -1.5292  1.3639
  652MOL0     H87978   5.964   3.436   2.614  0.1129 -1.2081 -1.6027
  652MOL0     H87979   6.052   3.354   2.756  1.1599 -0.8074  0.2348
  652MOL0     H87980   5.837   3.281   2.775  2.1900  1.4852 -1.2209
  652MOL0     H87981   5.622   3.176   2.776  1.7678  0.5034  0.3891
  652MOL0     H87982   5.264   3.054   2.409 -1.2017  0.2656  0.9699
  652MOL0     H87983   5.042   2.941   2.410  0.0520 -0.4125 -2.6373
  652MOL0     H87984   4.855   2.806   2.341  0.7329 -0.0686 -1.9717
  652MOL0     H87985   4.940   2.677   2.258  1.2433 -0.6203  1.2146
  652MOL0     H87986   4.760   2.648   2.508 -2.2209  1.0775 -0.5728
  652MOL0     H87987   4.690   2.663   2.352 -0.0782  2.5141  1.9506
  652MOL0     H87988   4.810   2.473   2.270 -0.8621 -0.3304  0.4538
  652MOL0     H87989   4.860   2.435   2.440  2.5180  1.9545 -2.0761
  652MOL0     H87990   4.572   2.443   2.303 -1.3603 -0.6148  0.5884
  652MOL0     H87991   4.578   2.465   2.467 -1.3663 -1.9249  0.2667
  652MOL0     H87992   4.522   2.247   2.417 -1.4784  1.2318 -1.4867
  652MOL0     H87993   4.691   2.229   2.491 -0.9261 -0.0153 -0.1034
  652MOL0     H87994   4.573   2.202   2.215  0.5364  0.8856 -0.0978
  652MOL0     H87995   4.747   2.212   2.229 -0.5100 -0.2011 -1.8523
  652MOL0     H87996   4.559   1.986   2.334  0.9809 -1.6702  0.1655
  652MOL0     H87997   4.723   2.002   2.387  0.6222 -1.1900 -0.5756
  652MOL0     H87998   4.680   1.840   2.177  0.5666 -0.1962  2.3148
  652MOL0     H87999   4.625   1.972   2.097  0.7363  1.3678 -0.4069
  652MOL0     H88000   5.194   2.572   2.511 -1.0456  0.0739  2.0685
  652MOL0     H88001   5.420   2.649   2.492 -0.7367 -1.6595 -0.5469
  652MOL0     H88002   5.706   2.999   2.389  0.2591  1.0413 -0.5891
  652MOL0     H88003   5.944   3.109   2.407 -1.0972 -2.7470 -1.1233
  652MOL0     H88004   5.996   2.665   1.458  0.7360  2.1681  0.3188
  652MOL0     H88005   5.909   2.559   1.259 -0.4650  1.6394  1.8350
  652MOL0     H88006   5.795   2.685   0.842  3.4415 -0.9446  2.1348
  652MOL0     H88007   5.655   2.629   0.641  1.1040  1.4364  1.1896
  652MOL0     H88008   5.442   2.463   0.639 -0.2529 -1.3504  2.9164
  652MOL0     H88009   5.458   2.287   0.624 -0.9868  0.0892 -0.4358
  652MOL0     H88010   5.448   2.452   0.371  0.4762  2.2275  1.7542
  652MOL0     H88011   5.309   2.384   0.452  0.9195  1.3557 -1.3276
  652MOL0     H88012   5.449   2.149   0.458 -0.5556  0.2280  0.6970
  652MOL0     H88013   5.545   2.244   0.346  0.5002  0.7245  2.1339
  652MOL0     H88014   5.385   2.097   0.214 -1.7921 -1.1554  0.6376
  652MOL0     H88015   5.261   2.188   0.299  0.2844 -1.0364 -0.4333
  652MOL0     H88016   5.368   2.477   0.017 -0.8572  0.5163  0.9040
  652MOL0     H88017   5.757   2.215   0.678 -0.8655  0.3472  0.7036
  652MOL0     H88018   5.923   2.150   0.784 -4.6686  3.1213 -2.7068
  652MOL0     H88019   6.039   2.240   0.898  1.0490 -1.4588 -0.2569
  652MOL0     H88020   5.873   2.183   0.950  2.1013 -0.4840  0.8607
  653MOL0     O88021   7.341  10.161   9.703 -0.5462 -0.4086  0.4159
  653MOL0     C88022   7.265  10.074   9.744  0.4313  0.5862  0.2298
  653MOL0     O88023   7.188   9.995   9.657  0.1224  0.8734 -0.4736
  653MOL0     C88024   7.160  10.038   9.532 -0.1365  0.4611  0.0167
  653MOL0     C88025   7.189   9.945   9.426 -0.8968 -0.1869 -0.4037
  653MOL0     C88026   7.161   9.988   9.294  0.4842  0.0148 -0.7834
  653MOL0     C88027   7.077  10.104   9.276 -0.1082  0.1372 -0.8010
  653MOL0     O88028   7.031  10.131   9.148 -0.6769  0.1800 -0.5147
  653MOL0     C88029   6.893  10.129   9.133  0.3634 -0.0027  0.1138
  653MOL0     C88030   6.839  10.136   8.992  1.0467 -0.6977 -0.7012
  653MOL0     C88031   6.878  10.024   8.901  0.6692  0.4314 -0.1581
  653MOL0     C88032   7.004  10.056   8.827  0.0248 -0.6566  0.7499
  653MOL0     C88033   7.054   9.951   8.727 -0.6544  0.0720 -1.0378
  653MOL0     C88034   7.127   9.837   8.799 -0.3018 -0.9262  0.8672
  653MOL0     C88035   7.191   9.724   8.710  0.4205 -0.0249 -0.0352
  653MOL0     C88036   7.264   9.620   8.782 -0.0499  0.2815 -0.5323
  653MOL0     N88037   7.247   9.594   8.930  0.2843 -0.5624 -0.6748
  653MOL0     C88038   7.140   9.579   9.003 -0.6294  0.7040 -0.4650
  653MOL0     C88039   7.171   9.591   9.133  0.0788  0.4109  0.1659
  653MOL0     C88040   7.089   9.597   9.257  0.9216 -0.4821  0.7543
  653MOL0     C88041   6.963   9.686   9.241 -0.2743 -0.3565 -0.3352
  653MOL0     C88042   6.877   9.670   9.362 -0.5812 -0.1651 -0.3928
  653MOL0     C88043   6.754   9.768   9.351  0.2568 -1.5763 -0.5593
  653MOL0     O88044   6.789   9.905   9.385  0.2692 -0.1830  0.9351
  653MOL0     C88045   6.745   9.960   9.506  0.7057 -0.2618 -0.3065
  653MOL0     C88046   6.671  10.078   9.499 -0.6299 -0.4978 -0.0786
  653MOL0     C88047   6.602  10.137   9.609  0.0950 -0.3973 -0.3089
  653MOL0     C88048   6.620  10.067   9.738  0.3484 -0.2243 -0.5275
  653MOL0     C88049   6.582  10.141   9.861  0.0681  0.1416 -0.9445
  653MOL0     O88050   6.510  10.260   9.845  0.0522 -0.1468  0.0820
  653MOL0     C88051   6.447  10.334   9.945 -0.2253 -0.5554  0.5438
  653MOL0     C88052   6.507  10.332  10.077  0.6913  0.4196 -0.5184
  653MOL0     C88053   6.424  10.390  10.171  0.4699 -0.7021  0.3204
  653MOL0     C88054   6.296  10.440  10.142 -1.0021  0.2922  0.1513
  653MOL0     O88055   6.234  10.498  10.244  0.5412  0.4248  0.1719
  653MOL0     C88056   6.263  10.636  10.260  0.7052 -0.3190  0.1871
  653MOL0     C88057   6.130  10.707  10.273 -0.7026  0.3881 -0.2624
  653MOL0     C88058   6.061  10.703  10.409  0.6296  0.8588  0.6123
  653MOL0     C88059   5.970  10.573  10.417  0.3638  1.2367 -0.4899
  653MOL0     C88060   5.883  10.575  10.545 -0.0963 -0.6048  1.4691
  653MOL0     C88061   5.960  10.553  10.672 -0.1197  0.7602 -0.1916
  653MOL0     C88062   5.891  10.626  10.782 -0.1780  0.4407  0.1838
  653MOL0     C88063   5.977  10.625  10.902  0.2398  0.2402 -1.4025
  653MOL0    Cl88064   5.961  10.467  10.985  0.4173 -0.6770  0.0900
  653MOL0     C88065   6.247  10.443  10.010  0.2773 -0.0746 -0.1839
  653MOL0     C88066   6.326  10.385   9.920 -0.5129  0.4810  0.5157
  653MOL0     O88067   6.617  10.092   9.969 -0.3609 -0.0133 -0.4069
  653MOL0     C88068   6.693   9.946   9.747 -0.2549  0.0345  0.3917
  653MOL0     C88069   6.743   9.886   9.623  0.1233  0.5330  0.4240
  653MOL0     N88070   7.308   9.612   9.135  0.0006 -0.1801 -0.4011
  653MOL0     N88071   7.346   9.618   9.016 -0.5424 -1.1300 -0.2469
  653MOL0     C88072   7.045  10.185   9.381 -0.3377  0.2818 -0.3611
  653MOL0     C88073   7.087  10.153   9.513 -0.3221 -0.1877  1.1665
  653MOL0     C88074   7.250  10.062   9.884 -0.2826  0.0031  0.0732
  653MOL0     C88075   7.361  10.093   9.968  0.5637  0.0048  0.2386
  653MOL0     C88076   7.342  10.099  10.116  0.0351 -0.1571  1.1234
  653MOL0     C88077   7.224  10.064  10.176 -0.1055  0.0665 -0.9144
  653MOL0     O88078   7.194  10.068  10.307 -0.0952 -0.7283 -0.2512
  653MOL0     C88079   7.256  10.154  10.400  0.3205 -0.5643  0.0955
  653MOL0     C88080   7.242  10.291  10.361  0.2786 -0.1650  0.1934
  653MOL0     C88081   7.219  10.394  10.473 -0.1072 -0.7225 -0.3921
  653MOL0     C88082   7.165  10.523  10.397  0.4590 -0.6205  0.1660
  653MOL0     C88083   7.107  10.615  10.497 -0.2787 -0.1296  0.8370
  653MOL0     C88084   7.068  10.711  10.555 -0.0701 -0.5482 -0.4980
  653MOL0     C88085   7.116  10.040  10.093  0.0767  0.1210 -0.2389
  653MOL0     C88086   7.130  10.037   9.950  0.4484 -0.3079  0.5927
  653MOL0     C88087   7.009   9.998   9.868 -0.1790  1.2873  0.9709
  653MOL0     H88088   7.256   9.862   9.450  1.5581  1.7941  0.0651
  653MOL0     H88089   7.198   9.925   9.213 -0.8964 -0.4102 -1.1145
  653MOL0     H88090   6.854  10.037   9.176 -0.6636  0.3560 -0.0098
  653MOL0     H88091   6.851  10.222   9.171  3.2946 -0.0428  4.0326
  653MOL0     H88092   6.862  10.234   8.949 -3.2132  0.7415 -0.1508
  653MOL0     H88093   6.730  10.128   8.994  1.0076 -4.8176 -4.3779
  653MOL0     H88094   6.795   9.999   8.834  2.4351  0.5777 -2.5646
  653MOL0     H88095   6.897   9.927   8.948  2.7449 -0.6131 -2.8485
  653MOL0     H88096   6.999  10.149   8.770  2.2451 -0.0306  1.4617
  653MOL0     H88097   7.088  10.064   8.898  0.9851 -1.0917 -0.3014
  653MOL0     H88098   6.957   9.928   8.682 -2.2215  2.6022  0.7845
  653MOL0     H88099   7.119   9.995   8.650  1.0482 -0.3915  0.0691
  653MOL0     H88100   7.208   9.874   8.863  1.2855  0.6987 -1.9046
  653MOL0     H88101   7.058   9.793   8.872 -0.7155 -1.2011  0.3119
  653MOL0     H88102   7.260   9.771   8.638  0.9785 -0.4002  0.2523
  653MOL0     H88103   7.112   9.677   8.650  1.4351 -2.8399  0.6988
  653MOL0     H88104   7.247   9.523   8.735  0.6668 -0.3841  0.5363
  653MOL0     H88105   7.368   9.648   8.765 -0.5426  1.5437 -1.6761
  653MOL0     H88106   7.037   9.581   8.969 -2.0634  0.6468  3.3355
  653MOL0     H88107   7.068   9.494   9.289 -0.3076 -0.4841  0.0123
  653MOL0     H88108   7.147   9.642   9.338 -0.8201  0.4700  1.5288
  653MOL0     H88109   7.000   9.789   9.230 -1.5041 -0.0047 -1.4523
  653MOL0     H88110   6.898   9.656   9.158 -2.1980  3.5519 -0.5003
  653MOL0     H88111   6.938   9.683   9.452  3.4472  0.5159 -2.9514
  653MOL0     H88112   6.838   9.568   9.366 -0.6949 -0.0871  1.2683
  653MOL0     H88113   6.665   9.734   9.403 -0.5431 -2.9922 -2.7142
  653MOL0     H88114   6.727   9.760   9.245  2.0858 -2.8384 -0.9846
  653MOL0     H88115   6.652  10.113   9.398  0.3865 -0.5834 -0.3086
  653MOL0     H88116   6.531  10.217   9.591 -0.1636  0.3720  3.3141
  653MOL0     H88117   6.594  10.286  10.122 -1.3038 -0.1382  3.1447
  653MOL0     H88118   6.466  10.396  10.271 -0.3995  1.8702  0.6066
  653MOL0     H88119   6.330  10.646  10.346 -0.1523 -1.1646  0.9773
  653MOL0     H88120   6.321  10.675  10.176 -0.4112  1.7609  0.3145
  653MOL0     H88121   6.142  10.815  10.257  1.7115  0.2743  0.3709
  653MOL0     H88122   6.058  10.676  10.197 -1.6117 -1.4508  1.2800
  653MOL0     H88123   6.140  10.700  10.486 -1.7093  1.3161  3.1938
  653MOL0     H88124   6.007  10.793  10.440  1.5815  0.6236  3.2580
  653MOL0     H88125   6.041  10.491  10.430 -1.1697 -0.5105 -2.5181
  653MOL0     H88126   5.900  10.562  10.334 -0.8594  1.7133  0.4443
  653MOL0     H88127   5.809  10.495  10.531  1.4643 -1.5492 -2.4761
  653MOL0     H88128   5.824  10.667  10.543 -1.1631 -1.2608  1.4387
  653MOL0     H88129   5.967  10.444  10.681 -2.3839  0.3684 -2.3293
  653MOL0     H88130   6.063  10.592  10.666  1.0070 -2.0321 -0.3067
  653MOL0     H88131   5.794  10.585  10.814 -0.0853  0.9472  1.1199
  653MOL0     H88132   5.888  10.733  10.761  7.0317  0.6325 -2.4827
  653MOL0     H88133   6.075  10.653  10.862  0.3836  0.7066 -0.7426
  653MOL0     H88134   5.952  10.698  10.980 -1.3119  0.2693 -1.8808
  653MOL0     H88135   6.142  10.463   9.995  0.1010  1.5049  2.5129
  653MOL0     H88136   6.288  10.390   9.818 -0.5422  1.1050  0.5561
  653MOL0     H88137   6.689   9.891   9.840 -1.2507  1.4481  1.2184
  653MOL0     H88138   6.778   9.784   9.629 -1.6664 -0.1733 -0.3918
  653MOL0     H88139   6.987  10.276   9.367  0.1771  0.7524  0.4470
  653MOL0     H88140   7.057  10.216   9.596 -1.4329  2.3329 -1.0047
  653MOL0     H88141   7.457  10.101   9.919 -0.1177 -0.1653 -1.1733
  653MOL0     H88142   7.422  10.106  10.189 -0.5084 -1.9620  1.9533
  653MOL0     H88143   7.359  10.132  10.430  0.5708 -0.4921 -0.6980
  653MOL0     H88144   7.189  10.130  10.484 -0.8316 -0.0604 -0.6551
  653MOL0     H88145   7.163  10.301  10.286  2.5410  0.0933 -2.3210
  653MOL0     H88146   7.332  10.318  10.306 -1.1774  0.7180 -1.8613
  653MOL0     H88147   7.307  10.415  10.535 -0.4796 -2.9530  1.0159
  653MOL0     H88148   7.153  10.361  10.554 -1.1663  3.2744  0.6167
  653MOL0     H88149   7.248  10.575  10.349  2.5531 -4.1585 -0.3703
  653MOL0     H88150   7.086  10.497  10.326  0.1373 -2.6095  1.1853
  653MOL0     H88151   7.037  10.791  10.619 -0.3720 -1.6630  0.8077
  653MOL0     H88152   7.019  10.026  10.140 -1.2217  0.4561 -2.6491
  653MOL0     H88153   7.040   9.916   9.802  2.7063  3.0082 -0.0037
  653MOL0     H88154   6.923   9.964   9.926 -0.1225  0.8968  0.8275
  653MOL0     H88155   6.974  10.084   9.809  1.8063  0.1109 -2.1571
  654MOL0     O88156   7.651   7.635   3.810  0.2398 -0.4865  1.7602
  654MOL0     C88157   7.720   7.540   3.849 -0.6077 -0.3069 -0.6832
  654MOL0     O88158   7.784   7.536   3.970  0.1530 -0.4928  1.1106
  654MOL0     C88159   7.750   7.610   4.080 -0.2241 -0.6910  0.6182
  654MOL0     C88160   7.620   7.657   4.121 -0.1929  0.6243  0.5513
  654MOL0     C88161   7.600   7.753   4.218  0.0823 -0.1314 -0.8876
  654MOL0     C88162   7.712   7.797   4.286 -0.8965 -0.2039  0.2329
  654MOL0     O88163   7.708   7.881   4.392 -0.8645  0.0817  0.4965
  654MOL0     C88164   7.628   7.841   4.500 -0.0505  0.4769  0.7956
  654MOL0     C88165   7.624   7.950   4.609  0.3734 -0.3344 -0.2701
  654MOL0     C88166   7.754   7.941   4.690  0.5837 -0.0789 -0.6640
  654MOL0     C88167   7.774   8.047   4.798 -0.1565 -0.4397  0.0852
  654MOL0     C88168   7.910   8.047   4.866  0.1930 -0.6862  0.8305
  654MOL0     C88169   7.933   7.915   4.944 -0.6875 -0.5226 -0.4476
  654MOL0     C88170   8.056   7.906   5.018  0.5855  0.1229 -0.0441
  654MOL0     C88171   8.078   8.024   5.121  0.3114 -0.5536 -0.4995
  654MOL0     N88172   7.970   8.078   5.208 -0.3013 -0.3440  0.3600
  654MOL0     C88173   7.952   8.032   5.334 -0.1089 -0.0380 -0.5984
  654MOL0     C88174   7.866   8.127   5.384  0.7579 -0.0729  0.8894
  654MOL0     C88175   7.781   8.108   5.517  0.1736  1.3714 -0.0266
  654MOL0     C88176   7.711   7.970   5.534  0.1587  0.5183 -0.3975
  654MOL0     C88177   7.614   7.935   5.415  0.6399  0.3703  0.4000
  654MOL0     C88178   7.572   7.786   5.439 -0.2299  0.5374  1.4312
  654MOL0     O88179   7.498   7.760   5.556  0.1348 -0.1475  0.6405
  654MOL0     C88180   7.537   7.652   5.628  0.4182 -0.5465 -1.2173
  654MOL0     C88181   7.550   7.665   5.767 -0.7630  0.2400  0.0985
  654MOL0     C88182   7.609   7.556   5.841  0.1306  0.2229  0.4985
  654MOL0     C88183   7.633   7.429   5.781  0.5922  1.5023 -0.9977
  654MOL0     C88184   7.694   7.315   5.854  0.7302  0.8262 -0.3103
  654MOL0     O88185   7.714   7.352   5.991 -0.3066  0.1913 -0.9404
  654MOL0     C88186   7.773   7.277   6.084 -0.3374  1.1074  0.0748
  654MOL0     C88187   7.855   7.154   6.062 -0.4953  0.3228 -0.6093
  654MOL0     C88188   7.936   7.114   6.168  1.0057  0.4033 -0.0801
  654MOL0     C88189   7.924   7.160   6.293 -0.7738  0.0545 -0.2794
  654MOL0     O88190   8.013   7.105   6.378  0.4896  0.0925 -0.2033
  654MOL0     C88191   7.998   7.144   6.518  0.3677  0.1354 -0.2064
  654MOL0     C88192   8.064   7.027   6.609 -0.0607 -0.6589 -0.7391
  654MOL0     C88193   8.200   6.990   6.594 -1.1891 -0.6832  0.7674
  654MOL0     C88194   8.252   6.883   6.679 -0.9685  1.2159 -0.8294
  654MOL0     C88195   8.403   6.851   6.672 -0.5015 -0.0443 -0.0849
  654MOL0     C88196   8.450   6.808   6.527  0.2614  0.4274 -0.1605
  654MOL0     C88197   8.599   6.766   6.533 -0.3537  0.1328  1.4651
  654MOL0     C88198   8.654   6.715   6.392 -0.0570  1.5518 -0.1550
  654MOL0    Cl88199   8.834   6.703   6.385 -0.0169  0.3764  0.2717
  654MOL0     C88200   7.852   7.271   6.315 -0.1773 -0.7485  0.9931
  654MOL0     C88201   7.769   7.335   6.218  0.1201  0.0113 -0.5767
  654MOL0     O88202   7.742   7.218   5.793 -0.3763 -0.2720  0.4238
  654MOL0     C88203   7.617   7.419   5.645  0.2576 -0.6426 -0.3370
  654MOL0     C88204   7.574   7.531   5.569  0.3971  0.4418 -0.0479
  654MOL0     N88205   7.859   8.235   5.296 -0.6392  0.0845 -0.1127
  654MOL0     N88206   7.916   8.204   5.194  0.0802  0.0863  0.6864
  654MOL0     C88207   7.842   7.743   4.257  1.5527  0.3941 -0.6452
  654MOL0     C88208   7.864   7.657   4.146  0.3358  0.6259  0.9442
  654MOL0     C88209   7.763   7.450   3.755  0.1443  0.3373  0.2050
  654MOL0     C88210   7.851   7.486   3.655 -0.2040  0.6194  0.4499
  654MOL0     C88211   7.894   7.403   3.546 -0.0509  0.4350  0.1119
  654MOL0     C88212   7.857   7.265   3.542  0.0527 -0.3485 -0.7397
  654MOL0     O88213   7.915   7.189   3.447 -0.1295 -0.4393  0.6157
  654MOL0     C88214   7.939   7.054   3.472 -0.5966  0.9898  0.1511
  654MOL0     C88215   7.883   6.964   3.358  0.1133 -0.7724  0.1641
  654MOL0     C88216   7.730   6.943   3.381 -0.4643  0.1721 -0.1008
  654MOL0     C88217   7.683   6.857   3.503 -0.0076  0.5149  0.0669
  654MOL0     C88218   7.542   6.849   3.482  0.1130 -0.6624  1.1593
  654MOL0     C88219   7.414   6.849   3.472 -0.0393 -0.2758  0.1679
  654MOL0     C88220   7.774   7.226   3.641  0.1764 -0.8939  0.0022
  654MOL0     C88221   7.720   7.314   3.742  0.5102  1.0357  0.0483
  654MOL0     C88222   7.627   7.257   3.850  0.5301  0.1573 -0.1990
  654MOL0     H88223   7.540   7.626   4.056  1.7954  1.7740 -2.6769
  654MOL0     H88224   7.497   7.785   4.230  1.4575  4.3070  1.1148
  654MOL0     H88225   7.524   7.842   4.466  0.1637  4.1355 -0.1227
  654MOL0     H88226   7.656   7.744   4.542 -1.2625  0.1644  0.9314
  654MOL0     H88227   7.542   7.927   4.677  0.6349  0.6223  0.3931
  654MOL0     H88228   7.615   8.045   4.555  0.5193 -0.6907 -0.9297
  654MOL0     H88229   7.839   7.930   4.622 -0.4251 -2.6102 -1.6623
  654MOL0     H88230   7.745   7.848   4.747  2.3041  0.3829  0.4059
  654MOL0     H88231   7.755   8.143   4.747 -0.0942  0.0602  0.9807
  654MOL0     H88232   7.696   8.040   4.874 -1.8089 -1.0823 -1.5897
  654MOL0     H88233   7.990   8.065   4.793 -0.6960  0.3371  0.0651
  654MOL0     H88234   7.919   8.128   4.939  1.7399 -0.1077  0.0520
  654MOL0     H88235   7.843   7.901   5.005 -1.8937 -4.8069 -2.8466
  654MOL0     H88236   7.946   7.835   4.871  0.8762 -0.1538 -0.6097
  654MOL0     H88237   8.152   7.907   4.966  1.4206  0.1062  1.4277
  654MOL0     H88238   8.043   7.811   5.071 -3.5242  1.5451  1.9321
  654MOL0     H88239   8.165   7.989   5.177 -0.0295 -2.4856 -1.0893
  654MOL0     H88240   8.111   8.107   5.058  4.7995 -3.6365 -2.7792
  654MOL0     H88241   7.984   7.939   5.381 -0.9878  1.1798  2.5976
  654MOL0     H88242   7.842   8.137   5.603  0.7128 -2.0272  0.8982
  654MOL0     H88243   7.712   8.193   5.524  0.2092  1.6793 -2.4400
  654MOL0     H88244   7.779   7.888   5.556 -1.6905 -2.1584 -3.7254
  654MOL0     H88245   7.641   7.978   5.618  0.7315  1.3856  0.0068
  654MOL0     H88246   7.671   7.931   5.321 -2.4219  0.6518 -1.6077
  654MOL0     H88247   7.529   8.002   5.399  1.3364  0.5217 -3.7315
  654MOL0     H88248   7.658   7.721   5.421 -1.7214 -0.7820 -2.0363
  654MOL0     H88249   7.502   7.762   5.358  1.4876  0.5302 -0.1109
  654MOL0     H88250   7.521   7.755   5.822  2.5651 -0.6849  3.7801
  654MOL0     H88251   7.625   7.577   5.946  5.3768 -2.9990  0.7040
  654MOL0     H88252   7.876   7.098   5.972  2.1726  0.7571 -0.3552
  654MOL0     H88253   7.995   7.025   6.149  0.5052  0.2620 -1.0315
  654MOL0     H88254   8.042   7.242   6.537  3.0363 -1.3845  2.2951
  654MOL0     H88255   7.889   7.141   6.529  0.5821 -1.7896  2.3241
  654MOL0     H88256   8.043   7.065   6.709  0.7824 -2.3690  0.1269
  654MOL0     H88257   8.000   6.940   6.590 -1.9664  1.2700 -4.1267
  654MOL0     H88258   8.214   6.953   6.492  2.3172 -0.8188  1.1789
  654MOL0     H88259   8.263   7.077   6.612 -0.5364 -1.2878  1.5235
  654MOL0     H88260   8.201   6.789   6.656 -0.7137  1.6361 -3.4383
  654MOL0     H88261   8.232   6.918   6.781  1.7047  0.3618  0.0576
  654MOL0     H88262   8.428   6.777   6.749  4.2809  1.6978  0.4048
  654MOL0     H88263   8.452   6.946   6.694 -2.2912  1.3588 -1.8142
  654MOL0     H88264   8.390   6.720   6.501  0.3757  0.7055 -1.4357
  654MOL0     H88265   8.440   6.885   6.451  2.8653 -0.9196 -2.0657
  654MOL0     H88266   8.611   6.676   6.593 -3.9416  0.5781  3.1530
  654MOL0     H88267   8.657   6.846   6.581 -0.7003  0.9322  0.5820
  654MOL0     H88268   8.613   6.622   6.351  1.1290  2.2335 -3.2321
  654MOL0     H88269   8.632   6.779   6.306 -2.9026 -1.3139 -1.8171
  654MOL0     H88270   7.858   7.318   6.413  3.2762 -1.2187  1.1259
  654MOL0     H88271   7.704   7.417   6.249  0.0501 -0.4566  0.5445
  654MOL0     H88272   7.637   7.328   5.590  4.6934  1.5432 -2.9473
  654MOL0     H88273   7.585   7.519   5.462  2.7687 -2.1498  0.3807
  654MOL0     H88274   7.922   7.780   4.321  0.2285  1.2655  0.5718
  654MOL0     H88275   7.966   7.639   4.113 -0.4495 -0.0494 -1.3156
  654MOL0     H88276   7.899   7.583   3.665  2.6132 -0.9122  3.8440
  654MOL0     H88277   7.954   7.444   3.466 -0.5615  1.7463  0.3810
  654MOL0     H88278   7.890   7.024   3.565  2.0682 -3.7686  0.3618
  654MOL0     H88279   8.045   7.030   3.488 -0.1755  2.1041 -0.7914
  654MOL0     H88280   7.929   6.865   3.347 -1.5524 -1.3180 -2.9030
  654MOL0     H88281   7.905   7.004   3.259 -1.7800 -4.7686 -2.1127
  654MOL0     H88282   7.700   6.888   3.292 -2.3210 -0.7538  1.0365
  654MOL0     H88283   7.674   7.037   3.378 -1.9639 -0.6878  0.2223
  654MOL0     H88284   7.729   6.758   3.497 -1.9499 -0.3712 -3.8611
  654MOL0     H88285   7.692   6.924   3.589 -1.8362  3.8773 -2.1130
  654MOL0     H88286   7.309   6.853   3.454 -0.2477 -4.1732 -0.4078
  654MOL0     H88287   7.737   7.124   3.642 -1.7301 -0.3497 -2.9985
  654MOL0     H88288   7.680   7.215   3.936  1.7083 -1.2034 -1.5384
  654MOL0     H88289   7.557   7.331   3.890  0.1253  0.3813 -1.2932
  654MOL0     H88290   7.562   7.175   3.818 -1.9447  1.3376  1.4136
  655MOL0     O88291   1.466   4.510   5.096  0.6589  0.3058 -0.2749
  655MOL0     C88292   1.446   4.458   4.986 -0.2960  0.6175 -0.7409
  655MOL0     O88293   1.541   4.470   4.878 -0.6256 -0.1383 -0.0273
  655MOL0     C88294   1.629   4.578   4.880 -0.8248  0.5874  0.8806
  655MOL0     C88295   1.733   4.598   4.974  0.2281 -1.1746 -0.9057
  655MOL0     C88296   1.822   4.709   4.970 -0.1524 -0.7188 -0.0828
  655MOL0     C88297   1.804   4.793   4.864 -0.7433  0.2970  0.2184
  655MOL0     O88298   1.892   4.893   4.841  0.1515 -0.1136  0.3012
  655MOL0     C88299   1.837   5.002   4.915  0.5155 -0.1752 -0.2292
  655MOL0     C88300   1.933   5.116   4.951  0.1874 -0.7721 -0.0098
  655MOL0     C88301   1.855   5.243   4.990 -1.1674 -0.5545  0.6917
  655MOL0     C88302   1.962   5.358   5.011 -0.3243  0.2744 -1.2415
  655MOL0     C88303   1.912   5.498   4.986  0.4442 -0.1144 -0.2136
  655MOL0     C88304   2.030   5.593   4.947  0.1326 -0.3371 -0.3446
  655MOL0     C88305   1.968   5.731   4.957  0.2305  0.4398  0.5076
  655MOL0     C88306   2.065   5.843   4.910  0.4647 -0.2403 -0.2368
  655MOL0     N88307   2.050   5.864   4.766 -0.0822 -0.1852  0.3458
  655MOL0     C88308   1.941   5.928   4.719  0.1791  0.2995  0.6103
  655MOL0     C88309   1.985   5.964   4.593 -0.9051 -1.0787 -0.2228
  655MOL0     C88310   1.909   6.054   4.493  0.3910 -0.0780  0.7972
  655MOL0     C88311   1.921   6.006   4.348  0.9763  0.7651  0.3059
  655MOL0     C88312   1.793   6.049   4.271 -0.1146  0.2751  0.2513
  655MOL0     C88313   1.836   6.080   4.125  0.0749  0.6270  0.3542
  655MOL0     O88314   1.742   6.042   4.018 -0.0070 -0.0268 -0.4397
  655MOL0     C88315   1.616   5.991   4.044 -0.1477  0.2131  0.6848
  655MOL0     C88316   1.510   6.082   4.062  0.7577  0.0668 -0.6381
  655MOL0     C88317   1.376   6.044   4.078  0.9584  0.4218  0.2057
  655MOL0     C88318   1.343   5.911   4.089  0.4895 -0.2444  0.1178
  655MOL0     C88319   1.200   5.867   4.112 -0.5173  0.0479 -0.2556
  655MOL0     O88320   1.103   5.952   4.092  0.1153 -0.4346 -0.2307
  655MOL0     C88321   0.974   5.909   4.104  0.3920  0.5489  1.4256
  655MOL0     C88322   0.919   5.849   3.990  0.3062  0.0864 -0.5594
  655MOL0     C88323   0.784   5.812   3.986 -1.7102 -0.0775  1.0314
  655MOL0     C88324   0.711   5.841   4.095  0.1891  0.0193  0.5813
  655MOL0     O88325   0.578   5.795   4.115  0.2322 -0.2262  1.3141
  655MOL0     C88326   0.550   5.657   4.063 -1.4353  0.4810 -0.5516
  655MOL0     C88327   0.493   5.576   4.181  0.0510 -0.6837 -0.1284
  655MOL0     C88328   0.339   5.599   4.207 -0.1984  0.1036  0.1918
  655MOL0     C88329   0.312   5.565   4.363 -0.2267 -0.0768  0.3293
  655MOL0     C88330   0.158   5.568   4.404 -0.3114 -0.7165 -0.4039
  655MOL0     C88331   0.107   5.711   4.418 -0.0322 -0.0625 -0.6290
  655MOL0     C88332   0.183   5.793   4.529  0.8978 -0.1785 -0.1086
  655MOL0     C88333   0.096   5.903   4.595  0.2304  0.0915 -0.6034
  655MOL0    Cl88334  -0.000   5.878   4.743 -0.3051  0.2602 -0.2353
  655MOL0     C88335   0.758   5.907   4.209 -0.7197 -1.2670 -0.1043
  655MOL0     C88336   0.893   5.944   4.208  0.3582  0.0876 -0.8065
  655MOL0     O88337   1.194   5.754   4.162  0.4346 -0.1127  0.2810
  655MOL0     C88338   1.445   5.819   4.060  0.1827 -0.4313 -0.3722
  655MOL0     C88339   1.576   5.854   4.042  0.0218  0.1975 -0.0872
  655MOL0     N88340   2.106   5.920   4.571 -0.3432  0.4658 -0.5771
  655MOL0     N88341   2.144   5.852   4.673  0.3399  0.5755 -0.0029
  655MOL0     C88342   1.717   4.768   4.762  0.0873  0.4027  0.0860
  655MOL0     C88343   1.631   4.661   4.767 -0.5478 -0.1727 -0.3015
  655MOL0     C88344   1.341   4.354   4.962 -1.0286  0.5523  0.2571
  655MOL0     C88345   1.364   4.237   4.880  0.1780 -0.0937  0.3716
  655MOL0     C88346   1.264   4.138   4.855 -0.1948  0.2439 -0.2407
  655MOL0     C88347   1.132   4.161   4.906 -0.3954 -0.2773 -0.4612
  655MOL0     O88348   1.022   4.080   4.879  0.7414 -0.5871 -0.1219
  655MOL0     C88349   0.982   4.085   4.742 -0.0062 -0.1653  0.5781
  655MOL0     C88350   0.908   3.959   4.713  0.5386  0.1671  0.6618
  655MOL0     C88351   0.841   3.967   4.571  0.0583  0.9537  0.3831
  655MOL0     C88352   0.924   3.992   4.450 -0.6905 -0.2567  0.6801
  655MOL0     C88353   0.823   4.001   4.330  0.0087  0.6658  0.0407
  655MOL0     C88354   0.755   4.010   4.225 -0.2173  1.0571 -0.5684
  655MOL0     C88355   1.113   4.283   4.973 -0.3843 -0.2514 -0.6450
  655MOL0     C88356   1.215   4.372   5.014 -0.4474  0.2389 -0.1383
  655MOL0     C88357   1.182   4.490   5.102  0.3635  0.2962  0.9718
  655MOL0     H88358   1.741   4.525   5.055 -2.3004 -0.0701  0.4597
  655MOL0     H88359   1.882   4.727   5.058 -0.0510 -2.0050  0.1281
  655MOL0     H88360   1.758   5.046   4.854 -0.1980 -0.1778  0.6669
  655MOL0     H88361   1.788   4.971   5.008  0.5198  2.4998  0.7580
  655MOL0     H88362   1.994   5.131   4.862  2.1152 -1.2523  1.1776
  655MOL0     H88363   1.988   5.088   5.041 -1.8295 -2.1316  0.8869
  655MOL0     H88364   1.800   5.219   5.082 -1.1724 -1.3077  0.4971
  655MOL0     H88365   1.790   5.283   4.911 -1.2468  0.1898  1.1236
  655MOL0     H88366   2.010   5.358   5.109  0.3995  3.4759 -1.4640
  655MOL0     H88367   2.046   5.347   4.941 -1.4467  0.1450 -2.6172
  655MOL0     H88368   1.835   5.498   4.908 -1.4552 -2.0646  1.5478
  655MOL0     H88369   1.863   5.530   5.078 -0.0348 -1.5349  0.0401
  655MOL0     H88370   2.121   5.597   5.008  0.5279  1.6955 -0.9754
  655MOL0     H88371   2.078   5.568   4.852 -1.1776 -0.0175 -1.1172
  655MOL0     H88372   1.958   5.761   5.062 -1.9131  0.9609  0.2053
  655MOL0     H88373   1.877   5.739   4.897  0.6552  1.7754  0.0024
  655MOL0     H88374   2.043   5.938   4.960  1.1350  0.5058 -1.2931
  655MOL0     H88375   2.167   5.829   4.944  1.8408  3.3176 -2.3193
  655MOL0     H88376   1.847   5.953   4.769  0.5650  2.1500  0.5072
  655MOL0     H88377   1.805   6.051   4.524  0.8479  1.8776  2.7594
  655MOL0     H88378   1.950   6.154   4.513 -0.5463  0.2865  0.9110
  655MOL0     H88379   2.005   6.062   4.305  2.4433 -1.4683  0.1261
  655MOL0     H88380   1.926   5.897   4.346  0.1789  0.6003  3.1843
  655MOL0     H88381   1.760   6.146   4.310 -0.6106  0.4259 -0.5264
  655MOL0     H88382   1.717   5.971   4.279  1.9199 -1.6925  1.4193
  655MOL0     H88383   1.928   6.023   4.107  0.5564  1.3734  0.4142
  655MOL0     H88384   1.852   6.188   4.118  5.0095  0.0538 -0.8049
  655MOL0     H88385   1.540   6.187   4.060  0.6744  0.1023 -0.2167
  655MOL0     H88386   1.293   6.115   4.081 -0.4144 -1.1536  1.9801
  655MOL0     H88387   0.977   5.839   3.899  1.7356 -1.2527  0.4485
  655MOL0     H88388   0.744   5.750   3.905  0.5409  0.9772 -1.0195
  655MOL0     H88389   0.488   5.667   3.974  3.6147 -2.2660 -4.9284
  655MOL0     H88390   0.646   5.614   4.036  0.6618  3.0214  2.1298
  655MOL0     H88391   0.519   5.471   4.165  0.9297 -0.5800  0.5389
  655MOL0     H88392   0.553   5.607   4.267  3.0775  1.0902 -2.6723
  655MOL0     H88393   0.316   5.706   4.199 -1.4840 -0.2289 -0.7202
  655MOL0     H88394   0.281   5.535   4.141  1.6497 -0.9441 -0.5018
  655MOL0     H88395   0.375   5.626   4.428  0.0055  1.1458 -1.0085
  655MOL0     H88396   0.346   5.461   4.373 -1.3255 -0.5246 -0.4539
  655MOL0     H88397   0.149   5.502   4.491  1.2677 -1.9383 -1.1278
  655MOL0     H88398   0.093   5.526   4.326  1.3440 -0.3383 -2.0434
  655MOL0     H88399   0.112   5.768   4.325 -5.4107 -0.1951 -1.3368
  655MOL0     H88400  -0.001   5.724   4.434  0.7414  3.0536  3.7014
  655MOL0     H88401   0.280   5.833   4.496  1.9778 -1.8248  0.9084
  655MOL0     H88402   0.212   5.736   4.618  2.0940  2.4090  1.2671
  655MOL0     H88403   0.161   5.988   4.614 -0.1230  0.0739  0.7533
  655MOL0     H88404   0.017   5.926   4.522 -2.9054 -1.4246  2.0486
  655MOL0     H88405   0.688   5.925   4.290  0.8307 -3.1272  1.7544
  655MOL0     H88406   0.940   6.003   4.286 -1.5017 -0.1086  0.5401
  655MOL0     H88407   1.428   5.712   4.053  2.1543 -0.6702 -2.8738
  655MOL0     H88408   1.639   5.770   4.014 -1.9242  0.0000 -4.9302
  655MOL0     H88409   1.732   4.826   4.671  3.0221 -1.8544 -1.0519
  655MOL0     H88410   1.563   4.633   4.687 -0.6115 -1.1388  0.0784
  655MOL0     H88411   1.458   4.234   4.827 -0.9476  2.7683 -2.0188
  655MOL0     H88412   1.282   4.061   4.781 -0.2583  2.3584 -2.6015
  655MOL0     H88413   1.065   4.093   4.672  1.2999 -1.8650  1.8462
  655MOL0     H88414   0.920   4.174   4.728 -1.8451 -1.6160 -1.0384
  655MOL0     H88415   0.828   3.943   4.785 -0.7387  0.5354 -0.6260
  655MOL0     H88416   0.971   3.870   4.719  0.0811 -0.3533 -1.4185
  655MOL0     H88417   0.757   4.036   4.571 -0.0224  0.8709  1.6967
  655MOL0     H88418   0.805   3.867   4.547  2.1732 -0.2022  1.6448
  655MOL0     H88419   0.972   4.087   4.472 -3.4687  0.9348  2.0078
  655MOL0     H88420   1.002   3.917   4.433 -0.4132  0.4106 -1.3188
  655MOL0     H88421   0.704   4.023   4.132 -1.3863  0.6886  0.0019
  655MOL0     H88422   1.014   4.295   5.015 -0.0388  1.7977 -0.3053
  655MOL0     H88423   1.210   4.587   5.058 -0.3717  0.1760  0.2187
  655MOL0     H88424   1.073   4.487   5.106  0.3777 -0.1551  1.0591
  655MOL0     H88425   1.231   4.476   5.199  0.0177 -3.4979  0.7468
  656MOL0     O88426  10.922   2.881   1.441  0.0321 -0.8190  0.3025
  656MOL0     C88427  10.839   2.801   1.409  0.1742  0.4966  0.1504
  656MOL0     O88428  10.775   2.719   1.507 -1.0879 -0.3787 -0.0102
  656MOL0     C88429  10.769   2.773   1.630  0.4999  0.0813  0.1193
  656MOL0     C88430  10.660   2.851   1.682 -0.2457 -0.1150  0.7004
  656MOL0     C88431  10.657   2.911   1.812  0.6523 -0.5162  0.0179
  656MOL0     C88432  10.767   2.897   1.889  0.2400 -0.5677 -0.1843
  656MOL0     O88433  10.774   2.940   2.021 -0.1677  0.2221  0.4743
  656MOL0     C88434  10.725   3.068   2.042 -0.3051 -0.0646 -0.1788
  656MOL0     C88435  10.813   3.146   2.142  0.1161 -1.4967  0.4623
  656MOL0     C88436  10.755   3.286   2.154  0.1632 -0.4364 -0.1437
  656MOL0     C88437  10.628   3.301   2.238 -0.2515 -1.0121  0.5419
  656MOL0     C88438  10.556   3.429   2.203  0.5768  0.0095 -0.3134
  656MOL0     C88439  10.421   3.435   2.292 -0.6671  0.7690  0.8021
  656MOL0     C88440  10.362   3.569   2.263 -0.7982  0.1213 -0.3329
  656MOL0     C88441  10.246   3.591   2.350  0.7082 -0.2449 -0.1301
  656MOL0     N88442  10.198   3.727   2.338 -0.0829 -0.1013  0.5781
  656MOL0     C88443  10.226   3.831   2.425 -0.0608  0.2482  0.2552
  656MOL0     C88444  10.161   3.937   2.373  0.3358  1.1808 -0.3824
  656MOL0     C88445  10.155   4.081   2.417  0.2943 -0.1212 -0.1679
  656MOL0     C88446  10.188   4.110   2.562  0.2450 -0.3451  0.7827
  656MOL0     C88447  10.071   4.079   2.657  0.0186  0.5029 -1.1682
  656MOL0     C88448  10.127   4.087   2.806  0.4430  0.3047  1.4788
  656MOL0     O88449  10.248   4.011   2.824  0.6852 -0.0302  0.7299
  656MOL0     C88450  10.244   3.900   2.900  0.0373 -0.0016  0.3577
  656MOL0     C88451  10.362   3.842   2.936 -0.4113 -0.9815  0.2856
  656MOL0     C88452  10.373   3.733   3.017  0.2210  0.1491 -0.4364
  656MOL0     C88453  10.254   3.665   3.061  0.3351 -0.4002  0.5063
  656MOL0     C88454  10.251   3.538   3.140 -1.1942  0.7622  0.5126
  656MOL0     O88455  10.130   3.481   3.161 -0.5561 -0.1154  0.2436
  656MOL0     C88456  10.144   3.361   3.223  0.7052  0.7685  0.7131
  656MOL0     C88457  10.134   3.243   3.147 -0.2225 -0.3106 -0.4880
  656MOL0     C88458  10.149   3.120   3.220  0.1018 -0.5218  0.0731
  656MOL0     C88459  10.162   3.119   3.362 -0.0492  0.1512  0.5652
  656MOL0     O88460  10.167   2.995   3.427  0.3743  0.2009 -0.4232
  656MOL0     C88461  10.263   2.895   3.386  0.2818 -0.1817 -0.0394
  656MOL0     C88462  10.217   2.754   3.422  0.0239  1.6445  0.4004
  656MOL0     C88463  10.220   2.722   3.578 -0.0640 -0.5426  0.9054
  656MOL0     C88464  10.163   2.586   3.613  0.5974  0.5832 -0.2951
  656MOL0     C88465  10.230   2.525   3.734 -0.3547  0.3234 -0.1355
  656MOL0     C88466  10.164   2.391   3.780  0.2348 -0.9441  0.9819
  656MOL0     C88467  10.207   2.332   3.917 -1.0150 -0.0929 -0.2741
  656MOL0     C88468  10.153   2.406   4.040  0.1288 -0.1907 -0.5679
  656MOL0    Cl88469  10.182   2.320   4.188 -0.1463  0.1519  0.0058
  656MOL0     C88470  10.155   3.243   3.435  1.2680  0.4131 -0.2002
  656MOL0     C88471  10.151   3.358   3.357  0.3028  0.0317 -0.0362
  656MOL0     O88472  10.356   3.500   3.185  0.0791 -0.4978 -0.5871
  656MOL0     C88473  10.132   3.723   3.029  1.1720  0.0134 -0.7622
  656MOL0     C88474  10.131   3.836   2.958  0.1752 -0.2807  0.5820
  656MOL0     N88475  10.083   3.889   2.266  0.6740 -0.4109  0.6886
  656MOL0     N88476  10.113   3.767   2.240 -0.1670 -0.3878  0.2063
  656MOL0     C88477  10.867   2.816   1.842  0.4802  0.6930  0.5387
  656MOL0     C88478  10.864   2.753   1.723 -0.1723  0.2419  0.8713
  656MOL0     C88479  10.813   2.776   1.265  1.5138  0.6585  0.5839
  656MOL0     C88480  10.753   2.648   1.237 -0.1517 -0.4994 -0.3817
  656MOL0     C88481  10.751   2.603   1.107  0.4729  0.1429 -0.3894
  656MOL0     C88482  10.797   2.681   1.004  0.6092  0.2380 -0.3350
  656MOL0     O88483  10.792   2.637   0.874 -0.3472 -0.3772  0.0135
  656MOL0     C88484  10.898   2.561   0.820  1.1089 -0.2063 -1.1850
  656MOL0     C88485  10.879   2.551   0.670 -0.6545 -0.3917 -0.0033
  656MOL0     C88486  10.868   2.676   0.586 -0.4437 -0.3605  1.0221
  656MOL0     C88487  10.879   2.663   0.434  0.1519 -0.1199  0.5611
  656MOL0     C88488  11.013   2.649   0.371  0.9860  0.8301  0.6522
  656MOL0     C88489  11.127   2.669   0.345 -0.5268 -0.2174 -0.6965
  656MOL0     C88490  10.838   2.809   1.034 -0.1116  0.0411  0.0363
  656MOL0     C88491  10.840   2.863   1.159  1.0617  0.2053 -0.0494
  656MOL0     C88492  10.902   3.000   1.190 -0.1427  0.3670  1.0398
  656MOL0     H88493  10.575   2.861   1.617  0.2005 -0.8754 -0.0195
  656MOL0     H88494  10.564   2.957   1.844  1.1724 -0.6575  1.8099
  656MOL0     H88495  10.746   3.122   1.950 -1.5318 -2.5275 -2.0084
  656MOL0     H88496  10.619   3.058   2.065  0.0674 -2.8999  0.7991
  656MOL0     H88497  10.916   3.143   2.105  0.6002 -3.0679  1.8038
  656MOL0     H88498  10.822   3.105   2.243  2.0142  0.4360  1.1610
  656MOL0     H88499  10.720   3.320   2.057 -3.8218  0.6103  1.4603
  656MOL0     H88500  10.832   3.357   2.188  0.7194 -0.8328 -0.5487
  656MOL0     H88501  10.567   3.213   2.211 -0.4068  0.0697 -3.0676
  656MOL0     H88502  10.650   3.303   2.345 -1.4499 -0.8410  0.8021
  656MOL0     H88503  10.630   3.506   2.228 -0.8372  0.7607  1.8267
  656MOL0     H88504  10.543   3.430   2.094 -1.3049 -0.7569 -0.1243
  656MOL0     H88505  10.353   3.353   2.268  2.2262 -1.5170 -0.1428
  656MOL0     H88506  10.446   3.423   2.398  0.7638 -1.1070  0.2940
  656MOL0     H88507  10.349   3.564   2.154  1.5481 -6.4276 -0.7656
  656MOL0     H88508  10.437   3.645   2.283 -1.4516  0.6722  0.0741
  656MOL0     H88509  10.162   3.526   2.322 -0.2154  1.7505 -2.3106
  656MOL0     H88510  10.264   3.574   2.456  0.2574 -0.7735 -0.1277
  656MOL0     H88511  10.308   3.825   2.496  1.3713  1.6596 -1.1939
  656MOL0     H88512  10.226   4.142   2.361  2.1622 -1.1104  1.0376
  656MOL0     H88513  10.063   4.133   2.387  0.0806  1.5534  2.9001
  656MOL0     H88514  10.284   4.065   2.591  1.1761  0.8647 -0.2921
  656MOL0     H88515  10.203   4.217   2.575 -0.6924 -0.1074  0.0122
  656MOL0     H88516  10.015   3.985   2.653  0.4316  0.0627  1.5847
  656MOL0     H88517   9.992   4.151   2.634 -0.1429  0.9557  0.6513
  656MOL0     H88518  10.044   4.075   2.876 -3.2196  0.4768 -2.4577
  656MOL0     H88519  10.159   4.190   2.827 -1.7447  1.3615  0.0099
  656MOL0     H88520  10.458   3.883   2.906  0.7957  1.6392  6.3987
  656MOL0     H88521  10.466   3.692   3.055 -1.8490 -2.1940  2.6188
  656MOL0     H88522  10.121   3.240   3.040  0.0114 -0.6591 -0.5093
  656MOL0     H88523  10.145   3.033   3.154  2.6963  1.9002 -3.7145
  656MOL0     H88524  10.294   2.906   3.282  0.3497  1.3210  0.1248
  656MOL0     H88525  10.354   2.915   3.443  0.1289 -1.8677  0.8680
  656MOL0     H88526  10.124   2.723   3.372  1.0816 -0.2986 -0.4827
  656MOL0     H88527  10.286   2.680   3.380 -2.2724 -1.0196  1.0152
  656MOL0     H88528  10.323   2.733   3.612  0.1208  0.9764 -0.0472
  656MOL0     H88529  10.163   2.803   3.625  0.7626  1.0251 -0.6425
  656MOL0     H88530  10.170   2.521   3.526 -0.3466 -1.4284  1.0602
  656MOL0     H88531  10.061   2.590   3.653  0.9427  3.5438  0.5700
  656MOL0     H88532  10.224   2.594   3.819 -0.0544  0.1143  0.0615
  656MOL0     H88533  10.334   2.518   3.702 -0.2381 -0.7930  0.4380
  656MOL0     H88534  10.055   2.396   3.771  0.0852 -3.7126  0.2379
  656MOL0     H88535  10.203   2.318   3.709  0.6383 -1.7675  2.0079
  656MOL0     H88536  10.314   2.321   3.936 -0.3835  0.9830 -2.7814
  656MOL0     H88537  10.176   2.227   3.921  0.5085 -0.7495 -3.2329
  656MOL0     H88538  10.199   2.504   4.052 -1.8769  0.5034  2.9409
  656MOL0     H88539  10.045   2.414   4.027  0.0942  0.5003  0.0636
  656MOL0     H88540  10.167   3.241   3.543  1.7691 -0.8097 -0.2618
  656MOL0     H88541  10.148   3.455   3.407  0.4113  1.1008 -2.0026
  656MOL0     H88542  10.042   3.683   3.077  0.9109  1.7028  0.2260
  656MOL0     H88543  10.029   3.872   2.943 -0.8887 -3.2324 -0.0183
  656MOL0     H88544  10.952   2.787   1.903 -0.3670 -0.5336  1.1786
  656MOL0     H88545  10.959   2.708   1.693  1.1965  0.8042  3.9397
  656MOL0     H88546  10.708   2.585   1.314 -2.0604  0.6346 -0.5255
  656MOL0     H88547  10.689   2.514   1.093 -1.6362  2.0189 -4.7338
  656MOL0     H88548  10.890   2.461   0.864  0.2174  0.8598  1.2550
  656MOL0     H88549  10.989   2.616   0.844  1.7607 -1.9552  0.5791
  656MOL0     H88550  10.781   2.505   0.655 -1.1611  0.5185  0.4271
  656MOL0     H88551  10.967   2.496   0.634  0.6242  0.2299  2.0245
  656MOL0     H88552  10.943   2.745   0.625  1.1733 -2.1282  1.1889
  656MOL0     H88553  10.772   2.723   0.609 -1.1446 -1.9650  1.5558
  656MOL0     H88554  10.805   2.592   0.394  0.4815  0.4149 -1.0977
  656MOL0     H88555  10.838   2.756   0.394 -1.6272 -1.2029 -0.2626
  656MOL0     H88556  11.222   2.703   0.308  0.6634  2.9628  4.2853
  656MOL0     H88557  10.861   2.866   0.944  2.1300  1.0156  1.1381
  656MOL0     H88558  10.916   3.057   1.098  1.1627  1.9390  2.1630
  656MOL0     H88559  10.843   3.069   1.251 -1.8336  1.7645 -1.9695
  656MOL0     H88560  11.002   2.981   1.229 -0.8363 -1.7120  1.9448
  657MOL0     O88561  10.186   8.015   1.861  0.3273 -0.4098 -0.3504
  657MOL0     C88562  10.285   7.941   1.883  0.2823  0.3884 -0.0447
  657MOL0     O88563  10.320   7.895   2.003  0.1766 -0.3131 -0.5573
  657MOL0     C88564  10.286   7.964   2.122  1.0969  0.1212 -0.2380
  657MOL0     C88565  10.196   7.911   2.218  0.2853  0.4337  0.2817
  657MOL0     C88566  10.190   7.966   2.350 -0.8833 -0.5725 -1.1167
  657MOL0     C88567  10.270   8.073   2.382  0.1701 -0.1095 -0.6271
  657MOL0     O88568  10.263   8.115   2.511  0.1358 -0.4151 -1.0456
  657MOL0     C88569  10.323   8.242   2.544 -0.2487  0.7499 -1.1464
  657MOL0     C88570  10.216   8.352   2.538 -0.4729 -0.0132  0.0903
  657MOL0     C88571  10.156   8.380   2.673 -0.3337 -0.5690 -0.5652
  657MOL0     C88572  10.075   8.512   2.669  0.3004  0.1730 -1.2384
  657MOL0     C88573  10.037   8.547   2.816 -0.4543  0.8885  0.5893
  657MOL0     C88574   9.954   8.667   2.831 -0.1052  0.6170  0.5723
  657MOL0     C88575  10.005   8.802   2.787  0.0018 -0.2512  0.3615
  657MOL0     C88576   9.889   8.916   2.772  0.2784  1.2041  0.7561
  657MOL0     N88577   9.856   9.014   2.881  0.5799  0.2822 -0.9102
  657MOL0     C88578   9.818   8.980   3.010  0.6368 -0.0674  0.0420
  657MOL0     C88579   9.783   9.101   3.071 -0.5973  0.3605 -0.4458
  657MOL0     C88580   9.723   9.123   3.208  0.4256 -0.1458 -0.5174
  657MOL0     C88581   9.640   9.243   3.222  0.3659 -0.4082 -0.4895
  657MOL0     C88582   9.564   9.215   3.357 -0.9009  0.3156  0.9370
  657MOL0     C88583   9.479   9.333   3.413  0.0827  0.0854 -0.6097
  657MOL0     O88584   9.420   9.313   3.543 -0.2344  0.2916 -0.6913
  657MOL0     C88585   9.288   9.282   3.568 -0.4399  0.2681 -0.4525
  657MOL0     C88586   9.238   9.303   3.694  0.4914  0.4356  0.0620
  657MOL0     C88587   9.109   9.295   3.731  0.7213 -0.1285  0.6314
  657MOL0     C88588   9.017   9.252   3.635 -0.3391 -0.7886  0.1395
  657MOL0     C88589   8.876   9.238   3.668 -0.3593 -0.0133  0.8366
  657MOL0     O88590   8.796   9.183   3.569 -0.6681 -0.2160 -0.3140
  657MOL0     C88591   8.667   9.184   3.585  0.3443 -0.0672  0.7496
  657MOL0     C88592   8.603   9.134   3.699  0.5872 -0.2010 -0.2499
  657MOL0     C88593   8.470   9.179   3.713 -0.0085  0.1530 -0.4050
  657MOL0     C88594   8.393   9.250   3.622  0.0373 -0.0697  0.1705
  657MOL0     O88595   8.266   9.265   3.644  0.4059 -0.5965  0.0092
  657MOL0     C88596   8.178   9.253   3.530  0.2668  0.4398  0.0579
  657MOL0     C88597   8.028   9.230   3.565 -0.1117  1.2500 -0.4601
  657MOL0     C88598   7.987   9.137   3.668 -0.5683  0.4092 -0.5828
  657MOL0     C88599   7.842   9.145   3.720 -0.1878 -0.8555  0.5942
  657MOL0     C88600   7.819   9.087   3.859 -0.2409 -0.0741 -0.1549
  657MOL0     C88601   7.668   9.055   3.867  0.8317  0.2536 -0.9737
  657MOL0     C88602   7.629   8.999   4.007  0.3864  1.2802 -1.2965
  657MOL0     C88603   7.486   9.016   4.031  1.1696  0.2962 -0.2628
  657MOL0    Cl88604   7.431   9.186   4.055  0.3999 -0.2901 -0.1338
  657MOL0     C88605   8.462   9.305   3.521 -0.4550 -0.4971 -0.2563
  657MOL0     C88606   8.601   9.268   3.496  0.4452  0.4233 -0.1803
  657MOL0     O88607   8.835   9.282   3.774  0.5345  0.9804 -0.3932
  657MOL0     C88608   9.061   9.230   3.501 -0.5388  0.4148 -0.1392
  657MOL0     C88609   9.196   9.247   3.471 -0.4376  0.0987 -0.0111
  657MOL0     N88610   9.829   9.195   2.987  0.3899  0.3488  0.6001
  657MOL0     N88611   9.867   9.142   2.874  0.2574  0.2382  0.3309
  657MOL0     C88612  10.332   8.145   2.275 -0.4945  0.4154  0.0600
  657MOL0     C88613  10.340   8.084   2.152  0.6675 -0.0855 -0.0313
  657MOL0     C88614  10.363   7.883   1.763  0.0696 -0.8289 -0.7581
  657MOL0     C88615  10.448   7.777   1.788 -1.4505  0.4064 -0.3331
  657MOL0     C88616  10.521   7.706   1.692  0.6704 -0.3912  0.6902
  657MOL0     C88617  10.498   7.748   1.555 -0.8212  0.1132  0.3312
  657MOL0     O88618  10.556   7.695   1.440 -0.1600  0.2352  0.8854
  657MOL0     C88619  10.682   7.637   1.453  0.2952  0.4916 -0.4152
  657MOL0     C88620  10.744   7.608   1.312  0.0295  0.5345 -0.4303
  657MOL0     C88621  10.885   7.560   1.332  0.0207 -0.3640 -1.1019
  657MOL0     C88622  10.956   7.521   1.199 -0.1573 -0.3556 -0.6474
  657MOL0     C88623  11.082   7.591   1.168 -0.1474  1.1562 -0.3177
  657MOL0     C88624  11.183   7.655   1.157 -0.1419 -0.0910 -0.9121
  657MOL0     C88625  10.425   7.863   1.535  0.2712  0.8121 -0.5862
  657MOL0     C88626  10.353   7.932   1.633 -0.0451 -0.0814  0.2526
  657MOL0     C88627  10.254   8.030   1.585  1.4344 -0.5138  0.7774
  657MOL0     H88628  10.138   7.822   2.197 -3.3538  1.9419  2.9284
  657MOL0     H88629  10.136   7.927   2.436  0.9095  0.9342  0.8105
  657MOL0     H88630  10.354   8.227   2.648 -0.2129 -0.5320 -1.3301
  657MOL0     H88631  10.415   8.275   2.496  1.4121 -1.6240  0.1986
  657MOL0     H88632  10.137   8.320   2.470 -1.0568 -0.8976  1.1560
  657MOL0     H88633  10.264   8.442   2.498 -2.7841  0.7601 -1.1572
  657MOL0     H88634  10.239   8.380   2.743 -1.3487  0.0397  0.6857
  657MOL0     H88635  10.100   8.293   2.708  4.0672 -3.4466  0.0333
  657MOL0     H88636  10.140   8.595   2.638  0.4529  1.5781  2.3829
  657MOL0     H88637   9.983   8.506   2.609 -1.5838 -2.6263  1.5852
  657MOL0     H88638   9.999   8.457   2.864  0.0972  0.3441  0.0272
  657MOL0     H88639  10.138   8.558   2.857 -0.2504 -2.6090  1.3713
  657MOL0     H88640   9.865   8.647   2.771 -0.2349  0.7138  0.7339
  657MOL0     H88641   9.920   8.677   2.934 -2.3681  0.3385 -0.0902
  657MOL0     H88642  10.058   8.795   2.692 -1.2070 -0.2427 -0.3348
  657MOL0     H88643  10.076   8.849   2.856 -0.4536  4.4822 -1.9926
  657MOL0     H88644   9.899   8.980   2.683 -3.6107 -2.2543 -2.5469
  657MOL0     H88645   9.800   8.860   2.742 -1.4546  4.3520 -0.4695
  657MOL0     H88646   9.804   8.885   3.060 -0.4391 -1.5124 -2.7824
  657MOL0     H88647   9.667   9.036   3.242  0.2246 -1.7919 -4.5082
  657MOL0     H88648   9.801   9.143   3.283 -1.3295  0.5824  1.2198
  657MOL0     H88649   9.688   9.341   3.217  1.2890 -0.8641 -0.5692
  657MOL0     H88650   9.564   9.238   3.144  2.2695  0.4673 -2.4832
  657MOL0     H88651   9.651   9.210   3.424 -0.9667 -2.6125  0.9136
  657MOL0     H88652   9.504   9.124   3.352  2.0660 -1.8553  1.8056
  657MOL0     H88653   9.398   9.362   3.346 -0.5108 -1.6279 -0.6859
  657MOL0     H88654   9.538   9.424   3.423  0.1884 -0.0255 -0.1653
  657MOL0     H88655   9.322   9.337   3.753  0.4019  2.1235 -0.7210
  657MOL0     H88656   9.078   9.321   3.831 -0.6819  0.7185  0.0060
  657MOL0     H88657   8.663   9.080   3.771 -0.7623 -0.0679  1.0062
  657MOL0     H88658   8.407   9.135   3.790 -1.4299 -0.2697 -1.7554
  657MOL0     H88659   8.173   9.332   3.455  3.0715 -0.3175 -1.0675
  657MOL0     H88660   8.206   9.164   3.472  0.1807 -0.0397  0.7370
  657MOL0     H88661   7.992   9.328   3.599 -2.3525 -0.2794  1.9175
  657MOL0     H88662   7.985   9.204   3.467 -0.5097 -0.8162  0.2268
  657MOL0     H88663   8.006   9.039   3.624 -1.5496  0.4292 -1.0650
  657MOL0     H88664   8.067   9.152   3.742 -0.3825  4.0931 -1.3163
  657MOL0     H88665   7.777   9.100   3.645  0.5846  1.8645 -1.9023
  657MOL0     H88666   7.800   9.246   3.717 -4.4333 -2.4340 -2.2793
  657MOL0     H88667   7.844   9.161   3.935 -2.7373 -0.9684  1.6650
  657MOL0     H88668   7.881   8.998   3.866  0.5291  0.2265 -2.3815
  657MOL0     H88669   7.614   9.149   3.846 -1.8233 -1.2102 -1.1063
  657MOL0     H88670   7.644   8.981   3.790  1.9393 -0.3445 -0.7494
  657MOL0     H88671   7.686   9.042   4.090  1.1651 -1.6686 -0.1777
  657MOL0     H88672   7.648   8.892   3.999  0.1191  1.0476  0.5936
  657MOL0     H88673   7.432   8.967   3.950  2.7492  0.1125 -1.2413
  657MOL0     H88674   7.463   8.950   4.116 -0.2855 -1.6890 -2.0805
  657MOL0     H88675   8.410   9.371   3.453 -0.5320  1.4740  1.5980
  657MOL0     H88676   8.641   9.318   3.409 -2.8674  0.7548 -1.6803
  657MOL0     H88677   8.997   9.192   3.422  1.3708 -1.1038 -1.0568
  657MOL0     H88678   9.218   9.241   3.365 -2.1864 -0.0169 -0.4122
  657MOL0     H88679  10.393   8.232   2.291  2.7628 -1.3809 -1.5274
  657MOL0     H88680  10.407   8.132   2.081 -0.4909  1.1884 -0.3126
  657MOL0     H88681  10.468   7.750   1.891  0.6097  2.2525 -0.1682
  657MOL0     H88682  10.602   7.637   1.711  0.7208 -0.8807 -1.0640
  657MOL0     H88683  10.676   7.533   1.488  1.2543  0.0405 -1.5072
  657MOL0     H88684  10.747   7.695   1.518  0.5390  0.5397 -0.6997
  657MOL0     H88685  10.745   7.701   1.255 -0.1373  0.5687 -0.3792
  657MOL0     H88686  10.688   7.533   1.255  0.0156  0.0271  0.2419
  657MOL0     H88687  10.873   7.465   1.385 -0.6455 -0.9043 -2.1722
  657MOL0     H88688  10.937   7.638   1.389 -1.3592  0.3759 -0.8029
  657MOL0     H88689  10.986   7.416   1.207  0.7299 -0.1641 -1.3327
  657MOL0     H88690  10.888   7.537   1.114 -0.6580  0.2195 -0.1487
  657MOL0     H88691  11.268   7.717   1.138 -1.4313  3.1791  2.7013
  657MOL0     H88692  10.427   7.884   1.428 -0.2126 -0.2601 -0.8230
  657MOL0     H88693  10.258   8.033   1.476 -1.6589  0.1350  0.5635
  657MOL0     H88694  10.153   7.998   1.614  2.6647 -0.4343  6.1710
  657MOL0     H88695  10.265   8.129   1.631 -1.9853  0.5667 -0.3889
  658MOL0     O88696   4.971   8.279   0.675  0.5712  0.2602  0.5881
  658MOL0     C88697   4.868   8.338   0.637  0.0892  0.4714  0.3659
  658MOL0     O88698   4.815   8.323   0.515  0.1111  0.6112  0.2246
  658MOL0     C88699   4.872   8.220   0.436 -0.6317 -0.4086  0.3824
  658MOL0     C88700   4.811   8.088   0.412 -0.6131 -0.4700 -0.2549
  658MOL0     C88701   4.868   8.005   0.315 -0.9012 -0.8290 -0.3396
  658MOL0     C88702   4.976   8.049   0.240  0.5088 -0.4581 -1.4815
  658MOL0     O88703   5.004   7.962   0.132 -0.9113 -0.0511 -0.3493
  658MOL0     C88704   5.127   7.981   0.070 -1.1613  0.0426 -0.3245
  658MOL0     C88705   5.183   7.847   0.016  0.5517  0.1401 -0.5764
  658MOL0     C88706   5.097   7.786  -0.097 -0.0293 -0.3172 -0.2705
  658MOL0     C88707   5.016   7.674  -0.036 -0.1129 -0.0475 -0.7578
  658MOL0     C88708   4.961   7.589  -0.153 -0.0069  0.3900 -0.1560
  658MOL0     C88709   4.912   7.448  -0.101  0.0908  0.0372 -0.6770
  658MOL0     C88710   4.867   7.361  -0.223 -0.2131 -0.7222  0.3355
  658MOL0     C88711   4.956   7.343  -0.346 -0.9129 -0.0046 -0.5516
  658MOL0     N88712   5.086   7.286  -0.317 -0.1520  0.0373  0.0394
  658MOL0     C88713   5.168   7.237  -0.422  0.7779 -0.8584 -0.0337
  658MOL0     C88714   5.266   7.178  -0.353  0.8080  0.3499 -0.1226
  658MOL0     C88715   5.398   7.120  -0.402 -0.6093 -0.2187  0.4490
  658MOL0     C88716   5.516   7.225  -0.405 -0.2583  0.0266 -0.5362
  658MOL0     C88717   5.521   7.317  -0.531  0.3165 -0.3863  0.2853
  658MOL0     C88718   5.634   7.424  -0.528 -0.5571  0.2257  0.1958
  658MOL0     O88719   5.670   7.439  -0.667 -0.0464  0.4174 -0.6173
  658MOL0     C88720   5.747   7.548  -0.697 -0.0227 -0.1725  0.3006
  658MOL0     C88721   5.802   7.635  -0.609  0.5951  0.0159 -0.4432
  658MOL0     C88722   5.867   7.756  -0.648  0.3823  0.6927  1.0749
  658MOL0     C88723   5.861   7.795  -0.786 -0.3015 -0.3932 -0.8933
  658MOL0     C88724   5.892   7.933  -0.827 -0.6781 -0.7284  0.1120
  658MOL0     O88725   5.958   8.011  -0.736 -0.3936 -0.8615 -0.2841
  658MOL0     C88726   6.013   8.131  -0.773  0.6981 -0.7611 -0.7424
  658MOL0     C88727   6.142   8.143  -0.813  0.2867  0.2984  0.2374
  658MOL0     C88728   6.188   8.260  -0.872  0.2000  0.0527 -0.8284
  658MOL0     C88729   6.126   8.374  -0.853  0.9337 -0.7396  0.7472
  658MOL0     O88730   6.197   8.485  -0.886 -0.8697  0.2124  0.1550
  658MOL0     C88731   6.125   8.601  -0.951 -0.6355  0.4010 -0.9158
  658MOL0     C88732   6.211   8.682  -1.044 -0.7303 -0.3472  0.5969
  658MOL0     C88733   6.329   8.753  -0.974  0.1141  0.3206  0.2007
  658MOL0     C88734   6.355   8.882  -1.047  0.0340  0.1960  0.7898
  658MOL0     C88735   6.469   8.964  -0.985  0.5295 -0.3227  0.2408
  658MOL0     C88736   6.532   9.067  -1.086 -0.9422  0.5473 -0.7979
  658MOL0     C88737   6.423   9.163  -1.121  0.1139  0.6923 -0.2599
  658MOL0     C88738   6.479   9.297  -1.186  0.3785 -0.2023 -0.1469
  658MOL0    Cl88739   6.578   9.394  -1.062  0.2945  0.2071  0.3970
  658MOL0     C88740   5.989   8.366  -0.807 -0.9196  0.1383 -0.1676
  658MOL0     C88741   5.927   8.240  -0.770 -0.4466 -0.2203 -0.0887
  658MOL0     O88742   5.860   7.960  -0.939 -0.1045 -0.9612  0.2071
  658MOL0     C88743   5.808   7.699  -0.876 -0.0100  0.1078  0.2261
  658MOL0     C88744   5.757   7.573  -0.835 -0.4233 -0.6542  0.7064
  658MOL0     N88745   5.229   7.177  -0.222 -0.0698 -0.6886 -0.7132
  658MOL0     N88746   5.123   7.238  -0.195  0.2359 -0.0137  0.6541
  658MOL0     C88747   5.025   8.178   0.250  0.2753  0.2348 -0.5148
  658MOL0     C88748   4.975   8.262   0.347 -0.8750 -0.2314 -0.5650
  658MOL0     C88749   4.803   8.444   0.725 -0.6634  0.5427  0.6909
  658MOL0     C88750   4.723   8.544   0.665 -0.1904  0.4187  0.7236
  658MOL0     C88751   4.642   8.634   0.748 -0.5602  0.9682  0.6812
  658MOL0     C88752   4.650   8.615   0.886  0.3776 -0.5778 -0.3908
  658MOL0     O88753   4.584   8.688   0.979  0.4863 -0.1530  0.6958
  658MOL0     C88754   4.515   8.809   0.928 -0.3613  0.1065 -0.8028
  658MOL0     C88755   4.423   8.873   1.033 -0.3860  0.0082  0.0072
  658MOL0     C88756   4.503   8.976   1.118 -0.1874 -0.2138  0.0776
  658MOL0     C88757   4.426   9.036   1.242 -0.2955  0.4348  1.3921
  658MOL0     C88758   4.426   8.950   1.356 -0.4397 -0.3749 -0.8709
  658MOL0     C88759   4.438   8.882   1.451  0.2584  0.1014 -0.7679
  658MOL0     C88760   4.734   8.521   0.941  0.0873 -0.2473 -0.5375
  658MOL0     C88761   4.807   8.435   0.864  0.1737 -0.9545  0.5669
  658MOL0     C88762   4.894   8.333   0.929  0.0274  0.1691 -1.0799
  658MOL0     H88763   4.741   8.043   0.480  0.7893 -2.9511 -0.3529
  658MOL0     H88764   4.828   7.906   0.293  0.4410 -0.9082 -2.8419
  658MOL0     H88765   5.131   8.050  -0.014  3.8262 -0.5841 -0.8815
  658MOL0     H88766   5.200   8.020   0.142 -1.4878 -2.3037  1.4014
  658MOL0     H88767   5.199   7.768   0.090  3.3353 -1.4987 -2.7722
  658MOL0     H88768   5.274   7.874  -0.038  0.1305 -1.2478 -2.0383
  658MOL0     H88769   5.167   7.746  -0.171 -2.2440  0.3214 -2.8902
  658MOL0     H88770   5.037   7.866  -0.141  2.4818 -0.0608 -3.6040
  658MOL0     H88771   5.073   7.604   0.025 -1.9048  0.3450  1.5266
  658MOL0     H88772   4.935   7.703   0.032  0.6876 -1.4163  0.8458
  658MOL0     H88773   4.871   7.637  -0.193 -1.7330 -1.3492  1.4418
  658MOL0     H88774   5.038   7.564  -0.227  1.6345 -0.2217  1.6657
  658MOL0     H88775   4.981   7.390  -0.040  0.2276 -0.2197 -1.0685
  658MOL0     H88776   4.823   7.465  -0.039  2.3871  2.1559  2.3396
  658MOL0     H88777   4.774   7.407  -0.257 -0.1200  1.2928  2.5259
  658MOL0     H88778   4.843   7.268  -0.169 -3.4174  1.5108  3.1805
  658MOL0     H88779   4.905   7.261  -0.397  0.6458 -0.5526 -1.2888
  658MOL0     H88780   4.984   7.426  -0.412 -0.9439 -2.1739 -3.5077
  658MOL0     H88781   5.168   7.270  -0.525  1.1249  0.3954  0.3572
  658MOL0     H88782   5.419   7.054  -0.318  1.1704  0.1637  0.3544
  658MOL0     H88783   5.385   7.062  -0.494 -2.2614 -1.2678  1.2980
  658MOL0     H88784   5.524   7.281  -0.311  0.8516  1.4190 -1.4121
  658MOL0     H88785   5.608   7.166  -0.405  2.0187  3.2550  0.5633
  658MOL0     H88786   5.419   7.358  -0.540  1.7828  3.5628 -0.7666
  658MOL0     H88787   5.549   7.253  -0.615  2.3699  0.7986  0.0011
  658MOL0     H88788   5.729   7.396  -0.480  2.1262  1.8083 -3.6640
  658MOL0     H88789   5.594   7.514  -0.480  1.8478  0.1154  2.7101
  658MOL0     H88790   5.804   7.622  -0.502 -1.8843 -1.3478 -0.4995
  658MOL0     H88791   5.900   7.829  -0.575  3.7387  1.0749 -0.6663
  658MOL0     H88792   6.207   8.057  -0.801 -1.0606 -0.9337 -0.9099
  658MOL0     H88793   6.286   8.260  -0.918  0.6858  0.3505  0.1691
  658MOL0     H88794   6.028   8.569  -0.991 -1.1524 -1.2477  1.4164
  658MOL0     H88795   6.096   8.673  -0.873  1.5844 -1.7188  2.0970
  658MOL0     H88796   6.241   8.608  -1.118 -1.4101  0.9633 -1.0574
  658MOL0     H88797   6.153   8.751  -1.105  3.6357  1.8211 -1.6145
  658MOL0     H88798   6.302   8.769  -0.870 -0.9815  3.9009 -0.4985
  658MOL0     H88799   6.427   8.703  -0.974  0.1208  0.3319  0.6301
  658MOL0     H88800   6.271   8.952  -1.039  1.9974  3.2955 -2.4486
  658MOL0     H88801   6.380   8.870  -1.152  0.4216  3.7855  0.3289
  658MOL0     H88802   6.555   8.901  -0.963  1.8067  0.7486 -1.4742
  658MOL0     H88803   6.432   9.008  -0.892  0.4033  0.5731 -0.2184
  658MOL0     H88804   6.617   9.120  -1.041 -1.6752  3.0299 -2.1302
  658MOL0     H88805   6.579   9.018  -1.171  1.0130 -3.8523  2.4207
  658MOL0     H88806   6.369   9.179  -1.027 -1.0703 -3.1575 -0.0828
  658MOL0     H88807   6.348   9.118  -1.188  0.4191  1.1631 -0.9390
  658MOL0     H88808   6.551   9.264  -1.261 -3.1416 -1.1491 -3.4069
  658MOL0     H88809   6.409   9.361  -1.239  1.1818 -0.1923 -1.2281
  658MOL0     H88810   5.943   8.464  -0.812  3.0675  2.1472 -4.0805
  658MOL0     H88811   5.823   8.227  -0.741 -1.2919  0.4058 -2.5749
  658MOL0     H88812   5.818   7.725  -0.981  1.9772  0.4955  0.4693
  658MOL0     H88813   5.716   7.505  -0.910 -1.2104  0.5072  0.0443
  658MOL0     H88814   5.088   8.218   0.172  0.9675  1.8499  0.8121
  658MOL0     H88815   5.028   8.355   0.363  0.5096 -1.3128  1.6987
  658MOL0     H88816   4.712   8.549   0.557 -0.6144 -4.4531  0.3182
  658MOL0     H88817   4.572   8.702   0.701 -1.8213 -0.2251  0.7692
  658MOL0     H88818   4.444   8.779   0.850 -2.8996  0.2081  1.3270
  658MOL0     H88819   4.590   8.880   0.892  0.0143 -0.9353 -2.1719
  658MOL0     H88820   4.363   8.801   1.088 -0.2925  1.1670  1.6858
  658MOL0     H88821   4.363   8.940   0.970  2.2373  1.5227 -1.0842
  658MOL0     H88822   4.525   9.059   1.050 -2.0892  0.8645  0.7006
  658MOL0     H88823   4.591   8.926   1.160 -0.3660 -0.3386  0.3040
  658MOL0     H88824   4.475   9.129   1.272  1.9805  1.2360 -3.7428
  658MOL0     H88825   4.324   9.061   1.214  0.2518  0.3784 -0.8562
  658MOL0     H88826   4.437   8.802   1.522  0.8687  0.8807  0.1361
  658MOL0     H88827   4.738   8.499   1.047  1.8290 -0.0555 -0.5379
  658MOL0     H88828   4.893   8.349   1.037  3.4381 -3.0942 -0.3564
  658MOL0     H88829   4.863   8.231   0.906 -1.4570  0.9032 -2.6124
  658MOL0     H88830   4.998   8.355   0.903 -0.1967 -0.1885 -2.3554
  659MOL0     O88831   4.253   7.669   6.161  0.0662  0.7708  1.3346
  659MOL0     C88832   4.165   7.743   6.113  0.9246 -0.5227 -0.2480
  659MOL0     O88833   4.160   7.793   5.984 -0.0660 -0.0013  0.1516
  659MOL0     C88834   4.283   7.820   5.931  0.0866  0.0227  0.6105
  659MOL0     C88835   4.319   7.949   5.900 -0.2530  0.7053  1.1190
  659MOL0     C88836   4.438   7.971   5.826 -0.3206  1.2262  0.6900
  659MOL0     C88837   4.517   7.864   5.788 -0.7194 -0.2603  0.6172
  659MOL0     O88838   4.625   7.891   5.709  0.1965  0.0585  0.0584
  659MOL0     C88839   4.748   7.865   5.777  0.2526  0.1349 -0.2561
  659MOL0     C88840   4.847   7.807   5.676  0.0675  0.6444  0.2675
  659MOL0     C88841   4.994   7.848   5.714  0.0603 -0.7082  0.7992
  659MOL0     C88842   5.069   7.744   5.794 -1.0016  0.0915 -0.2350
  659MOL0     C88843   5.207   7.803   5.838 -0.0356  0.7150 -0.2889
  659MOL0     C88844   5.303   7.699   5.914  0.9041 -0.7341 -0.2677
  659MOL0     C88845   5.433   7.767   5.944 -0.5274 -0.2147 -0.0761
  659MOL0     C88846   5.445   7.836   6.086 -0.5558 -0.4919  0.1766
  659MOL0     N88847   5.581   7.846   6.130  0.3015 -0.0254 -0.2380
  659MOL0     C88848   5.649   7.741   6.177 -0.6094  0.9128 -0.0960
  659MOL0     C88849   5.775   7.780   6.167 -0.1307 -0.2534 -0.4427
  659MOL0     C88850   5.896   7.710   6.208  0.0840  0.2914 -0.9766
  659MOL0     C88851   5.922   7.590   6.112  0.3520 -0.0055 -0.9240
  659MOL0     C88852   6.049   7.527   6.150  0.0659  0.2985  0.0776
  659MOL0     C88853   6.058   7.386   6.089  0.2519  1.4993  0.1848
  659MOL0     O88854   6.190   7.339   6.126  0.0080 -0.8325 -0.2032
  659MOL0     C88855   6.251   7.226   6.067  0.6561  0.3132 -0.0305
  659MOL0     C88856   6.178   7.129   5.998 -0.4132  0.3568  0.3808
  659MOL0     C88857   6.236   7.012   5.944 -0.2969 -0.0352 -0.5605
  659MOL0     C88858   6.375   7.007   5.949  0.3019  0.3553  0.0018
  659MOL0     C88859   6.446   6.899   5.879 -0.3864  0.5716 -0.1519
  659MOL0     O88860   6.372   6.797   5.823 -0.6710 -0.6344 -0.2422
  659MOL0     C88861   6.429   6.682   5.794 -0.5879  0.0848 -0.4991
  659MOL0     C88862   6.515   6.671   5.685  0.2234  0.2248  0.9683
  659MOL0     C88863   6.592   6.555   5.682  0.5684  0.9466 -0.3717
  659MOL0     C88864   6.573   6.452   5.781  0.1327 -0.7546  0.0618
  659MOL0     O88865   6.654   6.339   5.775  0.1209 -0.0521  0.4283
  659MOL0     C88866   6.683   6.266   5.899 -1.0303  0.0204  0.6064
  659MOL0     C88867   6.770   6.342   5.996  0.6701 -0.5871 -0.1540
  659MOL0     C88868   6.924   6.353   5.955 -0.3270  0.7404  0.7749
  659MOL0     C88869   7.020   6.356   6.077 -0.3137  0.0829 -0.2469
  659MOL0     C88870   7.151   6.392   6.016 -0.8845 -1.4229  0.0200
  659MOL0     C88871   7.264   6.382   6.121  0.2177 -0.2894  0.0284
  659MOL0     C88872   7.397   6.449   6.075  0.8576 -0.7655  0.0951
  659MOL0     C88873   7.522   6.389   6.140  0.5344 -0.6081 -0.8713
  659MOL0    Cl88874   7.682   6.434   6.061 -0.6217 -0.0510 -0.1288
  659MOL0     C88875   6.478   6.468   5.880  0.2351 -0.3604  0.7029
  659MOL0     C88876   6.414   6.582   5.886  1.1080 -0.0334 -0.4746
  659MOL0     O88877   6.567   6.909   5.879  0.1479 -0.5993  0.2243
  659MOL0     C88878   6.446   7.101   6.024  0.8569 -0.2409  0.6257
  659MOL0     C88879   6.380   7.206   6.096  0.3608  0.4289 -0.4295
  659MOL0     N88880   5.781   7.907   6.104 -0.2220  0.3510 -0.6652
  659MOL0     N88881   5.664   7.947   6.088  0.3634  0.5307  0.2922
  659MOL0     C88882   4.473   7.735   5.806  0.2567  0.2705 -0.2662
  659MOL0     C88883   4.358   7.717   5.883 -1.3094 -0.1424  0.3459
  659MOL0     C88884   4.040   7.753   6.188 -0.4576 -0.4718  0.2450
  659MOL0     C88885   3.996   7.623   6.239 -0.7613  0.1626  0.1871
  659MOL0     C88886   3.879   7.620   6.308  0.6370  0.7916 -0.3281
  659MOL0     C88887   3.800   7.732   6.344 -0.9043 -0.1306  0.8124
  659MOL0     O88888   3.695   7.715   6.425  0.4481 -0.0341  0.3211
  659MOL0     C88889   3.739   7.670   6.557 -0.0796 -0.6524 -0.2011
  659MOL0     C88890   3.637   7.724   6.654  0.5989  0.4666 -0.5163
  659MOL0     C88891   3.671   7.675   6.797 -0.8264 -0.1586 -0.0941
  659MOL0     C88892   3.562   7.749   6.891 -0.3834  0.4230 -1.3425
  659MOL0     C88893   3.622   7.772   7.024 -0.7983 -0.2282  1.0063
  659MOL0     C88894   3.673   7.791   7.141 -0.3590  0.0616 -0.0613
  659MOL0     C88895   3.839   7.859   6.286  0.2145 -0.0374 -0.5490
  659MOL0     C88896   3.956   7.865   6.208  0.3043  0.5137  0.1034
  659MOL0     C88897   4.002   8.008   6.149  1.4151  0.4046  0.7722
  659MOL0     H88898   4.243   8.020   5.928 -0.3207  1.8597 -1.6712
  659MOL0     H88899   4.472   8.073   5.814  1.4329  1.2033  4.2943
  659MOL0     H88900   4.794   7.952   5.824  0.9951 -0.4724  0.1765
  659MOL0     H88901   4.738   7.785   5.851 -0.7973 -2.2768 -2.8076
  659MOL0     H88902   4.824   7.832   5.572 -0.1310  0.3253  0.2340
  659MOL0     H88903   4.825   7.700   5.682 -4.3133  1.4324  1.4435
  659MOL0     H88904   4.996   7.940   5.774 -0.0359  0.1693 -0.5132
  659MOL0     H88905   5.054   7.878   5.628 -0.8815  0.1902  0.4421
  659MOL0     H88906   5.004   7.705   5.873 -1.8446  1.2773 -0.3150
  659MOL0     H88907   5.092   7.658   5.731 -1.7535 -1.0569  1.0176
  659MOL0     H88908   5.264   7.827   5.748 -0.6284  2.2645 -0.2910
  659MOL0     H88909   5.200   7.896   5.894  3.5776  0.9462  0.0260
  659MOL0     H88910   5.256   7.643   5.996  0.2414 -2.0905 -1.5010
  659MOL0     H88911   5.322   7.624   5.836 -2.2914 -2.0207  0.0184
  659MOL0     H88912   5.453   7.841   5.866  0.6521  2.0912  2.2604
  659MOL0     H88913   5.516   7.696   5.938 -0.3876 -0.1251  0.7157
  659MOL0     H88914   5.410   7.938   6.066  0.6694 -0.0929 -0.0339
  659MOL0     H88915   5.380   7.779   6.153 -0.7628 -0.7625 -0.2545
  659MOL0     H88916   5.599   7.650   6.211 -0.1021  0.2549 -1.0773
  659MOL0     H88917   5.984   7.776   6.208 -2.9108  4.9634  2.8633
  659MOL0     H88918   5.892   7.668   6.309  0.4846 -0.0043 -1.0792
  659MOL0     H88919   5.835   7.525   6.129  0.8416 -1.3313 -3.1710
  659MOL0     H88920   5.930   7.629   6.010  0.2332  0.2219 -0.8478
  659MOL0     H88921   6.043   7.529   6.259  1.2704 -1.4221  0.2266
  659MOL0     H88922   6.132   7.589   6.114  0.6669 -0.6977 -0.3012
  659MOL0     H88923   6.039   7.387   5.981 -2.1760 -1.6519  0.4400
  659MOL0     H88924   5.972   7.328   6.124 -0.9356  2.1451 -1.5686
  659MOL0     H88925   6.071   7.151   5.998 -1.0856 -2.3167  2.5289
  659MOL0     H88926   6.181   6.952   5.872  0.3727  0.3093 -1.3779
  659MOL0     H88927   6.525   6.761   5.624  1.5643 -0.8347 -0.4645
  659MOL0     H88928   6.670   6.538   5.608  0.9345  3.6573 -0.7163
  659MOL0     H88929   6.589   6.226   5.938 -0.3372 -0.8413  1.4764
  659MOL0     H88930   6.740   6.178   5.866 -1.5470 -0.0933  0.0092
  659MOL0     H88931   6.730   6.444   5.995  1.1124 -0.3109  2.3075
  659MOL0     H88932   6.769   6.291   6.093 -1.4656  1.8262  1.2022
  659MOL0     H88933   6.950   6.268   5.890 -2.0482 -0.5397  1.6836
  659MOL0     H88934   6.930   6.441   5.891 -0.8936  0.5856  0.5022
  659MOL0     H88935   7.016   6.259   6.126  1.6739  0.5070  0.8337
  659MOL0     H88936   6.996   6.432   6.153 -0.1337  0.5063 -0.6088
  659MOL0     H88937   7.135   6.495   5.983 -0.9622 -1.3696  0.2281
  659MOL0     H88938   7.173   6.333   5.926 -1.2763 -1.6419  0.0702
  659MOL0     H88939   7.232   6.427   6.216  1.4285 -0.4393  0.5331
  659MOL0     H88940   7.280   6.278   6.150  3.3435  0.2619  0.6544
  659MOL0     H88941   7.384   6.557   6.077 -2.3768 -0.8242 -3.8323
  659MOL0     H88942   7.397   6.423   5.968  2.3812  0.2527 -0.1835
  659MOL0     H88943   7.530   6.436   6.239 -0.7515 -0.5803 -0.7640
  659MOL0     H88944   7.521   6.280   6.154  1.4864 -0.9497 -3.1493
  659MOL0     H88945   6.452   6.401   5.961 -6.7943 -0.6510 -1.1520
  659MOL0     H88946   6.339   6.599   5.962  2.6450  0.5278  0.9886
  659MOL0     H88947   6.554   7.107   6.028  0.8002  1.2180  0.5229
  659MOL0     H88948   6.435   7.281   6.151 -0.1000 -0.2394  0.9915
  659MOL0     H88949   4.531   7.657   5.758 -1.0916  1.1894 -3.7546
  659MOL0     H88950   4.328   7.613   5.898 -0.3548 -1.0278 -3.0112
  659MOL0     H88951   4.046   7.527   6.230 -1.8286 -0.3701 -0.2666
  659MOL0     H88952   3.848   7.523   6.345 -0.4198  1.9088  1.9372
  659MOL0     H88953   3.833   7.717   6.589 -2.1211  2.0646  2.2851
  659MOL0     H88954   3.742   7.560   6.560 -1.2004 -0.6917 -0.0674
  659MOL0     H88955   3.536   7.688   6.633  0.0926  3.1516 -3.5985
  659MOL0     H88956   3.637   7.834   6.656 -0.5954  0.5045  2.1306
  659MOL0     H88957   3.776   7.690   6.824 -0.5740 -1.0252 -0.5554
  659MOL0     H88958   3.650   7.568   6.796 -3.2874  0.2791 -0.6468
  659MOL0     H88959   3.528   7.852   6.872 -1.5187  0.2469 -0.3572
  659MOL0     H88960   3.469   7.694   6.906 -0.6970  0.4114 -3.1176
  659MOL0     H88961   3.726   7.818   7.230 -0.6239 -1.4418  0.5948
  659MOL0     H88962   3.771   7.942   6.303 -0.6473 -1.3428  3.8019
  659MOL0     H88963   4.104   8.038   6.174  1.3904 -0.1130  1.5423
  659MOL0     H88964   3.996   8.010   6.040 -0.1907 -0.1087  0.8250
  659MOL0     H88965   3.925   8.081   6.175  0.0732 -0.9433  0.7646
  660MOL0     O88966  10.008   9.510   8.298  0.2137 -0.1486  0.4614
  660MOL0     C88967   9.904   9.497   8.368  0.2522 -0.2577 -1.2043
  660MOL0     O88968   9.819   9.387   8.369  0.0959 -0.6288 -0.0673
  660MOL0     C88969   9.865   9.266   8.311  0.5306  0.1776  0.2183
  660MOL0     C88970   9.996   9.213   8.313 -0.2252  0.0794 -0.3586
  660MOL0     C88971  10.025   9.088   8.258 -0.7780 -0.5814  0.2253
  660MOL0     C88972   9.929   9.012   8.196  0.0117  0.6963 -0.5892
  660MOL0     O88973   9.947   8.889   8.133  0.6299 -0.1040 -0.3928
  660MOL0     C88974  10.038   8.803   8.202  0.0217 -0.0402 -0.8195
  660MOL0     C88975  10.001   8.660   8.167 -0.0035 -0.3704  0.7540
  660MOL0     C88976   9.873   8.608   8.243  0.0920  0.1795 -0.7765
  660MOL0     C88977   9.850   8.458   8.217  0.0238 -0.4459  0.8730
  660MOL0     C88978   9.714   8.419   8.270  0.1308 -0.0685  0.9439
  660MOL0     C88979   9.698   8.274   8.283  0.6356  0.5815 -0.6150
  660MOL0     C88980   9.539   8.249   8.308 -0.7714 -1.1293  0.3876
  660MOL0     C88981   9.513   8.108   8.351  0.8833  0.4265 -0.6478
  660MOL0     N88982   9.367   8.078   8.364 -0.6351  0.9239 -0.4869
  660MOL0     C88983   9.309   8.042   8.478 -0.3834  0.4302 -0.0693
  660MOL0     C88984   9.176   8.027   8.445  0.8771  0.7581 -0.1035
  660MOL0     C88985   9.059   7.995   8.530 -0.9268  0.3974  0.4486
  660MOL0     C88986   9.113   7.945   8.668 -0.3231 -0.0715 -0.0230
  660MOL0     C88987   8.992   7.907   8.744  0.1243 -1.0759  0.1395
  660MOL0     C88988   9.026   7.839   8.879  0.3631  0.3788  1.0135
  660MOL0     O88989   8.914   7.856   8.965  0.1839 -0.0207 -0.8643
  660MOL0     C88990   8.909   7.976   9.031 -0.0822 -0.4195 -0.4641
  660MOL0     C88991   9.015   8.037   9.082 -0.8055  0.4122 -0.7996
  660MOL0     C88992   9.005   8.167   9.146 -0.5111 -0.1406  0.4516
  660MOL0     C88993   8.878   8.233   9.162 -0.3431 -0.7020 -0.3149
  660MOL0     C88994   8.862   8.366   9.230  0.4708 -0.4711  1.3259
  660MOL0     O88995   8.972   8.404   9.302  0.1548 -0.0573  0.2118
  660MOL0     C88996   8.945   8.456   9.428  0.5511  0.1867 -0.0153
  660MOL0     C88997   8.953   8.389   9.548  0.4836  0.5668  0.1030
  660MOL0     C88998   8.911   8.451   9.664 -0.4153  0.4598 -0.6556
  660MOL0     C88999   8.886   8.586   9.676 -0.0090 -0.1154 -0.0676
  660MOL0     O89000   8.857   8.644   9.799  0.0563  0.7552  0.5172
  660MOL0     C89001   8.771   8.565   9.881  0.7607  0.1330  0.4165
  660MOL0     C89002   8.666   8.644   9.961 -0.0395 -0.3956  0.1073
  660MOL0     C89003   8.574   8.574  10.058 -0.4147 -0.2910  0.3051
  660MOL0     C89004   8.504   8.452  10.006 -0.2627 -1.1494 -0.0808
  660MOL0     C89005   8.387   8.404  10.095 -0.6514 -0.4410  0.1073
  660MOL0     C89006   8.297   8.294  10.027 -0.6678  0.8949  0.8085
  660MOL0     C89007   8.396   8.177  10.007 -0.1700 -0.7688  0.2686
  660MOL0     C89008   8.321   8.048   9.966  0.6837  0.0645  1.2488
  660MOL0    Cl89009   8.219   8.092   9.812  0.1151  0.1408  0.0091
  660MOL0     C89010   8.890   8.662   9.558  0.2466 -0.0531 -0.0974
  660MOL0     C89011   8.920   8.598   9.434  0.5492 -0.4072  0.0897
  660MOL0     O89012   8.748   8.410   9.244  0.4587  0.7019  0.2298
  660MOL0     C89013   8.760   8.166   9.119 -0.4075  0.6685 -0.0224
  660MOL0     C89014   8.783   8.042   9.055  0.3198 -0.4912 -1.2204
  660MOL0     N89015   9.164   8.036   8.307 -0.4764  0.0146  0.2078
  660MOL0     N89016   9.278   8.073   8.266  0.4092  0.5707 -0.6383
  660MOL0     C89017   9.797   9.067   8.177  0.0373  0.1233  0.2506
  660MOL0     C89018   9.765   9.196   8.232 -1.0036 -0.3396 -0.0483
  660MOL0     C89019   9.873   9.610   8.451  0.7222 -1.0945  0.2117
  660MOL0     C89020   9.808   9.713   8.376  0.0331 -0.4534  0.0383
  660MOL0     C89021   9.751   9.826   8.438 -1.7550  0.5370  0.4810
  660MOL0     C89022   9.753   9.831   8.577 -0.7835  0.4313  0.5692
  660MOL0     O89023   9.680   9.935   8.643  0.4937 -0.0867  0.0935
  660MOL0     C89024   9.646  10.062   8.576 -0.6474  0.0444 -0.5097
  660MOL0     C89025   9.787  10.130   8.542  0.0266 -0.6572 -0.4514
  660MOL0     C89026   9.779  10.275   8.499  0.5790 -0.0551 -0.2355
  660MOL0     C89027   9.677  10.303   8.386  0.4532  0.6851  1.1651
  660MOL0     C89028   9.718  10.221   8.275 -1.2306 -0.4452 -0.4208
  660MOL0     C89029   9.758  10.152   8.179 -0.5660 -0.7121  0.2175
  660MOL0     C89030   9.802   9.730   8.650  0.2603  0.7739 -0.1028
  660MOL0     C89031   9.874   9.620   8.592  1.0809 -0.5907 -0.2491
  660MOL0     C89032   9.932   9.519   8.680 -0.5334 -0.5513 -0.4280
  660MOL0     H89033  10.071   9.274   8.362 -2.1093  2.2927 -0.0866
  660MOL0     H89034  10.126   9.052   8.269  0.2546  1.9828 -0.0615
  660MOL0     H89035  10.138   8.822   8.161 -0.0830 -0.0605 -1.0850
  660MOL0     H89036  10.039   8.825   8.309 -0.4988  2.1458 -1.2224
  660MOL0     H89037  10.088   8.600   8.193  2.8033  2.0751 -2.0224
  660MOL0     H89038   9.986   8.653   8.058 -1.3772  1.5223  0.7619
  660MOL0     H89039   9.789   8.675   8.224  1.2273  2.1934  0.9379
  660MOL0     H89040   9.900   8.620   8.348  1.4765 -1.0746 -0.9479
  660MOL0     H89041   9.849   8.442   8.109  3.5522  0.5336  0.5786
  660MOL0     H89042   9.924   8.391   8.263 -0.8995 -1.4289  0.9655
  660MOL0     H89043   9.693   8.467   8.366  1.9776  0.5600  1.0773
  660MOL0     H89044   9.633   8.449   8.203 -0.5222  0.8322  2.0909
  660MOL0     H89045   9.721   8.228   8.187 -3.7690 -4.0724  0.1645
  660MOL0     H89046   9.762   8.233   8.361 -1.1779  0.2386  0.7578
  660MOL0     H89047   9.488   8.269   8.214  1.5962  4.0464 -0.1427
  660MOL0     H89048   9.501   8.316   8.386 -1.9287  0.0276 -1.1274
  660MOL0     H89049   9.550   8.038   8.276 -0.0232 -0.1376 -0.5802
  660MOL0     H89050   9.567   8.090   8.444  1.0708  2.9360 -0.1836
  660MOL0     H89051   9.352   8.029   8.577 -0.7836  0.5663  0.1246
  660MOL0     H89052   8.997   8.085   8.533 -2.0369 -0.1763 -2.3420
  660MOL0     H89053   9.008   7.914   8.478 -0.7745  0.7519 -0.2625
  660MOL0     H89054   9.179   7.857   8.663 -1.0870 -0.7164  0.8176
  660MOL0     H89055   9.167   8.024   8.719 -1.9027  0.0962  1.4805
  660MOL0     H89056   8.926   7.846   8.681 -1.9517  2.1618 -1.0784
  660MOL0     H89057   8.931   7.995   8.764  2.0511  0.9694 -2.2443
  660MOL0     H89058   9.118   7.879   8.922  1.0617 -1.6448  1.4834
  660MOL0     H89059   9.053   7.734   8.862 -1.2939  0.0273  0.3292
  660MOL0     H89060   9.111   7.986   9.083 -1.4124 -0.8012  1.5626
  660MOL0     H89061   9.094   8.221   9.178  0.4707 -0.3223 -1.7933
  660MOL0     H89062   8.973   8.282   9.546  1.0167  0.6669 -1.5169
  660MOL0     H89063   8.912   8.383   9.749 -1.9948  0.0001 -0.9783
  660MOL0     H89064   8.708   8.498   9.821  3.1636 -2.7447  0.8355
  660MOL0     H89065   8.833   8.496   9.939  0.0421 -0.7231  0.1911
  660MOL0     H89066   8.712   8.731  10.009  0.4757  1.6630 -3.7144
  660MOL0     H89067   8.602   8.696   9.890 -2.0610 -1.2284  1.2377
  660MOL0     H89068   8.636   8.543  10.143 -1.4460  2.6214  2.2873
  660MOL0     H89069   8.517   8.656  10.104  4.9666  5.8736 -2.3321
  660MOL0     H89070   8.576   8.370  10.008 -1.1066 -1.9159  2.0364
  660MOL0     H89071   8.464   8.476   9.907 -2.3381  0.3710  1.0646
  660MOL0     H89072   8.319   8.485  10.123 -1.2214 -0.6060 -0.7591
  660MOL0     H89073   8.426   8.356  10.186  0.6988  1.3836  0.5517
  660MOL0     H89074   8.222   8.268  10.103  2.4551 -1.0013  3.5144
  660MOL0     H89075   8.272   8.327   9.926 -0.1281 -0.8325  0.0677
  660MOL0     H89076   8.455   8.152  10.096 -0.3536 -3.4911 -0.2825
  660MOL0     H89077   8.467   8.201   9.928 -2.3152  0.4086 -1.4255
  660MOL0     H89078   8.386   7.964   9.941  1.1275 -0.1260  2.9290
  660MOL0     H89079   8.249   8.007  10.037 -3.0018 -0.4289 -2.3814
  660MOL0     H89080   8.874   8.769   9.551  0.0557 -0.1968 -3.0473
  660MOL0     H89081   8.909   8.648   9.338 -0.6986 -1.6145 -0.4382
  660MOL0     H89082   8.662   8.204   9.147 -1.5235 -1.7388 -0.3708
  660MOL0     H89083   8.694   7.984   9.030 -0.7579 -1.0607  3.1505
  660MOL0     H89084   9.713   9.009   8.142  0.9673 -1.8143  1.0389
  660MOL0     H89085   9.667   9.242   8.236 -0.4399  0.9903  4.7126
  660MOL0     H89086   9.811   9.727   8.269  3.8450 -2.5732 -0.3309
  660MOL0     H89087   9.709   9.905   8.376 -0.4206  0.2595 -0.8156
  660MOL0     H89088   9.599  10.133   8.644 -0.1043 -2.5272  2.7754
  660MOL0     H89089   9.579  10.048   8.490  2.4345 -1.4222 -2.8850
  660MOL0     H89090   9.856  10.073   8.479 -1.2766 -2.3528 -0.4084
  660MOL0     H89091   9.842  10.138   8.637 -2.0264  0.9654  0.6884
  660MOL0     H89092   9.878  10.308   8.466 -0.3583  1.8698 -1.3270
  660MOL0     H89093   9.757  10.343   8.582 -0.8912 -1.1299  0.3110
  660MOL0     H89094   9.574  10.281   8.416  0.0620  1.6352  0.5419
  660MOL0     H89095   9.692  10.405   8.350 -0.3529  1.2563  2.3516
  660MOL0     H89096   9.802  10.082   8.112 -0.4255 -1.7951  1.4094
  660MOL0     H89097   9.799   9.741   8.757  0.4017 -1.7032  0.2168
  660MOL0     H89098   9.863   9.452   8.733 -0.0890 -0.2783  0.5146
  660MOL0     H89099  10.009   9.468   8.622 -0.4678  0.9914 -1.7600
  660MOL0     H89100   9.976   9.575   8.762 -1.9431 -2.7148  1.9460
  661MOL0     O89101   2.406   2.158   9.887  0.9477  0.2251  0.2010
  661MOL0     C89102   2.430   2.116   9.777  0.0874 -0.4875 -0.2711
  661MOL0     O89103   2.475   1.983   9.745  0.3435  0.9381  1.1441
  661MOL0     C89104   2.462   1.882   9.841  0.5589 -0.2766  0.3199
  661MOL0     C89105   2.345   1.858   9.926  0.2507  0.3778 -0.5010
  661MOL0     C89106   2.331   1.748  10.011 -0.6782  1.2885 -0.9461
  661MOL0     C89107   2.439   1.655  10.029  0.0265 -0.4964  0.8453
  661MOL0     O89108   2.442   1.536  10.105 -0.2985  0.0886 -0.1764
  661MOL0     C89109   2.377   1.532  10.229  0.1106 -0.1768 -1.1395
  661MOL0     C89110   2.339   1.391  10.275  0.1211  1.5577  0.9044
  661MOL0     C89111   2.249   1.303  10.175 -0.0254  0.7679  0.0196
  661MOL0     C89112   2.242   1.158  10.229  0.3957  0.0370 -0.3877
  661MOL0     C89113   2.149   1.154  10.348  0.0414  0.6233  0.0902
  661MOL0     C89114   2.079   1.014  10.371  0.2482 -0.1397  0.1544
  661MOL0     C89115   2.004   1.030  10.502  0.3753  0.8092  0.1481
  661MOL0     C89116   1.884   0.928  10.506  0.6120  0.1335  0.2367
  661MOL0     N89117   1.812   0.898  10.632 -0.4839 -0.3275  0.1210
  661MOL0     C89118   1.778   0.775  10.669 -0.2163  0.4768 -0.0196
  661MOL0     C89119   1.746   0.779  10.801 -1.1365  0.0105 -0.4528
  661MOL0     C89120   1.717   0.652  10.888  0.8750 -0.4604 -0.2966
  661MOL0     C89121   1.570   0.609  10.880  0.2004  0.5770 -0.0188
  661MOL0     C89122   1.530   0.489  10.961 -0.3213 -0.0365  0.0106
  661MOL0     C89123   1.598   0.357  10.919  0.1214 -0.3276  0.3816
  661MOL0     O89124   1.559   0.321  10.785  1.3951  0.3108  0.9749
  661MOL0     C89125   1.420   0.296  10.749  0.1486 -0.2689 -0.2165
  661MOL0     C89126   1.378   0.300  10.621 -1.1000 -0.6311  0.7313
  661MOL0     C89127   1.248   0.280  10.580  0.2060 -0.5102 -0.3965
  661MOL0     C89128   1.154   0.240  10.679  0.2027  0.0003 -1.3005
  661MOL0     C89129   1.012   0.218  10.649 -0.0019  0.1858 -0.0318
  661MOL0     O89130   0.981   0.267  10.527  0.1258  0.0691  0.4672
  661MOL0     C89131   0.852   0.260  10.477 -0.7661 -0.2902  0.1138
  661MOL0     C89132   0.821   0.171  10.379 -0.3611  0.6236  0.6234
  661MOL0     C89133   0.690   0.184  10.326 -0.6991 -0.5508  0.9067
  661MOL0     C89134   0.603   0.277  10.365  0.0375  0.3910 -0.0820
  661MOL0     O89135   0.476   0.280  10.309 -0.9734 -0.2981 -0.1391
  661MOL0     C89136   0.461   0.316  10.172  0.6889  0.4212 -0.4972
  661MOL0     C89137   0.333   0.399  10.162 -0.6309 -0.3993 -0.0832
  661MOL0     C89138   0.205   0.334  10.220 -0.2196 -0.2924 -0.4915
  661MOL0     C89139   0.079   0.416  10.248  0.5313 -0.5401  0.1867
  661MOL0     C89140   0.055   0.526  10.148  0.1266  0.3090 -1.4717
  661MOL0     C89141  -0.060   0.614  10.197 -0.9491 -0.5063 -0.2725
  661MOL0     C89142  -0.024   0.718  10.293  0.1912 -0.2782  0.0838
  661MOL0     C89143   0.070   0.822  10.227  0.4496 -0.3362 -0.2527
  661MOL0    Cl89144   0.134   0.950  10.354  0.4594  1.0213 -0.2027
  661MOL0     C89145   0.639   0.377  10.453 -0.0874 -0.1029 -0.7821
  661MOL0     C89146   0.764   0.360  10.522  0.0730  0.3973 -0.5884
  661MOL0     O89147   0.930   0.190  10.733  0.2416 -0.1870 -0.5321
  661MOL0     C89148   1.189   0.234  10.815  0.0040 -0.3923  0.1844
  661MOL0     C89149   1.318   0.266  10.847  0.5306 -0.7605 -0.7425
  661MOL0     N89150   1.763   0.911  10.842  0.7984 -0.4919  0.0560
  661MOL0     N89151   1.799   0.988  10.737  0.5644  0.4059 -1.4609
  661MOL0     C89152   2.557   1.684   9.962  0.2676  0.6429 -0.3924
  661MOL0     C89153   2.569   1.793   9.869  0.4722 -0.3086  0.4791
  661MOL0     C89154   2.411   2.208   9.666 -0.1302  0.8270 -0.2324
  661MOL0     C89155   2.365   2.167   9.540  0.6094 -0.2015  0.1517
  661MOL0     C89156   2.328   2.270   9.445  0.8754  0.6890  0.5821
  661MOL0     C89157   2.347   2.402   9.470 -0.5469  0.1115 -0.2099
  661MOL0     O89158   2.315   2.483   9.362  0.2518  0.0723 -0.5054
  661MOL0     C89159   2.294   2.628   9.385 -0.0859 -0.4068 -0.3215
  661MOL0     C89160   2.187   2.658   9.276 -0.3793  0.3005 -0.0154
  661MOL0     C89161   2.100   2.786   9.306 -0.6313  0.0700 -0.5634
  661MOL0     C89162   2.022   2.819   9.185 -0.1086  0.2569 -0.1400
  661MOL0     C89163   1.929   2.934   9.204 -0.4148 -0.1724  0.0683
  661MOL0     C89164   1.854   3.026   9.215  0.9012  0.1163 -0.2627
  661MOL0     C89165   2.403   2.451   9.594  0.3695  0.1617 -0.2852
  661MOL0     C89166   2.427   2.352   9.690 -0.4206 -0.2283 -0.2598
  661MOL0     C89167   2.479   2.419   9.820 -0.1725 -0.0768  0.2374
  661MOL0     H89168   2.265   1.930   9.938 -1.4215 -0.8333 -3.3178
  661MOL0     H89169   2.239   1.748  10.070  0.5405  0.7527  1.0596
  661MOL0     H89170   2.435   1.574  10.312 -2.6832  1.3914  0.1589
  661MOL0     H89171   2.281   1.582  10.216 -0.3030  0.0615  1.9246
  661MOL0     H89172   2.277   1.413  10.363 -2.8077  1.3419 -0.9687
  661MOL0     H89173   2.428   1.337  10.307  2.1848  2.9886 -1.9696
  661MOL0     H89174   2.302   1.316  10.081 -1.9545 -0.2224 -1.2765
  661MOL0     H89175   2.145   1.336  10.165 -1.0778 -1.5024  2.3414
  661MOL0     H89176   2.200   1.109  10.141  2.2867  1.0453 -1.9365
  661MOL0     H89177   2.332   1.104  10.260 -2.6427 -4.0499  2.3481
  661MOL0     H89178   2.211   1.173  10.437  0.1160  2.0101 -0.2340
  661MOL0     H89179   2.075   1.234  10.341 -1.4893 -0.8707 -1.6536
  661MOL0     H89180   2.007   0.997  10.290 -0.7658  0.2690  0.9485
  661MOL0     H89181   2.155   0.936  10.381  0.8254  0.4075  0.0769
  661MOL0     H89182   1.976   1.132  10.527  1.2810  1.0402  0.2651
  661MOL0     H89183   2.082   1.012  10.577  0.4046 -0.4455 -0.1680
  661MOL0     H89184   1.808   0.965  10.436 -0.1540 -0.8325  0.5297
  661MOL0     H89185   1.905   0.827  10.468 -2.1788 -0.6655  0.5956
  661MOL0     H89186   1.797   0.688  10.608  2.6044  1.6517 -0.9568
  661MOL0     H89187   1.774   0.571  10.840 -1.4491 -2.2022 -0.2985
  661MOL0     H89188   1.748   0.661  10.993  1.7185  1.3059 -0.6611
  661MOL0     H89189   1.516   0.695  10.922  0.6202  1.3818 -1.0786
  661MOL0     H89190   1.539   0.591  10.777 -0.4293  2.6190 -0.2431
  661MOL0     H89191   1.421   0.479  10.970 -0.4216 -0.0091 -1.0485
  661MOL0     H89192   1.575   0.511  11.058  0.9040 -1.2481 -0.2497
  661MOL0     H89193   1.574   0.278  10.990  0.3669  0.3134  1.1842
  661MOL0     H89194   1.706   0.373  10.929  0.7910 -1.8653 -2.8578
  661MOL0     H89195   1.450   0.311  10.541  0.2338  2.3409  2.1880
  661MOL0     H89196   1.219   0.291  10.476 -1.7316  6.6647  0.3764
  661MOL0     H89197   0.884   0.085  10.360 -0.9192  0.9401 -3.5128
  661MOL0     H89198   0.670   0.095  10.267  2.6006  0.0836 -1.4979
  661MOL0     H89199   0.550   0.366  10.133 -0.2427  2.4347 -0.1633
  661MOL0     H89200   0.445   0.221  10.121  0.9508  1.8412 -3.3870
  661MOL0     H89201   0.348   0.495  10.213 -2.4777  0.6809 -1.4589
  661MOL0     H89202   0.319   0.431  10.058 -2.0665  0.8858  0.4786
  661MOL0     H89203   0.176   0.257  10.148 -2.1022 -1.2068  1.1519
  661MOL0     H89204   0.232   0.267  10.301 -0.1329  3.3213  2.7775
  661MOL0     H89205   0.091   0.464  10.346  1.0859 -1.1714  0.4405
  661MOL0     H89206  -0.003   0.345  10.260 -1.2050  1.4405  0.5755
  661MOL0     H89207   0.023   0.470  10.060 -1.9446  0.8538 -1.1311
  661MOL0     H89208   0.145   0.584  10.128  0.0096  0.6289 -1.0833
  661MOL0     H89209  -0.108   0.647  10.104  2.3594 -1.4739 -2.5143
  661MOL0     H89210  -0.132   0.551  10.250 -0.7773  0.0847  0.6900
  661MOL0     H89211   0.029   0.670  10.376 -0.0450 -1.7432 -0.5780
  661MOL0     H89212  -0.121   0.763  10.319  0.7022  0.9375 -0.0605
  661MOL0     H89213   0.164   0.777  10.196  3.2168  4.3763  0.2619
  661MOL0     H89214   0.020   0.869  10.141 -0.1582 -0.5115 -0.0008
  661MOL0     H89215   0.570   0.457  10.478  2.1838  2.0336 -0.9691
  661MOL0     H89216   0.804   0.420  10.602  0.2916 -0.1380 -0.2904
  661MOL0     H89217   1.124   0.213  10.899 -0.4452 -0.3896 -0.1561
  661MOL0     H89218   1.335   0.273  10.954 -0.8679  1.4044 -0.5988
  661MOL0     H89219   2.642   1.621   9.986  0.1700  1.1196  1.3691
  661MOL0     H89220   2.664   1.802   9.817  3.0571 -0.6516  4.7207
  661MOL0     H89221   2.336   2.065   9.517  3.1688 -1.0328  0.2554
  661MOL0     H89222   2.295   2.224   9.352  2.2517 -1.8536  1.2615
  661MOL0     H89223   2.384   2.674   9.343  0.9726 -5.4330 -4.7212
  661MOL0     H89224   2.276   2.663   9.486  2.4685 -0.2322  0.1368
  661MOL0     H89225   2.120   2.571   9.267  0.1095  0.0165 -1.0106
  661MOL0     H89226   2.244   2.673   9.185  1.5218 -1.2350  0.8472
  661MOL0     H89227   2.170   2.870   9.314 -1.4099  0.7829 -1.0584
  661MOL0     H89228   2.038   2.769   9.394 -1.9218  0.6042 -1.3353
  661MOL0     H89229   2.084   2.841   9.098  3.1364  1.9913  2.4076
  661MOL0     H89230   1.958   2.733   9.162 -0.6008  0.0913  1.6742
  661MOL0     H89231   1.791   3.112   9.227 -0.6868 -0.6492 -2.4739
  661MOL0     H89232   2.420   2.558   9.595  0.3584  0.1966  2.6656
  661MOL0     H89233   2.575   2.374   9.848 -1.0305 -1.9053  0.3856
  661MOL0     H89234   2.502   2.525   9.811  1.1056 -0.4459 -1.5159
  661MOL0     H89235   2.404   2.418   9.899 -2.0237 -0.1997 -1.4347
  662MOL0     O89236   7.037   7.667   8.606 -0.0555 -0.2588  0.0189
  662MOL0     C89237   7.020   7.626   8.492  0.4850  0.4727  0.0622
  662MOL0     O89238   6.977   7.695   8.382 -0.4062 -0.1078  0.0473
  662MOL0     C89239   6.937   7.826   8.406  0.6533  0.2260 -1.1022
  662MOL0     C89240   6.818   7.848   8.330  0.1017 -0.4789  0.2135
  662MOL0     C89241   6.761   7.978   8.325  0.3508  0.5290  0.4826
  662MOL0     C89242   6.822   8.077   8.398 -0.3599 -0.1433 -0.7167
  662MOL0     O89243   6.763   8.202   8.382  0.0923  0.7803 -1.2308
  662MOL0     C89244   6.840   8.322   8.386  1.2085  0.0682  0.9941
  662MOL0     C89245   6.917   8.346   8.261 -0.4441 -0.4466  0.5864
  662MOL0     C89246   6.827   8.358   8.142 -0.7253  0.6758 -0.0229
  662MOL0     C89247   6.754   8.229   8.094  0.3530 -0.3003 -0.6700
  662MOL0     C89248   6.696   8.231   7.955  0.2063 -0.1385  0.3667
  662MOL0     C89249   6.629   8.096   7.922 -0.0861  0.2843  0.7183
  662MOL0     C89250   6.533   8.111   7.809 -0.1790 -0.9833 -0.2997
  662MOL0     C89251   6.603   8.122   7.671  0.3500  0.2312  0.5646
  662MOL0     N89252   6.492   8.126   7.565  0.5423  1.0938 -0.2202
  662MOL0     C89253   6.420   8.016   7.511 -1.2059  0.0558 -0.7734
  662MOL0     C89254   6.316   8.069   7.454  0.7981 -0.7246 -0.3635
  662MOL0     C89255   6.188   8.001   7.413  0.1244 -0.4053 -0.2209
  662MOL0     C89256   6.210   7.923   7.289 -0.6308  0.2158  0.3528
  662MOL0     C89257   6.086   7.848   7.237 -0.2040 -0.1364  0.1789
  662MOL0     C89258   6.130   7.794   7.101  0.1566  0.4858  0.1043
  662MOL0     O89259   6.030   7.827   7.001 -0.5993 -0.0844 -0.4812
  662MOL0     C89260   6.066   7.820   6.868  0.4622  0.4555 -0.3278
  662MOL0     C89261   6.158   7.729   6.821 -0.4489  0.1443 -0.4637
  662MOL0     C89262   6.193   7.739   6.682  0.6024  1.2876 -0.3673
  662MOL0     C89263   6.154   7.842   6.598  0.3690 -0.3012 -0.4589
  662MOL0     C89264   6.193   7.848   6.457 -0.5613 -0.0412 -0.5553
  662MOL0     O89265   6.293   7.761   6.415  0.5403 -0.4396  0.0030
  662MOL0     C89266   6.325   7.745   6.281 -0.1513 -0.8319 -0.4096
  662MOL0     C89267   6.333   7.851   6.186  0.7976 -0.0348 -0.6072
  662MOL0     C89268   6.375   7.829   6.055  0.0554  1.4083 -0.0658
  662MOL0     C89269   6.411   7.704   6.008  0.0051  0.3677 -0.6704
  662MOL0     O89270   6.470   7.686   5.889  0.1902  0.6891 -0.3948
  662MOL0     C89271   6.580   7.774   5.866  0.3872  0.6245  0.2152
  662MOL0     C89272   6.681   7.722   5.768 -0.2313  0.9355  0.6267
  662MOL0     C89273   6.797   7.824   5.753  0.0857  0.9917  0.1845
  662MOL0     C89274   6.908   7.757   5.676  0.3782 -0.3438  0.3775
  662MOL0     C89275   7.041   7.842   5.680  0.2265  0.7664 -0.8870
  662MOL0     C89276   7.168   7.754   5.642 -0.0566 -0.7291 -0.9755
  662MOL0     C89277   7.166   7.704   5.499  0.5338 -0.2672  0.6029
  662MOL0     C89278   7.125   7.808   5.391  0.0761  0.1608  0.3670
  662MOL0    Cl89279   7.249   7.928   5.363  0.2426 -0.1146  0.3431
  662MOL0     C89280   6.414   7.608   6.105 -0.2070  0.1684  0.7883
  662MOL0     C89281   6.360   7.613   6.239 -0.2042  0.1750  0.6430
  662MOL0     O89282   6.119   7.909   6.387 -0.0057 -0.4072  0.1312
  662MOL0     C89283   6.072   7.939   6.663  0.8389 -0.1783  0.4259
  662MOL0     C89284   6.043   7.936   6.791  0.8166 -0.0737  0.2161
  662MOL0     N89285   6.336   8.213   7.448  0.0356  0.8346  0.7909
  662MOL0     N89286   6.434   8.239   7.517 -0.7362 -0.3517  0.1392
  662MOL0     C89287   6.941   8.057   8.470 -0.6315 -0.2257 -0.0514
  662MOL0     C89288   6.998   7.926   8.476  0.3394 -0.0365  0.4594
  662MOL0     C89289   7.039   7.480   8.480  0.1589 -0.4707 -0.2778
  662MOL0     C89290   7.087   7.428   8.361 -0.3843 -0.0716 -0.2300
  662MOL0     C89291   7.121   7.298   8.364  0.0535  0.1628 -0.4239
  662MOL0     C89292   7.098   7.214   8.461 -0.1760 -0.2142 -0.2360
  662MOL0     O89293   7.139   7.087   8.434  0.2197  0.1396  0.0403
  662MOL0     C89294   7.143   6.984   8.540 -0.1422  0.5464 -0.1075
  662MOL0     C89295   7.170   6.847   8.486 -0.4378 -0.2433  0.1741
  662MOL0     C89296   7.322   6.842   8.452 -0.2823 -0.2631  0.3238
  662MOL0     C89297   7.345   6.741   8.340 -1.4103  0.0311 -0.0939
  662MOL0     C89298   7.486   6.705   8.320  1.1585  0.1778 -0.0190
  662MOL0     C89299   7.604   6.693   8.294  0.1636 -0.1038  0.4816
  662MOL0     C89300   7.035   7.265   8.576 -0.3221  0.2783  0.6752
  662MOL0     C89301   6.999   7.394   8.578 -0.2171 -0.3583 -0.8552
  662MOL0     C89302   6.912   7.422   8.700 -1.0031 -0.0892  0.6324
  662MOL0     H89303   6.764   7.764   8.288 -4.6589  1.8334  1.0138
  662MOL0     H89304   6.666   7.994   8.274  0.7484  0.2493 -0.3649
  662MOL0     H89305   6.768   8.403   8.399 -0.1019 -0.4537 -2.1487
  662MOL0     H89306   6.910   8.319   8.471  4.4507 -0.4931 -1.5101
  662MOL0     H89307   6.993   8.270   8.239 -0.2857 -0.0552 -0.2291
  662MOL0     H89308   6.963   8.443   8.282 -4.8232  1.5254  2.3555
  662MOL0     H89309   6.886   8.394   8.057  0.4916 -0.5141  0.2761
  662MOL0     H89310   6.752   8.437   8.153 -1.3257  0.2291 -0.7435
  662MOL0     H89311   6.817   8.141   8.107  1.5074  0.3877 -1.4414
  662MOL0     H89312   6.676   8.216   8.170  1.6399  2.0432  1.2089
  662MOL0     H89313   6.630   8.319   7.960  1.2241  0.5870  1.5983
  662MOL0     H89314   6.775   8.251   7.883  0.2182  2.1167  0.9258
  662MOL0     H89315   6.710   8.024   7.908  0.5817  1.1795 -0.1704
  662MOL0     H89316   6.567   8.070   8.008  1.4206 -2.0978  1.1740
  662MOL0     H89317   6.467   8.197   7.821 -0.6300 -0.9804 -2.4892
  662MOL0     H89318   6.460   8.029   7.814 -1.1809 -0.1852 -1.3457
  662MOL0     H89319   6.661   8.214   7.669  1.8983 -0.7118 -1.0140
  662MOL0     H89320   6.670   8.038   7.650 -0.7520  0.3749 -5.2968
  662MOL0     H89321   6.419   7.911   7.539  1.4858  0.0822 -0.3192
  662MOL0     H89322   6.159   7.929   7.490 -0.6991 -0.3608 -0.4798
  662MOL0     H89323   6.107   8.071   7.391  1.6530  1.0038 -1.6628
  662MOL0     H89324   6.236   7.993   7.210 -1.7781  0.0164 -0.2363
  662MOL0     H89325   6.282   7.843   7.308  0.2211  0.6319 -0.9745
  662MOL0     H89326   6.007   7.919   7.212  1.3563  1.5041 -0.3042
  662MOL0     H89327   6.054   7.768   7.305 -1.4437 -1.5497 -1.9413
  662MOL0     H89328   6.163   7.690   7.110  1.0950  0.7131 -0.5310
  662MOL0     H89329   6.221   7.837   7.057  1.9953 -1.4808  1.7839
  662MOL0     H89330   6.191   7.640   6.874 -2.6579  0.8856  2.4234
  662MOL0     H89331   6.257   7.660   6.644  1.8322  2.5327 -0.9651
  662MOL0     H89332   6.320   7.948   6.232  3.0683  0.1657 -0.3042
  662MOL0     H89333   6.380   7.912   5.985 -0.4075  1.7022  0.2405
  662MOL0     H89334   6.552   7.870   5.822  2.1947  0.5673 -1.1760
  662MOL0     H89335   6.632   7.794   5.960 -0.0304  1.1295  0.3424
  662MOL0     H89336   6.708   7.624   5.810 -1.6972  0.4885  0.5855
  662MOL0     H89337   6.642   7.699   5.668  0.2537 -2.7334  1.1379
  662MOL0     H89338   6.767   7.908   5.690  0.6588 -1.2452 -3.3396
  662MOL0     H89339   6.824   7.850   5.856  4.8115 -1.0947 -0.2714
  662MOL0     H89340   6.880   7.745   5.571 -2.3208  0.6207  0.8959
  662MOL0     H89341   6.921   7.656   5.716  2.3313 -0.0327  0.6623
  662MOL0     H89342   7.057   7.863   5.786  0.6188 -1.4715 -0.4505
  662MOL0     H89343   7.025   7.939   5.633 -3.8917  1.0363  0.6491
  662MOL0     H89344   7.261   7.810   5.658 -0.1552  0.0119 -2.8299
  662MOL0     H89345   7.184   7.679   5.720  2.2942 -0.0924 -0.7606
  662MOL0     H89346   7.092   7.623   5.500 -0.7455  0.8702  1.4687
  662MOL0     H89347   7.263   7.664   5.469  0.4878  0.4859 -0.5844
  662MOL0     H89348   7.107   7.748   5.301 -1.2354 -2.2116  2.1195
  662MOL0     H89349   7.033   7.864   5.412  0.9630  1.8604 -0.0128
  662MOL0     H89350   6.462   7.519   6.065 -0.7556 -0.1086  0.7345
  662MOL0     H89351   6.348   7.517   6.289 -1.1922 -0.4836 -0.7867
  662MOL0     H89352   6.039   8.017   6.595  1.2361  2.2613  2.8392
  662MOL0     H89353   5.978   8.012   6.835  0.2572 -0.2857 -0.2291
  662MOL0     H89354   6.982   8.143   8.521  1.0599 -2.1534  2.0744
  662MOL0     H89355   7.101   7.904   8.504  0.7466 -2.1582 -2.3377
  662MOL0     H89356   7.107   7.493   8.276  3.2467  0.4921  0.8657
  662MOL0     H89357   7.161   7.243   8.279 -0.8472 -4.6931  1.9492
  662MOL0     H89358   7.040   6.989   8.576 -0.4349  0.1359 -0.8748
  662MOL0     H89359   7.210   7.009   8.623 -0.4542  0.7531  0.0827
  662MOL0     H89360   7.109   6.826   8.397 -2.5645 -1.6382  1.8752
  662MOL0     H89361   7.151   6.771   8.561  2.9133  0.5469  2.0098
  662MOL0     H89362   7.373   6.812   8.544  0.6695  0.7224  0.1391
  662MOL0     H89363   7.347   6.943   8.417 -1.2530  0.1961  0.9050
  662MOL0     H89364   7.300   6.647   8.374 -3.0451  2.1534  4.4230
  662MOL0     H89365   7.313   6.775   8.241  2.0250 -0.9375 -1.6901
  662MOL0     H89366   7.707   6.680   8.270  0.4244  2.7299 -0.2025
  662MOL0     H89367   7.027   7.203   8.665 -1.1713 -0.7207 -0.0633
  662MOL0     H89368   6.853   7.335   8.731  0.1151 -2.0601 -2.3772
  662MOL0     H89369   6.976   7.460   8.780 -0.9835  2.4583 -0.5035
  662MOL0     H89370   6.838   7.498   8.671 -1.8038 -1.9025 -2.4809
  663MOL0     O89371   7.811   0.874   8.440 -0.0940  0.4086  0.2104
  663MOL0     C89372   7.919   0.927   8.444  0.5205 -0.7774 -0.5701
  663MOL0     O89373   7.946   1.061   8.492 -0.4971  0.7126  0.1789
  663MOL0     C89374   7.847   1.125   8.555  0.3425 -0.4519  0.6006
  663MOL0     C89375   7.829   1.109   8.700  0.7966  0.2868 -0.6499
  663MOL0     C89376   7.714   1.152   8.764  0.4679 -0.7082 -0.0167
  663MOL0     C89377   7.603   1.198   8.682 -0.2199 -0.7412 -0.6088
  663MOL0     O89378   7.477   1.231   8.725  0.7090 -0.0848  0.7819
  663MOL0     C89379   7.469   1.255   8.860  0.6694 -0.1249  1.0827
  663MOL0     C89380   7.320   1.298   8.896  0.0259 -0.2702  0.6563
  663MOL0     C89381   7.217   1.205   8.848  0.9828  1.0647  0.0336
  663MOL0     C89382   7.174   1.231   8.698  0.3561  1.6180 -0.3989
  663MOL0     C89383   7.065   1.120   8.671  0.1792  0.0264 -1.2384
  663MOL0     C89384   6.992   1.140   8.542 -0.0921 -0.3977  0.1298
  663MOL0     C89385   6.882   1.044   8.507  0.5041 -0.3200  0.9668
  663MOL0     C89386   6.946   0.900   8.502  0.1296  0.7530 -0.6598
  663MOL0     N89387   6.867   0.796   8.436 -0.0616  0.3003  0.5450
  663MOL0     C89388   6.808   0.808   8.313  0.1792 -0.0862  0.0309
  663MOL0     C89389   6.750   0.681   8.290  0.0985 -0.2032 -0.5543
  663MOL0     C89390   6.675   0.621   8.176 -0.1861  0.6632  0.2920
  663MOL0     C89391   6.583   0.720   8.094  0.7506  0.0575 -0.7946
  663MOL0     C89392   6.562   0.684   7.949  0.4182  0.0741  0.6396
  663MOL0     C89393   6.513   0.801   7.867  0.4193  0.4882  0.8325
  663MOL0     O89394   6.470   0.757   7.744  0.2133 -0.7362 -0.2053
  663MOL0     C89395   6.400   0.845   7.667 -0.2689  0.3371 -0.4833
  663MOL0     C89396   6.370   0.794   7.541  0.1143 -0.5648  0.4954
  663MOL0     C89397   6.304   0.872   7.444  0.4334 -0.0360  0.9455
  663MOL0     C89398   6.277   1.008   7.475  0.7418  0.5748 -0.2794
  663MOL0     C89399   6.200   1.084   7.371 -0.2153 -0.6016 -1.4943
  663MOL0     O89400   6.106   1.164   7.431 -0.0862  0.1585 -0.1699
  663MOL0     C89401   6.035   1.253   7.354  0.0107  0.1858 -0.1544
  663MOL0     C89402   5.903   1.262   7.373 -0.3635 -0.0777  0.3200
  663MOL0     C89403   5.831   1.361   7.314 -0.4750  0.4530  0.3678
  663MOL0     C89404   5.888   1.455   7.227  0.5852 -0.0303 -0.2087
  663MOL0     O89405   5.822   1.573   7.188  0.6400  0.0598 -0.4544
  663MOL0     C89406   5.702   1.604   7.266 -0.5753  0.3844  0.1114
  663MOL0     C89407   5.662   1.747   7.226 -1.2503  0.1393 -0.2338
  663MOL0     C89408   5.596   1.738   7.085 -0.1552  1.4530 -0.0332
  663MOL0     C89409   5.517   1.862   7.062 -0.2484 -0.0289 -0.2232
  663MOL0     C89410   5.452   1.858   6.928  0.4200  0.1731 -0.3415
  663MOL0     C89411   5.367   1.988   6.912  0.5012 -0.4729 -0.1975
  663MOL0     C89412   5.217   1.978   6.937  0.1121  0.7381 -0.0578
  663MOL0     C89413   5.153   2.124   6.931  1.2610 -0.7754  0.5623
  663MOL0    Cl89414   4.978   2.128   6.966 -0.0459 -0.3425 -0.4763
  663MOL0     C89415   6.024   1.437   7.196  0.4255  0.0703 -0.2068
  663MOL0     C89416   6.100   1.335   7.262  0.2199 -0.4837 -0.5078
  663MOL0     O89417   6.202   1.052   7.251  0.1623 -0.0028  0.5106
  663MOL0     C89418   6.301   1.058   7.601 -0.2242 -0.4643 -0.3056
  663MOL0     C89419   6.370   0.978   7.695  0.7853  0.1746  1.3628
  663MOL0     N89420   6.777   0.599   8.405  0.1041 -0.1276 -0.8934
  663MOL0     N89421   6.852   0.668   8.486  1.0599 -0.0964 -0.5921
  663MOL0     C89422   7.620   1.218   8.546  0.0668  0.0926  0.4553
  663MOL0     C89423   7.743   1.188   8.482  0.9291 -0.3612 -0.7562
  663MOL0     C89424   8.043   0.864   8.393  0.6809  0.3956 -0.3704
  663MOL0     C89425   8.168   0.911   8.435 -0.2081 -0.1653  0.2965
  663MOL0     C89426   8.280   0.852   8.387 -1.0725 -0.5574 -0.0145
  663MOL0     C89427   8.282   0.755   8.295  1.2983  1.0448  0.1844
  663MOL0     O89428   8.402   0.698   8.260  0.4439 -1.0925  0.3655
  663MOL0     C89429   8.448   0.583   8.329 -0.3915 -0.4810  0.0421
  663MOL0     C89430   8.377   0.465   8.266 -0.2112 -0.0731 -0.6347
  663MOL0     C89431   8.429   0.322   8.314  0.1705 -0.8760 -0.6731
  663MOL0     C89432   8.567   0.291   8.255 -0.2250  0.0212 -0.2364
  663MOL0     C89433   8.592   0.148   8.264  0.0972  0.8059 -1.3614
  663MOL0     C89434   8.600   0.024   8.264  0.7474 -1.3292 -0.4046
  663MOL0     C89435   8.157   0.708   8.253 -0.1793 -0.7174  0.0547
  663MOL0     C89436   8.036   0.761   8.297  0.2351  0.8956 -0.1026
  663MOL0     C89437   7.910   0.712   8.231  0.5427 -0.5136  0.0913
  663MOL0     H89438   7.898   1.054   8.763  0.2173 -2.2835 -2.0885
  663MOL0     H89439   7.713   1.143   8.873  2.5111  0.6516  0.1510
  663MOL0     H89440   7.502   1.170   8.920  2.2222 -0.3691 -0.0520
  663MOL0     H89441   7.545   1.331   8.881  1.9191 -0.2296 -2.4237
  663MOL0     H89442   7.292   1.392   8.846 -0.8466 -0.7460  0.2350
  663MOL0     H89443   7.298   1.315   9.002  1.2134  1.6640  0.6468
  663MOL0     H89444   7.134   1.219   8.918 -1.0036  1.7037 -2.2952
  663MOL0     H89445   7.252   1.104   8.872  2.7025  1.6905  0.3256
  663MOL0     H89446   7.139   1.334   8.689  0.1475  1.9288  2.9256
  663MOL0     H89447   7.263   1.224   8.633 -1.5431  0.7693 -3.0942
  663MOL0     H89448   7.120   1.026   8.665 -1.5095 -1.2106  1.0898
  663MOL0     H89449   6.999   1.124   8.758  0.7989  0.0283 -0.7657
  663MOL0     H89450   6.948   1.240   8.535 -1.3106 -0.8733  0.6397
  663MOL0     H89451   7.069   1.140   8.465  1.1085  0.8855  1.2845
  663MOL0     H89452   6.845   1.065   8.406 -1.6782 -2.6324  1.2203
  663MOL0     H89453   6.789   1.038   8.564 -0.7333 -1.4841 -1.0652
  663MOL0     H89454   7.047   0.901   8.461  0.7925 -2.4150  0.6359
  663MOL0     H89455   6.959   0.872   8.607 -2.4540 -0.6162 -0.6217
  663MOL0     H89456   6.816   0.886   8.238 -0.8897  1.8769  1.8801
  663MOL0     H89457   6.760   0.575   8.124 -1.2353  0.3279 -1.2017
  663MOL0     H89458   6.628   0.531   8.217  0.3638  1.6959  3.5022
  663MOL0     H89459   6.492   0.744   8.150 -0.5421 -3.1064 -1.3469
  663MOL0     H89460   6.636   0.816   8.091  1.9854 -0.3559  2.8195
  663MOL0     H89461   6.483   0.609   7.947 -0.8699  1.2554 -3.1943
  663MOL0     H89462   6.653   0.643   7.904 -0.5802  0.6685 -2.1649
  663MOL0     H89463   6.595   0.873   7.863  2.0714 -1.2707  1.7484
  663MOL0     H89464   6.434   0.844   7.929  0.5085  0.6266  0.8512
  663MOL0     H89465   6.395   0.689   7.526 -0.0427 -0.1106 -6.8311
  663MOL0     H89466   6.286   0.820   7.351  0.2064 -3.1300  2.5878
  663MOL0     H89467   5.849   1.176   7.411  0.0280 -1.3061 -1.7384
  663MOL0     H89468   5.724   1.360   7.328 -0.4127  3.0524  1.6263
  663MOL0     H89469   5.611   1.546   7.250 -1.2414  0.8634  1.9349
  663MOL0     H89470   5.737   1.606   7.370 -0.7016  3.9767  0.2044
  663MOL0     H89471   5.601   1.788   7.307 -0.1740 -0.4342  0.8925
  663MOL0     H89472   5.749   1.813   7.225 -1.2538  0.2177  1.4918
  663MOL0     H89473   5.676   1.716   7.015  1.2240 -1.4667  2.2395
  663MOL0     H89474   5.524   1.656   7.078 -0.5375  1.6092  1.5130
  663MOL0     H89475   5.588   1.945   7.067  0.0024 -0.1699 -1.2309
  663MOL0     H89476   5.434   1.876   7.132 -0.3804 -1.6592 -0.0101
  663MOL0     H89477   5.386   1.772   6.914  0.5233  0.3736 -2.3817
  663MOL0     H89478   5.529   1.855   6.850  2.2130 -1.3160  1.3879
  663MOL0     H89479   5.409   2.066   6.975 -0.7153  2.8264 -3.1384
  663MOL0     H89480   5.389   2.021   6.810 -3.3565 -1.2729 -1.4674
  663MOL0     H89481   5.195   1.940   7.037 -0.8632  0.9036 -0.2033
  663MOL0     H89482   5.174   1.910   6.864  0.0425  1.3206 -0.5626
  663MOL0     H89483   5.194   2.178   7.017  2.3029  1.3306 -1.1763
  663MOL0     H89484   5.168   2.169   6.833 -0.0148  0.7749  1.0405
  663MOL0     H89485   6.086   1.505   7.139  1.3831  2.3606  3.2637
  663MOL0     H89486   6.207   1.338   7.246  0.4298 -0.8883  0.7147
  663MOL0     H89487   6.288   1.162   7.627  0.9987 -1.0826  3.2767
  663MOL0     H89488   6.385   1.013   7.797  0.4150  1.3385  1.0345
  663MOL0     H89489   7.528   1.243   8.495  0.0905 -0.7559 -0.0296
  663MOL0     H89490   7.735   1.173   8.375 -1.3537 -0.3830 -0.6339
  663MOL0     H89491   8.185   0.976   8.520  1.4094 -2.1000  1.5394
  663MOL0     H89492   8.377   0.885   8.421 -1.6070 -2.2617  3.5537
  663MOL0     H89493   8.447   0.605   8.436  0.3932 -1.5506  0.2849
  663MOL0     H89494   8.554   0.582   8.301 -0.7222 -0.3607 -1.2691
  663MOL0     H89495   8.379   0.487   8.159 -1.9836  1.7871 -0.3484
  663MOL0     H89496   8.269   0.466   8.281 -0.7238 -4.0388 -2.7408
  663MOL0     H89497   8.352   0.252   8.280 -0.4168  1.1358 -3.9418
  663MOL0     H89498   8.423   0.326   8.423 -1.1946  0.9386 -0.7724
  663MOL0     H89499   8.560   0.323   8.150 -2.2121 -0.2992 -0.2502
  663MOL0     H89500   8.645   0.356   8.295 -2.0276  3.3565 -1.6911
  663MOL0     H89501   8.623  -0.080   8.272 -0.1718 -1.4368  4.8484
  663MOL0     H89502   8.168   0.629   8.180  0.0003 -0.1667 -0.5204
  663MOL0     H89503   7.838   0.676   8.304  0.6583 -1.1837 -0.1220
  663MOL0     H89504   7.879   0.803   8.178  0.9138  1.0707  2.4296
  663MOL0     H89505   7.927   0.625   8.166 -0.1137  0.0973 -0.9245
  664MOL0     O89506   9.258   7.454   4.971  0.1819  0.0809 -0.0340
  664MOL0     C89507   9.199   7.559   4.950 -0.0640 -1.1570 -0.3908
  664MOL0     O89508   9.248   7.697   4.966  0.3043  0.5452  0.0787
  664MOL0     C89509   9.379   7.720   5.010  0.0575 -0.3304  0.3679
  664MOL0     C89510   9.393   7.825   5.100 -0.3208  0.4161 -0.2392
  664MOL0     C89511   9.518   7.850   5.159  1.1196 -0.3072 -0.7293
  664MOL0     C89512   9.628   7.782   5.107  0.1946  0.4958  0.2686
  664MOL0     O89513   9.762   7.801   5.139  0.5170  0.0205  0.5153
  664MOL0     C89514   9.798   7.767   5.272 -0.0996 -0.1439  0.3241
  664MOL0     C89515   9.921   7.681   5.297 -0.1749  0.5108  0.6563
  664MOL0     C89516   9.951   7.647   5.450 -0.5084 -0.3813  0.6986
  664MOL0     C89517   9.831   7.600   5.529  0.0788  0.1429 -0.5140
  664MOL0     C89518   9.856   7.500   5.638 -1.3169 -0.3769 -0.1804
  664MOL0     C89519   9.725   7.468   5.708  0.9628 -0.2314  0.3244
  664MOL0     C89520   9.738   7.357   5.817  0.1369  0.3731 -0.2043
  664MOL0     C89521   9.778   7.224   5.763 -0.1655  0.8401  0.7588
  664MOL0     N89522   9.719   7.110   5.833 -0.5293 -0.2536 -1.2244
  664MOL0     C89523   9.765   7.081   5.961  0.1460  0.5222  0.4713
  664MOL0     C89524   9.706   6.966   5.991  0.1002  0.8437  1.0360
  664MOL0     C89525   9.724   6.889   6.113 -0.4114 -0.6451 -0.2894
  664MOL0     C89526   9.716   6.729   6.111  1.0116 -0.0296 -0.8414
  664MOL0     C89527   9.843   6.663   6.037  1.6627 -1.3483 -1.2073
  664MOL0     C89528   9.846   6.508   6.057  0.8875 -0.5310  1.4641
  664MOL0     O89529   9.864   6.476   6.197 -0.3665  0.4251 -0.5099
  664MOL0     C89530   9.970   6.391   6.236 -0.4738  0.9299 -0.0441
  664MOL0     C89531   9.954   6.305   6.348  0.5491  0.3782 -0.2866
  664MOL0     C89532  10.057   6.228   6.396 -0.3079  0.0089  1.0881
  664MOL0     C89533  10.187   6.223   6.337  0.8896  0.1362  0.2581
  664MOL0     C89534  10.278   6.130   6.399 -1.3051  0.2165 -0.0434
  664MOL0     O89535  10.292   6.144   6.535 -0.2249 -0.2668 -0.8823
  664MOL0     C89536  10.394   6.068   6.594  0.5860 -0.2285  0.5645
  664MOL0     C89537  10.433   5.939   6.548 -0.2970  0.8011 -0.4481
  664MOL0     C89538  10.535   5.876   6.608 -0.8870  0.3251 -0.2100
  664MOL0     C89539  10.597   5.933   6.714  0.2627  0.5691 -0.0141
  664MOL0     O89540  10.707   5.871   6.783 -0.2395  0.0387 -0.1881
  664MOL0     C89541  10.824   5.845   6.704 -1.3137 -0.5841 -0.0181
  664MOL0     C89542  10.875   5.705   6.713  0.2542  0.3615 -0.6516
  664MOL0     C89543  10.847   5.622   6.585 -0.2470  0.4355 -0.3239
  664MOL0     C89544  10.899   5.473   6.602  0.9279  0.2617  0.6578
  664MOL0     C89545  10.891   5.393   6.477 -0.3088 -0.1872  0.5741
  664MOL0     C89546  10.959   5.259   6.495 -0.0816  0.2912  0.2932
  664MOL0     C89547  10.925   5.148   6.390  0.3136  0.0161 -1.1062
  664MOL0     C89548  10.963   5.192   6.249 -0.2128 -0.9847 -0.1178
  664MOL0    Cl89549  10.890   5.071   6.137 -0.0863  0.0839  0.1753
  664MOL0     C89550  10.552   6.051   6.768 -0.1372  1.1611  0.3214
  664MOL0     C89551  10.458   6.122   6.704 -0.1068  0.1207 -0.8989
  664MOL0     O89552  10.346   6.059   6.322 -1.0757  0.1924 -0.1702
  664MOL0     C89553  10.201   6.300   6.222 -0.4065  0.4528 -1.3912
  664MOL0     C89554  10.096   6.380   6.173  0.1341 -0.3002  0.5878
  664MOL0     N89555   9.624   6.929   5.887 -0.4267 -0.7910  0.1618
  664MOL0     N89556   9.625   7.016   5.799 -0.5774 -0.0451 -0.0542
  664MOL0     C89557   9.615   7.688   5.004  0.5041 -0.7479 -0.2953
  664MOL0     C89558   9.491   7.652   4.965 -0.2890 -0.2024  0.7498
  664MOL0     C89559   9.055   7.537   4.920 -0.3513  0.3205  1.1092
  664MOL0     C89560   8.959   7.529   5.021 -0.2992 -0.7381 -0.4653
  664MOL0     C89561   8.827   7.494   5.003  0.3981 -0.1097  0.2358
  664MOL0     C89562   8.786   7.462   4.872 -0.4290 -0.2157  0.1290
  664MOL0     O89563   8.667   7.402   4.863 -0.1417  0.4626  0.8036
  664MOL0     C89564   8.608   7.369   4.738  1.0705  0.0375  0.3489
  664MOL0     C89565   8.457   7.385   4.740  0.1377  0.1665 -0.5125
  664MOL0     C89566   8.416   7.527   4.741  0.4341 -0.5158 -0.0350
  664MOL0     C89567   8.257   7.529   4.724 -0.9462 -1.8500  0.8521
  664MOL0     C89568   8.219   7.654   4.668  0.3043  0.6978 -0.3554
  664MOL0     C89569   8.191   7.767   4.638  0.6571  0.0339  0.6374
  664MOL0     C89570   8.877   7.486   4.761 -0.1509  0.9701 -0.0901
  664MOL0     C89571   9.012   7.522   4.783  0.0975 -0.3844  0.6019
  664MOL0     C89572   9.108   7.523   4.668 -0.2923 -0.1747  0.0693
  664MOL0     H89573   9.298   7.866   5.134 -0.8176 -0.2567 -0.7981
  664MOL0     H89574   9.507   7.914   5.246 -3.9035  1.4570 -2.2798
  664MOL0     H89575   9.809   7.855   5.335  0.5205  0.0828 -0.0930
  664MOL0     H89576   9.714   7.706   5.306 -0.4734 -0.0114 -0.3411
  664MOL0     H89577  10.009   7.731   5.255 -0.0462  1.3438  1.8365
  664MOL0     H89578   9.912   7.590   5.238 -1.0344  1.3068 -0.4877
  664MOL0     H89579   9.997   7.734   5.498 -0.1474  0.4547 -1.0920
  664MOL0     H89580  10.028   7.569   5.453 -0.7064 -0.5937  0.1981
  664MOL0     H89581   9.756   7.675   5.557 -2.5943 -2.3660 -0.5169
  664MOL0     H89582   9.782   7.543   5.450 -3.4130  0.2651  1.3754
  664MOL0     H89583   9.894   7.410   5.589 -0.5600 -1.1782  1.7542
  664MOL0     H89584   9.926   7.535   5.715 -0.9151 -0.6958 -0.4018
  664MOL0     H89585   9.695   7.559   5.760 -0.2375  0.2906 -1.2151
  664MOL0     H89586   9.643   7.445   5.639  1.5703 -0.8980 -0.1897
  664MOL0     H89587   9.638   7.348   5.861 -0.4299  2.4039 -0.9168
  664MOL0     H89588   9.811   7.385   5.894  1.1191  0.3247 -1.0895
  664MOL0     H89589   9.741   7.227   5.660  1.7959  1.8778  0.0161
  664MOL0     H89590   9.886   7.207   5.764 -0.3972 -1.0505 -0.8931
  664MOL0     H89591   9.840   7.145   6.007 -0.7377  2.6199 -0.8284
  664MOL0     H89592   9.828   6.916   6.134 -0.1813  0.8832 -2.9114
  664MOL0     H89593   9.654   6.921   6.189 -2.3529  0.6866 -2.5157
  664MOL0     H89594   9.699   6.697   6.214 -1.8324  0.2822 -1.1505
  664MOL0     H89595   9.619   6.700   6.070 -0.0412 -0.1454  1.5879
  664MOL0     H89596   9.936   6.705   6.077  0.3309  0.1315  0.4619
  664MOL0     H89597   9.835   6.685   5.930 -0.9449 -0.0522 -0.8214
  664MOL0     H89598   9.927   6.471   5.994  0.9775 -0.0324  1.2817
  664MOL0     H89599   9.753   6.468   6.016  1.3832  0.3772 -0.6957
  664MOL0     H89600   9.869   6.306   6.417 -0.5760 -2.3136 -1.4870
  664MOL0     H89601  10.027   6.170   6.482 -1.2932 -0.3205  0.5299
  664MOL0     H89602  10.406   5.886   6.457  2.0169 -2.3915  0.5614
  664MOL0     H89603  10.582   5.788   6.566 -0.6710 -0.2707  1.2135
  664MOL0     H89604  10.820   5.872   6.598 -3.0379  1.9073  0.6060
  664MOL0     H89605  10.902   5.918   6.729 -2.2018  1.3437 -2.4721
  664MOL0     H89606  10.984   5.704   6.728  0.1491  1.2933  0.2623
  664MOL0     H89607  10.830   5.648   6.795 -0.8246  2.5351  0.3415
  664MOL0     H89608  10.742   5.619   6.556  0.5857 -0.4726 -3.6110
  664MOL0     H89609  10.889   5.682   6.504  0.2940  0.1861 -0.2356
  664MOL0     H89610  10.844   5.417   6.677  1.3263  2.4358  2.6824
  664MOL0     H89611  11.007   5.476   6.619  1.2085 -0.7567 -0.7627
  664MOL0     H89612  10.940   5.446   6.396 -1.2623 -1.7247 -1.0794
  664MOL0     H89613  10.787   5.384   6.445  0.3336  1.7080 -2.3840
  664MOL0     H89614  11.067   5.271   6.507 -0.1236  1.9691 -0.7271
  664MOL0     H89615  10.921   5.228   6.592  1.4253  2.6274  1.7069
  664MOL0     H89616  10.818   5.130   6.403  0.7021 -1.6455  0.1433
  664MOL0     H89617  10.986   5.060   6.413 -2.1646 -1.9117 -1.5293
  664MOL0     H89618  10.902   5.282   6.232 -4.5603 -2.8471  3.6214
  664MOL0     H89619  11.070   5.212   6.235 -0.5938  0.3776 -1.3628
  664MOL0     H89620  10.609   6.069   6.859 -1.7759 -1.0926  1.9028
  664MOL0     H89621  10.437   6.221   6.742 -3.4058 -0.8508  0.1997
  664MOL0     H89622  10.298   6.286   6.176 -1.6315 -1.7358 -3.5387
  664MOL0     H89623  10.113   6.442   6.085  0.1871 -3.6227 -1.9326
  664MOL0     H89624   9.703   7.652   4.950  2.7148  4.3392 -0.6396
  664MOL0     H89625   9.466   7.580   4.888  2.3204  0.4057 -0.7871
  664MOL0     H89626   8.985   7.551   5.124 -1.1550 -0.6099 -0.2681
  664MOL0     H89627   8.755   7.499   5.084 -0.4853 -2.4610 -0.2951
  664MOL0     H89628   8.627   7.262   4.720  0.5357 -0.1158  0.6594
  664MOL0     H89629   8.661   7.416   4.654  0.0529 -2.2215 -1.6929
  664MOL0     H89630   8.428   7.336   4.833  1.8854  1.6129  0.8856
  664MOL0     H89631   8.414   7.322   4.662 -0.2321 -1.1670  0.7314
  664MOL0     H89632   8.469   7.567   4.654  0.2567  1.2368  0.6350
  664MOL0     H89633   8.440   7.576   4.835 -4.4669  2.4935 -0.0013
  664MOL0     H89634   8.220   7.453   4.655 -0.1644 -0.1316 -1.6127
  664MOL0     H89635   8.211   7.524   4.823 -1.5213  1.0637  0.8147
  664MOL0     H89636   8.161   7.869   4.630  0.3562 -0.0026  1.2459
  664MOL0     H89637   8.853   7.464   4.657 -0.6268  2.8963 -0.4206
  664MOL0     H89638   9.118   7.626   4.633 -1.0265 -0.4709 -1.0273
  664MOL0     H89639   9.203   7.484   4.706 -0.2491  2.4052  3.0926
  664MOL0     H89640   9.078   7.457   4.587 -1.5170  0.7124 -0.2309
  665MOL0     O89641  10.673   2.292   2.383 -0.0281 -0.1039 -0.2590
  665MOL0     C89642  10.742   2.264   2.477 -0.3314  0.3420 -0.3255
  665MOL0     O89643  10.694   2.194   2.583 -1.0218  0.6351  1.0991
  665MOL0     C89644  10.571   2.126   2.596  0.0882 -0.2631 -0.1117
  665MOL0     C89645  10.460   2.111   2.513  0.6663  0.7689 -0.3451
  665MOL0     C89646  10.346   2.044   2.556  0.0654  0.9519 -0.4701
  665MOL0     C89647  10.344   1.983   2.685  0.9048 -0.6676 -0.5352
  665MOL0     O89648  10.237   1.915   2.745  0.3413 -0.2316 -0.6173
  665MOL0     C89649  10.110   1.948   2.698  0.0740 -0.6280  0.1773
  665MOL0     C89650   9.998   1.906   2.793  1.1825  0.5657 -0.1344
  665MOL0     C89651   9.863   1.835   2.733 -0.7032 -0.3124  0.4014
  665MOL0     C89652   9.750   1.906   2.792  1.2934 -0.0033 -0.6143
  665MOL0     C89653   9.616   1.866   2.737  0.6918 -1.0169  0.7447
  665MOL0     C89654   9.541   1.980   2.640 -0.6477  0.0271 -0.7055
  665MOL0     C89655   9.424   1.920   2.560 -0.2098 -0.3245 -0.5224
  665MOL0     C89656   9.467   1.848   2.431 -0.6627 -0.4769  0.0428
  665MOL0     N89657   9.338   1.829   2.369  1.1151  0.3054  0.9073
  665MOL0     C89658   9.291   1.702   2.341  0.2778 -0.8286  0.3051
  665MOL0     C89659   9.171   1.711   2.282 -0.3257 -0.1393 -0.6636
  665MOL0     C89660   9.076   1.603   2.232 -0.4973  0.4470  0.6617
  665MOL0     C89661   9.102   1.474   2.313  0.2792 -0.8810 -0.8883
  665MOL0     C89662   9.021   1.349   2.274  0.7273  0.1642  1.4216
  665MOL0     C89663   8.871   1.386   2.247 -0.2879  0.4275  0.1436
  665MOL0     O89664   8.806   1.447   2.359  0.2745  0.2241  0.0349
  665MOL0     C89665   8.666   1.449   2.355  1.0147 -0.8489 -0.6511
  665MOL0     C89666   8.611   1.491   2.480 -0.9540  0.0601  0.2397
  665MOL0     C89667   8.474   1.507   2.498  0.6248  1.6280 -0.5074
  665MOL0     C89668   8.380   1.481   2.394 -0.2667 -0.0495 -0.5795
  665MOL0     C89669   8.237   1.503   2.415 -0.6641 -0.6704  0.4065
  665MOL0     O89670   8.157   1.439   2.334  0.1162 -0.1514 -0.0118
  665MOL0     C89671   8.025   1.445   2.364 -0.5686  0.7448 -0.5950
  665MOL0     C89672   7.929   1.511   2.290  0.8553 -0.1515 -0.3585
  665MOL0     C89673   7.791   1.512   2.326  0.5014  0.1699 -0.4039
  665MOL0     C89674   7.754   1.448   2.452 -0.4054 -0.2700 -0.2629
  665MOL0     O89675   7.627   1.434   2.506  1.0524  0.0581  1.3172
  665MOL0     C89676   7.518   1.493   2.442  0.2826 -0.8367  0.3091
  665MOL0     C89677   7.403   1.484   2.544 -0.3545  0.6245 -0.5945
  665MOL0     C89678   7.436   1.542   2.680 -0.5125  0.4061 -0.3757
  665MOL0     C89679   7.365   1.678   2.672  0.2526 -0.5282 -0.6640
  665MOL0     C89680   7.362   1.734   2.814  0.4679  0.4655  0.2277
  665MOL0     C89681   7.335   1.885   2.803 -0.7586 -0.0581  0.4011
  665MOL0     C89682   7.308   1.946   2.937 -0.0013  0.3581  0.2582
  665MOL0     C89683   7.428   1.957   3.023 -0.1500  0.0523 -0.0848
  665MOL0    Cl89684   7.417   2.096   3.143 -0.3857 -0.0204  0.1226
  665MOL0     C89685   7.856   1.376   2.526  0.2115  0.6086 -0.4322
  665MOL0     C89686   7.989   1.381   2.481 -0.2706 -0.4503 -0.7165
  665MOL0     O89687   8.200   1.570   2.511  0.0944 -0.6797 -0.5322
  665MOL0     C89688   8.434   1.434   2.275  0.4580 -0.4574  0.0694
  665MOL0     C89689   8.575   1.419   2.259  1.0485  1.0604 -0.3742
  665MOL0     N89690   9.137   1.858   2.280 -0.1191  0.4650 -0.0094
  665MOL0     N89691   9.237   1.921   2.329 -0.6573  1.4009 -0.6843
  665MOL0     C89692  10.457   1.996   2.765 -0.1968  0.1869  0.4544
  665MOL0     C89693  10.570   2.068   2.727 -0.6178 -0.3534  0.3345
  665MOL0     C89694  10.885   2.325   2.482 -0.4401  0.0461 -0.0828
  665MOL0     C89695  10.937   2.357   2.618 -0.1108  0.2094  0.2669
  665MOL0     C89696  11.065   2.397   2.635 -0.6271  0.8211 -0.0083
  665MOL0     C89697  11.144   2.428   2.521  0.4290 -0.2175  0.1067
  665MOL0     O89698  11.272   2.462   2.535 -0.9015  0.0223 -0.4859
  665MOL0     C89699  11.298   2.591   2.588  0.6930 -0.7468 -0.1351
  665MOL0     C89700  11.407   2.603   2.700  0.3586  0.1089  0.4716
  665MOL0     C89701  11.541   2.577   2.646 -0.2755  0.3538  0.5405
  665MOL0     C89702  11.582   2.431   2.603 -1.0199  0.2248 -0.3245
  665MOL0     C89703  11.732   2.422   2.606  0.8351 -0.3227  0.1301
  665MOL0     C89704  11.848   2.397   2.606  0.2596  0.8489 -1.0019
  665MOL0     C89705  11.096   2.406   2.394 -0.0387  0.0451 -0.1984
  665MOL0     C89706  10.965   2.354   2.374 -0.1716 -0.3027  0.4406
  665MOL0     C89707  10.917   2.338   2.236  0.1416 -0.0056 -0.2924
  665MOL0     H89708  10.472   2.144   2.410 -1.2065  0.7008 -0.6248
  665MOL0     H89709  10.258   2.022   2.497  0.4251 -3.3612  0.2652
  665MOL0     H89710  10.104   2.053   2.665  3.3771 -0.8935 -1.7127
  665MOL0     H89711  10.095   1.881   2.612  1.1759 -2.3418  1.2732
  665MOL0     H89712   9.972   1.997   2.849 -2.0364 -0.1476 -0.3073
  665MOL0     H89713  10.046   1.844   2.869  1.2106  1.7461  0.8479
  665MOL0     H89714   9.851   1.731   2.762  0.4161 -0.3860  0.6140
  665MOL0     H89715   9.859   1.840   2.623 -0.6966 -1.3000  0.3529
  665MOL0     H89716   9.746   1.900   2.901 -2.5154  1.3683 -0.5370
  665MOL0     H89717   9.768   2.013   2.774  1.7068  0.4023  1.8170
  665MOL0     H89718   9.625   1.781   2.668  1.7940 -1.3207  1.2419
  665MOL0     H89719   9.545   1.855   2.819  2.9635  2.7817  3.5648
  665MOL0     H89720   9.509   2.067   2.698 -1.3118 -0.7064  0.0523
  665MOL0     H89721   9.618   2.009   2.567  0.6071  2.0058  1.2805
  665MOL0     H89722   9.372   2.013   2.534 -0.7156 -0.2402  0.7023
  665MOL0     H89723   9.365   1.848   2.617  0.8385 -1.6078 -1.0022
  665MOL0     H89724   9.534   1.918   2.381  0.2964 -0.5460  1.1962
  665MOL0     H89725   9.538   1.765   2.428  1.7221  1.4944 -1.6838
  665MOL0     H89726   9.340   1.607   2.362  0.1211 -0.4934  2.3103
  665MOL0     H89727   8.972   1.628   2.253 -0.5564 -0.1844  1.1621
  665MOL0     H89728   9.084   1.571   2.127  2.1064  2.8905 -0.0111
  665MOL0     H89729   9.207   1.445   2.305  0.5991  0.6930 -2.9141
  665MOL0     H89730   9.090   1.493   2.420 -0.8386  3.3962 -1.6110
  665MOL0     H89731   9.034   1.259   2.334  0.1158 -1.1897 -0.3731
  665MOL0     H89732   9.062   1.325   2.176  1.2784  2.2971  1.0897
  665MOL0     H89733   8.811   1.297   2.227 -1.4610  1.0910  0.6135
  665MOL0     H89734   8.849   1.445   2.157  1.0907  0.5693 -0.1199
  665MOL0     H89735   8.673   1.518   2.565 -1.0813  0.9755  0.0522
  665MOL0     H89736   8.436   1.539   2.594  4.0653  0.2313  1.5147
  665MOL0     H89737   7.949   1.578   2.207 -0.5996  0.3342 -0.3397
  665MOL0     H89738   7.724   1.558   2.255 -0.3906  1.2776  1.1083
  665MOL0     H89739   7.537   1.599   2.422  0.6651 -1.0642 -0.5563
  665MOL0     H89740   7.498   1.444   2.347  2.2679  0.7284 -1.0104
  665MOL0     H89741   7.306   1.518   2.507 -1.0729  0.6282  1.2043
  665MOL0     H89742   7.399   1.377   2.566  4.1150  0.3949  0.0802
  665MOL0     H89743   7.401   1.473   2.757  4.5281 -3.9208 -1.3968
  665MOL0     H89744   7.544   1.553   2.683 -0.4402  2.1860 -4.0510
  665MOL0     H89745   7.261   1.676   2.637 -0.7136  1.3842  1.7171
  665MOL0     H89746   7.419   1.751   2.611  1.0598  0.7752  1.4949
  665MOL0     H89747   7.466   1.713   2.839 -0.4718 -0.5229  4.0544
  665MOL0     H89748   7.288   1.699   2.887  2.1983  0.3444  1.9976
  665MOL0     H89749   7.411   1.932   2.741  0.0542 -0.2590  1.2219
  665MOL0     H89750   7.247   1.887   2.739 -3.2199  1.1393  3.5550
  665MOL0     H89751   7.219   1.912   2.991 -0.8324  5.1312  2.3597
  665MOL0     H89752   7.280   2.051   2.928 -0.3466  0.3200  0.8052
  665MOL0     H89753   7.462   1.864   3.068  1.5584  0.9405  0.5503
  665MOL0     H89754   7.516   1.982   2.963  1.0640 -1.0786  1.1618
  665MOL0     H89755   7.836   1.318   2.616  1.2240  0.6207 -0.1877
  665MOL0     H89756   8.066   1.334   2.541  0.8675 -0.0919 -1.8634
  665MOL0     H89757   8.367   1.406   2.194 -0.1635  1.0212  0.0308
  665MOL0     H89758   8.624   1.376   2.171  2.3970  3.7425 -1.0360
  665MOL0     H89759  10.434   1.960   2.865 -5.2566 -0.1917 -0.6103
  665MOL0     H89760  10.655   2.097   2.787 -1.1968  2.5947 -0.1478
  665MOL0     H89761  10.873   2.348   2.705  1.3510 -0.9860  1.2781
  665MOL0     H89762  11.104   2.409   2.735  2.5017  0.1887 -1.0469
  665MOL0     H89763  11.207   2.621   2.641 -0.7792  0.8369 -3.2928
  665MOL0     H89764  11.317   2.658   2.503  4.2128  0.4609  1.4122
  665MOL0     H89765  11.372   2.545   2.786 -4.7498  1.3804 -0.3669
  665MOL0     H89766  11.400   2.705   2.739 -4.0870  0.6799 -1.2209
  665MOL0     H89767  11.613   2.610   2.722 -0.3274  0.0976  0.7014
  665MOL0     H89768  11.543   2.642   2.558  0.2559 -1.4581 -0.8401
  665MOL0     H89769  11.539   2.358   2.673 -1.7490  0.1788 -0.8078
  665MOL0     H89770  11.559   2.399   2.501  0.0735  0.3690 -0.6269
  665MOL0     H89771  11.953   2.377   2.617 -0.1910 -0.8677  0.9223
  665MOL0     H89772  11.164   2.432   2.313  2.6294  2.0593  2.5010
  665MOL0     H89773  10.992   2.353   2.157  2.5677  0.3643  1.9478
  665MOL0     H89774  10.887   2.233   2.245  0.0740  0.1876  3.0944
  665MOL0     H89775  10.831   2.403   2.219 -1.4445 -1.8094  0.4238
  666MOL0     O89776   8.151   2.005   3.867  0.1861 -0.1221  0.5746
  666MOL0     C89777   8.114   1.895   3.914  0.4923  0.1579  0.5168
  666MOL0     O89778   7.987   1.845   3.908 -0.0478  0.5420  0.0541
  666MOL0     C89779   7.895   1.912   3.825  0.2414  0.2173 -1.3610
  666MOL0     C89780   7.782   1.971   3.890 -0.3431  0.7155 -0.5961
  666MOL0     C89781   7.673   2.017   3.828 -0.3619 -0.3915  0.4181
  666MOL0     C89782   7.680   2.014   3.686  0.0176  0.7564 -0.5015
  666MOL0     O89783   7.573   2.069   3.613  0.1376 -0.2246 -0.0174
  666MOL0     C89784   7.589   2.129   3.485  0.3995 -0.5405  0.6386
  666MOL0     C89785   7.482   2.240   3.474 -1.0484 -0.2097 -0.3715
  666MOL0     C89786   7.544   2.380   3.511  0.3213 -0.0003  0.7116
  666MOL0     C89787   7.573   2.391   3.664  0.0531 -0.1946 -0.1573
  666MOL0     C89788   7.671   2.511   3.704  0.2893 -0.0248  0.6809
  666MOL0     C89789   7.797   2.493   3.629  0.1228  0.6397  0.2359
  666MOL0     C89790   7.860   2.360   3.667  0.3093 -0.1059  1.0184
  666MOL0     C89791   7.886   2.319   3.815  0.4060 -0.4532 -0.0477
  666MOL0     N89792   7.986   2.412   3.881 -0.0845 -0.3108 -0.2760
  666MOL0     C89793   8.118   2.374   3.903  0.2870  0.6256 -0.4905
  666MOL0     C89794   8.174   2.483   3.970 -0.0574 -0.4612  1.1629
  666MOL0     C89795   8.313   2.480   4.019 -0.0323  0.5827 -0.4550
  666MOL0     C89796   8.325   2.527   4.166 -0.2485  0.5429 -0.1502
  666MOL0     C89797   8.355   2.683   4.175  0.3861  0.2295 -0.8639
  666MOL0     C89798   8.240   2.766   4.231  0.4531 -0.8074  0.2129
  666MOL0     O89799   8.258   2.900   4.175  0.0225 -0.1595  0.6609
  666MOL0     C89800   8.148   2.986   4.197 -0.0683 -0.0422 -1.0778
  666MOL0     C89801   8.181   3.122   4.209  0.5566 -0.2617  0.3705
  666MOL0     C89802   8.090   3.220   4.245 -0.4531 -0.0054  0.2854
  666MOL0     C89803   7.960   3.179   4.276 -0.2507 -0.0130  0.1802
  666MOL0     C89804   7.849   3.269   4.297  0.5923 -0.1427 -0.2568
  666MOL0     O89805   7.728   3.225   4.277  0.5993  0.6378  1.5856
  666MOL0     C89806   7.621   3.291   4.337  0.4067  1.3305 -0.5574
  666MOL0     C89807   7.623   3.357   4.453  1.2718 -0.7751  0.0081
  666MOL0     C89808   7.505   3.425   4.491 -0.4679  1.1537 -0.7657
  666MOL0     C89809   7.389   3.411   4.416 -0.3657  1.2187 -0.3491
  666MOL0     O89810   7.276   3.476   4.441 -0.4877 -0.3145  0.2851
  666MOL0     C89811   7.186   3.398   4.523  0.2942 -0.1892 -0.1000
  666MOL0     C89812   7.088   3.486   4.599  0.4720 -0.9084 -0.0204
  666MOL0     C89813   7.024   3.407   4.714 -0.1900  0.0549 -0.8031
  666MOL0     C89814   7.096   3.387   4.838  0.2306 -0.0769 -0.9525
  666MOL0     C89815   7.074   3.252   4.907 -0.6365 -0.8909  0.1894
  666MOL0     C89816   6.938   3.223   4.962  0.3723  0.4875 -0.1738
  666MOL0     C89817   6.937   3.073   5.007 -0.2366 -0.1472  1.1638
  666MOL0     C89818   6.796   3.033   5.062  0.2768 -0.1813  0.0150
  666MOL0    Cl89819   6.836   2.873   5.139 -0.3091 -0.4383  0.6128
  666MOL0     C89820   7.386   3.332   4.300  0.2253 -0.4267 -0.0007
  666MOL0     C89821   7.505   3.279   4.255  0.4471  0.0848 -0.0956
  666MOL0     O89822   7.877   3.385   4.322 -0.8938  0.2094 -0.3523
  666MOL0     C89823   7.918   3.037   4.255 -0.1749 -0.4706 -0.1884
  666MOL0     C89824   8.013   2.948   4.217  0.6243  0.2095  0.1451
  666MOL0     N89825   8.079   2.584   3.978  0.8881  0.5086  0.5093
  666MOL0     N89826   7.965   2.540   3.929  1.1448  0.2451 -0.0908
  666MOL0     C89827   7.790   1.958   3.610  0.2667 -0.7580 -0.0444
  666MOL0     C89828   7.903   1.901   3.683 -0.8190 -0.2936  0.3499
  666MOL0     C89829   8.213   1.808   3.988  0.3882 -0.4285 -0.3203
  666MOL0     C89830   8.161   1.723   4.081  0.3302 -0.0278 -0.2044
  666MOL0     C89831   8.247   1.656   4.172 -0.4705  0.3988  0.9416
  666MOL0     C89832   8.388   1.663   4.162  0.7465  0.3245 -0.0056
  666MOL0     O89833   8.453   1.595   4.257  0.0876  0.3390 -0.3101
  666MOL0     C89834   8.595   1.589   4.243  0.5073  0.2969  0.2947
  666MOL0     C89835   8.638   1.476   4.143  0.2046  0.7641  0.6694
  666MOL0     C89836   8.585   1.344   4.196  0.0563  0.8279 -0.2246
  666MOL0     C89837   8.610   1.223   4.109  0.8154  0.0935 -0.0862
  666MOL0     C89838   8.551   1.110   4.176 -0.4913  0.5862  0.3997
  666MOL0     C89839   8.491   1.024   4.243 -0.3773 -0.2459 -1.5428
  666MOL0     C89840   8.437   1.738   4.058 -0.5532  0.4736  0.6090
  666MOL0     C89841   8.354   1.813   3.972 -0.7865  0.7434  0.2130
  666MOL0     C89842   8.428   1.887   3.859 -0.1969  1.0131 -0.3731
  666MOL0     H89843   7.775   1.969   3.999  1.2608  3.8948 -0.3026
  666MOL0     H89844   7.599   2.061   3.893  2.9163  4.2643  1.4581
  666MOL0     H89845   7.691   2.165   3.473  0.0887  1.5028  3.0609
  666MOL0     H89846   7.560   2.056   3.410 -1.7732  0.4096  0.4582
  666MOL0     H89847   7.402   2.194   3.532  0.0211 -0.0654  1.2837
  666MOL0     H89848   7.438   2.254   3.374  3.7100 -1.1517 -2.8866
  666MOL0     H89849   7.475   2.458   3.476  0.1264 -0.6512 -0.4141
  666MOL0     H89850   7.629   2.377   3.442  1.4034 -0.6309  2.0469
  666MOL0     H89851   7.476   2.395   3.715  1.1222 -0.4130  2.0209
  666MOL0     H89852   7.619   2.301   3.706 -0.0504 -1.8607 -3.2847
  666MOL0     H89853   7.634   2.613   3.698 -2.6585 -0.9910  1.0870
  666MOL0     H89854   7.691   2.492   3.810  1.4908  1.3567  0.7393
  666MOL0     H89855   7.787   2.503   3.521  1.9968  1.0739  0.0616
  666MOL0     H89856   7.864   2.570   3.669 -0.4304  0.9118  0.6512
  666MOL0     H89857   7.957   2.366   3.615 -0.4440  2.4681 -0.2918
  666MOL0     H89858   7.810   2.278   3.616 -3.7368  3.6070 -1.7924
  666MOL0     H89859   7.793   2.314   3.872 -0.0407  2.5188 -0.3800
  666MOL0     H89860   7.931   2.220   3.805 -0.4487 -0.6778 -2.2156
  666MOL0     H89861   8.167   2.278   3.889 -0.5828  0.0770  0.1321
  666MOL0     H89862   8.347   2.376   4.024 -0.7182  0.3834  0.2139
  666MOL0     H89863   8.374   2.546   3.957  4.1800 -0.8024  1.7971
  666MOL0     H89864   8.231   2.505   4.216 -0.3878 -1.8413 -1.3044
  666MOL0     H89865   8.407   2.470   4.211 -1.7721 -1.2133  0.4933
  666MOL0     H89866   8.380   2.714   4.073  2.3148  1.2138 -0.1342
  666MOL0     H89867   8.451   2.691   4.228 -0.2767 -1.2515  0.6613
  666MOL0     H89868   8.241   2.770   4.341 -2.9463  0.3625  0.3352
  666MOL0     H89869   8.150   2.715   4.196  0.4142 -0.0059 -0.9163
  666MOL0     H89870   8.289   3.134   4.204  0.5210  0.3528  0.9229
  666MOL0     H89871   8.118   3.323   4.266 -2.6276  0.2923  2.2215
  666MOL0     H89872   7.718   3.365   4.505  0.8381 -0.2870  0.7371
  666MOL0     H89873   7.490   3.500   4.568 -4.4442 -0.5673  0.3398
  666MOL0     H89874   7.146   3.327   4.450  1.6266 -0.7516 -0.3078
  666MOL0     H89875   7.251   3.341   4.590  0.8750  0.6112  0.0246
  666MOL0     H89876   7.130   3.572   4.651  2.5586 -1.9464  0.1315
  666MOL0     H89877   7.013   3.514   4.525  0.8080  0.3485  0.1007
  666MOL0     H89878   6.941   3.461   4.760  2.2029  0.0399  4.2563
  666MOL0     H89879   7.006   3.307   4.674  2.2261 -1.7617  2.1895
  666MOL0     H89880   7.077   3.465   4.913  2.8278  1.4944 -1.8168
  666MOL0     H89881   7.204   3.394   4.827  0.0954 -0.0011 -2.5053
  666MOL0     H89882   7.149   3.230   4.984 -0.9809 -0.7677  0.5680
  666MOL0     H89883   7.096   3.175   4.833  0.2284  0.6523 -1.2385
  666MOL0     H89884   6.925   3.286   5.050  0.3132  1.0460 -0.5792
  666MOL0     H89885   6.858   3.248   4.892 -0.6195  2.3365  1.5141
  666MOL0     H89886   7.008   3.047   5.086 -0.3159 -3.1074  0.3559
  666MOL0     H89887   6.953   3.000   4.928 -2.2919 -1.2945  1.7303
  666MOL0     H89888   6.751   3.101   5.136 -1.2088 -0.0477 -0.9739
  666MOL0     H89889   6.732   3.029   4.974 -0.1940 -2.6009  0.3935
  666MOL0     H89890   7.298   3.332   4.236 -0.3926  0.3737  0.8278
  666MOL0     H89891   7.509   3.230   4.158 -3.3277  3.5545 -2.3261
  666MOL0     H89892   7.812   3.016   4.248 -1.4554  3.7808  2.3588
  666MOL0     H89893   7.991   2.842   4.202 -1.4836  0.8993 -2.3768
  666MOL0     H89894   7.773   1.959   3.503 -2.6038 -2.4543  0.2987
  666MOL0     H89895   7.981   1.847   3.631  1.9112  1.4307  2.3143
  666MOL0     H89896   8.055   1.719   4.103 -0.0414 -1.8398 -2.0255
  666MOL0     H89897   8.206   1.586   4.243 -1.0018  0.0711  0.3268
  666MOL0     H89898   8.625   1.573   4.347 -2.1457  3.1548  1.6830
  666MOL0     H89899   8.634   1.688   4.217  0.3557 -0.1679 -1.8481
  666MOL0     H89900   8.747   1.467   4.142  0.1525 -0.1397 -1.2425
  666MOL0     H89901   8.604   1.495   4.040 -1.5128 -2.3168  0.5475
  666MOL0     H89902   8.480   1.344   4.225  0.4469 -3.5077  1.9646
  666MOL0     H89903   8.631   1.331   4.295 -0.3491 -2.2845 -0.3512
  666MOL0     H89904   8.564   1.231   4.010  0.3293 -3.0976 -0.1988
  666MOL0     H89905   8.718   1.209   4.100  0.5007 -1.3649 -2.6409
  666MOL0     H89906   8.435   0.954   4.301  0.9561 -0.3801 -0.3516
  666MOL0     H89907   8.545   1.741   4.048 -0.3284  0.8788  2.7390
  666MOL0     H89908   8.400   1.992   3.865 -3.9805  0.1336 -0.1081
  666MOL0     H89909   8.536   1.871   3.874  0.0708  0.1516 -2.8005
  666MOL0     H89910   8.412   1.844   3.760  0.5321 -0.1099 -0.0230
  667MOL0     O89911   7.206   8.414   4.916  0.6701  0.8203  0.1472
  667MOL0     C89912   7.112   8.364   4.846 -0.3669  0.4316  0.5508
  667MOL0     O89913   7.053   8.431   4.748 -0.1312 -0.5208  0.0846
  667MOL0     C89914   7.119   8.541   4.693 -0.6640  0.5325 -1.0763
  667MOL0     C89915   7.091   8.663   4.768  0.5371  0.0286  0.0706
  667MOL0     C89916   7.148   8.780   4.710 -0.0972  0.1254 -0.0993
  667MOL0     C89917   7.205   8.783   4.588  0.1980  0.3099  0.0835
  667MOL0     O89918   7.254   8.909   4.551  0.9628 -0.0945 -0.6866
  667MOL0     C89919   7.312   8.924   4.424  0.5414 -0.3582  0.5332
  667MOL0     C89920   7.310   9.069   4.378  0.1287 -0.5439 -0.0499
  667MOL0     C89921   7.166   9.112   4.341 -0.0127 -0.1662 -0.1049
  667MOL0     C89922   7.154   9.263   4.297 -0.4708 -0.0432 -0.3593
  667MOL0     C89923   7.013   9.319   4.312 -0.2776  0.7628  0.2720
  667MOL0     C89924   7.026   9.456   4.391  0.9972 -0.0454 -1.0456
  667MOL0     C89925   6.894   9.535   4.406  0.7191 -0.5240  0.3123
  667MOL0     C89926   6.909   9.680   4.454  0.7410 -1.0519  0.4779
  667MOL0     N89927   7.003   9.691   4.556 -1.0063  0.7178  0.1556
  667MOL0     C89928   7.092   9.787   4.561 -1.8421  0.6649 -0.3778
  667MOL0     C89929   7.125   9.802   4.694 -0.0681 -0.0197 -0.2663
  667MOL0     C89930   7.202   9.912   4.760  0.2474 -0.0540  0.7559
  667MOL0     C89931   7.356   9.920   4.715  0.6829  1.1345 -0.7745
  667MOL0     C89932   7.428   9.810   4.791 -0.3254  0.8670 -0.2649
  667MOL0     C89933   7.569   9.792   4.721  0.5600  0.1331 -0.6171
  667MOL0     O89934   7.656   9.892   4.767  0.4178 -0.0549  0.0850
  667MOL0     C89935   7.707   9.883   4.900 -0.3257  0.1858 -0.3491
  667MOL0     C89936   7.761  10.009   4.941 -0.4852  0.5464  0.7964
  667MOL0     C89937   7.830  10.023   5.059  0.4393 -0.1886  0.0719
  667MOL0     C89938   7.854   9.909   5.138  0.0114 -0.5620  1.1800
  667MOL0     C89939   7.934   9.903   5.256 -0.3484 -0.0196 -0.7755
  667MOL0     O89940   8.014  10.015   5.283  0.5837  0.1107  0.1638
  667MOL0     C89941   8.105  10.012   5.393  0.0690  0.1451 -0.0072
  667MOL0     C89942   8.228   9.943   5.390 -0.0069 -0.3277 -0.1251
  667MOL0     C89943   8.332   9.948   5.492 -0.1522 -0.0855  0.2547
  667MOL0     C89944   8.296  10.022   5.607  0.6476  1.1736  0.3310
  667MOL0     O89945   8.364  10.000   5.722 -0.3773 -0.1509 -0.1063
  667MOL0     C89946   8.473  10.088   5.758  0.2343  0.4655 -1.0719
  667MOL0     C89947   8.518  10.055   5.902  0.9201 -0.2737 -0.7676
  667MOL0     C89948   8.623  10.156   5.952 -0.1444 -0.1306  0.1664
  667MOL0     C89949   8.757  10.115   5.893 -0.2124  0.3423 -0.5245
  667MOL0     C89950   8.864  10.210   5.953 -0.1804 -0.2364  0.1416
  667MOL0     C89951   9.009  10.187   5.924 -1.2203 -0.5861 -0.6982
  667MOL0     C89952   9.095  10.244   6.044  0.7430 -0.0038 -0.4407
  667MOL0     C89953   9.225  10.302   5.999  0.8513 -1.1440  0.4991
  667MOL0    Cl89954   9.351  10.190   6.040  0.2527 -0.9246 -0.0239
  667MOL0     C89955   8.183  10.100   5.604  0.0151  0.2642  0.1403
  667MOL0     C89956   8.085  10.100   5.497  0.0380  0.4418  0.0077
  667MOL0     O89957   7.923   9.805   5.328 -0.4710 -0.2625  0.0688
  667MOL0     C89958   7.798   9.790   5.100  0.4317  0.2325  0.0618
  667MOL0     C89959   7.730   9.766   4.978  0.1291 -0.1462 -0.1179
  667MOL0     N89960   7.065   9.700   4.767  0.1177  0.0499 -0.3041
  667MOL0     N89961   6.994   9.626   4.676 -0.4503 -0.1582  0.0202
  667MOL0     C89962   7.208   8.663   4.514 -0.1281 -0.5018 -0.4284
  667MOL0     C89963   7.170   8.543   4.564 -1.1849  0.9144 -0.9280
  667MOL0     C89964   7.086   8.217   4.867  0.1629 -0.4597  0.5857
  667MOL0     C89965   7.131   8.161   4.988 -0.0168 -0.5556  0.3925
  667MOL0     C89966   7.107   8.028   5.015  0.8193  0.6921 -0.0253
  667MOL0     C89967   7.032   7.951   4.936 -0.0314 -0.3587  0.1273
  667MOL0     O89968   7.002   7.830   4.992  0.8636 -0.0848  0.2801
  667MOL0     C89969   7.106   7.734   4.982  1.4546  0.1167  0.3112
  667MOL0     C89970   7.056   7.614   5.065 -0.7706  0.2457  0.4905
  667MOL0     C89971   7.166   7.516   5.116  0.9587  0.4394 -0.3184
  667MOL0     C89972   7.234   7.412   5.019 -0.2586  0.1990  0.6376
  667MOL0     C89973   7.375   7.389   5.049 -0.6952 -0.1305  0.2140
  667MOL0     C89974   7.488   7.369   5.085  0.0576  0.6200 -0.2895
  667MOL0     C89975   6.969   8.000   4.824  0.2416  0.4876  0.5397
  667MOL0     C89976   6.997   8.137   4.782  0.4416 -0.1415 -0.7145
  667MOL0     C89977   6.945   8.183   4.650  0.5195  0.3713  0.1489
  667MOL0     H89978   7.038   8.652   4.862  1.9076  1.1735  1.0201
  667MOL0     H89979   7.113   8.872   4.755 -0.3047  0.1659 -0.3404
  667MOL0     H89980   7.421   8.911   4.435  1.9499  2.4608 -5.8142
  667MOL0     H89981   7.272   8.860   4.345  3.8142 -1.7970 -0.1380
  667MOL0     H89982   7.373   9.072   4.290 -1.4486 -3.6767 -1.4473
  667MOL0     H89983   7.344   9.137   4.457 -1.0772  1.1165 -0.8990
  667MOL0     H89984   7.096   9.108   4.425 -0.5035  1.1369 -0.4320
  667MOL0     H89985   7.116   9.041   4.274 -2.2858  3.5249 -2.7080
  667MOL0     H89986   7.225   9.314   4.364 -0.2297 -0.0829 -0.5837
  667MOL0     H89987   7.182   9.270   4.192 -1.8655  0.9491 -0.6836
  667MOL0     H89988   6.968   9.342   4.215 -0.8727 -0.9234  0.0987
  667MOL0     H89989   6.946   9.247   4.361  2.1629 -4.1695 -2.7306
  667MOL0     H89990   7.064   9.437   4.491  1.2768  3.7808 -0.2660
  667MOL0     H89991   7.109   9.513   4.349  0.1582  0.7911 -1.6441
  667MOL0     H89992   6.830   9.492   4.483 -1.6250  0.4705 -0.9620
  667MOL0     H89993   6.831   9.535   4.316 -1.5845 -0.8165  1.8325
  667MOL0     H89994   6.945   9.734   4.366  2.4548 -1.1061  1.1180
  667MOL0     H89995   6.821   9.727   4.499  1.1012 -1.2566  1.4036
  667MOL0     H89996   7.119   9.846   4.474  1.9265  2.1751  1.5725
  667MOL0     H89997   7.152  10.006   4.737 -1.3668 -1.0482  0.0334
  667MOL0     H89998   7.195   9.882   4.865  0.6277  2.0472  1.4307
  667MOL0     H89999   7.382   9.914   4.609  2.9054  1.5339 -0.2998
  667MOL0     H90000   7.400  10.014   4.751  1.6667 -0.0028  1.2123
  667MOL0     H90001   7.362   9.723   4.782 -2.2912  1.3828  5.1302
  667MOL0     H90002   7.444   9.831   4.897  1.2432 -0.7836 -0.1319
  667MOL0     H90003   7.561   9.814   4.614  3.7395  0.4120 -0.8909
  667MOL0     H90004   7.627   9.700   4.737 -1.2554 -0.7182  1.7392
  667MOL0     H90005   7.752  10.086   4.864  0.9210 -1.6753 -1.7516
  667MOL0     H90006   7.851  10.127   5.085 -1.3903  0.3742 -0.5831
  667MOL0     H90007   8.240   9.886   5.299 -2.9199 -1.4097  0.0686
  667MOL0     H90008   8.419   9.883   5.481 -0.4600 -0.0271 -4.9955
  667MOL0     H90009   8.560  10.056   5.700  1.0779 -0.5472  0.6666
  667MOL0     H90010   8.454  10.194   5.741 -0.7834  0.2367 -1.4449
  667MOL0     H90011   8.429  10.049   5.966  3.2632  0.2531  2.8475
  667MOL0     H90012   8.572   9.961   5.895  3.9625  1.2635  0.3275
  667MOL0     H90013   8.599  10.262   5.938 -1.1066 -0.3190  0.2810
  667MOL0     H90014   8.634  10.139   6.059 -1.1005 -2.2107 -0.0235
  667MOL0     H90015   8.758  10.114   5.784  1.5008  0.8832 -0.5518
  667MOL0     H90016   8.774  10.010   5.918 -0.1334  0.7317  1.1869
  667MOL0     H90017   8.858  10.214   6.062 -1.5558  4.1249  0.0745
  667MOL0     H90018   8.841  10.314   5.929 -0.4425  0.4991  3.2014
  667MOL0     H90019   9.050  10.086   5.915 -1.6561 -0.7636 -0.6887
  667MOL0     H90020   9.030  10.248   5.836 -2.8345  0.9714 -0.0643
  667MOL0     H90021   9.106  10.171   6.126  0.0951  2.4730  2.0165
  667MOL0     H90022   9.049  10.330   6.094 -0.9433 -0.2613 -1.4743
  667MOL0     H90023   9.223  10.327   5.893 -1.4195  0.5985  0.8634
  667MOL0     H90024   9.243  10.405   6.032  0.9022 -0.4145 -1.6545
  667MOL0     H90025   8.169  10.152   5.698 -0.2903 -0.0339  0.2613
  667MOL0     H90026   7.998  10.164   5.482 -0.9000 -1.3150 -2.8762
  667MOL0     H90027   7.804   9.694   5.152 -1.7595 -1.0897 -1.8873
  667MOL0     H90028   7.689   9.675   4.937 -1.8481  0.5117  0.3260
  667MOL0     H90029   7.241   8.663   4.411  0.9862  1.0677 -0.0967
  667MOL0     H90030   7.153   8.453   4.506 -0.5781  0.9652 -1.1837
  667MOL0     H90031   7.192   8.215   5.060 -1.4411 -0.7421  1.7849
  667MOL0     H90032   7.135   7.976   5.105 -4.6769 -1.4485  0.8288
  667MOL0     H90033   7.202   7.779   5.011  0.4751  0.6185  3.0835
  667MOL0     H90034   7.115   7.716   4.875  0.2726 -0.7093  0.3320
  667MOL0     H90035   6.992   7.553   5.000  2.9249 -2.6020 -0.8925
  667MOL0     H90036   6.996   7.645   5.151 -1.1383  0.4019  0.1755
  667MOL0     H90037   7.104   7.456   5.184  0.2327  3.0428  1.4656
  667MOL0     H90038   7.245   7.577   5.160 -1.4743  2.0981  2.0166
  667MOL0     H90039   7.172   7.322   5.019 -1.2543  0.8446 -0.9380
  667MOL0     H90040   7.233   7.441   4.913 -2.5409 -0.9152  0.2927
  667MOL0     H90041   7.575   7.359   5.147 -2.4969  0.2518  3.5454
  667MOL0     H90042   6.907   7.928   4.771  0.6851  2.1617 -2.4589
  667MOL0     H90043   6.904   8.282   4.670 -1.7132 -0.6249  0.8282
  667MOL0     H90044   7.026   8.191   4.576 -0.0762  0.1337 -0.5371
  667MOL0     H90045   6.861   8.124   4.613  0.4670 -1.2435  2.6281
  668MOL0     O90046   3.840   4.452   9.615  0.2587  0.4597 -0.1190
  668MOL0     C90047   3.828   4.338   9.569  0.3804 -0.1536 -0.8768
  668MOL0     O90048   3.883   4.225   9.626  0.0484  0.5508  0.5962
  668MOL0     C90049   3.949   4.252   9.742  0.9948  1.6095 -0.4058
  668MOL0     C90050   3.888   4.213   9.856 -0.5705  0.5578 -0.1840
  668MOL0     C90051   3.953   4.217   9.977 -0.5915  0.1868  0.5902
  668MOL0     C90052   4.080   4.261   9.991 -0.4054 -0.2644  0.0386
  668MOL0     O90053   4.132   4.273  10.120 -0.3869  0.2282  0.8484
  668MOL0     C90054   4.249   4.342  10.148 -0.3905 -0.3669 -0.1468
  668MOL0     C90055   4.283   4.331  10.294 -0.1526 -0.1051  1.2489
  668MOL0     C90056   4.423   4.374  10.330  0.5324 -0.1282  1.0166
  668MOL0     C90057   4.525   4.268  10.305  0.8605  0.6678 -1.1406
  668MOL0     C90058   4.657   4.339  10.342  0.6036  0.3489 -0.7655
  668MOL0     C90059   4.767   4.240  10.366 -1.2508 -1.1143 -0.0437
  668MOL0     C90060   4.788   4.143  10.245 -0.4406 -0.0077  0.4150
  668MOL0     C90061   4.920   4.090  10.234  0.4573  0.9150  0.7138
  668MOL0     N90062   4.978   4.035  10.362 -0.0432  0.1978 -0.0607
  668MOL0     C90063   5.088   4.074  10.425  0.7442 -2.0504  0.3482
  668MOL0     C90064   5.108   4.002  10.540 -1.0031  0.7830  0.0452
  668MOL0     C90065   5.224   4.015  10.648  0.3446 -0.3078 -0.4412
  668MOL0     C90066   5.365   4.025  10.581  0.3480 -0.2094  0.6119
  668MOL0     C90067   5.415   3.885  10.538 -0.3813  0.3073 -0.0737
  668MOL0     C90068   5.557   3.897  10.464 -0.5504  0.5671  0.0954
  668MOL0     O90069   5.666   3.940  10.554 -0.4263  0.2347 -0.4626
  668MOL0     C90070   5.795   3.901  10.526  0.1393 -0.0579 -0.1690
  668MOL0     C90071   5.880   3.832  10.605  0.1906 -0.2601 -0.4650
  668MOL0     C90072   5.999   3.779  10.556  0.7114 -0.3346  0.1720
  668MOL0     C90073   6.037   3.794  10.419 -0.5224  0.7758 -0.1764
  668MOL0     C90074   6.158   3.714  10.377  0.4674  0.7973  0.0140
  668MOL0     O90075   6.197   3.731  10.246 -0.0437  0.9650  0.9107
  668MOL0     C90076   6.321   3.686  10.196  0.4265 -0.3312  0.3786
  668MOL0     C90077   6.431   3.628  10.268 -0.0108  0.7189 -0.4364
  668MOL0     C90078   6.544   3.577  10.205 -0.1408  0.6032  0.4205
  668MOL0     C90079   6.565   3.593  10.066 -0.4672 -0.6974  0.0391
  668MOL0     O90080   6.670   3.540   9.993  0.1285  0.0153 -0.2926
  668MOL0     C90081   6.697   3.403  10.001 -0.5713  1.1959  1.1709
  668MOL0     C90082   6.851   3.399  10.026  0.1727  0.2174 -0.5773
  668MOL0     C90083   6.888   3.249  10.054  0.3218 -0.0750  0.2516
  668MOL0     C90084   7.034   3.240  10.098  0.0456  0.2226 -0.4869
  668MOL0     C90085   7.071   3.116  10.186 -0.0692  0.8836 -0.0567
  668MOL0     C90086   7.055   2.977  10.110 -1.4190 -0.1028 -0.1374
  668MOL0     C90087   7.030   2.869  10.217  1.1671  0.1775  0.1625
  668MOL0     C90088   7.001   2.731  10.169 -0.1939  0.4674 -0.5947
  668MOL0    Cl90089   6.835   2.730  10.093  0.2056 -0.7139  0.3831
  668MOL0     C90090   6.468   3.665   9.993  0.1285 -0.2852 -1.1010
  668MOL0     C90091   6.346   3.711  10.055 -0.3191 -0.7550 -1.1454
  668MOL0     O90092   6.213   3.644  10.458 -0.3514 -0.1064 -0.2629
  668MOL0     C90093   5.950   3.866  10.335  0.7118 -0.7773 -0.2642
  668MOL0     C90094   5.839   3.922  10.386 -0.6412 -0.5175 -0.5611
  668MOL0     N90095   4.992   3.928  10.559 -1.2940  0.5881 -0.0796
  668MOL0     N90096   4.923   3.940  10.447  0.1453 -0.2858  0.2044
  668MOL0     C90097   4.145   4.293   9.873 -0.6847  0.2726  1.0160
  668MOL0     C90098   4.081   4.291   9.751 -0.5329  0.0199 -0.8186
  668MOL0     C90099   3.720   4.313   9.463  0.2788 -0.0446  0.3520
  668MOL0     C90100   3.665   4.184   9.451 -0.3724 -0.2948  0.2847
  668MOL0     C90101   3.566   4.155   9.354  0.0420 -0.8955  0.6876
  668MOL0     C90102   3.522   4.260   9.263 -0.4075  0.5844  0.5027
  668MOL0     O90103   3.430   4.234   9.166  0.1201  0.1990 -0.5174
  668MOL0     C90104   3.445   4.284   9.038  0.2467  0.5919 -0.3385
  668MOL0     C90105   3.573   4.249   8.968 -0.4766  0.2839 -0.2508
  668MOL0     C90106   3.556   4.270   8.809 -0.2453  0.3503 -0.1559
  668MOL0     C90107   3.435   4.195   8.754  0.1900 -0.6049  0.0358
  668MOL0     C90108   3.441   4.046   8.779  0.0911 -1.4346 -0.1242
  668MOL0     C90109   3.462   3.930   8.796  0.1586 -0.0231 -0.1836
  668MOL0     C90110   3.580   4.385   9.274  0.5191 -0.1117 -0.4497
  668MOL0     C90111   3.680   4.406   9.362  0.1757 -0.0430 -0.1495
  668MOL0     C90112   3.745   4.546   9.348  0.0913 -0.2164 -0.2245
  668MOL0     H90113   3.786   4.176   9.862 -0.6927  1.0195  0.8423
  668MOL0     H90114   3.895   4.184  10.062  0.0740 -0.9668  0.6215
  668MOL0     H90115   4.332   4.294  10.096 -2.3838 -1.2570 -2.7273
  668MOL0     H90116   4.228   4.447  10.126 -2.7552 -0.0722  2.9027
  668MOL0     H90117   4.264   4.225  10.310 -1.0233 -0.1251  0.1889
  668MOL0     H90118   4.208   4.396  10.342  1.8130  3.9600 -0.6659
  668MOL0     H90119   4.428   4.395  10.438  3.3484 -1.6481  1.2830
  668MOL0     H90120   4.446   4.458  10.264 -3.3360  0.7737  0.5813
  668MOL0     H90121   4.512   4.182  10.372  3.1083  1.8648  0.9827
  668MOL0     H90122   4.521   4.241  10.199 -0.5095 -0.5770 -0.8134
  668MOL0     H90123   4.685   4.409  10.263 -0.7001 -0.7624 -2.2722
  668MOL0     H90124   4.643   4.390  10.438 -2.0633 -1.6917  0.0378
  668MOL0     H90125   4.856   4.299  10.386 -1.8665  0.1936 -0.9497
  668MOL0     H90126   4.748   4.189  10.461 -1.3695  0.7146  0.9489
  668MOL0     H90127   4.753   4.184  10.151  1.7177 -4.5630 -2.7543
  668MOL0     H90128   4.711   4.065  10.246 -1.6417  0.8631 -4.1456
  668MOL0     H90129   4.920   4.021  10.149 -1.0960  1.2576  0.4083
  668MOL0     H90130   4.983   4.170  10.193  5.2522 -1.2864  3.0397
  668MOL0     H90131   5.151   4.154  10.388 -1.7722  0.5757  1.3555
  668MOL0     H90132   5.198   4.098  10.714 -3.6026 -1.9352  0.3363
  668MOL0     H90133   5.210   3.924  10.708 -1.2900 -0.9324 -1.7135
  668MOL0     H90134   5.362   4.090  10.493 -2.4571  0.8699  1.4062
  668MOL0     H90135   5.433   4.062  10.658 -0.3530  1.1343  0.6153
  668MOL0     H90136   5.345   3.841  10.466  1.2840  1.5359 -2.6217
  668MOL0     H90137   5.426   3.819  10.624 -0.8396  0.1851 -0.1080
  668MOL0     H90138   5.557   3.975  10.387  0.9705  2.4484  1.8929
  668MOL0     H90139   5.582   3.803  10.413 -0.5883  0.5251  0.1526
  668MOL0     H90140   5.866   3.814  10.711  3.0293  2.0172  0.4166
  668MOL0     H90141   6.062   3.735  10.633  0.2577  0.1518  0.8278
  668MOL0     H90142   6.427   3.624  10.376  2.2458 -1.3859 -0.3399
  668MOL0     H90143   6.616   3.520  10.263 -1.8631  2.4964  4.8847
  668MOL0     H90144   6.647   3.346  10.080  1.0285 -0.7059  0.8719
  668MOL0     H90145   6.656   3.359   9.909  0.3234  2.3646  0.1835
  668MOL0     H90146   6.909   3.445   9.945  0.8803  1.2166  0.4684
  668MOL0     H90147   6.858   3.468  10.111 -2.0078 -2.4885  1.9986
  668MOL0     H90148   6.817   3.204  10.125  1.8910  0.3142  2.1634
  668MOL0     H90149   6.867   3.200   9.959  0.8066  2.0517 -1.0332
  668MOL0     H90150   7.068   3.324  10.159  0.6329 -1.3610  1.4896
  668MOL0     H90151   7.093   3.234  10.006  1.1190 -0.2664  0.2116
  668MOL0     H90152   7.017   3.111  10.281 -1.6436 -0.7787 -0.9695
  668MOL0     H90153   7.178   3.129  10.206  0.3088 -2.0570  0.2613
  668MOL0     H90154   6.964   2.992  10.052 -1.2108 -1.6786 -0.9415
  668MOL0     H90155   7.139   2.963  10.041  1.8844 -2.6816  3.8747
  668MOL0     H90156   6.941   2.897  10.274 -0.3989 -0.9692 -1.5853
  668MOL0     H90157   7.117   2.859  10.283 -0.9641  0.0584  3.1734
  668MOL0     H90158   7.066   2.702  10.086 -1.0782 -0.0807 -1.1146
  668MOL0     H90159   7.012   2.672  10.261  1.2628  2.9405  0.9191
  668MOL0     H90160   6.501   3.682   9.891 -0.5418 -0.6850 -1.3922
  668MOL0     H90161   6.270   3.763   9.998 -0.7025 -0.6182 -0.5305
  668MOL0     H90162   5.981   3.882  10.232  4.6127 -3.8080  0.1445
  668MOL0     H90163   5.773   3.970  10.314  2.1339 -0.6760 -3.4087
  668MOL0     H90164   4.244   4.338   9.869 -1.1884  1.4268 -3.2227
  668MOL0     H90165   4.119   4.317   9.653  1.3810 -0.2432 -0.1815
  668MOL0     H90166   3.695   4.120   9.533 -0.2759  1.2279  1.4896
  668MOL0     H90167   3.505   4.065   9.348  0.1481 -1.0148  1.3674
  668MOL0     H90168   3.455   4.393   9.037  4.7055  0.4461  1.5882
  668MOL0     H90169   3.355   4.248   8.988 -0.8881  1.8645  0.7449
  668MOL0     H90170   3.602   4.145   8.984  2.9489  1.1493  0.0369
  668MOL0     H90171   3.660   4.300   9.011 -0.6359 -0.1498  0.6145
  668MOL0     H90172   3.646   4.236   8.755 -1.3043 -0.6871 -1.3349
  668MOL0     H90173   3.542   4.377   8.789  2.6535  0.8538 -0.0190
  668MOL0     H90174   3.343   4.234   8.798  1.9228  2.8499  0.9412
  668MOL0     H90175   3.419   4.198   8.646 -3.7253  2.7492  0.4697
  668MOL0     H90176   3.487   3.826   8.804 -2.2813 -0.5668  1.0727
  668MOL0     H90177   3.553   4.460   9.200  1.1465  3.3032  2.4947
  668MOL0     H90178   3.678   4.630   9.364 -1.0187 -1.3543  1.3289
  668MOL0     H90179   3.830   4.549   9.417 -1.0502 -1.2765  1.2848
  668MOL0     H90180   3.797   4.560   9.252 -0.4348  2.2126 -0.2171
  669MOL0     O90181   7.902   6.720   3.667  0.4306 -0.5393 -1.3344
  669MOL0     C90182   7.944   6.648   3.752  0.7701  0.0310  0.1114
  669MOL0     O90183   8.010   6.688   3.868 -1.1498  0.3398 -0.2593
  669MOL0     C90184   8.024   6.818   3.893 -0.4370 -0.4128  0.2014
  669MOL0     C90185   8.083   6.910   3.800  0.5589 -0.1337  0.8506
  669MOL0     C90186   8.067   7.048   3.807 -1.5323 -0.1034  1.1989
  669MOL0     C90187   8.036   7.098   3.929  0.1386 -0.9560  0.3805
  669MOL0     O90188   8.022   7.231   3.962 -0.6803 -0.2153 -0.6610
  669MOL0     C90189   8.142   7.285   4.026  0.1455 -0.8448  0.4552
  669MOL0     C90190   8.244   7.326   3.915 -0.2489 -0.1962  0.2652
  669MOL0     C90191   8.174   7.413   3.809 -0.7031  0.0530  0.1199
  669MOL0     C90192   8.277   7.508   3.737  0.3009  0.4581  0.2275
  669MOL0     C90193   8.213   7.619   3.668  0.5142  0.5447  0.9609
  669MOL0     C90194   8.310   7.720   3.591  0.2246  0.2123 -0.0981
  669MOL0     C90195   8.372   7.673   3.466 -0.6412  0.3508  0.4885
  669MOL0     C90196   8.279   7.633   3.355 -0.3300  0.0893 -0.1208
  669MOL0     N90197   8.167   7.730   3.324  0.1890 -0.5640  0.0989
  669MOL0     C90198   8.158   7.850   3.252 -0.5617 -0.7197  0.2162
  669MOL0     C90199   8.020   7.877   3.247 -0.2049 -0.2071 -0.0823
  669MOL0     C90200   7.968   8.020   3.221 -0.1113  0.0992 -0.6445
  669MOL0     C90201   7.881   8.067   3.339  0.2090 -0.5687 -0.2619
  669MOL0     C90202   7.974   8.073   3.465 -0.2278  0.2713  0.2497
  669MOL0     C90203   7.886   8.092   3.586 -0.0156 -0.0856 -1.0365
  669MOL0     O90204   7.971   8.143   3.690  0.2211 -1.1581  0.5500
  669MOL0     C90205   8.047   8.055   3.764  0.2101  0.4750  0.8342
  669MOL0     C90206   8.009   7.932   3.814 -0.6483 -0.3816  0.3669
  669MOL0     C90207   8.094   7.870   3.907 -0.1345  0.8260 -0.5140
  669MOL0     C90208   8.236   7.913   3.925  0.1369  1.2714 -0.4333
  669MOL0     C90209   8.333   7.830   4.004  0.8131 -0.4607 -0.6560
  669MOL0     O90210   8.281   7.731   4.088 -0.3046  0.0231 -0.9281
  669MOL0     C90211   8.344   7.632   4.160 -0.3064 -0.5308 -0.0851
  669MOL0     C90212   8.267   7.555   4.249 -0.0348 -0.7543  0.7515
  669MOL0     C90213   8.327   7.466   4.335  0.7385 -0.0150  0.1087
  669MOL0     C90214   8.465   7.457   4.348 -0.0092  0.6871 -0.3355
  669MOL0     O90215   8.515   7.360   4.430  0.7875 -0.3081  0.4751
  669MOL0     C90216   8.624   7.286   4.387  0.3925 -0.4157  0.3178
  669MOL0     C90217   8.608   7.142   4.431  0.3380 -0.9920  0.1695
  669MOL0     C90218   8.531   7.065   4.328 -0.2109  1.1089  0.2875
  669MOL0     C90219   8.545   6.908   4.340  0.0495  0.3849  0.1720
  669MOL0     C90220   8.424   6.845   4.260 -1.5082 -0.8908 -0.3907
  669MOL0     C90221   8.442   6.696   4.260 -0.0507  0.6850 -0.7417
  669MOL0     C90222   8.331   6.615   4.179  0.5116 -0.8123  0.0846
  669MOL0     C90223   8.191   6.680   4.182 -0.1670 -0.0225  0.0055
  669MOL0    Cl90224   8.071   6.557   4.125  0.0155 -0.1095  0.0524
  669MOL0     C90225   8.547   7.529   4.259 -0.1585 -0.4424  0.1303
  669MOL0     C90226   8.487   7.616   4.162  0.1372  1.3711  0.7095
  669MOL0     O90227   8.453   7.844   3.983  0.7395 -0.5924 -0.0726
  669MOL0     C90228   8.274   8.023   3.850  0.2719 -0.6405 -0.5601
  669MOL0     C90229   8.181   8.097   3.776  1.3736 -0.0806  0.4126
  669MOL0     N90230   7.946   7.781   3.314  0.2450 -0.2000  0.0567
  669MOL0     N90231   8.035   7.687   3.333 -0.7856 -0.3823 -0.8278
  669MOL0     C90232   7.991   7.014   4.027  1.0976  0.5759  0.6499
  669MOL0     C90233   7.971   6.873   4.005  0.1783 -0.3507 -0.3297
  669MOL0     C90234   7.935   6.507   3.717 -0.3252  1.0372  0.6320
  669MOL0     C90235   7.920   6.419   3.825 -0.7357 -0.0547  0.0647
  669MOL0     C90236   7.912   6.283   3.800 -0.5126 -0.8761 -0.0511
  669MOL0     C90237   7.907   6.217   3.680  0.2990 -0.5128 -0.4214
  669MOL0     O90238   7.893   6.084   3.682  0.7119 -0.2474 -0.4334
  669MOL0     C90239   7.878   6.016   3.559  0.0871  0.7015  0.4971
  669MOL0     C90240   7.850   5.866   3.577  0.0929 -0.1239 -0.6038
  669MOL0     C90241   7.972   5.792   3.624  0.2773  0.9065 -0.5243
  669MOL0     C90242   7.939   5.670   3.717 -0.3231 -0.5221  0.0119
  669MOL0     C90243   8.070   5.635   3.782  0.1798  0.6127  0.7633
  669MOL0     C90244   8.176   5.636   3.841 -0.6712  0.3950 -0.1622
  669MOL0     C90245   7.919   6.303   3.569 -0.4959 -0.8068 -1.3449
  669MOL0     C90246   7.934   6.443   3.586 -0.3561 -0.3916 -0.2941
  669MOL0     C90247   7.923   6.509   3.450  0.5557  0.6206  0.3601
  669MOL0     H90248   8.127   6.888   3.703 -1.7224  3.9601 -1.4126
  669MOL0     H90249   8.099   7.114   3.726 -1.1663  0.3788  1.7304
  669MOL0     H90250   8.118   7.381   4.073 -0.9319 -0.3968 -0.9369
  669MOL0     H90251   8.174   7.207   4.096  0.8431  0.0082  1.1135
  669MOL0     H90252   8.296   7.249   3.857 -0.0288  2.0551 -2.7706
  669MOL0     H90253   8.319   7.384   3.969 -0.3909  0.2219  0.0162
  669MOL0     H90254   8.095   7.475   3.852 -1.9571  0.0219 -2.0058
  669MOL0     H90255   8.126   7.356   3.728  0.4156  1.8135 -1.8786
  669MOL0     H90256   8.336   7.555   3.817  0.0517 -3.4092  3.0015
  669MOL0     H90257   8.338   7.458   3.661 -0.6124  0.8190 -0.7552
  669MOL0     H90258   8.146   7.586   3.588  0.8128  0.1187  0.8846
  669MOL0     H90259   8.149   7.670   3.740  1.9011  0.8350  2.0377
  669MOL0     H90260   8.255   7.811   3.565  0.3319  1.1333  2.5812
  669MOL0     H90261   8.391   7.760   3.652 -0.2920  0.1421  0.6590
  669MOL0     H90262   8.444   7.591   3.473 -0.7097 -0.3011 -3.6626
  669MOL0     H90263   8.424   7.761   3.429  3.0045 -1.0162  1.8848
  669MOL0     H90264   8.324   7.624   3.256  1.4043  1.7802  0.4517
  669MOL0     H90265   8.226   7.543   3.388  2.7530 -1.7384  0.2028
  669MOL0     H90266   8.238   7.910   3.210  1.4248 -0.0390  4.4557
  669MOL0     H90267   8.053   8.089   3.219 -0.2426  0.2744 -0.2989
  669MOL0     H90268   7.916   8.012   3.125 -0.9107  1.2461 -0.3171
  669MOL0     H90269   7.831   8.163   3.327 -1.1969 -1.0991  1.0797
  669MOL0     H90270   7.789   8.009   3.355 -0.8413  1.9510  4.6566
  669MOL0     H90271   8.041   8.159   3.452 -1.9312  1.7881  0.9569
  669MOL0     H90272   8.031   7.983   3.488 -2.9624 -1.5624  0.3293
  669MOL0     H90273   7.849   7.991   3.604 -0.3029  0.4929  2.3637
  669MOL0     H90274   7.802   8.160   3.574 -1.5941 -2.2160 -3.0603
  669MOL0     H90275   7.909   7.893   3.794 -0.0377 -2.3776  1.0201
  669MOL0     H90276   8.070   7.774   3.951  0.7112  1.4663  1.4362
  669MOL0     H90277   8.163   7.585   4.257 -0.1214 -1.3408  2.0984
  669MOL0     H90278   8.262   7.427   4.412  2.1847 -2.7167  0.1139
  669MOL0     H90279   8.624   7.290   4.277  1.4247  4.9073  0.2258
  669MOL0     H90280   8.716   7.328   4.430  1.1735 -3.1284  1.4672
  669MOL0     H90281   8.703   7.090   4.444 -1.4753 -4.8677 -0.7157
  669MOL0     H90282   8.562   7.139   4.530  2.3645  0.1470  1.2191
  669MOL0     H90283   8.424   7.087   4.334  0.0273  2.0895  1.4722
  669MOL0     H90284   8.564   7.076   4.224  0.9414 -3.4393 -0.0434
  669MOL0     H90285   8.540   6.881   4.446 -0.6755 -1.1815 -0.2325
  669MOL0     H90286   8.643   6.876   4.303  0.0228 -0.5070  0.8201
  669MOL0     H90287   8.425   6.892   4.161  0.3433  1.6829  0.7292
  669MOL0     H90288   8.328   6.863   4.309 -0.4245 -1.3494  2.0920
  669MOL0     H90289   8.537   6.650   4.234  0.2087  2.8592 -4.3675
  669MOL0     H90290   8.410   6.677   4.363 -1.1337  2.4790 -0.7003
  669MOL0     H90291   8.327   6.511   4.213  4.3804 -2.2589 -2.9968
  669MOL0     H90292   8.364   6.608   4.075  1.7980  2.0765  0.1803
  669MOL0     H90293   8.165   6.707   4.285 -0.8535  0.9273 -0.4023
  669MOL0     H90294   8.183   6.776   4.130  0.8888  0.1658  0.1669
  669MOL0     H90295   8.655   7.518   4.249 -0.0619  0.8164 -0.3022
  669MOL0     H90296   8.565   7.656   4.097 -0.4996  1.3516 -0.0862
  669MOL0     H90297   8.378   8.054   3.837  0.3597  0.1568  1.6160
  669MOL0     H90298   8.229   8.183   3.730  3.3028 -1.0402  0.5548
  669MOL0     H90299   7.949   7.051   4.120 -0.4056  0.5316  0.0220
  669MOL0     H90300   7.923   6.810   4.079  1.3163 -0.6413  0.1775
  669MOL0     H90301   7.915   6.442   3.931  2.6127 -0.2423  0.3617
  669MOL0     H90302   7.913   6.212   3.882  2.2366  0.4376  1.1739
  669MOL0     H90303   7.973   6.013   3.504 -0.8236 -1.1649 -1.1276
  669MOL0     H90304   7.800   6.065   3.501  2.6777  3.1829 -1.1257
  669MOL0     H90305   7.826   5.824   3.478 -1.2554  1.9766 -1.2461
  669MOL0     H90306   7.767   5.849   3.646  1.1441 -2.2354  0.2255
  669MOL0     H90307   8.041   5.857   3.678 -1.9438  2.9461  0.0771
  669MOL0     H90308   8.016   5.742   3.537 -0.9438 -0.6197 -0.3142
  669MOL0     H90309   7.869   5.709   3.791  0.0247 -0.7264  0.4526
  669MOL0     H90310   7.895   5.585   3.662  2.0263 -2.3454  0.7520
  669MOL0     H90311   8.270   5.655   3.889 -0.5694 -0.0944 -0.1612
  669MOL0     H90312   7.923   6.268   3.466 -1.7741  1.0804 -2.0899
  669MOL0     H90313   7.972   6.449   3.373 -2.4784 -0.7461 -0.6441
  669MOL0     H90314   7.818   6.525   3.424  1.0049  4.2436  0.2576
  669MOL0     H90315   7.970   6.608   3.453  0.7049  0.6039 -0.7951
  670MOL0     O90316   2.456   7.149   2.392 -0.2321 -0.2710  0.3247
  670MOL0     C90317   2.499   7.066   2.322 -0.5843 -0.2610  0.3956
  670MOL0     O90318   2.488   7.073   2.185 -0.6180 -0.0686 -0.2641
  670MOL0     C90319   2.405   7.181   2.142 -0.0811  1.2783  0.6914
  670MOL0     C90320   2.272   7.194   2.182 -0.4502  0.1426  0.8586
  670MOL0     C90321   2.201   7.297   2.126  1.0940 -0.7320  0.1332
  670MOL0     C90322   2.255   7.391   2.043  1.3499  0.1263 -0.7165
  670MOL0     O90323   2.177   7.492   1.993 -0.6566  0.4478 -0.3388
  670MOL0     C90324   2.242   7.609   1.936 -0.0879  0.7038 -0.4941
  670MOL0     C90325   2.162   7.735   1.915 -0.6628 -0.2496  0.5637
  670MOL0     C90326   2.060   7.713   1.800 -0.0649 -0.3383 -0.3729
  670MOL0     C90327   2.111   7.732   1.660  0.8060  0.7222  0.0539
  670MOL0     C90328   2.029   7.841   1.585  0.3180  0.3801  0.0637
  670MOL0     C90329   2.102   7.916   1.480 -0.7550  0.1882  0.3774
  670MOL0     C90330   2.163   7.824   1.373 -0.0237 -0.1592 -0.7565
  670MOL0     C90331   2.291   7.873   1.312 -0.5267 -1.1510  0.3617
  670MOL0     N90332   2.323   7.802   1.183 -0.6558 -0.1718 -0.5770
  670MOL0     C90333   2.262   7.828   1.062 -1.0150 -1.3456 -0.4516
  670MOL0     C90334   2.334   7.757   0.976 -0.5356 -0.0684 -0.1829
  670MOL0     C90335   2.329   7.756   0.824 -0.9180  1.3124 -0.8304
  670MOL0     C90336   2.478   7.765   0.778  0.7829 -0.7569  0.1359
  670MOL0     C90337   2.482   7.762   0.625  0.0127 -0.6174  0.1221
  670MOL0     C90338   2.626   7.769   0.584 -0.0891 -0.2180  0.4310
  670MOL0     O90339   2.636   7.817   0.452  0.1689  0.0918 -1.0201
  670MOL0     C90340   2.762   7.836   0.391  1.2889 -0.0918  0.8067
  670MOL0     C90341   2.879   7.792   0.456 -0.0242  0.0690  0.0409
  670MOL0     C90342   3.007   7.801   0.399  0.7319  0.0518 -0.0705
  670MOL0     C90343   3.019   7.862   0.269 -0.7088 -0.3488  0.1165
  670MOL0     C90344   3.151   7.900   0.204  0.7331  0.5825  0.0588
  670MOL0     O90345   3.141   7.942   0.079 -0.1057 -0.4942  0.5263
  670MOL0     C90346   3.248   7.981  -0.000 -0.0921  0.3273 -0.3343
  670MOL0     C90347   3.227   8.045  -0.127  0.3101  0.3555 -0.8459
  670MOL0     C90348   3.333   8.081  -0.209  0.7080 -0.2709 -0.1316
  670MOL0     C90349   3.463   8.064  -0.169  0.3046  0.3704  0.7668
  670MOL0     O90350   3.564   8.099  -0.251 -0.5187 -1.0831 -0.4570
  670MOL0     C90351   3.551   8.232  -0.309  0.2153 -0.7669  0.0383
  670MOL0     C90352   3.696   8.297  -0.336  0.9022  1.0725 -0.0028
  670MOL0     C90353   3.693   8.453  -0.329 -0.6955  0.3806 -0.1311
  670MOL0     C90354   3.830   8.510  -0.342  0.5457  0.1839 -0.7110
  670MOL0     C90355   3.819   8.662  -0.338 -0.7423  0.0821 -0.7468
  670MOL0     C90356   3.962   8.735  -0.329 -0.9233 -0.8902  0.6095
  670MOL0     C90357   3.957   8.888  -0.302  0.5634 -0.0948  0.3743
  670MOL0     C90358   3.906   8.946  -0.447 -0.3329  0.6424 -0.1359
  670MOL0    Cl90359   3.907   9.127  -0.453 -0.0479  0.6253  0.0875
  670MOL0     C90360   3.493   8.009  -0.053  0.0653  0.4835 -0.7347
  670MOL0     C90361   3.390   7.967   0.034  0.2240 -0.4515 -0.4809
  670MOL0     O90362   3.252   7.869   0.262  0.7039 -0.5549  0.1520
  670MOL0     C90363   2.903   7.917   0.213  0.7181 -0.4811  1.7468
  670MOL0     C90364   2.774   7.910   0.274 -0.4022 -0.5116  1.3224
  670MOL0     N90365   2.420   7.673   1.051  0.0004  0.1922 -0.0048
  670MOL0     N90366   2.413   7.709   1.179 -0.0965  0.6413  0.0599
  670MOL0     C90367   2.391   7.382   2.007  0.5993 -0.9532  0.6822
  670MOL0     C90368   2.462   7.274   2.057  0.1931 -0.1939 -1.1739
  670MOL0     C90369   2.562   6.943   2.364  0.3968  0.0406  0.7123
  670MOL0     C90370   2.655   6.875   2.281 -0.3526 -0.4761 -0.7635
  670MOL0     C90371   2.704   6.751   2.310  0.2051 -0.8708  0.5771
  670MOL0     C90372   2.658   6.691   2.418 -0.3327 -0.0484  0.2709
  670MOL0     O90373   2.695   6.562   2.464 -0.1207  0.1640  0.0412
  670MOL0     C90374   2.751   6.471   2.365  1.4668 -0.6236  1.0699
  670MOL0     C90375   2.732   6.333   2.423 -0.5668  0.2090 -0.1388
  670MOL0     C90376   2.760   6.206   2.341  0.3320 -0.5318 -0.1330
  670MOL0     C90377   2.643   6.175   2.244  0.2587  0.3902 -0.7150
  670MOL0     C90378   2.690   6.074   2.150 -0.0085 -0.3053 -0.3042
  670MOL0     C90379   2.732   5.994   2.063 -0.3624 -0.2805  0.7961
  670MOL0     C90380   2.568   6.753   2.500  0.4606 -0.4312 -0.9345
  670MOL0     C90381   2.517   6.882   2.482 -0.3049  0.5638  0.2025
  670MOL0     C90382   2.432   6.941   2.593  0.1338 -0.4886  0.8691
  670MOL0     H90383   2.230   7.125   2.254  2.9655 -1.9231  1.0739
  670MOL0     H90384   2.095   7.298   2.151  1.7845 -3.1954  4.1784
  670MOL0     H90385   2.310   7.632   2.018 -0.5010 -1.4192  0.5180
  670MOL0     H90386   2.299   7.591   1.844  1.8261  3.9084 -0.0685
  670MOL0     H90387   2.227   7.818   1.887 -0.8311 -0.5088 -0.6756
  670MOL0     H90388   2.107   7.754   2.007  0.5638  1.2940  1.0141
  670MOL0     H90389   1.982   7.786   1.826  1.4653  1.2050  0.0775
  670MOL0     H90390   2.025   7.609   1.808  0.8599 -0.5184  2.2494
  670MOL0     H90391   2.217   7.745   1.687  2.2395 -3.9378 -2.1123
  670MOL0     H90392   2.105   7.635   1.609 -0.6277  1.7471 -1.8303
  670MOL0     H90393   1.936   7.797   1.547  1.2066 -1.5949  0.0639
  670MOL0     H90394   2.000   7.916   1.660 -1.8415 -2.2103  2.0476
  670MOL0     H90395   2.034   7.988   1.433  0.0252  3.5372  3.8703
  670MOL0     H90396   2.175   7.982   1.527 -0.6953  1.3977 -1.3046
  670MOL0     H90397   2.088   7.820   1.293  3.5418  1.9916 -4.6430
  670MOL0     H90398   2.175   7.721   1.408 -0.8584 -0.5624 -1.6020
  670MOL0     H90399   2.273   7.975   1.278 -1.9553 -1.3929  0.3293
  670MOL0     H90400   2.377   7.876   1.379 -0.1774  0.3737 -0.0980
  670MOL0     H90401   2.197   7.908   1.028  2.6120  0.5011 -3.8736
  670MOL0     H90402   2.286   7.658   0.804 -3.1581  2.2510 -0.9142
  670MOL0     H90403   2.262   7.833   0.784 -1.0172  0.0394 -3.2791
  670MOL0     H90404   2.523   7.860   0.808  0.8129 -0.4592 -0.7916
  670MOL0     H90405   2.526   7.675   0.817 -0.9970 -1.4054  0.8963
  670MOL0     H90406   2.442   7.858   0.591  1.4173  0.4515  1.3678
  670MOL0     H90407   2.434   7.672   0.585 -2.0804  0.4998  0.0044
  670MOL0     H90408   2.666   7.668   0.594 -0.6375 -0.5898 -0.9328
  670MOL0     H90409   2.679   7.835   0.653 -1.6292  2.3061 -0.6650
  670MOL0     H90410   2.870   7.733   0.547  0.4321 -0.0896 -0.0134
  670MOL0     H90411   3.086   7.763   0.464  0.0847  0.9376  1.2629
  670MOL0     H90412   3.125   8.067  -0.155 -0.3094  1.0958  1.7556
  670MOL0     H90413   3.317   8.113  -0.312  3.2694  2.7545  0.2762
  670MOL0     H90414   3.493   8.237  -0.402  2.2526  3.7245 -1.2660
  670MOL0     H90415   3.493   8.301  -0.246  1.7290 -0.7894  1.5057
  670MOL0     H90416   3.766   8.258  -0.262  0.5742 -1.2951 -0.8612
  670MOL0     H90417   3.727   8.264  -0.436 -2.1462  1.7223 -1.2814
  670MOL0     H90418   3.628   8.482  -0.412 -2.5135  1.9000  1.7230
  670MOL0     H90419   3.641   8.492  -0.241 -0.6187  0.2495 -0.0262
  670MOL0     H90420   3.890   8.470  -0.425  1.2418 -1.0015  0.3318
  670MOL0     H90421   3.864   8.469  -0.247 -3.1136  1.9557  1.5552
  670MOL0     H90422   3.756   8.697  -0.255  0.7639  1.2322 -0.0241
  670MOL0     H90423   3.786   8.705  -0.433  0.7922 -1.1936 -1.8910
  670MOL0     H90424   4.011   8.682  -0.247 -2.5967 -1.2254  1.4341
  670MOL0     H90425   4.008   8.727  -0.428 -1.7652 -2.2797  0.2965
  670MOL0     H90426   4.056   8.932  -0.283 -0.8327  4.7749 -1.9937
  670MOL0     H90427   3.896   8.920  -0.217 -0.0538 -1.6765  0.5438
  670MOL0     H90428   3.948   8.904  -0.538  1.5354  0.6826  0.6540
  670MOL0     H90429   3.802   8.917  -0.463 -0.4405 -1.4328  3.2740
  670MOL0     H90430   3.596   7.992  -0.023  0.2487  0.8833 -1.1399
  670MOL0     H90431   3.418   7.929   0.132  1.9297  2.0416  0.1094
  670MOL0     H90432   2.909   7.980   0.125 -0.8885  0.4018  2.2279
  670MOL0     H90433   2.687   7.959   0.230 -1.2281 -2.5258  0.5980
  670MOL0     H90434   2.452   7.441   1.938  0.1016 -1.3725 -0.1252
  670MOL0     H90435   2.569   7.286   2.048  0.5302 -0.1292  1.7673
  670MOL0     H90436   2.706   6.936   2.207  1.6088  0.0283  0.9069
  670MOL0     H90437   2.776   6.706   2.241  0.5183  0.7022 -0.1693
  670MOL0     H90438   2.856   6.493   2.340  1.3985 -0.7497  0.6489
  670MOL0     H90439   2.699   6.483   2.269  1.8397  3.1066  1.1897
  670MOL0     H90440   2.630   6.330   2.463 -1.4027 -0.4352 -2.2074
  670MOL0     H90441   2.802   6.337   2.507 -1.1299  2.1280  0.2965
  670MOL0     H90442   2.778   6.116   2.402  2.4566 -1.6625 -2.2445
  670MOL0     H90443   2.855   6.212   2.288  0.8825 -0.7766  0.7899
  670MOL0     H90444   2.560   6.144   2.308  1.0718  2.4155  1.4598
  670MOL0     H90445   2.602   6.261   2.192  0.8644 -0.5103 -2.7868
  670MOL0     H90446   2.784   5.929   1.995 -0.1762  1.5212 -0.8689
  670MOL0     H90447   2.529   6.703   2.588 -3.0162  2.7068 -0.4477
  670MOL0     H90448   2.496   7.015   2.641  0.6302 -0.2554 -0.1283
  670MOL0     H90449   2.343   6.988   2.549  1.8998  1.0860 -1.2251
  670MOL0     H90450   2.409   6.866   2.670  2.5881  0.5791  2.7856
  671MOL0     O90451   3.797   4.507   3.541 -0.5956 -0.0947  0.2201
  671MOL0     C90452   3.784   4.570   3.437  0.1517  0.3488 -0.0006
  671MOL0     O90453   3.856   4.672   3.402  0.1030  0.7082 -0.5563
  671MOL0     C90454   3.965   4.695   3.479 -0.0421 -0.2677  0.1232
  671MOL0     C90455   4.079   4.647   3.418 -0.3797  0.4554 -0.2267
  671MOL0     C90456   4.204   4.658   3.480  0.7068 -0.2128  0.0660
  671MOL0     C90457   4.212   4.736   3.604 -0.0345  0.7667 -0.5032
  671MOL0     O90458   4.328   4.768   3.668 -0.0615  0.0731  0.4836
  671MOL0     C90459   4.439   4.817   3.585  1.0909 -0.6565 -1.0769
  671MOL0     C90460   4.440   4.978   3.571 -0.6427 -0.3648  0.5912
  671MOL0     C90461   4.458   5.047   3.705 -0.1799 -1.2001 -0.8349
  671MOL0     C90462   4.595   5.020   3.780  0.5826 -0.3322  0.6435
  671MOL0     C90463   4.577   5.087   3.911 -0.6210 -0.7230  0.5617
  671MOL0     C90464   4.657   5.030   4.039 -0.0213  0.2742  0.0027
  671MOL0     C90465   4.629   5.118   4.166 -0.2646 -0.8114  0.6368
  671MOL0     C90466   4.665   5.056   4.304  1.0467  0.3587  0.2064
  671MOL0     N90467   4.619   5.142   4.416  0.9689  0.1209 -0.2709
  671MOL0     C90468   4.536   5.099   4.521  0.0640  0.0265 -1.3144
  671MOL0     C90469   4.551   5.200   4.615 -0.3147  0.7647  0.7413
  671MOL0     C90470   4.464   5.214   4.737 -0.4127  0.0637 -0.9673
  671MOL0     C90471   4.542   5.186   4.862  0.4838 -0.5065 -0.5507
  671MOL0     C90472   4.656   5.287   4.887 -0.2813  0.0438  0.3770
  671MOL0     C90473   4.704   5.287   5.026 -0.4064  0.0733 -0.3755
  671MOL0     O90474   4.764   5.154   5.051 -0.1612 -0.1368  0.4873
  671MOL0     C90475   4.842   5.136   5.161 -0.8132  0.6489 -0.8360
  671MOL0     C90476   4.877   4.998   5.196 -1.0078 -0.2398  0.1077
  671MOL0     C90477   4.962   4.976   5.300 -0.1365  0.2023  0.3039
  671MOL0     C90478   5.009   5.078   5.383 -0.4223  1.9597  0.2568
  671MOL0     C90479   5.099   5.044   5.500  0.2194  0.6236  0.7552
  671MOL0     O90480   5.140   4.911   5.505  0.1739 -0.1019 -0.1609
  671MOL0     C90481   5.172   4.872   5.632 -0.6828 -1.0263  0.6133
  671MOL0     C90482   5.298   4.909   5.692 -0.4599  0.1873  0.1372
  671MOL0     C90483   5.322   4.868   5.824 -1.4643  0.7925 -0.8463
  671MOL0     C90484   5.236   4.778   5.894 -0.4906 -0.4390 -0.7249
  671MOL0     O90485   5.288   4.750   6.020 -0.0446  0.4805  0.2655
  671MOL0     C90486   5.216   4.642   6.088 -0.2199  0.3556 -0.1305
  671MOL0     C90487   5.291   4.577   6.208 -0.6324  0.8459 -0.2382
  671MOL0     C90488   5.204   4.499   6.299 -0.1462 -0.2096 -0.7228
  671MOL0     C90489   5.100   4.583   6.379 -0.7275  0.0808  0.0780
  671MOL0     C90490   5.023   4.503   6.483 -0.7288 -0.3064 -1.0970
  671MOL0     C90491   5.113   4.469   6.599  0.1964  1.5905 -0.8479
  671MOL0     C90492   5.048   4.386   6.709 -0.5170 -0.1230 -0.2479
  671MOL0     C90493   5.138   4.376   6.830 -0.1530  0.0343 -0.5643
  671MOL0    Cl90494   5.075   4.259   6.941  0.4191 -0.7160  0.0336
  671MOL0     C90495   5.112   4.740   5.832  1.0737 -0.3262  0.6191
  671MOL0     C90496   5.083   4.777   5.698  0.1448 -0.7775 -0.1177
  671MOL0     O90497   5.131   5.132   5.582 -0.3167  0.3506  0.0628
  671MOL0     C90498   4.983   5.205   5.346  0.4438 -0.1357  0.5280
  671MOL0     C90499   4.895   5.238   5.243  0.2565  0.5489 -0.0511
  671MOL0     N90500   4.634   5.305   4.561 -0.6073  0.6214 -0.2568
  671MOL0     N90501   4.672   5.265   4.446  0.0794  0.0718  0.5807
  671MOL0     C90502   4.095   4.779   3.663  0.2153  0.6876 -0.0833
  671MOL0     C90503   3.972   4.765   3.599 -0.5587 -0.8377 -0.0797
  671MOL0     C90504   3.684   4.537   3.336  0.4955 -0.7982  0.1640
  671MOL0     C90505   3.564   4.601   3.325  0.2354  0.3802 -0.5739
  671MOL0     C90506   3.467   4.561   3.238  0.1771 -0.0215 -0.2295
  671MOL0     C90507   3.493   4.481   3.130 -0.9500 -0.0806  0.0819
  671MOL0     O90508   3.391   4.460   3.046  0.1623 -0.2262  0.6929
  671MOL0     C90509   3.386   4.354   2.952 -0.4977 -0.4290 -0.6699
  671MOL0     C90510   3.245   4.303   2.966  0.6687 -0.1098  0.1624
  671MOL0     C90511   3.146   4.386   2.891  0.2827 -0.5160  0.9806
  671MOL0     C90512   3.001   4.362   2.947  1.0487 -0.3600 -1.1442
  671MOL0     C90513   2.949   4.225   2.906  0.0549 -1.0395 -0.1736
  671MOL0     C90514   2.912   4.109   2.879 -1.3644 -0.0585  0.1991
  671MOL0     C90515   3.609   4.396   3.142  0.1456 -0.4443 -1.0274
  671MOL0     C90516   3.699   4.420   3.257  0.2699  0.2722 -0.0645
  671MOL0     C90517   3.831   4.334   3.283 -0.3120  0.3735  0.7310
  671MOL0     H90518   4.072   4.605   3.318 -1.9199  0.3009 -0.0758
  671MOL0     H90519   4.294   4.622   3.432 -1.3211  0.2678 -4.7198
  671MOL0     H90520   4.529   4.781   3.636  0.1515 -1.0480  0.3903
  671MOL0     H90521   4.422   4.773   3.486  0.3881 -2.0724 -0.3556
  671MOL0     H90522   4.345   5.001   3.522  0.9316  0.2114 -2.4004
  671MOL0     H90523   4.519   5.022   3.509 -0.8550  1.1315  1.3314
  671MOL0     H90524   4.374   5.009   3.763 -1.1830  0.3774 -1.2113
  671MOL0     H90525   4.453   5.156   3.704  1.3779 -1.0112  1.3543
  671MOL0     H90526   4.596   4.913   3.800 -2.4664 -0.9681 -1.8959
  671MOL0     H90527   4.684   5.060   3.731  1.1346 -0.9086  1.1703
  671MOL0     H90528   4.616   5.188   3.895 -0.7705 -0.7673 -0.1066
  671MOL0     H90529   4.470   5.100   3.929 -1.0631 -0.0508 -2.1502
  671MOL0     H90530   4.638   4.926   4.066  1.3001  0.2670  1.0331
  671MOL0     H90531   4.764   5.043   4.019 -0.0096 -0.6875 -0.6487
  671MOL0     H90532   4.524   5.145   4.175 -0.2832 -0.7727  0.3116
  671MOL0     H90533   4.686   5.211   4.160 -0.5880 -0.7226 -2.2990
  671MOL0     H90534   4.637   4.951   4.313  2.0245  0.2800  4.0852
  671MOL0     H90535   4.773   5.040   4.311  0.8065 -3.3224 -2.0614
  671MOL0     H90536   4.481   5.005   4.527  0.7715 -0.2996  1.7195
  671MOL0     H90537   4.414   5.310   4.753 -0.2382  0.0777 -0.4727
  671MOL0     H90538   4.379   5.145   4.732 -2.3626  1.9291  2.4137
  671MOL0     H90539   4.473   5.190   4.946  1.8602  1.9665  0.5598
  671MOL0     H90540   4.584   5.085   4.867  1.8066  0.0782  1.2899
  671MOL0     H90541   4.625   5.390   4.869 -0.0718 -0.3851 -3.1108
  671MOL0     H90542   4.744   5.263   4.826 -1.9630  0.4348 -2.3454
  671MOL0     H90543   4.625   5.325   5.092 -2.0420 -0.4708 -1.9228
  671MOL0     H90544   4.780   5.364   5.037 -1.5703  1.3237 -0.6951
  671MOL0     H90545   4.819   4.922   5.144 -1.1146 -0.5634  0.6900
  671MOL0     H90546   5.004   4.876   5.305  2.0864  0.9561 -1.3979
  671MOL0     H90547   5.373   4.973   5.646  1.4743 -0.3107  2.3976
  671MOL0     H90548   5.414   4.890   5.878 -1.4674 -1.3887  0.1703
  671MOL0     H90549   5.122   4.686   6.123  0.4396  1.5285  0.2435
  671MOL0     H90550   5.192   4.572   6.007  1.2808  1.9068 -2.0283
  671MOL0     H90551   5.365   4.513   6.160 -2.1276 -0.0534 -1.4379
  671MOL0     H90552   5.343   4.658   6.261  5.5977 -2.0707 -1.0560
  671MOL0     H90553   5.153   4.425   6.237  2.1833 -0.3576 -2.5882
  671MOL0     H90554   5.275   4.449   6.366  2.1548  1.0934 -2.0856
  671MOL0     H90555   5.026   4.619   6.307 -3.6093 -2.3161  1.6093
  671MOL0     H90556   5.156   4.661   6.431 -1.5429 -0.3455  1.6730
  671MOL0     H90557   4.977   4.413   6.441 -2.8625  0.4076 -0.4462
  671MOL0     H90558   4.949   4.576   6.519  1.7000  1.3208  0.9745
  671MOL0     H90559   5.200   4.411   6.566 -1.5849 -1.5577 -0.4724
  671MOL0     H90560   5.153   4.565   6.631  2.2645 -0.0170  1.8576
  671MOL0     H90561   5.020   4.285   6.677  4.3312 -0.8709 -3.1542
  671MOL0     H90562   4.960   4.441   6.743 -2.2146 -3.4857  1.3610
  671MOL0     H90563   5.233   4.333   6.795  1.1240  2.7539 -0.7331
  671MOL0     H90564   5.162   4.474   6.873  2.1969  0.2363 -2.1112
  671MOL0     H90565   5.036   4.691   5.892 -1.3411 -0.3995 -2.2526
  671MOL0     H90566   4.993   4.742   5.648 -0.5186 -2.7086  2.2681
  671MOL0     H90567   5.028   5.286   5.403  1.2862  0.8533 -1.4647
  671MOL0     H90568   4.855   5.338   5.232  0.4680  0.9306  2.0851
  671MOL0     H90569   4.101   4.828   3.760 -3.6309  0.4680  0.4142
  671MOL0     H90570   3.881   4.807   3.641  0.1150  0.7890 -0.1451
  671MOL0     H90571   3.544   4.677   3.400 -2.3927 -1.1052  0.3623
  671MOL0     H90572   3.371   4.611   3.245 -0.8537 -1.8908 -0.6044
  671MOL0     H90573   3.468   4.287   2.976  0.8001  1.2967 -0.1104
  671MOL0     H90574   3.407   4.389   2.851 -0.9062 -1.5386 -1.1546
  671MOL0     H90575   3.219   4.302   3.073  5.2016 -1.2618  1.4680
  671MOL0     H90576   3.229   4.204   2.923 -0.7107  0.2152 -0.1197
  671MOL0     H90577   3.146   4.353   2.787 -0.6233 -0.3169  0.9040
  671MOL0     H90578   3.175   4.492   2.890 -1.7758  0.0891  0.1595
  671MOL0     H90579   2.995   4.376   3.055 -1.5852 -4.4128 -0.5389
  671MOL0     H90580   2.929   4.431   2.902 -0.9094 -1.8568 -0.4804
  671MOL0     H90581   2.865   4.013   2.884 -1.5143 -0.0286 -0.4725
  671MOL0     H90582   3.645   4.316   3.078  0.2115 -0.0460 -1.4964
  671MOL0     H90583   3.902   4.380   3.352 -1.0895  3.8812 -0.6255
  671MOL0     H90584   3.822   4.229   3.314  2.4552 -0.4496 -0.9362
  671MOL0     H90585   3.872   4.333   3.182 -1.0785 -1.2006  0.3865
  672MOL0     O90586   0.058   4.922   6.659 -0.2105 -0.4350 -0.0510
  672MOL0     C90587   0.139   4.856   6.716 -0.4549  0.5566  0.8129
  672MOL0     O90588   0.217   4.897   6.803  0.3895 -0.8156 -0.5171
  672MOL0     C90589   0.210   5.024   6.861  0.5343 -0.6679 -0.7278
  672MOL0     C90590   0.102   5.073   6.940 -0.0101 -0.1167  0.6903
  672MOL0     C90591   0.103   5.208   6.980 -0.4114 -0.1516 -0.9379
  672MOL0     C90592   0.210   5.295   6.956 -0.2920  0.0111  0.6032
  672MOL0     O90593   0.207   5.426   6.972  0.1233 -0.5757 -0.4095
  672MOL0     C90594   0.133   5.480   7.078  0.6087 -0.4161 -0.7456
  672MOL0     C90595   0.195   5.619   7.103 -0.0876 -0.2401  0.4325
  672MOL0     C90596   0.147   5.660   7.243 -0.3333 -0.1936 -0.2765
  672MOL0     C90597   0.018   5.738   7.239  0.7251 -0.6495 -0.6264
  672MOL0     C90598   0.032   5.888   7.184  0.5851  0.5661 -0.0705
  672MOL0     C90599   0.165   5.955   7.212  0.2053 -0.1864 -0.0194
  672MOL0     C90600   0.152   6.106   7.198 -0.9819  0.6109 -0.5648
  672MOL0     C90601   0.064   6.159   7.078  0.3793  0.3849  0.2433
  672MOL0     N90602   0.120   6.296   7.050  0.0289  0.6775 -0.5661
  672MOL0     C90603   0.225   6.320   6.969  0.4043 -0.0188 -0.0110
  672MOL0     C90604   0.238   6.457   6.976 -1.1158 -0.2918 -0.2210
  672MOL0     C90605   0.361   6.521   6.916 -0.3402 -0.4694 -0.7641
  672MOL0     C90606   0.315   6.590   6.784 -0.0682 -0.7057 -0.5402
  672MOL0     C90607   0.426   6.652   6.706 -0.9940 -0.3321  0.3092
  672MOL0     C90608   0.374   6.755   6.601  0.5240  0.5696  1.2043
  672MOL0     O90609   0.495   6.821   6.567  0.4773 -0.3565  0.1896
  672MOL0     C90610   0.489   6.963   6.563 -0.4180 -0.8702 -0.0298
  672MOL0     C90611   0.598   7.031   6.501  0.5287  0.3631 -0.2850
  672MOL0     C90612   0.617   7.167   6.489  0.4096 -0.3033  0.0821
  672MOL0     C90613   0.522   7.240   6.557 -0.9659 -0.9957  0.8343
  672MOL0     C90614   0.549   7.384   6.574  0.7537  1.0489 -0.5838
  672MOL0     O90615   0.678   7.423   6.588  0.4495  0.0414 -0.4613
  672MOL0     C90616   0.726   7.553   6.585  0.4846  1.0264 -0.2205
  672MOL0     C90617   0.652   7.673   6.552 -0.1188  0.0517 -0.1427
  672MOL0     C90618   0.710   7.802   6.558  0.3559  0.0825  0.4589
  672MOL0     C90619   0.848   7.815   6.594 -0.2129  0.6785 -0.7452
  672MOL0     O90620   0.919   7.931   6.606  0.6484  0.0002 -0.0184
  672MOL0     C90621   0.834   8.046   6.630 -0.1809  0.3588 -0.6417
  672MOL0     C90622   0.914   8.157   6.680  0.2132 -0.6643 -0.3865
  672MOL0     C90623   0.856   8.297   6.662  0.3165 -0.3399 -1.0807
  672MOL0     C90624   0.886   8.354   6.524 -0.0959 -0.3159  0.2848
  672MOL0     C90625   0.843   8.500   6.513  0.4392 -0.4236  0.0740
  672MOL0     C90626   0.694   8.534   6.525 -0.7246 -0.4371  0.1434
  672MOL0     C90627   0.681   8.688   6.517  1.4003  0.6906  0.0073
  672MOL0     C90628   0.540   8.733   6.536 -0.5785  0.7246  0.5444
  672MOL0    Cl90629   0.452   8.677   6.397 -0.1227  0.1265  0.2456
  672MOL0     C90630   0.922   7.696   6.627 -0.1251 -0.3410  0.6018
  672MOL0     C90631   0.861   7.569   6.628 -0.0492 -0.4007 -0.2438
  672MOL0     O90632   0.445   7.451   6.591  0.0331 -0.2781  0.5122
  672MOL0     C90633   0.414   7.183   6.623 -0.2324 -0.8223  0.5518
  672MOL0     C90634   0.390   7.048   6.619 -0.0314 -0.7198  0.3334
  672MOL0     N90635   0.139   6.504   7.061  0.9294  0.2258  0.2249
  672MOL0     N90636   0.063   6.401   7.094 -0.6666  0.5121 -1.0049
  672MOL0     C90637   0.324   5.240   6.898  0.1517  0.5607  0.4121
  672MOL0     C90638   0.323   5.102   6.850 -0.0935  0.5503  0.1054
  672MOL0     C90639   0.151   4.721   6.663 -0.7804  0.1341 -0.5535
  672MOL0     C90640   0.126   4.691   6.530  1.1419  1.4080  0.6643
  672MOL0     C90641   0.138   4.552   6.492  1.2416 -1.0532 -0.2073
  672MOL0     C90642   0.157   4.450   6.576 -0.9389  0.1888  0.5991
  672MOL0     O90643   0.169   4.327   6.511 -0.1767  0.4812 -0.1140
  672MOL0     C90644   0.170   4.210   6.591  0.3464  0.4156 -0.7638
  672MOL0     C90645   0.144   4.083   6.517  0.7390 -0.0894  0.2722
  672MOL0     C90646   0.209   3.959   6.601 -0.3545  0.5784  1.3162
  672MOL0     C90647   0.137   3.817   6.569 -0.3490 -0.3396 -0.0231
  672MOL0     C90648   0.157   3.715   6.672  0.9380 -0.5476  0.4578
  672MOL0     C90649   0.187   3.637   6.760 -0.3944 -0.5432  0.2665
  672MOL0     C90650   0.161   4.479   6.710 -0.0377 -0.2855  0.0150
  672MOL0     C90651   0.166   4.612   6.752 -0.3841  0.4358 -0.0646
  672MOL0     C90652   0.180   4.633   6.905  0.5081 -0.0896  0.0679
  672MOL0     H90653   0.015   5.014   6.965  1.3718 -1.5747  2.2806
  672MOL0     H90654   0.033   5.248   7.052 -2.8017 -0.1430 -3.1600
  672MOL0     H90655   0.030   5.496   7.044  0.1384  1.9721  1.5393
  672MOL0     H90656   0.154   5.426   7.170 -1.6653  0.8352  0.5998
  672MOL0     H90657   0.171   5.695   7.028  0.4993 -2.4664 -2.1685
  672MOL0     H90658   0.302   5.597   7.116  0.1509  0.4912 -0.2484
  672MOL0     H90659   0.235   5.710   7.285  0.9563 -3.0550  0.6809
  672MOL0     H90660   0.129   5.581   7.317  1.3710  1.4217  2.0070
  672MOL0     H90661  -0.054   5.685   7.176 -2.5365  0.9227  1.4980
  672MOL0     H90662  -0.031   5.739   7.337  2.6073  3.0934  0.4604
  672MOL0     H90663   0.014   5.888   7.076 -2.0844 -1.4791  0.2689
  672MOL0     H90664  -0.039   5.956   7.231 -0.0253 -0.3844  0.4214
  672MOL0     H90665   0.192   5.919   7.311 -1.0844 -2.5780 -0.4720
  672MOL0     H90666   0.252   5.944   7.146 -0.9137 -1.3792 -1.3772
  672MOL0     H90667   0.256   6.137   7.191 -1.6651  2.7094 -3.2913
  672MOL0     H90668   0.130   6.154   7.294 -1.3946 -0.6522  0.0013
  672MOL0     H90669   0.081   6.083   7.002 -1.7987  1.1844 -1.1357
  672MOL0     H90670  -0.040   6.159   7.112  0.3081 -1.3225  0.1125
  672MOL0     H90671   0.295   6.251   6.923 -3.4054 -4.7991  0.5994
  672MOL0     H90672   0.393   6.601   6.982  2.0594 -1.4538 -0.6500
  672MOL0     H90673   0.447   6.456   6.901  0.5985  0.7801 -0.9537
  672MOL0     H90674   0.250   6.527   6.722  0.7995 -3.1973  0.9629
  672MOL0     H90675   0.263   6.674   6.832  2.6549  1.5157 -1.2073
  672MOL0     H90676   0.486   6.574   6.657  4.2877  1.2185  3.5102
  672MOL0     H90677   0.496   6.700   6.774 -1.3289 -1.5629  1.5752
  672MOL0     H90678   0.292   6.812   6.646 -0.6973 -0.6415  0.5966
  672MOL0     H90679   0.340   6.719   6.503 -0.3412  2.3608  0.8011
  672MOL0     H90680   0.689   6.982   6.468 -0.8405  0.0430 -4.0333
  672MOL0     H90681   0.708   7.214   6.453  0.8243  1.7855  3.3770
  672MOL0     H90682   0.552   7.663   6.512  0.0022 -1.1023 -0.2122
  672MOL0     H90683   0.651   7.892   6.541  0.1935 -0.2669 -0.9209
  672MOL0     H90684   0.785   8.089   6.542  0.6867  2.2288 -0.2706
  672MOL0     H90685   0.753   8.022   6.700  1.5183 -0.8395  1.0057
  672MOL0     H90686   0.918   8.138   6.787 -0.7804 -0.6020 -0.3303
  672MOL0     H90687   1.015   8.144   6.639 -0.0892  1.4817 -1.9850
  672MOL0     H90688   0.749   8.302   6.682  0.4666  1.9827 -0.6187
  672MOL0     H90689   0.899   8.368   6.733  1.5978 -1.6558 -0.4780
  672MOL0     H90690   0.825   8.308   6.446 -0.4318 -0.2244  0.4904
  672MOL0     H90691   0.991   8.344   6.497 -0.3278 -1.8450 -0.1525
  672MOL0     H90692   0.880   8.550   6.423 -1.8597  1.7768  0.2420
  672MOL0     H90693   0.903   8.543   6.594  2.0876 -1.2670 -0.6707
  672MOL0     H90694   0.630   8.486   6.450  0.7647  0.6843 -1.9440
  672MOL0     H90695   0.667   8.498   6.625 -0.9466 -0.5132  0.0566
  672MOL0     H90696   0.710   8.719   6.416 -0.5709 -1.9305 -1.5002
  672MOL0     H90697   0.740   8.742   6.591  0.6415 -0.4312  1.4869
  672MOL0     H90698   0.487   8.695   6.625  0.0081 -1.9982 -0.1849
  672MOL0     H90699   0.544   8.842   6.527  2.0600  0.6086 -0.5691
  672MOL0     H90700   1.025   7.706   6.660 -0.7219  1.8195  2.0788
  672MOL0     H90701   0.903   7.470   6.643  0.1414 -0.1209  1.2052
  672MOL0     H90702   0.342   7.254   6.663  0.8583  0.3727  0.4485
  672MOL0     H90703   0.301   7.006   6.666  0.3532 -0.3898  1.3848
  672MOL0     H90704   0.400   5.317   6.892  1.3751 -0.5468  1.2811
  672MOL0     H90705   0.411   5.058   6.803 -0.6683  1.3144 -1.7893
  672MOL0     H90706   0.097   4.765   6.457 -2.4290  1.2635  1.7153
  672MOL0     H90707   0.135   4.528   6.387 -1.1898 -3.1420  0.2289
  672MOL0     H90708   0.090   4.206   6.665  0.8724 -0.8121 -0.2350
  672MOL0     H90709   0.263   4.199   6.647 -0.3815 -0.1804  0.3521
  672MOL0     H90710   0.189   4.101   6.419  0.4757  0.3844  0.2377
  672MOL0     H90711   0.037   4.066   6.504  0.1221  2.4632  1.3259
  672MOL0     H90712   0.218   3.972   6.709  0.7076 -1.7472  1.5623
  672MOL0     H90713   0.310   3.953   6.560 -1.0113  0.3633 -0.3629
  672MOL0     H90714   0.028   3.829   6.570 -0.2232  0.9415  1.6502
  672MOL0     H90715   0.173   3.782   6.471  3.8192  0.4949  1.0385
  672MOL0     H90716   0.207   3.573   6.844 -1.4775  0.8332  1.6436
  672MOL0     H90717   0.146   4.398   6.781 -4.2206  1.4557  1.4935
  672MOL0     H90718   0.269   4.695   6.919  0.7462 -0.8493  2.2718
  672MOL0     H90719   0.092   4.685   6.944  0.4540 -1.1341  1.3704
  672MOL0     H90720   0.179   4.542   6.964  0.8959 -1.4648 -1.9357
  673MOL0     O90721   0.503   6.198   7.122  0.3757  0.5390 -0.0520
  673MOL0     C90722   0.567   6.163   7.221  0.4260  0.2545  1.1558
  673MOL0     O90723   0.637   6.243   7.295 -0.0447  0.8771  0.1719
  673MOL0     C90724   0.643   6.373   7.259 -0.1968  0.6306  0.2032
  673MOL0     C90725   0.545   6.472   7.290 -0.5174  0.1197 -0.0616
  673MOL0     C90726   0.566   6.609   7.245 -0.4986  0.5800 -1.6504
  673MOL0     C90727   0.682   6.645   7.166 -0.6815 -0.5214 -0.6032
  673MOL0     O90728   0.699   6.774   7.135 -0.3757  0.9268 -0.2274
  673MOL0     C90729   0.763   6.809   7.013  0.4178 -0.0448  0.0104
  673MOL0     C90730   0.788   6.960   7.018  0.2662 -0.8248 -0.5805
  673MOL0     C90731   0.839   7.017   6.891  0.4095 -0.2069  0.8679
  673MOL0     C90732   0.997   7.020   6.885 -0.6341 -0.0707  0.1639
  673MOL0     C90733   1.045   7.053   6.737  0.0028 -0.3823 -0.2643
  673MOL0     C90734   1.022   6.948   6.635 -0.2558  1.3030  0.0754
  673MOL0     C90735   1.074   6.987   6.495  0.4637  0.4238  1.1368
  673MOL0     C90736   1.009   6.885   6.393  0.1356 -0.2947 -0.3928
  673MOL0     N90737   1.091   6.882   6.266  1.0392  0.1502  0.1399
  673MOL0     C90738   1.150   6.771   6.206  0.8809 -0.8964 -0.0726
  673MOL0     C90739   1.179   6.816   6.078 -0.5321  0.2450 -0.0630
  673MOL0     C90740   1.223   6.724   5.958 -0.1037  0.0877  0.3326
  673MOL0     C90741   1.167   6.770   5.815  0.0469 -0.2554  1.2650
  673MOL0     C90742   1.259   6.868   5.743 -0.5827 -0.5115  0.0393
  673MOL0     C90743   1.188   6.937   5.630  0.6792 -0.6066 -0.4201
  673MOL0     O90744   1.159   6.844   5.525  1.0106  0.0930 -0.3136
  673MOL0     C90745   1.112   6.885   5.403 -0.7745  0.5198 -0.0703
  673MOL0     C90746   1.045   6.799   5.318  0.0505 -0.3261  0.1276
  673MOL0     C90747   0.996   6.838   5.195  0.4049 -0.0338  0.0434
  673MOL0     C90748   1.017   6.965   5.147 -0.3309  0.6484  0.9852
  673MOL0     C90749   0.953   7.010   5.014 -0.1823 -0.6813 -0.8351
  673MOL0     O90750   0.886   6.917   4.947 -0.7186  0.5789  1.0525
  673MOL0     C90751   0.787   6.954   4.860 -0.1894 -0.2829 -0.4645
  673MOL0     C90752   0.826   6.971   4.723  0.4318  0.6273  0.1141
  673MOL0     C90753   0.733   7.011   4.633  1.0969  0.5613  0.9470
  673MOL0     C90754   0.598   7.041   4.667 -0.7845  0.1493  0.2695
  673MOL0     O90755   0.525   7.087   4.562 -0.2075  0.0087 -0.3426
  673MOL0     C90756   0.429   7.176   4.609 -0.3399 -0.3009  0.3306
  673MOL0     C90757   0.357   7.246   4.500  0.5112 -0.4703  0.3051
  673MOL0     C90758   0.287   7.140   4.417  1.2431  0.8093  0.2135
  673MOL0     C90759   0.157   7.204   4.363  0.9802  0.4016 -0.7342
  673MOL0     C90760   0.078   7.099   4.279 -0.5971 -0.1151  0.4616
  673MOL0     C90761  -0.082   7.116   4.298  0.0060 -0.1994  0.7388
  673MOL0     C90762  -0.136   7.020   4.190 -0.2080 -0.4790  0.0994
  673MOL0     C90763  -0.291   7.006   4.214  0.4085  0.8812  0.3885
  673MOL0    Cl90764  -0.328   6.926   4.362  0.0897  0.4873  0.2251
  673MOL0     C90765   0.568   7.026   4.804  0.2546  0.6288  0.1258
  673MOL0     C90766   0.655   6.976   4.900 -0.3033  0.3279 -0.2597
  673MOL0     O90767   0.949   7.125   4.994  0.1439 -0.2257  0.5024
  673MOL0     C90768   1.092   7.052   5.226  1.2578 -0.2879 -0.1646
  673MOL0     C90769   1.140   7.013   5.353  0.3613  0.3363 -0.8082
  673MOL0     N90770   1.135   6.945   6.073  0.6033 -0.4751 -0.7478
  673MOL0     N90771   1.086   6.989   6.184  0.8292 -1.1786  0.3522
  673MOL0     C90772   0.770   6.546   7.130  0.1589  0.5751 -0.1283
  673MOL0     C90773   0.741   6.417   7.164  0.3155  0.4235  0.2605
  673MOL0     C90774   0.577   6.015   7.250  0.3307  0.2813 -0.9294
  673MOL0     C90775   0.616   5.985   7.384  0.8192  0.1223  0.0582
  673MOL0     C90776   0.610   5.853   7.435 -0.5127  1.5974  0.6574
  673MOL0     C90777   0.597   5.737   7.350 -0.2236  0.1455 -0.8846
  673MOL0     O90778   0.598   5.615   7.400 -0.7256  0.6542 -0.0010
  673MOL0     C90779   0.522   5.510   7.341  0.1982 -0.1914  0.0349
  673MOL0     C90780   0.549   5.381   7.435  0.4122 -0.2692  0.2605
  673MOL0     C90781   0.432   5.274   7.417 -0.1681  0.7968 -0.3117
  673MOL0     C90782   0.411   5.219   7.269 -0.6107 -0.0194 -0.1105
  673MOL0     C90783   0.541   5.222   7.192 -0.6286  0.0588 -0.5169
  673MOL0     C90784   0.638   5.207   7.119  0.6175  0.8347 -0.0325
  673MOL0     C90785   0.561   5.774   7.218 -0.7017 -0.8084  0.8506
  673MOL0     C90786   0.549   5.903   7.167  0.4522  0.5907 -0.7516
  673MOL0     C90787   0.544   5.914   7.014  0.1752  0.1626  0.9010
  673MOL0     H90788   0.461   6.447   7.353 -0.8930 -0.2100 -0.6797
  673MOL0     H90789   0.500   6.692   7.267 -0.4902 -0.3917  2.8661
  673MOL0     H90790   0.857   6.758   6.993 -1.0035 -1.3432 -4.7215
  673MOL0     H90791   0.692   6.777   6.936  1.5163 -1.3979 -0.4710
  673MOL0     H90792   0.835   6.990   7.113  2.9099 -1.8429 -1.4635
  673MOL0     H90793   0.684   6.993   7.014 -1.2960 -5.1245 -1.0810
  673MOL0     H90794   0.809   7.120   6.867  1.7683 -0.4511 -2.3095
  673MOL0     H90795   0.805   6.946   6.816  2.3406 -1.5973  1.2316
  673MOL0     H90796   1.035   7.091   6.959 -4.5598  1.7719  0.6675
  673MOL0     H90797   1.039   6.921   6.903  0.0170  0.0170 -0.8205
  673MOL0     H90798   0.995   7.145   6.706  0.6584 -0.8559 -3.0250
  673MOL0     H90799   1.149   7.081   6.758 -0.3209  0.0279  0.8601
  673MOL0     H90800   1.068   6.852   6.660 -1.4506 -0.3772 -3.4480
  673MOL0     H90801   0.914   6.931   6.623 -0.4675  2.1327  0.7638
  673MOL0     H90802   1.182   7.005   6.497  0.7626 -1.1099  0.0823
  673MOL0     H90803   1.037   7.084   6.460 -1.8548 -0.9787 -0.6138
  673MOL0     H90804   1.021   6.783   6.430 -0.2239 -0.5416 -0.9366
  673MOL0     H90805   0.903   6.902   6.371  0.0188 -0.2902  0.1554
  673MOL0     H90806   1.158   6.672   6.250  0.5921 -0.7310  0.3563
  673MOL0     H90807   1.331   6.706   5.957 -0.3027 -1.2124 -1.5002
  673MOL0     H90808   1.184   6.622   5.967  4.5109 -2.1373 -1.7089
  673MOL0     H90809   1.152   6.682   5.752  5.3043 -1.1138  0.7349
  673MOL0     H90810   1.073   6.819   5.843 -0.4686 -0.9411  0.7560
  673MOL0     H90811   1.352   6.819   5.711 -0.0605  1.7564 -2.1723
  673MOL0     H90812   1.294   6.949   5.807  3.2315  0.2406 -2.6367
  673MOL0     H90813   1.232   7.031   5.597 -0.7699  0.5427  0.7789
  673MOL0     H90814   1.091   6.978   5.660  0.8063 -0.6706  0.0801
  673MOL0     H90815   1.013   6.709   5.369 -0.5588  0.6604  1.5532
  673MOL0     H90816   0.926   6.766   5.153 -0.7573  0.3383  1.2427
  673MOL0     H90817   0.922   6.948   4.678  0.0855  2.6573 -1.8563
  673MOL0     H90818   0.743   7.025   4.526 -2.6639  3.2704  0.7369
  673MOL0     H90819   0.357   7.115   4.663  0.8857 -3.1855 -1.0685
  673MOL0     H90820   0.474   7.257   4.668  1.3611  0.3438 -1.7077
  673MOL0     H90821   0.283   7.309   4.550 -0.2190 -0.8632 -0.2455
  673MOL0     H90822   0.432   7.302   4.444  0.8988 -0.7423  0.5458
  673MOL0     H90823   0.345   7.106   4.330 -1.7236  0.7879 -1.9204
  673MOL0     H90824   0.259   7.057   4.483  1.3961 -0.2294 -0.9707
  673MOL0     H90825   0.176   7.294   4.303  0.9300  0.2321 -1.0039
  673MOL0     H90826   0.106   7.220   4.459  2.0203 -0.9247  0.0765
  673MOL0     H90827   0.102   6.994   4.298  1.8036 -0.4089 -3.1439
  673MOL0     H90828   0.126   7.112   4.181  3.0520 -0.6045  2.0351
  673MOL0     H90829  -0.110   7.091   4.401  1.7579 -1.8894  0.8721
  673MOL0     H90830  -0.116   7.217   4.273  2.5562  0.0753 -2.1833
  673MOL0     H90831  -0.084   6.924   4.190 -0.4539 -0.6212  0.8238
  673MOL0     H90832  -0.136   7.063   4.090 -2.4172  0.0336  0.2662
  673MOL0     H90833  -0.344   7.101   4.212 -2.9400 -0.6873 -4.3635
  673MOL0     H90834  -0.338   6.949   4.133 -0.0833  0.9555  0.6154
  673MOL0     H90835   0.471   7.061   4.841 -1.1425 -1.2343 -1.5921
  673MOL0     H90836   0.604   6.975   4.996 -1.4166 -0.2979 -0.8337
  673MOL0     H90837   1.104   7.155   5.192 -1.4622  0.6954  1.4895
  673MOL0     H90838   1.203   7.085   5.405  0.8294  0.2495 -1.2472
  673MOL0     H90839   0.854   6.574   7.067 -2.2016  1.0272 -3.2957
  673MOL0     H90840   0.805   6.335   7.134 -0.2034 -0.8774  2.4454
  673MOL0     H90841   0.634   6.062   7.458 -0.2055  0.2708  0.1637
  673MOL0     H90842   0.620   5.834   7.541  0.1962  3.1792  0.9015
  673MOL0     H90843   0.559   5.485   7.241 -1.7588  2.5252 -1.5292
  673MOL0     H90844   0.418   5.544   7.341  0.2854  0.2795  2.7560
  673MOL0     H90845   0.551   5.416   7.538 -0.1799  0.7761 -0.0726
  673MOL0     H90846   0.652   5.349   7.417  0.5493  0.6897 -0.7728
  673MOL0     H90847   0.336   5.313   7.453 -0.0735  0.1351  0.6879
  673MOL0     H90848   0.455   5.181   7.471 -1.3984 -0.7582 -2.2891
  673MOL0     H90849   0.363   5.124   7.292  1.8507 -0.7020  2.6486
  673MOL0     H90850   0.341   5.283   7.214  0.0106 -0.6553 -1.6969
  673MOL0     H90851   0.720   5.190   7.052  0.7211  1.4901 -0.0744
  673MOL0     H90852   0.539   5.695   7.147  0.6093  1.1069 -1.8686
  673MOL0     H90853   0.462   5.975   6.975  0.7733 -0.5342 -1.6423
  673MOL0     H90854   0.641   5.956   6.985 -0.2819  1.4671  1.1702
  673MOL0     H90855   0.527   5.814   6.975 -1.8363  1.3069 -1.4216
  674MOL0     O90856  11.465   8.418   0.707 -0.6414  0.8203  0.1409
  674MOL0     C90857  11.552   8.373   0.626 -0.5791  1.3493 -0.2066
  674MOL0     O90858  11.693   8.386   0.639  0.0855 -0.2777 -0.1979
  674MOL0     C90859  11.742   8.416   0.762 -0.7509  0.1121  1.0058
  674MOL0     C90860  11.750   8.551   0.800  0.2557 -0.1559 -0.5329
  674MOL0     C90861  11.837   8.586   0.908  0.1771 -0.3895 -0.6925
  674MOL0     C90862  11.886   8.492   0.998  0.8347 -0.1731  0.0393
  674MOL0     O90863  11.954   8.518   1.119  0.0552 -0.3885 -0.3229
  674MOL0     C90864  11.893   8.632   1.189 -0.0559 -0.3435 -0.1087
  674MOL0     C90865  11.968   8.652   1.323 -0.2053 -0.5309  0.4972
  674MOL0     C90866  12.119   8.695   1.318  0.5155  0.1997 -0.9573
  674MOL0     C90867  12.199   8.729   1.444  0.3594 -0.1316 -0.3378
  674MOL0     C90868  12.338   8.788   1.409 -0.5862  0.7564 -0.6485
  674MOL0     C90869  12.396   8.799   1.552  0.7621  0.2624  0.1269
  674MOL0     C90870  12.543   8.846   1.542 -0.2499 -0.3643 -0.7404
  674MOL0     C90871  12.613   8.890   1.681  0.5577 -0.2381 -0.0004
  674MOL0     N90872  12.591   9.026   1.723 -0.9738  0.1614 -0.2623
  674MOL0     C90873  12.472   9.102   1.736 -0.4196 -0.4380 -0.4986
  674MOL0     C90874  12.517   9.218   1.791  0.1703 -0.7225  0.6161
  674MOL0     C90875  12.428   9.338   1.825  0.5286  0.2590  0.1208
  674MOL0     C90876  12.462   9.454   1.731 -0.2593  0.6811 -0.1109
  674MOL0     C90877  12.437   9.417   1.587 -0.2336 -0.1541  0.6797
  674MOL0     C90878  12.482   9.527   1.491  0.9084 -1.0258  0.4996
  674MOL0     O90879  12.605   9.583   1.537 -0.1892  0.0857  0.9014
  674MOL0     C90880  12.633   9.701   1.477  0.2026 -0.1960  0.9234
  674MOL0     C90881  12.587   9.817   1.531  0.6390  0.5331 -0.7114
  674MOL0     C90882  12.616   9.936   1.476 -0.3230  0.1630  0.1817
  674MOL0     C90883  12.709   9.949   1.368 -0.1495  0.4540  0.0967
  674MOL0     C90884  12.734  10.078   1.302 -0.0942 -0.0256 -0.2694
  674MOL0     O90885  12.716  10.177   1.392 -0.5300  0.6479  0.0873
  674MOL0     C90886  12.727  10.300   1.352 -0.1244 -0.4438 -0.4748
  674MOL0     C90887  12.657  10.347   1.233  0.2382  0.4556 -0.6692
  674MOL0     C90888  12.653  10.480   1.203  0.0630  0.3048 -0.2919
  674MOL0     C90889  12.730  10.571   1.281 -0.2948 -0.3591 -1.4484
  674MOL0     O90890  12.737  10.707   1.250 -0.2562 -0.0079  0.6685
  674MOL0     C90891  12.764  10.729   1.106 -0.2003 -0.1502 -0.5162
  674MOL0     C90892  12.816  10.873   1.095 -0.3911 -0.2120 -0.6008
  674MOL0     C90893  12.836  10.927   0.959 -0.2208 -0.3371 -0.6200
  674MOL0     C90894  12.862  11.083   0.977 -0.4261  0.0457  1.0165
  674MOL0     C90895  12.888  11.148   0.832  0.3725  0.1164  0.7327
  674MOL0     C90896  12.898  11.303   0.842  0.3717  0.4377 -0.7527
  674MOL0     C90897  12.770  11.369   0.890 -0.1966  0.0388 -0.0485
  674MOL0     C90898  12.744  11.504   0.827 -0.1866 -0.6604 -0.4110
  674MOL0    Cl90899  12.869  11.619   0.823 -0.2159  0.4100 -0.2132
  674MOL0     C90900  12.800  10.525   1.399  0.4032  0.2389  0.3056
  674MOL0     C90901  12.805  10.385   1.428  0.7195  0.2884 -0.9378
  674MOL0     O90902  12.775  10.088   1.187 -0.0285 -0.1234 -0.3589
  674MOL0     C90903  12.764   9.828   1.321  0.0846 -0.3763 -0.1078
  674MOL0     C90904  12.727   9.702   1.373  0.5409  0.0505  0.1222
  674MOL0     N90905  12.649   9.210   1.815 -0.0988  0.2640  0.5181
  674MOL0     N90906  12.699   9.101   1.769 -0.0100  0.8622 -0.6156
  674MOL0     C90907  11.861   8.355   0.960 -0.2977  0.9261  0.1276
  674MOL0     C90908  11.805   8.313   0.838  0.9298  0.0194 -0.4771
  674MOL0     C90909  11.500   8.304   0.515 -0.2597  0.9431 -0.0775
  674MOL0     C90910  11.582   8.182   0.478  0.2324  0.7059  0.4920
  674MOL0     C90911  11.524   8.099   0.375 -0.1939  0.6529 -0.2467
  674MOL0     C90912  11.402   8.141   0.319  0.2486  0.3045 -1.7576
  674MOL0     O90913  11.327   8.065   0.233  0.9370  0.1269 -0.5611
  674MOL0     C90914  11.323   7.919   0.245  0.2460  0.1433  0.3947
  674MOL0     C90915  11.323   7.850   0.111 -0.8922 -1.0672 -0.0857
  674MOL0     C90916  11.465   7.869   0.036  0.4020 -0.3960  0.0683
  674MOL0     C90917  11.469   7.800  -0.102  0.5661  0.1832 -0.2513
  674MOL0     C90918  11.576   7.860  -0.176 -0.3764 -0.6026 -0.0511
  674MOL0     C90919  11.675   7.918  -0.233 -0.1103  0.1115 -0.9122
  674MOL0     C90920  11.346   8.264   0.339  1.1616 -0.5093 -0.2805
  674MOL0     C90921  11.397   8.353   0.436  0.1911  0.3078  0.6968
  674MOL0     C90922  11.329   8.484   0.460  0.7923  0.0853  0.3828
  674MOL0     H90923  11.724   8.632   0.733 -1.2167  0.4319  0.6938
  674MOL0     H90924  11.869   8.689   0.920  1.0746 -0.5126 -1.8170
  674MOL0     H90925  11.909   8.730   1.143 -0.1626  0.1651  0.9196
  674MOL0     H90926  11.788   8.607   1.209  0.1303  0.3041  1.8511
  674MOL0     H90927  11.969   8.550   1.364 -2.4872 -0.0665  1.8884
  674MOL0     H90928  11.918   8.725   1.388  2.2400  3.5189 -1.7609
  674MOL0     H90929  12.125   8.786   1.257 -1.8540 -0.6047 -2.5398
  674MOL0     H90930  12.179   8.619   1.267  0.3476 -1.1156  0.7222
  674MOL0     H90931  12.142   8.803   1.500 -0.2577  0.0992 -1.2580
  674MOL0     H90932  12.218   8.633   1.495 -1.6219 -0.2238  0.3125
  674MOL0     H90933  12.402   8.734   1.338 -0.2442  3.1333 -2.2582
  674MOL0     H90934  12.332   8.886   1.361 -0.2020  0.1251 -2.0514
  674MOL0     H90935  12.335   8.867   1.612 -0.4009 -1.0648  0.4923
  674MOL0     H90936  12.393   8.699   1.596 -0.4941 -0.1952 -0.9442
  674MOL0     H90937  12.541   8.938   1.483 -0.7043 -0.2301 -0.5207
  674MOL0     H90938  12.604   8.768   1.494  4.3977  1.1524  1.9990
  674MOL0     H90939  12.565   8.831   1.760  1.2689 -1.2914 -0.3323
  674MOL0     H90940  12.718   8.860   1.684 -0.1422 -2.9594  0.2345
  674MOL0     H90941  12.368   9.086   1.707 -0.1831  0.2476 -1.8118
  674MOL0     H90942  12.323   9.310   1.814  0.9876 -0.6989 -2.5012
  674MOL0     H90943  12.436   9.357   1.933  4.4777  0.3698 -0.0642
  674MOL0     H90944  12.402   9.544   1.742 -0.7589  0.4262 -0.7202
  674MOL0     H90945  12.569   9.474   1.739 -0.3154  1.5471 -1.3804
  674MOL0     H90946  12.328   9.413   1.577 -0.5758  1.6124  2.9066
  674MOL0     H90947  12.488   9.327   1.552 -1.1677 -1.0743  1.5868
  674MOL0     H90948  12.394   9.591   1.481  2.6341  1.1273 -2.4423
  674MOL0     H90949  12.497   9.480   1.394  0.2085 -2.2592  0.9674
  674MOL0     H90950  12.535   9.808   1.626  3.6061  1.7878  1.1819
  674MOL0     H90951  12.570  10.028   1.509 -2.5382  0.0099 -2.1464
  674MOL0     H90952  12.604  10.278   1.168  0.8416  1.1892 -1.9785
  674MOL0     H90953  12.613  10.514   1.108  2.2709 -0.5854 -1.6124
  674MOL0     H90954  12.831  10.650   1.071  0.4033  0.4411 -0.7223
  674MOL0     H90955  12.664  10.713   1.064 -0.8478  1.0510  0.5168
  674MOL0     H90956  12.746  10.943   1.142  0.6513  1.3726 -1.3196
  674MOL0     H90957  12.908  10.887   1.153 -1.1962 -1.0470  0.9335
  674MOL0     H90958  12.918  10.873   0.909  1.5474  0.1264  1.6056
  674MOL0     H90959  12.749  10.908   0.895 -0.3037  0.4778 -0.7603
  674MOL0     H90960  12.952  11.097   1.037  2.0938  1.3554 -2.7584
  674MOL0     H90961  12.769  11.122   1.020 -1.2313 -0.6237 -0.0578
  674MOL0     H90962  12.800  11.142   0.766  1.7856  2.4753 -1.5380
  674MOL0     H90963  12.973  11.107   0.777  0.9353  2.5185 -0.3001
  674MOL0     H90964  12.979  11.332   0.909  0.5815 -0.1218 -0.7557
  674MOL0     H90965  12.932  11.338   0.744  0.1047 -1.3987 -1.5561
  674MOL0     H90966  12.774  11.386   0.998 -2.3219  2.9143 -0.3058
  674MOL0     H90967  12.678  11.312   0.873 -0.1432 -0.5669  1.5306
  674MOL0     H90968  12.712  11.478   0.726  0.4193  1.6451 -1.2410
  674MOL0     H90969  12.662  11.538   0.891 -0.5822  0.6857 -1.5938
  674MOL0     H90970  12.845  10.597   1.468  0.0470  2.0324 -1.2524
  674MOL0     H90971  12.859  10.358   1.519  0.6393  1.5969 -0.4767
  674MOL0     H90972  12.835   9.819   1.239  0.8369  0.5051  0.4308
  674MOL0     H90973  12.762   9.608   1.329 -2.7265 -0.6868 -1.2147
  674MOL0     H90974  11.899   8.282   1.031 -1.0156 -0.0867 -0.5079
  674MOL0     H90975  11.823   8.210   0.809  3.0474 -0.1625  1.2375
  674MOL0     H90976  11.669   8.133   0.519  1.0782  2.2313  0.5838
  674MOL0     H90977  11.560   8.010   0.325 -1.8009  0.1570 -0.6065
  674MOL0     H90978  11.227   7.888   0.288  0.0819 -0.8409 -0.6192
  674MOL0     H90979  11.404   7.869   0.298  0.2832 -3.0656 -2.3749
  674MOL0     H90980  11.240   7.892   0.053 -1.6796 -0.5844  1.3609
  674MOL0     H90981  11.308   7.742   0.117  3.8534 -1.9726 -0.7330
  674MOL0     H90982  11.545   7.830   0.100 -0.6867 -3.5055 -0.3393
  674MOL0     H90983  11.480   7.977   0.027 -2.6430  0.6547  4.3062
  674MOL0     H90984  11.493   7.694  -0.087 -0.8816  0.0131  1.1651
  674MOL0     H90985  11.376   7.811  -0.159 -0.7027  0.8748  1.8081
  674MOL0     H90986  11.764   7.966  -0.268  1.5001  0.7007  3.3331
  674MOL0     H90987  11.255   8.287   0.285 -0.5380 -1.4988  1.9951
  674MOL0     H90988  11.246   8.503   0.392  0.3430  0.5445  1.0424
  674MOL0     H90989  11.278   8.497   0.556 -0.7950  0.1781 -0.4434
  674MOL0     H90990  11.407   8.558   0.444  0.2214  0.6204  0.0508
  675MOL0     O90991  10.934   9.227   0.036  0.1657  1.2735 -0.1684
  675MOL0     C90992  10.966   9.222   0.151 -0.8468 -0.4096 -0.1787
  675MOL0     O90993  11.097   9.229   0.197 -0.0510  0.1469  0.8421
  675MOL0     C90994  11.194   9.273   0.111 -0.2748 -0.0468  0.6432
  675MOL0     C90995  11.197   9.406   0.071 -0.6562 -0.0790 -0.1202
  675MOL0     C90996  11.295   9.449  -0.015  0.3541  0.1320  0.3865
  675MOL0     C90997  11.394   9.357  -0.055 -0.3972 -0.1122 -0.4360
  675MOL0     O90998  11.479   9.421  -0.132 -0.1387 -0.1763  0.3544
  675MOL0     C90999  11.581   9.484  -0.047 -0.5798 -0.3313  0.4129
  675MOL0     C91000  11.696   9.508  -0.144 -0.0675  0.0909  0.0527
  675MOL0     C91001  11.809   9.609  -0.101  0.2682 -0.0118 -0.1641
  675MOL0     C91002  11.934   9.587  -0.191 -1.3441  0.1302  0.0874
  675MOL0     C91003  12.039   9.679  -0.130  0.1082 -0.3677 -1.0126
  675MOL0     C91004  12.167   9.661  -0.219 -0.2015  0.7808 -0.7015
  675MOL0     C91005  12.291   9.715  -0.137  0.4798 -0.1186  0.3064
  675MOL0     C91006  12.421   9.670  -0.203  1.0528 -0.5818 -0.2185
  675MOL0     N91007  12.544   9.701  -0.130 -0.0274 -0.3170  0.3352
  675MOL0     C91008  12.562   9.811  -0.056  0.8184  0.0612 -0.1931
  675MOL0     C91009  12.687   9.798  -0.008  0.0717 -0.3545  0.1981
  675MOL0     C91010  12.756   9.885   0.087  0.0404  0.1986 -0.3507
  675MOL0     C91011  12.759   9.831   0.232 -0.2479  0.0009 -0.7212
  675MOL0     C91012  12.735   9.938   0.347  0.4421  1.0948  0.6982
  675MOL0     C91013  12.737   9.864   0.477  0.2442 -0.0073  0.5897
  675MOL0     O91014  12.864   9.810   0.506  0.1529 -0.3717  0.9919
  675MOL0     C91015  12.897   9.753   0.623  0.3183 -0.6988 -0.6238
  675MOL0     C91016  13.020   9.684   0.634  0.0637  0.0469  0.0172
  675MOL0     C91017  13.064   9.626   0.754 -0.9408 -0.2164  0.0897
  675MOL0     C91018  12.979   9.622   0.868  0.8963 -1.2311  0.2508
  675MOL0     C91019  13.014   9.570   1.005  0.0820  0.0189  1.0771
  675MOL0     O91020  13.143   9.525   1.019  0.4526 -0.2711 -0.3592
  675MOL0     C91021  13.201   9.497   1.146  0.1004 -0.3041 -0.2402
  675MOL0     C91022  13.138   9.522   1.272 -0.7882 -0.6870 -0.1630
  675MOL0     C91023  13.210   9.508   1.387  0.5048  1.4612 -0.2771
  675MOL0     C91024  13.343   9.467   1.397 -0.3936  0.0070 -0.8725
  675MOL0     O91025  13.407   9.465   1.519  0.6946  0.6167  1.3237
  675MOL0     C91026  13.545   9.450   1.516 -0.4703 -0.5679  0.5273
  675MOL0     C91027  13.613   9.445   1.645  0.6778 -0.3097 -0.0171
  675MOL0     C91028  13.763   9.408   1.618 -0.9204 -1.3669 -0.0642
  675MOL0     C91029  13.852   9.435   1.738  0.1271  0.7815 -0.5298
  675MOL0     C91030  13.993   9.415   1.677 -0.1733 -1.0346 -0.1677
  675MOL0     C91031  14.038   9.266   1.692 -0.5690  0.1091  1.5335
  675MOL0     C91032  14.159   9.246   1.601  0.3416  1.3636 -0.0634
  675MOL0     C91033  14.234   9.113   1.633  0.5934 -0.2304  0.6170
  675MOL0    Cl91034  14.133   8.967   1.615  0.0566 -0.4993 -0.1578
  675MOL0     C91035  13.400   9.432   1.266  0.3274  0.4066  0.2073
  675MOL0     C91036  13.331   9.449   1.145  0.3587 -0.7742 -0.0522
  675MOL0     O91037  12.932   9.587   1.090 -0.1045  0.2028 -1.1137
  675MOL0     C91038  12.847   9.671   0.858  0.9603 -0.4403 -0.6544
  675MOL0     C91039  12.814   9.749   0.743  0.1023 -0.3463  0.1146
  675MOL0     N91040  12.736   9.676  -0.044 -0.2334  0.0066 -0.8667
  675MOL0     N91041  12.655   9.622  -0.122 -0.2159 -0.1847  0.1620
  675MOL0     C91042  11.402   9.226  -0.008 -1.4476  0.2881  0.9647
  675MOL0     C91043  11.299   9.186   0.071  0.3600 -0.1913 -0.7790
  675MOL0     C91044  10.870   9.201   0.258 -0.4133 -0.2293  0.2830
  675MOL0     C91045  10.921   9.185   0.398 -0.0238 -0.4736  0.7900
  675MOL0     C91046  10.845   9.179   0.516 -0.4538 -0.4432 -0.0288
  675MOL0     C91047  10.711   9.170   0.501 -0.1323 -1.0057  0.4712
  675MOL0     O91048  10.620   9.162   0.606  0.2386 -0.5356  0.4375
  675MOL0     C91049  10.649   9.091   0.728 -0.1779 -0.6014 -0.4925
  675MOL0     C91050  10.547   8.991   0.802 -1.0518 -0.1640 -0.6178
  675MOL0     C91051  10.463   8.893   0.717 -1.4394 -0.1133 -0.5261
  675MOL0     C91052  10.377   8.802   0.807  0.8432 -0.4477  0.8196
  675MOL0     C91053  10.254   8.869   0.838  0.7245 -0.7571 -0.0769
  675MOL0     C91054  10.147   8.923   0.854 -0.3832  0.3771 -0.0861
  675MOL0     C91055  10.660   9.186   0.363 -0.0678  0.9367  0.2096
  675MOL0     C91056  10.730   9.203   0.248  1.3453 -0.4500  0.0280
  675MOL0     C91057  10.655   9.220   0.119  0.2161 -0.5268 -0.7012
  675MOL0     H91058  11.118   9.461   0.121 -3.3787 -0.2460 -3.8053
  675MOL0     H91059  11.296   9.550  -0.053 -3.8045 -0.4305 -1.8964
  675MOL0     H91060  11.529   9.577  -0.026  0.9633  0.8714 -0.7968
  675MOL0     H91061  11.602   9.440   0.051 -2.8709  0.2863  1.2256
  675MOL0     H91062  11.664   9.538  -0.244 -0.3036  0.3256  0.1994
  675MOL0     H91063  11.738   9.407  -0.147  0.8046  0.2597  3.0065
  675MOL0     H91064  11.834   9.610   0.005 -0.6932  1.2071  0.0736
  675MOL0     H91065  11.768   9.709  -0.116 -0.8535 -0.5154 -0.5893
  675MOL0     H91066  11.960   9.481  -0.184 -1.1974  0.2305  1.3241
  675MOL0     H91067  11.918   9.609  -0.297 -5.1142 -0.5504  0.3936
  675MOL0     H91068  12.011   9.784  -0.129  0.9996 -0.1139  0.7829
  675MOL0     H91069  12.049   9.640  -0.029 -4.1027 -3.9200 -1.6528
  675MOL0     H91070  12.170   9.553  -0.234 -0.0704  1.0048 -2.4749
  675MOL0     H91071  12.159   9.702  -0.320  0.3497  0.7034 -0.7826
  675MOL0     H91072  12.286   9.683  -0.032  3.4786  0.2791  0.6695
  675MOL0     H91073  12.289   9.824  -0.143 -0.8373 -0.0957  0.7536
  675MOL0     H91074  12.429   9.565  -0.232  0.4582 -1.4165  2.4037
  675MOL0     H91075  12.437   9.731  -0.293 -2.4670 -1.4517 -1.6224
  675MOL0     H91076  12.506   9.900  -0.031  0.1523 -0.6625  0.9705
  675MOL0     H91077  12.856   9.890   0.044 -1.4623 -0.6162 -4.4354
  675MOL0     H91078  12.709   9.984   0.093  2.3022  1.2203  2.0047
  675MOL0     H91079  12.691   9.748   0.255  0.5089 -0.0871  1.3676
  675MOL0     H91080  12.861   9.796   0.245 -0.4099 -0.1954  0.0627
  675MOL0     H91081  12.635   9.982   0.339  0.3527  0.7627 -0.0513
  675MOL0     H91082  12.808  10.018   0.331  0.5730  0.5629 -1.8364
  675MOL0     H91083  12.663   9.783   0.478  1.0798 -0.7743  1.1548
  675MOL0     H91084  12.716   9.941   0.551  1.8878 -0.8215  1.9720
  675MOL0     H91085  13.076   9.680   0.541  1.1420 -0.3515  0.6706
  675MOL0     H91086  13.160   9.576   0.763  0.1770  1.8461  0.1200
  675MOL0     H91087  13.043   9.574   1.272 -1.7690 -2.4193 -0.0804
  675MOL0     H91088  13.162   9.530   1.482 -2.0405 -1.1879 -0.8048
  675MOL0     H91089  13.575   9.370   1.447 -1.1588  1.0113 -1.7226
  675MOL0     H91090  13.596   9.538   1.476  0.0193 -0.8679  0.4930
  675MOL0     H91091  13.604   9.529   1.715  2.1501  0.0641 -0.2437
  675MOL0     H91092  13.574   9.362   1.705  2.4284 -0.0792  1.5049
  675MOL0     H91093  13.764   9.302   1.593  0.5332 -1.7449  1.4164
  675MOL0     H91094  13.801   9.472   1.538  1.2342 -4.7256 -1.9669
  675MOL0     H91095  13.829   9.366   1.819  0.5858  0.5557 -0.5888
  675MOL0     H91096  13.847   9.537   1.776  1.7493  0.2030  1.3968
  675MOL0     H91097  14.058   9.482   1.733 -2.0206 -0.3836  1.2863
  675MOL0     H91098  14.004   9.454   1.575 -0.1537  0.0565  0.2504
  675MOL0     H91099  14.062   9.245   1.796 -1.6883  0.6836  1.9204
  675MOL0     H91100  13.960   9.201   1.652 -0.5624  0.6392  0.6124
  675MOL0     H91101  14.228   9.330   1.608  3.4542 -1.1444  2.1661
  675MOL0     H91102  14.130   9.240   1.496  2.1330 -0.3482 -0.5223
  675MOL0     H91103  14.317   9.116   1.561 -0.2366 -0.6438 -0.3867
  675MOL0     H91104  14.261   9.119   1.739 -0.5901 -0.4735  0.9459
  675MOL0     H91105  13.501   9.392   1.256 -0.0126  0.0629 -2.4816
  675MOL0     H91106  13.377   9.421   1.051 -2.0918  0.8131 -1.8615
  675MOL0     H91107  12.778   9.671   0.942 -1.4778  1.2448 -2.5269
  675MOL0     H91108  12.721   9.804   0.738  0.6642  0.4818 -2.2964
  675MOL0     H91109  11.488   9.162  -0.029 -1.2845  0.1185  2.1066
  675MOL0     H91110  11.295   9.082   0.103  1.1163  0.3862  1.3409
  675MOL0     H91111  11.024   9.171   0.429  0.8328 -0.5893 -1.8227
  675MOL0     H91112  10.881   9.191   0.617 -3.6683  1.0662  1.0495
  675MOL0     H91113  10.684   9.158   0.807  1.5962 -1.0514 -0.8542
  675MOL0     H91114  10.734   9.026   0.706 -0.1221 -0.5301 -0.4900
  675MOL0     H91115  10.490   9.057   0.868  0.3012 -1.4845  2.0446
  675MOL0     H91116  10.617   8.934   0.865 -2.7788  0.1933  1.7319
  675MOL0     H91117  10.527   8.832   0.654 -1.4781  1.0272 -1.7140
  675MOL0     H91118  10.404   8.959   0.653 -2.1333  0.0530  0.2603
  675MOL0     H91119  10.341   8.716   0.749 -0.9205  2.1055 -2.1636
  675MOL0     H91120  10.419   8.768   0.902  1.3104 -1.3825  0.2935
  675MOL0     H91121  10.055   8.971   0.881 -3.3234 -2.9354 -3.1657
  675MOL0     H91122  10.552   9.172   0.356  0.0031  0.9341 -1.4335
  675MOL0     H91123  10.691   9.318   0.088  3.4474 -0.7771  1.6952
  675MOL0     H91124  10.672   9.134   0.054  0.8525 -0.2605 -0.9005
  675MOL0     H91125  10.547   9.233   0.132  0.6958  1.8373  1.8544
  676MOL0     O91126   0.389   5.035   1.828  0.0833 -0.0930 -1.0797
  676MOL0     C91127   0.343   5.140   1.792 -1.2377  0.0599  1.0081
  676MOL0     O91128   0.223   5.156   1.760 -0.0828  0.1279 -0.8423
  676MOL0     C91129   0.185   5.240   1.660 -0.2063 -0.3912  0.2966
  676MOL0     C91130   0.160   5.182   1.535  0.2497  0.6774 -1.0304
  676MOL0     C91131   0.121   5.263   1.423 -0.5100 -1.2461 -0.8221
  676MOL0     C91132   0.092   5.400   1.449  0.0075 -0.3920  0.8889
  676MOL0     O91133   0.064   5.463   1.333 -0.7010  0.5903  0.9864
  676MOL0     C91134   0.143   5.580   1.300  0.7465 -1.5000 -0.2233
  676MOL0     C91135   0.092   5.663   1.183 -0.1538  0.0619 -0.7102
  676MOL0     C91136  -0.061   5.691   1.188  0.4594  0.7069  0.1432
  676MOL0     C91137  -0.103   5.783   1.302 -1.1617  0.1120 -0.1098
  676MOL0     C91138  -0.248   5.807   1.291 -0.6424  0.6766 -0.4894
  676MOL0     C91139  -0.284   5.932   1.372 -0.9115 -0.9661  0.4953
  676MOL0     C91140  -0.437   5.931   1.393  0.5031 -0.7531 -0.3541
  676MOL0     C91141  -0.479   6.039   1.494  0.0949 -1.0874 -1.0377
  676MOL0     N91142  -0.617   6.070   1.481  0.3336 -0.6062  0.0854
  676MOL0     C91143  -0.684   6.102   1.361  0.9574 -0.1411 -0.1157
  676MOL0     C91144  -0.825   6.099   1.387 -0.8401 -0.1514 -0.2695
  676MOL0     C91145  -0.940   6.134   1.294  0.0098 -0.5766 -0.2356
  676MOL0     C91146  -1.001   6.275   1.339 -0.4627 -0.1825 -1.0185
  676MOL0     C91147  -0.893   6.374   1.389  0.9723  0.1322  0.9328
  676MOL0     C91148  -0.798   6.414   1.278 -0.1743 -0.7948 -0.3611
  676MOL0     O91149  -0.688   6.492   1.331 -0.1779  0.5397 -0.5671
  676MOL0     C91150  -0.573   6.491   1.251  0.3224  0.4098 -0.1007
  676MOL0     C91151  -0.449   6.513   1.316 -0.0116 -0.3539  0.3038
  676MOL0     C91152  -0.330   6.530   1.247 -1.0027  0.0984 -0.0912
  676MOL0     C91153  -0.326   6.530   1.111  0.6618  0.1486  0.3565
  676MOL0     C91154  -0.207   6.542   1.029  0.1542  0.2731 -0.5198
  676MOL0     O91155  -0.202   6.475   0.914  0.1953  0.3792  0.1949
  676MOL0     C91156  -0.083   6.472   0.839  0.2144  0.3317  0.0208
  676MOL0     C91157  -0.099   6.483   0.698  1.1903  0.0925  0.0451
  676MOL0     C91158   0.015   6.484   0.611 -0.0759  0.5015  0.9026
  676MOL0     C91159   0.141   6.484   0.664 -0.2448 -0.6286 -0.8124
  676MOL0     O91160   0.245   6.484   0.580  0.4558 -0.5711  0.7231
  676MOL0     C91161   0.378   6.502   0.619  1.0269 -0.4339  0.2852
  676MOL0     C91162   0.470   6.507   0.500  0.0444 -0.4039  0.0134
  676MOL0     C91163   0.618   6.554   0.520  0.0143  0.0027  0.1682
  676MOL0     C91164   0.692   6.571   0.386  0.5902 -0.4963 -0.4562
  676MOL0     C91165   0.825   6.639   0.382  0.3314 -0.1340 -0.4350
  676MOL0     C91166   0.893   6.609   0.251  0.5220 -0.3533 -0.0074
  676MOL0     C91167   0.837   6.703   0.141 -0.4795 -0.0816  0.8739
  676MOL0     C91168   0.956   6.740   0.053 -0.2957  0.1850  0.0343
  676MOL0    Cl91169   1.063   6.872   0.145 -0.1312  0.0577 -0.1650
  676MOL0     C91170   0.157   6.469   0.806 -0.4752  0.0599  0.1082
  676MOL0     C91171   0.048   6.468   0.887 -0.3978  0.8319 -0.2224
  676MOL0     O91172  -0.115   6.604   1.069 -0.9889  0.8121 -0.2990
  676MOL0     C91173  -0.449   6.521   1.051  0.9455  1.0765  0.6089
  676MOL0     C91174  -0.573   6.495   1.112 -1.1084  0.8260  0.3996
  676MOL0     N91175  -0.830   6.083   1.526  0.4804 -0.1835 -0.0566
  676MOL0     N91176  -0.713   6.065   1.577  0.4155 -0.6035 -0.1126
  676MOL0     C91177   0.105   5.456   1.576  0.2013  0.8467  0.7925
  676MOL0     C91178   0.155   5.373   1.681 -0.0329  0.2743 -0.9238
  676MOL0     C91179   0.445   5.251   1.768  0.6290  1.0080 -0.0747
  676MOL0     C91180   0.517   5.244   1.647 -0.4073  0.3515  0.5716
  676MOL0     C91181   0.599   5.353   1.603  0.1362  0.9710 -0.0328
  676MOL0     C91182   0.606   5.468   1.680  0.8154  0.0643 -0.0702
  676MOL0     O91183   0.701   5.558   1.630  0.4075 -0.7520 -0.0226
  676MOL0     C91184   0.731   5.681   1.706  0.5930  0.2081  0.4854
  676MOL0     C91185   0.624   5.787   1.672  0.3567 -0.0602  1.0622
  676MOL0     C91186   0.645   5.922   1.749 -0.0252  0.7724 -0.6156
  676MOL0     C91187   0.517   6.011   1.765  0.6643 -0.2914 -0.6591
  676MOL0     C91188   0.460   6.048   1.637 -0.0081 -0.5453  0.8778
  676MOL0     C91189   0.413   6.070   1.525 -0.0097  0.4257 -0.1045
  676MOL0     C91190   0.546   5.473   1.806  0.5434  0.8567 -0.1499
  676MOL0     C91191   0.469   5.362   1.852 -0.3855 -0.4212  0.5744
  676MOL0     C91192   0.396   5.389   1.986  0.9435 -0.7409 -0.0016
  676MOL0     H91193   0.169   5.074   1.534 -1.3622  0.5286 -1.9534
  676MOL0     H91194   0.112   5.228   1.321 -0.7339 -0.1083 -1.2153
  676MOL0     H91195   0.134   5.641   1.391 -1.4124  1.1832 -2.0676
  676MOL0     H91196   0.246   5.553   1.276  2.4124  2.8755  1.0820
  676MOL0     H91197   0.130   5.611   1.095  5.0766 -0.5321  1.4800
  676MOL0     H91198   0.147   5.757   1.189  0.5391 -0.3757  0.0714
  676MOL0     H91199  -0.114   5.596   1.198  3.2928 -0.7645  2.4922
  676MOL0     H91200  -0.088   5.741   1.094 -0.1426  0.5744  0.2416
  676MOL0     H91201  -0.074   5.735   1.396 -0.5904  0.6899  0.0194
  676MOL0     H91202  -0.052   5.880   1.291 -0.4332 -0.1357  0.9082
  676MOL0     H91203  -0.276   5.821   1.186  0.0207 -2.3985 -1.1681
  676MOL0     H91204  -0.296   5.719   1.335 -0.1862  1.0909  0.8669
  676MOL0     H91205  -0.239   5.913   1.469  2.0882 -0.4211 -0.6790
  676MOL0     H91206  -0.259   6.028   1.324  3.0093 -2.6733 -1.2688
  676MOL0     H91207  -0.464   5.835   1.437  0.3762  0.7650  3.1387
  676MOL0     H91208  -0.494   5.935   1.300 -0.9211 -2.2908  0.4138
  676MOL0     H91209  -0.450   6.006   1.594  3.0445 -1.3629 -1.8958
  676MOL0     H91210  -0.412   6.125   1.487  1.9742 -2.5826 -2.5911
  676MOL0     H91211  -0.625   6.121   1.271  3.2667 -1.3247  1.0647
  676MOL0     H91212  -0.898   6.154   1.195 -0.3826  1.5361 -0.0220
  676MOL0     H91213  -1.001   6.044   1.305  1.2666 -1.3035  1.1585
  676MOL0     H91214  -1.051   6.329   1.259 -0.5488  1.4840  0.1113
  676MOL0     H91215  -1.071   6.258   1.422  1.4887  0.8563  0.9697
  676MOL0     H91216  -0.830   6.340   1.472  0.2188 -1.2501  0.9811
  676MOL0     H91217  -0.954   6.461   1.413 -2.4818 -1.2032 -2.1170
  676MOL0     H91218  -0.853   6.448   1.190 -2.3292 -2.5775  0.1888
  676MOL0     H91219  -0.755   6.317   1.252  0.9802 -0.4051  0.0598
  676MOL0     H91220  -0.451   6.512   1.424 -0.9652 -0.2922  0.2946
  676MOL0     H91221  -0.231   6.533   1.291 -0.4309 -4.3828 -0.6134
  676MOL0     H91222  -0.198   6.477   0.655  1.3339 -4.2583 -0.0871
  676MOL0     H91223  -0.000   6.486   0.504  2.0064 -2.0243  0.4756
  676MOL0     H91224   0.386   6.592   0.680  0.8619 -1.3820  1.7653
  676MOL0     H91225   0.403   6.414   0.679 -0.0359 -2.7835 -2.4834
  676MOL0     H91226   0.470   6.412   0.444  3.7676 -1.5174  1.5951
  676MOL0     H91227   0.427   6.574   0.425  0.3656 -2.1730 -1.8466
  676MOL0     H91228   0.606   6.644   0.582 -5.1261  0.1811 -0.7035
  676MOL0     H91229   0.677   6.483   0.580  0.8388 -0.0957 -0.7273
  676MOL0     H91230   0.622   6.623   0.320 -0.3496 -4.5426 -3.0448
  676MOL0     H91231   0.699   6.468   0.349 -4.1055 -1.1885  0.0489
  676MOL0     H91232   0.896   6.601   0.456  0.2799  3.3404  1.6196
  676MOL0     H91233   0.797   6.742   0.405 -2.5435  0.5378 -5.4841
  676MOL0     H91234   1.002   6.623   0.256  1.4572 -5.5173 -0.8755
  676MOL0     H91235   0.887   6.502   0.231  0.5297 -1.0602  3.2829
  676MOL0     H91236   0.790   6.788   0.190 -1.5045 -0.2867  0.2787
  676MOL0     H91237   0.763   6.643   0.088 -0.0741 -1.1511  1.4725
  676MOL0     H91238   1.009   6.646   0.038 -0.5070  0.3131 -1.6666
  676MOL0     H91239   0.913   6.782  -0.038 -2.8431  1.6434  1.7795
  676MOL0     H91240   0.260   6.469   0.841 -1.5758  0.1462  3.8087
  676MOL0     H91241   0.061   6.450   0.994  0.1188 -1.6693 -0.6431
  676MOL0     H91242  -0.442   6.543   0.944  0.7726  0.2385  0.4167
  676MOL0     H91243  -0.657   6.510   1.044  0.9616  2.8604 -1.9265
  676MOL0     H91244   0.083   5.560   1.597  2.4027  1.1054  2.1167
  676MOL0     H91245   0.176   5.409   1.781 -0.7025  0.2538 -0.7729
  676MOL0     H91246   0.522   5.156   1.584 -1.5199  2.3224 -2.4852
  676MOL0     H91247   0.666   5.333   1.520 -4.8039  0.8498 -4.5453
  676MOL0     H91248   0.832   5.716   1.681  1.7458 -3.2082 -0.2113
  676MOL0     H91249   0.732   5.661   1.813 -1.1012  0.6090  0.5953
  676MOL0     H91250   0.522   5.753   1.693 -2.1432  1.1386 -6.3422
  676MOL0     H91251   0.605   5.799   1.565  0.7820  0.2119  1.0134
  676MOL0     H91252   0.727   5.978   1.703  0.2573 -0.8216 -2.1678
  676MOL0     H91253   0.679   5.895   1.850  1.4585  1.1393 -1.0046
  676MOL0     H91254   0.440   5.957   1.822  0.0409  1.2867  0.0398
  676MOL0     H91255   0.536   6.102   1.823  1.0745  0.1898 -1.5375
  676MOL0     H91256   0.382   6.069   1.422  4.5891 -0.8390 -1.7305
  676MOL0     H91257   0.562   5.563   1.866  1.0183  1.8918 -1.7625
  676MOL0     H91258   0.376   5.495   2.004  0.8665 -1.0023  1.6020
  676MOL0     H91259   0.293   5.351   1.987 -0.2702  2.0242 -3.2793
  676MOL0     H91260   0.442   5.350   2.078 -0.4732 -2.0032  0.2092
  677MOL0     O91261  10.131   2.196   7.788 -0.2362  1.3065 -0.5848
  677MOL0     C91262  10.231   2.143   7.832  0.0409 -0.3506 -0.0438
  677MOL0     O91263  10.239   2.089   7.955 -0.6886 -0.0789  0.4288
  677MOL0     C91264  10.130   2.114   8.037 -0.6201  0.5096 -0.3931
  677MOL0     C91265  10.008   2.051   8.018  0.1636 -0.3922  0.4907
  677MOL0     C91266   9.899   2.068   8.105  0.6253  0.5324  0.2631
  677MOL0     C91267   9.898   2.164   8.210 -0.8609 -0.2490  0.0397
  677MOL0     O91268   9.805   2.175   8.313 -0.8139 -0.6643 -0.0140
  677MOL0     C91269   9.722   2.070   8.350  0.1089  0.2036  0.3220
  677MOL0     C91270   9.692   2.085   8.504 -0.1290  0.9588 -0.8407
  677MOL0     C91271   9.592   1.977   8.569 -0.8225 -0.3647  0.6229
  677MOL0     C91272   9.454   1.981   8.489  0.0000 -1.0956 -0.4617
  677MOL0     C91273   9.420   1.844   8.452  0.4988 -0.0884 -0.9383
  677MOL0     C91274   9.285   1.840   8.378 -0.2244  0.6807  0.1972
  677MOL0     C91275   9.230   1.687   8.381 -0.1572 -1.0085  0.8440
  677MOL0     C91276   9.095   1.688   8.311  0.2541  0.0254  0.4538
  677MOL0     N91277   9.063   1.557   8.245  0.7119  0.1674  0.2432
  677MOL0     C91278   9.130   1.492   8.152 -0.1458  0.4850  0.4183
  677MOL0     C91279   9.074   1.366   8.125  0.3297 -1.4939 -0.6777
  677MOL0     C91280   9.117   1.270   8.017  0.4289  0.1876  1.1022
  677MOL0     C91281   9.048   1.144   8.030 -0.6240  0.8719 -0.2114
  677MOL0     C91282   9.075   1.058   8.156 -0.0467 -0.0567  0.6987
  677MOL0     C91283   9.020   0.919   8.159  0.6011  0.1946  0.3745
  677MOL0     O91284   9.079   0.843   8.270 -0.5779 -0.2742 -0.7012
  677MOL0     C91285   8.987   0.765   8.341 -0.7045  0.5216 -0.0488
  677MOL0     C91286   8.946   0.636   8.305  0.9057  1.5966 -0.6551
  677MOL0     C91287   8.851   0.572   8.377  0.5665 -0.0025  0.1636
  677MOL0     C91288   8.789   0.627   8.487 -0.6968 -0.7709  0.4302
  677MOL0     C91289   8.693   0.552   8.564 -0.7887 -0.1789 -0.6504
  677MOL0     O91290   8.624   0.620   8.662 -0.0167 -0.5491 -0.2613
  677MOL0     C91291   8.543   0.534   8.735  0.0013  0.1793 -0.3380
  677MOL0     C91292   8.416   0.496   8.698  0.4983  0.1501  0.7125
  677MOL0     C91293   8.340   0.403   8.772 -0.7172  0.0626  0.4059
  677MOL0     C91294   8.384   0.335   8.878 -0.5159  0.0161  0.1952
  677MOL0     O91295   8.297   0.240   8.918  0.3638  0.8837 -1.0365
  677MOL0     C91296   8.335   0.149   9.030  0.1159 -0.3188  0.0385
  677MOL0     C91297   8.272   0.005   9.015  0.2988 -0.2187 -0.5366
  677MOL0     C91298   8.128  -0.019   9.049  0.4662  0.2891 -0.0311
  677MOL0     C91299   8.026   0.073   8.970  0.7224  0.9701 -0.3299
  677MOL0     C91300   8.045   0.046   8.817 -0.3393  0.8828 -1.2675
  677MOL0     C91301   7.985   0.170   8.740 -0.1767 -0.1542  1.8445
  677MOL0     C91302   8.048   0.178   8.605 -0.1348 -0.3332 -0.0836
  677MOL0     C91303   7.992   0.312   8.552  0.7271  0.1973  0.5454
  677MOL0    Cl91304   8.050   0.306   8.385 -0.0183 -0.1846 -0.3019
  677MOL0     C91305   8.513   0.379   8.929  0.0242 -0.6316  0.8790
  677MOL0     C91306   8.593   0.474   8.856 -0.3054  0.1247  0.2150
  677MOL0     O91307   8.666   0.438   8.524 -0.4353 -0.7538  0.1702
  677MOL0     C91308   8.825   0.758   8.518  1.0999 -0.2170  0.0184
  677MOL0     C91309   8.918   0.834   8.440  0.3150  0.1120 -0.3225
  677MOL0     N91310   8.990   1.341   8.231  0.9388  0.8585  0.1344
  677MOL0     N91311   8.981   1.460   8.295 -0.1979  0.8686  0.7536
  677MOL0     C91312  10.023   2.230   8.229  1.2430  0.0488 -0.4598
  677MOL0     C91313  10.135   2.207   8.140 -0.1171  0.2319 -1.2783
  677MOL0     C91314  10.356   2.143   7.751 -0.3978  0.7688  0.4143
  677MOL0     C91315  10.446   2.030   7.771 -0.7093 -0.2115 -0.2189
  677MOL0     C91316  10.568   2.030   7.705 -0.0528  0.5707  0.1637
  677MOL0     C91317  10.622   2.138   7.635  0.3959 -0.2388 -0.3903
  677MOL0     O91318  10.746   2.141   7.575 -0.2400  0.6103 -0.0198
  677MOL0     C91319  10.826   2.255   7.620  0.5840  0.2548  0.0968
  677MOL0     C91320  10.977   2.252   7.612 -0.6496 -1.0973  1.0708
  677MOL0     C91321  11.025   2.172   7.498  0.4087  0.4520  0.0591
  677MOL0     C91322  11.013   2.237   7.369 -0.0460 -0.1709 -0.4438
  677MOL0     C91323  11.117   2.339   7.349 -0.4050 -0.2095 -0.3846
  677MOL0     C91324  11.195   2.424   7.304 -0.3811 -0.3116  0.4684
  677MOL0     C91325  10.533   2.248   7.612  0.1295 -0.1810  0.7108
  677MOL0     C91326  10.394   2.240   7.659 -0.1652 -0.6796  0.4045
  677MOL0     C91327  10.301   2.354   7.617 -0.1638  0.2170 -0.5334
  677MOL0     H91328   9.995   1.980   7.937 -0.1631  1.0014 -0.7238
  677MOL0     H91329   9.807   2.014   8.085 -1.3104  1.9779  4.1286
  677MOL0     H91330   9.640   2.068   8.277 -0.0362  2.6179  0.3514
  677MOL0     H91331   9.784   1.980   8.338  1.8191  1.3478  0.1948
  677MOL0     H91332   9.643   2.179   8.531  0.0861  0.0173  3.6218
  677MOL0     H91333   9.790   2.089   8.553  2.8308 -1.4399 -5.7850
  677MOL0     H91334   9.578   1.993   8.676 -2.2076 -1.5148  0.6530
  677MOL0     H91335   9.634   1.877   8.558 -0.4322 -0.0316 -1.2767
  677MOL0     H91336   9.377   2.033   8.547  0.9328  1.4802 -1.4032
  677MOL0     H91337   9.464   2.044   8.399  2.3395 -0.9708 -0.1819
  677MOL0     H91338   9.503   1.808   8.390 -0.8804 -4.4945 -0.5623
  677MOL0     H91339   9.414   1.780   8.541 -0.0304 -1.5143 -1.9620
  677MOL0     H91340   9.216   1.910   8.427  1.1817  1.9561  0.3979
  677MOL0     H91341   9.309   1.864   8.274  1.4532 -1.7167 -0.0435
  677MOL0     H91342   9.217   1.641   8.479 -1.2943 -0.0300  1.1677
  677MOL0     H91343   9.303   1.630   8.322  1.0288  0.6083  0.6752
  677MOL0     H91344   9.023   1.728   8.383 -1.8186 -1.2517 -0.8190
  677MOL0     H91345   9.106   1.759   8.229  1.2768  0.9120  1.3187
  677MOL0     H91346   9.218   1.530   8.100  0.8639 -1.2756  0.7669
  677MOL0     H91347   9.090   1.318   7.923 -2.7762 -0.3856  1.6150
  677MOL0     H91348   9.225   1.252   8.019  0.0266 -2.7883  0.6125
  677MOL0     H91349   8.941   1.164   8.021 -0.5164  0.7426 -6.2801
  677MOL0     H91350   9.066   1.081   7.942 -1.3675 -1.6798  1.3530
  677MOL0     H91351   9.032   1.101   8.247  2.0969  1.2887  1.1450
  677MOL0     H91352   9.181   1.035   8.165  0.2462  0.4653 -0.9914
  677MOL0     H91353   9.043   0.869   8.064  0.9705 -0.5089  0.8208
  677MOL0     H91354   8.911   0.917   8.160  0.5707  1.2817 -0.1426
  677MOL0     H91355   8.988   0.590   8.216 -4.9150 -3.0327 -1.6692
  677MOL0     H91356   8.820   0.471   8.351  0.3837  0.0626  0.1224
  677MOL0     H91357   8.361   0.539   8.615 -1.2659 -2.7144  0.2434
  677MOL0     H91358   8.239   0.381   8.741 -0.5994 -0.9068  0.6754
  677MOL0     H91359   8.443   0.136   9.036  0.4672  0.0533 -3.5107
  677MOL0     H91360   8.312   0.189   9.130 -1.3677  2.5998 -1.3511
  677MOL0     H91361   8.295  -0.035   8.916 -0.2973 -2.2666  0.0939
  677MOL0     H91362   8.331  -0.062   9.079 -1.2162  0.5378  1.7728
  677MOL0     H91363   8.106  -0.120   9.015 -0.8976  0.8238 -0.8364
  677MOL0     H91364   8.099  -0.022   9.154 -3.1725  1.1635 -0.8602
  677MOL0     H91365   8.043   0.180   8.984 -1.8684  1.6412 -1.6584
  677MOL0     H91366   7.924   0.054   9.004  0.9263  0.6208  0.0952
  677MOL0     H91367   8.008  -0.054   8.792  0.1512 -0.0157  1.2854
  677MOL0     H91368   8.152   0.051   8.796  1.6746 -2.6739  5.2498
  677MOL0     H91369   7.881   0.142   8.721  0.4847 -0.9388 -1.2642
  677MOL0     H91370   8.004   0.261   8.798  2.9104 -1.2213  2.7200
  677MOL0     H91371   8.027   0.093   8.539  1.4791 -1.3743  0.6825
  677MOL0     H91372   8.157   0.188   8.604  0.0785 -1.9496 -2.1504
  677MOL0     H91373   7.884   0.328   8.547  1.1170  2.9068 -0.8943
  677MOL0     H91374   8.045   0.400   8.589  0.4370  1.1057 -1.0995
  677MOL0     H91375   8.556   0.336   9.018 -0.0789 -0.3946  1.0424
  677MOL0     H91376   8.696   0.496   8.880  0.0220 -0.2411 -0.8044
  677MOL0     H91377   8.768   0.802   8.598 -1.6684 -0.3640 -1.7469
  677MOL0     H91378   8.926   0.940   8.463  1.6340 -0.1725  0.6392
  677MOL0     H91379  10.036   2.300   8.311 -1.3845 -1.4290  1.3778
  677MOL0     H91380  10.224   2.263   8.166  1.2129 -1.2203 -2.4219
  677MOL0     H91381  10.429   1.953   7.845  0.7301  0.9592  1.4042
  677MOL0     H91382  10.627   1.939   7.716 -1.0808 -0.4921 -2.3412
  677MOL0     H91383  10.804   2.278   7.725  4.7398 -1.5550  1.5912
  677MOL0     H91384  10.794   2.339   7.558  3.1366  1.2167 -0.0508
  677MOL0     H91385  11.025   2.217   7.703 -2.8267 -0.5062  2.5326
  677MOL0     H91386  11.019   2.350   7.591 -1.2813 -1.1020 -0.3585
  677MOL0     H91387  10.981   2.072   7.501 -0.4901  0.8326  2.7664
  677MOL0     H91388  11.131   2.158   7.522  0.7437  0.6472 -1.2273
  677MOL0     H91389  11.023   2.164   7.288 -1.9042 -0.2053 -0.6950
  677MOL0     H91390  10.908   2.270   7.373 -0.2304 -0.6886 -0.9222
  677MOL0     H91391  11.245   2.510   7.265 -3.4984  1.2556 -0.4440
  677MOL0     H91392  10.569   2.324   7.544 -1.8114  0.1749  0.0378
  677MOL0     H91393  10.282   2.417   7.704  1.1596 -0.6748  0.4439
  677MOL0     H91394  10.340   2.426   7.544  0.1970  0.3048 -0.2585
  677MOL0     H91395  10.201   2.321   7.587 -2.0788  3.0781  2.0733
  678MOL0     O91396   5.146   9.478   1.928 -0.2554  0.4570  1.2360
  678MOL0     C91397   5.076   9.578   1.957  0.6414 -0.4126  1.1923
  678MOL0     O91398   5.073   9.699   1.889  0.4994 -0.3069 -0.4996
  678MOL0     C91399   5.148   9.721   1.771  0.3348 -0.6591 -0.7645
  678MOL0     C91400   5.083   9.812   1.692  0.3652  0.6505 -0.0621
  678MOL0     C91401   5.129   9.836   1.563  0.7799 -0.5277  0.7951
  678MOL0     C91402   5.234   9.772   1.498 -0.2228  0.0457  0.1428
  678MOL0     O91403   5.257   9.790   1.361 -0.1844 -0.0515 -0.0657
  678MOL0     C91404   5.309   9.672   1.287  0.2591  0.0141  0.1997
  678MOL0     C91405   5.246   9.637   1.147 -0.2420  1.0171 -0.4540
  678MOL0     C91406   5.111   9.714   1.125  0.1018 -0.8328  0.1458
  678MOL0     C91407   5.016   9.656   1.013 -0.5334  0.9042  0.8072
  678MOL0     C91408   4.875   9.630   1.048  0.1166  0.5063 -0.9430
  678MOL0     C91409   4.796   9.574   0.934  0.3577  0.0200 -0.4511
  678MOL0     C91410   4.653   9.543   0.985  0.5399 -0.2054 -0.2157
  678MOL0     C91411   4.627   9.399   1.013 -0.1458  0.1164  0.0503
  678MOL0     N91412   4.615   9.315   0.893  0.1820  1.0883 -0.2738
  678MOL0     C91413   4.706   9.219   0.856 -0.8348 -0.6396 -0.4780
  678MOL0     C91414   4.651   9.160   0.745  0.2535 -0.6160 -0.6345
  678MOL0     C91415   4.710   9.061   0.650 -0.1261 -0.2246  0.4767
  678MOL0     C91416   4.838   9.122   0.577 -0.0094  0.6711  0.2964
  678MOL0     C91417   4.929   9.025   0.515 -0.4015 -0.3321  1.5465
  678MOL0     C91418   4.854   8.933   0.413  0.3743 -0.1496 -1.1028
  678MOL0     O91419   4.855   8.996   0.282  0.2315  0.7602  0.9283
  678MOL0     C91420   4.892   8.920   0.175  1.0406  0.1822  0.1658
  678MOL0     C91421   4.965   8.993   0.079  0.1115 -0.5521 -0.4806
  678MOL0     C91422   5.010   8.942  -0.039  0.0518  0.0971  0.5507
  678MOL0     C91423   4.984   8.813  -0.073 -0.4485 -0.1673 -0.4126
  678MOL0     C91424   5.033   8.763  -0.204  0.3544  0.2031 -0.2263
  678MOL0     O91425   5.115   8.843  -0.281  0.2039  0.6569 -0.8278
  678MOL0     C91426   5.159   8.796  -0.404 -0.7464 -0.4130  0.7047
  678MOL0     C91427   5.203   8.667  -0.413 -0.1074  0.1636  0.0534
  678MOL0     C91428   5.226   8.618  -0.540  1.0566 -0.8226  0.1717
  678MOL0     C91429   5.218   8.700  -0.646 -0.2414 -0.3520  0.9750
  678MOL0     O91430   5.258   8.654  -0.776  0.0751  0.2075 -0.1435
  678MOL0     C91431   5.252   8.513  -0.811  0.3402  0.2158 -0.7775
  678MOL0     C91432   5.282   8.492  -0.956  0.3232 -0.0571  0.5418
  678MOL0     C91433   5.423   8.545  -0.981 -0.5819 -0.4840  0.3384
  678MOL0     C91434   5.506   8.511  -1.104  0.0105  0.1440  0.2286
  678MOL0     C91435   5.571   8.373  -1.089  0.3967  1.2863  0.1374
  678MOL0     C91436   5.642   8.324  -1.221  0.5955 -0.8580 -0.4640
  678MOL0     C91437   5.753   8.227  -1.181  1.0474  0.9410  0.1611
  678MOL0     C91438   5.887   8.291  -1.133 -0.0965 -0.4426  0.4176
  678MOL0    Cl91439   5.990   8.351  -1.270  0.4468  0.2525  0.2585
  678MOL0     C91440   5.181   8.829  -0.640 -0.0959 -0.8727  0.3182
  678MOL0     C91441   5.152   8.889  -0.515 -0.1083  0.2043  0.1855
  678MOL0     O91442   4.995   8.653  -0.231  0.0096  0.3128 -0.9310
  678MOL0     C91443   4.920   8.734   0.026 -0.3383  1.0341 -0.7920
  678MOL0     C91444   4.866   8.783   0.147  0.0178 -0.4034 -0.1858
  678MOL0     N91445   4.525   9.221   0.728 -0.3387  0.1217 -0.8581
  678MOL0     N91446   4.510   9.313   0.815  0.1425 -0.8249  0.0610
  678MOL0     C91447   5.307   9.685   1.583 -0.6067 -0.7177 -0.5031
  678MOL0     C91448   5.263   9.656   1.714 -0.4029 -0.9655  0.6164
  678MOL0     C91449   4.969   9.562   2.065  0.8085  0.3077 -0.2213
  678MOL0     C91450   4.898   9.671   2.101  0.3479 -0.0774 -1.0555
  678MOL0     C91451   4.801   9.671   2.199 -0.6934  0.4442 -0.5475
  678MOL0     C91452   4.773   9.553   2.266 -0.0320 -0.5582 -0.8570
  678MOL0     O91453   4.676   9.565   2.359 -1.1903  0.3810  0.3184
  678MOL0     C91454   4.660   9.472   2.463 -0.6905 -0.1925  0.2918
  678MOL0     C91455   4.616   9.544   2.591 -0.6260  1.2775 -0.2871
  678MOL0     C91456   4.476   9.601   2.583 -1.4376 -0.2081 -0.2796
  678MOL0     C91457   4.375   9.497   2.644  0.1415 -0.7812 -0.1531
  678MOL0     C91458   4.379   9.360   2.601  0.2289  0.0769  0.7835
  678MOL0     C91459   4.375   9.239   2.570 -0.4938 -0.1449 -0.6211
  678MOL0     C91460   4.854   9.437   2.245  0.9939  1.7068  0.3356
  678MOL0     C91461   4.948   9.439   2.141  0.1819 -0.3346 -0.1342
  678MOL0     C91462   5.010   9.299   2.118  0.1524  0.0531 -0.1785
  678MOL0     H91463   5.000   9.877   1.718  0.7529  1.3014 -0.4378
  678MOL0     H91464   5.074   9.912   1.508 -1.4308 -4.5178 -3.2050
  678MOL0     H91465   5.409   9.704   1.258  0.6620 -1.8224 -0.5768
  678MOL0     H91466   5.309   9.579   1.344 -2.3692 -0.7804 -0.9220
  678MOL0     H91467   5.213   9.533   1.154 -1.4118  1.4148  0.2387
  678MOL0     H91468   5.316   9.646   1.064  0.0417  0.8971 -0.2300
  678MOL0     H91469   5.130   9.818   1.097  1.3299 -0.4751  2.0649
  678MOL0     H91470   5.057   9.725   1.219 -0.8786  0.4786 -0.5425
  678MOL0     H91471   5.018   9.724   0.927 -0.0594 -0.1388 -0.0246
  678MOL0     H91472   5.048   9.555   0.987  0.2769  1.6286 -1.2475
  678MOL0     H91473   4.866   9.545   1.117 -0.2507  0.7044 -0.7400
  678MOL0     H91474   4.835   9.721   1.094  0.2018  0.6852 -1.2239
  678MOL0     H91475   4.795   9.641   0.848  0.1916 -0.6504 -0.9813
  678MOL0     H91476   4.841   9.479   0.903 -0.5879 -0.1274 -1.4193
  678MOL0     H91477   4.576   9.581   0.917  0.2096  0.5092  0.5351
  678MOL0     H91478   4.628   9.593   1.079  1.5732 -1.6480  0.8670
  678MOL0     H91479   4.696   9.368   1.092 -1.3957  0.9281  1.5011
  678MOL0     H91480   4.528   9.395   1.059 -0.4696  2.3997 -0.3252
  678MOL0     H91481   4.800   9.200   0.907 -0.9105 -0.2197 -0.1708
  678MOL0     H91482   4.739   8.966   0.697 -1.0904 -1.5506 -1.4900
  678MOL0     H91483   4.649   9.037   0.563  1.4311  0.6919 -0.9365
  678MOL0     H91484   4.795   9.187   0.500 -0.4776 -0.8184 -0.7614
  678MOL0     H91485   4.893   9.189   0.644 -0.5093  1.1890  0.1940
  678MOL0     H91486   4.981   8.960   0.586  1.0448 -0.7341  0.1700
  678MOL0     H91487   5.012   9.076   0.465 -1.2617  0.8504  1.2849
  678MOL0     H91488   4.752   8.910   0.444  0.6632 -0.2769 -0.2308
  678MOL0     H91489   4.896   8.832   0.409  0.3670 -0.4996  3.1308
  678MOL0     H91490   5.011   9.090   0.094  1.4118 -0.8463 -2.2382
  678MOL0     H91491   5.074   9.005  -0.100  1.2447 -1.6584 -0.0859
  678MOL0     H91492   5.221   8.598  -0.330  1.0524  1.4265  0.8803
  678MOL0     H91493   5.250   8.513  -0.557  2.3105 -0.2080 -2.4037
  678MOL0     H91494   5.309   8.451  -0.742 -1.7500 -2.6438 -1.4271
  678MOL0     H91495   5.147   8.486  -0.796  1.1901 -3.6780 -0.8396
  678MOL0     H91496   5.266   8.388  -0.988 -1.2713  0.1166  0.6850
  678MOL0     H91497   5.218   8.558  -1.016  0.9480  1.0890  1.1100
  678MOL0     H91498   5.402   8.652  -0.992  0.5698 -0.4317 -1.8823
  678MOL0     H91499   5.489   8.523  -0.897  1.8856 -0.8508 -1.5697
  678MOL0     H91500   5.583   8.583  -1.135 -0.7414  0.8949  0.0720
  678MOL0     H91501   5.431   8.518  -1.184 -0.1679  0.3212  0.4100
  678MOL0     H91502   5.491   8.302  -1.063 -1.6686  3.2780 -0.3774
  678MOL0     H91503   5.641   8.382  -1.006  0.3785  5.3655 -0.1034
  678MOL0     H91504   5.566   8.286  -1.290 -1.9861 -1.2010  2.3353
  678MOL0     H91505   5.689   8.408  -1.272  0.7149  0.2392  1.3569
  678MOL0     H91506   5.769   8.158  -1.264  0.4659  3.2593 -1.9869
  678MOL0     H91507   5.714   8.165  -1.099 -0.3559  2.5249  0.7396
  678MOL0     H91508   5.869   8.373  -1.063 -0.7786 -1.0333  0.9491
  678MOL0     H91509   5.936   8.211  -1.078 -0.2806 -0.3290  0.7472
  678MOL0     H91510   5.184   8.903  -0.720  1.0037  0.1955  1.3133
  678MOL0     H91511   5.111   8.990  -0.509  2.6368  1.4998 -1.1788
  678MOL0     H91512   4.912   8.629  -0.001  1.0683 -0.0052  2.3866
  678MOL0     H91513   4.809   8.722   0.216  0.9538  1.2727  2.1989
  678MOL0     H91514   5.382   9.623   1.536  0.3127  1.4270 -2.0420
  678MOL0     H91515   5.329   9.597   1.776  2.8961  2.1540  0.4165
  678MOL0     H91516   4.908   9.767   2.051 -3.1207  0.1990 -1.4709
  678MOL0     H91517   4.749   9.761   2.230  0.4423  0.1391  2.6225
  678MOL0     H91518   4.754   9.423   2.490 -1.2368 -1.2250  0.3465
  678MOL0     H91519   4.594   9.394   2.425  0.7308 -2.4404  2.1671
  678MOL0     H91520   4.685   9.626   2.610  0.7743  0.6207 -2.2319
  678MOL0     H91521   4.614   9.467   2.670 -0.3582  1.9093  0.3441
  678MOL0     H91522   4.439   9.623   2.482 -0.9758  0.9240 -0.2270
  678MOL0     H91523   4.478   9.693   2.643 -0.6077 -2.3201  3.1981
  678MOL0     H91524   4.380   9.497   2.754 -0.4712 -0.4977 -0.1198
  678MOL0     H91525   4.280   9.542   2.615  0.3286 -1.0747 -1.2544
  678MOL0     H91526   4.380   9.135   2.542 -0.5781 -1.0022  2.2517
  678MOL0     H91527   4.834   9.351   2.307  0.0806  1.6682  0.0048
  678MOL0     H91528   5.042   9.285   2.014 -0.1322  2.3690 -0.6293
  678MOL0     H91529   5.099   9.302   2.183 -1.5386  1.6483  2.2626
  678MOL0     H91530   4.939   9.221   2.146 -1.5293  1.8208  0.7194
  679MOL0     O91531   4.570   6.911   9.738 -1.5129 -0.2024 -0.9396
  679MOL0     C91532   4.625   7.007   9.796  0.2092  0.0020  1.4452
  679MOL0     O91533   4.566   7.097   9.872  0.7240 -0.5787 -0.1752
  679MOL0     C91534   4.433   7.076   9.921  0.1875  0.5553  0.1255
  679MOL0     C91535   4.360   6.959   9.941 -0.0263  1.1459 -0.6185
  679MOL0     C91536   4.235   6.970  10.010 -0.2068  0.7305 -0.4370
  679MOL0     C91537   4.189   7.093  10.040  0.0148 -0.2484 -0.6148
  679MOL0     O91538   4.060   7.106  10.086 -0.3410  0.4956 -0.4765
  679MOL0     C91539   3.957   7.121   9.985  0.5600 -0.1017 -0.5773
  679MOL0     C91540   3.890   6.986   9.940  0.5284 -0.0624 -0.5759
  679MOL0     C91541   3.790   6.920  10.039  0.2635 -0.7004 -0.1820
  679MOL0     C91542   3.767   6.772  10.029 -0.7942 -0.2599 -0.0576
  679MOL0     C91543   3.658   6.742   9.926 -0.0449  1.2564  0.5162
  679MOL0     C91544   3.651   6.593   9.893 -0.3565  0.4810 -0.2439
  679MOL0     C91545   3.539   6.557   9.801  0.7175  0.3203 -0.0732
  679MOL0     C91546   3.390   6.604   9.830 -0.4113  0.3496 -0.1038
  679MOL0     N91547   3.323   6.528   9.942 -0.2454  0.1759  0.5388
  679MOL0     C91548   3.286   6.595  10.056 -0.3916  0.1402 -0.9451
  679MOL0     C91549   3.235   6.493  10.125  0.3017  0.3561 -0.2176
  679MOL0     C91550   3.162   6.513  10.258  0.2388  0.3600 -0.2873
  679MOL0     C91551   3.246   6.550  10.380 -0.3469 -0.6547 -0.2394
  679MOL0     C91552   3.284   6.700  10.378 -0.2593 -0.6454 -2.3574
  679MOL0     C91553   3.381   6.730  10.490  0.0038 -0.6484  0.1071
  679MOL0     O91554   3.516   6.711  10.448  0.2805  0.9440 -0.5183
  679MOL0     C91555   3.600   6.647  10.528  0.1595  0.9017 -0.0286
  679MOL0     C91556   3.571   6.543  10.621 -0.3504  0.0808 -1.2303
  679MOL0     C91557   3.666   6.493  10.705  0.5284 -0.2158  0.3824
  679MOL0     C91558   3.806   6.513  10.675 -0.2768  0.0817 -0.4974
  679MOL0     C91559   3.913   6.436  10.730 -0.1732  0.1320 -0.1116
  679MOL0     O91560   4.042   6.489  10.698 -0.7950  0.6772  0.2383
  679MOL0     C91561   4.145   6.395  10.699 -0.0765 -1.4532 -1.0426
  679MOL0     C91562   4.248   6.404  10.795  0.0671 -0.4030  0.5810
  679MOL0     C91563   4.352   6.321  10.776 -1.0484  0.0191 -0.4640
  679MOL0     C91564   4.367   6.237  10.666  0.8642  0.3921  0.5268
  679MOL0     O91565   4.476   6.153  10.647  0.3509  0.6599  0.4447
  679MOL0     C91566   4.526   6.089  10.762  0.0103 -0.2871 -0.3678
  679MOL0     C91567   4.662   6.148  10.809  0.0010  0.6011 -0.3783
  679MOL0     C91568   4.784   6.114  10.709  0.3358  0.3318  0.2507
  679MOL0     C91569   4.846   5.969  10.743 -0.7962 -0.4906 -0.3476
  679MOL0     C91570   4.953   5.924  10.639  0.7785 -0.3290 -0.3083
  679MOL0     C91571   5.062   6.023  10.633  0.6210 -0.6832 -0.7135
  679MOL0     C91572   5.177   5.958  10.560 -0.6552 -0.3640  0.1377
  679MOL0     C91573   5.283   6.056  10.547 -1.4773 -0.9070  0.0226
  679MOL0    Cl91574   5.411   6.000  10.439 -0.0442 -0.0468 -0.2419
  679MOL0     C91575   4.265   6.226  10.579  0.4875  0.8122  0.0274
  679MOL0     C91576   4.153   6.304  10.597  0.2469  0.4062 -0.0737
  679MOL0     O91577   3.893   6.331  10.799  0.0936  0.4652  0.4060
  679MOL0     C91578   3.842   6.613  10.579 -0.5432 -0.3736  0.5229
  679MOL0     C91579   3.737   6.684  10.507 -0.1197 -0.3892 -0.1682
  679MOL0     N91580   3.245   6.368  10.064 -0.5999 -0.8339  0.0625
  679MOL0     N91581   3.295   6.398   9.953 -0.3289  0.6832 -0.3141
  679MOL0     C91582   4.265   7.215  10.023  0.1035 -0.4266  0.1052
  679MOL0     C91583   4.392   7.194   9.967  0.7817  0.2733 -0.1352
  679MOL0     C91584   4.758   7.049   9.754  0.0127  0.3757  0.1409
  679MOL0     C91585   4.799   7.178   9.786  0.5518  0.4594 -0.0440
  679MOL0     C91586   4.935   7.210   9.767 -0.0033  0.1081 -0.8451
  679MOL0     C91587   5.027   7.126   9.709  0.1656  1.3543  0.2015
  679MOL0     O91588   5.161   7.159   9.661  0.0854 -0.3370 -1.2345
  679MOL0     C91589   5.200   7.298   9.690 -0.2758 -0.5069 -0.7820
  679MOL0     C91590   5.346   7.331   9.645  0.1520 -0.0018  0.3864
  679MOL0     C91591   5.349   7.379   9.499  0.3272 -0.1538 -1.0168
  679MOL0     C91592   5.481   7.351   9.417  0.1295  0.2837 -0.8423
  679MOL0     C91593   5.527   7.215   9.433  0.5399 -0.7383  0.1237
  679MOL0     C91594   5.566   7.099   9.433 -0.5059 -0.5578 -0.0233
  679MOL0     C91595   4.989   6.995   9.679  0.5367  0.7148  0.1630
  679MOL0     C91596   4.856   6.962   9.697  0.3011  1.3706  0.1891
  679MOL0     C91597   4.814   6.818   9.652  1.1271 -0.2069 -0.5748
  679MOL0     H91598   4.389   6.858   9.915 -3.9730  0.2441 -2.1695
  679MOL0     H91599   4.169   6.887  10.034 -0.0812  0.4521 -1.0441
  679MOL0     H91600   3.879   7.189  10.021  0.4715 -1.8000  2.8344
  679MOL0     H91601   3.994   7.165   9.892  0.2083  0.9192 -0.2502
  679MOL0     H91602   3.970   6.914   9.922  0.9498  0.4052 -0.6116
  679MOL0     H91603   3.829   6.990   9.850  0.3371  1.2011 -0.4127
  679MOL0     H91604   3.688   6.960  10.032  1.6657  2.9283 -2.6665
  679MOL0     H91605   3.822   6.932  10.143 -1.7212 -2.3642  0.6882
  679MOL0     H91606   3.862   6.720  10.016 -0.6362 -0.5507  1.9648
  679MOL0     H91607   3.735   6.731  10.125 -1.3100 -0.1718 -0.1887
  679MOL0     H91608   3.556   6.769   9.953 -0.2406  1.9547 -0.8280
  679MOL0     H91609   3.672   6.784   9.826  0.5308 -2.7918 -1.3094
  679MOL0     H91610   3.729   6.562   9.823 -3.9922  0.1695 -4.6064
  679MOL0     H91611   3.664   6.536   9.985  0.7334  3.3471  1.5323
  679MOL0     H91612   3.540   6.448   9.796 -0.3208  0.3477 -1.3285
  679MOL0     H91613   3.549   6.606   9.704 -3.9559  0.0617 -0.9335
  679MOL0     H91614   3.388   6.713   9.836 -2.7589  0.2967  1.0328
  679MOL0     H91615   3.347   6.572   9.735 -0.1909 -0.8292  0.1752
  679MOL0     H91616   3.273   6.701  10.079 -0.4162  0.7121 -3.3377
  679MOL0     H91617   3.081   6.584  10.246  1.9462  2.0337 -3.0245
  679MOL0     H91618   3.111   6.418  10.280  0.9538 -0.2924 -1.3250
  679MOL0     H91619   3.189   6.523  10.469  1.2248 -1.9690  0.4188
  679MOL0     H91620   3.344   6.500  10.381 -0.7553 -1.4562  0.3404
  679MOL0     H91621   3.192   6.757  10.397 -0.9231 -2.4150  0.2824
  679MOL0     H91622   3.325   6.736  10.283 -0.9351  2.9178 -1.4280
  679MOL0     H91623   3.341   6.684  10.581 -1.6572 -1.0472 -0.7742
  679MOL0     H91624   3.354   6.831  10.520 -0.3015 -0.9436  0.8630
  679MOL0     H91625   3.472   6.502  10.639  0.1610  0.0155  2.2361
  679MOL0     H91626   3.647   6.423  10.785  3.3058 -3.2539 -1.3699
  679MOL0     H91627   4.237   6.465  10.884 -0.7330 -1.6562  1.3568
  679MOL0     H91628   4.409   6.329  10.868  0.0494 -2.3497 -0.8438
  679MOL0     H91629   4.459   6.099  10.848  0.2722 -1.1050 -0.0591
  679MOL0     H91630   4.534   5.980  10.752 -1.2560 -0.4104 -0.1961
  679MOL0     H91631   4.652   6.257  10.807  0.0685  0.6663  1.4548
  679MOL0     H91632   4.694   6.116  10.908  2.0744 -0.3280 -1.2834
  679MOL0     H91633   4.760   6.114  10.602  2.2362  1.0357 -0.2178
  679MOL0     H91634   4.861   6.192  10.718 -0.5460  1.0544  2.0744
  679MOL0     H91635   4.766   5.895  10.738 -0.6620 -0.5927 -1.0283
  679MOL0     H91636   4.898   5.969  10.839  1.2083 -0.4996 -1.3773
  679MOL0     H91637   4.905   5.915  10.541  0.0658 -0.1317  0.0167
  679MOL0     H91638   4.989   5.826  10.671 -1.2919 -0.3842  2.1687
  679MOL0     H91639   5.043   6.112  10.573  2.3096 -1.1276 -1.9892
  679MOL0     H91640   5.087   6.060  10.733  2.3148  0.1722 -1.4102
  679MOL0     H91641   5.136   5.940  10.460  0.8622 -2.5015 -0.1551
  679MOL0     H91642   5.219   5.869  10.606  0.3833  0.1020  0.1235
  679MOL0     H91643   5.255   6.144  10.489  0.6579 -1.0391 -1.3248
  679MOL0     H91644   5.322   6.084  10.646  2.4556  1.1972 -1.8692
  679MOL0     H91645   4.257   6.144  10.509 -5.2115  0.7604  0.3047
  679MOL0     H91646   4.064   6.298  10.535  0.6533 -3.0037 -0.4992
  679MOL0     H91647   3.945   6.645  10.568  0.9882 -2.8762  4.9104
  679MOL0     H91648   3.761   6.763  10.437  0.5441 -0.5322 -0.1083
  679MOL0     H91649   4.225   7.311  10.055 -1.6542 -0.3429 -2.1184
  679MOL0     H91650   4.460   7.278   9.960  0.6079  0.4977  0.8268
  679MOL0     H91651   4.739   7.254   9.836 -0.2765  1.0238 -1.8324
  679MOL0     H91652   4.967   7.305   9.808  0.2748 -0.2472 -0.2183
  679MOL0     H91653   5.201   7.295   9.799  0.5263  0.6490 -0.7369
  679MOL0     H91654   5.137   7.382   9.659 -2.2427 -1.0315  1.4924
  679MOL0     H91655   5.412   7.245   9.664  0.5192  0.4569  1.2712
  679MOL0     H91656   5.404   7.412   9.690  1.6600  0.0296 -1.4832
  679MOL0     H91657   5.338   7.488   9.499 -1.0322 -0.2148  1.0592
  679MOL0     H91658   5.265   7.343   9.439  0.4463 -2.4328  0.0634
  679MOL0     H91659   5.470   7.382   9.313  0.6680  0.0406 -0.9792
  679MOL0     H91660   5.555   7.416   9.465 -0.9221 -0.3448  1.7959
  679MOL0     H91661   5.592   6.995   9.432  4.7740  0.4925 -1.2018
  679MOL0     H91662   5.058   6.932   9.624 -0.6850  2.5812 -3.8518
  679MOL0     H91663   4.737   6.826   9.575  2.7794  1.2333 -2.1758
  679MOL0     H91664   4.898   6.773   9.597  2.8418 -0.4516  2.0501
  679MOL0     H91665   4.791   6.753   9.737 -0.6894  3.8557  2.3714
  680MOL0     O91666   0.588  10.534   6.054 -0.1009 -0.1180 -0.6934
  680MOL0     C91667   0.697  10.563   6.026 -0.9898  0.1081 -1.0130
  680MOL0     O91668   0.749  10.684   5.998 -0.4458  0.1849  0.0887
  680MOL0     C91669   0.666  10.793   6.016  0.0084  0.3328  0.2133
  680MOL0     C91670   0.612  10.863   5.909  0.3659 -0.9347  0.4246
  680MOL0     C91671   0.521  10.967   5.916 -0.3602 -1.0772  0.3369
  680MOL0     C91672   0.497  11.018   6.043 -1.1273  0.2692 -0.9165
  680MOL0     O91673   0.409  11.123   6.055 -0.0857 -0.5201 -0.2562
  680MOL0     C91674   0.403  11.200   6.173  0.8353 -0.1109 -0.2245
  680MOL0     C91675   0.366  11.342   6.131  0.1941  0.0857 -0.3724
  680MOL0     C91676   0.215  11.371   6.150  0.3907  0.1358 -0.6417
  680MOL0     C91677   0.190  11.520   6.123  0.5143 -0.4652 -0.7470
  680MOL0     C91678   0.045  11.537   6.094 -0.0884  1.0095 -0.1039
  680MOL0     C91679   0.004  11.682   6.067 -0.8710 -0.0622  0.0166
  680MOL0     C91680  -0.018  11.764   6.197 -0.6354 -0.2600  0.2030
  680MOL0     C91681  -0.137  11.706   6.268 -0.0094 -1.0814 -0.2237
  680MOL0     N91682  -0.272  11.721   6.206  0.3982  0.0187 -0.5270
  680MOL0     C91683  -0.329  11.631   6.118  1.1534  0.0630 -0.3591
  680MOL0     C91684  -0.443  11.688   6.078  0.4592  0.2622 -0.2868
  680MOL0     C91685  -0.532  11.637   5.977  0.0567  0.1462  0.4269
  680MOL0     C91686  -0.673  11.600   6.024  0.3998 -0.6051 -1.2963
  680MOL0     C91687  -0.672  11.478   6.128  0.0233  0.5651  0.5544
  680MOL0     C91688  -0.819  11.468   6.183 -0.1950 -0.3591  0.4869
  680MOL0     O91689  -0.909  11.465   6.075  0.0581 -0.1983 -0.3953
  680MOL0     C91690  -1.024  11.395   6.100 -0.0425 -0.0165 -0.7361
  680MOL0     C91691  -1.036  11.280   6.024 -0.2766  0.6396 -0.3111
  680MOL0     C91692  -1.151  11.211   6.046 -0.3170 -0.5736 -0.6659
  680MOL0     C91693  -1.256  11.248   6.131 -0.5392  0.6038  0.0015
  680MOL0     C91694  -1.385  11.165   6.151 -1.2723 -0.4798 -0.2636
  680MOL0     O91695  -1.410  11.048   6.090  1.0008 -0.1761 -0.2028
  680MOL0     C91696  -1.523  10.980   6.119  0.5609  0.1079  0.2411
  680MOL0     C91697  -1.546  10.878   6.210  0.0262  0.2633 -0.4604
  680MOL0     C91698  -1.672  10.819   6.222 -0.0277 -0.0964 -0.3514
  680MOL0     C91699  -1.781  10.857   6.135 -0.3623  0.2893 -1.1751
  680MOL0     O91700  -1.906  10.810   6.140  0.1998  0.2651  0.1157
  680MOL0     C91701  -1.960  10.768   6.266  0.1803  0.2244  0.2843
  680MOL0     C91702  -2.117  10.758   6.277 -0.0356 -0.4702 -0.4871
  680MOL0     C91703  -2.170  10.648   6.379 -0.3935  0.4338 -0.1969
  680MOL0     C91704  -2.161  10.502   6.317 -0.3153 -0.1132 -0.5290
  680MOL0     C91705  -2.209  10.411   6.426 -0.0939  0.2741  0.5207
  680MOL0     C91706  -2.356  10.417   6.448 -0.3540 -0.2269  0.4919
  680MOL0     C91707  -2.406  10.315   6.549 -0.7608  0.3946  0.1568
  680MOL0     C91708  -2.340  10.335   6.679  0.5000  0.5392 -0.1006
  680MOL0    Cl91709  -2.448  10.287   6.815 -0.2242  0.0212 -0.1884
  680MOL0     C91710  -1.761  10.965   6.054  0.0421 -0.5737  0.0387
  680MOL0     C91711  -1.640  11.024   6.046 -0.7616  0.2180  0.4553
  680MOL0     O91712  -1.467  11.220   6.228 -0.1557  0.3261  0.9039
  680MOL0     C91713  -1.241  11.371   6.197  0.8769 -0.3376  0.4146
  680MOL0     C91714  -1.124  11.447   6.176  1.1906 -0.4575  0.4666
  680MOL0     N91715  -0.443  11.814   6.134 -0.0163 -1.0356  0.0595
  680MOL0     N91716  -0.345  11.837   6.213  0.2057  0.4770  0.2337
  680MOL0     C91717   0.570  10.953   6.157  0.1832  0.1355  0.7311
  680MOL0     C91718   0.645  10.843   6.146  0.0874  0.3115  0.4944
  680MOL0     C91719   0.790  10.444   6.029 -0.4095  0.4244 -0.3053
  680MOL0     C91720   0.780  10.343   6.127 -0.4735 -0.2809 -0.0311
  680MOL0     C91721   0.879  10.240   6.145  0.1993  0.2374  1.1665
  680MOL0     C91722   0.989  10.233   6.049  0.0255  0.1299 -0.0989
  680MOL0     O91723   1.084  10.135   6.075  1.1625  0.0857 -0.3480
  680MOL0     C91724   1.162  10.088   5.963 -0.0303 -0.1535  0.0004
  680MOL0     C91725   1.231   9.953   6.003  0.0349 -0.2543 -1.0785
  680MOL0     C91726   1.309   9.891   5.884  0.0308 -0.0932 -0.3514
  680MOL0     C91727   1.393   9.775   5.928  0.3785 -0.8721 -0.0341
  680MOL0     C91728   1.320   9.648   5.925 -0.5633 -0.7677 -0.3318
  680MOL0     C91729   1.252   9.547   5.936 -0.6526 -1.8003 -0.6591
  680MOL0     C91730   1.003  10.323   5.941 -0.1176  0.0668  0.2880
  680MOL0     C91731   0.902  10.427   5.933  0.2535 -0.2655  0.4036
  680MOL0     C91732   0.908  10.515   5.813  0.3763 -0.4407 -0.3217
  680MOL0     H91733   0.642  10.817   5.816  1.5780 -2.1817  1.3833
  680MOL0     H91734   0.479  11.015   5.828  2.1003 -0.5267 -0.6462
  680MOL0     H91735   0.329  11.152   6.237  0.5315 -0.7359 -1.0338
  680MOL0     H91736   0.500  11.189   6.221  0.5243 -1.4827  0.1283
  680MOL0     H91737   0.389  11.367   6.027  0.5877  1.7266  0.0796
  680MOL0     H91738   0.417  11.415   6.194 -0.4566  0.6194 -0.4377
  680MOL0     H91739   0.201  11.346   6.256  0.7425 -1.1099 -0.8712
  680MOL0     H91740   0.157  11.302   6.089 -3.0363 -0.4880  2.9416
  680MOL0     H91741   0.229  11.573   6.211  4.1258 -0.4959 -2.1450
  680MOL0     H91742   0.263  11.561   6.053 -0.6162 -0.8249 -2.1708
  680MOL0     H91743   0.013  11.484   6.004 -2.1278  2.7395 -0.4726
  680MOL0     H91744  -0.019  11.494   6.172 -0.2410  1.6912  0.1564
  680MOL0     H91745   0.079  11.733   6.005 -1.7802 -0.7314 -1.6765
  680MOL0     H91746  -0.089  11.699   6.012  0.0003  0.7635 -1.2427
  680MOL0     H91747  -0.035  11.871   6.186 -0.8599 -0.0799  2.0839
  680MOL0     H91748   0.069  11.749   6.262 -1.9404 -3.0908  1.4963
  680MOL0     H91749  -0.119  11.605   6.308 -0.3847 -0.3632  1.9103
  680MOL0     H91750  -0.131  11.772   6.355 -0.4745 -0.7332 -0.4521
  680MOL0     H91751  -0.290  11.537   6.080 -2.4691 -1.4641 -0.7053
  680MOL0     H91752  -0.540  11.703   5.891 -1.0086 -1.1019 -0.4791
  680MOL0     H91753  -0.482  11.544   5.945  2.9562  2.0454 -1.0031
  680MOL0     H91754  -0.710  11.689   6.076  0.9164  0.3810 -2.5883
  680MOL0     H91755  -0.736  11.583   5.937  0.8158 -0.9090 -1.5411
  680MOL0     H91756  -0.610  11.488   6.218 -0.1415  0.0914  0.7224
  680MOL0     H91757  -0.639  11.387   6.079  0.5089  1.1311 -0.2030
  680MOL0     H91758  -0.839  11.557   6.244 -2.2693 -1.3062  1.2540
  680MOL0     H91759  -0.815  11.381   6.250 -2.0876 -0.3478  0.6565
  680MOL0     H91760  -0.974  11.262   5.936 -2.0845 -0.9683 -1.3401
  680MOL0     H91761  -1.162  11.124   5.982  1.3353  0.3425 -2.3077
  680MOL0     H91762  -1.457  10.840   6.259  0.1079 -0.3219 -1.0475
  680MOL0     H91763  -1.684  10.738   6.293 -2.1257  0.5101  0.0479
  680MOL0     H91764  -1.905  10.682   6.306  0.2107 -0.6282 -1.5050
  680MOL0     H91765  -1.941  10.850   6.336 -0.5003  1.7443 -1.2564
  680MOL0     H91766  -2.154  10.852   6.318 -0.9561 -1.1719  0.3629
  680MOL0     H91767  -2.160  10.750   6.177  1.5779  2.7635 -1.5610
  680MOL0     H91768  -2.121  10.646   6.476 -2.2273 -1.5254  0.7710
  680MOL0     H91769  -2.273  10.676   6.405  0.9205  4.3299  1.6528
  680MOL0     H91770  -2.054  10.499   6.296 -0.4956  1.3480 -1.8211
  680MOL0     H91771  -2.222  10.490   6.227 -0.4870  0.9469 -0.5622
  680MOL0     H91772  -2.151  10.439   6.515  0.0718  1.2145  0.1301
  680MOL0     H91773  -2.197  10.307   6.397 -0.0182  0.6200 -0.7340
  680MOL0     H91774  -2.364  10.518   6.489  0.8951  0.4562 -0.8544
  680MOL0     H91775  -2.414  10.402   6.357 -0.9743 -0.3635  0.9034
  680MOL0     H91776  -2.382  10.212   6.519 -1.3579  0.8817 -2.1887
  680MOL0     H91777  -2.514  10.321   6.569 -1.2693 -1.5183 -1.5546
  680MOL0     H91778  -2.249  10.276   6.682  3.6933  4.7075 -3.0843
  680MOL0     H91779  -2.319  10.442   6.688  0.3665  0.8043 -2.3340
  680MOL0     H91780  -1.833  11.008   5.986 -0.2516 -0.7913  0.2119
  680MOL0     H91781  -1.625  11.114   5.987 -1.8621  0.7794  0.9928
  680MOL0     H91782  -1.325  11.423   6.242  0.9075  1.0217 -1.0281
  680MOL0     H91783  -1.092  11.543   6.215  0.8387 -0.1422 -0.0072
  680MOL0     H91784   0.580  10.999   6.255 -0.5694  0.4269  0.6752
  680MOL0     H91785   0.690  10.800   6.235  3.3317  1.2786 -0.5301
  680MOL0     H91786   0.702  10.349   6.203 -1.6817 -4.5868 -0.6755
  680MOL0     H91787   0.868  10.156   6.212  0.5548 -2.7814 -2.2355
  680MOL0     H91788   1.231  10.172   5.948 -1.7290  1.0364 -1.5952
  680MOL0     H91789   1.103  10.070   5.873  1.3690  1.3431 -1.2593
  680MOL0     H91790   1.159   9.880   6.040 -0.7021  0.7335 -0.5379
  680MOL0     H91791   1.309   9.968   6.079  1.9218 -4.2722 -1.9591
  680MOL0     H91792   1.366   9.960   5.821  0.7232 -1.6940 -1.5669
  680MOL0     H91793   1.236   9.844   5.817 -0.5036  1.7446 -1.1107
  680MOL0     H91794   1.492   9.777   5.883  0.6035 -1.9973  0.3853
  680MOL0     H91795   1.405   9.784   6.037 -1.3182  1.4249  0.0499
  680MOL0     H91796   1.186   9.462   5.931 -2.0919 -0.8078  0.4962
  680MOL0     H91797   1.089  10.316   5.875  3.7818 -1.4940  4.8944
  680MOL0     H91798   0.812  10.501   5.761 -0.0613  0.7254  0.1390
  680MOL0     H91799   0.925  10.618   5.842  3.9747 -1.3910  1.4527
  680MOL0     H91800   0.988  10.487   5.744  3.1002 -1.9144  3.1451
  681MOL0     O91801  10.707  10.833   4.475  0.0906  0.4617  0.4982
  681MOL0     C91802  10.637  10.733   4.456 -0.5497  0.9518  1.0213
  681MOL0     O91803  10.562  10.705   4.345 -0.8020 -0.4918  0.0265
  681MOL0     C91804  10.536  10.807   4.257 -0.3832 -0.1761 -0.4389
  681MOL0     C91805  10.485  10.939   4.292 -0.9324 -0.0226  0.9248
  681MOL0     C91806  10.463  11.029   4.181 -0.2297  1.0544  0.7322
  681MOL0     C91807  10.498  10.998   4.044  0.2076  0.7106 -0.3777
  681MOL0     O91808  10.484  11.088   3.941  0.2536  0.2343 -0.3233
  681MOL0     C91809  10.483  11.232   3.960  0.4098 -0.3932 -0.2542
  681MOL0     C91810  10.525  11.296   3.825 -0.6495  0.6773  0.7099
  681MOL0     C91811  10.677  11.295   3.778  1.0327 -0.1024 -0.2113
  681MOL0     C91812  10.750  11.357   3.901  0.1415  0.0250 -0.2096
  681MOL0     C91813  10.900  11.407   3.872  0.8091  0.3660 -0.5739
  681MOL0     C91814  10.935  11.500   3.750  0.3568  0.0462  0.1699
  681MOL0     C91815  10.873  11.645   3.755 -0.2276 -0.5836 -0.3434
  681MOL0     C91816  10.915  11.724   3.637  0.0936 -0.2850 -0.1332
  681MOL0     N91817  11.027  11.810   3.643  0.4358  0.8344  0.1367
  681MOL0     C91818  11.157  11.772   3.611  1.4500 -0.5653 -0.0866
  681MOL0     C91819  11.239  11.859   3.673 -0.0823 -0.4472 -0.3392
  681MOL0     C91820  11.387  11.870   3.643 -0.3318 -0.0558  0.3737
  681MOL0     C91821  11.443  12.016   3.623  0.3538 -0.2770  1.2233
  681MOL0     C91822  11.508  12.081   3.749  0.1337 -0.3333 -1.0850
  681MOL0     C91823  11.622  12.180   3.730 -0.2508  0.0019 -0.8019
  681MOL0     O91824  11.652  12.232   3.858 -0.1249 -0.5275  0.4657
  681MOL0     C91825  11.744  12.166   3.938 -0.5799 -0.4487 -0.3473
  681MOL0     C91826  11.804  12.051   3.899 -0.3224 -0.0484  0.7458
  681MOL0     C91827  11.903  11.993   3.966  0.2449  0.9254 -0.8957
  681MOL0     C91828  11.942  12.046   4.091 -0.2931 -0.2057 -0.1225
  681MOL0     C91829  12.060  11.994   4.175 -0.0061 -0.3032  0.6082
  681MOL0     O91830  12.075  12.009   4.309 -0.0989 -0.0860 -0.5907
  681MOL0     C91831  12.187  11.950   4.362  0.1491 -0.0572  0.0935
  681MOL0     C91832  12.187  11.820   4.409  0.2599  0.0825 -0.2544
  681MOL0     C91833  12.298  11.761   4.462 -0.6056  0.0823 -0.0749
  681MOL0     C91834  12.417  11.824   4.460 -1.0197  0.7718 -0.0384
  681MOL0     O91835  12.537  11.750   4.489 -0.3356 -0.4544 -0.1529
  681MOL0     C91836  12.657  11.819   4.529  0.1568 -1.1309 -0.7107
  681MOL0     C91837  12.753  11.715   4.585  0.8069 -0.6274 -0.2578
  681MOL0     C91838  12.698  11.642   4.717  0.2939  0.9627  0.0407
  681MOL0     C91839  12.749  11.713   4.838 -0.5302  0.6712 -0.3590
  681MOL0     C91840  12.672  11.661   4.964 -0.3466 -0.2193 -0.1961
  681MOL0     C91841  12.683  11.769   5.078 -1.2686 -0.1695  0.3199
  681MOL0     C91842  12.651  11.718   5.222  0.5753 -0.7387 -0.3209
  681MOL0     C91843  12.636  11.820   5.325 -0.5466 -1.0249 -0.3876
  681MOL0    Cl91844  12.772  11.923   5.358 -0.2193 -0.2180 -0.1917
  681MOL0     C91845  12.423  11.954   4.420 -0.6660  0.2028  0.2154
  681MOL0     C91846  12.304  12.021   4.373  0.6218 -0.1930  0.7420
  681MOL0     O91847  12.142  11.935   4.104  0.5763 -0.0180  0.1464
  681MOL0     C91848  11.881  12.171   4.143 -0.7572  0.0897 -0.2549
  681MOL0     C91849  11.777  12.223   4.064  1.6921 -0.0079 -0.2447
  681MOL0     N91850  11.160  11.954   3.743 -0.2378  0.5070  0.1709
  681MOL0     N91851  11.031  11.918   3.724 -0.6036  0.1570 -0.2490
  681MOL0     C91852  10.547  10.876   4.020  0.7170 -0.1659  0.1066
  681MOL0     C91853  10.562  10.779   4.121  0.3416  0.8715 -0.2195
  681MOL0     C91854  10.636  10.622   4.557 -0.0049 -0.3494  0.2746
  681MOL0     C91855  10.510  10.568   4.584 -0.2785 -0.3264 -0.8593
  681MOL0     C91856  10.489  10.465   4.683 -0.7513  0.3343 -0.3432
  681MOL0     C91857  10.605  10.401   4.730  0.3869  0.2189  0.0581
  681MOL0     O91858  10.578  10.291   4.812 -0.0838 -0.2736  0.1216
  681MOL0     C91859  10.680  10.219   4.885 -0.9388  0.0856  0.4493
  681MOL0     C91860  10.720  10.297   5.007 -0.0360 -0.3511 -0.4567
  681MOL0     C91861  10.622  10.286   5.128  0.2267  0.0815  0.0657
  681MOL0     C91862  10.575  10.417   5.197 -0.6177  0.0190  0.7935
  681MOL0     C91863  10.478  10.492   5.121  0.6700  0.0505  0.1047
  681MOL0     C91864  10.412  10.564   5.050  0.3388  0.2101 -0.0229
  681MOL0     C91865  10.731  10.454   4.700 -0.5344 -0.6457 -0.1909
  681MOL0     C91866  10.748  10.562   4.611 -0.1476  0.3067  0.8641
  681MOL0     C91867  10.895  10.601   4.591 -0.7417 -0.1022  0.1883
  681MOL0     H91868  10.462  10.978   4.391 -3.3981 -0.3061  0.5296
  681MOL0     H91869  10.439  11.131   4.206  2.6694  2.9149 -3.0404
  681MOL0     H91870  10.377  11.245   3.983 -0.4656 -3.9616 -1.6293
  681MOL0     H91871  10.552  11.264   4.039  2.2229  2.5759 -2.7719
  681MOL0     H91872  10.475  11.391   3.838 -0.5738  0.9296 -0.6585
  681MOL0     H91873  10.474  11.241   3.745 -2.4684  3.9652 -0.5521
  681MOL0     H91874  10.687  11.362   3.693 -1.3753  1.7354  0.8420
  681MOL0     H91875  10.724  11.196   3.767  0.4250 -1.3309  5.2645
  681MOL0     H91876  10.705  11.450   3.937 -1.1620 -0.2649 -1.0391
  681MOL0     H91877  10.767  11.280   3.977  3.8763 -1.0564 -1.9117
  681MOL0     H91878  10.930  11.459   3.963  0.7028  1.6540 -1.2475
  681MOL0     H91879  10.957  11.314   3.874  0.3307  0.0800  0.2646
  681MOL0     H91880  11.044  11.515   3.752  0.3515  0.0499  0.5107
  681MOL0     H91881  10.911  11.449   3.657 -3.9469 -0.2887  1.2526
  681MOL0     H91882  10.893  11.696   3.850 -0.5570 -1.2197  0.0815
  681MOL0     H91883  10.766  11.636   3.736 -0.3434  1.5309 -0.9324
  681MOL0     H91884  10.927  11.654   3.555  1.4132 -1.1068  0.7201
  681MOL0     H91885  10.839  11.800   3.617  2.9304  2.3971 -1.5654
  681MOL0     H91886  11.189  11.701   3.535  0.7228  0.5855 -1.5280
  681MOL0     H91887  11.449  11.815   3.714 -1.0449 -2.9551 -1.0841
  681MOL0     H91888  11.405  11.816   3.550  1.9794 -0.6304  1.1055
  681MOL0     H91889  11.520  12.018   3.546  2.5267  0.9171  3.2716
  681MOL0     H91890  11.370  12.094   3.600  0.1151 -0.6878  0.5670
  681MOL0     H91891  11.539  12.003   3.819 -0.7563 -0.7683 -1.1695
  681MOL0     H91892  11.431  12.135   3.805  2.1045 -0.7573  2.3095
  681MOL0     H91893  11.581  12.261   3.669  2.1088  0.2962 -2.1007
  681MOL0     H91894  11.714  12.156   3.676  1.7530  1.5048  1.7231
  681MOL0     H91895  11.790  12.003   3.803 -3.4258  0.3753  0.9069
  681MOL0     H91896  11.937  11.898   3.926 -0.5858 -0.5519  1.6683
  681MOL0     H91897  12.090  11.772   4.416 -0.2025  1.1759  1.1995
  681MOL0     H91898  12.289  11.663   4.508 -0.7487  1.1879  2.4562
  681MOL0     H91899  12.710  11.877   4.453  3.3385  1.5301  3.1522
  681MOL0     H91900  12.635  11.892   4.607  0.7488  0.0162 -1.5986
  681MOL0     H91901  12.783  11.651   4.502  1.4453  1.6590 -1.8762
  681MOL0     H91902  12.845  11.769   4.612  0.5649 -0.5992  0.5582
  681MOL0     H91903  12.590  11.634   4.726  0.0514  2.5701 -1.0794
  681MOL0     H91904  12.741  11.541   4.718  1.0077  1.2488  1.2503
  681MOL0     H91905  12.729  11.820   4.830 -0.0046  1.0822  2.6134
  681MOL0     H91906  12.856  11.695   4.838 -0.5743  0.2419  1.0544
  681MOL0     H91907  12.713  11.564   4.993  0.5197  1.1719  3.9728
  681MOL0     H91908  12.570  11.640   4.931 -0.4081 -1.3444  0.6314
  681MOL0     H91909  12.785  11.804   5.066 -2.5638  3.2636 -2.1438
  681MOL0     H91910  12.617  11.852   5.052  2.2164  2.5001 -0.7121
  681MOL0     H91911  12.721  11.639   5.251  1.0885 -0.8749 -1.8234
  681MOL0     H91912  12.552  11.674   5.212  0.1189  0.5042 -1.6202
  681MOL0     H91913  12.556  11.891   5.302  0.5732  0.4117  0.0179
  681MOL0     H91914  12.606  11.776   5.421 -0.0290 -1.3852 -0.3889
  681MOL0     H91915  12.512  12.017   4.422 -1.3887  1.3179 -1.0871
  681MOL0     H91916  12.312  12.128   4.358  6.1248 -0.3295  0.4632
  681MOL0     H91917  11.906  12.215   4.238 -0.6034  1.3663 -0.8584
  681MOL0     H91918  11.735  12.320   4.088  0.5333  0.3345 -3.2271
  681MOL0     H91919  10.568  10.835   3.921 -2.6535 -0.3603 -0.6436
  681MOL0     H91920  10.588  10.685   4.075 -1.0118 -0.9326  2.4764
  681MOL0     H91921  10.424  10.620   4.542 -0.6959 -2.0346 -2.2325
  681MOL0     H91922  10.394  10.425   4.719  0.1871 -1.6915  0.0383
  681MOL0     H91923  10.773  10.211   4.827 -0.7982  3.9197 -0.1335
  681MOL0     H91924  10.643  10.118   4.900 -1.1264 -1.1975 -5.8358
  681MOL0     H91925  10.728  10.402   4.977  1.3236 -0.0469  0.8435
  681MOL0     H91926  10.821  10.267   5.034  0.1845 -1.1155 -2.0636
  681MOL0     H91927  10.680  10.221   5.193  0.2244 -1.5982 -1.5266
  681MOL0     H91928  10.530  10.240   5.090 -0.3171  2.1880 -1.3501
  681MOL0     H91929  10.527  10.382   5.289  5.3540 -0.3506  4.2566
  681MOL0     H91930  10.647  10.493   5.229 -0.9120  1.8889 -2.5070
  681MOL0     H91931  10.374  10.648   4.995  1.4946  1.0408  0.3952
  681MOL0     H91932  10.817  10.423   4.758  0.3706  2.8054  0.5016
  681MOL0     H91933  10.898  10.703   4.551 -0.2097  0.1338  0.8131
  681MOL0     H91934  10.938  10.618   4.690 -2.6008  3.1140  0.5784
  681MOL0     H91935  10.953  10.534   4.527  2.4606  2.3843  0.2384
  682MOL0     O91936   0.078   7.780   3.819 -0.0376 -0.0962  0.0373
  682MOL0     C91937  -0.043   7.777   3.820 -0.9523  0.1802 -0.2652
  682MOL0     O91938  -0.123   7.854   3.747 -0.0253  0.3444 -0.8842
  682MOL0     C91939  -0.086   7.914   3.627 -0.2944  0.1057 -0.3561
  682MOL0     C91940   0.020   7.870   3.543  0.3985  0.1532 -0.8516
  682MOL0     C91941   0.060   7.939   3.428 -0.4739  0.7134  0.1179
  682MOL0     C91942  -0.012   8.064   3.394 -0.3046  0.3715  1.3617
  682MOL0     O91943   0.027   8.162   3.308 -0.5663 -0.6417  0.7047
  682MOL0     C91944   0.121   8.127   3.203 -0.4802  0.2258 -0.5984
  682MOL0     C91945   0.159   8.263   3.147  1.1526 -0.4469  0.1203
  682MOL0     C91946   0.233   8.347   3.252 -0.1447  0.6465 -0.0420
  682MOL0     C91947   0.378   8.294   3.252 -0.4137 -0.9506 -1.1118
  682MOL0     C91948   0.449   8.401   3.332 -0.2235  0.5138 -0.4640
  682MOL0     C91949   0.596   8.353   3.370  0.6624  0.6420 -0.1605
  682MOL0     C91950   0.687   8.456   3.427 -0.9386  0.4669  0.0301
  682MOL0     C91951   0.803   8.517   3.338 -1.0939  1.0353 -0.1983
  682MOL0     N91952   0.746   8.577   3.219  0.2280  0.1660  0.4680
  682MOL0     C91953   0.694   8.709   3.218  0.5756  0.1210  0.0349
  682MOL0     C91954   0.643   8.730   3.088 -0.4179  0.8134 -0.3363
  682MOL0     C91955   0.580   8.857   3.033  0.0937  0.6483  0.6627
  682MOL0     C91956   0.430   8.838   3.028  0.0201 -0.4844 -0.8950
  682MOL0     C91957   0.376   8.874   3.171  0.2060 -0.5808  0.8031
  682MOL0     C91958   0.350   9.020   3.190  0.7839 -0.6281 -0.0452
  682MOL0     O91959   0.238   9.071   3.120 -0.3194  0.4533 -0.5747
  682MOL0     C91960   0.189   9.187   3.164  0.5007 -0.2180  0.3142
  682MOL0     C91961   0.062   9.224   3.131 -0.1578 -0.3518  0.0279
  682MOL0     C91962   0.019   9.359   3.150 -0.1324 -0.1381 -0.0859
  682MOL0     C91963   0.097   9.458   3.192 -0.7851 -0.4343 -0.8479
  682MOL0     C91964   0.052   9.599   3.184 -0.2365 -0.5052 -0.3344
  682MOL0     O91965  -0.077   9.622   3.150  0.7689  0.4901 -0.1467
  682MOL0     C91966  -0.112   9.753   3.109 -0.3423  0.7212 -0.5342
  682MOL0     C91967  -0.231   9.804   3.161 -0.0977 -0.3262 -0.0852
  682MOL0     C91968  -0.270   9.928   3.125 -0.5294 -0.1669 -0.1032
  682MOL0     C91969  -0.218   9.999   3.011  0.2535  0.3609 -1.2048
  682MOL0     O91970  -0.280  10.117   2.963  0.5656 -0.1623  0.1257
  682MOL0     C91971  -0.281  10.119   2.820 -1.0296  0.0153  0.3566
  682MOL0     C91972  -0.390  10.221   2.769 -0.2510  0.3718  0.6242
  682MOL0     C91973  -0.529  10.179   2.777  0.2218  0.6091  0.7096
  682MOL0     C91974  -0.605  10.311   2.749 -0.0476  0.2070 -0.3435
  682MOL0     C91975  -0.754  10.308   2.762 -0.4994 -0.3764  0.5953
  682MOL0     C91976  -0.825  10.243   2.637 -0.0957 -0.1000  0.3428
  682MOL0     C91977  -0.951  10.173   2.681 -0.9938  2.0446 -0.5734
  682MOL0     C91978  -0.943  10.014   2.703  0.6069 -0.6854  0.0516
  682MOL0    Cl91979  -1.116   9.964   2.716  0.4450 -0.1323  0.6155
  682MOL0     C91980  -0.096   9.949   2.969  0.1388 -0.6117  0.0069
  682MOL0     C91981  -0.050   9.826   3.015  0.2076  1.2581  0.5761
  682MOL0     O91982   0.138   9.685   3.204  0.1896  0.2655 -0.1876
  682MOL0     C91983   0.232   9.418   3.218 -0.5094 -0.2699  0.2977
  682MOL0     C91984   0.275   9.287   3.213  1.4043 -0.2031  0.0616
  682MOL0     N91985   0.665   8.616   3.014  0.0487  0.1257 -0.4789
  682MOL0     N91986   0.727   8.526   3.093 -1.4814 -0.5671  0.2582
  682MOL0     C91987  -0.123   8.107   3.475 -0.2836  0.0344  0.1270
  682MOL0     C91988  -0.162   8.030   3.587  0.5527 -0.1897  0.0492
  682MOL0     C91989  -0.105   7.677   3.897  0.3407 -0.1996 -1.1247
  682MOL0     C91990  -0.211   7.596   3.845 -0.2096  0.0042  0.3071
  682MOL0     C91991  -0.272   7.493   3.921  0.3512 -0.6672  0.4531
  682MOL0     C91992  -0.229   7.468   4.049 -0.5036 -0.8848 -1.0997
  682MOL0     O91993  -0.312   7.389   4.129  0.0126 -0.4865 -0.2187
  682MOL0     C91994  -0.407   7.468   4.202  0.0415 -0.5441 -0.1414
  682MOL0     C91995  -0.460   7.402   4.339  0.4591 -0.3028  0.7505
  682MOL0     C91996  -0.345   7.385   4.438  0.2461 -0.2623 -0.7907
  682MOL0     C91997  -0.410   7.319   4.559 -0.2602 -0.4787 -0.9651
  682MOL0     C91998  -0.524   7.401   4.611 -0.8946  0.4793 -0.5825
  682MOL0     C91999  -0.623   7.464   4.634 -1.0662 -0.6461 -0.2288
  682MOL0     C92000  -0.110   7.538   4.095 -0.4569 -0.1098  1.2107
  682MOL0     C92001  -0.058   7.646   4.026 -0.1538 -1.6299  0.4374
  682MOL0     C92002   0.053   7.717   4.107 -0.0094  0.0792  0.3662
  682MOL0     H92003   0.063   7.773   3.565 -2.3147 -1.0429 -0.4686
  682MOL0     H92004   0.140   7.885   3.379 -0.9716 -1.8134  1.9238
  682MOL0     H92005   0.201   8.069   3.249 -0.2455  0.9141 -0.1136
  682MOL0     H92006   0.060   8.065   3.137 -3.4307  2.1397  0.1176
  682MOL0     H92007   0.063   8.311   3.124  0.6522 -1.9182 -1.0439
  682MOL0     H92008   0.215   8.256   3.053  0.0298  1.4617 -0.7660
  682MOL0     H92009   0.192   8.329   3.351  0.2816 -0.6266 -0.0744
  682MOL0     H92010   0.218   8.453   3.231  0.7906  0.9038  0.5259
  682MOL0     H92011   0.392   8.196   3.299  0.8493  0.1300  0.9078
  682MOL0     H92012   0.428   8.288   3.154  0.8022 -0.6958 -0.5251
  682MOL0     H92013   0.451   8.507   3.303  0.3647  1.5482  2.9199
  682MOL0     H92014   0.403   8.411   3.430 -1.9003 -3.0628 -0.7494
  682MOL0     H92015   0.588   8.282   3.452  1.7492  1.1452  0.4019
  682MOL0     H92016   0.645   8.316   3.279 -1.6285 -0.2498 -1.1059
  682MOL0     H92017   0.722   8.400   3.514 -2.4235 -1.5442 -0.5962
  682MOL0     H92018   0.641   8.547   3.466 -3.8660 -0.3993 -1.1747
  682MOL0     H92019   0.861   8.585   3.401  0.2790  0.3531 -0.6958
  682MOL0     H92020   0.873   8.439   3.308  0.4038  3.1022 -2.5199
  682MOL0     H92021   0.682   8.785   3.294 -0.7865  0.0975 -0.1233
  682MOL0     H92022   0.623   8.929   3.102 -0.1900  0.3865  1.1205
  682MOL0     H92023   0.625   8.870   2.934  0.7503 -0.3851  0.8049
  682MOL0     H92024   0.384   8.895   2.946  3.6060  0.8341 -2.1635
  682MOL0     H92025   0.424   8.729   3.016  5.5656 -1.0799 -0.8536
  682MOL0     H92026   0.455   8.838   3.237  0.9091  0.1969  0.3983
  682MOL0     H92027   0.279   8.827   3.191 -0.0843 -1.5521 -2.3555
  682MOL0     H92028   0.440   9.080   3.176 -0.8090  2.0578  0.3766
  682MOL0     H92029   0.342   9.029   3.299  1.5453 -3.1679  0.2761
  682MOL0     H92030  -0.017   9.166   3.084 -0.9327  0.9376 -0.3357
  682MOL0     H92031  -0.077   9.400   3.118 -0.1975  1.9734  2.5043
  682MOL0     H92032  -0.284   9.744   3.235 -0.5849 -2.7156 -2.2239
  682MOL0     H92033  -0.369   9.964   3.151 -1.1162 -1.9442  0.2855
  682MOL0     H92034  -0.186  10.162   2.787 -1.7030  0.8139 -0.5982
  682MOL0     H92035  -0.292  10.021   2.774  0.5249 -0.4440  0.8969
  682MOL0     H92036  -0.366  10.314   2.821  0.6211  0.0763  0.7774
  682MOL0     H92037  -0.358  10.233   2.665 -1.5281  0.6960  0.2521
  682MOL0     H92038  -0.543  10.102   2.700  2.1705 -1.5475  2.3709
  682MOL0     H92039  -0.555  10.153   2.880 -0.1994  1.0710  0.7237
  682MOL0     H92040  -0.585  10.337   2.644 -1.9990 -1.1941 -1.1478
  682MOL0     H92041  -0.567  10.393   2.809  2.7370 -1.4855  0.3782
  682MOL0     H92042  -0.791  10.409   2.779  0.0774  0.5276 -2.6484
  682MOL0     H92043  -0.776  10.243   2.847  0.2839 -0.4026  0.7847
  682MOL0     H92044  -0.840  10.321   2.563  3.0441 -0.5110 -0.8745
  682MOL0     H92045  -0.760  10.168   2.592 -0.5762 -1.5009  1.8335
  682MOL0     H92046  -1.026  10.191   2.604 -0.2245  1.3930 -1.5058
  682MOL0     H92047  -0.983  10.219   2.775  0.6595  2.0041  0.0424
  682MOL0     H92048  -0.898   9.970   2.613  0.3976 -1.7879  0.4644
  682MOL0     H92049  -0.878   9.998   2.789  0.6597  2.0007  0.5797
  682MOL0     H92050  -0.032  10.007   2.903  0.8537 -0.0547  1.1572
  682MOL0     H92051   0.045   9.779   2.987  0.1003  0.1356  1.9379
  682MOL0     H92052   0.294   9.501   3.249  2.5590 -2.4864  0.5615
  682MOL0     H92053   0.381   9.273   3.236  1.5507  2.5132  1.3371
  682MOL0     H92054  -0.166   8.197   3.431 -1.7041 -1.0831 -0.8768
  682MOL0     H92055  -0.244   8.075   3.642 -2.3891 -0.0095 -3.9764
  682MOL0     H92056  -0.249   7.602   3.744 -0.9820 -0.7166  0.5442
  682MOL0     H92057  -0.353   7.435   3.878  0.4473  1.1149 -2.2979
  682MOL0     H92058  -0.495   7.486   4.140 -0.4346 -3.5966 -0.4900
  682MOL0     H92059  -0.371   7.569   4.224 -0.8192 -0.2936  0.1596
  682MOL0     H92060  -0.492   7.299   4.323  1.5075 -0.2926 -2.0052
  682MOL0     H92061  -0.545   7.463   4.367  0.9303  1.5636 -1.5463
  682MOL0     H92062  -0.301   7.482   4.461 -0.8186 -0.0540  0.4980
  682MOL0     H92063  -0.269   7.320   4.394 -0.1094  0.4673 -2.5431
  682MOL0     H92064  -0.444   7.222   4.523 -0.2253 -0.9104  0.1329
  682MOL0     H92065  -0.333   7.306   4.637 -1.7135  2.2974  1.1186
  682MOL0     H92066  -0.703   7.534   4.647 -1.2664  0.6368 -5.7065
  682MOL0     H92067  -0.077   7.515   4.196  1.7942 -2.3936  0.0541
  682MOL0     H92068   0.023   7.738   4.210  1.3550  3.6914  0.1502
  682MOL0     H92069   0.146   7.660   4.113 -0.2847 -0.5601 -0.9552
  682MOL0     H92070   0.080   7.813   4.064  1.1393 -0.9333 -1.2576
  683MOL0     O92071  10.276  11.021   8.280  0.6476  0.2001 -0.5435
  683MOL0     C92072  10.173  10.951   8.279 -0.8766  1.5452 -0.2075
  683MOL0     O92073  10.113  10.900   8.168 -0.2552  0.1879 -0.7845
  683MOL0     C92074  10.143  10.958   8.047  0.4017  0.2505 -0.8922
  683MOL0     C92075  10.145  11.092   8.019 -0.2844 -0.2043  0.4564
  683MOL0     C92076  10.171  11.137   7.893 -0.4204 -0.1604  0.2729
  683MOL0     C92077  10.163  11.060   7.777 -0.7360 -0.3985 -0.8836
  683MOL0     O92078  10.170  11.098   7.649  0.8069 -0.3610 -0.0323
  683MOL0     C92079  10.183  11.236   7.615 -0.2218  0.0934 -0.1581
  683MOL0     C92080  10.152  11.251   7.466  0.1225 -0.1463 -0.1266
  683MOL0     C92081  10.215  11.380   7.391 -0.1456  0.1766  0.1646
  683MOL0     C92082  10.138  11.393   7.250  0.6135  0.1752 -0.4436
  683MOL0     C92083  10.167  11.508   7.149 -0.5390 -0.0059 -0.0838
  683MOL0     C92084  10.324  11.511   7.133 -0.5966 -0.4429 -0.3589
  683MOL0     C92085  10.362  11.621   7.027  0.6694  0.0921  0.3815
  683MOL0     C92086  10.514  11.645   7.017 -0.7672 -0.2724 -0.4000
  683MOL0     N92087  10.577  11.718   7.128  0.2552 -0.0134 -0.3089
  683MOL0     C92088  10.648  11.838   7.115  0.1896  0.1685 -0.5924
  683MOL0     C92089  10.699  11.860   7.244 -0.3392  1.3476 -0.0212
  683MOL0     C92090  10.782  11.965   7.316  0.0211 -0.4851  0.5601
  683MOL0     C92091  10.891  12.019   7.220  0.2876  0.4226  0.7644
  683MOL0     C92092  10.993  11.902   7.185  0.2872 -0.8003  0.8787
  683MOL0     C92093  11.108  11.976   7.104  0.5240  0.6584  0.5866
  683MOL0     O92094  11.222  11.891   7.088 -0.7024 -0.7371  0.5161
  683MOL0     C92095  11.312  11.876   7.189 -0.2975  0.1856 -0.0345
  683MOL0     C92096  11.424  11.795   7.173  0.5728 -0.0627  0.1630
  683MOL0     C92097  11.511  11.776   7.279 -0.6655  0.2335 -0.9365
  683MOL0     C92098  11.502  11.847   7.401 -0.4093 -0.1699 -0.6549
  683MOL0     C92099  11.607  11.840   7.504  0.3636  0.1730  0.3903
  683MOL0     O92100  11.600  11.940   7.604  0.1420  0.0847  0.2935
  683MOL0     C92101  11.657  11.916   7.731  0.3212  0.4865  0.3298
  683MOL0     C92102  11.780  11.960   7.773 -0.3714  0.7235 -0.0009
  683MOL0     C92103  11.828  11.921   7.900 -0.1060  0.3039  0.0147
  683MOL0     C92104  11.743  11.865   7.991  0.0590  0.2786  0.3059
  683MOL0     O92105  11.775  11.819   8.110 -0.0236  0.1076 -0.4796
  683MOL0     C92106  11.911  11.810   8.155  0.7417  0.0505  0.0745
  683MOL0     C92107  11.917  11.723   8.280 -0.0525 -0.0797  0.6157
  683MOL0     C92108  12.053  11.728   8.334 -0.2706 -0.1409 -0.7322
  683MOL0     C92109  12.111  11.590   8.362  0.8121  0.6049 -1.0324
  683MOL0     C92110  12.257  11.586   8.411  0.3525 -0.9797 -0.5753
  683MOL0     C92111  12.272  11.553   8.566  0.3351 -0.2094  0.6412
  683MOL0     C92112  12.422  11.514   8.579 -0.1179 -1.2528  0.8478
  683MOL0     C92113  12.452  11.479   8.720 -0.1575  0.2128  0.2347
  683MOL0    Cl92114  12.396  11.317   8.771  0.2641 -0.3678 -0.1848
  683MOL0     C92115  11.609  11.824   7.952 -0.0867 -0.1515 -0.3711
  683MOL0     C92116  11.568  11.846   7.823  0.7489  0.8648 -0.2918
  683MOL0     O92117  11.695  11.749   7.500  0.3509  0.6505 -0.5062
  683MOL0     C92118  11.389  11.938   7.410  0.5432 -0.8541 -0.0690
  683MOL0     C92119  11.294  11.957   7.308 -0.0372  0.0664  0.6473
  683MOL0     N92120  10.664  11.747   7.320 -0.0018 -0.1243 -0.2854
  683MOL0     N92121  10.596  11.668   7.251  0.6070  0.0850 -0.2899
  683MOL0     C92122  10.141  10.921   7.802 -0.3401 -0.1907  0.2772
  683MOL0     C92123  10.126  10.878   7.939 -0.6909  0.1862  0.4584
  683MOL0     C92124  10.114  10.924   8.413  1.0767 -0.1424 -0.0647
  683MOL0     C92125  10.072  11.031   8.500 -0.3695  0.6309 -0.3884
  683MOL0     C92126   9.992  10.993   8.605  0.1797 -0.4713  0.2040
  683MOL0     C92127   9.968  10.862   8.643  0.1556 -0.1772 -0.0404
  683MOL0     O92128   9.913  10.829   8.766 -0.5155 -0.3461  0.3641
  683MOL0     C92129   9.784  10.762   8.752 -0.7902  0.3009 -0.1161
  683MOL0     C92130   9.666  10.866   8.755 -0.4122  1.5107  0.0409
  683MOL0     C92131   9.552  10.832   8.652  0.6112 -0.6997  0.5465
  683MOL0     C92132   9.582  10.876   8.507  0.2838  0.4482 -0.3904
  683MOL0     C92133   9.682  10.786   8.439  0.3811 -0.3963 -0.2105
  683MOL0     C92134   9.754  10.709   8.381 -0.0843 -0.4539  0.0494
  683MOL0     C92135  10.036  10.759   8.568 -0.5788 -0.9016  0.2944
  683MOL0     C92136  10.101  10.788   8.447 -0.3918  0.2047 -0.5697
  683MOL0     C92137  10.148  10.675   8.357  0.0058  0.8012  1.4635
  683MOL0     H92138  10.121  11.157   8.103 -0.4649  0.3483 -0.0210
  683MOL0     H92139  10.171  11.243   7.872 -1.2782 -0.3509 -0.7393
  683MOL0     H92140  10.112  11.297   7.671 -2.9682 -1.8782 -1.2648
  683MOL0     H92141  10.281  11.272   7.648 -0.0739 -1.8571  1.8047
  683MOL0     H92142  10.045  11.270   7.453  0.2207  0.8720  0.5107
  683MOL0     H92143  10.192  11.161   7.419  1.1013  0.9241 -1.4294
  683MOL0     H92144  10.321  11.372   7.365 -0.3841 -2.2013 -0.3583
  683MOL0     H92145  10.203  11.467   7.457 -2.1673 -0.2929  0.4757
  683MOL0     H92146  10.160  11.296   7.203  0.6185  1.0155 -2.2364
  683MOL0     H92147  10.034  11.406   7.281  0.6573  0.0849 -0.2519
  683MOL0     H92148  10.114  11.493   7.054  0.3853  3.3150 -1.2667
  683MOL0     H92149  10.133  11.607   7.180  1.3431  1.2848 -1.9293
  683MOL0     H92150  10.374  11.534   7.228 -0.0710 -0.8647 -0.5285
  683MOL0     H92151  10.363  11.414   7.103 -1.1500 -1.1406  1.1085
  683MOL0     H92152  10.305  11.713   7.041  1.1144  0.5085 -0.4367
  683MOL0     H92153  10.336  11.580   6.929  0.8716 -1.6713  1.0248
  683MOL0     H92154  10.543  11.539   7.025 -0.8259 -0.3637 -1.3124
  683MOL0     H92155  10.548  11.696   6.927  0.2108 -0.4424 -0.1419
  683MOL0     H92156  10.663  11.906   7.031  0.3099  1.5949  0.5323
  683MOL0     H92157  10.712  12.040   7.355 -0.2048 -0.1836 -0.4117
  683MOL0     H92158  10.841  11.927   7.400  0.9371  1.1460  0.6933
  683MOL0     H92159  10.851  12.057   7.125  0.6297 -0.9055  0.0598
  683MOL0     H92160  10.941  12.105   7.265 -0.7861  0.5689  1.7175
  683MOL0     H92161  10.938  11.825   7.129  1.7313 -0.9825 -0.3513
  683MOL0     H92162  11.045  11.867   7.275  0.9867  0.1507  0.8493
  683MOL0     H92163  11.117  12.068   7.162  1.1793  1.9569 -1.4718
  683MOL0     H92164  11.072  12.000   7.003  0.8856 -0.5414  0.1553
  683MOL0     H92165  11.435  11.740   7.080  6.2944  0.4546  0.1414
  683MOL0     H92166  11.597  11.713   7.258 -1.7050 -1.7619  0.4313
  683MOL0     H92167  11.851  12.000   7.701 -0.8785  2.1638  0.2631
  683MOL0     H92168  11.931  11.943   7.925  0.3854 -0.0856 -1.5988
  683MOL0     H92169  11.971  11.769   8.073  1.1174  1.1280 -0.2115
  683MOL0     H92170  11.947  11.913   8.165 -2.2190  1.3751 -1.4415
  683MOL0     H92171  11.840  11.755   8.350 -0.8997  0.5328 -0.5627
  683MOL0     H92172  11.903  11.621   8.243 -1.9071 -1.2086  3.9822
  683MOL0     H92173  12.118  11.791   8.272  1.8272 -0.1119  1.3760
  683MOL0     H92174  12.061  11.787   8.426  0.8070 -1.8272  0.3112
  683MOL0     H92175  12.103  11.532   8.270  1.5431 -0.8084 -0.2233
  683MOL0     H92176  12.053  11.533   8.435  4.3335 -0.8667  0.8847
  683MOL0     H92177  12.308  11.682   8.396 -0.7420 -0.5760 -1.8372
  683MOL0     H92178  12.303  11.496   8.369  0.4128 -0.7534 -0.9895
  683MOL0     H92179  12.238  11.648   8.608 -1.9587  0.2651 -1.9717
  683MOL0     H92180  12.202  11.471   8.584 -2.0638 -0.0261 -5.4497
  683MOL0     H92181  12.483  11.598   8.546  2.2039 -1.4269  4.2418
  683MOL0     H92182  12.441  11.430   8.511  0.3290  0.1727 -0.8514
  683MOL0     H92183  12.559  11.453   8.723 -0.4979 -3.0898 -4.6619
  683MOL0     H92184  12.431  11.559   8.792  0.3996 -1.7612  2.7411
  683MOL0     H92185  11.557  11.770   8.031  0.2387  1.9165  1.3739
  683MOL0     H92186  11.467  11.814   7.800  1.8286 -2.1636 -1.2951
  683MOL0     H92187  11.383  12.006   7.494  0.9930 -1.1113  0.1770
  683MOL0     H92188  11.215  12.026   7.333  1.6984  2.2324  0.4557
  683MOL0     H92189  10.129  10.851   7.720 -1.2720  2.1618 -1.7489
  683MOL0     H92190  10.098  10.776   7.962 -1.0078  0.1448 -0.0991
  683MOL0     H92191  10.088  11.135   8.473  0.0755  0.5855 -0.3163
  683MOL0     H92192   9.952  11.073   8.665  0.3601  0.1879 -0.5405
  683MOL0     H92193   9.771  10.692   8.836  0.6766  1.0864  0.7981
  683MOL0     H92194   9.775  10.694   8.667  3.6381 -0.4368 -0.2465
  683MOL0     H92195   9.706  10.967   8.742 -0.7581  1.6396 -0.0552
  683MOL0     H92196   9.624  10.868   8.856 -0.8424  0.5700 -0.1036
  683MOL0     H92197   9.465  10.892   8.680  0.7114  1.3157 -2.8701
  683MOL0     H92198   9.539  10.723   8.658  0.5582 -0.6829  0.7278
  683MOL0     H92199   9.494  10.873   8.442  0.1734 -1.3863 -0.2190
  683MOL0     H92200   9.626  10.976   8.502 -0.9096  1.0067 -0.0501
  683MOL0     H92201   9.828  10.638   8.350  1.9894  1.5973 -0.0130
  683MOL0     H92202  10.031  10.657   8.602  0.8407 -1.5299 -1.2174
  683MOL0     H92203  10.079  10.650   8.277  1.7409 -1.5233  0.5549
  683MOL0     H92204  10.238  10.702   8.300  0.2690 -1.5989  0.6218
  683MOL0     H92205  10.165  10.581   8.412 -1.7289 -2.1058 -2.5073
  684MOL0     O92206  10.635  10.320   9.630 -0.5375  0.0702  0.1554
  684MOL0     C92207  10.616  10.241   9.537  0.1980  0.8858  0.5361
  684MOL0     O92208  10.571  10.281   9.414 -0.2689  0.2571  1.1344
  684MOL0     C92209  10.572  10.412   9.372  0.9363 -0.5702 -0.5515
  684MOL0     C92210  10.482  10.501   9.439  0.5250 -0.0600  0.4675
  684MOL0     C92211  10.477  10.627   9.385  0.0333 -0.1781 -0.3461
  684MOL0     C92212  10.559  10.671   9.279 -0.1312 -0.2635 -0.1312
  684MOL0     O92213  10.557  10.804   9.234 -0.1421  0.6413  0.0142
  684MOL0     C92214  10.470  10.905   9.287 -0.2754  0.4800  0.2673
  684MOL0     C92215  10.506  11.031   9.201  0.1529 -0.0279  0.6373
  684MOL0     C92216  10.389  11.123   9.223 -0.2503  1.2754 -0.3312
  684MOL0     C92217  10.411  11.247   9.135 -0.5081 -0.2174 -0.2247
  684MOL0     C92218  10.338  11.369   9.202 -0.3975 -0.3293  0.9852
  684MOL0     C92219  10.362  11.492   9.114 -0.1472 -0.5802 -0.4575
  684MOL0     C92220  10.280  11.609   9.185 -0.1427 -0.2932  0.0264
  684MOL0     C92221  10.289  11.745   9.120 -0.3798  0.0178  0.5733
  684MOL0     N92222  10.204  11.743   9.000  0.1920 -0.1699 -0.4512
  684MOL0     C92223  10.067  11.752   9.011  0.5402 -0.1735  0.5514
  684MOL0     C92224  10.022  11.751   8.878  0.3255  0.2393 -0.1139
  684MOL0     C92225   9.883  11.749   8.818 -0.1590  0.9238 -0.6458
  684MOL0     C92226   9.860  11.899   8.779  0.0459  0.5282  0.3048
  684MOL0     C92227   9.746  11.921   8.681 -0.4053 -1.0018 -0.0976
  684MOL0     C92228   9.734  12.068   8.651  0.3635  0.0225  0.1713
  684MOL0     O92229   9.706  12.150   8.772 -0.0844  0.5479  0.3572
  684MOL0     C92230   9.679  12.282   8.741 -0.9717  0.4611  0.0084
  684MOL0     C92231   9.770  12.358   8.659  0.5405  0.0648  0.4558
  684MOL0     C92232   9.754  12.485   8.633 -0.6050  0.7269 -0.3066
  684MOL0     C92233   9.646  12.547   8.698 -0.1054 -0.5919  0.7025
  684MOL0     C92234   9.631  12.689   8.677 -0.9275  0.2228 -0.3668
  684MOL0     O92235   9.741  12.742   8.620  0.5934 -0.8916 -0.2869
  684MOL0     C92236   9.765  12.880   8.590  0.1829  0.3497 -1.1197
  684MOL0     C92237   9.664  12.974   8.574  0.3835 -1.3296  0.3495
  684MOL0     C92238   9.694  13.107   8.547 -0.9869 -0.2207  0.1999
  684MOL0     C92239   9.827  13.146   8.524  0.4755  0.8135 -0.0418
  684MOL0     O92240   9.853  13.275   8.506  0.8958 -0.3543 -0.3126
  684MOL0     C92241   9.945  13.331   8.596 -0.1161 -0.6770  0.8930
  684MOL0     C92242  10.057  13.415   8.528 -0.0907 -0.7748 -0.4495
  684MOL0     C92243  10.148  13.491   8.630  0.1033  0.2701  0.1478
  684MOL0     C92244  10.231  13.384   8.709 -0.3003  1.1676 -0.2048
  684MOL0     C92245  10.352  13.426   8.800  0.5208 -0.4443 -0.1067
  684MOL0     C92246  10.491  13.453   8.741 -0.0616  0.0623  0.3697
  684MOL0     C92247  10.500  13.576   8.660  0.0598 -0.2891 -1.1421
  684MOL0     C92248  10.643  13.623   8.628 -1.3085  0.0837 -0.7661
  684MOL0    Cl92249  10.638  13.798   8.607  0.2360 -0.3632 -0.6019
  684MOL0     C92250   9.935  13.051   8.546  1.1484  0.3438  1.2196
  684MOL0     C92251   9.898  12.913   8.570  0.6526 -0.6221 -0.1560
  684MOL0     O92252   9.543  12.753   8.729 -0.0619 -0.3418 -0.2256
  684MOL0     C92253   9.564  12.484   8.797  0.1999 -0.2419 -0.5616
  684MOL0     C92254   9.568  12.348   8.807  0.0707  0.6153 -0.6321
  684MOL0     N92255  10.130  11.740   8.798  0.5946  0.2710  0.0428
  684MOL0     N92256  10.237  11.739   8.871 -0.6211  0.9044  0.5229
  684MOL0     C92257  10.644  10.588   9.220  0.8253  1.4583  0.0625
  684MOL0     C92258  10.649  10.457   9.267  0.1692  0.2825  0.1186
  684MOL0     C92259  10.618  10.094   9.572  0.8111 -0.7991  0.0363
  684MOL0     C92260  10.603  10.004   9.466 -0.8375  0.3903  0.2612
  684MOL0     C92261  10.593   9.863   9.486  0.4789 -0.6834  1.0747
  684MOL0     C92262  10.617   9.808   9.612  0.3289  0.0583 -0.5185
  684MOL0     O92263  10.627   9.665   9.622 -0.2575 -0.1631  0.0465
  684MOL0     C92264  10.576   9.595   9.512  0.7198  0.8222 -0.7211
  684MOL0     C92265  10.578   9.449   9.551 -0.9837 -0.4323  0.5272
  684MOL0     C92266  10.530   9.358   9.433 -0.6094  1.0730 -0.1496
  684MOL0     C92267  10.516   9.206   9.488  0.3509 -0.6892  0.3269
  684MOL0     C92268  10.386   9.191   9.564 -0.5891  0.3609 -0.0035
  684MOL0     C92269  10.282   9.167   9.617  0.1319 -1.1054 -0.0984
  684MOL0     C92270  10.653   9.895   9.717  0.5747  0.1493 -0.1932
  684MOL0     C92271  10.647  10.035   9.697  0.7806  0.6266 -0.7753
  684MOL0     C92272  10.659  10.118   9.830  0.9521 -0.4553 -0.0543
  684MOL0     H92273  10.425  10.467   9.524  1.0689 -3.3276 -0.3656
  684MOL0     H92274  10.428  10.707   9.440 -2.0109  0.9850 -3.5649
  684MOL0     H92275  10.367  10.868   9.287 -0.9572  2.1711 -1.4759
  684MOL0     H92276  10.508  10.913   9.389  0.3073  0.4792  0.0552
  684MOL0     H92277  10.513  11.004   9.095  2.2066  0.3509  0.6373
  684MOL0     H92278  10.607  11.058   9.236  0.6604 -0.4337 -0.4730
  684MOL0     H92279  10.400  11.167   9.323 -2.5427 -2.2268  1.7061
  684MOL0     H92280  10.292  11.077   9.201  1.3707 -3.2841  0.9013
  684MOL0     H92281  10.514  11.280   9.120 -1.7345  2.1843 -5.3132
  684MOL0     H92282  10.372  11.216   9.038  0.3350  1.3585 -1.0922
  684MOL0     H92283  10.231  11.344   9.207  0.2822 -4.0441 -0.3307
  684MOL0     H92284  10.367  11.393   9.305  0.4418  3.7355 -0.0311
  684MOL0     H92285  10.468  11.517   9.109 -0.1208 -0.3936  0.7291
  684MOL0     H92286  10.320  11.470   9.015 -0.5895 -1.4484 -0.0867
  684MOL0     H92287  10.329  11.622   9.283  0.2544  1.1016 -0.3285
  684MOL0     H92288  10.177  11.586   9.213 -0.5828  1.3669 -0.0721
  684MOL0     H92289  10.262  11.821   9.194  0.7681 -1.2041  2.3440
  684MOL0     H92290  10.396  11.749   9.099 -0.6258 -0.7392 -0.9874
  684MOL0     H92291  10.009  11.753   9.102  1.7545 -1.7993  1.4119
  684MOL0     H92292   9.883  11.684   8.730  2.7540 -0.2125  0.0654
  684MOL0     H92293   9.807  11.703   8.881 -0.8121  0.2671 -1.8800
  684MOL0     H92294   9.842  11.958   8.869  0.1790  1.1149 -0.0506
  684MOL0     H92295   9.952  11.934   8.732 -0.4286  0.2829 -0.8528
  684MOL0     H92296   9.648  11.886   8.713 -0.4792  0.5579  1.6205
  684MOL0     H92297   9.761  11.870   8.586 -3.7629  0.2605 -1.4606
  684MOL0     H92298   9.650  12.078   8.582  1.0356 -0.7733 -0.7833
  684MOL0     H92299   9.822  12.093   8.592  0.3222 -1.6439 -0.6658
  684MOL0     H92300   9.851  12.311   8.602  1.5228  1.2527  0.8189
  684MOL0     H92301   9.820  12.538   8.565  1.7791 -0.2323  1.1350
  684MOL0     H92302   9.558  12.956   8.589  0.0299  0.3874  0.1520
  684MOL0     H92303   9.614  13.179   8.537 -2.5196 -1.5791  1.8103
  684MOL0     H92304   9.892  13.399   8.663  2.1026 -0.5280  2.6320
  684MOL0     H92305   9.984  13.250   8.659  0.8285  0.3971  1.7122
  684MOL0     H92306  10.124  13.356   8.465  2.4555 -1.0670  2.3422
  684MOL0     H92307  10.000  13.488   8.470 -2.3395 -1.4470  0.8082
  684MOL0     H92308  10.226  13.541   8.572  0.5227 -1.0146 -0.4493
  684MOL0     H92309  10.090  13.551   8.699 -0.6460 -0.3972  0.1119
  684MOL0     H92310  10.281  13.306   8.650  1.3920 -0.4039  3.0634
  684MOL0     H92311  10.170  13.331   8.782  0.0875  1.5979  0.4364
  684MOL0     H92312  10.362  13.344   8.872 -2.7768 -0.8313  0.0588
  684MOL0     H92313  10.323  13.520   8.848  0.6900 -0.4313 -0.0278
  684MOL0     H92314  10.557  13.458   8.828 -2.3198  1.4065  2.0956
  684MOL0     H92315  10.510  13.362   8.683 -4.1763 -1.2337  0.7708
  684MOL0     H92316  10.460  13.658   8.721 -0.5345 -1.1961 -0.2893
  684MOL0     H92317  10.447  13.574   8.565 -1.3188 -0.1321 -0.4009
  684MOL0     H92318  10.712  13.586   8.704 -1.8876  2.6930  1.1704
  684MOL0     H92319  10.686  13.585   8.535 -0.6175  0.3720 -0.5705
  684MOL0     H92320  10.042  13.070   8.541  1.2168  0.1704  2.0123
  684MOL0     H92321   9.979  12.841   8.583  1.1948 -0.5508 -2.6461
  684MOL0     H92322   9.506  12.542   8.868  2.4004  2.6722 -0.9446
  684MOL0     H92323   9.505  12.282   8.866  0.3499 -0.4697 -1.5187
  684MOL0     H92324  10.725  10.621   9.157  1.4487 -0.8250 -0.4259
  684MOL0     H92325  10.705  10.377   9.220 -0.2936 -0.0277  0.0798
  684MOL0     H92326  10.593  10.049   9.368 -2.1768 -0.7378 -0.1466
  684MOL0     H92327  10.564   9.812   9.395 -0.7912 -0.6314  1.4286
  684MOL0     H92328  10.638   9.601   9.422  2.2209  1.0511  0.3051
  684MOL0     H92329  10.473   9.628   9.499 -1.0601 -3.7395 -0.1991
  684MOL0     H92330  10.508   9.428   9.633  0.1099  0.4153  1.7039
  684MOL0     H92331  10.680   9.425   9.580 -0.2133  0.8409 -1.0090
  684MOL0     H92332  10.597   9.339   9.349  0.0054 -1.4084  0.8122
  684MOL0     H92333  10.441   9.394   9.381 -0.6281 -0.5585 -1.3039
  684MOL0     H92334  10.508   9.147   9.396  0.1880 -2.2941  1.3322
  684MOL0     H92335  10.609   9.167   9.531  0.4322 -2.1180 -1.0610
  684MOL0     H92336  10.192   9.134   9.665  0.1264  0.5316  1.1111
  684MOL0     H92337  10.671   9.854   9.816 -0.2790  0.2001 -0.0080
  684MOL0     H92338  10.756  10.166   9.816  0.9596 -1.0591 -2.5679
  684MOL0     H92339  10.587  10.200   9.843  2.5074  0.8490  0.6081
  684MOL0     H92340  10.675  10.057   9.919 -2.0274  1.3412  1.8998
  685MOL0     O92341   7.835   1.936   5.734 -0.1089 -0.1083 -0.1185
  685MOL0     C92342   7.808   1.833   5.673 -0.6422  0.5507 -0.0732
  685MOL0     O92343   7.731   1.822   5.561 -0.7116  0.4152 -0.0566
  685MOL0     C92344   7.635   1.909   5.531  0.3828  0.8129  0.6645
  685MOL0     C92345   7.625   1.954   5.399  0.8415  0.0824 -0.8866
  685MOL0     C92346   7.526   2.051   5.377 -0.1765 -0.9442  0.0514
  685MOL0     C92347   7.446   2.104   5.478  0.7998 -0.1698  0.0502
  685MOL0     O92348   7.354   2.200   5.431  0.6024  0.4438 -0.2659
  685MOL0     C92349   7.260   2.261   5.523  0.9376  0.1494 -0.5546
  685MOL0     C92350   7.158   2.344   5.458  0.1007 -1.4001  0.4891
  685MOL0     C92351   7.220   2.448   5.356  0.8818 -0.3497 -1.2268
  685MOL0     C92352   7.101   2.537   5.307  0.5867  0.1469 -0.0538
  685MOL0     C92353   7.153   2.610   5.182 -0.3599 -0.5249 -0.6599
  685MOL0     C92354   7.227   2.744   5.187 -0.8609 -0.2066  0.1234
  685MOL0     C92355   7.380   2.734   5.195 -0.4032 -0.4936  0.1497
  685MOL0     C92356   7.459   2.874   5.191  0.1951 -0.0546  0.2777
  685MOL0     N92357   7.444   2.967   5.076  0.3666  0.3867 -0.1879
  685MOL0     C92358   7.409   2.918   4.955  0.0674 -0.1813  0.0534
  685MOL0     C92359   7.383   3.022   4.872  0.6794 -0.1123 -0.4908
  685MOL0     C92360   7.365   3.021   4.721 -0.0079  1.1607 -0.2781
  685MOL0     C92361   7.467   2.934   4.651 -0.2329 -0.6541  0.1563
  685MOL0     C92362   7.477   3.007   4.509  0.6748  0.2611 -0.4934
  685MOL0     C92363   7.591   2.940   4.443  0.1465  0.0082 -0.1582
  685MOL0     O92364   7.565   2.799   4.423  0.3547 -0.4265  0.7654
  685MOL0     C92365   7.658   2.710   4.461 -0.2671  0.5345  1.3878
  685MOL0     C92366   7.798   2.729   4.444  0.4751 -0.8238 -0.1691
  685MOL0     C92367   7.887   2.630   4.484 -0.0599 -0.7271  0.2608
  685MOL0     C92368   7.840   2.504   4.536  0.8539 -0.0239  0.8630
  685MOL0     C92369   7.926   2.387   4.566 -0.6702 -0.0859 -0.4177
  685MOL0     O92370   8.064   2.408   4.560 -0.2955  0.3587 -0.4443
  685MOL0     C92371   8.133   2.321   4.638 -0.1740  0.1180 -0.0741
  685MOL0     C92372   8.248   2.271   4.574 -0.4945 -0.0372 -0.0073
  685MOL0     C92373   8.327   2.174   4.640 -0.7089  1.0331 -1.2857
  685MOL0     C92374   8.300   2.134   4.776 -0.6152 -0.7591  0.4841
  685MOL0     O92375   8.383   2.055   4.852 -0.0455  0.0798 -0.5199
  685MOL0     C92376   8.481   1.969   4.781  0.6016  0.8255 -0.5151
  685MOL0     C92377   8.528   1.859   4.883 -0.6430  0.7640 -0.1658
  685MOL0     C92378   8.638   1.760   4.828 -0.0996 -1.0433 -0.2222
  685MOL0     C92379   8.571   1.644   4.755 -0.9684  0.2137  0.2309
  685MOL0     C92380   8.674   1.555   4.676 -0.1008  0.3319  0.9761
  685MOL0     C92381   8.805   1.530   4.758 -0.3961  0.6905  1.4788
  685MOL0     C92382   8.779   1.435   4.872 -0.7623 -0.2667 -0.3979
  685MOL0     C92383   8.912   1.371   4.920 -0.9490  0.6761  0.9514
  685MOL0    Cl92384   9.001   1.477   5.032  0.5704  0.2289  0.1234
  685MOL0     C92385   8.188   2.186   4.829  0.2292 -0.3929  0.4110
  685MOL0     C92386   8.106   2.284   4.767 -0.2483  0.7644  0.1292
  685MOL0     O92387   7.879   2.279   4.596 -0.0481  0.2478  0.3167
  685MOL0     C92388   7.700   2.489   4.542 -0.1101  0.5249  0.0976
  685MOL0     C92389   7.613   2.592   4.515  0.2665 -0.2700  0.6644
  685MOL0     N92390   7.399   3.134   4.961 -0.5189 -0.7374  0.5560
  685MOL0     N92391   7.431   3.107   5.084  0.1040  0.8269  0.2370
  685MOL0     C92392   7.460   2.057   5.605 -0.8507 -0.7986 -0.5711
  685MOL0     C92393   7.540   1.946   5.627 -1.2657  0.2097  0.1064
  685MOL0     C92394   7.866   1.716   5.739 -0.3199 -0.3478  0.4926
  685MOL0     C92395   7.909   1.619   5.639 -0.2340 -0.0770 -0.2966
  685MOL0     C92396   7.960   1.497   5.680 -0.5980  0.1912 -0.4476
  685MOL0     C92397   7.983   1.477   5.811  0.9043  0.1433 -0.0555
  685MOL0     O92398   8.025   1.352   5.846  0.5998 -0.0044 -0.0673
  685MOL0     C92399   8.167   1.325   5.840 -0.0150  0.4095 -0.3875
  685MOL0     C92400   8.202   1.250   5.970  1.0103 -0.5388  0.5722
  685MOL0     C92401   8.214   1.348   6.087 -0.0686 -0.0537 -0.7022
  685MOL0     C92402   8.214   1.276   6.227 -0.4388 -0.1233  1.1158
  685MOL0     C92403   8.081   1.230   6.265 -1.0574 -0.0714  0.8838
  685MOL0     C92404   7.992   1.171   6.321 -0.4294  0.5728 -0.5920
  685MOL0     C92405   7.960   1.571   5.907  0.1260  0.3010 -0.6832
  685MOL0     C92406   7.901   1.692   5.872  0.1096 -0.0094 -0.2986
  685MOL0     C92407   7.869   1.794   5.979 -0.7781 -1.3261 -0.4700
  685MOL0     H92408   7.694   1.914   5.325  1.4393  0.2536 -0.4298
  685MOL0     H92409   7.515   2.083   5.273  0.7655  2.2180  0.8135
  685MOL0     H92410   7.204   2.192   5.587  0.0695 -0.2688 -1.7324
  685MOL0     H92411   7.324   2.330   5.579  3.4734  1.1106 -4.3091
  685MOL0     H92412   7.102   2.405   5.529 -0.6368 -0.3547 -0.9437
  685MOL0     H92413   7.076   2.289   5.411 -0.5354 -0.6647  0.7268
  685MOL0     H92414   7.262   2.400   5.268  0.3912 -0.7506 -1.2479
  685MOL0     H92415   7.284   2.519   5.408  0.9170 -2.4083  1.8106
  685MOL0     H92416   7.018   2.471   5.283  0.2299  0.4819  0.2398
  685MOL0     H92417   7.077   2.611   5.385  1.0494  1.0981 -0.7885
  685MOL0     H92418   7.200   2.532   5.121 -0.6486  0.1891 -1.8250
  685MOL0     H92419   7.057   2.639   5.139 -2.0203 -2.6600  1.2996
  685MOL0     H92420   7.201   2.800   5.097 -2.1113  2.5757  2.0588
  685MOL0     H92421   7.189   2.819   5.258 -3.0933  1.3222 -2.5153
  685MOL0     H92422   7.422   2.674   5.114 -1.9067  0.0773 -1.0968
  685MOL0     H92423   7.410   2.687   5.289 -1.5556 -0.1646  0.7023
  685MOL0     H92424   7.442   2.919   5.289  2.2730 -0.7405  1.0030
  685MOL0     H92425   7.565   2.847   5.192  0.0691 -0.7146  2.7696
  685MOL0     H92426   7.428   2.819   4.916  1.3515  0.6514 -1.5616
  685MOL0     H92427   7.267   2.999   4.680 -1.1050  2.0418  1.7106
  685MOL0     H92428   7.379   3.128   4.705  0.7339  1.7918  3.5582
  685MOL0     H92429   7.555   2.933   4.716 -2.2605  1.3439  3.2538
  685MOL0     H92430   7.430   2.830   4.653 -2.5817  0.1182  1.5795
  685MOL0     H92431   7.510   3.110   4.524  2.0898 -0.2280 -0.1205
  685MOL0     H92432   7.386   2.997   4.448  0.8013  0.1404 -0.6637
  685MOL0     H92433   7.668   2.953   4.520  1.6311 -1.1479 -1.3874
  685MOL0     H92434   7.632   2.983   4.351 -0.2525 -1.7331 -1.2003
  685MOL0     H92435   7.839   2.824   4.411  1.5773 -1.3041 -0.2358
  685MOL0     H92436   7.990   2.662   4.473 -0.8837  1.8315 -0.8618
  685MOL0     H92437   8.277   2.307   4.476 -3.5314 -0.3073 -1.1093
  685MOL0     H92438   8.401   2.134   4.572  0.1313  0.7238 -0.2328
  685MOL0     H92439   8.435   1.909   4.702 -1.1347 -0.2876  1.2559
  685MOL0     H92440   8.563   2.031   4.742 -1.9630  5.2105  0.3794
  685MOL0     H92441   8.577   1.913   4.964  2.6128 -0.9648 -0.7889
  685MOL0     H92442   8.450   1.792   4.920  2.1276 -1.8933  1.4399
  685MOL0     H92443   8.705   1.802   4.753  0.4652  2.2347  1.9190
  685MOL0     H92444   8.698   1.730   4.914 -1.7588 -3.4019  0.2153
  685MOL0     H92445   8.498   1.684   4.684  0.1617  0.1942 -0.9785
  685MOL0     H92446   8.523   1.583   4.831 -0.7158  2.0612  1.9607
  685MOL0     H92447   8.702   1.618   4.592  2.3954  1.1883  2.3413
  685MOL0     H92448   8.647   1.461   4.628 -2.0743  0.6232  1.4030
  685MOL0     H92449   8.881   1.499   4.686 -0.3975  1.6031  1.0722
  685MOL0     H92450   8.846   1.623   4.798  0.2283  2.4460 -2.8175
  685MOL0     H92451   8.714   1.352   4.842 -3.3683  1.2053  0.8366
  685MOL0     H92452   8.736   1.480   4.962 -3.1854 -2.0152 -0.5713
  685MOL0     H92453   8.891   1.279   4.975  0.2641 -0.2843 -0.1505
  685MOL0     H92454   8.951   1.329   4.827 -4.5239 -2.7635  0.7383
  685MOL0     H92455   8.172   2.170   4.935 -0.1684  0.4180  0.4841
  685MOL0     H92456   8.020   2.318   4.823 -0.3106 -0.5415  0.8842
  685MOL0     H92457   7.660   2.398   4.585 -2.7999  1.1581 -0.8249
  685MOL0     H92458   7.505   2.580   4.526  0.3060 -1.9107 -0.3365
  685MOL0     H92459   7.398   2.092   5.688  0.7424  1.5629 -0.2822
  685MOL0     H92460   7.558   1.906   5.726 -2.2396 -1.7156 -0.4529
  685MOL0     H92461   7.909   1.634   5.532  2.3203  1.3394 -0.1964
  685MOL0     H92462   7.984   1.428   5.600  0.6743  0.0177  0.0629
  685MOL0     H92463   8.224   1.418   5.835  0.5408  0.2402  1.8978
  685MOL0     H92464   8.187   1.275   5.745  0.9857 -0.3586  0.2060
  685MOL0     H92465   8.301   1.208   5.948  0.7545  0.1801 -2.4154
  685MOL0     H92466   8.119   1.180   5.983  0.0844 -0.8468 -4.6890
  685MOL0     H92467   8.139   1.427   6.079 -2.2462 -1.9488  0.0208
  685MOL0     H92468   8.316   1.389   6.084 -0.1654  0.2822  0.3214
  685MOL0     H92469   8.298   1.208   6.220  2.4557  3.3235 -2.1995
  685MOL0     H92470   8.257   1.344   6.301  3.3168  0.0555 -0.9956
  685MOL0     H92471   7.915   1.115   6.369 -0.5588  2.9217  2.2200
  685MOL0     H92472   7.962   1.554   6.014 -0.1552  0.7858 -0.5940
  685MOL0     H92473   7.882   1.746   6.076  0.9470 -0.4410 -0.2446
  685MOL0     H92474   7.934   1.882   5.981 -1.6197 -0.6973  1.0410
  685MOL0     H92475   7.764   1.826   5.975 -0.5390 -0.3436  0.7709
  686MOL0     O92476   4.807  10.283  10.126  0.6161  0.3546  0.2434
  686MOL0     C92477   4.739  10.371  10.173 -0.8219  0.4295 -0.9755
  686MOL0     O92478   4.788  10.469  10.256 -0.3237  0.6372  1.1409
  686MOL0     C92479   4.916  10.446  10.300  0.2331  0.2404  0.8494
  686MOL0     C92480   4.935  10.341  10.391  0.1667 -0.1713 -0.3052
  686MOL0     C92481   5.071  10.321  10.438  0.1112  0.6693  0.2591
  686MOL0     C92482   5.175  10.401  10.407  0.3242 -0.4811 -0.3108
  686MOL0     O92483   5.307  10.374  10.438  0.2768 -0.0589  0.3327
  686MOL0     C92484   5.337  10.263  10.517  0.1162 -0.0308  0.2807
  686MOL0     C92485   5.488  10.262  10.547 -0.7158  0.1527  0.1666
  686MOL0     C92486   5.584  10.312  10.443 -0.0786  0.9223 -0.0259
  686MOL0     C92487   5.580  10.200  10.331 -0.2371 -0.9143  0.5148
  686MOL0     C92488   5.645  10.246  10.201 -0.6860 -0.4212 -0.2385
  686MOL0     C92489   5.779  10.312  10.200 -1.9227  0.7410 -0.1893
  686MOL0     C92490   5.899  10.252  10.272 -0.1104  0.2949 -0.1702
  686MOL0     C92491   5.911  10.108  10.229 -0.3791 -0.0470 -1.0490
  686MOL0     N92492   6.042  10.047  10.245  0.3221  0.5007 -0.2025
  686MOL0     C92493   6.157  10.092  10.196  0.2597  0.7934  0.2013
  686MOL0     C92494   6.260   9.996  10.216  0.3174  0.1737 -0.0354
  686MOL0     C92495   6.409  10.006  10.188 -0.3095  0.6368  0.3611
  686MOL0     C92496   6.500   9.898  10.249  0.3241  0.4606  0.2863
  686MOL0     C92497   6.468   9.746  10.225 -0.4398 -0.0563  0.3530
  686MOL0     C92498   6.413   9.713  10.083  1.2862 -0.3412  0.4297
  686MOL0     O92499   6.439   9.576  10.058  0.3594 -0.3266 -0.2032
  686MOL0     C92500   6.445   9.533   9.923 -0.4959 -0.4509 -0.0955
  686MOL0     C92501   6.517   9.421   9.890  0.5706  0.0765 -0.7483
  686MOL0     C92502   6.535   9.383   9.759  0.2435  0.2964  0.1965
  686MOL0     C92503   6.493   9.465   9.650 -0.2035 -0.2951 -0.4436
  686MOL0     C92504   6.517   9.435   9.512  0.0322 -0.1324 -0.3224
  686MOL0     O92505   6.639   9.374   9.493  0.2139  0.2531  0.4206
  686MOL0     C92506   6.704   9.339   9.378  0.7127 -0.1286 -0.7827
  686MOL0     C92507   6.672   9.371   9.245  0.2157 -0.4926 -0.1935
  686MOL0     C92508   6.747   9.321   9.141  1.1390 -0.1788  0.0313
  686MOL0     C92509   6.849   9.232   9.158 -0.7837  0.7491  0.1032
  686MOL0     O92510   6.907   9.193   9.039  0.3010 -0.6656 -0.0824
  686MOL0     C92511   7.038   9.140   9.042 -0.9736 -0.5243  0.0234
  686MOL0     C92512   7.099   9.188   8.912 -0.7532 -0.5241  0.9509
  686MOL0     C92513   7.239   9.246   8.920  0.4527  0.0099  0.6711
  686MOL0     C92514   7.348   9.145   8.944  0.0274  0.0151 -0.3299
  686MOL0     C92515   7.494   9.211   8.978 -0.9278  0.4226  0.4001
  686MOL0     C92516   7.564   9.229   8.845  0.7444  0.4618  1.1294
  686MOL0     C92517   7.692   9.315   8.855 -0.4293  0.1716  0.0832
  686MOL0     C92518   7.770   9.300   8.727  0.0927  0.2397 -0.0183
  686MOL0    Cl92519   7.907   9.411   8.723 -0.1247  0.1356 -0.6139
  686MOL0     C92520   6.879   9.190   9.292  0.0405 -0.6571 -0.3412
  686MOL0     C92521   6.811   9.254   9.399  0.4864  0.4003 -0.6050
  686MOL0     O92522   6.432   9.468   9.430 -0.1680  0.0097 -0.2644
  686MOL0     C92523   6.419   9.589   9.687 -0.2573  0.0135 -0.5777
  686MOL0     C92524   6.405   9.623   9.818  1.4165  0.6272  0.2965
  686MOL0     N92525   6.186   9.886  10.275 -0.8844  0.1234 -0.3456
  686MOL0     N92526   6.061   9.920  10.282 -0.0126  0.1562 -0.3151
  686MOL0     C92527   5.146  10.513  10.326  0.5912  1.0839  0.1567
  686MOL0     C92528   5.012  10.532  10.281  0.0329 -0.4423  0.2895
  686MOL0     C92529   4.597  10.392  10.135 -0.6125  0.6647  0.3786
  686MOL0     C92530   4.532  10.493  10.207 -0.6375  0.2504  0.2847
  686MOL0     C92531   4.400  10.532  10.182  0.1185 -0.6292  0.3799
  686MOL0     C92532   4.334  10.463  10.077 -0.2185 -1.0618 -0.4905
  686MOL0     O92533   4.205  10.482  10.047  0.7460 -0.6780  0.2323
  686MOL0     C92534   4.185  10.607   9.984  0.0678  0.2501  0.2811
  686MOL0     C92535   4.117  10.712  10.064  0.1629 -0.3249  0.1635
  686MOL0     C92536   3.998  10.653  10.135  0.2930 -0.4793 -0.1214
  686MOL0     C92537   3.901  10.759  10.204 -0.6360  0.0910  0.1762
  686MOL0     C92538   3.802  10.813  10.110 -0.4405 -0.2319  0.0078
  686MOL0     C92539   3.713  10.820  10.030 -1.5955  0.4024 -0.1033
  686MOL0     C92540   4.403  10.381   9.995 -0.0871 -0.5439  0.2025
  686MOL0     C92541   4.534  10.339  10.018 -0.9536  0.2815 -1.1729
  686MOL0     C92542   4.607  10.263   9.912 -0.7533  0.2149  0.7724
  686MOL0     H92543   4.852  10.277  10.420  0.0339  1.4837  3.5863
  686MOL0     H92544   5.077  10.232  10.499 -0.2503 -1.6269 -2.8504
  686MOL0     H92545   5.296  10.279  10.617  0.6582  2.0958  0.1984
  686MOL0     H92546   5.295  10.168  10.482  0.0138  0.0080  0.2961
  686MOL0     H92547   5.517  10.164  10.585 -1.4916 -1.6499 -3.5019
  686MOL0     H92548   5.506  10.330  10.631 -2.4778 -0.9408  1.5147
  686MOL0     H92549   5.680  10.322  10.494 -0.0254  2.2669 -0.3411
  686MOL0     H92550   5.553  10.411  10.408 -2.8583  1.1333  2.5613
  686MOL0     H92551   5.640  10.117  10.368  0.5911  0.8438  3.4525
  686MOL0     H92552   5.473  10.182  10.316 -1.3447  2.9720  2.3638
  686MOL0     H92553   5.663  10.157  10.139  0.5749 -0.2280 -0.1819
  686MOL0     H92554   5.558  10.300  10.163 -1.5712 -0.8836  1.0665
  686MOL0     H92555   5.805  10.333  10.096  1.9533 -0.6582  0.3112
  686MOL0     H92556   5.761  10.411  10.242 -1.3193  1.8540 -2.4151
  686MOL0     H92557   5.881  10.264  10.379 -2.1455 -1.6833 -0.2019
  686MOL0     H92558   5.992  10.300  10.241 -0.4506 -0.3691 -2.4826
  686MOL0     H92559   5.848  10.068  10.309 -1.8847  1.5491 -1.3786
  686MOL0     H92560   5.882  10.091  10.125 -1.4850 -0.1899 -0.7279
  686MOL0     H92561   6.180  10.180  10.137  0.0059  3.0387  3.1930
  686MOL0     H92562   6.420  10.000  10.080  3.4396 -2.3583  0.6738
  686MOL0     H92563   6.447  10.105  10.214 -0.5984  1.2633 -1.4600
  686MOL0     H92564   6.597   9.914  10.201 -0.7455  0.8213 -1.9105
  686MOL0     H92565   6.501   9.919  10.356 -1.7215  0.7491  0.3031
  686MOL0     H92566   6.392   9.718  10.299  0.8775 -0.6550  1.5232
  686MOL0     H92567   6.549   9.674  10.240  0.8389  0.8632 -1.7229
  686MOL0     H92568   6.471   9.772  10.011  0.6403  0.2764  0.4042
  686MOL0     H92569   6.306   9.734  10.075  1.2265  0.5228  2.8130
  686MOL0     H92570   6.550   9.350   9.965 -1.8515 -1.2324 -0.7956
  686MOL0     H92571   6.594   9.295   9.739 -0.9136 -0.9817  2.0928
  686MOL0     H92572   6.598   9.451   9.237  2.7720  1.9280 -1.7002
  686MOL0     H92573   6.717   9.356   9.043 -2.2088  2.6628  1.8602
  686MOL0     H92574   7.098   9.172   9.128  0.0033  0.9607 -1.1534
  686MOL0     H92575   7.026   9.032   9.053  0.4688 -0.4893  3.1342
  686MOL0     H92576   7.107   9.105   8.840 -2.4954  0.4657 -0.4734
  686MOL0     H92577   7.039   9.268   8.869  3.2159  3.0356  1.3324
  686MOL0     H92578   7.267   9.282   8.821 -0.2617 -1.7893 -0.2267
  686MOL0     H92579   7.225   9.333   8.986 -0.4184 -0.4828  1.1585
  686MOL0     H92580   7.348   9.087   8.851 -1.1888  1.7018 -1.4474
  686MOL0     H92581   7.325   9.082   9.030 -0.6770  2.1036  1.0863
  686MOL0     H92582   7.560   9.152   9.041 -0.8002 -0.1712 -0.2752
  686MOL0     H92583   7.491   9.313   9.020  1.0657 -0.3559  2.6401
  686MOL0     H92584   7.589   9.134   8.797  0.3228  1.0885 -0.4241
  686MOL0     H92585   7.490   9.286   8.787 -0.8871 -2.6577 -0.0835
  686MOL0     H92586   7.759   9.275   8.932 -0.2646 -1.8759 -1.0786
  686MOL0     H92587   7.676   9.423   8.866 -0.4108  0.4864 -2.3868
  686MOL0     H92588   7.812   9.200   8.716  0.1709  0.1903  0.6764
  686MOL0     H92589   7.705   9.312   8.640 -1.5719  1.5047  1.3260
  686MOL0     H92590   6.965   9.134   9.326  1.5613  1.4125 -0.5771
  686MOL0     H92591   6.847   9.243   9.500 -0.0796 -0.7304 -0.5174
  686MOL0     H92592   6.374   9.650   9.609  0.0638 -1.2562 -1.8091
  686MOL0     H92593   6.362   9.721   9.839  2.9745  1.4384 -0.1531
  686MOL0     H92594   5.228  10.581  10.303  0.9072  0.6823  0.0691
  686MOL0     H92595   4.987  10.616  10.218 -3.7717 -3.1785 -2.3256
  686MOL0     H92596   4.579  10.532  10.297  0.9928 -1.7118  0.3739
  686MOL0     H92597   4.342  10.603  10.241  0.3414 -1.7024  1.9591
  686MOL0     H92598   4.118  10.593   9.899  0.8419 -0.2913 -0.2616
  686MOL0     H92599   4.276  10.652   9.942  0.9848 -0.7032  1.1666
  686MOL0     H92600   4.081  10.790   9.997 -0.8026 -0.8567  0.0442
  686MOL0     H92601   4.198  10.742  10.130  0.7509 -1.1213 -0.1712
  686MOL0     H92602   4.039  10.589  10.214  1.0457 -0.2621 -0.3300
  686MOL0     H92603   3.940  10.591  10.066  0.6495 -2.6991  1.4506
  686MOL0     H92604   3.848  10.711  10.287  2.0144  0.5915  2.2918
  686MOL0     H92605   3.958  10.842  10.245  3.5101 -1.7845 -1.2776
  686MOL0     H92606   3.629  10.814   9.963 -0.9804 -1.1964 -0.7812
  686MOL0     H92607   4.358  10.335   9.907 -0.1794 -0.7189  0.3405
  686MOL0     H92608   4.663  10.175   9.945 -2.3375 -0.0842  2.8769
  686MOL0     H92609   4.541  10.234   9.830 -1.8464  1.2835  1.2472
  686MOL0     H92610   4.687  10.326   9.872  0.8858 -1.7017  0.8814
  687MOL0     O92611   0.079   4.636   3.727 -0.3851 -0.2818 -0.5056
  687MOL0     C92612  -0.031   4.681   3.700  0.3827 -0.5870  0.4250
  687MOL0     O92613  -0.144   4.665   3.777 -0.1881  0.6817  1.3398
  687MOL0     C92614  -0.131   4.616   3.904 -0.0837  0.4166 -0.3696
  687MOL0     C92615  -0.120   4.707   4.013 -0.4125  0.0303 -0.5100
  687MOL0     C92616  -0.094   4.656   4.142  0.5935 -0.7019 -0.0582
  687MOL0     C92617  -0.099   4.522   4.168  0.1285  1.0572  0.5975
  687MOL0     O92618  -0.091   4.492   4.300 -0.6263  0.2919 -0.1520
  687MOL0     C92619  -0.066   4.354   4.341  1.0632 -0.2234 -0.4782
  687MOL0     C92620  -0.096   4.325   4.493 -0.2846  0.2931  0.4904
  687MOL0     C92621   0.016   4.376   4.588  0.0961  0.2626  0.6222
  687MOL0     C92622  -0.028   4.348   4.729  0.2733 -0.0493 -0.7138
  687MOL0     C92623   0.047   4.413   4.845 -0.4362 -0.2651  0.3081
  687MOL0     C92624  -0.039   4.376   4.973 -0.1498 -0.7501  0.3707
  687MOL0     C92625   0.047   4.411   5.089  0.0199  0.0126  0.3151
  687MOL0     C92626   0.044   4.561   5.131 -0.5442  0.4299 -0.9732
  687MOL0     N92627   0.126   4.604   5.248  0.6307  0.8518  0.3469
  687MOL0     C92628   0.255   4.657   5.231  0.5121 -0.0804  0.2664
  687MOL0     C92629   0.275   4.728   5.341  0.9266  0.2936  1.1842
  687MOL0     C92630   0.371   4.838   5.375 -0.8453  0.8805  0.2985
  687MOL0     C92631   0.505   4.775   5.413  0.3814  0.0175  0.6860
  687MOL0     C92632   0.495   4.680   5.533 -0.8349  0.3152  0.1984
  687MOL0     C92633   0.626   4.628   5.585  0.5611  0.3867 -0.0065
  687MOL0     O92634   0.737   4.724   5.575  0.3770  0.4791  0.3907
  687MOL0     C92635   0.754   4.825   5.663  0.5271  0.5572  0.0942
  687MOL0     C92636   0.686   4.844   5.772 -0.3004 -0.0062  0.8538
  687MOL0     C92637   0.722   4.928   5.878  0.7432 -0.1653 -0.3178
  687MOL0     C92638   0.839   4.994   5.878  0.8584  0.4333  0.7134
  687MOL0     C92639   0.878   5.100   5.982  0.1322  0.0082  0.7083
  687MOL0     O92640   1.012   5.138   5.969 -0.3928  0.5236  0.5140
  687MOL0     C92641   1.053   5.263   6.000  0.5771  0.3621 -0.2247
  687MOL0     C92642   0.969   5.369   6.040 -0.2225  0.0456  0.3855
  687MOL0     C92643   1.022   5.492   6.076 -0.2245  0.0921 -0.1233
  687MOL0     C92644   1.156   5.516   6.071  0.9050 -0.2796 -0.4158
  687MOL0     O92645   1.219   5.626   6.131 -0.0756 -0.5916  0.8074
  687MOL0     C92646   1.221   5.734   6.042 -0.8560  0.2911  0.6213
  687MOL0     C92647   1.184   5.861   6.120  0.5696 -0.0261 -0.9787
  687MOL0     C92648   1.229   5.996   6.054 -0.5308 -0.1629 -0.0183
  687MOL0     C92649   1.373   6.027   6.112 -0.1902 -0.3902 -0.3611
  687MOL0     C92650   1.451   6.111   6.015 -0.1759  0.5602  0.9998
  687MOL0     C92651   1.566   6.174   6.084 -0.2027  0.2826  0.2558
  687MOL0     C92652   1.645   6.266   5.985 -0.3451  0.4221  0.4378
  687MOL0     C92653   1.594   6.405   5.982 -0.2974  0.1777 -0.3440
  687MOL0    Cl92654   1.697   6.525   6.071  0.1740 -0.0278 -0.2910
  687MOL0     C92655   1.242   5.417   6.017  0.3766  0.1952  0.0197
  687MOL0     C92656   1.184   5.297   5.986  0.5348 -0.6899  0.3738
  687MOL0     O92657   0.801   5.137   6.068 -0.1712 -0.0217 -0.7286
  687MOL0     C92658   0.914   4.990   5.752 -0.4568 -0.4024  0.0122
  687MOL0     C92659   0.862   4.905   5.655  1.0551 -0.4400  0.3938
  687MOL0     N92660   0.177   4.690   5.428 -0.4103 -0.1228  0.8619
  687MOL0     N92661   0.077   4.630   5.374  0.0799 -0.0263  0.5071
  687MOL0     C92662  -0.103   4.427   4.065 -0.3703 -0.5629  1.0479
  687MOL0     C92663  -0.124   4.472   3.930  0.7760  0.1564 -0.3664
  687MOL0     C92664  -0.047   4.740   3.564 -0.3239  0.0766  0.6969
  687MOL0     C92665  -0.009   4.665   3.449 -0.3574  0.8881 -0.7186
  687MOL0     C92666  -0.031   4.704   3.317  0.1002  0.1860 -0.2920
  687MOL0     C92667  -0.099   4.824   3.298  0.0199  0.1561  0.3389
  687MOL0     O92668  -0.127   4.880   3.177 -0.2888 -0.1615  0.5352
  687MOL0     C92669  -0.079   4.830   3.050  0.0598 -0.7858  0.0304
  687MOL0     C92670  -0.146   4.890   2.921 -0.9135 -1.0000 -0.2198
  687MOL0     C92671  -0.166   5.043   2.914 -0.5491 -0.2441 -0.2361
  687MOL0     C92672  -0.248   5.084   2.788 -0.2989  0.3310 -0.4649
  687MOL0     C92673  -0.206   5.018   2.665  0.7040  0.0112  0.3704
  687MOL0     C92674  -0.165   4.949   2.569  0.2024  0.0076 -0.6190
  687MOL0     C92675  -0.137   4.897   3.409  0.2834  0.4833  0.6238
  687MOL0     C92676  -0.126   4.855   3.541 -0.4312  0.9575 -0.0483
  687MOL0     C92677  -0.187   4.934   3.655 -0.1560  0.1503 -0.0339
  687MOL0     H92678  -0.098   4.809   3.985  1.2227 -0.3801 -0.8360
  687MOL0     H92679  -0.086   4.723   4.226  2.8762 -0.2457 -0.5703
  687MOL0     H92680  -0.145   4.299   4.288  0.4333 -1.3033  1.4756
  687MOL0     H92681   0.033   4.319   4.310  1.9352 -0.5887  2.4386
  687MOL0     H92682  -0.106   4.220   4.522  3.1886  1.0276  5.5518
  687MOL0     H92683  -0.190   4.378   4.511 -1.3117 -1.3341  0.0580
  687MOL0     H92684   0.055   4.477   4.573  0.0881  0.3781  1.3403
  687MOL0     H92685   0.108   4.320   4.570 -0.9482 -0.4518 -3.4785
  687MOL0     H92686  -0.133   4.380   4.732 -0.6943 -2.9460  0.7277
  687MOL0     H92687  -0.012   4.241   4.743  0.5590  0.2128  1.1437
  687MOL0     H92688   0.152   4.380   4.841 -0.1862  0.6305 -0.9243
  687MOL0     H92689   0.034   4.520   4.830 -0.0455 -0.5294 -2.3848
  687MOL0     H92690  -0.126   4.443   4.975  1.8872  2.1233 -0.3177
  687MOL0     H92691  -0.069   4.271   4.983  3.0962 -1.8149  0.2218
  687MOL0     H92692   0.151   4.378   5.080 -0.2779 -0.7088 -0.6600
  687MOL0     H92693   0.005   4.348   5.168 -2.6684 -0.2760 -1.2383
  687MOL0     H92694   0.079   4.626   5.050 -3.8080  1.5386 -1.6525
  687MOL0     H92695  -0.061   4.591   5.142 -0.2334  0.7384  1.9816
  687MOL0     H92696   0.323   4.654   5.147 -1.6284 -1.0120 -1.5475
  687MOL0     H92697   0.380   4.906   5.290  0.4213 -0.2670 -0.5344
  687MOL0     H92698   0.345   4.903   5.460  4.0927 -0.9080  3.6709
  687MOL0     H92699   0.545   4.709   5.335  0.7486  0.3997  0.5463
  687MOL0     H92700   0.581   4.853   5.428  2.1512 -1.6391  0.6995
  687MOL0     H92701   0.446   4.588   5.500 -1.8384  1.1516 -0.7244
  687MOL0     H92702   0.455   4.724   5.625  3.5228  0.3638  2.3072
  687MOL0     H92703   0.644   4.533   5.535  1.2397  1.2325 -1.4348
  687MOL0     H92704   0.617   4.588   5.686  0.3366  0.3826 -0.0291
  687MOL0     H92705   0.588   4.800   5.786  0.5316 -1.9427  0.8179
  687MOL0     H92706   0.655   4.935   5.964  0.8272 -4.4620  0.2978
  687MOL0     H92707   0.861   5.365   6.054 -0.6425 -2.0058 -2.5830
  687MOL0     H92708   0.961   5.571   6.118  0.3777  0.3645  0.2545
  687MOL0     H92709   1.310   5.740   5.979 -0.4594 -1.2943  0.9967
  687MOL0     H92710   1.149   5.718   5.962 -0.0951  5.9315 -1.6758
  687MOL0     H92711   1.077   5.850   6.136  0.7115 -0.1768 -0.0786
  687MOL0     H92712   1.233   5.855   6.218 -0.3317 -0.8615 -0.5707
  687MOL0     H92713   1.244   5.987   5.946  1.1879 -1.8238  0.3049
  687MOL0     H92714   1.161   6.080   6.072  3.4449  2.9612  2.1726
  687MOL0     H92715   1.437   5.942   6.134 -0.4977 -0.8952 -1.3666
  687MOL0     H92716   1.357   6.079   6.206 -0.6792  0.5783 -0.9591
  687MOL0     H92717   1.390   6.190   5.970  0.5572 -1.4137 -4.1244
  687MOL0     H92718   1.485   6.052   5.930  0.6021  1.3038  0.7768
  687MOL0     H92719   1.538   6.228   6.175  1.0102  0.6182  0.4429
  687MOL0     H92720   1.628   6.089   6.113 -0.3654 -0.0952 -0.5007
  687MOL0     H92721   1.645   6.223   5.885 -0.2670 -0.5030  0.8219
  687MOL0     H92722   1.752   6.269   6.011  0.4461 -0.0994 -2.3988
  687MOL0     H92723   1.580   6.445   5.881  1.3930 -2.7190 -1.8388
  687MOL0     H92724   1.501   6.385   6.037  1.5361  1.0135  3.4446
  687MOL0     H92725   1.351   5.417   6.015  0.5131 -3.4033 -0.2634
  687MOL0     H92726   1.248   5.216   5.952  0.1738 -1.5489  1.6822
  687MOL0     H92727   1.003   5.049   5.736 -1.1466  0.5333 -0.5077
  687MOL0     H92728   0.916   4.873   5.567  1.9736  2.5979 -0.2640
  687MOL0     H92729  -0.096   4.319   4.072  1.8598 -0.4654  0.9702
  687MOL0     H92730  -0.126   4.398   3.851  1.3208  2.1228 -2.3197
  687MOL0     H92731   0.020   4.564   3.473 -2.3288  0.9087  2.3838
  687MOL0     H92732  -0.029   4.636   3.232 -0.6550 -0.2520  0.0307
  687MOL0     H92733  -0.087   4.721   3.046  0.0545 -0.7535 -1.3071
  687MOL0     H92734   0.028   4.853   3.059 -0.2170 -0.0978  2.1132
  687MOL0     H92735  -0.246   4.846   2.916 -2.6837  2.3886  1.7136
  687MOL0     H92736  -0.086   4.864   2.834  0.2155  1.0000 -0.1134
  687MOL0     H92737  -0.069   5.093   2.912  0.5987 -2.3817 -1.0898
  687MOL0     H92738  -0.209   5.077   3.009  1.7174 -2.2734  1.6542
  687MOL0     H92739  -0.356   5.070   2.805 -0.7533  0.7403 -2.7200
  687MOL0     H92740  -0.244   5.193   2.779 -1.4177  0.3182 -1.4678
  687MOL0     H92741  -0.138   4.902   2.476  1.6621 -1.1565  0.3504
  687MOL0     H92742  -0.193   4.986   3.381 -0.9627 -0.6520 -0.6423
  687MOL0     H92743  -0.116   4.935   3.738 -0.3854 -1.4847  0.2038
  687MOL0     H92744  -0.214   5.038   3.634 -3.3709 -0.2461  1.4820
  687MOL0     H92745  -0.275   4.873   3.678  1.3950 -3.4240 -2.7505
  688MOL0     O92746   5.118   8.737   7.521 -0.1605  0.5810  0.6116
  688MOL0     C92747   5.225   8.699   7.574 -0.5583  0.0351  0.4764
  688MOL0     O92748   5.347   8.740   7.539  1.1819 -0.3858  0.6415
  688MOL0     C92749   5.361   8.831   7.440 -0.4805  0.4576 -0.5074
  688MOL0     C92750   5.383   8.780   7.312  0.5939 -1.0565  0.6819
  688MOL0     C92751   5.404   8.863   7.198 -0.3768 -0.5920 -0.2663
  688MOL0     C92752   5.420   9.002   7.217 -0.2634  0.4345  0.5574
  688MOL0     O92753   5.449   9.083   7.111  1.0344  0.1584 -0.4307
  688MOL0     C92754   5.540   9.054   7.014 -0.1993  0.4692  0.8475
  688MOL0     C92755   5.629   9.172   6.996  0.7869 -0.8468 -0.0500
  688MOL0     C92756   5.720   9.169   6.866  0.0953 -0.4091 -0.6815
  688MOL0     C92757   5.809   9.294   6.836  0.5733  0.2348 -0.4730
  688MOL0     C92758   5.914   9.293   6.943 -1.0481  0.1578 -0.8557
  688MOL0     C92759   6.039   9.378   6.915  0.1272  0.1779 -1.1871
  688MOL0     C92760   6.143   9.359   7.033  0.1390  0.3157  0.9099
  688MOL0     C92761   6.208   9.220   7.026 -0.2254  0.3987 -0.2516
  688MOL0     N92762   6.290   9.199   7.148 -0.3413 -0.4540 -0.4635
  688MOL0     C92763   6.397   9.113   7.157  0.5713 -0.0748 -0.7311
  688MOL0     C92764   6.428   9.129   7.296  0.1938 -0.0213  0.0360
  688MOL0     C92765   6.536   9.046   7.354  1.0943 -0.3779  0.0051
  688MOL0     C92766   6.509   8.888   7.384 -0.0241  0.2246  1.0846
  688MOL0     C92767   6.429   8.878   7.518 -0.1001  0.3161  0.3300
  688MOL0     C92768   6.415   8.722   7.566 -1.0468 -0.0090  0.7287
  688MOL0     O92769   6.326   8.734   7.681 -0.6917  0.0195  0.2218
  688MOL0     C92770   6.255   8.622   7.720 -1.1362  0.1510  0.2182
  688MOL0     C92771   6.149   8.642   7.809  0.0799  0.1585  0.5251
  688MOL0     C92772   6.053   8.540   7.836 -0.1450  0.7545 -0.9951
  688MOL0     C92773   6.077   8.411   7.780  0.3255  0.1127  0.6375
  688MOL0     C92774   5.976   8.296   7.797  0.2724 -0.6651 -0.0153
  688MOL0     O92775   6.020   8.167   7.768  0.6476  0.7680 -0.2585
  688MOL0     C92776   5.910   8.077   7.756 -0.0690 -0.2144  1.0110
  688MOL0     C92777   5.895   7.978   7.842 -0.1839 -0.0024  0.2738
  688MOL0     C92778   5.809   7.867   7.811 -0.8029  0.5566 -0.1042
  688MOL0     C92779   5.723   7.870   7.702  0.5610  0.2440  0.3565
  688MOL0     O92780   5.651   7.755   7.664  0.0569 -0.1752 -0.1083
  688MOL0     C92781   5.510   7.780   7.671  0.6084 -0.6519  0.3422
  688MOL0     C92782   5.413   7.666   7.671  0.2788  0.6904 -0.5500
  688MOL0     C92783   5.271   7.720   7.634  0.6783  0.1878  0.9005
  688MOL0     C92784   5.159   7.609   7.600 -0.0044  0.6700  0.6827
  688MOL0     C92785   5.020   7.666   7.582  0.1932  0.3132 -0.2390
  688MOL0     C92786   4.913   7.577   7.526 -0.3891  0.4071  0.8764
  688MOL0     C92787   4.805   7.670   7.472  0.8116  0.4674 -0.1246
  688MOL0     C92788   4.683   7.603   7.421  0.1396 -0.2136 -0.7059
  688MOL0    Cl92789   4.713   7.532   7.275 -0.2721  0.0051  0.5386
  688MOL0     C92790   5.720   7.983   7.621 -0.7222 -0.3378 -0.1971
  688MOL0     C92791   5.820   8.080   7.648 -0.2975 -1.0495  0.1804
  688MOL0     O92792   5.864   8.319   7.834  0.1660 -0.8855 -0.7102
  688MOL0     C92793   6.187   8.384   7.697 -0.1711  0.0032 -1.0335
  688MOL0     C92794   6.277   8.488   7.674 -0.3458  0.2559  0.1184
  688MOL0     N92795   6.345   9.220   7.353 -1.3920  0.4897  0.0445
  688MOL0     N92796   6.266   9.260   7.267  0.1882 -0.0364 -1.0250
  688MOL0     C92797   5.389   9.045   7.350 -0.7252 -0.3716  0.2665
  688MOL0     C92798   5.363   8.969   7.457  0.6234 -0.3091 -0.1546
  688MOL0     C92799   5.226   8.608   7.693  0.4131 -0.0030 -0.7439
  688MOL0     C92800   5.326   8.630   7.790 -0.2748 -1.1393 -0.1902
  688MOL0     C92801   5.340   8.546   7.900 -0.5488  0.2148  0.5030
  688MOL0     C92802   5.260   8.434   7.917 -0.1022 -0.0807  0.3978
  688MOL0     O92803   5.281   8.334   8.012 -0.2586 -0.1743  0.7451
  688MOL0     C92804   5.396   8.343   8.102  0.1735 -0.8621 -0.6074
  688MOL0     C92805   5.424   8.204   8.142 -1.1802  0.0246  0.8401
  688MOL0     C92806   5.520   8.141   8.032  0.0318  0.5629 -0.7140
  688MOL0     C92807   5.642   8.072   8.093 -0.0314  0.1771  0.7728
  688MOL0     C92808   5.606   7.953   8.170  0.2886 -0.0126 -0.6974
  688MOL0     C92809   5.586   7.847   8.228  0.2772  0.5736  0.2144
  688MOL0     C92810   5.144   8.429   7.840  0.5871 -0.0598 -0.4112
  688MOL0     C92811   5.133   8.513   7.725 -0.4047  0.3387  0.0859
  688MOL0     C92812   5.014   8.483   7.642  0.6387  0.1414  0.9886
  688MOL0     H92813   5.375   8.672   7.311  1.6132 -1.2216  2.9996
  688MOL0     H92814   5.399   8.836   7.094 -0.3775  0.3024 -0.5087
  688MOL0     H92815   5.597   8.962   7.031 -2.8122 -0.9772  2.5058
  688MOL0     H92816   5.486   9.030   6.922  2.3846  2.1256 -1.2468
  688MOL0     H92817   5.687   9.164   7.089 -0.3159  0.7943  0.8295
  688MOL0     H92818   5.576   9.267   6.991  0.1453 -1.2581 -1.4667
  688MOL0     H92819   5.649   9.157   6.783  0.9390 -1.4172 -1.2888
  688MOL0     H92820   5.777   9.076   6.858 -1.6989 -1.4145 -2.9355
  688MOL0     H92821   5.844   9.282   6.733 -0.1040 -0.2879 -0.6496
  688MOL0     H92822   5.757   9.390   6.844  3.6581  1.9221  0.9536
  688MOL0     H92823   5.868   9.334   7.034 -0.4834  1.4444 -1.1429
  688MOL0     H92824   5.947   9.192   6.970  0.8364  1.1608  0.9664
  688MOL0     H92825   6.081   9.343   6.821 -0.7593 -0.2942 -1.4108
  688MOL0     H92826   6.016   9.485   6.911 -2.8028 -0.2599  0.7288
  688MOL0     H92827   6.095   9.381   7.129 -2.3965  0.5145 -0.3261
  688MOL0     H92828   6.225   9.433   7.033  1.2975 -0.8617  2.9653
  688MOL0     H92829   6.140   9.134   7.027  0.3892 -0.1022  1.4568
  688MOL0     H92830   6.274   9.209   6.940  2.5005  0.2603  1.7218
  688MOL0     H92831   6.449   9.053   7.084  0.7667  0.6659 -1.2186
  688MOL0     H92832   6.626   9.055   7.293 -0.3755  2.2194 -2.0235
  688MOL0     H92833   6.554   9.083   7.455 -1.4037 -1.3699  0.8991
  688MOL0     H92834   6.449   8.849   7.301 -0.2971 -0.4524  1.5973
  688MOL0     H92835   6.605   8.838   7.369 -0.1323  0.6087 -1.2783
  688MOL0     H92836   6.326   8.915   7.509 -0.3883 -0.6515 -0.4574
  688MOL0     H92837   6.479   8.935   7.597  0.8314 -3.0069  2.2876
  688MOL0     H92838   6.513   8.687   7.598 -1.9691 -3.9814 -0.2670
  688MOL0     H92839   6.389   8.653   7.485  2.2216  1.4673 -1.8001
  688MOL0     H92840   6.125   8.743   7.838  1.5855  0.7557 -0.1783
  688MOL0     H92841   5.970   8.535   7.906  0.3007  2.1030 -0.3403
  688MOL0     H92842   5.962   7.968   7.927 -1.6048  4.7274  2.2865
  688MOL0     H92843   5.798   7.784   7.879 -1.9803  0.3789 -0.4831
  688MOL0     H92844   5.475   7.833   7.760 -0.5434  2.0495 -1.5630
  688MOL0     H92845   5.492   7.856   7.594  0.9407  0.7636  1.6112
  688MOL0     H92846   5.447   7.589   7.600 -0.9735 -1.2808  0.8941
  688MOL0     H92847   5.409   7.629   7.773 -2.5324  1.4752 -0.2786
  688MOL0     H92848   5.235   7.796   7.704  3.3475  0.9626  1.5513
  688MOL0     H92849   5.283   7.788   7.549  1.2252 -0.9942 -0.0061
  688MOL0     H92850   5.166   7.527   7.672  0.4136  0.8874  0.8964
  688MOL0     H92851   5.189   7.569   7.503  0.2684 -2.6068  2.0151
  688MOL0     H92852   5.024   7.761   7.528 -2.8870  0.2344 -0.7378
  688MOL0     H92853   4.991   7.701   7.681  0.2629  1.0634 -0.4781
  688MOL0     H92854   4.961   7.518   7.447  0.5620  1.5065  0.6108
  688MOL0     H92855   4.865   7.512   7.600 -1.2136  1.5090  1.3423
  688MOL0     H92856   4.837   7.737   7.392  2.2971 -1.9825 -1.7110
  688MOL0     H92857   4.769   7.733   7.554 -1.2439 -1.1082  0.2647
  688MOL0     H92858   4.645   7.524   7.486  1.4975 -2.0328 -2.0138
  688MOL0     H92859   4.595   7.666   7.405 -1.1782 -1.9670 -0.5365
  688MOL0     H92860   5.659   7.988   7.531  1.7453  0.1854 -1.9262
  688MOL0     H92861   5.853   8.158   7.581  3.5168 -1.3115  1.4861
  688MOL0     H92862   6.198   8.289   7.646  2.9934  1.3308 -3.1995
  688MOL0     H92863   6.351   8.466   7.597 -0.7644  1.0256 -0.5215
  688MOL0     H92864   5.392   9.152   7.363 -1.0339 -0.2168 -0.8291
  688MOL0     H92865   5.338   9.017   7.550  2.4693  0.9495 -0.2480
  688MOL0     H92866   5.378   8.725   7.795  1.4550 -2.0871  1.9661
  688MOL0     H92867   5.420   8.582   7.964  1.2887  0.1973 -1.6605
  688MOL0     H92868   5.380   8.406   8.190  4.0418  1.5451 -1.4044
  688MOL0     H92869   5.482   8.387   8.051  1.8865 -2.8357  0.4386
  688MOL0     H92870   5.333   8.144   8.152 -2.2243  1.2572 -0.8038
  688MOL0     H92871   5.481   8.211   8.235  0.2565  0.9758 -0.0769
  688MOL0     H92872   5.558   8.224   7.971  2.7745 -0.1125 -0.0648
  688MOL0     H92873   5.473   8.062   7.973 -1.6791  3.6228 -3.8449
  688MOL0     H92874   5.722   8.061   8.018 -0.7164  1.4394 -0.1836
  688MOL0     H92875   5.680   8.143   8.167  0.1842  1.0994 -0.1949
  688MOL0     H92876   5.578   7.743   8.250 -0.6797  0.5401 -0.2762
  688MOL0     H92877   5.080   8.345   7.867  0.8841 -1.8846 -4.6721
  688MOL0     H92878   5.037   8.506   7.538 -1.1400  0.0956  0.5541
  688MOL0     H92879   4.989   8.376   7.637  0.5025  0.1274  1.7955
  688MOL0     H92880   4.931   8.545   7.676 -0.8126 -0.3326 -1.5042
  689MOL0     O92881  11.084   9.208   7.265 -0.5459  1.0418 -0.4888
  689MOL0     C92882  11.106   9.310   7.199  0.4338  1.1264 -0.6491
  689MOL0     O92883  11.177   9.415   7.237  0.3138  0.6651  0.1853
  689MOL0     C92884  11.242   9.401   7.359  0.7724 -0.8376  0.3933
  689MOL0     C92885  11.186   9.461   7.471  1.2634 -0.8840 -0.5808
  689MOL0     C92886  11.229   9.436   7.600 -0.1619  0.1151  0.1944
  689MOL0     C92887  11.355   9.369   7.614  0.5564 -0.9068  0.2202
  689MOL0     O92888  11.416   9.350   7.740 -0.7502  0.1448  0.1887
  689MOL0     C92889  11.407   9.459   7.832 -1.4601 -0.9397  0.0697
  689MOL0     C92890  11.510   9.463   7.958  0.4816 -0.1231  1.2288
  689MOL0     C92891  11.517   9.326   8.032  0.1684 -0.4349  0.7205
  689MOL0     C92892  11.388   9.295   8.121 -0.7353  0.2344  0.4084
  689MOL0     C92893  11.410   9.179   8.213 -1.1058  1.1155 -0.3350
  689MOL0     C92894  11.323   9.197   8.337  0.4483  0.5175 -0.7168
  689MOL0     C92895  11.177   9.199   8.317  0.2568  0.3824  0.2962
  689MOL0     C92896  11.118   9.066   8.254  0.0190 -0.4300  0.1912
  689MOL0     N92897  11.028   8.995   8.351 -0.2927 -0.2524  0.6526
  689MOL0     C92898  11.066   8.900   8.443  0.2290  0.1191  0.1418
  689MOL0     C92899  10.946   8.854   8.489  0.0092 -0.2100  0.7013
  689MOL0     C92900  10.917   8.755   8.601  0.4323 -0.1827  0.0365
  689MOL0     C92901  10.768   8.718   8.626 -0.0090 -0.5088  0.4414
  689MOL0     C92902  10.766   8.583   8.699 -0.0711  0.5501 -0.3407
  689MOL0     C92903  10.637   8.582   8.789  0.0705  0.3280  1.0801
  689MOL0     O92904  10.554   8.468   8.771 -0.1680  0.4419  0.6483
  689MOL0     C92905  10.450   8.436   8.861 -0.8023  0.1052 -0.4325
  689MOL0     C92906  10.388   8.547   8.913  0.2459  0.1988 -0.1477
  689MOL0     C92907  10.276   8.528   8.998  0.0711 -0.7745  0.6958
  689MOL0     C92908  10.233   8.400   9.024 -0.9357 -0.2255 -0.6752
  689MOL0     C92909  10.114   8.381   9.114 -0.0128  0.5881 -0.4287
  689MOL0     O92910  10.030   8.492   9.119  0.1347  0.0746  0.3000
  689MOL0     C92911   9.914   8.501   9.197 -0.9889  0.5478  0.3596
  689MOL0     C92912   9.806   8.576   9.154  0.5525 -0.1044  0.5059
  689MOL0     C92913   9.698   8.598   9.246  0.1925 -0.3225  0.1118
  689MOL0     C92914   9.689   8.536   9.365  0.3360  0.0422  0.2100
  689MOL0     O92915   9.582   8.552   9.451  0.0834 -0.6513 -0.1379
  689MOL0     C92916   9.507   8.430   9.471 -0.0528  0.5954 -0.4530
  689MOL0     C92917   9.354   8.440   9.476  0.4412  0.7880 -0.4394
  689MOL0     C92918   9.299   8.525   9.365 -0.3228 -0.2955  0.1602
  689MOL0     C92919   9.340   8.487   9.216 -0.1835  0.1259 -0.6027
  689MOL0     C92920   9.291   8.589   9.119 -0.8024  1.2632 -0.3514
  689MOL0     C92921   9.308   8.532   8.970  0.3209 -0.0349  0.6179
  689MOL0     C92922   9.174   8.451   8.940 -0.9509  0.3492 -0.9812
  689MOL0     C92923   9.172   8.402   8.799  0.2507 -0.3406  0.2849
  689MOL0    Cl92924   9.030   8.298   8.772  0.1084 -0.6187 -0.0889
  689MOL0     C92925   9.800   8.460   9.410 -0.1668 -0.4009 -0.1208
  689MOL0     C92926   9.909   8.442   9.324  0.3256  0.6753  0.5118
  689MOL0     O92927  10.093   8.276   9.180  0.7043 -0.2033 -0.0599
  689MOL0     C92928  10.304   8.283   8.971  0.1040 -0.2468  0.7666
  689MOL0     C92929  10.411   8.309   8.884 -0.2528  0.6809 -0.5788
  689MOL0     N92930  10.841   8.921   8.424 -0.1112 -0.4965 -1.2023
  689MOL0     N92931  10.889   9.004   8.344 -0.0027 -0.3352 -0.4032
  689MOL0     C92932  11.407   9.308   7.495  0.1924 -0.7974 -1.3355
  689MOL0     C92933  11.350   9.328   7.376  0.7126  0.2812  0.1763
  689MOL0     C92934  11.044   9.318   7.084 -0.2959  0.1907 -0.1077
  689MOL0     C92935  11.106   9.397   6.981  0.7416 -1.8981 -0.8926
  689MOL0     C92936  11.053   9.402   6.857  0.0092 -1.0144  0.6653
  689MOL0     C92937  10.935   9.354   6.815  1.3827 -0.1198 -1.0772
  689MOL0     O92938  10.891   9.350   6.687  0.9154  0.4210  0.2465
  689MOL0     C92939  10.924   9.445   6.583  0.1190 -0.6907  0.3419
  689MOL0     C92940  10.867   9.392   6.446 -0.1230  0.1695  0.4479
  689MOL0     C92941  10.945   9.454   6.326 -0.9177 -0.3684 -0.1084
  689MOL0     C92942  10.887   9.397   6.208 -0.2088 -0.2165  0.1900
  689MOL0     C92943  10.917   9.260   6.178 -0.6704 -0.3441  0.5832
  689MOL0     C92944  10.926   9.145   6.152 -0.5545  0.3137  0.8134
  689MOL0     C92945  10.875   9.270   6.909  0.4837 -0.1135 -0.8726
  689MOL0     C92946  10.921   9.249   7.047 -0.4781  0.0390 -0.1430
  689MOL0     C92947  10.834   9.173   7.147 -0.3620  0.6057 -1.2308
  689MOL0     H92948  11.095   9.520   7.461  0.3593 -1.7961  1.6765
  689MOL0     H92949  11.166   9.475   7.679 -1.2206 -0.9807 -0.0832
  689MOL0     H92950  11.430   9.551   7.778 -3.0789 -0.1612  0.6307
  689MOL0     H92951  11.311   9.468   7.883 -0.3822 -1.7080  2.3631
  689MOL0     H92952  11.466   9.535   8.028  2.3525 -0.7672  3.1965
  689MOL0     H92953  11.610   9.502   7.938  1.3201 -1.6498  2.2124
  689MOL0     H92954  11.606   9.328   8.095  1.6508  2.0978 -1.2574
  689MOL0     H92955  11.541   9.244   7.964  2.9023  0.4975  0.4447
  689MOL0     H92956  11.372   9.387   8.179  0.9956  1.2387 -0.6151
  689MOL0     H92957  11.298   9.267   8.065  0.2786 -1.9899 -0.2376
  689MOL0     H92958  11.382   9.090   8.157 -1.8080 -1.6123  3.9067
  689MOL0     H92959  11.512   9.162   8.249 -1.3490 -0.8189 -0.4756
  689MOL0     H92960  11.349   9.122   8.413  1.7807 -0.7011 -2.3082
  689MOL0     H92961  11.346   9.293   8.384  1.9641  0.0036 -0.3460
  689MOL0     H92962  11.165   9.278   8.242 -1.0320 -1.3215 -1.4120
  689MOL0     H92963  11.125   9.225   8.409  5.5956 -0.4251  3.9726
  689MOL0     H92964  11.057   9.101   8.170  2.9910  0.9029 -1.5708
  689MOL0     H92965  11.198   8.998   8.225  0.3412  0.3820 -0.8951
  689MOL0     H92966  11.166   8.873   8.476 -0.7305 -2.7885  1.0389
  689MOL0     H92967  10.963   8.659   8.573  2.1177  0.4454  0.5563
  689MOL0     H92968  10.959   8.791   8.695 -0.0456  0.0448  0.1670
  689MOL0     H92969  10.719   8.805   8.670 -0.4590  2.2967 -4.8003
  689MOL0     H92970  10.733   8.706   8.523  0.1853  1.3883  0.1135
  689MOL0     H92971  10.855   8.579   8.761 -0.7999 -0.0963  0.6991
  689MOL0     H92972  10.763   8.504   8.624  0.1446  1.1754 -1.0280
  689MOL0     H92973  10.576   8.666   8.755  0.8720  0.3756 -0.3520
  689MOL0     H92974  10.676   8.583   8.891  1.0501 -1.1211  0.7494
  689MOL0     H92975  10.434   8.644   8.905 -2.2817  1.4877 -0.2496
  689MOL0     H92976  10.234   8.613   9.051 -1.0881 -1.4299  0.8557
  689MOL0     H92977   9.806   8.632   9.061 -0.9759 -0.3404  0.3290
  689MOL0     H92978   9.613   8.661   9.221  1.3465  2.0804  1.8903
  689MOL0     H92979   9.540   8.364   9.391 -1.2679  2.2015 -2.4064
  689MOL0     H92980   9.541   8.379   9.561  0.8935  3.2484  0.8050
  689MOL0     H92981   9.288   8.353   9.470  2.8737 -1.1027 -1.7824
  689MOL0     H92982   9.324   8.497   9.564  2.1579  0.9617  0.0683
  689MOL0     H92983   9.194   8.554   9.360  0.2875  1.9805 -4.2242
  689MOL0     H92984   9.356   8.614   9.393  1.3800 -2.1663  3.2151
  689MOL0     H92985   9.305   8.388   9.187  0.6674 -0.5686  0.6193
  689MOL0     H92986   9.449   8.480   9.209 -0.2440 -0.3948 -1.0966
  689MOL0     H92987   9.367   8.668   9.117 -0.3500  0.8354 -0.3993
  689MOL0     H92988   9.195   8.633   9.149 -1.5170 -1.1183  1.1801
  689MOL0     H92989   9.308   8.616   8.900  0.3882  0.1132  0.7938
  689MOL0     H92990   9.389   8.463   8.945 -1.4458 -2.1097  0.3610
  689MOL0     H92991   9.085   8.510   8.964 -0.5106  1.2145 -1.4331
  689MOL0     H92992   9.169   8.366   9.008  0.7971  1.4601  0.6141
  689MOL0     H92993   9.174   8.495   8.740  1.8063 -0.1905  0.5128
  689MOL0     H92994   9.263   8.344   8.782  0.6774  0.2636  0.4654
  689MOL0     H92995   9.797   8.420   9.511  0.9484  0.2433  0.1864
  689MOL0     H92996   9.991   8.386   9.368  0.0443 -1.5959 -1.6438
  689MOL0     H92997  10.282   8.180   8.999  3.9645 -1.0591  1.2876
  689MOL0     H92998  10.461   8.228   8.832 -1.6758 -1.3423  1.0579
  689MOL0     H92999  11.504   9.263   7.513  0.5518  0.3098 -0.3893
  689MOL0     H93000  11.384   9.267   7.293 -1.1872 -0.2791 -0.2222
  689MOL0     H93001  11.205   9.439   6.999 -0.6684  0.9296  1.0240
  689MOL0     H93002  11.124   9.445   6.786 -0.3970 -1.9630 -0.3274
  689MOL0     H93003  11.032   9.460   6.588 -0.0387  0.2314  2.0440
  689MOL0     H93004  10.866   9.537   6.593  0.8399 -0.3365  1.4752
  689MOL0     H93005  10.766   9.427   6.426  0.1138  0.7799  0.2799
  689MOL0     H93006  10.876   9.285   6.429  3.6404  0.5025 -0.5407
  689MOL0     H93007  11.043   9.413   6.353 -1.0455 -2.4716 -2.4788
  689MOL0     H93008  10.949   9.563   6.324 -2.4221 -0.2828  0.3445
  689MOL0     H93009  10.782   9.425   6.215  0.4749  2.2094  2.1075
  689MOL0     H93010  10.936   9.441   6.120  1.1536 -2.2061 -0.1203
  689MOL0     H93011  10.950   9.042   6.139 -0.7902 -0.1446  3.6176
  689MOL0     H93012  10.790   9.218   6.866 -0.5953  2.5152 -2.1564
  689MOL0     H93013  10.743   9.133   7.100 -0.8379  0.6002 -0.3226
  689MOL0     H93014  10.878   9.094   7.208 -1.9120  0.4767 -0.2087
  689MOL0     H93015  10.789   9.246   7.216  1.3299 -0.1210  0.7356
  690MOL0     O93016   7.388  10.289   3.764 -0.5595 -0.4532 -0.7455
  690MOL0     C93017   7.436  10.287   3.649 -0.7288 -0.5014  0.5400
  690MOL0     O93018   7.455  10.402   3.566 -0.3749  0.6783 -0.0784
  690MOL0     C93019   7.444  10.523   3.631  0.0599  0.0540 -0.5418
  690MOL0     C93020   7.353  10.610   3.591  0.0076 -0.2271  0.0807
  690MOL0     C93021   7.338  10.739   3.645 -0.1058  0.5865  0.2853
  690MOL0     C93022   7.425  10.777   3.754  0.5783 -0.4830  0.3251
  690MOL0     O93023   7.421  10.908   3.793 -0.7116 -0.0168 -0.5266
  690MOL0     C93024   7.488  10.945   3.922  0.2963 -1.0122 -0.5477
  690MOL0     C93025   7.404  10.914   4.043  0.0467  0.7208  0.3127
  690MOL0     C93026   7.271  10.986   4.053  0.6448 -0.0441 -0.6579
  690MOL0     C93027   7.186  10.905   4.155 -0.7374  0.3082 -0.0619
  690MOL0     C93028   7.081  10.983   4.232 -0.1275 -0.6055  0.1299
  690MOL0     C93029   6.973  11.026   4.138  0.4282 -0.3454 -0.5761
  690MOL0     C93030   6.860  10.927   4.141  0.0073 -0.6409  0.1564
  690MOL0     C93031   6.756  10.928   4.024 -0.2969 -0.1698 -0.8368
  690MOL0     N93032   6.640  10.843   4.064 -0.1514 -0.0111  0.5264
  690MOL0     C93033   6.581  10.742   3.989 -0.3342  0.6056  0.6599
  690MOL0     C93034   6.459  10.715   4.042  0.2247 -0.9211 -0.4506
  690MOL0     C93035   6.348  10.625   3.993 -0.6306 -0.2123  0.3727
  690MOL0     C93036   6.307  10.654   3.842 -0.3799  0.3629  0.0570
  690MOL0     C93037   6.343  10.525   3.750  0.6179  0.8235  0.1456
  690MOL0     C93038   6.488  10.490   3.744  0.7423  0.0793 -1.3118
  690MOL0     O93039   6.552  10.581   3.658  0.4289 -0.0163 -0.7298
  690MOL0     C93040   6.663  10.526   3.596 -0.3776 -0.2333 -0.1959
  690MOL0     C93041   6.774  10.488   3.657 -0.3459 -0.2621 -0.6541
  690MOL0     C93042   6.885  10.436   3.586  0.9356 -0.4636 -0.4863
  690MOL0     C93043   6.888  10.426   3.450 -0.1490 -0.2554  0.6395
  690MOL0     C93044   7.005  10.374   3.374  0.1191  0.6093 -1.0727
  690MOL0     O93045   6.997  10.384   3.244 -0.0054  0.0928 -0.0354
  690MOL0     C93046   7.106  10.368   3.162  0.1616  0.3222  0.3246
  690MOL0     C93047   7.229  10.421   3.196  0.1484  0.8351 -0.4254
  690MOL0     C93048   7.346  10.394   3.130 -0.1330  0.5214  0.7078
  690MOL0     C93049   7.347  10.303   3.023  0.0289 -0.5979  1.1078
  690MOL0     O93050   7.453  10.264   2.955 -0.0694  0.8702  0.9163
  690MOL0     C93051   7.584  10.316   2.970 -0.5667  0.8497 -0.0416
  690MOL0     C93052   7.658  10.294   3.104 -0.1517 -0.6117  0.5222
  690MOL0     C93053   7.644  10.154   3.164  0.3447 -0.2795 -1.1310
  690MOL0     C93054   7.720  10.041   3.095 -0.3279 -0.3925  0.2829
  690MOL0     C93055   7.731   9.915   3.188  0.0355  0.0335 -0.5228
  690MOL0     C93056   7.859   9.830   3.154 -0.3095 -0.1736  0.6529
  690MOL0     C93057   7.856   9.699   3.227 -0.1117  0.5040  0.0739
  690MOL0     C93058   7.975   9.606   3.181  0.2514  0.0924 -0.0001
  690MOL0    Cl93059   7.959   9.446   3.261  0.0036 -0.4278  0.3195
  690MOL0     C93060   7.222  10.252   2.985 -0.9876 -0.7949  0.3261
  690MOL0     C93061   7.106  10.276   3.058 -0.1206  1.2151 -0.6597
  690MOL0     O93062   7.101  10.344   3.439 -0.0626 -0.5255  0.9092
  690MOL0     C93063   6.774  10.481   3.382 -0.0726  0.2326 -0.1390
  690MOL0     C93064   6.655  10.527   3.454 -0.1474 -0.5738 -0.2725
  690MOL0     N93065   6.451  10.792   4.155 -0.4089  0.8721 -0.4329
  690MOL0     N93066   6.561  10.857   4.177 -0.1180 -0.2346  0.5291
  690MOL0     C93067   7.521  10.681   3.792 -0.4613  0.2660 -0.0818
  690MOL0     C93068   7.529  10.560   3.727 -0.0696  0.6675  1.0884
  690MOL0     C93069   7.462  10.150   3.591  0.3008 -0.1728 -1.0949
  690MOL0     C93070   7.435  10.125   3.456 -0.1263 -0.9366 -0.4475
  690MOL0     C93071   7.453   9.995   3.395  0.9416 -0.2616 -0.5855
  690MOL0     C93072   7.489   9.891   3.481 -0.5231 -0.4332 -0.1994
  690MOL0     O93073   7.503   9.764   3.436  0.6789 -0.4881  0.0339
  690MOL0     C93074   7.390   9.720   3.360 -0.9164 -0.0166 -0.2655
  690MOL0     C93075   7.336   9.587   3.412 -0.1227  1.3463 -0.3795
  690MOL0     C93076   7.216   9.533   3.325 -0.3191 -0.7022  0.0193
  690MOL0     C93077   7.255   9.505   3.179 -0.6801  0.9016  1.1448
  690MOL0     C93078   7.345   9.388   3.182  0.7009 -0.1569  0.2748
  690MOL0     C93079   7.425   9.301   3.183  0.2410 -0.1518 -0.2298
  690MOL0     C93080   7.515   9.909   3.611 -0.5206 -0.9858  0.8500
  690MOL0     C93081   7.503  10.038   3.666 -0.4603 -0.0846 -1.0105
  690MOL0     C93082   7.540  10.062   3.808 -0.1233  1.6235 -1.0858
  690MOL0     H93083   7.288  10.594   3.505 -0.2045  1.7438 -0.1601
  690MOL0     H93084   7.259  10.807   3.615 -1.0748 -0.1744  1.0298
  690MOL0     H93085   7.589  10.903   3.924  0.6004 -0.4541 -2.1395
  690MOL0     H93086   7.507  11.052   3.909  4.2170 -1.5411 -0.3535
  690MOL0     H93087   7.468  10.954   4.122 -0.4273  4.3407 -0.9717
  690MOL0     H93088   7.394  10.805   4.044 -2.7751  0.9148  1.0235
  690MOL0     H93089   7.222  11.014   3.959 -1.8873 -1.6956  0.0768
  690MOL0     H93090   7.299  11.082   4.097  3.4869 -0.8431 -0.5358
  690MOL0     H93091   7.141  10.826   4.094  0.2099 -0.1355 -0.2045
  690MOL0     H93092   7.253  10.847   4.220 -0.9556  1.4471  1.2187
  690MOL0     H93093   7.050  10.932   4.323  3.5043 -2.1319  0.6697
  690MOL0     H93094   7.122  11.075   4.273 -2.2173  0.5711 -0.2675
  690MOL0     H93095   6.943  11.129   4.161  0.4826 -0.0458 -1.7928
  690MOL0     H93096   7.014  11.035   4.037  1.9961 -4.3399 -0.4766
  690MOL0     H93097   6.823  10.950   4.241  0.6898  0.3546  0.1949
  690MOL0     H93098   6.903  10.826   4.135 -0.2425 -0.6549 -2.5472
  690MOL0     H93099   6.716  11.029   4.010 -2.7198 -1.0476 -0.6631
  690MOL0     H93100   6.791  10.884   3.930 -0.1677 -2.0668  0.0498
  690MOL0     H93101   6.618  10.720   3.889 -2.4243  0.9108 -0.2303
  690MOL0     H93102   6.400  10.529   3.994  1.8742  1.0620  0.8120
  690MOL0     H93103   6.264  10.622   4.063  0.2233 -0.0578  1.4395
  690MOL0     H93104   6.200  10.667   3.826 -0.2427 -0.4280 -1.6647
  690MOL0     H93105   6.352  10.744   3.799  0.1710 -1.7685 -4.4342
  690MOL0     H93106   6.314  10.545   3.646 -1.2897 -0.6334  0.3559
  690MOL0     H93107   6.298  10.432   3.784  3.3117  0.0544  1.9934
  690MOL0     H93108   6.502  10.392   3.698  0.0089  0.3419 -2.1174
  690MOL0     H93109   6.528  10.479   3.846 -0.8237 -0.5263 -0.7311
  690MOL0     H93110   6.789  10.502   3.764  1.3511 -1.1940 -0.7367
  690MOL0     H93111   6.980  10.416   3.633  2.4433 -1.0062 -3.5340
  690MOL0     H93112   7.237  10.491   3.279 -2.9428 -0.4585  1.1225
  690MOL0     H93113   7.437  10.445   3.161  0.6881 -0.4861  0.0175
  690MOL0     H93114   7.635  10.258   2.892 -0.4640 -2.7202  2.4886
  690MOL0     H93115   7.580  10.423   2.944 -3.1102  0.6110 -0.9809
  690MOL0     H93116   7.763  10.317   3.089 -0.4008 -0.9277 -2.2392
  690MOL0     H93117   7.620  10.374   3.169  1.2270  2.0891 -1.7854
  690MOL0     H93118   7.672  10.151   3.270  1.5834 -3.8608 -1.4151
  690MOL0     H93119   7.537  10.131   3.169  0.4402 -0.4389  2.0752
  690MOL0     H93120   7.824  10.068   3.075 -1.0094  1.2676 -1.3073
  690MOL0     H93121   7.667  10.017   3.001 -0.6692 -2.5532  0.9557
  690MOL0     H93122   7.637   9.864   3.166 -1.8596  3.3002 -0.6521
  690MOL0     H93123   7.733   9.928   3.297  0.5186 -1.6460 -0.3105
  690MOL0     H93124   7.857   9.811   3.047  0.5678  2.0807  0.1806
  690MOL0     H93125   7.952   9.878   3.187 -1.5503  1.2850  2.1872
  690MOL0     H93126   7.764   9.639   3.220 -1.1587  1.4938  3.5420
  690MOL0     H93127   7.855   9.726   3.333 -1.8933  0.9439 -0.0229
  690MOL0     H93128   7.986   9.604   3.073  0.8437  4.1452 -0.1571
  690MOL0     H93129   8.063   9.657   3.222  2.0639 -3.2818  0.6904
  690MOL0     H93130   7.204  10.180   2.906 -1.3931 -1.2194  0.7933
  690MOL0     H93131   7.019  10.219   3.029 -0.3376 -0.1141  2.2514
  690MOL0     H93132   6.768  10.465   3.274 -0.1949  1.4970 -0.3358
  690MOL0     H93133   6.567  10.543   3.392  0.4064  0.3516 -0.8286
  690MOL0     H93134   7.597  10.706   3.865 -1.1229 -1.3951  1.2438
  690MOL0     H93135   7.603  10.501   3.779  1.1198 -0.4664 -1.6554
  690MOL0     H93136   7.406  10.210   3.396  0.2971 -1.9724 -2.1752
  690MOL0     H93137   7.445   9.978   3.288 -2.2620  2.0918 -0.8699
  690MOL0     H93138   7.412   9.703   3.254 -0.7660  1.7648 -0.5510
  690MOL0     H93139   7.304   9.787   3.355 -1.1687 -0.3862 -3.5437
  690MOL0     H93140   7.310   9.582   3.518  2.3526 -0.5984  0.2460
  690MOL0     H93141   7.419   9.516   3.403 -1.6936 -0.8670  1.4767
  690MOL0     H93142   7.138   9.609   3.337 -2.1046 -2.4240 -0.1123
  690MOL0     H93143   7.160   9.448   3.366 -4.0714  0.6360 -1.8079
  690MOL0     H93144   7.165   9.474   3.127 -1.0163  2.9707  0.4256
  690MOL0     H93145   7.284   9.596   3.126 -0.5487 -1.6345 -3.6435
  690MOL0     H93146   7.468   9.203   3.177  1.6238  0.3896  0.3779
  690MOL0     H93147   7.550   9.830   3.677 -0.4148 -0.0283  1.9656
  690MOL0     H93148   7.570  10.161   3.844  0.5649  0.7881  0.7636
  690MOL0     H93149   7.450  10.035   3.865  0.8783 -1.0258 -0.6105
  690MOL0     H93150   7.607   9.985   3.847  3.3831  3.4308 -3.0640
  691MOL0     O93151  10.925   3.590  10.503  0.0953  0.0051  0.2523
  691MOL0     C93152  10.985   3.700  10.522  2.3289  0.2493  0.4273
  691MOL0     O93153  10.974   3.810  10.444  0.1115 -1.1590  0.0051
  691MOL0     C93154  10.895   3.817  10.329 -0.1004 -0.1654 -1.3040
  691MOL0     C93155  10.934   3.894  10.220 -0.2102 -0.3423 -0.1921
  691MOL0     C93156  10.856   3.910  10.110 -0.1969 -0.7522  0.4617
  691MOL0     C93157  10.727   3.848  10.103 -0.4546 -1.2650 -0.4627
  691MOL0     O93158  10.651   3.884   9.993 -0.0189 -0.0134  0.5789
  691MOL0     C93159  10.512   3.865  10.011 -0.9982 -0.4924  1.0137
  691MOL0     C93160  10.448   3.735   9.958  1.1752  1.0734 -0.8921
  691MOL0     C93161  10.297   3.762   9.952  0.7208  0.0422  0.1520
  691MOL0     C93162  10.223   3.772  10.089  0.0309 -0.0461  0.2474
  691MOL0     C93163  10.074   3.755  10.072  0.6724  1.3394 -0.3545
  691MOL0     C93164  10.016   3.746  10.213  0.0122  0.0994  0.0854
  691MOL0     C93165   9.863   3.733  10.220  1.0924 -0.5533  0.5894
  691MOL0     C93166   9.803   3.743  10.362  0.1952  0.1858 -0.3052
  691MOL0     N93167   9.659   3.788  10.353 -0.5662  0.2958 -0.3685
  691MOL0     C93168   9.611   3.918  10.367 -0.3599 -0.1607  0.1963
  691MOL0     C93169   9.477   3.900  10.356  0.3322 -0.3824  0.3077
  691MOL0     C93170   9.374   3.999  10.398 -0.1740  0.4382 -0.0496
  691MOL0     C93171   9.326   4.076  10.266 -0.6703 -0.2159 -0.1970
  691MOL0     C93172   9.443   4.134  10.183 -0.1428 -0.0273 -0.1765
  691MOL0     C93173   9.405   4.172  10.041  0.3013  0.5531  0.0342
  691MOL0     O93174   9.269   4.217  10.035  0.1118  0.3408  0.2751
  691MOL0     C93175   9.239   4.279   9.916 -0.9615 -0.4247  0.2163
  691MOL0     C93176   9.274   4.412   9.885  0.2999  0.2631 -0.0035
  691MOL0     C93177   9.220   4.464   9.757 -0.5090  0.8664 -0.4157
  691MOL0     C93178   9.183   4.374   9.660  0.1811  0.2801 -0.2572
  691MOL0     C93179   9.156   4.410   9.512 -0.0023  0.3273 -0.1360
  691MOL0     O93180   9.124   4.318   9.425  0.3272  0.0707 -0.1680
  691MOL0     C93181   9.093   4.354   9.301  1.1364  0.0745 -0.2169
  691MOL0     C93182   9.144   4.282   9.191  0.3083  0.6938 -0.1512
  691MOL0     C93183   9.107   4.315   9.061 -0.5757 -0.2798  0.0850
  691MOL0     C93184   9.022   4.422   9.033 -0.6145 -0.2445 -0.0282
  691MOL0     O93185   8.972   4.460   8.911 -0.0578 -0.1852 -0.0261
  691MOL0     C93186   9.074   4.455   8.810 -0.2120  0.1321 -0.7732
  691MOL0     C93187   9.056   4.572   8.718  0.3753 -0.9671  0.1186
  691MOL0     C93188   9.112   4.694   8.793 -0.9202 -0.5397 -0.4143
  691MOL0     C93189   9.169   4.814   8.706  0.0008 -0.7245 -1.0084
  691MOL0     C93190   9.140   4.953   8.763  0.1851  0.7826  0.0948
  691MOL0     C93191   9.211   5.060   8.684 -0.0659 -0.3261  0.5589
  691MOL0     C93192   9.226   5.192   8.771 -0.3167 -0.4100  0.4505
  691MOL0     C93193   9.078   5.258   8.809  0.0740  0.3155 -0.3892
  691MOL0    Cl93194   9.031   5.190   8.967  0.2481 -0.6635  0.0910
  691MOL0     C93195   8.964   4.488   9.137 -0.3073  1.0127  0.4554
  691MOL0     C93196   8.996   4.453   9.268  1.0462 -0.4340  0.2486
  691MOL0     O93197   9.162   4.531   9.491 -0.4673  0.3360  0.3027
  691MOL0     C93198   9.174   4.240   9.694 -0.0345  0.5296  0.2132
  691MOL0     C93199   9.183   4.190   9.822 -0.6267 -0.5035 -0.3362
  691MOL0     N93200   9.450   3.772  10.323  0.2104  0.9646  0.0771
  691MOL0     N93201   9.558   3.707  10.320  0.3776 -0.6410  0.4697
  691MOL0     C93202  10.681   3.773  10.217  0.0435  1.0766  0.3509
  691MOL0     C93203  10.767   3.755  10.332  0.0128 -1.2537 -0.1162
  691MOL0     C93204  11.070   3.695  10.638 -0.5215  0.5353  0.0814
  691MOL0     C93205  11.098   3.820  10.694  0.0783 -0.0725  0.3099
  691MOL0     C93206  11.166   3.826  10.811 -0.2596 -0.5048  0.0283
  691MOL0     C93207  11.233   3.720  10.861  0.9539 -0.1606  1.0207
  691MOL0     O93208  11.299   3.716  10.975 -0.5494 -0.2795 -0.3151
  691MOL0     C93209  11.267   3.823  11.076 -0.0230 -0.7986  0.1375
  691MOL0     C93210  11.361   3.826  11.194 -0.0819  0.5711 -0.5126
  691MOL0     C93211  11.505   3.842  11.139 -0.2319  1.0467 -0.1980
  691MOL0     C93212  11.612   3.873  11.244  0.1859  0.6654  0.8142
  691MOL0     C93213  11.631   3.772  11.354 -0.3823 -0.4863 -0.1386
  691MOL0     C93214  11.663   3.689  11.432 -0.1946  0.7547  0.4048
  691MOL0     C93215  11.215   3.594  10.809  0.9828  0.3990  0.0824
  691MOL0     C93216  11.136   3.579  10.694  0.0270  0.4647  0.6043
  691MOL0     C93217  11.122   3.439  10.639  0.4467  0.5998  0.0661
  691MOL0     H93218  11.025   3.952  10.220 -0.9181  0.8243  0.9697
  691MOL0     H93219  10.900   3.963  10.025 -0.7341 -0.7554  0.1783
  691MOL0     H93220  10.469   3.879  10.111 -0.9433  0.2433  0.9379
  691MOL0     H93221  10.474   3.949   9.951  1.3044  0.2307  0.4969
  691MOL0     H93222  10.467   3.647  10.020 -1.4802  0.9335 -0.1209
  691MOL0     H93223  10.488   3.708   9.860  1.7334  3.5796 -1.4241
  691MOL0     H93224  10.257   3.676   9.899  0.2374  0.1489  0.3359
  691MOL0     H93225  10.264   3.846   9.889 -2.0050 -2.1020 -1.4734
  691MOL0     H93226  10.267   3.690  10.147  2.1828  0.6275 -0.3718
  691MOL0     H93227  10.242   3.871  10.129  0.4067 -0.0613  0.1038
  691MOL0     H93228  10.034   3.846  10.027 -0.8758  2.7141  3.4461
  691MOL0     H93229  10.037   3.666  10.020 -3.1139  1.9498  1.0006
  691MOL0     H93230  10.060   3.655  10.256  1.9292 -0.7923 -3.3212
  691MOL0     H93231  10.055   3.826  10.276 -0.2533 -0.7053  1.3099
  691MOL0     H93232   9.840   3.634  10.180 -1.2826  0.1393  0.0889
  691MOL0     H93233   9.824   3.814  10.157  2.9855 -0.4374 -0.5281
  691MOL0     H93234   9.807   3.645  10.410 -0.6876  1.1799  1.9888
  691MOL0     H93235   9.858   3.807  10.433  0.0702 -1.6974  1.5853
  691MOL0     H93236   9.670   4.008  10.381 -0.0289 -0.4407  0.6488
  691MOL0     H93237   9.287   3.962  10.453 -0.4525 -0.5933 -1.1164
  691MOL0     H93238   9.426   4.074  10.457  1.4190 -2.1547  2.0751
  691MOL0     H93239   9.275   4.009  10.196 -2.5954  2.0181 -1.1069
  691MOL0     H93240   9.262   4.163  10.286 -0.6515 -0.0680 -0.7460
  691MOL0     H93241   9.522   4.060  10.173  0.5974  0.8467 -0.9577
  691MOL0     H93242   9.473   4.227  10.233 -1.6537  0.2797  0.2119
  691MOL0     H93243   9.412   4.089   9.970 -1.4327  0.1717  0.2858
  691MOL0     H93244   9.482   4.241  10.005  1.3236 -1.0835 -1.0815
  691MOL0     H93245   9.313   4.488   9.952 -1.7727  0.3226  1.2433
  691MOL0     H93246   9.228   4.570   9.733 -0.7949  0.6216 -1.6790
  691MOL0     H93247   9.210   4.196   9.198  2.5151  2.1141 -2.2240
  691MOL0     H93248   9.152   4.258   8.980  1.1116  0.8740  0.1617
  691MOL0     H93249   9.178   4.460   8.842  0.3552  2.7820 -2.7705
  691MOL0     H93250   9.059   4.364   8.750  0.2071 -1.5151  1.4890
  691MOL0     H93251   9.111   4.561   8.624  0.8295 -2.1312  0.5058
  691MOL0     H93252   8.949   4.573   8.695  0.8116  0.8431 -2.1958
  691MOL0     H93253   9.028   4.725   8.856 -0.1919  0.7105 -0.0275
  691MOL0     H93254   9.196   4.663   8.856  2.8452  1.4191 -3.9918
  691MOL0     H93255   9.136   4.828   8.603  1.7207  1.4918 -1.3324
  691MOL0     H93256   9.278   4.802   8.697  0.9960  4.1755  1.3854
  691MOL0     H93257   9.172   4.953   8.868  2.2607  0.8803 -0.5046
  691MOL0     H93258   9.033   4.976   8.763 -0.1519 -0.3818 -2.5150
  691MOL0     H93259   9.312   5.031   8.654 -0.5510 -1.1548 -0.3098
  691MOL0     H93260   9.156   5.089   8.594  2.0394  0.7527 -0.4799
  691MOL0     H93261   9.275   5.262   8.702 -1.5467 -1.4626 -1.5813
  691MOL0     H93262   9.278   5.180   8.867 -0.2963  1.4418  0.7096
  691MOL0     H93263   9.091   5.367   8.815  0.6418  0.1716  1.8134
  691MOL0     H93264   9.009   5.229   8.728 -0.4102  0.3034  0.0211
  691MOL0     H93265   8.908   4.579   9.118  2.0119  2.2782 -0.8177
  691MOL0     H93266   8.941   4.495   9.352  0.3932 -0.0215 -0.3695
  691MOL0     H93267   9.151   4.174   9.611  0.7864 -2.9265  2.4909
  691MOL0     H93268   9.165   4.086   9.850  0.5217 -1.4024 -2.6721
  691MOL0     H93269  10.580   3.733  10.215  0.0157  1.0025  2.1473
  691MOL0     H93270  10.729   3.710  10.423 -0.3093  0.9204  0.8761
  691MOL0     H93271  11.060   3.907  10.641 -2.9742 -1.5990 -0.2158
  691MOL0     H93272  11.175   3.923  10.859  1.6370  0.1934 -1.6031
  691MOL0     H93273  11.165   3.812  11.113 -0.3505  2.5010  0.5223
  691MOL0     H93274  11.292   3.919  11.029 -1.6496 -0.6115 -0.4251
  691MOL0     H93275  11.347   3.745  11.266 -0.2772 -1.1944 -2.4376
  691MOL0     H93276  11.343   3.913  11.258  2.0159  0.1045  0.8179
  691MOL0     H93277  11.517   3.922  11.066  2.9790  0.3974 -0.5635
  691MOL0     H93278  11.531   3.744  11.097  0.1863  1.1238 -0.1228
  691MOL0     H93279  11.708   3.892  11.195 -0.8763  0.4647 -1.4609
  691MOL0     H93280  11.583   3.969  11.286 -0.1364  0.2237  1.6215
  691MOL0     H93281  11.673   3.608  11.502 -5.2988 -0.2991  0.3569
  691MOL0     H93282  11.255   3.510  10.865 -0.8775  0.5671  1.7865
  691MOL0     H93283  11.021   3.396  10.647  1.3179 -1.4241  0.7132
  691MOL0     H93284  11.156   3.423  10.537  1.4799 -0.8265  0.6031
  691MOL0     H93285  11.184   3.366  10.693  1.3118  1.8094  0.7570
  692MOL0     O93286   1.700   5.359   3.674  0.9803  0.5169 -0.2168
  692MOL0     C93287   1.722   5.469   3.724 -0.7168  1.3293  0.5044
  692MOL0     O93288   1.830   5.503   3.793  0.0694  0.3916 -0.1246
  692MOL0     C93289   1.927   5.406   3.789 -0.6553 -0.2726 -0.0764
  692MOL0     C93290   1.994   5.386   3.667  0.0743  0.1957 -0.2831
  692MOL0     C93291   2.093   5.285   3.661 -0.5482 -0.7981 -1.0545
  692MOL0     C93292   2.136   5.214   3.783  0.1708 -0.2446  0.4635
  692MOL0     O93293   2.232   5.113   3.782 -0.1147  0.3682 -0.0771
  692MOL0     C93294   2.216   4.998   3.706  0.1668 -0.0943  0.3176
  692MOL0     C93295   2.153   4.893   3.795 -0.3913 -0.8759 -0.6812
  692MOL0     C93296   2.103   4.769   3.721  0.8327 -0.0463  0.1577
  692MOL0     C93297   2.038   4.676   3.826 -0.0808 -0.2689  0.7240
  692MOL0     C93298   1.980   4.551   3.761 -0.5524 -0.6303 -0.3734
  692MOL0     C93299   1.923   4.457   3.866 -0.0466 -0.1310 -0.2953
  692MOL0     C93300   1.799   4.510   3.931  0.3329 -0.3972 -1.3483
  692MOL0     C93301   1.743   4.398   4.023  0.0358  0.3046 -0.5715
  692MOL0     N93302   1.688   4.286   3.949 -0.0064  1.2989 -0.2104
  692MOL0     C93303   1.562   4.265   3.898  0.4259  0.2705  0.4800
  692MOL0     C93304   1.562   4.137   3.849 -0.3802  0.3860 -0.6319
  692MOL0     C93305   1.448   4.055   3.804 -0.6280  0.8896 -0.5523
  692MOL0     C93306   1.401   3.952   3.906 -0.0053 -0.1444  0.1513
  692MOL0     C93307   1.317   4.003   4.027  0.4330  0.4876  0.4333
  692MOL0     C93308   1.305   3.902   4.143 -0.3813 -0.5783 -0.3642
  692MOL0     O93309   1.222   3.948   4.258 -0.1675  0.9202 -0.4195
  692MOL0     C93310   1.269   4.066   4.313 -0.6564 -0.8005  0.4102
  692MOL0     C93311   1.223   4.195   4.268 -0.2386 -0.5992  1.0248
  692MOL0     C93312   1.282   4.314   4.308 -0.3443  0.9394  0.2211
  692MOL0     C93313   1.387   4.314   4.410 -0.6893 -0.3155  0.0090
  692MOL0     C93314   1.464   4.439   4.449  0.0916 -0.1318 -0.1383
  692MOL0     O93315   1.448   4.543   4.359 -0.9163 -0.1793 -0.7240
  692MOL0     C93316   1.478   4.668   4.395 -0.6189 -0.5819  0.4414
  692MOL0     C93317   1.603   4.717   4.379 -1.2168  1.1949  0.5155
  692MOL0     C93318   1.631   4.850   4.419 -0.4146  0.9323 -0.0530
  692MOL0     C93319   1.540   4.928   4.484  0.1147 -0.3723  1.1047
  692MOL0     O93320   1.593   5.058   4.518  0.0270  0.1393 -0.5736
  692MOL0     C93321   1.506   5.156   4.573 -0.4016  0.0473 -0.8386
  692MOL0     C93322   1.461   5.123   4.719 -0.0249 -0.8916  0.1411
  692MOL0     C93323   1.395   5.245   4.791  0.4699  0.5317  0.5653
  692MOL0     C93324   1.509   5.321   4.858 -0.8138 -0.4054  0.3011
  692MOL0     C93325   1.452   5.435   4.944  0.6850 -0.3932  0.2672
  692MOL0     C93326   1.563   5.503   5.032 -0.1829  0.6174  0.5960
  692MOL0     C93327   1.485   5.577   5.138  0.2892  0.1983  0.5165
  692MOL0     C93328   1.584   5.646   5.237  1.1054  0.2895  0.3124
  692MOL0    Cl93329   1.640   5.800   5.163  0.6627  0.4007 -0.0002
  692MOL0     C93330   1.415   4.872   4.505  0.8015 -0.1320 -1.0310
  692MOL0     C93331   1.382   4.750   4.455 -0.8504  0.1115  1.5332
  692MOL0     O93332   1.509   4.445   4.563  0.2856 -0.3933  0.0180
  692MOL0     C93333   1.424   4.188   4.460 -0.8971  0.0204 -0.3645
  692MOL0     C93334   1.365   4.067   4.413 -0.4256 -0.3601 -0.1580
  692MOL0     N93335   1.682   4.082   3.871 -0.0534  1.0536 -1.4530
  692MOL0     N93336   1.757   4.165   3.932  0.7831 -1.5099  0.1389
  692MOL0     C93337   2.077   5.244   3.901  0.0792  0.5707 -0.0946
  692MOL0     C93338   1.969   5.339   3.906 -0.0878  0.5064  0.5113
  692MOL0     C93339   1.618   5.578   3.701 -0.5351  0.2053  0.3217
  692MOL0     C93340   1.488   5.538   3.674  0.9653 -0.4484 -0.7714
  692MOL0     C93341   1.384   5.638   3.677  0.1274  0.0866 -0.6600
  692MOL0     C93342   1.419   5.772   3.695 -0.3031  0.4342  0.1413
  692MOL0     O93343   1.321   5.864   3.674 -0.0813 -0.7607 -0.0425
  692MOL0     C93344   1.330   6.012   3.705  0.4613  0.4388 -0.2459
  692MOL0     C93345   1.191   6.082   3.702  1.0064  0.7587  0.8433
  692MOL0     C93346   1.203   6.226   3.735  0.5494  0.4795 -0.0135
  692MOL0     C93347   1.089   6.298   3.667  0.3911  0.7393  0.2598
  692MOL0     C93348   0.952   6.265   3.697 -0.4822 -0.3204 -0.6573
  692MOL0     C93349   0.837   6.242   3.701  0.2741  0.9105  0.1304
  692MOL0     C93350   1.548   5.813   3.718  0.4044  0.1460  0.5600
  692MOL0     C93351   1.652   5.720   3.710 -0.7643  0.1521  0.1336
  692MOL0     C93352   1.794   5.776   3.719 -0.7234 -0.1240  0.5035
  692MOL0     H93353   1.957   5.449   3.587 -0.9047  0.5718  0.4613
  692MOL0     H93354   2.141   5.267   3.566 -2.3569 -2.0036 -1.7908
  692MOL0     H93355   2.154   5.002   3.616 -0.9199  1.1472  1.0919
  692MOL0     H93356   2.309   4.969   3.656  0.1980  1.4478 -0.5803
  692MOL0     H93357   2.070   4.932   3.854  1.2705 -3.3769  3.8382
  692MOL0     H93358   2.222   4.867   3.875  1.8383  1.7809 -1.5984
  692MOL0     H93359   2.187   4.711   3.682 -0.2446 -0.9089 -0.9621
  692MOL0     H93360   2.032   4.793   3.641  1.7030 -0.4208 -0.7367
  692MOL0     H93361   2.116   4.638   3.892  2.3268 -1.8366 -2.6796
  692MOL0     H93362   1.966   4.737   3.881  3.0112  2.5449  1.9756
  692MOL0     H93363   1.894   4.580   3.700 -2.1540  1.0909  2.4752
  692MOL0     H93364   2.053   4.507   3.693  0.2830 -0.2713  0.2767
  692MOL0     H93365   1.891   4.363   3.819 -3.1925  0.2660  0.7921
  692MOL0     H93366   1.993   4.434   3.947 -0.6953 -1.8269 -0.1877
  692MOL0     H93367   1.722   4.535   3.857 -0.3499 -3.1237 -1.6819
  692MOL0     H93368   1.827   4.600   3.987  1.3207 -1.7291  0.4311
  692MOL0     H93369   1.815   4.370   4.100 -1.3669 -1.4348  0.1728
  692MOL0     H93370   1.660   4.447   4.077  2.6159  2.8733  1.3994
  692MOL0     H93371   1.484   4.341   3.908 -0.8089 -1.0813  1.7235
  692MOL0     H93372   1.367   4.125   3.785  0.1164  1.7590 -0.6325
  692MOL0     H93373   1.475   4.005   3.711  0.6043  0.7476 -0.1514
  692MOL0     H93374   1.343   3.889   3.839 -0.5656  0.8698 -0.3311
  692MOL0     H93375   1.489   3.895   3.940 -0.0911 -0.2605  0.1792
  692MOL0     H93376   1.220   4.028   3.984  1.1530  0.2862 -1.4136
  692MOL0     H93377   1.359   4.098   4.062  0.0196  0.6491  0.4959
  692MOL0     H93378   1.404   3.869   4.176  0.0109 -0.9900 -1.8639
  692MOL0     H93379   1.267   3.809   4.099  1.1406 -0.4946 -1.9660
  692MOL0     H93380   1.149   4.198   4.189  0.1576  0.0553  0.6685
  692MOL0     H93381   1.242   4.409   4.276 -0.9933  0.6501  0.1531
  692MOL0     H93382   1.676   4.663   4.320 -2.4547  0.9837 -0.8738
  692MOL0     H93383   1.729   4.895   4.411 -0.0249  0.6198  2.3184
  692MOL0     H93384   1.565   5.248   4.568 -0.9464  0.4198 -0.5528
  692MOL0     H93385   1.428   5.167   4.497  0.7391  2.0809 -1.7851
  692MOL0     H93386   1.377   5.052   4.721 -1.0079  0.1781 -1.0959
  692MOL0     H93387   1.552   5.092   4.771 -1.1662 -0.7624  2.3506
  692MOL0     H93388   1.347   5.313   4.720 -0.8517  0.0335  0.9604
  692MOL0     H93389   1.322   5.205   4.862  0.5488  0.1659  0.4416
  692MOL0     H93390   1.576   5.364   4.783  0.9483 -0.9226  1.5064
  692MOL0     H93391   1.569   5.256   4.921  1.5426  3.0570  1.9833
  692MOL0     H93392   1.377   5.391   5.010  1.3466 -0.2154  1.1667
  692MOL0     H93393   1.394   5.500   4.878  0.8368 -3.2745 -2.9691
  692MOL0     H93394   1.607   5.423   5.093 -1.6156 -1.1098 -0.5519
  692MOL0     H93395   1.640   5.564   4.984  1.5951 -1.5641  0.5034
  692MOL0     H93396   1.422   5.516   5.203  0.7328 -1.7672 -0.8151
  692MOL0     H93397   1.424   5.656   5.093 -1.8973 -2.3502 -1.3228
  692MOL0     H93398   1.540   5.672   5.334  3.0566  2.3381  0.7393
  692MOL0     H93399   1.672   5.582   5.250  0.8144 -0.2155 -0.1865
  692MOL0     H93400   1.340   4.942   4.542  0.3803  1.4956 -4.5747
  692MOL0     H93401   1.280   4.716   4.466 -0.4866 -0.6112  2.9236
  692MOL0     H93402   1.497   4.182   4.540 -1.5383  2.7567  0.5387
  692MOL0     H93403   1.398   3.975   4.460  0.7919  0.2916  0.3078
  692MOL0     H93404   2.106   5.211   4.001 -3.3071  2.0606  1.5652
  692MOL0     H93405   1.937   5.381   4.001  3.8247  0.3247  2.0924
  692MOL0     H93406   1.470   5.431   3.680  0.0821 -0.2332  0.8284
  692MOL0     H93407   1.281   5.612   3.657  0.0964 -2.1853  1.8169
  692MOL0     H93408   1.400   6.064   3.638  2.7030 -2.0060  0.0054
  692MOL0     H93409   1.370   6.025   3.806 -1.8641 -0.0602  0.8115
  692MOL0     H93410   1.129   6.035   3.779 -0.6447  2.8618  0.8994
  692MOL0     H93411   1.139   6.080   3.605 -0.1303  0.5544  1.4381
  692MOL0     H93412   1.296   6.262   3.690  0.3145 -0.0458 -0.9537
  692MOL0     H93413   1.205   6.238   3.844 -2.8141  0.0068  0.2123
  692MOL0     H93414   1.116   6.403   3.687  2.8200  0.2649 -0.3028
  692MOL0     H93415   1.103   6.292   3.559 -0.1379 -0.0084  0.2271
  692MOL0     H93416   0.732   6.230   3.718 -0.5616  5.2850 -0.7490
  692MOL0     H93417   1.568   5.914   3.753 -1.3986  0.2093  1.5560
  692MOL0     H93418   1.812   5.874   3.673  0.2551 -0.9102 -0.8497
  692MOL0     H93419   1.819   5.781   3.825 -3.0300 -0.8822  1.1431
  692MOL0     H93420   1.867   5.715   3.665  0.6757  2.6028 -0.9303
  693MOL0     O93421   8.472   2.747   2.012  0.5206 -0.1144 -0.1215
  693MOL0     C93422   8.582   2.703   1.972 -0.1045 -0.9646  0.1222
  693MOL0     O93423   8.674   2.774   1.903 -0.0047 -0.5451 -0.4167
  693MOL0     C93424   8.649   2.910   1.894 -0.9840 -0.3026 -0.0127
  693MOL0     C93425   8.633   2.984   1.768  0.1620  1.5819 -0.4739
  693MOL0     C93426   8.621   3.124   1.770  0.0451  0.0103  0.7312
  693MOL0     C93427   8.627   3.194   1.888  0.7179  0.5127 -0.0943
  693MOL0     O93428   8.615   3.338   1.880  0.0970 -0.2412 -0.6971
  693MOL0     C93429   8.507   3.394   1.958 -0.1426  0.3381 -0.1374
  693MOL0     C93430   8.452   3.526   1.895  0.9968 -1.2929 -0.1500
  693MOL0     C93431   8.413   3.528   1.748 -0.2140  0.7579  0.3246
  693MOL0     C93432   8.400   3.676   1.686  1.0367  0.0884  0.2189
  693MOL0     C93433   8.297   3.694   1.575  0.0324  0.2982  0.1582
  693MOL0     C93434   8.313   3.842   1.536  0.0423  0.4370 -0.6631
  693MOL0     C93435   8.226   3.867   1.411  0.7245  0.0301 -0.5055
  693MOL0     C93436   8.198   4.014   1.404 -0.0961  0.8504 -0.0048
  693MOL0     N93437   8.296   4.086   1.327  0.3473 -0.0888  0.0031
  693MOL0     C93438   8.420   4.122   1.374  0.0195 -0.4244 -0.2585
  693MOL0     C93439   8.478   4.195   1.278  0.8049 -0.5275  0.1537
  693MOL0     C93440   8.617   4.264   1.285  0.8707 -0.2919  0.7229
  693MOL0     C93441   8.690   4.251   1.145  0.5974  0.9315  0.4726
  693MOL0     C93442   8.803   4.357   1.129  0.6142 -0.2442  0.8552
  693MOL0     C93443   8.878   4.329   0.996  0.0228 -1.5981 -0.7044
  693MOL0     O93444   8.983   4.233   1.009  0.6890 -0.1557 -0.1311
  693MOL0     C93445   9.062   4.201   0.892  0.2323 -0.7799  0.5451
  693MOL0     C93446   9.052   4.274   0.769 -0.1588 -0.0294 -0.0838
  693MOL0     C93447   9.144   4.244   0.676  0.1937 -0.0843 -0.1334
  693MOL0     C93448   9.237   4.136   0.681 -0.2134 -0.6341 -0.0388
  693MOL0     C93449   9.318   4.088   0.565  0.0917 -0.1155 -0.2793
  693MOL0     O93450   9.362   4.188   0.482  0.3505 -0.8891  0.3870
  693MOL0     C93451   9.398   4.145   0.359  0.5680 -0.2184  0.8325
  693MOL0     C93452   9.511   4.060   0.326  0.0958  0.8009  0.2662
  693MOL0     C93453   9.539   4.043   0.190  0.1849  0.6805  0.1479
  693MOL0     C93454   9.464   4.088   0.085 -0.4934 -0.4345  0.3514
  693MOL0     O93455   9.479   4.068  -0.047 -0.8629  0.5122  0.3215
  693MOL0     C93456   9.572   3.963  -0.088 -0.5611  0.0287 -0.2405
  693MOL0     C93457   9.515   3.817  -0.061 -0.0941 -0.3489 -0.3737
  693MOL0     C93458   9.620   3.693  -0.043  0.2655 -0.2642  0.7343
  693MOL0     C93459   9.716   3.685  -0.167 -0.0113 -0.3449 -0.0864
  693MOL0     C93460   9.774   3.542  -0.167 -0.5352 -0.2462  0.1996
  693MOL0     C93461   9.904   3.533  -0.239 -0.1189  0.5759  0.1413
  693MOL0     C93462   9.979   3.403  -0.238  0.1527  0.5622  0.2523
  693MOL0     C93463  10.097   3.394  -0.145  0.3235 -0.2717 -0.9171
  693MOL0    Cl93464  10.036   3.439   0.011  0.5001 -0.0439  0.0738
  693MOL0     C93465   9.367   4.185   0.126 -0.2751 -0.7268  0.6334
  693MOL0     C93466   9.331   4.205   0.260 -0.0165 -0.0939 -0.2241
  693MOL0     O93467   9.354   3.974   0.574 -0.1385  0.3198 -1.1417
  693MOL0     C93468   9.234   4.063   0.796  0.4377  0.0606 -0.1034
  693MOL0     C93469   9.157   4.097   0.904 -0.5803  0.0945 -0.8328
  693MOL0     N93470   8.402   4.198   1.166  0.0037 -0.2434  0.8252
  693MOL0     N93471   8.290   4.137   1.197 -0.0170  0.2451 -0.4551
  693MOL0     C93472   8.633   3.128   2.004 -0.6688 -0.0025  0.5636
  693MOL0     C93473   8.648   2.985   2.006  0.7018  0.4791 -1.2609
  693MOL0     C93474   8.620   2.567   2.002  0.8829 -0.3380  0.3594
  693MOL0     C93475   8.520   2.467   1.999 -0.1011 -0.7881  0.0915
  693MOL0     C93476   8.553   2.330   2.022  0.0596  0.7482 -0.3037
  693MOL0     C93477   8.683   2.291   2.035 -0.0124  0.0392  0.0149
  693MOL0     O93478   8.711   2.164   2.069 -0.1728  0.6357 -0.1137
  693MOL0     C93479   8.778   2.158   2.205  0.0952 -0.2338  0.4580
  693MOL0     C93480   8.690   2.061   2.287  0.6380  0.3306 -0.8026
  693MOL0     C93481   8.762   1.927   2.334  0.0949  0.1252 -0.2105
  693MOL0     C93482   8.658   1.833   2.402  0.2553 -0.8806 -0.3491
  693MOL0     C93483   8.672   1.824   2.550 -0.3335 -0.5279  0.1518
  693MOL0     C93484   8.680   1.828   2.666 -0.2175 -0.1833 -0.2219
  693MOL0     C93485   8.788   2.390   2.021  0.3455  0.1192 -0.5031
  693MOL0     C93486   8.764   2.526   2.003  1.0648  0.2016 -1.2092
  693MOL0     C93487   8.888   2.617   1.988 -0.2464 -0.0540  0.4727
  693MOL0     H93488   8.629   2.928   1.675 -2.7843  0.9322 -0.0393
  693MOL0     H93489   8.610   3.169   1.672 -3.4142  0.8638  1.3802
  693MOL0     H93490   8.433   3.314   1.950  2.5544 -2.2308 -1.6620
  693MOL0     H93491   8.532   3.408   2.063  0.1892  0.1914 -0.1952
  693MOL0     H93492   8.519   3.609   1.918  0.8077 -1.6260  1.7276
  693MOL0     H93493   8.368   3.543   1.963  1.6281 -0.2030  0.3845
  693MOL0     H93494   8.313   3.485   1.738  0.1824  0.1693 -1.3711
  693MOL0     H93495   8.475   3.464   1.684 -0.6242 -0.9306  1.5295
  693MOL0     H93496   8.376   3.741   1.770  0.8233  1.1621 -0.6486
  693MOL0     H93497   8.500   3.699   1.649  1.0310  0.5486  0.4811
  693MOL0     H93498   8.326   3.621   1.499  1.6568 -1.2124  2.1198
  693MOL0     H93499   8.194   3.681   1.609 -0.6121  1.5675 -1.1905
  693MOL0     H93500   8.274   3.901   1.619 -0.2675 -1.8017  0.8490
  693MOL0     H93501   8.421   3.853   1.521  0.5199 -2.4758  0.0544
  693MOL0     H93502   8.131   3.814   1.421  0.6844  0.0852 -0.5916
  693MOL0     H93503   8.271   3.838   1.315  1.1561  3.1430 -1.3343
  693MOL0     H93504   8.105   4.013   1.346 -0.4746 -2.4094  0.4519
  693MOL0     H93505   8.183   4.067   1.498 -0.7127  2.7205 -1.0985
  693MOL0     H93506   8.446   4.089   1.474 -2.5639 -4.4470 -0.7013
  693MOL0     H93507   8.604   4.372   1.296 -2.0533 -0.5773  0.8109
  693MOL0     H93508   8.685   4.233   1.364  0.2136  0.7875  1.7340
  693MOL0     H93509   8.739   4.154   1.155 -1.1316  0.0834  1.1840
  693MOL0     H93510   8.631   4.252   1.053  3.5859  0.3288 -1.6143
  693MOL0     H93511   8.871   4.377   1.212  0.7445  1.9175  0.2803
  693MOL0     H93512   8.755   4.454   1.115 -1.3312 -1.1375  1.0975
  693MOL0     H93513   8.930   4.424   0.980  0.0521 -1.7772 -1.7468
  693MOL0     H93514   8.809   4.297   0.917  0.7981 -1.8756 -1.2735
  693MOL0     H93515   8.980   4.353   0.750  1.1765  0.2884 -4.9690
  693MOL0     H93516   9.155   4.307   0.588 -1.6717  2.6204  1.4068
  693MOL0     H93517   9.567   4.017   0.408 -2.0369 -0.0968  1.3271
  693MOL0     H93518   9.617   3.971   0.166  1.9158  1.9276  1.7310
  693MOL0     H93519   9.580   3.964  -0.198 -0.7799  3.2593 -0.3115
  693MOL0     H93520   9.679   3.975  -0.067 -0.0381 -1.7388 -1.6716
  693MOL0     H93521   9.476   3.823   0.041  1.8486  2.7790  0.3353
  693MOL0     H93522   9.436   3.789  -0.131 -0.4970  0.3985 -0.2268
  693MOL0     H93523   9.689   3.716   0.038  0.0474  0.2183  0.7836
  693MOL0     H93524   9.563   3.604  -0.016  0.2992 -0.9371 -1.1884
  693MOL0     H93525   9.795   3.758  -0.155  0.9421 -1.4651  0.7024
  693MOL0     H93526   9.658   3.695  -0.259 -0.3682 -0.9016  0.0668
  693MOL0     H93527   9.697   3.477  -0.209 -0.7075 -0.0091  0.1418
  693MOL0     H93528   9.789   3.518  -0.062  3.6309  0.3457 -0.1167
  693MOL0     H93529   9.896   3.564  -0.343  0.8932  1.9494  0.4416
  693MOL0     H93530   9.972   3.610  -0.203 -1.0325  0.6312  1.8340
  693MOL0     H93531  10.023   3.395  -0.338 -1.5631 -1.9387 -0.3997
  693MOL0     H93532   9.909   3.319  -0.231 -2.8391  2.3752 -3.6531
  693MOL0     H93533  10.148   3.298  -0.154  0.0936 -0.3885 -0.9752
  693MOL0     H93534  10.164   3.478  -0.165  0.3736 -0.3645 -1.1346
  693MOL0     H93535   9.307   4.237   0.053  2.5268  1.3568 -0.3603
  693MOL0     H93536   9.255   4.277   0.290 -2.3727 -3.3109  2.2532
  693MOL0     H93537   9.294   3.973   0.802 -2.0295 -1.7109 -0.1777
  693MOL0     H93538   9.175   4.044   0.997  2.8558  0.4094 -1.1609
  693MOL0     H93539   8.632   3.179   2.100  1.6008  1.2047  0.0074
  693MOL0     H93540   8.656   2.931   2.099 -2.2280  0.9205 -0.6774
  693MOL0     H93541   8.420   2.502   1.977  0.2006  0.8229  1.0880
  693MOL0     H93542   8.472   2.261   2.043 -0.5309  1.7020  0.6745
  693MOL0     H93543   8.780   2.256   2.253 -3.7859  2.2627 -3.6106
  693MOL0     H93544   8.880   2.120   2.207 -0.3227 -1.4276  0.4730
  693MOL0     H93545   8.612   2.027   2.218 -0.3350 -0.1897  0.4977
  693MOL0     H93546   8.655   2.100   2.383  0.6497 -3.7496  1.0852
  693MOL0     H93547   8.847   1.953   2.398  1.7715 -4.4041 -0.2448
  693MOL0     H93548   8.808   1.885   2.245  0.5536  0.8156 -0.3085
  693MOL0     H93549   8.554   1.853   2.374  0.1382 -1.1597 -0.1223
  693MOL0     H93550   8.658   1.735   2.353 -0.2190 -0.1686 -1.8311
  693MOL0     H93551   8.699   1.822   2.771  1.1991  3.4924 -0.1253
  693MOL0     H93552   8.891   2.359   2.030  0.5935  1.1205  0.3011
  693MOL0     H93553   8.975   2.562   2.024  1.1591  2.8217  1.8042
  693MOL0     H93554   8.904   2.660   1.889  1.5020 -1.2029  0.2055
  693MOL0     H93555   8.865   2.700   2.055  0.1749  0.2107  0.2879
  694MOL0     O93556   9.350   7.506   7.552  0.3192  0.6887  0.6505
  694MOL0     C93557   9.311   7.607   7.603  0.3349 -1.1472 -0.5203
  694MOL0     O93558   9.302   7.729   7.529 -0.4782  0.0478 -0.2965
  694MOL0     C93559   9.338   7.730   7.393  0.2358  0.4663  0.1340
  694MOL0     C93560   9.238   7.678   7.315  0.2984 -0.2936 -0.0530
  694MOL0     C93561   9.256   7.664   7.175 -0.2854 -0.5055 -0.3173
  694MOL0     C93562   9.375   7.707   7.118  0.9061 -0.0261 -0.4505
  694MOL0     O93563   9.414   7.695   6.986 -0.6730 -0.0046 -0.2633
  694MOL0     C93564   9.382   7.577   6.916 -0.4626  0.1099 -0.0145
  694MOL0     C93565   9.440   7.585   6.773 -0.3885  0.0255 -0.4358
  694MOL0     C93566   9.596   7.569   6.769  0.3769  0.5166  0.2167
  694MOL0     C93567   9.631   7.534   6.621  0.3339 -0.2131  0.0094
  694MOL0     C93568   9.778   7.498   6.599 -0.3045 -0.8173 -0.4921
  694MOL0     C93569   9.814   7.424   6.466 -0.9800 -1.6221  0.1123
  694MOL0     C93570   9.793   7.520   6.346 -0.5082  0.4707  0.4638
  694MOL0     C93571   9.771   7.449   6.215  0.5150  0.0089  0.2456
  694MOL0     N93572   9.643   7.377   6.217  0.5918 -0.1952 -0.0797
  694MOL0     C93573   9.515   7.429   6.225  0.5075  0.0487 -0.2340
  694MOL0     C93574   9.431   7.320   6.222  0.4355 -0.6971  1.0585
  694MOL0     C93575   9.281   7.329   6.225 -0.5024 -0.7629  0.3815
  694MOL0     C93576   9.217   7.366   6.369 -0.0466  1.2939 -0.9689
  694MOL0     C93577   9.242   7.254   6.472  0.0643  0.3999  0.5751
  694MOL0     C93578   9.169   7.270   6.598  0.1236 -0.4739  0.1431
  694MOL0     O93579   9.166   7.414   6.632 -0.7095  0.3099 -0.1757
  694MOL0     C93580   9.074   7.459   6.726  0.3177 -0.0835  0.4705
  694MOL0     C93581   9.052   7.602   6.729 -0.7112  0.3392  0.5133
  694MOL0     C93582   8.975   7.664   6.821 -0.2734  0.0005 -0.1638
  694MOL0     C93583   8.924   7.586   6.930  0.3672 -0.1859 -0.0718
  694MOL0     C93584   8.838   7.661   7.035 -0.8892  0.3989 -0.1709
  694MOL0     O93585   8.829   7.797   7.007 -0.5522  0.7399 -0.9664
  694MOL0     C93586   8.762   7.872   7.096  0.2065 -0.3181 -0.6386
  694MOL0     C93587   8.781   7.882   7.238 -0.4012 -0.5230  1.0934
  694MOL0     C93588   8.715   7.967   7.325 -0.2547  0.1988  0.3893
  694MOL0     C93589   8.622   8.052   7.275  0.8264 -0.0629  1.1303
  694MOL0     O93590   8.538   8.133   7.358 -0.4030  0.3598 -0.5139
  694MOL0     C93591   8.571   8.272   7.344  0.9560  0.2964 -1.2155
  694MOL0     C93592   8.564   8.364   7.465 -0.1159 -0.2683  0.2564
  694MOL0     C93593   8.427   8.386   7.522 -0.6332  0.5066  0.2723
  694MOL0     C93594   8.335   8.473   7.430 -0.2695 -0.0256  0.1832
  694MOL0     C93595   8.179   8.479   7.469 -0.5399 -0.3621  0.3738
  694MOL0     C93596   8.144   8.534   7.612 -0.2614 -0.3000 -0.0412
  694MOL0     C93597   8.000   8.583   7.621  0.2829  0.1372  0.7627
  694MOL0     C93598   7.978   8.710   7.550 -0.0382  1.1949  0.6759
  694MOL0    Cl93599   8.059   8.833   7.659  0.1170 -0.2032 -0.1992
  694MOL0     C93600   8.606   8.048   7.137 -0.0132  0.3335 -0.1755
  694MOL0     C93601   8.680   7.966   7.050 -0.2694 -0.5642  1.2743
  694MOL0     O93602   8.798   7.604   7.137  0.2194  0.5790  1.1190
  694MOL0     C93603   8.934   7.441   6.934 -0.6639  0.6194  0.0194
  694MOL0     C93604   9.019   7.383   6.832 -0.0596 -0.0271 -0.2065
  694MOL0     N93605   9.513   7.203   6.225  0.1444  0.3581  0.5121
  694MOL0     N93606   9.639   7.238   6.221 -0.1735  0.1268 -0.4611
  694MOL0     C93607   9.460   7.787   7.195 -0.9497  0.0385  0.0649
  694MOL0     C93608   9.445   7.790   7.335  0.1437  0.4814 -0.5000
  694MOL0     C93609   9.257   7.614   7.739 -0.6441  0.4867  0.1319
  694MOL0     C93610   9.247   7.746   7.794 -0.4355 -0.1394  0.0885
  694MOL0     C93611   9.196   7.751   7.924 -1.0058  0.3808 -0.9157
  694MOL0     C93612   9.154   7.643   8.008 -0.1266  0.4196  1.0266
  694MOL0     O93613   9.122   7.650   8.134  0.0400 -0.2665 -0.1067
  694MOL0     C93614   9.018   7.746   8.161  1.3392  0.6428 -0.7199
  694MOL0     C93615   8.896   7.731   8.067 -0.9049 -0.1724 -0.3214
  694MOL0     C93616   8.825   7.599   8.095 -0.2407  0.3761 -0.9518
  694MOL0     C93617   8.688   7.580   8.015 -0.1374  0.2186 -1.3168
  694MOL0     C93618   8.724   7.604   7.873  0.0785 -0.4742 -0.0583
  694MOL0     C93619   8.755   7.639   7.753 -0.3035  1.2503 -0.3840
  694MOL0     C93620   9.158   7.519   7.948  0.2463 -0.0058 -0.0854
  694MOL0     C93621   9.211   7.501   7.816  0.5940  1.1551  0.6051
  694MOL0     C93622   9.206   7.355   7.761  0.5682 -0.9643 -0.0923
  694MOL0     H93623   9.148   7.635   7.357  1.6426 -1.7089  1.5171
  694MOL0     H93624   9.178   7.611   7.122 -3.1823  2.1423  0.9748
  694MOL0     H93625   9.426   7.488   6.962 -2.1892  0.0203  1.6025
  694MOL0     H93626   9.273   7.564   6.921 -0.6555  1.5591 -0.2311
  694MOL0     H93627   9.421   7.685   6.734  0.6302  0.2587 -0.3471
  694MOL0     H93628   9.395   7.521   6.696  1.1530 -1.7515  0.0702
  694MOL0     H93629   9.638   7.496   6.839 -1.9947 -0.6647  0.5110
  694MOL0     H93630   9.635   7.665   6.802 -1.9753  1.4363  0.4539
  694MOL0     H93631   9.580   7.446   6.581  0.5801  0.3600 -1.6561
  694MOL0     H93632   9.618   7.627   6.564 -0.9693  1.5686  2.9503
  694MOL0     H93633   9.840   7.588   6.613  2.3209 -2.9829  3.5416
  694MOL0     H93634   9.801   7.418   6.669  2.4403 -3.3050 -3.8645
  694MOL0     H93635   9.915   7.382   6.465  0.3115  1.2426 -0.2017
  694MOL0     H93636   9.746   7.342   6.443  0.8189 -2.8553 -1.1300
  694MOL0     H93637   9.877   7.589   6.336 -1.3860  1.3203 -1.7150
  694MOL0     H93638   9.704   7.582   6.364  0.7978  2.4608  0.3089
  694MOL0     H93639   9.764   7.526   6.137  0.2698  0.1091  0.3641
  694MOL0     H93640   9.847   7.374   6.192  2.5277  1.1976  2.5296
  694MOL0     H93641   9.503   7.536   6.216  4.8048  0.6561 -0.7019
  694MOL0     H93642   9.241   7.394   6.146 -1.1321 -0.3584  1.0122
  694MOL0     H93643   9.236   7.232   6.200 -1.8613  0.1654 -1.0290
  694MOL0     H93644   9.249   7.467   6.399 -2.4268  1.1964  2.5119
  694MOL0     H93645   9.111   7.367   6.345 -1.3819 -2.9746  3.3569
  694MOL0     H93646   9.350   7.252   6.489  0.6876  3.3920 -2.0594
  694MOL0     H93647   9.217   7.165   6.414  1.9325  0.6633 -0.6920
  694MOL0     H93648   9.195   7.201   6.679  0.1115  1.4147  1.8375
  694MOL0     H93649   9.063   7.246   6.586  0.3749 -1.7271  0.3534
  694MOL0     H93650   9.102   7.656   6.649  1.3669 -1.6873  0.3628
  694MOL0     H93651   8.940   7.764   6.797  1.1808 -0.1866 -3.6713
  694MOL0     H93652   8.860   7.818   7.274  2.2999  2.7841  1.5297
  694MOL0     H93653   8.724   7.955   7.432 -1.7688 -0.6100  0.4486
  694MOL0     H93654   8.676   8.281   7.316  1.1847  4.0779  0.2599
  694MOL0     H93655   8.503   8.313   7.268  1.1003  1.6967 -0.6235
  694MOL0     H93656   8.626   8.332   7.549 -1.6416 -2.0867  0.7257
  694MOL0     H93657   8.600   8.464   7.436  0.6491 -0.6221 -0.0699
  694MOL0     H93658   8.386   8.287   7.543  0.5218 -0.0604 -0.0298
  694MOL0     H93659   8.436   8.432   7.621 -1.1566  2.4168 -0.5363
  694MOL0     H93660   8.348   8.435   7.328 -3.0994  1.6030 -0.8985
  694MOL0     H93661   8.370   8.576   7.431  3.7181 -1.2004 -0.2548
  694MOL0     H93662   8.134   8.379   7.468  0.1898 -0.8043  3.0240
  694MOL0     H93663   8.151   8.547   7.388  2.6940  1.6889  0.7615
  694MOL0     H93664   8.159   8.458   7.689  2.1434 -0.9478 -1.0463
  694MOL0     H93665   8.212   8.617   7.635 -3.9569  3.6290 -1.9780
  694MOL0     H93666   7.979   8.582   7.728 -0.6032  1.9444  0.6508
  694MOL0     H93667   7.927   8.510   7.587  1.0683 -0.4217  0.2624
  694MOL0     H93668   8.022   8.714   7.450 -0.5188 -2.2607  0.2057
  694MOL0     H93669   7.869   8.717   7.545 -0.5457 -3.3129  0.9703
  694MOL0     H93670   8.524   8.113   7.110 -1.7409 -1.3653  0.6991
  694MOL0     H93671   8.668   7.980   6.943  0.5809  0.8613  1.3420
  694MOL0     H93672   8.885   7.374   7.004 -1.0415  0.4186 -0.4257
  694MOL0     H93673   9.046   7.278   6.830  0.5613  0.1234 -2.0518
  694MOL0     H93674   9.549   7.827   7.148 -0.8585 -0.6386 -0.3439
  694MOL0     H93675   9.518   7.841   7.397 -0.0816 -0.1292  0.2888
  694MOL0     H93676   9.269   7.832   7.732 -0.6694 -2.1436 -2.9793
  694MOL0     H93677   9.194   7.852   7.964  1.3201  0.0028  0.3631
  694MOL0     H93678   9.057   7.848   8.151  0.0852  1.5864  2.5702
  694MOL0     H93679   8.988   7.754   8.266  0.5556  1.8452 -1.0027
  694MOL0     H93680   8.928   7.739   7.963 -2.2009 -2.5342 -0.9724
  694MOL0     H93681   8.817   7.805   8.082 -3.6989 -3.2674  1.8125
  694MOL0     H93682   8.810   7.581   8.202  2.3230 -0.6886 -0.7108
  694MOL0     H93683   8.887   7.521   8.050 -1.8840 -0.1888 -2.3151
  694MOL0     H93684   8.638   7.487   8.043 -3.0603  2.3917  1.3469
  694MOL0     H93685   8.619   7.660   8.043 -3.0469 -2.5285 -0.1102
  694MOL0     H93686   8.783   7.660   7.652  1.7518 -1.1366 -0.4160
  694MOL0     H93687   9.114   7.437   8.005  2.1524 -0.9306  0.1380
  694MOL0     H93688   9.314   7.338   7.758  0.7714 -0.0561  1.3260
  694MOL0     H93689   9.153   7.283   7.824  0.4304 -0.5222  0.3027
  694MOL0     H93690   9.153   7.355   7.666 -0.7529  4.0862  0.3631
  695MOL0     O93691   5.269   2.345   0.862  0.6389 -0.2432 -0.4364
  695MOL0     C93692   5.274   2.344   0.987  0.7046  0.5145  0.0985
  695MOL0     O93693   5.350   2.434   1.064  0.0265  0.2215 -0.0533
  695MOL0     C93694   5.377   2.552   1.004  0.0337  0.2763  0.4645
  695MOL0     C93695   5.500   2.612   1.038  0.5877  0.0100 -0.3310
  695MOL0     C93696   5.531   2.739   0.988 -0.1166  1.2358  0.2100
  695MOL0     C93697   5.441   2.799   0.908 -0.0888 -0.5613  1.0194
  695MOL0     O93698   5.469   2.938   0.863 -0.9719  0.5020 -0.6149
  695MOL0     C93699   5.388   3.046   0.921 -0.6397  0.0115  0.5959
  695MOL0     C93700   5.345   3.152   0.818 -0.6029  0.6610  0.8375
  695MOL0     C93701   5.253   3.256   0.879  0.2753 -1.1303  0.2927
  695MOL0     C93702   5.153   3.315   0.768  0.4393 -0.4577  0.2577
  695MOL0     C93703   5.018   3.243   0.747  0.1568  0.5702  0.4033
  695MOL0     C93704   5.031   3.095   0.698 -0.0993  0.0718 -0.3602
  695MOL0     C93705   4.901   3.031   0.658  0.6923  0.1662 -0.4089
  695MOL0     C93706   4.799   2.992   0.771 -0.3491  0.0246  0.3923
  695MOL0     N93707   4.671   2.941   0.714 -1.2855  0.8981  0.4968
  695MOL0     C93708   4.645   2.805   0.691  0.8615 -0.0496 -0.5674
  695MOL0     C93709   4.525   2.804   0.617  0.0393  0.1605 -0.3984
  695MOL0     C93710   4.462   2.668   0.589  0.5276 -0.0898 -0.0966
  695MOL0     C93711   4.368   2.627   0.701 -1.1091 -0.1655  0.5226
  695MOL0     C93712   4.310   2.485   0.669  0.2132 -0.7863  1.0640
  695MOL0     C93713   4.245   2.423   0.786  0.3961  0.7242 -0.3373
  695MOL0     O93714   4.103   2.463   0.798  0.5578 -0.0357 -0.4424
  695MOL0     C93715   4.086   2.510   0.931 -0.8411 -0.4171 -0.0759
  695MOL0     C93716   4.103   2.656   0.951  0.0436 -0.7029 -0.6832
  695MOL0     C93717   4.085   2.697   1.082  0.3036  0.1050 -0.1461
  695MOL0     C93718   4.055   2.609   1.184  0.2410 -0.0221 -0.7234
  695MOL0     C93719   4.040   2.662   1.321  0.3683  0.3106 -1.0192
  695MOL0     O93720   4.022   2.799   1.324 -0.1153  0.5180  1.1155
  695MOL0     C93721   4.010   2.860   1.448  0.6214 -0.7585 -0.2923
  695MOL0     C93722   4.043   2.992   1.456  1.0781  0.6299 -0.2201
  695MOL0     C93723   3.993   3.067   1.563 -0.6821  0.1419 -0.1552
  695MOL0     C93724   3.932   3.011   1.677 -0.1890 -0.1075  0.0389
  695MOL0     O93725   3.885   3.098   1.765  0.0858 -0.4816 -0.0011
  695MOL0     C93726   3.857   3.054   1.896  0.4552  0.6853  0.7735
  695MOL0     C93727   3.833   3.166   1.998  1.1214  0.3547  0.2539
  695MOL0     C93728   3.818   3.102   2.140  0.2074 -0.0256  0.3147
  695MOL0     C93729   3.791   3.218   2.253  0.2434  0.0595  0.2070
  695MOL0     C93730   3.753   3.143   2.377  0.2080 -0.8610  0.0772
  695MOL0     C93731   3.775   3.226   2.500  0.0498 -0.3095 -0.1829
  695MOL0     C93732   3.718   3.172   2.632  0.0763  0.6320  0.2103
  695MOL0     C93733   3.761   3.246   2.760 -0.1643 -0.2199 -0.2757
  695MOL0    Cl93734   3.758   3.424   2.727 -0.9571 -0.4759 -0.3718
  695MOL0     C93735   3.914   2.869   1.681 -0.1422 -0.4857 -0.5374
  695MOL0     C93736   3.943   2.803   1.562 -0.3285 -1.1833  0.9099
  695MOL0     O93737   4.054   2.584   1.416 -0.6916 -0.5298  0.4082
  695MOL0     C93738   4.049   2.469   1.159  0.5923  0.2784 -0.4277
  695MOL0     C93739   4.060   2.423   1.032 -0.8968 -0.0737 -0.7598
  695MOL0     N93740   4.481   2.934   0.600  0.6855  0.3026  0.5285
  695MOL0     N93741   4.569   3.015   0.657  0.5939  0.5030 -0.3587
  695MOL0     C93742   5.324   2.739   0.852  1.0989 -0.4217 -0.1055
  695MOL0     C93743   5.288   2.619   0.910  0.2025  0.0939  1.4200
  695MOL0     C93744   5.220   2.224   1.060 -0.8686 -0.6840 -0.0188
  695MOL0     C93745   5.295   2.182   1.182  0.5882  0.1663  0.5798
  695MOL0     C93746   5.254   2.073   1.255 -0.0466  0.5176 -0.2563
  695MOL0     C93747   5.139   1.998   1.210 -0.5791 -0.7695  0.4247
  695MOL0     O93748   5.086   1.887   1.274 -0.2611 -0.1391 -0.5970
  695MOL0     C93749   5.159   1.793   1.356 -0.6076  0.5666  0.0520
  695MOL0     C93750   5.158   1.820   1.515 -0.7178  0.1170  0.0303
  695MOL0     C93751   5.012   1.806   1.560 -0.4516  0.3584 -0.3315
  695MOL0     C93752   4.960   1.663   1.576 -0.3805  0.7364  0.4190
  695MOL0     C93753   4.831   1.674   1.645 -0.7071 -0.1787  0.3209
  695MOL0     C93754   4.744   1.686   1.728 -0.3041 -0.2917  0.1543
  695MOL0     C93755   5.065   2.041   1.096 -0.3479 -0.0399 -0.1608
  695MOL0     C93756   5.101   2.160   1.026  0.5393 -0.6252 -0.8945
  695MOL0     C93757   5.014   2.197   0.910  0.8361 -0.4481 -0.0765
  695MOL0     H93758   5.570   2.558   1.101  2.1387  2.6556  0.3670
  695MOL0     H93759   5.621   2.789   1.023 -0.4384  0.7462  1.8305
  695MOL0     H93760   5.302   2.990   0.959 -0.0460 -1.8474 -0.6776
  695MOL0     H93761   5.441   3.100   1.000  1.3413  0.6779 -1.1228
  695MOL0     H93762   5.294   3.097   0.739 -0.8663  3.0484 -0.7527
  695MOL0     H93763   5.432   3.192   0.765 -0.4712  1.4379  1.6145
  695MOL0     H93764   5.321   3.340   0.894 -1.9524  0.8886 -0.3399
  695MOL0     H93765   5.190   3.232   0.964  0.4870 -1.9651  0.2221
  695MOL0     H93766   5.127   3.419   0.789  1.4194 -0.1238 -0.1297
  695MOL0     H93767   5.210   3.309   0.675 -0.3897  0.0007 -0.2860
  695MOL0     H93768   4.962   3.244   0.841  1.9575 -3.3157  1.7173
  695MOL0     H93769   4.966   3.302   0.671 -1.6609  1.3188  2.1378
  695MOL0     H93770   5.099   3.075   0.615 -0.1798  0.3089 -0.4829
  695MOL0     H93771   5.066   3.035   0.783 -1.2257  0.7390  0.6028
  695MOL0     H93772   4.931   2.937   0.609  1.8853  0.9281 -1.2121
  695MOL0     H93773   4.853   3.097   0.586 -2.5217  0.3943  1.7687
  695MOL0     H93774   4.833   2.908   0.832  0.9634 -1.8002 -2.6428
  695MOL0     H93775   4.784   3.071   0.844 -2.5100 -1.6352  1.8769
  695MOL0     H93776   4.708   2.723   0.725  0.3880  0.1093  0.7671
  695MOL0     H93777   4.402   2.677   0.498 -1.8028 -0.6115  1.2990
  695MOL0     H93778   4.534   2.589   0.566  1.7681  0.5000  1.5615
  695MOL0     H93779   4.404   2.630   0.805 -2.6711  0.5408  1.0686
  695MOL0     H93780   4.287   2.699   0.714 -0.0877  0.9678  0.8641
  695MOL0     H93781   4.402   2.429   0.652 -0.0615 -0.7787 -0.6006
  695MOL0     H93782   4.251   2.478   0.577  0.7615  0.6181  0.5868
  695MOL0     H93783   4.299   2.427   0.881 -1.9193  0.2365  1.0849
  695MOL0     H93784   4.242   2.317   0.761 -0.5627 -0.3067  3.4651
  695MOL0     H93785   4.126   2.736   0.881 -0.6310  1.0790  1.0828
  695MOL0     H93786   4.105   2.799   1.113  0.4664 -0.7632  3.0344
  695MOL0     H93787   4.082   3.053   1.376  4.0278  1.3295  1.5788
  695MOL0     H93788   4.011   3.174   1.555 -1.7984  0.3742  0.2239
  695MOL0     H93789   3.776   2.980   1.891 -0.7458  1.8820  1.6962
  695MOL0     H93790   3.946   3.011   1.941  0.8288 -0.7615 -1.1919
  695MOL0     H93791   3.920   3.232   1.997  0.4244  1.3005 -0.3022
  695MOL0     H93792   3.741   3.221   1.973  1.4091  2.2401  2.8705
  695MOL0     H93793   3.741   3.025   2.144 -1.4869  1.6636  2.3457
  695MOL0     H93794   3.913   3.054   2.164  0.9255 -0.1744 -2.4257
  695MOL0     H93795   3.718   3.294   2.222  0.4387  0.6300  1.1127
  695MOL0     H93796   3.883   3.273   2.276  1.5384 -2.0816  0.3797
  695MOL0     H93797   3.810   3.050   2.388  2.2715  0.4270  0.8678
  695MOL0     H93798   3.648   3.115   2.360 -0.3665  2.5095 -3.2624
  695MOL0     H93799   3.883   3.231   2.515 -0.2093 -2.4724  3.5266
  695MOL0     H93800   3.723   3.320   2.478  0.7148  0.1664  0.2545
  695MOL0     H93801   3.739   3.065   2.639  0.6462  0.5021 -2.5368
  695MOL0     H93802   3.609   3.174   2.625  0.1449  1.4886 -0.8925
  695MOL0     H93803   3.676   3.226   2.826  1.2771 -0.0132  1.7339
  695MOL0     H93804   3.848   3.215   2.819 -1.5090 -1.0664  1.3666
  695MOL0     H93805   3.856   2.813   1.754  2.6742 -2.1218  0.6061
  695MOL0     H93806   3.894   2.708   1.544 -3.2299  0.5522 -1.2124
  695MOL0     H93807   4.022   2.399   1.238  2.0009  0.4837  0.2716
  695MOL0     H93808   4.047   2.317   1.015 -2.9575  0.6192 -4.3589
  695MOL0     H93809   5.257   2.788   0.782 -1.4199 -2.4670  0.6891
  695MOL0     H93810   5.185   2.589   0.893  0.5480  0.7531 -3.4839
  695MOL0     H93811   5.382   2.240   1.211 -0.5546  3.1095 -1.3349
  695MOL0     H93812   5.304   2.042   1.346 -1.6983 -0.4976  0.3544
  695MOL0     H93813   5.264   1.788   1.328 -1.5722 -0.5895 -4.0805
  695MOL0     H93814   5.123   1.691   1.341  0.7927  0.2704 -1.6158
  695MOL0     H93815   5.196   1.921   1.532 -3.2688  1.2609 -0.6622
  695MOL0     H93816   5.214   1.748   1.576 -4.2733 -0.6573  2.6954
  695MOL0     H93817   4.951   1.856   1.485  0.8500 -0.7959 -2.2530
  695MOL0     H93818   5.001   1.854   1.658  0.0415 -0.0772 -0.0580
  695MOL0     H93819   4.943   1.608   1.483  2.1953  1.5573 -0.6083
  695MOL0     H93820   5.036   1.612   1.636  1.5033  1.6276 -1.1100
  695MOL0     H93821   4.682   1.693   1.815  0.3445 -0.2105  0.6223
  695MOL0     H93822   4.980   1.982   1.065 -0.4503  0.5026 -0.9469
  695MOL0     H93823   4.911   2.176   0.939  0.5581  3.3052  2.3676
  695MOL0     H93824   5.006   2.306   0.903  2.2228 -0.2416  1.1583
  695MOL0     H93825   5.046   2.152   0.815  0.2081 -2.1531  0.4761
  696MOL0     O93826   2.731   3.903   6.052  0.8049  0.5203  0.1643
  696MOL0     C93827   2.849   3.889   6.064 -0.0586 -0.3666 -0.4525
  696MOL0     O93828   2.925   3.787   6.009  0.3954 -1.0911 -0.2054
  696MOL0     C93829   2.862   3.689   5.926  0.6891 -0.0156  0.6311
  696MOL0     C93830   2.895   3.561   5.939 -0.4045 -0.5264  0.9958
  696MOL0     C93831   2.853   3.458   5.861  0.7192 -0.3120  0.2784
  696MOL0     C93832   2.751   3.491   5.759 -0.9711 -0.3402  0.3216
  696MOL0     O93833   2.699   3.390   5.686  0.2021 -1.5057 -0.1564
  696MOL0     C93834   2.590   3.409   5.593 -0.0228  0.3418  0.5324
  696MOL0     C93835   2.460   3.399   5.667  1.2214  0.2792 -0.0839
  696MOL0     C93836   2.349   3.321   5.599  0.1168  0.3581  0.0511
  696MOL0     C93837   2.312   3.390   5.467 -0.0736  0.4913  0.5309
  696MOL0     C93838   2.171   3.346   5.404 -0.1310 -0.7382 -0.7517
  696MOL0     C93839   2.047   3.328   5.496 -0.5757  0.0187 -0.3405
  696MOL0     C93840   1.922   3.331   5.414  0.4885  0.7631  0.1259
  696MOL0     C93841   1.792   3.330   5.499 -0.0523 -0.7487 -0.4338
  696MOL0     N93842   1.790   3.210   5.580  0.2214 -0.1149  0.0280
  696MOL0     C93843   1.815   3.088   5.524 -0.3144 -0.1580 -0.4278
  696MOL0     C93844   1.833   3.008   5.630 -0.2764  0.6500 -1.3647
  696MOL0     C93845   1.902   2.878   5.609  0.9080 -0.2543  0.5982
  696MOL0     C93846   2.056   2.893   5.608  0.0939  0.5403 -0.0791
  696MOL0     C93847   2.101   2.754   5.568 -0.2125  0.6256  0.4136
  696MOL0     C93848   2.251   2.756   5.536  0.5033  0.0163 -0.4933
  696MOL0     O93849   2.288   2.857   5.436  0.0457 -0.0196  0.0967
  696MOL0     C93850   2.419   2.872   5.403  0.2345  0.3601 -0.9696
  696MOL0     C93851   2.525   2.791   5.443  0.5507  0.1720  0.7170
  696MOL0     C93852   2.652   2.798   5.380 -0.7998  0.4918  0.8455
  696MOL0     C93853   2.679   2.900   5.283 -0.0011 -0.8270 -0.3548
  696MOL0     C93854   2.814   2.923   5.214  0.7891 -0.1845 -0.4191
  696MOL0     O93855   2.910   2.838   5.267 -0.1779 -0.0964  0.1361
  696MOL0     C93856   3.030   2.810   5.199  0.1666  0.5810 -0.2232
  696MOL0     C93857   3.037   2.793   5.068 -0.3174 -0.5415  0.4244
  696MOL0     C93858   3.150   2.758   4.999  0.3524  0.0320 -0.1818
  696MOL0     C93859   3.264   2.739   5.077 -0.0852 -0.4049 -0.1722
  696MOL0     O93860   3.375   2.687   5.008 -0.2364 -0.3590  0.0318
  696MOL0     C93861   3.462   2.787   4.965 -0.6316  0.2025  0.9912
  696MOL0     C93862   3.593   2.731   4.912  0.7180 -1.2704 -1.0743
  696MOL0     C93863   3.638   2.833   4.807  0.4370 -0.5794  0.5964
  696MOL0     C93864   3.792   2.813   4.786 -0.7503  0.3273  0.0851
  696MOL0     C93865   3.846   2.902   4.671  0.2407 -0.2252  0.3573
  696MOL0     C93866   3.995   2.884   4.643 -0.1084 -0.1204  1.0691
  696MOL0     C93867   4.034   2.743   4.614  0.0043 -0.4428  0.5033
  696MOL0     C93868   4.168   2.732   4.541  0.2799 -0.0405 -0.0811
  696MOL0    Cl93869   4.304   2.794   4.631 -0.4773  0.0728 -0.5053
  696MOL0     C93870   3.257   2.751   5.214  0.1908 -1.2713 -0.4253
  696MOL0     C93871   3.144   2.792   5.276  0.7230 -0.2830  0.7262
  696MOL0     O93872   2.828   3.004   5.128 -0.1489 -0.0523 -0.0053
  696MOL0     C93873   2.578   2.982   5.244  0.5847  0.3092  0.1134
  696MOL0     C93874   2.453   2.965   5.308  0.9109 -0.7202  0.3489
  696MOL0     N93875   1.796   3.072   5.745 -0.3337  0.1741 -0.3178
  696MOL0     N93876   1.785   3.197   5.716 -0.7486  0.2075  0.5192
  696MOL0     C93877   2.712   3.620   5.755  0.9037  0.1909  0.4289
  696MOL0     C93878   2.763   3.719   5.831 -0.6257 -0.2011  0.7202
  696MOL0     C93879   2.915   4.009   6.128 -0.4488 -0.2664 -0.2001
  696MOL0     C93880   2.850   4.136   6.127  0.6063 -0.0525  0.4274
  696MOL0     C93881   2.893   4.240   6.217  0.3129 -0.3967  0.7434
  696MOL0     C93882   3.005   4.222   6.292 -0.9796 -1.0356 -1.2313
  696MOL0     O93883   3.064   4.323   6.364  0.6491  0.0391  0.6126
  696MOL0     C93884   3.089   4.449   6.300  0.2865  0.0803  0.4931
  696MOL0     C93885   2.972   4.537   6.360  0.4010 -0.0795 -0.3702
  696MOL0     C93886   3.057   4.655   6.433 -0.2335  0.9865  0.0829
  696MOL0     C93887   2.976   4.751   6.519 -0.0809 -0.9127  1.0293
  696MOL0     C93888   2.839   4.783   6.457 -0.1286  0.1643  0.3708
  696MOL0     C93889   2.752   4.809   6.379 -0.2666 -0.6713  0.0293
  696MOL0     C93890   3.067   4.098   6.297  0.7074 -0.8239 -0.8526
  696MOL0     C93891   3.032   3.995   6.212 -0.3645  0.2542 -0.0668
  696MOL0     C93892   3.107   3.873   6.247 -0.5403  0.8368  0.2047
  696MOL0     H93893   2.981   3.546   6.005  1.5070  3.6957 -0.1792
  696MOL0     H93894   2.903   3.361   5.862 -1.0175 -1.2477  0.1577
  696MOL0     H93895   2.600   3.504   5.541 -0.0991  0.2911  0.4253
  696MOL0     H93896   2.588   3.326   5.522  2.0258 -0.9585  1.8920
  696MOL0     H93897   2.411   3.491   5.700 -2.8318 -0.2766 -3.7379
  696MOL0     H93898   2.490   3.333   5.749  1.1904 -0.4071 -0.6127
  696MOL0     H93899   2.258   3.313   5.660  2.0755 -1.6934  3.0121
  696MOL0     H93900   2.383   3.219   5.580  1.6853  0.8211  0.2021
  696MOL0     H93901   2.294   3.497   5.478 -2.0760  0.5722 -2.5594
  696MOL0     H93902   2.397   3.389   5.399  0.4000  0.2492  1.1089
  696MOL0     H93903   2.140   3.431   5.342 -1.9676 -0.5045  0.4205
  696MOL0     H93904   2.199   3.264   5.337 -1.5822 -0.8428 -1.2561
  696MOL0     H93905   2.050   3.240   5.561 -0.0739 -0.2447 -0.7097
  696MOL0     H93906   2.050   3.411   5.567  1.4822 -1.2730  1.1917
  696MOL0     H93907   1.919   3.258   5.333 -4.0333 -0.0745  0.7753
  696MOL0     H93908   1.917   3.428   5.364  3.4423  1.9631  1.9140
  696MOL0     H93909   1.778   3.423   5.554  0.4142 -0.7624 -0.2815
  696MOL0     H93910   1.712   3.324   5.425 -1.2072 -1.2702  0.8303
  696MOL0     H93911   1.836   3.056   5.422  0.1383  1.7338 -0.9645
  696MOL0     H93912   1.872   2.799   5.680  3.0780 -2.2569 -0.5480
  696MOL0     H93913   1.874   2.843   5.509 -0.0075 -1.0896  1.1265
  696MOL0     H93914   2.089   2.967   5.535 -4.4934  1.8723 -1.1188
  696MOL0     H93915   2.106   2.910   5.704  5.4661  1.1611 -2.6308
  696MOL0     H93916   2.048   2.723   5.477  0.3321 -1.6945  0.8259
  696MOL0     H93917   2.085   2.689   5.654  2.2803  3.8512  3.6067
  696MOL0     H93918   2.271   2.659   5.488 -0.5275  0.3478 -1.6282
  696MOL0     H93919   2.307   2.752   5.630 -0.4131  1.9282  0.1790
  696MOL0     H93920   2.518   2.707   5.512  3.2038 -0.5640  0.2150
  696MOL0     H93921   2.728   2.727   5.412 -0.5392 -0.4738 -1.7057
  696MOL0     H93922   2.946   2.801   5.009 -1.2660  2.3941  2.0873
  696MOL0     H93923   3.157   2.768   4.891  1.2911  2.8410  0.0603
  696MOL0     H93924   3.407   2.848   4.893 -2.5648 -2.4495  0.0389
  696MOL0     H93925   3.483   2.842   5.057  1.4977 -0.0861  0.7290
  696MOL0     H93926   3.659   2.731   5.000  0.3965  1.9257 -0.7041
  696MOL0     H93927   3.581   2.633   4.866  0.8261 -0.6480 -2.4632
  696MOL0     H93928   3.584   2.833   4.712 -0.1040 -3.0730  0.8267
  696MOL0     H93929   3.619   2.929   4.856 -0.0169 -1.1861  1.6494
  696MOL0     H93930   3.805   2.706   4.764 -0.1852  0.5391 -0.6340
  696MOL0     H93931   3.847   2.830   4.879 -1.9180  2.6509  0.4210
  696MOL0     H93932   3.839   3.008   4.693  1.7997  0.1242 -0.6530
  696MOL0     H93933   3.782   2.884   4.583 -1.2183  0.1190  1.3207
  696MOL0     H93934   4.023   2.958   4.567  1.0781 -1.2719  0.3421
  696MOL0     H93935   4.054   2.930   4.723 -0.9359  1.2693  0.9139
  696MOL0     H93936   3.957   2.716   4.541 -0.1425  1.2379 -0.0215
  696MOL0     H93937   4.033   2.688   4.708 -1.1603  0.1757  0.8727
  696MOL0     H93938   4.194   2.627   4.523 -0.4671 -0.8833  3.0031
  696MOL0     H93939   4.156   2.777   4.443  0.8356 -2.9421 -1.6056
  696MOL0     H93940   3.350   2.741   5.269  2.0330 -1.7107 -3.3961
  696MOL0     H93941   3.138   2.803   5.384 -2.7998  0.4003  0.5843
  696MOL0     H93942   2.580   3.061   5.170  1.6291 -0.1273 -0.3458
  696MOL0     H93943   2.367   3.023   5.274  2.2875  0.6617 -0.9011
  696MOL0     H93944   2.641   3.647   5.678 -0.8025 -1.4682  1.3096
  696MOL0     H93945   2.723   3.817   5.806 -0.0294 -0.1541 -0.0709
  696MOL0     H93946   2.760   4.155   6.070  0.0340 -0.5320  1.1538
  696MOL0     H93947   2.840   4.335   6.206  1.8558  0.2295 -2.3078
  696MOL0     H93948   3.096   4.459   6.191  1.5489  0.3139  0.5849
  696MOL0     H93949   3.193   4.477   6.316  0.3386  1.7671 -2.1224
  696MOL0     H93950   2.909   4.490   6.436  0.6643  0.5578  0.2530
  696MOL0     H93951   2.904   4.568   6.281 -1.9190  0.5017  1.7443
  696MOL0     H93952   3.109   4.716   6.357  1.0864  0.2523  0.3637
  696MOL0     H93953   3.131   4.607   6.497 -3.2325 -3.1514  0.8564
  696MOL0     H93954   2.969   4.712   6.620 -2.4295  2.1748  2.2285
  696MOL0     H93955   3.027   4.847   6.532 -2.8828  0.7204  0.7964
  696MOL0     H93956   2.668   4.835   6.318 -0.7594 -1.6056  0.2863
  696MOL0     H93957   3.157   4.093   6.357  2.2408  1.2145 -2.8044
  696MOL0     H93958   3.147   3.833   6.153 -1.3668 -1.5625  0.8100
  696MOL0     H93959   3.200   3.884   6.304  0.5229 -1.0448 -1.0613
  696MOL0     H93960   3.037   3.802   6.290  0.3893 -0.9511 -1.0864
  697MOL0     O93961   8.175   3.630   8.194  0.2733  0.0468 -0.3187
  697MOL0     C93962   8.163   3.707   8.292 -0.7072  0.5173 -0.4828
  697MOL0     O93963   8.071   3.697   8.398 -0.4951  0.0327  1.2123
  697MOL0     C93964   7.987   3.588   8.408  1.2865 -0.0217  0.0158
  697MOL0     C93965   7.997   3.501   8.513 -0.1922 -0.4206 -0.3333
  697MOL0     C93966   7.898   3.405   8.535 -0.3061  0.5419 -0.2162
  697MOL0     C93967   7.793   3.378   8.440 -1.0431 -0.0202  0.6238
  697MOL0     O93968   7.703   3.281   8.482  0.2445 -0.3985 -0.4734
  697MOL0     C93969   7.574   3.266   8.415 -0.2642 -0.4405 -1.0799
  697MOL0     C93970   7.577   3.167   8.306  0.9020  0.2262 -0.5387
  697MOL0     C93971   7.456   3.176   8.212  0.0109 -0.6767  0.8466
  697MOL0     C93972   7.450   3.052   8.129 -0.2339 -0.2661  1.0317
  697MOL0     C93973   7.347   3.082   8.019 -0.3634  0.7428 -0.5016
  697MOL0     C93974   7.344   2.969   7.926 -1.1374  0.3327 -0.3002
  697MOL0     C93975   7.301   3.019   7.786  0.1985  0.4534  0.5636
  697MOL0     C93976   7.264   2.913   7.699  0.6433  0.8160  0.0261
  697MOL0     N93977   7.192   2.967   7.583 -0.8818  0.0272  0.6908
  697MOL0     C93978   7.238   2.991   7.457  0.0889 -0.2328 -0.3558
  697MOL0     C93979   7.130   2.977   7.379 -0.5693  0.4221 -0.4542
  697MOL0     C93980   7.117   2.989   7.230  0.2271  0.1007 -0.3330
  697MOL0     C93981   7.250   3.005   7.146  0.4342 -0.1925  0.5647
  697MOL0     C93982   7.233   2.996   6.991  0.6209  0.2102  0.1965
  697MOL0     C93983   7.359   3.002   6.917 -0.7883 -0.4139  0.9269
  697MOL0     O93984   7.364   2.914   6.805  0.0910 -0.1139  0.6832
  697MOL0     C93985   7.279   2.940   6.696 -0.6133  0.8812  0.8208
  697MOL0     C93986   7.241   3.062   6.656 -0.0966  0.4674 -0.2785
  697MOL0     C93987   7.138   3.078   6.563  0.0571 -0.4405  0.9065
  697MOL0     C93988   7.079   2.971   6.506  1.3173 -0.7877 -0.1650
  697MOL0     C93989   6.973   2.991   6.402 -0.2610 -1.2696  0.4738
  697MOL0     O93990   6.906   3.119   6.394 -0.0112 -1.1033 -0.0168
  697MOL0     C93991   6.800   3.133   6.307 -0.9568 -0.1877 -0.6865
  697MOL0     C93992   6.674   3.147   6.368  0.1503 -0.6347 -0.8665
  697MOL0     C93993   6.567   3.185   6.286  0.8859 -0.2674 -0.7012
  697MOL0     C93994   6.582   3.219   6.146 -0.1687  0.1336  0.3927
  697MOL0     O93995   6.471   3.267   6.087 -0.2439 -0.1130  0.7866
  697MOL0     C93996   6.477   3.302   5.945  0.2399 -0.4613 -0.4013
  697MOL0     C93997   6.346   3.363   5.906  0.0230 -0.9760 -0.0800
  697MOL0     C93998   6.357   3.403   5.751  0.1534 -0.4433  0.1473
  697MOL0     C93999   6.214   3.430   5.699 -0.0040  0.0018  1.5081
  697MOL0     C94000   6.176   3.566   5.752 -1.0222  0.4388  0.3706
  697MOL0     C94001   6.030   3.612   5.716 -0.1301  0.0764 -0.4299
  697MOL0     C94002   5.943   3.506   5.780  0.8655  0.5971  0.1157
  697MOL0     C94003   5.795   3.559   5.794  0.4215 -0.4314  0.3757
  697MOL0    Cl94004   5.781   3.705   5.899 -0.0722 -0.0352  0.0230
  697MOL0     C94005   6.706   3.203   6.089 -0.4403  0.0937  0.0540
  697MOL0     C94006   6.809   3.161   6.168  0.1162 -0.0158 -0.0687
  697MOL0     O94007   6.950   2.894   6.320  0.5073  0.3006  0.0068
  697MOL0     C94008   7.121   2.841   6.530  0.3051  0.2266  0.1967
  697MOL0     C94009   7.223   2.828   6.634  0.7116 -0.2344 -0.3097
  697MOL0     N94010   7.021   2.956   7.455  0.5840 -0.5058 -0.8869
  697MOL0     N94011   7.063   2.943   7.579 -0.2011 -0.6958  0.0861
  697MOL0     C94012   7.791   3.464   8.327  0.2515 -0.0067 -0.4268
  697MOL0     C94013   7.881   3.567   8.316  0.6897 -0.7339 -1.0024
  697MOL0     C94014   8.271   3.805   8.300  1.1076  0.0818  0.0717
  697MOL0     C94015   8.248   3.934   8.347  0.8519  0.8498  0.4282
  697MOL0     C94016   8.347   4.031   8.338  0.9642 -0.7926  0.5237
  697MOL0     C94017   8.469   4.009   8.300 -0.1129 -0.1376  0.4159
  697MOL0     O94018   8.570   4.105   8.289 -0.2176 -0.3891 -0.2324
  697MOL0     C94019   8.523   4.240   8.258  0.5648  0.1832 -0.7476
  697MOL0     C94020   8.643   4.322   8.200 -0.3734  0.2147 -0.3508
  697MOL0     C94021   8.604   4.468   8.199 -0.8252 -0.4472 -0.0921
  697MOL0     C94022   8.712   4.563   8.169  0.2715 -0.2155 -0.1157
  697MOL0     C94023   8.783   4.612   8.292  0.0381 -0.2515 -0.4178
  697MOL0     C94024   8.845   4.634   8.395 -0.9288 -0.3375  0.2798
  697MOL0     C94025   8.504   3.875   8.263 -0.0961  0.2469 -0.5421
  697MOL0     C94026   8.404   3.772   8.267 -0.2913 -0.8772  0.7701
  697MOL0     C94027   8.458   3.635   8.222 -0.3523 -0.2464  0.3218
  697MOL0     H94028   8.077   3.513   8.585 -0.1269 -1.0091 -0.2977
  697MOL0     H94029   7.884   3.345   8.624 -2.7169  0.7767 -0.3844
  697MOL0     H94030   7.501   3.230   8.489  1.0046  1.5533  1.2989
  697MOL0     H94031   7.533   3.364   8.388  0.2399 -0.4395 -1.8592
  697MOL0     H94032   7.582   3.065   8.347  1.0457 -0.5064 -2.3138
  697MOL0     H94033   7.661   3.192   8.241  0.8180  1.7181 -0.0976
  697MOL0     H94034   7.450   3.269   8.155 -1.5098 -0.1568  1.7780
  697MOL0     H94035   7.359   3.174   8.263 -0.4679  0.4277  0.0132
  697MOL0     H94036   7.546   3.037   8.079  0.7908  0.3010  2.7450
  697MOL0     H94037   7.435   2.955   8.178  0.1462 -2.2485 -2.4177
  697MOL0     H94038   7.248   3.101   8.063 -1.2132 -2.6079 -0.6962
  697MOL0     H94039   7.371   3.171   7.959 -0.7340  0.0032 -1.7918
  697MOL0     H94040   7.442   2.923   7.911 -1.3604 -0.9073  1.7365
  697MOL0     H94041   7.279   2.890   7.963 -1.3677  1.3613  1.6264
  697MOL0     H94042   7.375   3.082   7.736 -3.2350  2.2133 -2.7938
  697MOL0     H94043   7.216   3.083   7.812  0.9576  1.0433  1.7191
  697MOL0     H94044   7.345   2.848   7.663  0.4877 -1.4382  3.3715
  697MOL0     H94045   7.198   2.845   7.754  0.5851  1.7985  1.2076
  697MOL0     H94046   7.338   3.012   7.419 -0.6340  1.4702 -1.4223
  697MOL0     H94047   7.080   2.889   7.206  0.7404  0.3971 -2.5331
  697MOL0     H94048   7.040   3.062   7.202 -2.2621 -2.1559  0.2004
  697MOL0     H94049   7.288   3.107   7.157  1.1218 -0.3066 -0.6212
  697MOL0     H94050   7.334   2.948   7.187  0.5909  1.5164  2.8054
  697MOL0     H94051   7.163   3.072   6.952 -0.1279  0.2920  1.6113
  697MOL0     H94052   7.193   2.896   6.975  2.0719 -0.7313  2.1230
  697MOL0     H94053   7.438   2.972   6.987  1.3844 -0.2463 -1.2985
  697MOL0     H94054   7.379   3.106   6.889  1.9576 -1.6730 -2.4616
  697MOL0     H94055   7.284   3.149   6.706  0.8131  0.7423 -1.5051
  697MOL0     H94056   7.111   3.179   6.532  0.3962 -0.1451  1.5587
  697MOL0     H94057   6.656   3.121   6.472 -2.5224  0.3088 -1.0242
  697MOL0     H94058   6.466   3.200   6.323 -0.6160  0.3893 -4.5260
  697MOL0     H94059   6.558   3.375   5.941 -1.6677  2.1952  3.4655
  697MOL0     H94060   6.504   3.206   5.899  1.2487 -1.2313  1.6772
  697MOL0     H94061   6.271   3.285   5.922 -0.1443 -0.7189  0.4320
  697MOL0     H94062   6.317   3.447   5.970  2.6909 -0.6030  0.7803
  697MOL0     H94063   6.426   3.486   5.738  0.4609 -1.1086 -3.8731
  697MOL0     H94064   6.402   3.322   5.693  0.2442 -0.1813 -0.1486
  697MOL0     H94065   6.144   3.350   5.726  1.2315 -2.0462 -0.8447
  697MOL0     H94066   6.224   3.441   5.590 -2.7838  1.4352  1.3056
  697MOL0     H94067   6.247   3.643   5.721 -4.7187  3.7777 -0.5984
  697MOL0     H94068   6.188   3.562   5.860  3.9862 -3.4020  0.0576
  697MOL0     H94069   6.014   3.701   5.778 -3.3606 -2.5754  3.0514
  697MOL0     H94070   6.027   3.622   5.607  3.0249  2.0042 -0.4538
  697MOL0     H94071   5.963   3.477   5.883  1.5063 -0.1857 -0.2140
  697MOL0     H94072   5.936   3.421   5.711  1.3275  0.0548  0.7211
  697MOL0     H94073   5.753   3.581   5.696  0.5585 -0.1334  0.3823
  697MOL0     H94074   5.731   3.483   5.841  1.3185 -2.3419 -1.3440
  697MOL0     H94075   6.735   3.236   5.990  1.4049  1.9613  1.1379
  697MOL0     H94076   6.909   3.168   6.124 -0.0598  4.3861 -0.2570
  697MOL0     H94077   7.083   2.753   6.479 -0.8969 -1.5047  3.7714
  697MOL0     H94078   7.251   2.729   6.670 -0.1137 -0.1060  0.7311
  697MOL0     H94079   7.715   3.431   8.257 -0.5065  1.5897 -0.3912
  697MOL0     H94080   7.867   3.641   8.238 -4.8800 -0.6407 -0.2907
  697MOL0     H94081   8.151   3.975   8.374  0.6647  0.2480  0.7078
  697MOL0     H94082   8.320   4.134   8.356 -0.7012 -0.3300 -3.5111
  697MOL0     H94083   8.483   4.276   8.353  0.1616 -6.2031  2.0504
  697MOL0     H94084   8.441   4.245   8.185 -0.4821  0.5739  0.4199
  697MOL0     H94085   8.678   4.284   8.103  4.1999 -2.1233  1.9018
  697MOL0     H94086   8.720   4.302   8.275 -0.7929  0.1535  0.0686
  697MOL0     H94087   8.558   4.494   8.295  1.2569  1.2238  0.5263
  697MOL0     H94088   8.548   4.484   8.106  1.2715  0.4940 -1.2613
  697MOL0     H94089   8.786   4.516   8.103  1.6436  0.7211  0.7151
  697MOL0     H94090   8.675   4.649   8.112 -0.3285 -1.0428 -1.0228
  697MOL0     H94091   8.900   4.655   8.485  0.9311 -2.6060 -0.2380
  697MOL0     H94092   8.604   3.851   8.228  0.7068 -1.0689  2.3775
  697MOL0     H94093   8.561   3.618   8.256 -0.1972  2.2684  1.3073
  697MOL0     H94094   8.404   3.555   8.273 -0.1403 -0.9875 -0.5798
  697MOL0     H94095   8.446   3.609   8.116  1.0861  1.3334 -0.2698
  698MOL0     O94096   5.554   1.414   9.495  0.2003  0.4489 -0.5017
  698MOL0     C94097   5.630   1.404   9.587 -0.4716 -0.2895 -1.3246
  698MOL0     O94098   5.643   1.292   9.660 -0.1456  0.1972  0.1745
  698MOL0     C94099   5.567   1.186   9.641  0.0173  0.4902  0.6078
  698MOL0     C94100   5.437   1.209   9.666 -1.0909  1.3714  0.4544
  698MOL0     C94101   5.339   1.103   9.657 -0.1796 -0.6545  0.4761
  698MOL0     C94102   5.376   0.978   9.615 -0.5856 -0.9559 -0.2212
  698MOL0     O94103   5.289   0.876   9.610 -0.4109 -0.0091 -0.2989
  698MOL0     C94104   5.159   0.896   9.535 -0.6135 -0.0806  0.4094
  698MOL0     C94105   5.050   0.787   9.542  0.1720  1.0859 -0.8309
  698MOL0     C94106   4.963   0.789   9.411 -0.0030  0.7239 -0.0800
  698MOL0     C94107   4.833   0.720   9.443  0.0864  1.0485 -0.6125
  698MOL0     C94108   4.750   0.706   9.316 -0.0387  0.0379 -0.6823
  698MOL0     C94109   4.742   0.561   9.256 -0.1913 -0.5019  0.0437
  698MOL0     C94110   4.631   0.560   9.139  0.1914  0.5905  0.7361
  698MOL0     C94111   4.489   0.601   9.180 -0.9274 -0.0748 -0.2811
  698MOL0     N94112   4.383   0.506   9.131 -0.5336 -0.4843 -0.6697
  698MOL0     C94113   4.342   0.496   8.996  0.4815 -0.7901 -0.6535
  698MOL0     C94114   4.235   0.418   8.986  0.1424  0.0852 -0.2286
  698MOL0     C94115   4.167   0.374   8.873 -0.0416 -0.5017 -1.2766
  698MOL0     C94116   4.129   0.229   8.846 -0.0248 -0.3785 -0.4163
  698MOL0     C94117   4.249   0.131   8.834 -0.2235  0.3310 -1.2800
  698MOL0     C94118   4.324   0.108   8.977 -0.3234  0.1680  0.3617
  698MOL0     O94119   4.402  -0.006   8.978 -1.2000 -0.4976 -0.1139
  698MOL0     C94120   4.517   0.008   9.057  0.1568 -0.6359 -0.2899
  698MOL0     C94121   4.522   0.084   9.177 -0.1642 -0.1096  0.4930
  698MOL0     C94122   4.636   0.100   9.251  0.3323 -0.2136 -0.4613
  698MOL0     C94123   4.756   0.041   9.206  0.2600  0.7799  0.3196
  698MOL0     C94124   4.883   0.090   9.264 -0.8981 -0.5932  0.1573
  698MOL0     O94125   4.884   0.122   9.398  0.4602 -0.1704 -0.4974
  698MOL0     C94126   4.992   0.182   9.457 -0.0442  0.4162 -0.5577
  698MOL0     C94127   5.047   0.303   9.413 -0.1532 -0.5840 -0.6242
  698MOL0     C94128   5.163   0.356   9.479 -1.0672 -0.1552 -0.6052
  698MOL0     C94129   5.217   0.295   9.586  0.0430  0.4307 -0.9188
  698MOL0     O94130   5.334   0.346   9.630 -0.1280  0.0038 -0.1210
  698MOL0     C94131   5.379   0.315   9.759 -0.1428 -0.7816 -0.1974
  698MOL0     C94132   5.465   0.430   9.803 -0.1174  0.1391 -0.7821
  698MOL0     C94133   5.584   0.467   9.708 -0.1085  0.0876  0.9940
  698MOL0     C94134   5.624   0.609   9.730 -0.2554  0.3273 -0.6776
  698MOL0     C94135   5.727   0.667   9.624  0.0915  0.5001 -0.4971
  698MOL0     C94136   5.867   0.599   9.620 -0.1865  0.8787  0.2090
  698MOL0     C94137   5.964   0.647   9.506 -0.0892 -0.3746 -0.4867
  698MOL0     C94138   6.068   0.542   9.489 -0.6793 -0.4537 -0.1165
  698MOL0    Cl94139   6.213   0.624   9.415  0.0548  0.7260  0.2792
  698MOL0     C94140   5.158   0.172   9.626 -0.0925  0.8928 -0.0863
  698MOL0     C94141   5.042   0.114   9.568  0.0713 -0.7819 -0.1087
  698MOL0     O94142   4.983   0.097   9.192 -0.0976  0.0125 -0.7971
  698MOL0     C94143   4.751  -0.044   9.090 -0.0837 -0.2116 -0.3215
  698MOL0     C94144   4.634  -0.064   9.020 -0.8307  0.7194  0.1782
  698MOL0     N94145   4.212   0.378   9.119 -0.0880 -0.5579 -0.4670
  698MOL0     N94146   4.303   0.424   9.202 -0.3711 -1.3548  0.0228
  698MOL0     C94147   5.509   0.959   9.581 -0.3532  0.4720  0.4080
  698MOL0     C94148   5.605   1.058   9.597 -0.9003 -0.4208  0.5759
  698MOL0     C94149   5.726   1.511   9.616 -0.3291  0.3967  0.7668
  698MOL0     C94150   5.845   1.485   9.681 -0.5487 -0.0360 -0.1608
  698MOL0     C94151   5.933   1.586   9.711 -0.1171  1.3374 -0.2039
  698MOL0     C94152   5.914   1.715   9.677  0.5057 -0.3736 -0.0132
  698MOL0     O94153   6.019   1.809   9.701 -0.0639  0.3177 -0.5255
  698MOL0     C94154   5.995   1.951   9.717  0.0533  0.3128 -0.6415
  698MOL0     C94155   6.118   2.006   9.792  0.2627 -0.2923  0.8042
  698MOL0     C94156   6.143   1.947   9.938  0.3736  0.7091  1.3065
  698MOL0     C94157   6.278   1.991   9.974  0.4044 -0.1968  0.1325
  698MOL0     C94158   6.317   1.960  10.114 -0.8908  0.0430 -0.0235
  698MOL0     C94159   6.315   1.936  10.231 -0.0452  0.2325 -0.4400
  698MOL0     C94160   5.796   1.745   9.609  0.5118 -0.9578  0.8548
  698MOL0     C94161   5.700   1.646   9.585 -0.2407 -0.3781  0.4714
  698MOL0     C94162   5.575   1.711   9.540 -0.3926  0.2513  0.4115
  698MOL0     H94163   5.384   1.300   9.692 -0.1151  2.6774 -1.7527
  698MOL0     H94164   5.235   1.118   9.683 -0.5432  0.8487 -1.5591
  698MOL0     H94165   5.110   0.988   9.568 -0.9100  0.0055 -0.2564
  698MOL0     H94166   5.204   0.907   9.436 -0.4150  1.9470  0.6990
  698MOL0     H94167   4.999   0.808   9.636  0.6651  1.9988 -0.7502
  698MOL0     H94168   5.099   0.689   9.540 -0.2381  0.8800 -0.9020
  698MOL0     H94169   5.017   0.726   9.338 -0.3162 -1.8341  1.7618
  698MOL0     H94170   4.938   0.890   9.377 -2.9827  0.2491  0.4179
  698MOL0     H94171   4.852   0.618   9.478 -1.7733  0.6025 -0.7954
  698MOL0     H94172   4.778   0.776   9.519 -3.5744 -3.1591  0.2337
  698MOL0     H94173   4.649   0.731   9.351 -0.5447 -0.2878 -1.8679
  698MOL0     H94174   4.772   0.774   9.233 -0.8001 -1.0533 -1.8000
  698MOL0     H94175   4.844   0.541   9.222 -0.0141  2.4911 -1.5572
  698MOL0     H94176   4.716   0.486   9.331 -4.0705  1.1716  0.6053
  698MOL0     H94177   4.622   0.466   9.083 -1.9374  1.9486 -1.4016
  698MOL0     H94178   4.678   0.629   9.069  1.2016 -0.4496  0.3720
  698MOL0     H94179   4.475   0.598   9.288 -1.2471  1.5005 -0.2516
  698MOL0     H94180   4.463   0.704   9.150 -0.4636  0.9151  2.4464
  698MOL0     H94181   4.382   0.546   8.908 -0.3617 -0.7983 -1.0429
  698MOL0     H94182   4.077   0.430   8.898 -1.2509 -2.8441 -0.0571
  698MOL0     H94183   4.198   0.425   8.781  1.2149  0.9510 -0.0881
  698MOL0     H94184   4.059   0.183   8.918  2.1535 -3.7814 -0.2491
  698MOL0     H94185   4.075   0.224   8.751  1.5380  1.3714 -1.4314
  698MOL0     H94186   4.320   0.169   8.760  1.9054 -0.5357  0.2265
  698MOL0     H94187   4.215   0.036   8.793 -0.7540  0.4855 -1.2143
  698MOL0     H94188   4.258   0.085   9.061  0.5151 -0.7197  0.8035
  698MOL0     H94189   4.384   0.198   8.996  1.4694  0.9506 -6.3942
  698MOL0     H94190   4.433   0.133   9.213  0.6204  0.3190  1.9337
  698MOL0     H94191   4.628   0.165   9.337 -2.3355 -2.9847  1.6321
  698MOL0     H94192   5.009   0.355   9.325  1.4801  1.4955 -0.1589
  698MOL0     H94193   5.217   0.446   9.452  0.2749 -1.1751 -1.4102
  698MOL0     H94194   5.292   0.307   9.825 -0.5373 -0.2770 -0.6437
  698MOL0     H94195   5.445   0.228   9.765  1.3175  0.3635  1.8245
  698MOL0     H94196   5.395   0.513   9.812 -0.2052  0.0125 -0.2771
  698MOL0     H94197   5.513   0.402   9.898  2.6434 -1.3954 -2.4895
  698MOL0     H94198   5.668   0.397   9.714 -1.9628 -2.2722  0.7542
  698MOL0     H94199   5.560   0.454   9.602  0.8208 -0.8062  0.8691
  698MOL0     H94200   5.661   0.628   9.831 -2.6366  2.6971 -0.1360
  698MOL0     H94201   5.531   0.666   9.721 -1.5176 -1.6704 -0.9538
  698MOL0     H94202   5.739   0.774   9.639  3.4783  0.3124 -1.2425
  698MOL0     H94203   5.676   0.657   9.528  1.5501  1.8402 -1.4620
  698MOL0     H94204   5.918   0.622   9.714  3.9900 -2.4270 -0.9154
  698MOL0     H94205   5.847   0.491   9.620  2.3709  0.3296 -0.3943
  698MOL0     H94206   6.008   0.744   9.532 -3.0543  0.7947  0.5590
  698MOL0     H94207   5.907   0.657   9.413  1.5080 -0.3549 -1.5089
  698MOL0     H94208   6.096   0.495   9.584  2.9694  0.0698 -0.7874
  698MOL0     H94209   6.029   0.465   9.421 -1.5851  1.1870 -1.5320
  698MOL0     H94210   5.198   0.113   9.708  3.0681  1.3692 -1.1875
  698MOL0     H94211   5.003   0.022   9.609 -1.6158  0.1598  0.5166
  698MOL0     H94212   4.850  -0.081   9.064 -0.5071 -0.5665 -1.4718
  698MOL0     H94213   4.619  -0.139   8.943 -3.4611 -0.1380  1.4192
  698MOL0     H94214   5.543   0.861   9.549  3.5025  1.1609  1.8991
  698MOL0     H94215   5.707   1.029   9.575 -1.0285 -0.5514  0.1372
  698MOL0     H94216   5.880   1.384   9.701 -1.0630 -0.1131  0.3705
  698MOL0     H94217   6.024   1.549   9.757 -1.2958 -2.4067 -0.5261
  698MOL0     H94218   5.907   1.962   9.781  0.6517 -0.8047  0.4325
  698MOL0     H94219   5.988   2.002   9.621  2.9857 -0.7512 -1.5184
  698MOL0     H94220   6.099   2.114   9.792  3.5369  0.3843 -0.8409
  698MOL0     H94221   6.207   1.993   9.730 -0.3339 -3.4243  0.4566
  698MOL0     H94222   6.147   1.838   9.938  0.8959  0.6729 -1.0378
  698MOL0     H94223   6.056   1.972  10.000  0.2430 -0.4533  1.6116
  698MOL0     H94224   6.350   1.939   9.910 -0.8056  1.5353 -2.8344
  698MOL0     H94225   6.282   2.096   9.945 -2.2950  0.3449  1.4489
  698MOL0     H94226   6.313   1.915  10.336 -0.3104 -1.4260 -0.7509
  698MOL0     H94227   5.776   1.851   9.593 -1.0579 -1.0597  1.9229
  698MOL0     H94228   5.491   1.641   9.547  0.9351 -1.2470  2.1617
  698MOL0     H94229   5.554   1.803   9.595  0.3842  0.9585 -0.4398
  698MOL0     H94230   5.587   1.738   9.434  2.8362 -0.1576  0.5820
  699MOL0     O94231   9.507   9.490   6.687  0.2908  0.7304 -0.2658
  699MOL0     C94232   9.519   9.438   6.580  0.2269  0.1905  0.3721
  699MOL0     O94233   9.428   9.451   6.476 -0.4187  0.1159  0.1636
  699MOL0     C94234   9.295   9.482   6.493 -0.7885  0.3667  0.1657
  699MOL0     C94235   9.221   9.454   6.615 -0.4978  0.4748  0.2512
  699MOL0     C94236   9.083   9.483   6.606 -0.1276  0.8100  0.1151
  699MOL0     C94237   9.022   9.543   6.496  0.4503 -0.3755  0.5912
  699MOL0     O94238   8.894   9.572   6.478 -0.3271 -0.2692  0.2999
  699MOL0     C94239   8.808   9.591   6.589 -0.1210 -0.1681 -0.0720
  699MOL0     C94240   8.695   9.693   6.552 -0.2825  0.3576 -0.4158
  699MOL0     C94241   8.598   9.618   6.460 -0.2516  1.1549 -0.9042
  699MOL0     C94242   8.492   9.720   6.395  0.2027 -0.6067 -0.0451
  699MOL0     C94243   8.381   9.657   6.323  0.2158 -0.3985  0.4903
  699MOL0     C94244   8.274   9.755   6.302 -0.2114 -0.2356 -0.4564
  699MOL0     C94245   8.297   9.823   6.165  0.6392  0.2414 -0.3386
  699MOL0     C94246   8.173   9.906   6.124  0.0138 -0.1047  0.1673
  699MOL0     N94247   8.157  10.029   6.196  0.0846 -0.3644  0.2513
  699MOL0     C94248   8.087  10.044   6.315  0.2715 -0.5530 -0.3138
  699MOL0     C94249   8.091  10.177   6.343 -0.0546  0.0698 -0.0675
  699MOL0     C94250   8.019  10.253   6.449 -0.3396  0.2570 -0.4896
  699MOL0     C94251   8.065  10.197   6.591 -0.2528 -0.4257  0.6573
  699MOL0     C94252   8.220  10.180   6.610 -0.1535  0.7759 -0.6036
  699MOL0     C94253   8.310  10.296   6.577 -0.0608  0.0770 -0.6037
  699MOL0     O94254   8.449  10.277   6.611  0.0593 -0.0261 -0.0518
  699MOL0     C94255   8.531  10.209   6.525  0.6513 -0.1553 -0.6355
  699MOL0     C94256   8.662  10.198   6.563 -0.0980 -0.9924 -0.2177
  699MOL0     C94257   8.749  10.132   6.489  0.1394 -0.5444  0.6329
  699MOL0     C94258   8.722  10.068   6.366  0.4887 -0.0202  0.0483
  699MOL0     C94259   8.821   9.983   6.291 -0.7719 -1.6549 -0.0541
  699MOL0     O94260   8.779   9.907   6.189  0.0331 -0.5240  0.4294
  699MOL0     C94261   8.868   9.820   6.135  0.4299  0.8836  0.0439
  699MOL0     C94262   8.813   9.695   6.114 -0.1836  1.0352 -0.1164
  699MOL0     C94263   8.885   9.593   6.056 -0.2483 -0.7147  0.5244
  699MOL0     C94264   9.018   9.621   6.013  0.2980 -0.7189  0.5555
  699MOL0     O94265   9.113   9.544   5.958  0.1005  1.0163  0.3524
  699MOL0     C94266   9.129   9.418   6.028  0.4188 -0.2478  0.9649
  699MOL0     C94267   9.269   9.361   6.007  0.4514  0.4057 -0.0596
  699MOL0     C94268   9.261   9.204   5.995  0.5796  0.0712 -0.1665
  699MOL0     C94269   9.398   9.143   6.025  0.1629  0.1513 -0.1904
  699MOL0     C94270   9.417   9.010   5.965  0.0742  0.7081 -0.3375
  699MOL0     C94271   9.330   8.912   6.046 -0.3323 -0.3063  0.0947
  699MOL0     C94272   9.409   8.851   6.164 -0.2574 -1.1610  0.5797
  699MOL0     C94273   9.321   8.782   6.271  0.1585 -0.4110 -0.6653
  699MOL0    Cl94274   9.251   8.639   6.196  0.0793  0.0592 -0.6817
  699MOL0     C94275   9.071   9.748   6.017  0.2533  0.1520 -0.4477
  699MOL0     C94276   9.000   9.850   6.085 -0.0946 -0.5128 -0.1615
  699MOL0     O94277   8.927   9.972   6.354  0.7415  0.1854  0.6574
  699MOL0     C94278   8.587  10.084   6.324 -0.1532  1.3252  0.0340
  699MOL0     C94279   8.496  10.153   6.404 -0.1142  0.0716 -0.2637
  699MOL0     N94280   8.174  10.231   6.249  0.7716  0.0501  0.4423
  699MOL0     N94281   8.212  10.145   6.159  0.2894 -0.4225 -0.7561
  699MOL0     C94282   9.091   9.549   6.374 -0.3823  1.3354  0.2594
  699MOL0     C94283   9.226   9.527   6.376  0.1076  0.0388  0.1544
  699MOL0     C94284   9.627   9.341   6.564  0.4846  1.0429 -0.5173
  699MOL0     C94285   9.658   9.257   6.678  0.1186 -0.8579  0.7389
  699MOL0     C94286   9.770   9.168   6.672 -0.1556  0.7366 -0.7233
  699MOL0     C94287   9.833   9.148   6.550  0.2247 -0.2166 -0.3805
  699MOL0     O94288   9.945   9.070   6.549 -0.0026 -0.2731 -0.2008
  699MOL0     C94289   9.934   8.927   6.540 -0.2588  0.6505 -0.5887
  699MOL0     C94290  10.004   8.870   6.658  0.3572 -0.0977 -0.0666
  699MOL0     C94291   9.954   8.917   6.797  0.2202 -0.3603 -0.0084
  699MOL0     C94292  10.020   8.830   6.903 -1.3720 -0.2488 -0.4632
  699MOL0     C94293  10.160   8.877   6.929 -0.0320 -0.7567  1.0010
  699MOL0     C94294  10.271   8.924   6.943  0.0770  1.0330  0.4775
  699MOL0     C94295   9.792   9.213   6.437  0.0037 -0.1799 -0.7877
  699MOL0     C94296   9.693   9.310   6.442  1.1548 -0.4075 -0.8966
  699MOL0     C94297   9.670   9.396   6.319 -0.5702  0.9863 -0.9945
  699MOL0     H94298   9.275   9.404   6.694  0.3068 -1.3762 -1.3978
  699MOL0     H94299   9.036   9.465   6.702  1.7125  0.2175  0.9599
  699MOL0     H94300   8.777   9.492   6.624  2.9343 -1.5238 -0.9042
  699MOL0     H94301   8.871   9.645   6.661  3.5762 -6.1707  1.8933
  699MOL0     H94302   8.732   9.784   6.503  0.2310  0.7318  0.6405
  699MOL0     H94303   8.644   9.723   6.645 -1.2953  1.9247 -1.4226
  699MOL0     H94304   8.539   9.542   6.512 -2.2267  1.2717 -2.8143
  699MOL0     H94305   8.660   9.574   6.382  1.4067  1.8985 -0.0519
  699MOL0     H94306   8.446   9.788   6.468 -2.7100 -1.4668 -0.9249
  699MOL0     H94307   8.545   9.784   6.323 -0.5322  3.8710  2.9403
  699MOL0     H94308   8.410   9.601   6.234 -0.9209  0.3274 -0.3810
  699MOL0     H94309   8.339   9.582   6.391  0.4208 -0.5078  0.4953
  699MOL0     H94310   8.189   9.686   6.299  1.2815 -2.1361 -3.0491
  699MOL0     H94311   8.258   9.827   6.383  2.5949 -2.0847  1.9637
  699MOL0     H94312   8.337   9.756   6.089 -0.8729 -3.4997  1.8953
  699MOL0     H94313   8.382   9.890   6.181 -0.8714  2.0264  0.6255
  699MOL0     H94314   8.177   9.930   6.017 -1.2037  0.6003  0.2644
  699MOL0     H94315   8.083   9.845   6.126  1.9943 -3.2908 -1.1590
  699MOL0     H94316   8.040   9.968   6.376 -0.6792 -0.2607 -0.6742
  699MOL0     H94317   8.043  10.358   6.433 -1.8365  0.0536 -6.3343
  699MOL0     H94318   7.914  10.239   6.424 -0.4013 -0.1335 -0.0292
  699MOL0     H94319   8.023  10.259   6.670 -0.3914 -1.9629  1.8366
  699MOL0     H94320   8.012  10.103   6.609 -0.6519 -0.5997 -1.2312
  699MOL0     H94321   8.243  10.089   6.554  1.8190 -0.2274  1.6364
  699MOL0     H94322   8.233  10.156   6.716 -1.2057 -1.1177 -0.8612
  699MOL0     H94323   8.284  10.387   6.631  0.4475  0.1648 -0.4957
  699MOL0     H94324   8.288  10.331   6.476 -4.1448 -1.0178 -0.2598
  699MOL0     H94325   8.689  10.235   6.662 -3.2133 -1.6914  1.0163
  699MOL0     H94326   8.854  10.130   6.515  1.0286  0.2248 -2.4592
  699MOL0     H94327   8.719   9.661   6.155 -0.3657  2.2808  0.5650
  699MOL0     H94328   8.852   9.490   6.045  1.2198 -1.5684  3.2659
  699MOL0     H94329   9.113   9.396   6.134 -2.3859 -3.7778  0.0293
  699MOL0     H94330   9.057   9.347   5.985 -1.5396  2.4789 -0.5855
  699MOL0     H94331   9.320   9.400   5.918  1.6594  0.9624  0.8443
  699MOL0     H94332   9.335   9.406   6.082 -0.4512  3.0388 -0.7488
  699MOL0     H94333   9.180   9.164   6.056 -2.1240  0.9842 -2.9159
  699MOL0     H94334   9.244   9.179   5.890  3.3591 -1.1476 -0.4292
  699MOL0     H94335   9.406   9.136   6.134  0.6245  0.8591 -0.1713
  699MOL0     H94336   9.480   9.210   5.997  0.2676  0.5730  1.0427
  699MOL0     H94337   9.517   8.967   5.958 -0.6511 -1.1328 -0.0411
  699MOL0     H94338   9.380   9.014   5.862 -0.4388  0.4463 -0.1696
  699MOL0     H94339   9.231   8.948   6.077 -1.0783 -1.5867 -0.6975
  699MOL0     H94340   9.308   8.824   5.984  1.4731 -0.8856  0.2189
  699MOL0     H94341   9.477   8.925   6.207 -0.3216 -0.7750  0.0350
  699MOL0     H94342   9.476   8.774   6.123 -0.2594  0.2151 -2.2991
  699MOL0     H94343   9.376   8.760   6.363  0.8152  1.1853 -0.6339
  699MOL0     H94344   9.249   8.855   6.309  2.6804  1.9081  0.0383
  699MOL0     H94345   9.168   9.776   5.977  0.9004 -0.6022  0.5389
  699MOL0     H94346   9.030   9.954   6.093 -1.1377 -0.2820  1.1756
  699MOL0     H94347   8.560  10.032   6.233  1.6492  0.8500 -0.2764
  699MOL0     H94348   8.394  10.162   6.369  0.0600 -0.3916 -0.9193
  699MOL0     H94349   9.043   9.600   6.291  2.8793 -1.4208 -3.6995
  699MOL0     H94350   9.288   9.544   6.289  2.3449 -0.7605  1.5069
  699MOL0     H94351   9.606   9.269   6.772 -0.5319 -0.4618  0.3403
  699MOL0     H94352   9.798   9.125   6.768  3.3744  4.8534  0.4095
  699MOL0     H94353   9.981   8.887   6.450  0.4075  0.8653 -0.3374
  699MOL0     H94354   9.827   8.905   6.552 -0.0130 -0.4601 -0.3241
  699MOL0     H94355  10.109   8.884   6.633  1.4829 -1.6384  3.2620
  699MOL0     H94356   9.988   8.762   6.659  0.3764 -0.1019  1.0595
  699MOL0     H94357   9.845   8.914   6.804 -0.5311  2.2358 -5.3349
  699MOL0     H94358   9.991   9.019   6.808 -0.3836 -0.2729  1.4421
  699MOL0     H94359   9.979   8.841   7.003  0.8739  0.6359  0.4296
  699MOL0     H94360  10.026   8.723   6.881 -0.1080 -0.2785 -0.0808
  699MOL0     H94361  10.366   8.974   6.954  1.0164 -0.9846  2.2177
  699MOL0     H94362   9.821   9.192   6.335 -0.7939  0.9204 -1.2599
  699MOL0     H94363   9.666   9.502   6.345  2.1107  1.5952 -2.7217
  699MOL0     H94364   9.745   9.385   6.240 -1.1966 -1.5607 -1.3228
  699MOL0     H94365   9.582   9.356   6.268 -0.0952 -0.5614 -0.6675
  700MOL0     O94366   2.653   5.067   0.463  1.1216 -0.0724  0.3919
  700MOL0     C94367   2.584   5.120   0.544  0.9159  0.7214 -0.3857
  700MOL0     O94368   2.585   5.096   0.677 -0.4155 -0.2758 -0.4361
  700MOL0     C94369   2.666   4.993   0.720  0.4664  0.3020 -1.2888
  700MOL0     C94370   2.682   4.862   0.665 -0.1575  0.5794  0.0088
  700MOL0     C94371   2.784   4.776   0.713  0.1840 -0.3748  1.2839
  700MOL0     C94372   2.869   4.815   0.816 -0.1164  0.6983  0.4644
  700MOL0     O94373   2.987   4.746   0.834 -0.0339  0.1140  0.1982
  700MOL0     C94374   3.103   4.829   0.840  0.4820  0.4256  0.3385
  700MOL0     C94375   3.231   4.758   0.799 -0.1267  0.5856 -0.1841
  700MOL0     C94376   3.221   4.687   0.664 -0.1127 -0.7462 -0.0131
  700MOL0     C94377   3.194   4.535   0.686 -0.2491 -0.3009 -0.3363
  700MOL0     C94378   3.163   4.460   0.560 -0.1569 -0.8175 -0.0307
  700MOL0     C94379   3.166   4.304   0.573  0.4068  0.6769 -0.3247
  700MOL0     C94380   3.142   4.228   0.437 -0.1923 -0.5065 -0.9448
  700MOL0     C94381   3.122   4.083   0.462  0.8176  0.3058 -0.1051
  700MOL0     N94382   2.976   4.056   0.492  0.2154 -0.1318  0.5866
  700MOL0     C94383   2.906   4.079   0.607 -0.2066  0.5932  0.0185
  700MOL0     C94384   2.775   4.060   0.572 -0.2685 -0.6968 -0.5885
  700MOL0     C94385   2.650   4.045   0.658 -1.3685 -0.2598  0.4732
  700MOL0     C94386   2.632   3.901   0.699  0.4315  0.1899  0.4180
  700MOL0     C94387   2.571   3.818   0.586  0.8205  0.0940 -0.2896
  700MOL0     C94388   2.665   3.730   0.514  0.0096 -0.0497  0.3714
  700MOL0     O94389   2.723   3.622   0.594  0.0174 -0.2708  0.7666
  700MOL0     C94390   2.855   3.635   0.628  0.4288  1.2129 -0.7788
  700MOL0     C94391   2.891   3.566   0.745 -0.4895 -0.5311 -0.3886
  700MOL0     C94392   3.025   3.552   0.775 -0.3627 -0.9603  0.0427
  700MOL0     C94393   3.123   3.631   0.704 -0.4322  0.0823 -0.9077
  700MOL0     C94394   3.267   3.633   0.759  0.4429  0.3000  1.0787
  700MOL0     O94395   3.364   3.669   0.671 -0.1158  0.6903 -0.3651
  700MOL0     C94396   3.486   3.679   0.724  0.1028 -0.4189  0.9013
  700MOL0     C94397   3.539   3.584   0.807  0.3801  0.0293 -0.8931
  700MOL0     C94398   3.663   3.601   0.871 -0.1655  0.5958  0.6364
  700MOL0     C94399   3.733   3.721   0.857  0.9417 -0.2508  0.1314
  700MOL0     O94400   3.849   3.737   0.919 -0.8183 -0.2167  0.7607
  700MOL0     C94401   3.921   3.863   0.924 -0.0178 -0.1954 -0.9914
  700MOL0     C94402   4.056   3.840   1.009  1.1022  0.3557  0.0032
  700MOL0     C94403   4.187   3.784   0.942 -0.4784 -0.1731 -0.2969
  700MOL0     C94404   4.220   3.870   0.825 -0.3879 -1.2412  0.9200
  700MOL0     C94405   4.351   3.845   0.771 -0.2713 -0.0944  0.0355
  700MOL0     C94406   4.391   3.930   0.655 -1.0053 -0.9745 -0.0777
  700MOL0     C94407   4.504   3.862   0.589  0.3043  0.4218 -0.2639
  700MOL0     C94408   4.578   3.943   0.477 -0.1139  0.8558  0.4518
  700MOL0    Cl94409   4.725   3.847   0.433 -0.4008  0.8540  0.5589
  700MOL0     C94410   3.679   3.813   0.759 -0.8518  0.5698  0.0370
  700MOL0     C94411   3.559   3.798   0.693 -0.6895  0.0839  0.2411
  700MOL0     O94412   3.277   3.635   0.883  0.2847  0.1759  0.5403
  700MOL0     C94413   3.086   3.698   0.595  0.4696  0.0247 -0.1535
  700MOL0     C94414   2.957   3.696   0.547  0.3514  0.6289 -0.6669
  700MOL0     N94415   2.770   4.029   0.434  1.0046  0.2899  0.1448
  700MOL0     N94416   2.892   4.023   0.390 -0.4499  0.0820 -0.4401
  700MOL0     C94417   2.834   4.929   0.896  0.3498  0.0069  0.8689
  700MOL0     C94418   2.736   5.015   0.844 -0.1940  0.0847  0.7189
  700MOL0     C94419   2.492   5.220   0.491 -0.1182 -0.2374 -1.1799
  700MOL0     C94420   2.359   5.194   0.522  0.4678  0.8412 -0.4753
  700MOL0     C94421   2.262   5.276   0.467 -0.0874 -0.9033 -0.6496
  700MOL0     C94422   2.286   5.393   0.396  0.3175  0.2061  0.0504
  700MOL0     O94423   2.176   5.474   0.372 -0.3478  0.1943  0.3739
  700MOL0     C94424   2.187   5.604   0.304 -0.7587  1.2181  0.9646
  700MOL0     C94425   2.056   5.692   0.326 -0.0502  0.0174 -0.2020
  700MOL0     C94426   2.055   5.813   0.243  0.7666 -0.0587  0.5313
  700MOL0     C94427   2.159   5.919   0.286 -1.0123  0.0634 -1.1002
  700MOL0     C94428   2.112   6.048   0.223 -0.2322  1.2781  0.0937
  700MOL0     C94429   2.080   6.152   0.169  0.2306  0.6416 -0.1112
  700MOL0     C94430   2.411   5.429   0.377  0.3824 -0.5434 -1.1598
  700MOL0     C94431   2.511   5.332   0.405  1.3827 -0.0775  0.5293
  700MOL0     C94432   2.649   5.371   0.365  0.2810  0.2439  0.0586
  700MOL0     H94433   2.628   4.844   0.572  2.6203 -2.0399 -1.2979
  700MOL0     H94434   2.813   4.687   0.657  2.2721  0.8786  0.2592
  700MOL0     H94435   3.098   4.923   0.785  0.1179  0.4461  0.4037
  700MOL0     H94436   3.116   4.844   0.947  0.3658 -1.9284  0.7483
  700MOL0     H94437   3.254   4.692   0.884 -1.5145  0.9924  0.5426
  700MOL0     H94438   3.313   4.830   0.801 -1.0710  1.7015 -0.4263
  700MOL0     H94439   3.313   4.702   0.606 -0.9632  0.1612 -1.1881
  700MOL0     H94440   3.147   4.743   0.606  1.6794 -0.6519 -2.3647
  700MOL0     H94441   3.283   4.486   0.729 -1.7250 -1.9587  0.9947
  700MOL0     H94442   3.111   4.507   0.751  1.0606 -3.6111  0.1206
  700MOL0     H94443   3.065   4.489   0.519  0.7210 -0.7226 -2.1710
  700MOL0     H94444   3.238   4.487   0.485  2.4019  0.2491  2.7077
  700MOL0     H94445   3.253   4.277   0.633 -0.9939 -0.6585  1.1988
  700MOL0     H94446   3.079   4.278   0.632 -0.2755 -2.6632 -2.5273
  700MOL0     H94447   3.232   4.240   0.375 -0.4490  0.7735 -1.1061
  700MOL0     H94448   3.061   4.271   0.378  0.6620  0.8519 -1.1870
  700MOL0     H94449   3.139   4.022   0.373 -1.6400 -1.9658  0.8469
  700MOL0     H94450   3.186   4.058   0.547 -0.1878  1.4699  1.0289
  700MOL0     H94451   2.945   4.115   0.702 -1.0613  1.4889  0.0462
  700MOL0     H94452   2.678   4.105   0.745  0.8502 -0.1170 -0.2668
  700MOL0     H94453   2.567   4.088   0.602 -0.8472 -0.0260 -0.1334
  700MOL0     H94454   2.730   3.866   0.733  0.6593  0.3802 -0.0400
  700MOL0     H94455   2.572   3.894   0.790  1.3785 -1.5378  0.9439
  700MOL0     H94456   2.536   3.887   0.509  1.2152  0.9334  0.2565
  700MOL0     H94457   2.493   3.748   0.617  2.4964 -2.2844 -1.1611
  700MOL0     H94458   2.742   3.802   0.483 -0.2665  0.4790  0.8982
  700MOL0     H94459   2.609   3.694   0.428 -3.5597  3.4474  0.9266
  700MOL0     H94460   2.827   3.516   0.817  0.7912  1.1487  2.0916
  700MOL0     H94461   3.050   3.491   0.861  0.0421  0.0117  0.6449
  700MOL0     H94462   3.489   3.490   0.832 -0.2413  0.9395  1.6469
  700MOL0     H94463   3.695   3.527   0.944  0.2373 -0.8090 -0.8995
  700MOL0     H94464   3.950   3.895   0.824  0.0629  3.6247  0.0686
  700MOL0     H94465   3.855   3.933   0.977  1.1545  0.6005 -0.5296
  700MOL0     H94466   4.072   3.937   1.055 -2.8757  0.4372  1.5894
  700MOL0     H94467   4.024   3.771   1.088 -2.0992  0.9590 -0.6590
  700MOL0     H94468   4.264   3.796   1.019 -0.3954 -0.1623 -0.3817
  700MOL0     H94469   4.174   3.680   0.909 -2.5693 -0.9359  2.5595
  700MOL0     H94470   4.219   3.974   0.859  0.3966 -1.6091  2.1207
  700MOL0     H94471   4.147   3.856   0.745 -0.7051  1.3613  0.6536
  700MOL0     H94472   4.363   3.738   0.751  2.3546 -0.1970  1.7306
  700MOL0     H94473   4.434   3.850   0.842  1.9123 -3.4629 -1.9796
  700MOL0     H94474   4.317   3.947   0.576 -1.3082  3.5323  0.9065
  700MOL0     H94475   4.429   4.023   0.699 -1.6549 -0.8963  0.3271
  700MOL0     H94476   4.461   3.770   0.549 -0.5458 -0.0157  1.5502
  700MOL0     H94477   4.579   3.824   0.659  3.0657  2.0369 -2.1627
  700MOL0     H94478   4.510   3.960   0.393  0.5885  1.7207  0.0341
  700MOL0     H94479   4.605   4.045   0.507  0.7251  0.2886  1.6925
  700MOL0     H94480   3.737   3.902   0.737 -1.3379  0.7137 -0.6923
  700MOL0     H94481   3.527   3.870   0.618  2.1755  3.4752  1.9994
  700MOL0     H94482   3.163   3.757   0.545  1.5774 -3.2251 -2.6267
  700MOL0     H94483   2.932   3.749   0.456  2.5823  0.9658 -1.1480
  700MOL0     H94484   2.876   4.946   0.994  1.8513 -0.5378  0.3451
  700MOL0     H94485   2.711   5.100   0.907 -0.7440 -0.3671  1.1180
  700MOL0     H94486   2.333   5.103   0.574 -1.9718 -0.2156 -3.2418
  700MOL0     H94487   2.160   5.243   0.483 -1.5370  0.8734 -4.8506
  700MOL0     H94488   2.196   5.581   0.197  0.2349 -3.3479  1.8096
  700MOL0     H94489   2.277   5.663   0.324 -0.2436  1.0297 -0.6273
  700MOL0     H94490   2.053   5.714   0.433  2.6033  0.8392 -0.2223
  700MOL0     H94491   1.959   5.647   0.302  0.0595 -0.5736  0.4297
  700MOL0     H94492   1.957   5.862   0.240  2.2731  3.3291  1.0257
  700MOL0     H94493   2.075   5.778   0.142 -4.1253 -1.6605 -0.1573
  700MOL0     H94494   2.155   5.933   0.394 -0.9035  1.7225 -1.2900
  700MOL0     H94495   2.261   5.904   0.248 -1.1102  1.6882 -2.0963
  700MOL0     H94496   2.050   6.244   0.124  1.2818  0.4496 -1.2614
  700MOL0     H94497   2.434   5.525   0.333  1.4053  0.1319  0.7258
  700MOL0     H94498   2.674   5.306   0.281 -0.8930  1.1815 -1.0434
  700MOL0     H94499   2.653   5.476   0.335 -2.6906  1.5482  3.4334
  700MOL0     H94500   2.711   5.353   0.454  0.0205 -0.5197  0.0947
  701MOL0     O94501   4.038   2.846   7.782 -0.4789  0.1291 -0.2601
  701MOL0     C94502   4.096   2.741   7.787  0.9984 -0.1263 -0.6828
  701MOL0     O94503   4.131   2.673   7.911  0.8459  0.2208 -0.7606
  701MOL0     C94504   4.068   2.718   8.022  0.5928 -0.0325  0.5001
  701MOL0     C94505   3.931   2.679   8.045  0.1891  0.2865 -0.1582
  701MOL0     C94506   3.848   2.727   8.146  0.4132 -0.6372 -1.3412
  701MOL0     C94507   3.894   2.838   8.215  0.2440  0.3513  0.4807
  701MOL0     O94508   3.805   2.895   8.301  0.1516 -0.1332  0.2934
  701MOL0     C94509   3.846   3.018   8.369 -0.2643  0.4220 -1.0783
  701MOL0     C94510   3.715   3.099   8.412 -0.2214 -0.3809 -0.4966
  701MOL0     C94511   3.734   3.230   8.482  0.8643  0.6151  0.1413
  701MOL0     C94512   3.619   3.334   8.466  0.1684  0.6555  0.1966
  701MOL0     C94513   3.650   3.454   8.561 -0.6661  0.1972  0.9140
  701MOL0     C94514   3.587   3.590   8.525 -0.0373 -0.0263  0.5817
  701MOL0     C94515   3.436   3.593   8.549 -0.0374 -1.0426  0.0840
  701MOL0     C94516   3.373   3.724   8.484  0.0647  0.6937  0.3156
  701MOL0     N94517   3.236   3.747   8.525 -0.1274 -0.4528  0.1577
  701MOL0     C94518   3.185   3.864   8.591 -0.1476 -0.6279  0.0925
  701MOL0     C94519   3.045   3.843   8.585  0.1154  0.0930 -0.4784
  701MOL0     C94520   2.937   3.930   8.650 -0.1000  1.0106  0.2223
  701MOL0     C94521   3.001   4.066   8.684  0.2174  0.6423 -0.0638
  701MOL0     C94522   2.902   4.155   8.751  0.0927 -0.4651  0.5032
  701MOL0     C94523   2.964   4.267   8.827  0.5579  0.0882  0.8709
  701MOL0     O94524   3.042   4.239   8.935  0.2765 -0.0084  0.5753
  701MOL0     C94525   3.067   4.338   9.025 -0.5192  0.2975  0.0055
  701MOL0     C94526   3.057   4.478   8.999  0.2590 -0.5469 -0.3059
  701MOL0     C94527   3.100   4.573   9.091 -0.3064 -0.7461  1.1170
  701MOL0     C94528   3.161   4.539   9.210  0.9128  1.5173 -0.7506
  701MOL0     C94529   3.217   4.630   9.315 -0.0348 -0.2275  0.2903
  701MOL0     O94530   3.233   4.579   9.443  0.2557  0.5632 -0.6595
  701MOL0     C94531   3.269   4.652   9.551  0.3668 -0.9304 -1.3257
  701MOL0     C94532   3.184   4.758   9.592  0.1008  0.0376 -0.2126
  701MOL0     C94533   3.214   4.830   9.704 -0.3414 -0.6959 -0.1512
  701MOL0     C94534   3.326   4.795   9.778 -1.0198 -0.5960 -0.3905
  701MOL0     O94535   3.384   4.876   9.874 -0.4884  1.4019  0.4402
  701MOL0     C94536   3.370   5.018   9.862  0.0460 -0.3121  0.3145
  701MOL0     C94537   3.276   5.055   9.977  0.0723 -0.9303 -0.2064
  701MOL0     C94538   3.346   5.098  10.109 -0.0579 -0.1735 -0.2486
  701MOL0     C94539   3.422   5.230  10.116  0.8679 -0.1383  0.7100
  701MOL0     C94540   3.513   5.251  10.241  0.2244  0.4622  0.8028
  701MOL0     C94541   3.435   5.258  10.371  0.2170 -0.7733  0.5298
  701MOL0     C94542   3.372   5.389  10.413 -0.4548  0.2774 -0.5354
  701MOL0     C94543   3.284   5.369  10.537  0.5372  0.2852  1.0487
  701MOL0    Cl94544   3.236   5.522  10.599  0.3672 -0.4472 -0.2111
  701MOL0     C94545   3.411   4.688   9.740 -0.0514 -0.5420 -0.2731
  701MOL0     C94546   3.375   4.615   9.628 -0.4782 -0.4194 -0.3051
  701MOL0     O94547   3.238   4.742   9.272 -0.6932  0.1693  0.0405
  701MOL0     C94548   3.175   4.400   9.233 -0.2595  0.2975  0.5194
  701MOL0     C94549   3.125   4.303   9.144  0.3260  0.0876 -0.5339
  701MOL0     N94550   3.027   3.724   8.510  0.0789  1.3868 -0.0245
  701MOL0     N94551   3.132   3.676   8.472  0.3317 -0.0802 -0.3796
  701MOL0     C94552   4.034   2.864   8.211 -0.7545 -0.6030  0.0717
  701MOL0     C94553   4.116   2.811   8.112  0.8428 -0.3432 -0.5126
  701MOL0     C94554   4.124   2.673   7.660  0.3352  0.1969 -0.7725
  701MOL0     C94555   4.120   2.531   7.668 -0.6955 -0.9512  0.9425
  701MOL0     C94556   4.170   2.447   7.563 -0.5214  0.5101  0.9909
  701MOL0     C94557   4.205   2.501   7.443  1.2588 -0.1422 -0.4582
  701MOL0     O94558   4.225   2.432   7.316 -0.1787  0.1375  0.5196
  701MOL0     C94559   4.278   2.296   7.315 -0.0074  0.1740  0.0868
  701MOL0     C94560   4.310   2.237   7.178 -0.3470  0.1908  0.0224
  701MOL0     C94561   4.330   2.083   7.162  0.2871 -0.4057  0.0745
  701MOL0     C94562   4.459   2.020   7.229  0.0444  0.0045  0.1634
  701MOL0     C94563   4.584   2.096   7.189  0.6450  0.7917  1.1656
  701MOL0     C94564   4.686   2.154   7.164  1.5472  0.5500  0.3973
  701MOL0     C94565   4.204   2.642   7.435  0.8125  0.3609  0.6462
  701MOL0     C94566   4.158   2.733   7.538 -0.3815  0.7851  0.3323
  701MOL0     C94567   4.169   2.884   7.501 -0.5682  0.4062 -1.0836
  701MOL0     H94568   3.882   2.616   7.971  2.6158 -0.7866 -0.9765
  701MOL0     H94569   3.746   2.694   8.164 -0.9583  3.5176 -0.2592
  701MOL0     H94570   3.903   2.994   8.460 -0.1791  2.0822 -0.6593
  701MOL0     H94571   3.910   3.078   8.303  2.1528  0.2733  0.9736
  701MOL0     H94572   3.655   3.034   8.476 -0.7714 -0.7386 -1.3531
  701MOL0     H94573   3.656   3.126   8.324 -2.8335  1.1075  1.5737
  701MOL0     H94574   3.826   3.276   8.447  1.7768  1.0607  2.8476
  701MOL0     H94575   3.757   3.212   8.588  0.5778  1.5297  0.3689
  701MOL0     H94576   3.619   3.359   8.360  0.1448 -1.9218 -0.4893
  701MOL0     H94577   3.523   3.293   8.499 -0.4327 -0.1411 -2.3471
  701MOL0     H94578   3.634   3.418   8.664  1.6587 -3.4858  0.1767
  701MOL0     H94579   3.758   3.463   8.550 -0.2233  2.6599  5.0001
  701MOL0     H94580   3.645   3.662   8.585 -1.2036  1.0491  0.4478
  701MOL0     H94581   3.612   3.612   8.421 -4.0884  2.6427 -0.0288
  701MOL0     H94582   3.419   3.580   8.657 -3.1981  3.3644  0.4139
  701MOL0     H94583   3.399   3.504   8.496 -0.7907 -0.5979 -0.1567
  701MOL0     H94584   3.434   3.812   8.506  1.9129 -0.2359 -0.7854
  701MOL0     H94585   3.377   3.702   8.377 -0.1055 -5.2348  1.2024
  701MOL0     H94586   3.234   3.955   8.625 -1.9619  0.3601  0.1848
  701MOL0     H94587   2.860   3.930   8.573  1.1177  2.3579 -1.0388
  701MOL0     H94588   2.905   3.874   8.739 -0.0828 -1.4567 -1.2424
  701MOL0     H94589   3.095   4.058   8.740  0.4450 -1.6740 -0.6818
  701MOL0     H94590   3.032   4.101   8.585  1.1607  0.5155  0.1760
  701MOL0     H94591   2.827   4.107   8.815 -0.1056  2.1901  2.4560
  701MOL0     H94592   2.837   4.206   8.679 -0.0140  2.0549  2.2751
  701MOL0     H94593   2.883   4.335   8.850 -0.8618 -1.3520  0.3048
  701MOL0     H94594   3.029   4.311   8.750  0.8982  0.2771  1.2654
  701MOL0     H94595   3.010   4.513   8.908 -1.1237 -0.5473  0.3888
  701MOL0     H94596   3.083   4.678   9.070  0.6017 -0.4827  1.6557
  701MOL0     H94597   3.091   4.772   9.540  0.3934 -0.3748 -0.8526
  701MOL0     H94598   3.156   4.915   9.739  2.9094  0.9731  1.6495
  701MOL0     H94599   3.470   5.060   9.876 -0.1511 -0.5694  3.0412
  701MOL0     H94600   3.327   5.045   9.765  0.2745 -1.4241 -0.1063
  701MOL0     H94601   3.217   5.138   9.938  0.1474 -0.3793  0.8009
  701MOL0     H94602   3.217   4.967  10.003 -1.2734 -0.0832 -0.3181
  701MOL0     H94603   3.268   5.097  10.186 -1.1948  4.6284 -0.9849
  701MOL0     H94604   3.424   5.025  10.132  0.8556  1.3939  1.9440
  701MOL0     H94605   3.345   5.303  10.094 -2.2528 -3.8197 -1.8560
  701MOL0     H94606   3.490   5.243  10.031 -2.1677  1.3346 -1.6893
  701MOL0     H94607   3.588   5.330  10.234  0.9747 -0.1574  1.7555
  701MOL0     H94608   3.572   5.160  10.255 -0.0934  0.3671  1.5958
  701MOL0     H94609   3.360   5.179  10.367  2.0026 -2.5076 -0.2647
  701MOL0     H94610   3.508   5.234  10.449  2.4241  0.1983 -1.1068
  701MOL0     H94611   3.319   5.427  10.325 -3.0781  0.7702  1.1339
  701MOL0     H94612   3.455   5.453  10.444  1.3054 -2.2539  0.3323
  701MOL0     H94613   3.193   5.319  10.502  1.4402  0.7236 -2.2223
  701MOL0     H94614   3.324   5.304  10.616 -1.5688 -0.1763  1.8014
  701MOL0     H94615   3.503   4.672   9.795  0.9633 -4.0261 -2.6760
  701MOL0     H94616   3.423   4.523   9.595  0.0112  0.1390 -1.1648
  701MOL0     H94617   3.211   4.363   9.328  1.2279 -1.1571 -0.5273
  701MOL0     H94618   3.135   4.196   9.157  0.8516  0.4359  2.7016
  701MOL0     H94619   4.074   2.942   8.276  1.4169 -1.6964  0.1326
  701MOL0     H94620   4.222   2.834   8.112  0.8493 -0.3704 -0.7142
  701MOL0     H94621   4.086   2.492   7.763  0.4008 -3.3563  0.4292
  701MOL0     H94622   4.171   2.341   7.586 -0.3205  0.6692  1.7514
  701MOL0     H94623   4.211   2.221   7.356  0.1754 -1.0885 -1.8007
  701MOL0     H94624   4.374   2.301   7.366  0.9168 -1.4768 -1.4022
  701MOL0     H94625   4.403   2.288   7.152 -0.4471  1.0901  1.3514
  701MOL0     H94626   4.240   2.283   7.108  0.8588  0.1610 -1.2399
  701MOL0     H94627   4.335   2.058   7.056  0.5045 -3.4330  0.6895
  701MOL0     H94628   4.242   2.035   7.205 -0.7062 -1.3469 -2.7676
  701MOL0     H94629   4.456   2.034   7.337  3.6113  0.7761  0.2792
  701MOL0     H94630   4.472   1.916   7.199 -2.7254 -0.0975 -1.0476
  701MOL0     H94631   4.779   2.207   7.150  2.1810 -0.0140  2.1142
  701MOL0     H94632   4.222   2.687   7.337 -2.1634  1.3738  0.4652
  701MOL0     H94633   4.081   2.908   7.441 -2.6054  0.9343  1.8782
  701MOL0     H94634   4.176   2.951   7.587  1.2570  0.1623 -1.0024
  701MOL0     H94635   4.261   2.889   7.442  1.0794  0.3313  1.3178
  702MOL0     O94636   8.565   0.299   4.868 -0.0081 -0.0991 -0.0491
  702MOL0     C94637   8.677   0.300   4.915  0.6900  0.1380  0.1610
  702MOL0     O94638   8.791   0.322   4.844  0.4585  0.4527  0.0735
  702MOL0     C94639   8.798   0.297   4.710 -0.0955  0.0269  0.2378
  702MOL0     C94640   8.694   0.307   4.613 -0.1131  0.7942  0.1469
  702MOL0     C94641   8.728   0.304   4.476  0.2954 -0.6579  0.3718
  702MOL0     C94642   8.860   0.302   4.432 -0.4260 -1.0065 -0.3654
  702MOL0     O94643   8.877   0.298   4.298 -0.9821  0.4513 -0.1584
  702MOL0     C94644   8.977   0.380   4.245 -0.1541  0.3636  0.5929
  702MOL0     C94645   8.983   0.336   4.093  0.6240  0.5338  0.0283
  702MOL0     C94646   9.072   0.416   3.999 -0.4350 -1.1232  0.8287
  702MOL0     C94647   9.220   0.381   4.026  0.6166 -0.1067 -0.7114
  702MOL0     C94648   9.302   0.482   3.946 -0.3628  0.0330 -0.1038
  702MOL0     C94649   9.310   0.469   3.794  0.4894  0.8546 -0.2535
  702MOL0     C94650   9.414   0.558   3.734 -0.1146  0.5434  0.1063
  702MOL0     C94651   9.364   0.699   3.691 -0.2785  0.4975 -0.7861
  702MOL0     N94652   9.279   0.690   3.574  0.3431  0.2034  1.2628
  702MOL0     C94653   9.140   0.683   3.583  0.4686  0.4220  0.1241
  702MOL0     C94654   9.102   0.673   3.449 -0.2240 -0.7138  1.1010
  702MOL0     C94655   8.966   0.656   3.396  0.5599  0.8496 -0.3161
  702MOL0     C94656   8.900   0.795   3.405  0.3521  0.2347 -0.3091
  702MOL0     C94657   8.937   0.878   3.278  0.0391 -0.1286 -0.1548
  702MOL0     C94658   8.849   1.004   3.250  0.0358  0.0601 -1.1203
  702MOL0     O94659   8.708   1.002   3.285  0.1438 -0.4705  0.2556
  702MOL0     C94660   8.625   0.941   3.195  0.8924 -0.4415 -0.3832
  702MOL0     C94661   8.657   0.880   3.074  0.1078  0.6004 -0.3395
  702MOL0     C94662   8.559   0.832   2.989 -0.5207 -0.5980 -0.1464
  702MOL0     C94663   8.419   0.828   3.018 -0.3226  0.1937  0.1817
  702MOL0     C94664   8.311   0.784   2.928  0.3894 -0.5140  0.2459
  702MOL0     O94665   8.189   0.791   2.983  0.6287 -0.7390  0.1045
  702MOL0     C94666   8.077   0.763   2.904  0.6864 -0.1651  0.0380
  702MOL0     C94667   8.043   0.629   2.865 -0.3190 -0.0150 -0.2922
  702MOL0     C94668   7.940   0.604   2.777  0.0773 -0.6592  0.7246
  702MOL0     C94669   7.849   0.713   2.746  0.1063 -0.4818  0.3521
  702MOL0     O94670   7.737   0.712   2.663 -0.2141 -0.4101 -0.6714
  702MOL0     C94671   7.698   0.591   2.601  0.6445  0.8909 -0.5328
  702MOL0     C94672   7.657   0.609   2.451 -0.5999  0.5041 -0.2359
  702MOL0     C94673   7.576   0.494   2.397 -0.2926 -0.6320  0.0401
  702MOL0     C94674   7.663   0.383   2.343  0.1018 -0.1640  0.7803
  702MOL0     C94675   7.574   0.272   2.290 -0.7063 -0.6915 -0.2117
  702MOL0     C94676   7.656   0.148   2.254  0.2145  0.3364 -0.2614
  702MOL0     C94677   7.567   0.048   2.193  0.1670 -0.0486 -0.5149
  702MOL0     C94678   7.644  -0.074   2.147 -0.8342  0.5510  0.7013
  702MOL0    Cl94679   7.731  -0.175   2.284 -0.2664  0.2456 -0.1478
  702MOL0     C94680   7.873   0.836   2.803 -0.9921 -0.8659  0.5417
  702MOL0     C94681   7.987   0.858   2.879 -0.7801 -0.1794 -0.1486
  702MOL0     O94682   8.335   0.761   2.806 -0.3142  0.5182 -0.1686
  702MOL0     C94683   8.381   0.890   3.141  0.2977 -0.1915  0.1637
  702MOL0     C94684   8.482   0.943   3.223 -0.2227  1.4658 -0.8315
  702MOL0     N94685   9.217   0.671   3.373  1.5802 -0.3435 -0.3031
  702MOL0     N94686   9.321   0.681   3.446  0.7026  0.1318 -0.0291
  702MOL0     C94687   8.958   0.312   4.531  0.3078 -0.5176 -0.0990
  702MOL0     C94688   8.924   0.314   4.664 -0.6274 -0.1704 -0.0751
  702MOL0     C94689   8.682   0.304   5.065  0.3523 -0.6925  1.5941
  702MOL0     C94690   8.752   0.408   5.131  0.4923 -1.5039 -0.4174
  702MOL0     C94691   8.746   0.427   5.270 -0.4885 -0.4208 -0.1591
  702MOL0     C94692   8.693   0.333   5.357  0.6121 -0.6945  0.1731
  702MOL0     O94693   8.711   0.341   5.491  0.5160 -0.2686 -0.3133
  702MOL0     C94694   8.610   0.293   5.580 -0.2980 -0.0025  0.4931
  702MOL0     C94695   8.655   0.343   5.714 -0.6200 -0.4469  0.2683
  702MOL0     C94696   8.579   0.279   5.833  0.1851  0.0316 -0.0074
  702MOL0     C94697   8.490   0.374   5.903  0.9260 -0.0160  0.7936
  702MOL0     C94698   8.368   0.403   5.817  0.7409  0.3731  0.2326
  702MOL0     C94699   8.288   0.447   5.745  0.0436  0.9316 -0.1279
  702MOL0     C94700   8.635   0.218   5.291 -0.1446 -0.6613  0.1164
  702MOL0     C94701   8.618   0.206   5.152  1.3778 -0.1514 -0.9594
  702MOL0     C94702   8.553   0.086   5.085  0.9715  0.1612  0.4149
  702MOL0     H94703   8.589   0.320   4.637 -0.1469 -0.4681  0.7427
  702MOL0     H94704   8.649   0.305   4.401  1.0043  2.6233 -0.4741
  702MOL0     H94705   8.947   0.485   4.247  3.4735  1.5537 -0.5012
  702MOL0     H94706   9.075   0.367   4.293  0.6325  1.7751 -0.5385
  702MOL0     H94707   8.880   0.340   4.057  0.9676  2.7936 -0.9187
  702MOL0     H94708   9.016   0.232   4.095  1.5801  0.8302  1.1227
  702MOL0     H94709   9.068   0.524   4.018  0.1457 -0.3311 -2.8451
  702MOL0     H94710   9.046   0.403   3.894  2.6820  1.8556 -0.5301
  702MOL0     H94711   9.236   0.405   4.132 -1.1717  0.0535 -0.4404
  702MOL0     H94712   9.247   0.276   4.015 -2.7931 -1.3804  1.3689
  702MOL0     H94713   9.259   0.582   3.960 -0.4304 -0.1124  0.8018
  702MOL0     H94714   9.397   0.485   3.999  1.2533 -1.0644 -2.7662
  702MOL0     H94715   9.334   0.363   3.781 -4.9050 -1.0290  1.9911
  702MOL0     H94716   9.212   0.489   3.750  0.7750  3.0929  0.0110
  702MOL0     H94717   9.460   0.497   3.656  3.5594 -1.6930  3.5755
  702MOL0     H94718   9.502   0.547   3.799  1.2546  0.7257 -1.6414
  702MOL0     H94719   9.324   0.760   3.772  0.6981  2.4039 -1.6746
  702MOL0     H94720   9.450   0.759   3.658  2.0495 -2.2611 -0.0978
  702MOL0     H94721   9.082   0.692   3.674  0.9524 -2.0940  0.7601
  702MOL0     H94722   8.980   0.605   3.300 -2.7203  0.6156 -0.8011
  702MOL0     H94723   8.907   0.594   3.464 -2.0634  2.1393 -1.2783
  702MOL0     H94724   8.792   0.778   3.402  0.3775  0.1682 -1.0786
  702MOL0     H94725   8.927   0.847   3.497 -2.9418  0.6429  0.5798
  702MOL0     H94726   8.924   0.811   3.192 -0.1149  0.7676 -0.8440
  702MOL0     H94727   9.038   0.911   3.305 -0.1395 -0.5676  1.1344
  702MOL0     H94728   8.848   1.033   3.145  2.3639 -2.8872 -2.0877
  702MOL0     H94729   8.904   1.075   3.313  1.8723  1.4867 -4.1146
  702MOL0     H94730   8.762   0.870   3.049  0.5502 -4.6856  2.1365
  702MOL0     H94731   8.588   0.793   2.892  0.2003 -3.2661  1.0600
  702MOL0     H94732   8.118   0.559   2.899  0.4859  1.1002  0.3172
  702MOL0     H94733   7.933   0.502   2.740 -1.6117  0.0066 -1.0125
  702MOL0     H94734   7.780   0.518   2.610  0.6396  0.8015 -1.1833
  702MOL0     H94735   7.605   0.561   2.650  0.0342 -1.6182 -2.9533
  702MOL0     H94736   7.595   0.700   2.451 -0.1269  0.8684 -2.0469
  702MOL0     H94737   7.745   0.629   2.390 -1.2974 -2.4893 -2.4136
  702MOL0     H94738   7.520   0.461   2.485  0.0922  2.0571  1.4021
  702MOL0     H94739   7.512   0.538   2.320 -1.7557 -3.0795 -0.2354
  702MOL0     H94740   7.729   0.345   2.422  4.3669 -3.5662 -3.7724
  702MOL0     H94741   7.732   0.411   2.263 -1.3888  0.4679 -0.3339
  702MOL0     H94742   7.521   0.315   2.204  1.6091 -1.2708 -2.0392
  702MOL0     H94743   7.498   0.257   2.367 -1.6410  1.1044 -0.7239
  702MOL0     H94744   7.725   0.175   2.174  0.6429 -2.7549 -1.0552
  702MOL0     H94745   7.718   0.100   2.329 -1.1855  0.1976  0.8549
  702MOL0     H94746   7.520   0.090   2.103 -0.4799 -2.8068 -1.5942
  702MOL0     H94747   7.484   0.033   2.263 -1.0411  3.7293 -0.9146
  702MOL0     H94748   7.576  -0.137   2.089  1.4450 -0.4661 -1.0494
  702MOL0     H94749   7.718  -0.046   2.072 -2.0821 -0.1586 -0.8625
  702MOL0     H94750   7.797   0.909   2.778 -0.4857 -0.5273 -0.0687
  702MOL0     H94751   8.012   0.958   2.914  0.6986 -1.2094  1.9433
  702MOL0     H94752   8.277   0.913   3.163  1.1093  2.4366  1.5896
  702MOL0     H94753   8.447   1.003   3.307 -0.4672 -0.7754  0.7538
  702MOL0     H94754   9.065   0.321   4.512  0.0661  1.6238 -0.6603
  702MOL0     H94755   9.001   0.342   4.735 -0.0274  3.2964 -1.8799
  702MOL0     H94756   8.807   0.479   5.070  0.1190 -0.7452  0.1150
  702MOL0     H94757   8.798   0.514   5.310 -1.3496 -0.6238  1.4875
  702MOL0     H94758   8.609   0.184   5.585  1.7631 -0.0055  2.9742
  702MOL0     H94759   8.511   0.323   5.545 -0.2268  0.6021  0.7963
  702MOL0     H94760   8.665   0.452   5.712  1.5171 -0.5796  0.6621
  702MOL0     H94761   8.760   0.316   5.730  0.1699  0.3040 -2.8843
  702MOL0     H94762   8.649   0.240   5.908 -0.2438  0.7469  0.7789
  702MOL0     H94763   8.523   0.200   5.783 -0.3919 -1.7996  3.2356
  702MOL0     H94764   8.453   0.324   5.993  0.3207 -2.0778 -0.5205
  702MOL0     H94765   8.544   0.462   5.940  1.2743  2.3340 -4.4085
  702MOL0     H94766   8.212   0.500   5.691  0.3770  1.3187 -0.2196
  702MOL0     H94767   8.583   0.146   5.354 -1.1769 -0.7160 -0.7751
  702MOL0     H94768   8.616  -0.003   5.083 -0.7803 -1.2380  2.6177
  702MOL0     H94769   8.466   0.060   5.146  1.3582 -2.1882  0.0636
  702MOL0     H94770   8.505   0.102   4.988  1.5600 -0.1619  0.0624
  703MOL0     O94771   9.019   4.818   4.999 -0.4592  0.1846 -0.3636
  703MOL0     C94772   9.006   4.851   4.883  0.3069  0.9314 -0.0030
  703MOL0     O94773   9.102   4.903   4.809  0.2549  0.1514 -0.7908
  703MOL0     C94774   9.224   4.916   4.870  0.9439  0.1837  0.1093
  703MOL0     C94775   9.245   5.041   4.922  0.5020  0.1219  0.6225
  703MOL0     C94776   9.373   5.076   4.977  0.9709  0.5044  0.9825
  703MOL0     C94777   9.474   4.980   4.973 -0.1852  0.1208 -0.0871
  703MOL0     O94778   9.599   5.006   5.035 -0.6048  0.6693 -0.3601
  703MOL0     C94779   9.686   5.058   4.941  0.1601  0.5037  0.7329
  703MOL0     C94780   9.697   5.214   4.958  0.4353 -0.6315 -0.1325
  703MOL0     C94781   9.834   5.273   4.955  0.2280  0.1114 -0.8685
  703MOL0     C94782   9.831   5.420   4.985  0.0242 -0.4743  0.0882
  703MOL0     C94783   9.971   5.465   5.031  0.0158  0.6571  0.2154
  703MOL0     C94784   9.975   5.586   5.114 -0.6612 -0.2673 -0.2279
  703MOL0     C94785  10.109   5.615   5.174  0.1579 -0.1145 -1.0085
  703MOL0     C94786  10.184   5.717   5.086  0.1413  0.4378  0.0573
  703MOL0     N94787  10.328   5.716   5.090 -0.1502 -0.0629  0.7958
  703MOL0     C94788  10.404   5.824   5.070  0.3936 -0.3541  0.3456
  703MOL0     C94789  10.527   5.771   5.054 -0.9833 -0.0592 -0.0769
  703MOL0     C94790  10.648   5.853   5.013 -0.1483  0.3350 -1.0625
  703MOL0     C94791  10.731   5.783   4.901 -0.9025  0.4366 -0.0657
  703MOL0     C94792  10.872   5.841   4.862 -0.3659 -1.2246  0.2831
  703MOL0     C94793  10.981   5.792   4.968  0.0507  0.1478  0.4677
  703MOL0     O94794  11.012   5.659   4.943 -0.1762 -0.0485 -0.1505
  703MOL0     C94795  11.075   5.629   4.824  0.4882 -0.1652 -0.0756
  703MOL0     C94796  11.148   5.725   4.748 -0.7115  0.2450 -0.0668
  703MOL0     C94797  11.206   5.693   4.622 -0.1895  0.5230 -0.6184
  703MOL0     C94798  11.188   5.566   4.562 -0.4011  0.1632  0.1255
  703MOL0     C94799  11.233   5.545   4.420  0.5005  0.0661  0.3983
  703MOL0     O94800  11.221   5.420   4.366 -0.4025  0.5505 -0.3654
  703MOL0     C94801  11.263   5.402   4.232 -0.3148 -0.0717 -1.1454
  703MOL0     C94802  11.399   5.384   4.215  0.4189 -0.7257 -0.3370
  703MOL0     C94803  11.438   5.385   4.081 -0.4835 -0.6153 -0.2025
  703MOL0     C94804  11.348   5.389   3.972 -0.6717  0.5087  0.0912
  703MOL0     O94805  11.397   5.414   3.845  0.0994  0.2139  1.5179
  703MOL0     C94806  11.418   5.296   3.760  0.2444 -0.3653  0.4405
  703MOL0     C94807  11.500   5.341   3.641 -0.1454 -0.1842  0.0900
  703MOL0     C94808  11.534   5.234   3.537  0.9177 -0.3332  0.7062
  703MOL0     C94809  11.607   5.298   3.414 -0.2296  0.3255 -0.9539
  703MOL0     C94810  11.661   5.206   3.306  0.0460  0.6381  0.3582
  703MOL0     C94811  11.752   5.279   3.202 -0.1130 -0.4369 -0.4509
  703MOL0     C94812  11.772   5.176   3.093 -0.1327 -0.0513  0.1863
  703MOL0     C94813  11.855   5.236   2.984 -0.5196 -1.0676  0.1671
  703MOL0    Cl94814  11.899   5.111   2.877  0.3374  0.4466 -0.4111
  703MOL0     C94815  11.216   5.391   3.998 -0.6228 -0.5543  0.3969
  703MOL0     C94816  11.171   5.402   4.128  0.1463 -0.9510 -1.0331
  703MOL0     O94817  11.289   5.642   4.359  0.1338  0.8815  0.8683
  703MOL0     C94818  11.115   5.471   4.633  0.6845  0.3315 -0.2961
  703MOL0     C94819  11.063   5.507   4.757 -0.2298  0.4473  0.2964
  703MOL0     N94820  10.536   5.633   5.077  0.4486  0.3146  0.4831
  703MOL0     N94821  10.410   5.602   5.093 -0.8633 -0.4448 -0.5941
  703MOL0     C94822   9.452   4.848   4.935 -0.2609  0.1306 -0.2101
  703MOL0     C94823   9.326   4.813   4.877 -0.0547 -0.3330 -0.5769
  703MOL0     C94824   8.870   4.839   4.813 -0.0486 -0.6310  0.0063
  703MOL0     C94825   8.830   4.709   4.785 -0.1643 -0.7623  0.1023
  703MOL0     C94826   8.712   4.684   4.716 -1.6388  0.5326  0.5743
  703MOL0     C94827   8.629   4.785   4.687 -0.4011 -0.5666 -0.0953
  703MOL0     O94828   8.512   4.755   4.621  0.2947 -0.1224 -0.4303
  703MOL0     C94829   8.407   4.852   4.603  0.0097  0.3192 -0.9577
  703MOL0     C94830   8.331   4.872   4.732  0.0179 -0.9892 -0.5485
  703MOL0     C94831   8.244   4.754   4.784  0.4933  0.9553  0.4225
  703MOL0     C94832   8.316   4.631   4.823  0.1234 -0.1269  0.8254
  703MOL0     C94833   8.219   4.550   4.892  0.7585  0.4826  0.4472
  703MOL0     C94834   8.142   4.483   4.957  0.5727  0.3534  0.2119
  703MOL0     C94835   8.667   4.919   4.712 -0.5685  0.0928 -1.3936
  703MOL0     C94836   8.793   4.950   4.766  0.1172  0.4768 -0.0671
  703MOL0     C94837   8.843   5.095   4.787 -0.3415 -0.0459  0.9488
  703MOL0     H94838   9.173   5.119   4.901  0.4624  0.0652  0.5465
  703MOL0     H94839   9.406   5.176   5.006  3.1252  0.6978 -1.7715
  703MOL0     H94840   9.784   5.020   4.971  1.0115  1.6153 -0.5375
  703MOL0     H94841   9.654   5.037   4.838  1.8062 -0.8376  0.4498
  703MOL0     H94842   9.657   5.243   5.056  3.0318  0.9353  0.5510
  703MOL0     H94843   9.634   5.260   4.881 -0.4944 -1.2413  0.2401
  703MOL0     H94844   9.880   5.254   4.857  2.0066  0.3067 -0.0981
  703MOL0     H94845   9.900   5.228   5.030 -0.5798 -1.5588 -1.1024
  703MOL0     H94846   9.792   5.486   4.907  0.7824 -0.2609 -0.1215
  703MOL0     H94847   9.776   5.444   5.076 -2.0191 -2.9327 -0.4019
  703MOL0     H94848  10.019   5.392   5.097  2.7731  0.3580 -1.9218
  703MOL0     H94849  10.033   5.466   4.941  1.7846 -5.7882  0.8838
  703MOL0     H94850   9.939   5.674   5.061  0.1246 -0.2092 -0.6857
  703MOL0     H94851   9.907   5.571   5.199 -0.9967 -0.2466 -0.4901
  703MOL0     H94852  10.178   5.535   5.203 -0.0280  0.7607  2.3346
  703MOL0     H94853  10.080   5.661   5.269 -2.0544 -1.3546 -1.0334
  703MOL0     H94854  10.165   5.689   4.983  0.0227 -0.0582  0.2111
  703MOL0     H94855  10.147   5.816   5.115 -1.7566 -0.1569 -0.2129
  703MOL0     H94856  10.363   5.924   5.071 -1.6090 -1.1036  2.6078
  703MOL0     H94857  10.617   5.954   4.985 -3.6196 -1.1422 -3.2561
  703MOL0     H94858  10.708   5.858   5.105  0.9219  3.9668 -1.7989
  703MOL0     H94859  10.738   5.675   4.918 -0.0337  0.5913  0.6022
  703MOL0     H94860  10.675   5.803   4.809  0.3651 -2.4315 -1.6031
  703MOL0     H94861  10.871   5.950   4.855  2.0616 -1.2031 -1.0051
  703MOL0     H94862  10.893   5.798   4.763 -1.3406  0.8380 -0.8917
  703MOL0     H94863  10.947   5.799   5.072  2.0726  2.6640  1.0481
  703MOL0     H94864  11.067   5.858   4.976  0.2888 -0.1059  0.0123
  703MOL0     H94865  11.156   5.830   4.775  0.4444  0.9668 -2.8130
  703MOL0     H94866  11.265   5.772   4.576  1.0811  0.1645  0.3152
  703MOL0     H94867  11.475   5.390   4.292  0.5999 -0.4728 -0.5319
  703MOL0     H94868  11.546   5.382   4.069 -0.5561 -0.9017 -0.8424
  703MOL0     H94869  11.480   5.220   3.809  1.7791 -1.4001 -2.7763
  703MOL0     H94870  11.319   5.260   3.730  0.1621  0.1936  0.0281
  703MOL0     H94871  11.444   5.426   3.601  0.5114  1.5271  2.5571
  703MOL0     H94872  11.592   5.385   3.681 -0.7065 -1.5676  3.2137
  703MOL0     H94873  11.603   5.161   3.579 -0.6582 -2.3132  0.0815
  703MOL0     H94874  11.449   5.170   3.510 -0.6238  2.7443 -2.6620
  703MOL0     H94875  11.692   5.360   3.445  0.8309 -1.6679  0.3919
  703MOL0     H94876  11.533   5.369   3.376  1.0161  2.7239  0.8095
  703MOL0     H94877  11.584   5.147   3.256  0.0473  0.3475  0.6938
  703MOL0     H94878  11.720   5.123   3.347 -0.5841 -0.4607 -0.8883
  703MOL0     H94879  11.698   5.366   3.162 -0.7457  0.3192  1.8935
  703MOL0     H94880  11.845   5.316   3.246 -0.4061 -0.0998 -0.1018
  703MOL0     H94881  11.672   5.159   3.051 -0.2457 -1.9030  1.1201
  703MOL0     H94882  11.814   5.090   3.146 -3.2099 -2.5598 -1.0772
  703MOL0     H94883  11.803   5.313   2.927  0.4444 -1.0583 -0.7253
  703MOL0     H94884  11.941   5.290   3.025  0.8401  1.1144 -4.7892
  703MOL0     H94885  11.149   5.384   3.912 -0.2956 -0.6062  0.1414
  703MOL0     H94886  11.067   5.410   4.158  0.1406  0.6132 -1.4148
  703MOL0     H94887  11.093   5.374   4.591  2.4771 -1.5926  2.8014
  703MOL0     H94888  11.004   5.427   4.802 -0.5626  0.9963  0.8589
  703MOL0     H94889   9.540   4.786   4.944 -0.2157  0.2961  0.6138
  703MOL0     H94890   9.298   4.716   4.838 -2.5448  1.0351 -2.5372
  703MOL0     H94891   8.903   4.631   4.806  1.4339  0.2996 -1.1947
  703MOL0     H94892   8.694   4.579   4.693  0.8636  0.0829  0.4739
  703MOL0     H94893   8.333   4.811   4.534 -2.2277 -0.2745  1.6336
  703MOL0     H94894   8.432   4.949   4.558 -2.4863  2.3390  1.6644
  703MOL0     H94895   8.267   4.960   4.728 -0.1749 -1.0083  1.1527
  703MOL0     H94896   8.398   4.903   4.813  1.4377 -0.0081 -2.0398
  703MOL0     H94897   8.174   4.729   4.704  0.2067 -0.4940  1.0747
  703MOL0     H94898   8.192   4.790   4.873  2.9845 -1.9405  3.3210
  703MOL0     H94899   8.358   4.585   4.733  0.4073  0.2619  0.7587
  703MOL0     H94900   8.394   4.666   4.890 -1.0399  1.8146  1.2375
  703MOL0     H94901   8.068   4.426   5.011  1.3159 -3.0649 -2.0874
  703MOL0     H94902   8.612   5.011   4.699 -0.9048 -0.0088 -0.7268
  703MOL0     H94903   8.876   5.124   4.686 -1.0451 -0.4678  0.5910
  703MOL0     H94904   8.775   5.168   4.832  2.6117  2.7446  1.2739
  703MOL0     H94905   8.935   5.099   4.846 -0.2796  0.2776  0.8329
  704MOL0     O94906   3.636   4.796   5.323  0.1468  0.3454  0.5324
  704MOL0     C94907   3.641   4.685   5.266 -0.1957  0.9567 -0.2437
  704MOL0     O94908   3.752   4.609   5.253 -0.9057 -0.0621  0.4323
  704MOL0     C94909   3.868   4.651   5.297 -0.0027  0.1429 -0.2285
  704MOL0     C94910   3.917   4.590   5.417 -0.1053 -0.2815  0.2307
  704MOL0     C94911   4.022   4.640   5.482 -0.6904  0.4845  0.2764
  704MOL0     C94912   4.096   4.751   5.429 -0.4302  0.1153  0.4431
  704MOL0     O94913   4.194   4.807   5.505 -0.5635 -0.2648  0.2645
  704MOL0     C94914   4.175   4.927   5.586  0.0209 -0.1945  1.0456
  704MOL0     C94915   4.121   4.921   5.722  0.5277  0.5330  0.1147
  704MOL0     C94916   4.197   4.812   5.798 -0.5996  0.7557  0.6466
  704MOL0     C94917   4.125   4.773   5.929  0.2290  0.1217  0.2011
  704MOL0     C94918   4.218   4.714   6.031  0.0318  0.5629  0.1961
  704MOL0     C94919   4.302   4.599   5.966 -0.0422 -1.0197  0.4697
  704MOL0     C94920   4.217   4.482   5.921  1.1722  0.5932  0.0834
  704MOL0     C94921   4.288   4.359   5.888  0.3919 -0.2225  0.0546
  704MOL0     N94922   4.375   4.356   5.775  0.0462 -0.2804 -0.1032
  704MOL0     C94923   4.344   4.328   5.642  0.7605 -0.5116  0.2435
  704MOL0     C94924   4.470   4.310   5.585 -0.4139  0.0633  0.3031
  704MOL0     C94925   4.509   4.281   5.450  0.0939  0.0471 -0.4751
  704MOL0     C94926   4.418   4.363   5.356  0.8161 -0.4905 -0.2217
  704MOL0     C94927   4.421   4.511   5.361 -0.0863 -0.4050  0.1750
  704MOL0     C94928   4.550   4.566   5.311  0.0346  0.2836  0.4357
  704MOL0     O94929   4.644   4.566   5.410 -0.0232  0.3327  0.1700
  704MOL0     C94930   4.624   4.650   5.517 -0.0196  0.9343  0.0062
  704MOL0     C94931   4.700   4.618   5.631  0.3291 -0.6040  0.5710
  704MOL0     C94932   4.693   4.693   5.746  0.5798 -0.5746  0.2457
  704MOL0     C94933   4.612   4.812   5.743  0.1532 -0.6621 -0.3511
  704MOL0     C94934   4.600   4.888   5.870  0.1042 -0.6787  0.1764
  704MOL0     O94935   4.540   5.004   5.851 -0.1703  0.7769  0.9987
  704MOL0     C94936   4.506   5.089   5.952  0.5664  0.2604 -0.0055
  704MOL0     C94937   4.378   5.152   5.955 -0.9646 -0.0170 -0.1945
  704MOL0     C94938   4.330   5.227   6.061 -0.3455  0.0622 -0.8347
  704MOL0     C94939   4.425   5.240   6.164 -0.3123 -1.4980  0.7788
  704MOL0     O94940   4.371   5.311   6.271  0.3826 -0.7368 -0.6936
  704MOL0     C94941   4.451   5.306   6.388  0.6366 -0.3104  0.2450
  704MOL0     C94942   4.365   5.374   6.490  0.2118 -1.0314 -0.0274
  704MOL0     C94943   4.243   5.280   6.548 -1.0349 -0.8513  0.1950
  704MOL0     C94944   4.172   5.364   6.657 -0.0148  0.1184  0.6913
  704MOL0     C94945   4.027   5.327   6.660  0.7322  0.8353 -1.5182
  704MOL0     C94946   3.957   5.351   6.798  0.1285 -0.7688  0.7284
  704MOL0     C94947   3.812   5.313   6.834  0.3782 -1.4083  0.1665
  704MOL0     C94948   3.711   5.383   6.745 -0.9147 -0.3918 -0.6261
  704MOL0    Cl94949   3.677   5.263   6.621 -0.3300 -0.0629 -0.3653
  704MOL0     C94950   4.558   5.205   6.156 -0.2824 -0.7225 -0.2004
  704MOL0     C94951   4.604   5.136   6.046 -0.0093  0.4565 -0.5844
  704MOL0     O94952   4.650   4.842   5.971  0.0813 -0.1135  0.2358
  704MOL0     C94953   4.550   4.852   5.622 -0.0838 -0.6297  0.1584
  704MOL0     C94954   4.549   4.765   5.507 -0.3341 -0.1003  0.5821
  704MOL0     N94955   4.571   4.318   5.686  0.9992 -0.6226  0.6231
  704MOL0     N94956   4.511   4.346   5.791 -0.1779  0.0994 -0.2038
  704MOL0     C94957   4.039   4.811   5.312  0.1841  1.7855 -0.4283
  704MOL0     C94958   3.934   4.757   5.238  0.0897 -0.2712 -0.6987
  704MOL0     C94959   3.524   4.612   5.216  0.7284  0.0768 -0.1724
  704MOL0     C94960   3.502   4.471   5.232  0.1992  0.2763  0.7667
  704MOL0     C94961   3.392   4.403   5.175 -0.6477 -1.1049 -0.3018
  704MOL0     C94962   3.296   4.477   5.104  0.6017 -0.0109 -0.2392
  704MOL0     O94963   3.182   4.411   5.055 -0.2250 -1.0652  0.0100
  704MOL0     C94964   3.056   4.434   5.120  0.8824 -0.4744  0.7167
  704MOL0     C94965   3.007   4.307   5.203 -0.1149 -0.5286 -0.0576
  704MOL0     C94966   3.083   4.288   5.327  0.2165  0.3556 -0.1542
  704MOL0     C94967   3.034   4.168   5.407 -0.2481  0.5719  0.4701
  704MOL0     C94968   3.081   4.042   5.368 -0.3189  0.4355 -0.5453
  704MOL0     C94969   3.131   3.938   5.330  0.2938 -0.4308  0.6222
  704MOL0     C94970   3.312   4.612   5.085 -0.1890 -0.8382  0.3007
  704MOL0     C94971   3.416   4.684   5.141 -0.5614  0.3857 -0.4424
  704MOL0     C94972   3.411   4.832   5.131 -0.0294 -0.5677  0.0965
  704MOL0     H94973   3.857   4.508   5.456 -1.2115 -0.3184 -1.4177
  704MOL0     H94974   4.051   4.595   5.577 -1.4511 -1.5441 -0.4090
  704MOL0     H94975   4.274   4.974   5.593  0.8794 -1.9270  1.1641
  704MOL0     H94976   4.119   4.998   5.524  1.2777 -1.0691 -1.2297
  704MOL0     H94977   4.013   4.900   5.716  1.0133 -1.9891 -0.7445
  704MOL0     H94978   4.130   5.017   5.774  1.8007  1.0386 -0.9870
  704MOL0     H94979   4.297   4.853   5.816  0.6604 -2.5254  1.7598
  704MOL0     H94980   4.208   4.725   5.734 -2.4233  2.9690 -3.0756
  704MOL0     H94981   4.073   4.862   5.964  0.7071  0.3038  0.4438
  704MOL0     H94982   4.046   4.703   5.901  2.0747 -1.5908 -1.0340
  704MOL0     H94983   4.271   4.806   6.056  0.0215  1.1412 -1.7252
  704MOL0     H94984   4.165   4.677   6.120 -0.0206 -0.0589 -0.0819
  704MOL0     H94985   4.360   4.633   5.880 -3.1781  0.9298 -1.0624
  704MOL0     H94986   4.366   4.570   6.050  1.3516  2.2256  0.7025
  704MOL0     H94987   4.149   4.508   5.839  0.8861  1.1486  0.4900
  704MOL0     H94988   4.155   4.455   6.007  2.8448 -3.3036  0.2976
  704MOL0     H94989   4.345   4.334   5.978  1.3045  1.2330 -0.0928
  704MOL0     H94990   4.207   4.289   5.870  0.6942 -0.9239  1.3142
  704MOL0     H94991   4.248   4.339   5.593  0.9464  3.1702  0.4438
  704MOL0     H94992   4.615   4.308   5.446  0.1420  0.1431  0.9249
  704MOL0     H94993   4.490   4.179   5.413 -0.8450  0.5632 -1.4691
  704MOL0     H94994   4.438   4.344   5.250 -1.1778  4.8715 -1.8635
  704MOL0     H94995   4.314   4.339   5.379 -0.3862  2.0797 -2.4331
  704MOL0     H94996   4.385   4.552   5.456  0.1444 -2.1905  1.0657
  704MOL0     H94997   4.347   4.545   5.287 -0.4754 -1.5796  0.0077
  704MOL0     H94998   4.549   4.659   5.253 -1.5355  0.8485  1.2975
  704MOL0     H94999   4.570   4.492   5.232 -0.4689  0.3250  0.2651
  704MOL0     H95000   4.750   4.522   5.639  1.8972  0.0751 -0.5507
  704MOL0     H95001   4.730   4.651   5.838 -1.1065  0.9943  1.7488
  704MOL0     H95002   4.323   5.135   5.863  0.4914  2.2961 -1.6023
  704MOL0     H95003   4.230   5.265   6.080 -0.0890  1.1983 -1.6699
  704MOL0     H95004   4.452   5.201   6.418 -1.4732 -0.6531 -0.6879
  704MOL0     H95005   4.551   5.348   6.400  0.4407 -0.3477  2.7273
  704MOL0     H95006   4.427   5.412   6.572  0.3842 -1.8004  0.2095
  704MOL0     H95007   4.317   5.460   6.444 -1.3910 -2.2349 -0.6951
  704MOL0     H95008   4.170   5.258   6.469  0.8737 -0.9104 -1.6473
  704MOL0     H95009   4.289   5.187   6.583  1.9354  1.1500  2.0141
  704MOL0     H95010   4.181   5.469   6.627  1.3047 -0.1263  0.1834
  704MOL0     H95011   4.221   5.364   6.755  0.4823  0.9967  0.4519
  704MOL0     H95012   4.023   5.218   6.652 -2.8525  0.6994  0.4874
  704MOL0     H95013   3.967   5.366   6.577  0.1145  0.6682 -1.1523
  704MOL0     H95014   4.036   5.322   6.867  2.1835  3.7763  0.6791
  704MOL0     H95015   3.946   5.459   6.814  2.0915 -0.9079  3.8530
  704MOL0     H95016   3.796   5.337   6.939  1.2367 -1.0343  0.2210
  704MOL0     H95017   3.804   5.204   6.829  1.2552 -1.4316 -2.6298
  704MOL0     H95018   3.626   5.426   6.798  1.5802  2.1502  1.5977
  704MOL0     H95019   3.759   5.468   6.696  1.2169 -2.0302 -1.5612
  704MOL0     H95020   4.633   5.237   6.228 -1.7598  1.9069  0.2887
  704MOL0     H95021   4.700   5.085   6.053  0.0029  0.1279 -2.4808
  704MOL0     H95022   4.487   4.941   5.624 -0.8285 -1.0914  3.4396
  704MOL0     H95023   4.509   4.794   5.411  0.8949  1.8181  0.5968
  704MOL0     H95024   4.090   4.901   5.279  0.8916  1.2448 -0.8414
  704MOL0     H95025   3.889   4.802   5.150 -2.2018  0.9355  0.9888
  704MOL0     H95026   3.577   4.407   5.278  0.4614  0.1952  0.2307
  704MOL0     H95027   3.386   4.295   5.167  2.5565 -1.2863 -1.9751
  704MOL0     H95028   2.987   4.458   5.038  0.8806 -0.2487  0.7843
  704MOL0     H95029   3.059   4.525   5.180 -1.3857  1.8978 -2.4294
  704MOL0     H95030   3.026   4.226   5.132 -1.5504 -0.5823 -0.4101
  704MOL0     H95031   2.901   4.304   5.227 -0.0533  1.6809  0.7771
  704MOL0     H95032   3.053   4.374   5.388 -0.1841  1.4076 -1.7794
  704MOL0     H95033   3.190   4.308   5.324 -0.1756  2.6851 -0.5063
  704MOL0     H95034   3.080   4.185   5.504  0.2960  2.1819 -0.0503
  704MOL0     H95035   2.927   4.165   5.428  0.0996  1.8394  2.6515
  704MOL0     H95036   3.182   3.856   5.283  2.1274  1.8536 -1.6869
  704MOL0     H95037   3.238   4.668   5.030  0.1971  2.2562  2.6853
  704MOL0     H95038   3.483   4.871   5.058 -0.3851 -0.9366 -0.4639
  704MOL0     H95039   3.316   4.880   5.107  0.8097  2.0726  1.5780
  704MOL0     H95040   3.438   4.883   5.224 -3.6380  0.9344  0.4556
  705MOL0     O95041   2.622   7.209   7.731 -0.5706 -0.5749 -0.6499
  705MOL0     C95042   2.721   7.266   7.684  0.1407 -0.7265  0.9859
  705MOL0     O95043   2.739   7.288   7.550 -0.2683  0.1059  0.4013
  705MOL0     C95044   2.634   7.263   7.462 -1.3420  0.2575  0.3218
  705MOL0     C95045   2.587   7.138   7.430  0.4723 -0.6426 -0.2064
  705MOL0     C95046   2.482   7.132   7.346  0.5754 -0.0906 -0.6070
  705MOL0     C95047   2.416   7.242   7.295  0.7651 -0.1750  0.1318
  705MOL0     O95048   2.291   7.201   7.234 -0.2834  0.3493 -0.3048
  705MOL0     C95049   2.214   7.299   7.156  0.3082  0.2246  0.3252
  705MOL0     C95050   2.113   7.218   7.082 -0.6138  0.1307 -0.1632
  705MOL0     C95051   2.056   7.306   6.961  0.4294 -0.2469 -0.8313
  705MOL0     C95052   1.987   7.218   6.862  0.6359  0.8444  0.2086
  705MOL0     C95053   1.925   7.292   6.737  0.1064 -0.5168 -0.7658
  705MOL0     C95054   1.847   7.199   6.644  0.6264  0.8852 -0.8021
  705MOL0     C95055   1.825   7.267   6.507  0.1208  0.7818 -0.0837
  705MOL0     C95056   1.716   7.203   6.419 -0.5777 -0.0910  0.4083
  705MOL0     N95057   1.583   7.230   6.471  0.4222  0.2094  1.1708
  705MOL0     C95058   1.499   7.336   6.444 -0.3965 -0.0369 -0.0712
  705MOL0     C95059   1.390   7.317   6.519  0.4907 -0.4031  0.1237
  705MOL0     C95060   1.286   7.420   6.542  0.5640  0.8770  0.0050
  705MOL0     C95061   1.328   7.556   6.581 -0.2307 -0.5613  0.5026
  705MOL0     C95062   1.295   7.585   6.730 -0.4830  0.5588  1.3451
  705MOL0     C95063   1.351   7.722   6.766  0.3984 -0.1441 -0.2003
  705MOL0     O95064   1.331   7.748   6.907 -0.1870 -0.5607 -0.5185
  705MOL0     C95065   1.430   7.706   7.001  0.1910  0.5386 -0.7118
  705MOL0     C95066   1.540   7.627   6.968 -0.6662 -0.6709  0.4665
  705MOL0     C95067   1.613   7.567   7.068 -0.7787  0.0226 -0.1890
  705MOL0     C95068   1.585   7.597   7.205  0.1970 -0.9629  0.3165
  705MOL0     C95069   1.677   7.538   7.308 -0.7202  0.4459 -0.0274
  705MOL0     O95070   1.805   7.507   7.268 -0.3028  0.0609  0.1810
  705MOL0     C95071   1.877   7.452   7.371  0.2704  0.2750  0.0335
  705MOL0     C95072   1.918   7.314   7.382  1.0106 -0.4417  0.0991
  705MOL0     C95073   1.994   7.269   7.485 -0.2115 -1.1593  0.2106
  705MOL0     C95074   2.022   7.357   7.593 -0.1450 -0.5479 -0.3393
  705MOL0     O95075   2.105   7.312   7.694 -0.4261  0.6181  0.2192
  705MOL0     C95076   2.074   7.187   7.749  0.3056 -0.8002 -0.1786
  705MOL0     C95077   2.147   7.181   7.887  0.1409 -1.1747  0.4522
  705MOL0     C95078   2.250   7.066   7.888  0.4641  0.0663  0.4767
  705MOL0     C95079   2.323   7.031   8.015 -0.6301 -1.1173 -0.0798
  705MOL0     C95080   2.389   6.886   8.010  0.4030 -0.8513 -0.6300
  705MOL0     C95081   2.479   6.874   8.140  0.2146 -0.4761 -0.8797
  705MOL0     C95082   2.578   6.747   8.147  0.5605  0.5992 -0.3685
  705MOL0     C95083   2.698   6.744   8.046  0.0182 -0.7288 -0.0480
  705MOL0    Cl95084   2.780   6.593   8.075 -0.0517  0.4871  0.1265
  705MOL0     C95085   1.979   7.494   7.593  0.0611  0.2055  0.8467
  705MOL0     C95086   1.920   7.541   7.479  0.8712 -0.9744  0.0433
  705MOL0     O95087   1.629   7.505   7.416  0.2840  0.5002  0.2390
  705MOL0     C95088   1.487   7.689   7.234  0.9143  0.2053 -0.5152
  705MOL0     C95089   1.399   7.735   7.139 -0.4341  0.7274  0.8248
  705MOL0     N95090   1.414   7.200   6.591  0.7549 -0.3952 -0.8679
  705MOL0     N95091   1.524   7.148   6.556  0.2005 -0.2171  0.4101
  705MOL0     C95092   2.461   7.369   7.326  0.0646 -0.6644 -0.4771
  705MOL0     C95093   2.575   7.380   7.405  0.1177  0.4800 -0.0379
  705MOL0     C95094   2.819   7.317   7.781 -0.6688 -0.9504 -0.3131
  705MOL0     C95095   2.917   7.414   7.750  0.3105  0.0483 -0.1352
  705MOL0     C95096   3.021   7.455   7.840  0.0231 -0.0995 -0.2292
  705MOL0     C95097   3.021   7.410   7.972 -0.3421 -0.3719  0.2908
  705MOL0     O95098   3.130   7.403   8.056  0.5700 -0.5507  0.4537
  705MOL0     C95099   3.220   7.515   8.071  1.1762  0.1279  0.3776
  705MOL0     C95100   3.320   7.475   8.177 -0.1085 -0.2748  0.1565
  705MOL0     C95101   3.412   7.603   8.201  0.2123 -0.0460  1.2434
  705MOL0     C95102   3.512   7.564   8.311 -0.3980  0.1388  0.4142
  705MOL0     C95103   3.603   7.455   8.277 -0.2856  0.4066 -0.8089
  705MOL0     C95104   3.677   7.371   8.230 -0.9953  1.3332  0.8179
  705MOL0     C95105   2.913   7.327   8.005  0.2751 -0.4939  0.2203
  705MOL0     C95106   2.817   7.275   7.918  0.0453 -0.0559 -0.2803
  705MOL0     C95107   2.732   7.165   7.984  0.0522 -0.1451  0.4508
  705MOL0     H95108   2.623   7.049   7.479  0.5136 -0.8162 -0.5461
  705MOL0     H95109   2.439   7.035   7.323 -2.6972  0.6235  1.8092
  705MOL0     H95110   2.157   7.373   7.212 -3.2407 -0.6845 -1.7250
  705MOL0     H95111   2.295   7.341   7.096  0.9060 -0.5205  0.5948
  705MOL0     H95112   2.030   7.189   7.148 -0.4274 -0.6565 -0.2650
  705MOL0     H95113   2.167   7.128   7.052  0.2914  0.3246  0.8354
  705MOL0     H95114   2.128   7.370   6.909 -0.4815 -1.0399 -3.1934
  705MOL0     H95115   1.984   7.376   7.004 -0.2196 -0.3363 -1.7389
  705MOL0     H95116   2.050   7.132   6.836 -0.6773 -1.0868  2.9918
  705MOL0     H95117   1.904   7.168   6.913  2.2376  0.5105  2.6692
  705MOL0     H95118   1.860   7.375   6.769  1.1437 -0.7537  2.3658
  705MOL0     H95119   2.009   7.347   6.694 -0.2443  2.1593  1.6716
  705MOL0     H95120   1.906   7.109   6.625  2.7738  2.7459 -3.8494
  705MOL0     H95121   1.753   7.157   6.681  1.5876 -0.6816 -0.0077
  705MOL0     H95122   1.926   7.269   6.466  0.3120  0.0025  0.3316
  705MOL0     H95123   1.781   7.365   6.526 -2.3220 -0.5134  1.4552
  705MOL0     H95124   1.728   7.230   6.314 -0.8842 -1.1930  0.0783
  705MOL0     H95125   1.747   7.098   6.419  2.3402  0.6145  3.0959
  705MOL0     H95126   1.520   7.427   6.389 -1.2356  1.2102  1.5669
  705MOL0     H95127   1.235   7.425   6.445  1.6494  1.1952 -0.5572
  705MOL0     H95128   1.225   7.375   6.620  2.8077 -0.9080  0.8387
  705MOL0     H95129   1.434   7.574   6.565 -0.0570 -3.7003 -3.0536
  705MOL0     H95130   1.256   7.615   6.523 -3.9630 -2.8256  2.4351
  705MOL0     H95131   1.343   7.504   6.786  1.9630 -0.5316 -2.0027
  705MOL0     H95132   1.189   7.584   6.759 -0.4387  1.0924  1.5344
  705MOL0     H95133   1.300   7.805   6.715 -1.1029 -0.8691  0.0733
  705MOL0     H95134   1.457   7.736   6.745  0.5251  3.9583  2.1133
  705MOL0     H95135   1.564   7.607   6.865  0.4206  1.6956  0.1764
  705MOL0     H95136   1.699   7.506   7.045  1.9902  2.4481  2.7807
  705MOL0     H95137   1.874   7.252   7.306 -3.2021 -2.5399  3.8007
  705MOL0     H95138   2.036   7.170   7.496  1.6789 -0.1382  3.6776
  705MOL0     H95139   1.967   7.163   7.753 -0.2811  1.6634  0.9318
  705MOL0     H95140   2.125   7.117   7.682 -1.2525 -2.3699  0.2101
  705MOL0     H95141   2.213   7.266   7.908  1.5741 -2.5059  1.6299
  705MOL0     H95142   2.061   7.178   7.955 -2.1788  2.4571 -1.9443
  705MOL0     H95143   2.194   6.975   7.867 -2.1803  1.6555  0.2538
  705MOL0     H95144   2.327   7.079   7.811 -0.8242 -0.7718 -0.9932
  705MOL0     H95145   2.262   7.025   8.105  1.7841 -1.3020  1.6456
  705MOL0     H95146   2.396   7.111   8.032 -2.3478  0.8920 -1.4978
  705MOL0     H95147   2.457   6.862   7.928 -0.4701 -3.4384 -0.7001
  705MOL0     H95148   2.313   6.807   8.006 -1.2606  0.5494  1.0228
  705MOL0     H95149   2.547   6.960   8.132 -0.8093  0.2757 -1.9552
  705MOL0     H95150   2.417   6.879   8.230  1.2107 -1.3750 -0.1160
  705MOL0     H95151   2.514   6.659   8.145 -0.0072  0.7524  3.5107
  705MOL0     H95152   2.629   6.748   8.243  1.3250  1.7743 -0.7607
  705MOL0     H95153   2.675   6.752   7.940  0.6574 -0.8786 -0.2014
  705MOL0     H95154   2.765   6.827   8.070  2.4154 -2.5716  0.0397
  705MOL0     H95155   1.984   7.574   7.666 -1.2602  1.1246 -0.0136
  705MOL0     H95156   1.871   7.638   7.471 -1.3231 -2.0144  0.1574
  705MOL0     H95157   1.472   7.711   7.339  1.8745  2.0165 -0.7169
  705MOL0     H95158   1.313   7.794   7.171 -0.3601  1.4568 -0.2536
  705MOL0     H95159   2.403   7.459   7.312 -1.9457 -1.2615  2.8375
  705MOL0     H95160   2.609   7.477   7.441  0.3096  1.2203 -2.0594
  705MOL0     H95161   2.928   7.439   7.645  0.1550 -0.5351 -0.2953
  705MOL0     H95162   3.111   7.503   7.801  2.4492 -3.5891  0.5357
  705MOL0     H95163   3.160   7.600   8.105 -0.6642 -0.6737 -0.7619
  705MOL0     H95164   3.254   7.555   7.975 -1.2854  0.8581 -0.2460
  705MOL0     H95165   3.382   7.398   8.130  2.9614  2.9322 -1.4797
  705MOL0     H95166   3.264   7.443   8.266  1.3104  0.3379  1.3093
  705MOL0     H95167   3.354   7.689   8.239  2.6485  2.9606 -1.2856
  705MOL0     H95168   3.465   7.641   8.113 -2.4253  1.0632 -0.0016
  705MOL0     H95169   3.581   7.648   8.324 -0.5976  0.0928  1.8682
  705MOL0     H95170   3.459   7.551   8.405 -1.5610  2.6193  0.1899
  705MOL0     H95171   3.735   7.290   8.191 -1.2857  2.1428 -1.4157
  705MOL0     H95172   2.931   7.287   8.104  0.7739 -1.2470 -0.1646
  705MOL0     H95173   2.680   7.097   7.914  0.7517  1.0014 -1.2442
  705MOL0     H95174   2.797   7.095   8.037  1.9070  0.8379 -0.4476
  705MOL0     H95175   2.656   7.207   8.051  2.1057 -0.8026  3.3680
  706MOL0     O95176   1.005   0.026   9.017 -0.9281  0.2925  0.0552
  706MOL0     C95177   1.095   0.096   9.073  0.8590 -0.8316  1.1308
  706MOL0     O95178   1.137   0.223   9.028  0.0274 -0.3010 -0.0423
  706MOL0     C95179   1.051   0.275   8.938 -0.4339 -0.2232  0.8536
  706MOL0     C95180   1.102   0.285   8.802 -0.4863  0.5018  0.0250
  706MOL0     C95181   1.016   0.334   8.696 -0.1735 -1.6870 -0.0674
  706MOL0     C95182   0.883   0.380   8.716  0.1028  0.7861  0.1421
  706MOL0     O95183   0.799   0.442   8.626 -0.0273  0.2223  0.3485
  706MOL0     C95184   0.836   0.443   8.488  0.2598  0.5728  0.0738
  706MOL0     C95185   0.917   0.571   8.467 -0.4161 -0.2110  0.5663
  706MOL0     C95186   0.845   0.670   8.382 -0.0967 -0.4176  0.7035
  706MOL0     C95187   0.940   0.802   8.378  1.0463 -0.6280  0.5643
  706MOL0     C95188   0.926   0.897   8.259 -0.0711  0.8385  0.3294
  706MOL0     C95189   0.798   0.970   8.257 -0.0464  0.5029  0.4921
  706MOL0     C95190   0.797   1.090   8.169  0.1305 -1.3144  0.3220
  706MOL0     C95191   0.750   1.033   8.036 -0.3284 -0.0135  0.0954
  706MOL0     N95192   0.781   1.137   7.935 -1.2028 -0.0882 -0.6648
  706MOL0     C95193   0.700   1.239   7.889 -0.2461  0.5252 -0.8491
  706MOL0     C95194   0.780   1.322   7.810 -0.4039  0.2182 -0.0279
  706MOL0     C95195   0.731   1.440   7.742 -0.1620 -0.3142  0.3698
  706MOL0     C95196   0.823   1.566   7.774  0.6105 -0.5764  0.1704
  706MOL0     C95197   0.903   1.619   7.656  0.0961 -0.1601 -0.9602
  706MOL0     C95198   1.029   1.524   7.635 -0.1458  0.9785 -0.2454
  706MOL0     O95199   1.127   1.581   7.549  0.0915  0.1423  0.3363
  706MOL0     C95200   1.240   1.628   7.609 -0.0246 -0.0412  0.9645
  706MOL0     C95201   1.367   1.568   7.556  0.6541 -0.3308  0.4777
  706MOL0     C95202   1.483   1.635   7.587  0.9163 -0.3775  0.2408
  706MOL0     C95203   1.483   1.746   7.680  0.1937 -0.8851 -0.4776
  706MOL0     C95204   1.602   1.811   7.730  0.0652  0.1380 -0.5083
  706MOL0     O95205   1.723   1.753   7.681 -0.4876  0.0921 -0.6732
  706MOL0     C95206   1.830   1.838   7.701 -0.1441  0.1647  0.2507
  706MOL0     C95207   1.901   1.819   7.817 -0.8216  0.2185 -0.2689
  706MOL0     C95208   2.013   1.901   7.831  0.0493  0.0707 -0.0244
  706MOL0     C95209   2.070   1.972   7.730  0.6975  0.8272  0.4581
  706MOL0     O95210   2.188   2.032   7.756  0.7022 -0.3135  0.2700
  706MOL0     C95211   2.259   2.085   7.653 -0.1919  0.6453  0.0001
  706MOL0     C95212   2.398   2.134   7.721  0.1026  1.0364 -0.5452
  706MOL0     C95213   2.385   2.232   7.833  0.3947 -0.4411  0.9483
  706MOL0     C95214   2.510   2.215   7.932  0.7596  0.3560  0.6128
  706MOL0     C95215   2.505   2.325   8.046  0.9230 -0.1018  0.2825
  706MOL0     C95216   2.611   2.300   8.149 -0.5914  0.3091  0.1784
  706MOL0     C95217   2.739   2.383   8.116  0.2869 -1.1584 -0.3337
  706MOL0     C95218   2.839   2.376   8.235  0.0320  0.3389 -0.0284
  706MOL0    Cl95219   2.857   2.201   8.280  0.1838 -0.1239  0.0530
  706MOL0     C95220   2.004   1.972   7.602 -0.0661  0.0117 -0.7120
  706MOL0     C95221   1.882   1.908   7.594  0.5509 -0.9738 -0.5491
  706MOL0     O95222   1.592   1.920   7.797 -0.7041  0.8863 -0.3187
  706MOL0     C95223   1.360   1.793   7.742 -0.1637  0.1459  0.3356
  706MOL0     C95224   1.241   1.742   7.703 -0.2171 -0.0918  0.3272
  706MOL0     N95225   0.904   1.269   7.832 -0.0475 -0.2871  0.1400
  706MOL0     N95226   0.913   1.174   7.915  0.9989  0.1133  0.6872
  706MOL0     C95227   0.837   0.374   8.855  0.5108 -0.2144  0.5165
  706MOL0     C95228   0.920   0.324   8.956 -1.0684 -0.8190  0.0413
  706MOL0     C95229   1.173   0.025   9.177  0.0444 -0.5163  0.4024
  706MOL0     C95230   1.110  -0.043   9.280 -0.2113  0.1812 -0.1051
  706MOL0     C95231   1.184  -0.128   9.359  0.2155 -0.6403 -0.1416
  706MOL0     C95232   1.323  -0.131   9.355  0.7573 -0.5996 -0.0892
  706MOL0     O95233   1.386  -0.210   9.443 -0.4332 -0.4546  0.4440
  706MOL0     C95234   1.355  -0.189   9.579 -0.0255 -0.2779 -0.1689
  706MOL0     C95235   1.470  -0.209   9.682  0.4838 -0.8810 -0.1597
  706MOL0     C95236   1.432  -0.178   9.833 -1.1475 -0.1254 -0.4532
  706MOL0     C95237   1.450  -0.031   9.868 -0.7512  0.2787 -0.3963
  706MOL0     C95238   1.595  -0.023   9.911  0.3946 -0.5892 -0.3440
  706MOL0     C95239   1.713  -0.022   9.938 -0.3577 -0.0323 -0.2556
  706MOL0     C95240   1.391  -0.055   9.265 -0.3821 -0.3446  0.1437
  706MOL0     C95241   1.318   0.021   9.169  0.3090  0.8554 -1.2771
  706MOL0     C95242   1.398   0.069   9.049  0.2376 -0.3930  0.2660
  706MOL0     H95243   1.206   0.258   8.790 -0.6670 -0.9094  1.3031
  706MOL0     H95244   1.064   0.340   8.599  0.1400 -2.2439  0.0442
  706MOL0     H95245   0.886   0.353   8.452  0.2593  0.8326 -0.5839
  706MOL0     H95246   0.741   0.447   8.434 -0.6304 -1.7275  1.2719
  706MOL0     H95247   1.016   0.544   8.428 -0.8889 -1.3395  0.1100
  706MOL0     H95248   0.938   0.617   8.564 -1.2467  0.3303  0.5006
  706MOL0     H95249   0.742   0.684   8.417 -0.5587 -0.6753 -0.5131
  706MOL0     H95250   0.837   0.630   8.281 -0.0426  0.3434  0.3860
  706MOL0     H95251   0.930   0.863   8.469  1.5161 -2.3720  1.8571
  706MOL0     H95252   1.042   0.769   8.361  0.1198 -2.2900 -2.4775
  706MOL0     H95253   1.017   0.958   8.263  1.8418 -1.8654  0.6119
  706MOL0     H95254   0.931   0.831   8.171  0.2963  1.8388 -0.4225
  706MOL0     H95255   0.714   0.907   8.227  0.3142 -1.0877  2.5717
  706MOL0     H95256   0.784   1.011   8.357  0.1668  0.8153  0.3930
  706MOL0     H95257   0.885   1.154   8.170 -0.3076 -0.6995  1.1539
  706MOL0     H95258   0.723   1.163   8.202  0.3894 -1.1983  0.6471
  706MOL0     H95259   0.781   0.933   8.007 -2.2232 -0.4256 -0.6308
  706MOL0     H95260   0.642   1.026   8.049 -0.9625  0.5861 -3.7024
  706MOL0     H95261   0.592   1.241   7.891 -0.2913 -1.1800  1.1732
  706MOL0     H95262   0.747   1.415   7.637  5.1570  1.0852  0.5222
  706MOL0     H95263   0.636   1.483   7.775  1.5070  1.4731  3.2374
  706MOL0     H95264   0.757   1.645   7.812  0.0639 -1.6255  1.5098
  706MOL0     H95265   0.906   1.555   7.844  2.0867  0.1668 -1.4061
  706MOL0     H95266   0.946   1.717   7.674 -0.4036 -0.3687  1.9119
  706MOL0     H95267   0.830   1.615   7.575  0.8944 -2.3381 -1.6495
  706MOL0     H95268   0.993   1.425   7.604 -1.2383  1.4093 -0.4235
  706MOL0     H95269   1.078   1.489   7.726 -0.8172 -2.2134 -1.0039
  706MOL0     H95270   1.376   1.487   7.485 -1.5432 -1.7828  1.7276
  706MOL0     H95271   1.575   1.598   7.542  2.3604  3.0994 -0.0143
  706MOL0     H95272   1.861   1.750   7.891  2.2497  0.4228  1.8014
  706MOL0     H95273   2.066   1.906   7.926  2.3287 -1.5453 -1.1280
  706MOL0     H95274   2.273   2.007   7.578 -0.7413  1.0146 -0.4956
  706MOL0     H95275   2.210   2.165   7.596  0.6251 -0.4381 -2.3575
  706MOL0     H95276   2.438   2.046   7.771 -2.7153 -0.9781 -1.5829
  706MOL0     H95277   2.479   2.173   7.659  3.4227  2.3075  3.9850
  706MOL0     H95278   2.380   2.335   7.797  1.9063 -0.6742  0.0292
  706MOL0     H95279   2.297   2.204   7.892 -0.1092 -0.4785  0.1847
  706MOL0     H95280   2.604   2.223   7.878 -0.8374 -1.8386 -2.7814
  706MOL0     H95281   2.489   2.115   7.970  0.2045 -0.5446 -1.8941
  706MOL0     H95282   2.406   2.329   8.093  0.8249 -0.5393  0.1182
  706MOL0     H95283   2.529   2.424   8.006  0.0985 -0.8118 -2.1582
  706MOL0     H95284   2.573   2.337   8.244 -0.2649  2.0168 -0.3292
  706MOL0     H95285   2.637   2.193   8.150 -1.8628 -0.0452 -1.1929
  706MOL0     H95286   2.703   2.486   8.107 -0.6040 -1.2555  1.6463
  706MOL0     H95287   2.786   2.341   8.026  0.7745 -3.1946  0.8187
  706MOL0     H95288   2.939   2.419   8.228  0.3910  0.0285  2.3824
  706MOL0     H95289   2.798   2.433   8.318  2.9104  1.6493  0.6072
  706MOL0     H95290   2.037   2.030   7.516 -1.4706  0.3633 -1.0378
  706MOL0     H95291   1.819   1.902   7.506  0.7727 -2.5403 -0.6363
  706MOL0     H95292   1.354   1.884   7.801 -0.8113  3.0489 -3.7793
  706MOL0     H95293   1.164   1.804   7.746  0.8501  0.1573  1.9718
  706MOL0     H95294   0.742   0.421   8.878 -0.1880 -1.4430  0.2493
  706MOL0     H95295   0.885   0.304   9.057  1.7854 -2.4810  0.7966
  706MOL0     H95296   1.003  -0.030   9.293 -0.0329  3.3148 -1.1497
  706MOL0     H95297   1.122  -0.189   9.425  1.5782  1.8548  3.7598
  706MOL0     H95298   1.289  -0.268   9.617  1.9207 -0.5762  3.0006
  706MOL0     H95299   1.301  -0.096   9.602 -0.3123 -0.7954  1.3857
  706MOL0     H95300   1.547  -0.134   9.659  0.3475 -0.7825 -0.2929
  706MOL0     H95301   1.506  -0.311   9.669  1.0689 -0.4507 -2.3368
  706MOL0     H95302   1.490  -0.246   9.896  0.8788  1.3468 -0.6523
  706MOL0     H95303   1.324  -0.190   9.843 -1.1655  0.7576  0.7464
  706MOL0     H95304   1.455   0.041   9.786  0.7213  0.1219 -0.4683
  706MOL0     H95305   1.387  -0.004   9.953 -0.2661  0.4283 -0.0831
  706MOL0     H95306   1.806  -0.027   9.990 -1.1117 -3.1821  1.0214
  706MOL0     H95307   1.499  -0.062   9.261 -0.3085  0.6632  0.1234
  706MOL0     H95308   1.366   0.169   9.019 -2.6224 -0.1472  3.5228
  706MOL0     H95309   1.503   0.075   9.081  1.3209 -4.1578 -1.8594
  706MOL0     H95310   1.399  -0.006   8.969 -0.0556 -1.3187  1.1190
  707MOL0     O95311  10.456   2.438   6.025  0.1808 -0.1419  0.4986
  707MOL0     C95312  10.380   2.449   6.115  0.5961 -0.3631 -0.3549
  707MOL0     O95313  10.328   2.349   6.185  0.6458 -0.0725 -0.1957
  707MOL0     C95314  10.323   2.228   6.115  0.5992  0.1264 -0.0623
  707MOL0     C95315  10.420   2.130   6.128 -0.2353 -0.4716 -1.4976
  707MOL0     C95316  10.404   2.004   6.077  0.3348  0.5251  0.2093
  707MOL0     C95317  10.286   1.975   5.997 -0.1365 -0.9709  0.1935
  707MOL0     O95318  10.242   1.860   5.940  0.1198 -0.9092  0.4035
  707MOL0     C95319  10.319   1.736   5.943 -0.4554  0.5154 -0.7674
  707MOL0     C95320  10.235   1.641   5.856 -0.1887 -0.3079 -0.9415
  707MOL0     C95321  10.242   1.687   5.709  0.1517  0.0844  0.0113
  707MOL0     C95322  10.129   1.624   5.629  0.2558  0.2797  0.1029
  707MOL0     C95323  10.088   1.700   5.508 -0.2336 -0.5866 -0.9041
  707MOL0     C95324   9.997   1.610   5.430 -0.3816 -0.4001 -0.1117
  707MOL0     C95325   9.932   1.689   5.321 -0.1227 -0.6140 -0.2587
  707MOL0     C95326   9.825   1.598   5.249  0.1617  1.1258  0.2392
  707MOL0     N95327   9.805   1.630   5.116 -0.3412 -1.1071  0.2949
  707MOL0     C95328   9.697   1.702   5.059  0.4667 -0.6366 -0.4405
  707MOL0     C95329   9.721   1.718   4.927  0.5373 -0.1446  0.7819
  707MOL0     C95330   9.630   1.770   4.823  0.5916  0.1505  0.3612
  707MOL0     C95331   9.515   1.670   4.801 -0.5166  0.3097  0.0301
  707MOL0     C95332   9.385   1.708   4.858  0.3812 -0.1719 -0.3450
  707MOL0     C95333   9.283   1.607   4.836 -0.0799  1.3258 -0.4386
  707MOL0     O95334   9.267   1.580   4.696 -0.5785  0.0522  0.0323
  707MOL0     C95335   9.175   1.653   4.629 -1.1960 -0.1715  0.4951
  707MOL0     C95336   9.117   1.778   4.674  0.0848  0.3249 -0.0059
  707MOL0     C95337   9.015   1.840   4.598 -0.3862 -0.2961  0.9169
  707MOL0     C95338   8.971   1.785   4.482 -0.4353 -0.3806 -0.1492
  707MOL0     C95339   8.865   1.852   4.398 -0.8286 -0.0087  0.7713
  707MOL0     O95340   8.778   1.944   4.459  0.1044  0.3245 -0.0113
  707MOL0     C95341   8.666   1.985   4.391 -0.4183 -0.5376 -0.3195
  707MOL0     C95342   8.685   2.090   4.306  0.5399  1.0400  1.4142
  707MOL0     C95343   8.571   2.144   4.249  0.0927 -0.7348  0.2959
  707MOL0     C95344   8.438   2.104   4.277  0.4648  0.1008 -0.2205
  707MOL0     O95345   8.332   2.173   4.230  0.0408  0.0196  0.0973
  707MOL0     C95346   8.202   2.122   4.248 -0.2121  0.3185 -0.3238
  707MOL0     C95347   8.100   2.202   4.181 -1.0621  0.0983  0.9295
  707MOL0     C95348   7.956   2.182   4.247  0.8582 -0.7265 -0.7556
  707MOL0     C95349   7.852   2.234   4.150 -0.0163  0.2039 -0.1552
  707MOL0     C95350   7.709   2.210   4.215  0.5535  0.3750  0.2419
  707MOL0     C95351   7.593   2.256   4.128 -0.5912  0.3252  0.2537
  707MOL0     C95352   7.600   2.406   4.115  0.1018  0.0070  0.3398
  707MOL0     C95353   7.463   2.468   4.069 -0.2361 -0.4546  1.3069
  707MOL0    Cl95354   7.363   2.499   4.214 -0.0757  0.5097 -0.4003
  707MOL0     C95355   8.425   1.991   4.358 -0.4943 -0.5772 -0.7791
  707MOL0     C95356   8.542   1.939   4.422  0.3934 -0.5498  0.5014
  707MOL0     O95357   8.858   1.818   4.281  0.1267  0.5704 -0.3028
  707MOL0     C95358   9.024   1.660   4.435 -0.2895 -0.5996 -0.8697
  707MOL0     C95359   9.131   1.599   4.509 -0.2474  1.1741 -1.0967
  707MOL0     N95360   9.844   1.661   4.902 -0.3968 -0.2812  0.1717
  707MOL0     N95361   9.889   1.604   5.012  0.1626 -0.3932 -0.0060
  707MOL0     C95362  10.189   2.074   5.991  0.2886 -1.1869 -0.2739
  707MOL0     C95363  10.208   2.198   6.049  0.5100 -0.0111  0.6905
  707MOL0     C95364  10.335   2.583   6.154 -0.2426  0.1143 -1.1938
  707MOL0     C95365  10.367   2.618   6.284 -0.1708  0.3039  0.2311
  707MOL0     C95366  10.323   2.739   6.335 -0.7114 -0.0281 -0.1628
  707MOL0     C95367  10.252   2.831   6.254 -0.4375 -0.1424 -0.9099
  707MOL0     O95368  10.205   2.930   6.335  0.1063  0.3553  0.7575
  707MOL0     C95369  10.195   3.057   6.275 -0.1541 -0.9670 -0.2628
  707MOL0     C95370  10.328   3.112   6.235 -0.4523 -0.2593  0.6296
  707MOL0     C95371  10.328   3.256   6.171 -0.3247  0.4709  0.2143
  707MOL0     C95372  10.276   3.269   6.025  0.3922  0.3736  0.0879
  707MOL0     C95373  10.330   3.377   5.948 -0.1195 -0.0710 -0.0108
  707MOL0     C95374  10.383   3.474   5.892 -0.1759  0.4049  0.0857
  707MOL0     C95375  10.220   2.797   6.121  0.2836 -0.6293 -0.5314
  707MOL0     C95376  10.265   2.675   6.074 -0.1167 -1.1681  0.1181
  707MOL0     C95377  10.241   2.649   5.930  0.0309  0.4019  0.3472
  707MOL0     H95378  10.508   2.146   6.190 -3.1070 -1.2833  3.2935
  707MOL0     H95379  10.491   1.940   6.079  0.4235  0.5512 -1.2782
  707MOL0     H95380  10.414   1.737   5.890 -0.4697 -2.7141 -1.0485
  707MOL0     H95381  10.332   1.703   6.047  2.5866  2.3339 -0.4503
  707MOL0     H95382  10.134   1.633   5.896  0.8586  2.6467  2.8747
  707MOL0     H95383  10.293   1.550   5.877 -0.2089 -0.0164  0.5260
  707MOL0     H95384  10.342   1.668   5.670 -1.0794 -0.1735 -3.3551
  707MOL0     H95385  10.226   1.795   5.707  0.3783  0.2989  3.2736
  707MOL0     H95386  10.162   1.522   5.610 -0.2270 -0.2124  1.7460
  707MOL0     H95387  10.039   1.616   5.692 -0.0589 -1.1534 -0.4760
  707MOL0     H95388  10.030   1.787   5.538 -0.9006 -1.1105 -0.6375
  707MOL0     H95389  10.183   1.723   5.458  3.1417 -1.5248  4.2730
  707MOL0     H95390  10.058   1.531   5.385 -1.5769  0.4830 -3.5652
  707MOL0     H95391   9.919   1.568   5.494  0.0208 -3.5992 -1.4995
  707MOL0     H95392  10.015   1.707   5.253 -1.5036 -1.5189 -2.3191
  707MOL0     H95393   9.887   1.782   5.356 -0.1619 -0.4534 -0.7320
  707MOL0     H95394   9.862   1.495   5.258 -1.9197  0.3821  0.7508
  707MOL0     H95395   9.725   1.600   5.293  0.3311 -0.0731  0.7065
  707MOL0     H95396   9.595   1.722   5.090 -1.1349 -1.3508 -4.5393
  707MOL0     H95397   9.593   1.866   4.860 -0.1915  0.4111 -0.9947
  707MOL0     H95398   9.691   1.789   4.734 -1.9079  2.3430 -1.0300
  707MOL0     H95399   9.509   1.637   4.697 -0.9951  0.3669  0.0406
  707MOL0     H95400   9.550   1.576   4.846  0.5922  0.1390 -1.1204
  707MOL0     H95401   9.357   1.807   4.820  0.8242 -0.3613 -1.1895
  707MOL0     H95402   9.400   1.724   4.965  1.3367 -5.6970  0.6644
  707MOL0     H95403   9.187   1.630   4.883  0.1809 -2.8661  2.7493
  707MOL0     H95404   9.319   1.518   4.888  0.3344  1.4655 -0.4849
  707MOL0     H95405   9.147   1.829   4.765 -0.7788 -1.4752  1.3262
  707MOL0     H95406   8.968   1.929   4.639 -0.1201 -0.7958  2.3531
  707MOL0     H95407   8.783   2.135   4.291  0.8949  0.3587  1.6357
  707MOL0     H95408   8.562   2.234   4.190 -1.3258 -1.2003 -0.2416
  707MOL0     H95409   8.203   2.022   4.206  4.1738  0.5750 -1.2403
  707MOL0     H95410   8.173   2.121   4.354  1.5030 -1.0987  0.1859
  707MOL0     H95411   8.136   2.305   4.182  1.4539 -0.5291 -3.4513
  707MOL0     H95412   8.106   2.173   4.076 -0.7599 -0.3232  1.0580
  707MOL0     H95413   7.936   2.077   4.272  0.2438 -0.1268  1.5567
  707MOL0     H95414   7.945   2.239   4.340  1.5698 -2.8405  0.7302
  707MOL0     H95415   7.867   2.175   4.059 -1.4714 -1.5108  0.6488
  707MOL0     H95416   7.870   2.339   4.127  2.6066 -0.2941 -0.6899
  707MOL0     H95417   7.710   2.264   4.310 -1.3419 -1.0515  1.1328
  707MOL0     H95418   7.700   2.104   4.240  1.1511  0.5349  1.1744
  707MOL0     H95419   7.595   2.213   4.027 -0.3260 -0.8066  0.7215
  707MOL0     H95420   7.500   2.231   4.181 -0.0954  0.9137  1.4265
  707MOL0     H95421   7.679   2.444   4.051  0.1589  3.4910  2.2363
  707MOL0     H95422   7.626   2.447   4.213 -0.4736 -1.4556  1.1377
  707MOL0     H95423   7.483   2.562   4.017 -4.2811 -0.8101 -1.3274
  707MOL0     H95424   7.406   2.409   3.997 -0.5159  2.1335 -0.7228
  707MOL0     H95425   8.333   1.942   4.386 -0.1194 -0.5549  0.5916
  707MOL0     H95426   8.539   1.848   4.482  0.8408 -0.5844  0.4758
  707MOL0     H95427   8.977   1.605   4.354 -0.9353 -0.5095 -0.5649
  707MOL0     H95428   9.165   1.509   4.459 -0.8472  1.0420 -1.2774
  707MOL0     H95429  10.093   2.055   5.943 -1.0833  0.1237  1.7422
  707MOL0     H95430  10.125   2.267   6.038 -1.6791 -2.7291 -1.5954
  707MOL0     H95431  10.428   2.558   6.352 -3.7735 -2.4556  1.3509
  707MOL0     H95432  10.346   2.767   6.437  4.0661 -0.5142 -0.8802
  707MOL0     H95433  10.152   3.120   6.354  1.8720 -4.2783  3.9080
  707MOL0     H95434  10.126   3.038   6.193 -2.9632 -1.5583  2.0505
  707MOL0     H95435  10.365   3.047   6.155  0.2284  3.6641 -2.6072
  707MOL0     H95436  10.385   3.117   6.327 -1.1103  2.2248  0.9985
  707MOL0     H95437  10.434   3.284   6.165  0.0571 -0.7908  0.7289
  707MOL0     H95438  10.293   3.323   6.249  1.4786  1.1659  0.4916
  707MOL0     H95439  10.293   3.175   5.971  0.2666  0.2255  0.3073
  707MOL0     H95440  10.169   3.280   6.044  1.3061  3.0963  5.7299
  707MOL0     H95441  10.431   3.563   5.857  2.1112  0.4292  2.9311
  707MOL0     H95442  10.173   2.868   6.054 -0.6232 -2.3433 -1.7873
  707MOL0     H95443  10.273   2.732   5.867 -2.8174  1.3116 -0.0511
  707MOL0     H95444  10.296   2.558   5.906  0.8051  0.6632  1.0951
  707MOL0     H95445  10.134   2.635   5.911  0.3813  0.3001 -1.8574
  708MOL0     O95446   9.791   8.189  11.327 -0.0529  0.2616 -0.9667
  708MOL0     C95447   9.692   8.245  11.369 -0.1732  1.1964 -0.5399
  708MOL0     O95448   9.579   8.179  11.414 -0.7051 -0.1141  0.9327
  708MOL0     C95449   9.587   8.040  11.398  0.2495  0.1358  0.3160
  708MOL0     C95450   9.546   7.971  11.284 -0.5957  0.9439  0.3760
  708MOL0     C95451   9.547   7.830  11.275 -0.2715 -0.3979  0.3300
  708MOL0     C95452   9.592   7.748  11.374  0.2698  0.6125  0.3395
  708MOL0     O95453   9.622   7.618  11.359 -0.1031  0.3023 -0.3231
  708MOL0     C95454   9.760   7.578  11.382  0.4117  0.9045  0.8101
  708MOL0     C95455   9.790   7.471  11.278 -0.1372 -0.4417 -0.4970
  708MOL0     C95456   9.816   7.535  11.142  0.1655 -0.4251  0.2986
  708MOL0     C95457   9.861   7.421  11.044  0.0894 -0.0570 -0.0156
  708MOL0     C95458   9.922   7.461  10.910  0.4887  0.1300 -0.6045
  708MOL0     C95459   9.842   7.557  10.831 -0.3231  0.2817 -0.1881
  708MOL0     C95460   9.694   7.534  10.812 -0.0440 -0.6431  0.9461
  708MOL0     C95461   9.667   7.408  10.720 -0.0046  0.8613 -0.0237
  708MOL0     N95462   9.525   7.394  10.689 -0.5697  0.2924  0.1152
  708MOL0     C95463   9.462   7.454  10.587 -0.1120  0.8554 -0.3467
  708MOL0     C95464   9.326   7.436  10.617  0.4816  0.2381 -0.4208
  708MOL0     C95465   9.210   7.462  10.530 -0.5668 -0.3558 -1.0153
  708MOL0     C95466   9.148   7.603  10.558 -0.3606  0.4936  0.1068
  708MOL0     C95467   9.247   7.722  10.531 -0.8986  0.1148 -0.6397
  708MOL0     C95468   9.299   7.785  10.664  0.0598 -0.1007  0.2487
  708MOL0     O95469   9.411   7.868  10.654 -0.3454 -0.3876  0.7442
  708MOL0     C95470   9.404   7.988  10.583 -0.5171 -0.3630 -0.3994
  708MOL0     C95471   9.296   8.056  10.540 -0.2970  0.0881  0.6050
  708MOL0     C95472   9.313   8.193  10.490  1.3487  0.6755  0.8000
  708MOL0     C95473   9.431   8.240  10.446 -0.0230 -0.1923 -1.7169
  708MOL0     C95474   9.449   8.372  10.385 -0.0136  0.2520  0.5935
  708MOL0     O95475   9.350   8.470  10.412 -0.9713 -0.6629  1.2286
  708MOL0     C95476   9.375   8.594  10.364  0.2428 -0.0063  1.3650
  708MOL0     C95477   9.378   8.712  10.435 -0.5616 -0.2156 -0.0277
  708MOL0     C95478   9.383   8.833  10.376  0.7839 -0.2207 -0.6912
  708MOL0     C95479   9.390   8.842  10.239 -0.2020 -0.1648 -0.4214
  708MOL0     O95480   9.401   8.964  10.174  0.7942  0.4498 -0.8775
  708MOL0     C95481   9.541   8.969  10.128  0.9120  0.0316  0.8416
  708MOL0     C95482   9.555   9.111  10.063  0.4340 -0.4000 -0.3976
  708MOL0     C95483   9.462   9.142   9.943  0.0288  0.2395 -0.5663
  708MOL0     C95484   9.466   9.290   9.920  0.3887  0.5161 -0.3685
  708MOL0     C95485   9.397   9.310   9.782  0.4207  0.1250  0.9633
  708MOL0     C95486   9.379   9.462   9.733 -0.1126  0.0592 -0.4648
  708MOL0     C95487   9.339   9.490   9.590  0.5974 -0.4116  0.2493
  708MOL0     C95488   9.434   9.427   9.488  1.2849  0.2534  0.3590
  708MOL0    Cl95489   9.361   9.461   9.328  0.3893  0.1487  0.2770
  708MOL0     C95490   9.384   8.735  10.160  0.2531  0.5928  0.2708
  708MOL0     C95491   9.360   8.610  10.225  0.5786  0.8958 -0.4041
  708MOL0     O95492   9.552   8.384  10.321 -0.1423  0.5437  0.0679
  708MOL0     C95493   9.544   8.159  10.479 -0.3798 -1.0727  0.1030
  708MOL0     C95494   9.523   8.044  10.557 -0.1568 -0.5166 -0.2545
  708MOL0     N95495   9.314   7.362  10.731 -0.1796 -0.2575  0.3059
  708MOL0     N95496   9.433   7.324  10.765 -0.7977  0.0264  0.7238
  708MOL0     C95497   9.633   7.814  11.487 -0.6863  1.0271 -0.2546
  708MOL0     C95498   9.633   7.957  11.497 -0.7667 -0.3950 -0.1737
  708MOL0     C95499   9.692   8.398  11.370  0.0403  0.9374 -0.5670
  708MOL0     C95500   9.569   8.453  11.401  0.4638  0.4499  0.3097
  708MOL0     C95501   9.542   8.588  11.388 -0.1092  0.2329 -0.3497
  708MOL0     C95502   9.649   8.667  11.356 -0.8668  0.4760 -0.4628
  708MOL0     O95503   9.629   8.806  11.348  0.2259 -0.1710 -0.2032
  708MOL0     C95504   9.514   8.865  11.402 -0.0165  0.6968 -0.1376
  708MOL0     C95505   9.553   9.008  11.435 -0.2512  0.4632  0.1060
  708MOL0     C95506   9.608   9.077  11.308  0.8595  0.3781 -0.1973
  708MOL0     C95507   9.546   9.208  11.276  0.5411  0.2782  0.0352
  708MOL0     C95508   9.624   9.299  11.194  0.1804  1.3521  0.0469
  708MOL0     C95509   9.693   9.376  11.134 -0.8592 -0.5599  0.3383
  708MOL0     C95510   9.779   8.623  11.334 -0.1523 -0.0839 -0.3050
  708MOL0     C95511   9.799   8.480  11.329 -0.4833  0.3917  1.3447
  708MOL0     C95512   9.932   8.430  11.285 -0.4502 -0.1491 -0.0236
  708MOL0     H95513   9.512   8.025  11.197 -2.3363 -1.2326 -0.3936
  708MOL0     H95514   9.518   7.789  11.179  4.9057 -1.9258 -0.8906
  708MOL0     H95515   9.835   7.656  11.370  2.1200 -0.4171  2.2748
  708MOL0     H95516   9.772   7.528  11.479  1.0886 -1.4529 -0.3910
  708MOL0     H95517   9.704   7.405  11.263 -2.5408  2.6349 -1.2151
  708MOL0     H95518   9.872   7.410  11.317  0.4852  1.0807  0.6893
  708MOL0     H95519   9.891   7.615  11.141  0.1541 -0.3592 -2.3981
  708MOL0     H95520   9.725   7.586  11.112  0.2764 -0.6348 -0.4224
  708MOL0     H95521   9.925   7.351  11.099 -0.4756  0.0126  0.7494
  708MOL0     H95522   9.771   7.366  11.016 -0.8032  2.1467 -1.7303
  708MOL0     H95523  10.021   7.506  10.921  0.1257  0.2724  4.3571
  708MOL0     H95524   9.921   7.368  10.852 -3.9939  0.8720 -2.1626
  708MOL0     H95525   9.839   7.654  10.881  0.3368  0.9519 -1.3929
  708MOL0     H95526   9.886   7.582  10.734  1.7963  2.4567  1.2260
  708MOL0     H95527   9.650   7.626  10.772  0.9789 -0.1196  0.9978
  708MOL0     H95528   9.640   7.512  10.904  1.2641 -2.9454  1.2348
  708MOL0     H95529   9.731   7.443  10.638  0.2887  1.4910  0.4609
  708MOL0     H95530   9.707   7.321  10.774  1.9164  1.1954 -0.8268
  708MOL0     H95531   9.514   7.511  10.511  0.4124 -0.1574 -0.7743
  708MOL0     H95532   9.250   7.439  10.430  1.6376  0.3572 -0.3533
  708MOL0     H95533   9.125   7.396  10.550 -0.9982  1.0532  2.5551
  708MOL0     H95534   9.064   7.615  10.489 -2.1296  0.8552  2.2193
  708MOL0     H95535   9.100   7.615  10.655 -1.7452 -4.1845  0.2684
  708MOL0     H95536   9.187   7.798  10.480 -2.6747 -0.5435  0.3878
  708MOL0     H95537   9.332   7.693  10.469  0.1604 -2.0349  1.6572
  708MOL0     H95538   9.329   7.695  10.718 -3.9352 -1.7550  0.0688
  708MOL0     H95539   9.217   7.825  10.725  2.6778  0.6577  3.5127
  708MOL0     H95540   9.201   8.019  10.577 -1.5542  1.4770 -1.0951
  708MOL0     H95541   9.231   8.258  10.463  2.0887  0.4234 -2.5544
  708MOL0     H95542   9.378   8.710  10.544  0.7558 -0.7103 -0.0192
  708MOL0     H95543   9.382   8.923  10.436 -0.1597 -2.0927  2.3124
  708MOL0     H95544   9.611   8.973  10.212  2.2047 -3.9059  0.1827
  708MOL0     H95545   9.568   8.887  10.060 -1.2971  1.5027 -2.0797
  708MOL0     H95546   9.530   9.180  10.145  1.4916 -0.0061 -0.3864
  708MOL0     H95547   9.660   9.123  10.034  1.0833 -1.6237  1.2791
  708MOL0     H95548   9.505   9.082   9.863  0.4345  1.7013 -1.4764
  708MOL0     H95549   9.361   9.110   9.972  0.7475 -1.2577  0.3454
  708MOL0     H95550   9.568   9.330   9.909  2.1484 -2.1762  3.7681
  708MOL0     H95551   9.431   9.346  10.007  2.1286 -0.1341  0.8182
  708MOL0     H95552   9.299   9.264   9.799  1.2581 -1.3936  1.9740
  708MOL0     H95553   9.441   9.257   9.697 -1.2253 -0.5000  0.4764
  708MOL0     H95554   9.311   9.512   9.802  1.3360 -0.2165  1.2089
  708MOL0     H95555   9.477   9.506   9.749  0.8651 -2.2081  0.2059
  708MOL0     H95556   9.358   9.596   9.573 -0.5627 -0.2128  0.0933
  708MOL0     H95557   9.234   9.460   9.582  0.0210  1.6735 -0.6251
  708MOL0     H95558   9.533   9.472   9.492  0.9067  1.1653 -0.1890
  708MOL0     H95559   9.436   9.320   9.512 -3.0629  0.2880  1.8569
  708MOL0     H95560   9.395   8.747  10.053  2.6829 -4.1777 -0.2668
  708MOL0     H95561   9.335   8.526  10.161 -1.5095  1.5364 -0.5253
  708MOL0     H95562   9.645   8.188  10.450 -0.2669  1.8287  2.7914
  708MOL0     H95563   9.616   7.993  10.584  0.3352  0.9102  0.9002
  708MOL0     H95564   9.662   7.758  11.576 -0.8649 -1.7482 -1.8195
  708MOL0     H95565   9.639   8.004  11.595  0.6018 -2.7465  0.9500
  708MOL0     H95566   9.485   8.386  11.417  3.4676 -3.1090  2.7744
  708MOL0     H95567   9.439   8.613  11.407 -0.0134  0.1305  0.3250
  708MOL0     H95568   9.489   8.807  11.491 -2.1340 -2.1892 -2.4539
  708MOL0     H95569   9.445   8.854  11.318 -0.0247 -2.6190  0.1773
  708MOL0     H95570   9.629   9.015  11.514 -0.6808 -0.4289  0.6126
  708MOL0     H95571   9.467   9.058  11.482  0.2602  2.2817 -0.7729
  708MOL0     H95572   9.588   9.010  11.224 -2.0379  2.9475 -1.7269
  708MOL0     H95573   9.717   9.091  11.310  0.9022  0.0321  0.1237
  708MOL0     H95574   9.461   9.175  11.216  0.2176 -0.8014  1.0560
  708MOL0     H95575   9.521   9.262  11.368  0.0593  0.2023 -0.0484
  708MOL0     H95576   9.772   9.438  11.096 -1.4173  0.8676  1.4279
  708MOL0     H95577   9.860   8.690  11.305  0.3309 -1.5371 -2.4991
  708MOL0     H95578  10.010   8.507  11.291 -0.8062  0.9409 -4.8647
  708MOL0     H95579   9.958   8.348  11.352 -0.6016 -1.3606 -1.4158
  708MOL0     H95580   9.936   8.389  11.184  1.3123 -2.1767  0.7846
  709MOL0     O95581   5.807   4.823   4.450  0.1230 -0.0724 -0.9447
  709MOL0     C95582   5.837   4.941   4.463 -0.3176 -1.1873  0.7186
  709MOL0     O95583   5.945   5.001   4.393  0.3030  0.1665 -0.2262
  709MOL0     C95584   5.986   4.914   4.295  0.1335  0.0622  0.9364
  709MOL0     C95585   6.108   4.857   4.294  0.2222 -0.0849 -0.6720
  709MOL0     C95586   6.151   4.786   4.191 -0.3138  0.4007 -0.2176
  709MOL0     C95587   6.067   4.774   4.078 -1.1357 -0.5420  0.9561
  709MOL0     O95588   6.115   4.693   3.974  0.6346 -0.0211 -0.0884
  709MOL0     C95589   6.050   4.710   3.845  0.3749  0.8068 -0.3523
  709MOL0     C95590   6.154   4.676   3.732 -0.9026 -0.1914  0.5137
  709MOL0     C95591   6.272   4.769   3.724 -0.3847 -0.5917  0.8979
  709MOL0     C95592   6.226   4.915   3.729 -0.2521  0.0888 -0.5008
  709MOL0     C95593   6.353   5.005   3.713  0.4327 -0.6154  1.0413
  709MOL0     C95594   6.376   5.051   3.579 -0.5236  0.0043  0.8548
  709MOL0     C95595   6.434   5.193   3.580  0.7925  0.0297 -0.0959
  709MOL0     C95596   6.479   5.230   3.437 -0.2864 -1.3304 -1.2685
  709MOL0     N95597   6.627   5.198   3.419 -0.2686 -1.4621 -0.5682
  709MOL0     C95598   6.700   5.083   3.455  0.3658 -0.5582  0.0534
  709MOL0     C95599   6.826   5.104   3.453 -0.3178 -0.5513 -0.0574
  709MOL0     C95600   6.931   5.011   3.457  0.5260 -0.0133 -0.6387
  709MOL0     C95601   6.976   4.978   3.602 -0.1813 -0.1380 -0.3057
  709MOL0     C95602   7.130   4.938   3.604 -0.7995 -0.1572  0.5009
  709MOL0     C95603   7.145   4.817   3.519  0.5128 -0.3731  0.1661
  709MOL0     O95604   7.270   4.758   3.562  0.3384  0.3364  0.1709
  709MOL0     C95605   7.387   4.821   3.523  0.4262 -0.4662  0.7371
  709MOL0     C95606   7.407   4.907   3.414 -0.2654  0.6394  0.3812
  709MOL0     C95607   7.527   4.967   3.396  0.0578 -0.1498  0.4301
  709MOL0     C95608   7.635   4.943   3.480 -0.8799  0.2668 -0.2335
  709MOL0     C95609   7.778   4.990   3.448 -1.3897 -0.0199 -0.5617
  709MOL0     O95610   7.805   5.014   3.320  0.4888  0.1240 -0.3398
  709MOL0     C95611   7.916   5.089   3.285  0.6016 -0.1541  1.0377
  709MOL0     C95612   7.977   5.203   3.356  0.4111 -0.4239 -0.2149
  709MOL0     C95613   8.092   5.259   3.299  0.0144 -0.2899 -0.3405
  709MOL0     C95614   8.146   5.220   3.178 -0.6196 -0.6175 -0.8923
  709MOL0     O95615   8.254   5.283   3.124 -0.4980  0.2617  0.1649
  709MOL0     C95616   8.252   5.331   2.991 -0.0268 -0.4442  0.2522
  709MOL0     C95617   8.389   5.324   2.939 -0.2652  0.1464  0.0676
  709MOL0     C95618   8.436   5.426   2.842  0.1777 -0.8248  0.6763
  709MOL0     C95619   8.455   5.564   2.904 -0.4389 -0.4679  0.2958
  709MOL0     C95620   8.528   5.659   2.816 -0.7898  0.7480  0.5653
  709MOL0     C95621   8.552   5.785   2.894  0.2808  0.3167  0.3966
  709MOL0     C95622   8.579   5.903   2.800 -0.4001 -0.5457  0.3564
  709MOL0     C95623   8.439   5.951   2.738 -0.5312  0.0132 -0.7654
  709MOL0    Cl95624   8.344   6.059   2.842 -0.0202 -0.0488 -0.9960
  709MOL0     C95625   8.082   5.110   3.113 -0.5736  0.0927  0.0038
  709MOL0     C95626   7.979   5.045   3.163  0.7078 -0.2249  1.2480
  709MOL0     O95627   7.847   5.020   3.546  0.0651  0.0953 -0.7605
  709MOL0     C95628   7.614   4.845   3.589  0.5591  0.0996  0.2772
  709MOL0     C95629   7.486   4.788   3.606  0.0530 -0.1012 -0.2506
  709MOL0     N95630   6.839   5.233   3.409  0.6660 -0.2441  0.4611
  709MOL0     N95631   6.726   5.285   3.388 -0.1562 -0.2790  0.7415
  709MOL0     C95632   5.940   4.835   4.070  0.2239 -0.6500 -0.4514
  709MOL0     C95633   5.899   4.911   4.178  0.6794  0.9957  0.1577
  709MOL0     C95634   5.760   5.025   4.551  0.3746  0.5812  0.1764
  709MOL0     C95635   5.820   5.155   4.574 -0.3218  0.1688  0.7015
  709MOL0     C95636   5.768   5.244   4.656  1.0982  0.2651  0.1171
  709MOL0     C95637   5.650   5.205   4.733  0.1759 -0.7394  1.2425
  709MOL0     O95638   5.597   5.303   4.820  0.4826 -0.1807  0.1557
  709MOL0     C95639   5.491   5.279   4.922 -1.1692 -0.6063 -0.2071
  709MOL0     C95640   5.448   5.410   4.994 -0.7642  0.4173  0.6878
  709MOL0     C95641   5.330   5.394   5.092  0.5366  0.7927  0.6176
  709MOL0     C95642   5.201   5.332   5.036 -0.1998  0.5253  0.6483
  709MOL0     C95643   5.165   5.403   4.910  0.8706  1.2053 -0.3438
  709MOL0     C95644   5.161   5.459   4.807 -0.3700  0.0660 -0.0422
  709MOL0     C95645   5.588   5.078   4.719  0.1138  0.5824  0.0886
  709MOL0     C95646   5.645   4.982   4.635  0.5326  0.1223 -0.9718
  709MOL0     C95647   5.575   4.845   4.644  0.4976 -0.1760  0.2283
  709MOL0     H95648   6.156   4.850   4.391 -2.7820  0.4838  0.9989
  709MOL0     H95649   6.242   4.729   4.199 -0.0751  0.9844  1.6271
  709MOL0     H95650   5.962   4.646   3.849  2.4764 -2.2530  1.3837
  709MOL0     H95651   6.015   4.812   3.828 -4.5735 -0.2331  1.9140
  709MOL0     H95652   6.104   4.690   3.635  0.8308  2.8758 -0.0639
  709MOL0     H95653   6.188   4.573   3.750  1.6019  0.5264  0.2745
  709MOL0     H95654   6.327   4.749   3.631 -0.2837  1.0587  0.5785
  709MOL0     H95655   6.337   4.735   3.805  1.9575 -2.4680 -1.5745
  709MOL0     H95656   6.147   4.946   3.660 -0.6515  1.2876  0.4494
  709MOL0     H95657   6.194   4.936   3.831 -0.5283 -3.2267  0.2074
  709MOL0     H95658   6.324   5.090   3.777  3.3068  0.2032  1.3736
  709MOL0     H95659   6.446   4.963   3.751  2.0532  0.7312 -1.2227
  709MOL0     H95660   6.439   4.975   3.532 -1.0948  0.4736 -0.7481
  709MOL0     H95661   6.283   5.059   3.523 -1.2809 -1.8764  1.7859
  709MOL0     H95662   6.521   5.195   3.645  0.1777 -1.3180  0.8066
  709MOL0     H95663   6.351   5.257   3.613  0.0492 -0.0064 -1.8148
  709MOL0     H95664   6.414   5.189   3.359 -2.1379  1.1057 -1.1362
  709MOL0     H95665   6.467   5.339   3.439  0.1950 -1.2754  0.7333
  709MOL0     H95666   6.649   4.992   3.485  0.1580  0.1362  1.8980
  709MOL0     H95667   6.926   4.917   3.401 -1.3376 -0.0336 -0.4780
  709MOL0     H95668   7.022   5.051   3.411  0.8446 -0.9801 -0.8651
  709MOL0     H95669   6.948   5.061   3.667 -1.4430  0.1147 -1.1374
  709MOL0     H95670   6.918   4.890   3.629 -0.2368 -0.4542 -1.4010
  709MOL0     H95671   7.162   4.898   3.700 -0.7233  0.2219  0.6373
  709MOL0     H95672   7.196   5.020   3.575 -0.6048 -0.0618  1.1979
  709MOL0     H95673   7.143   4.852   3.416  2.2503  1.6674  0.7709
  709MOL0     H95674   7.074   4.735   3.540  1.2566 -0.2358  3.7924
  709MOL0     H95675   7.324   4.950   3.358  1.0974  2.0503 -0.6493
  709MOL0     H95676   7.549   5.032   3.312  0.6158 -0.1943  0.5390
  709MOL0     H95677   7.924   5.232   3.446  0.4376 -0.3350 -0.2281
  709MOL0     H95678   8.126   5.350   3.348 -1.6018  0.0230  0.2753
  709MOL0     H95679   8.185   5.278   2.924  1.6199 -0.7099 -1.2584
  709MOL0     H95680   8.228   5.437   3.004  2.1939 -0.1670  3.2762
  709MOL0     H95681   8.458   5.324   3.024 -2.0822  1.2673  1.6182
  709MOL0     H95682   8.400   5.228   2.887 -0.9678  0.7141 -1.1593
  709MOL0     H95683   8.526   5.400   2.785 -1.3318  2.2109 -3.5502
  709MOL0     H95684   8.354   5.434   2.771  0.5706 -2.0531  0.0611
  709MOL0     H95685   8.510   5.554   2.997  1.2191  4.0190  0.0050
  709MOL0     H95686   8.358   5.612   2.922  1.3657  3.5230  0.1896
  709MOL0     H95687   8.461   5.673   2.731 -3.1416  0.6543  2.3022
  709MOL0     H95688   8.623   5.626   2.772  0.7811  1.2148  3.3587
  709MOL0     H95689   8.459   5.803   2.948 -2.5146  0.6295 -3.9980
  709MOL0     H95690   8.635   5.767   2.962  1.9203 -1.4482 -1.9064
  709MOL0     H95691   8.637   5.872   2.713  2.3829 -0.0234  1.9245
  709MOL0     H95692   8.631   5.980   2.858  2.7505 -3.5108  1.7901
  709MOL0     H95693   8.444   6.012   2.647  1.1913  0.6009 -0.3089
  709MOL0     H95694   8.386   5.858   2.717  2.8447 -2.4830  0.8064
  709MOL0     H95695   8.116   5.082   3.014 -0.8872  3.9216 -1.3419
  709MOL0     H95696   7.946   4.952   3.117  3.8494 -1.5993  1.5283
  709MOL0     H95697   7.701   4.810   3.644  0.1827 -0.5557  0.4580
  709MOL0     H95698   7.468   4.717   3.686 -0.7222  1.0668  0.6378
  709MOL0     H95699   5.869   4.826   3.988  2.1871  1.6181 -2.5854
  709MOL0     H95700   5.807   4.967   4.195  0.0777 -0.5551  2.4642
  709MOL0     H95701   5.897   5.197   4.509  0.9474  1.0962  2.7110
  709MOL0     H95702   5.793   5.349   4.652 -1.6699  1.0353  0.8098
  709MOL0     H95703   5.537   5.216   4.998 -0.8432 -2.4073 -1.7961
  709MOL0     H95704   5.407   5.228   4.873 -0.8841  0.4381 -1.8652
  709MOL0     H95705   5.429   5.479   4.911  3.1392  2.1196  0.9427
  709MOL0     H95706   5.535   5.444   5.052 -0.0644  0.2399 -0.2455
  709MOL0     H95707   5.304   5.498   5.113 -0.2572  0.4541  1.3926
  709MOL0     H95708   5.379   5.343   5.176  1.9631 -0.3958 -0.8783
  709MOL0     H95709   5.213   5.224   5.022  0.2585  0.3767  2.0361
  709MOL0     H95710   5.117   5.338   5.105  0.4143 -0.2880  1.5028
  709MOL0     H95711   5.170   5.507   4.711  3.7339 -2.0402 -0.9479
  709MOL0     H95712   5.492   5.054   4.763  0.1092  0.6478  0.1146
  709MOL0     H95713   5.524   4.828   4.739 -1.6538 -0.6290 -0.9460
  709MOL0     H95714   5.497   4.832   4.568 -0.3458 -0.4864  1.1259
  709MOL0     H95715   5.657   4.775   4.626  0.9276 -0.5609  3.2366
  710MOL0     O95716   7.773  10.580  10.607  0.3638 -0.1821  0.1379
  710MOL0     C95717   7.827  10.526  10.704 -0.0052 -1.1077  0.4081
  710MOL0     O95718   7.875  10.398  10.697 -0.3081  0.3167 -0.1464
  710MOL0     C95719   7.802  10.300  10.633 -0.7815 -0.7763  0.5191
  710MOL0     C95720   7.834  10.171  10.670  0.8127  0.1115 -0.9484
  710MOL0     C95721   7.769  10.052  10.629 -0.1863 -0.3895  0.1548
  710MOL0     C95722   7.656  10.071  10.547 -0.0528  1.0882  0.4286
  710MOL0     O95723   7.581   9.986  10.478 -1.0550  1.0385  0.5027
  710MOL0     C95724   7.557   9.855  10.533 -0.6512 -1.2854  0.0657
  710MOL0     C95725   7.496   9.770  10.421  0.0761 -0.6074 -0.1755
  710MOL0     C95726   7.453   9.632  10.464  0.1995 -0.9695 -0.2562
  710MOL0     C95727   7.327   9.623  10.543 -0.2317  0.6773 -0.0007
  710MOL0     C95728   7.314   9.471  10.567  0.6832 -0.8268 -0.7078
  710MOL0     C95729   7.212   9.442  10.675 -0.1223 -0.1388  1.0409
  710MOL0     C95730   7.222   9.299  10.703 -0.3660  0.8228  0.1918
  710MOL0     C95731   7.085   9.257  10.766 -0.2122  0.4662  0.0158
  710MOL0     N95732   7.096   9.136  10.854 -0.5225 -0.5471  1.1055
  710MOL0     C95733   7.151   9.020  10.819 -0.1363  0.3144  0.4751
  710MOL0     C95734   7.120   8.935  10.920 -0.0209  0.6827 -0.2530
  710MOL0     C95735   7.127   8.787  10.938  0.3597  0.7562 -0.8389
  710MOL0     C95736   7.075   8.718  10.822  0.2659  0.6186  0.1976
  710MOL0     C95737   7.109   8.572  10.832 -0.3503  0.6432  0.3655
  710MOL0     C95738   7.096   8.497  10.695  0.6895 -0.2758 -0.3184
  710MOL0     O95739   7.069   8.358  10.720  0.5970 -0.0129 -0.0411
  710MOL0     C95740   7.016   8.285  10.616 -0.7183 -0.8380 -0.8845
  710MOL0     C95741   6.971   8.332  10.497  0.4719  1.3528  0.2873
  710MOL0     C95742   6.921   8.251  10.392 -0.5224  0.2770  0.7226
  710MOL0     C95743   6.911   8.114  10.406  0.5015  0.1194  0.4029
  710MOL0     C95744   6.875   8.036  10.288  0.6476  0.2523  0.4982
  710MOL0     O95745   6.857   7.902  10.309 -0.4184 -0.1510  0.0523
  710MOL0     C95746   6.855   7.812  10.203  0.5055  0.2845 -0.2488
  710MOL0     C95747   6.821   7.832  10.069 -0.7327  0.9529  0.8427
  710MOL0     C95748   6.840   7.729   9.971 -1.1944  0.0475 -0.4562
  710MOL0     C95749   6.888   7.602  10.013 -0.2263  1.1020 -0.1129
  710MOL0     O95750   6.896   7.495   9.926 -0.0758 -0.3521  0.5242
  710MOL0     C95751   6.970   7.529   9.805 -0.4872  0.7105  0.0137
  710MOL0     C95752   7.064   7.416   9.740  0.8352 -0.7998  0.1711
  710MOL0     C95753   7.135   7.462   9.601  0.0806 -0.8244  0.4353
  710MOL0     C95754   7.255   7.382   9.569  0.3025  0.1259 -0.1718
  710MOL0     C95755   7.379   7.421   9.661 -0.7522 -0.3066  0.4458
  710MOL0     C95756   7.507   7.382   9.597  0.3529 -0.5211 -0.9841
  710MOL0     C95757   7.506   7.230   9.583  0.0468  0.0803  0.4918
  710MOL0     C95758   7.643   7.174   9.546 -0.9249 -0.0626  0.5304
  710MOL0    Cl95759   7.625   6.986   9.544 -0.2719 -0.5826 -0.4867
  710MOL0     C95760   6.925   7.587  10.148 -0.8000 -0.0721 -1.6507
  710MOL0     C95761   6.898   7.689  10.241 -0.1062  0.8788  0.0383
  710MOL0     O95762   6.862   8.096  10.180  0.7949 -0.0819  0.5619
  710MOL0     C95763   6.948   8.058  10.525 -0.3210  0.0138  0.7704
  710MOL0     C95764   6.999   8.145  10.628 -0.6692 -0.0182  0.1601
  710MOL0     N95765   7.066   9.013  11.017 -0.2244  0.5477 -0.4847
  710MOL0     N95766   7.059   9.131  10.984 -0.3116 -0.4729 -0.7431
  710MOL0     C95767   7.620  10.203  10.512 -0.0831  0.0959  0.1190
  710MOL0     C95768   7.684  10.315  10.561 -0.0918 -0.8371 -0.2579
  710MOL0     C95769   7.830  10.599  10.836  0.7643 -0.0911  0.3764
  710MOL0     C95770   7.842  10.519  10.944  0.5495  0.2315  0.1726
  710MOL0     C95771   7.854  10.580  11.080 -0.5358  0.0801 -0.2088
  710MOL0     C95772   7.823  10.707  11.092  1.2570 -0.2379  0.1671
  710MOL0     O95773   7.795  10.748  11.219 -0.1839 -0.4246 -0.7892
  710MOL0     C95774   7.758  10.883  11.252 -0.0005  0.5147  0.9925
  710MOL0     C95775   7.792  10.900  11.407 -0.4605 -0.1879 -0.1595
  710MOL0     C95776   7.951  10.908  11.424  0.0198 -0.1759 -0.2212
  710MOL0     C95777   8.015  10.961  11.555  0.2727 -0.3005  1.5751
  710MOL0     C95778   7.991  11.104  11.557  0.0503 -0.6349 -0.2799
  710MOL0     C95779   7.974  11.229  11.550  0.7310  0.3450 -0.0440
  710MOL0     C95780   7.809  10.788  10.976 -0.1333  0.1089 -0.4758
  710MOL0     C95781   7.828  10.733  10.851 -0.4780 -0.3440 -0.3382
  710MOL0     C95782   7.850  10.839  10.743  0.2674  1.0094  0.0085
  710MOL0     H95783   7.918  10.156  10.737 -0.7909 -1.8033  0.7714
  710MOL0     H95784   7.801   9.949  10.640  0.5047 -0.4074 -1.7647
  710MOL0     H95785   7.650   9.809  10.568 -0.6032  0.8475  3.1400
  710MOL0     H95786   7.496   9.858  10.623 -0.7543  0.4593 -0.0279
  710MOL0     H95787   7.552   9.772  10.327  2.1352  1.3856  0.9989
  710MOL0     H95788   7.401   9.818  10.394  0.7503  0.4695 -0.6905
  710MOL0     H95789   7.533   9.605  10.534 -0.5903 -1.9299  0.2958
  710MOL0     H95790   7.463   9.564  10.378  0.0186 -2.4988  0.8814
  710MOL0     H95791   7.323   9.673  10.639 -0.7094 -2.2629  1.6410
  710MOL0     H95792   7.243   9.671  10.491 -0.7852  1.0986  1.2526
  710MOL0     H95793   7.284   9.432  10.470 -0.6411 -2.3673  0.2791
  710MOL0     H95794   7.415   9.442  10.597  1.6019  0.3943 -2.4133
  710MOL0     H95795   7.229   9.498  10.767  2.7857  2.0545 -0.6492
  710MOL0     H95796   7.113   9.475  10.641  0.7608 -0.5400 -2.2663
  710MOL0     H95797   7.302   9.277  10.775  1.3179  1.3598 -1.4582
  710MOL0     H95798   7.237   9.241  10.612  1.3138 -0.2554  1.1053
  710MOL0     H95799   7.025   9.335  10.813 -0.7099  1.8029 -2.6515
  710MOL0     H95800   7.027   9.224  10.679 -0.7172  1.3104  0.0239
  710MOL0     H95801   7.181   8.991  10.719  1.7603 -1.2821  1.4360
  710MOL0     H95802   7.234   8.771  10.954  0.3405  1.4527  0.1224
  710MOL0     H95803   7.068   8.770  11.029 -0.8913  2.2748 -1.3142
  710MOL0     H95804   6.968   8.727  10.800  0.5531 -0.7983 -2.1237
  710MOL0     H95805   7.115   8.767  10.732 -1.5206  0.1411 -0.9040
  710MOL0     H95806   7.052   8.514  10.906  1.2785 -1.0285  0.3665
  710MOL0     H95807   7.214   8.567  10.861  0.8710  3.3677 -2.9058
  710MOL0     H95808   7.184   8.509  10.631  0.8225  2.3722  0.2405
  710MOL0     H95809   7.009   8.545  10.650  0.5118 -0.8961 -0.6481
  710MOL0     H95810   6.983   8.438  10.475  0.1065  1.2146 -0.5895
  710MOL0     H95811   6.877   8.305  10.309  0.5546 -2.7912 -2.0743
  710MOL0     H95812   6.787   7.930  10.038 -0.1002  1.4297  1.5940
  710MOL0     H95813   6.808   7.756   9.871 -3.5751  2.3506  0.7745
  710MOL0     H95814   6.902   7.564   9.727 -0.6362 -1.3909 -0.8475
  710MOL0     H95815   7.034   7.614   9.833  0.6304  0.8138 -2.5482
  710MOL0     H95816   7.140   7.378   9.809  0.3995 -1.2041  0.4375
  710MOL0     H95817   6.998   7.331   9.722 -1.0378  0.1255  2.1573
  710MOL0     H95818   7.064   7.446   9.519  0.3658  0.5770 -0.1157
  710MOL0     H95819   7.169   7.566   9.605  4.3230 -1.9318 -1.2782
  710MOL0     H95820   7.287   7.404   9.466  1.9539  0.3025  0.3600
  710MOL0     H95821   7.233   7.275   9.566  1.3624 -0.0891 -1.4904
  710MOL0     H95822   7.368   7.362   9.752 -0.5965 -0.0187  0.6501
  710MOL0     H95823   7.388   7.529   9.678 -1.9335 -0.1178 -0.0137
  710MOL0     H95824   7.514   7.437   9.503  0.8678 -3.1124 -2.5671
  710MOL0     H95825   7.583   7.414   9.669  1.3390 -2.5047 -1.0686
  710MOL0     H95826   7.433   7.192   9.511  2.2485 -0.4391 -1.6283
  710MOL0     H95827   7.482   7.185   9.680  3.8356 -1.1523  1.0264
  710MOL0     H95828   7.660   7.197   9.440 -0.9661 -0.0695  0.5225
  710MOL0     H95829   7.726   7.202   9.611  0.8992  1.6501 -2.3111
  710MOL0     H95830   6.960   7.488  10.176 -1.9229 -0.4804 -1.6618
  710MOL0     H95831   6.917   7.674  10.347 -2.1387 -0.0456  0.3262
  710MOL0     H95832   6.937   7.953  10.546  3.4298 -0.9856 -1.2508
  710MOL0     H95833   7.012   8.106  10.728 -1.6307  2.1308  1.1815
  710MOL0     H95834   7.549  10.224  10.432  1.3032 -0.6895 -1.3690
  710MOL0     H95835   7.633  10.410  10.549 -1.4944 -0.7544  4.3727
  710MOL0     H95836   7.838  10.411  10.938 -0.9040  0.3358 -2.1141
  710MOL0     H95837   7.851  10.507  11.160  2.4546  0.9098  0.7835
  710MOL0     H95838   7.649  10.884  11.242  0.1652  3.2131 -2.9215
  710MOL0     H95839   7.795  10.957  11.180 -3.8452  3.0009  1.2977
  710MOL0     H95840   7.748  10.817  11.463  0.8561  0.2037  1.5499
  710MOL0     H95841   7.738  10.986  11.448 -2.8588 -0.7035 -2.0045
  710MOL0     H95842   7.977  10.979  11.345  1.4309  0.3587  0.6922
  710MOL0     H95843   7.997  10.813  11.395 -0.7979 -0.1923 -1.5401
  710MOL0     H95844   7.967  10.910  11.639  0.7772 -1.2893  1.2758
  710MOL0     H95845   8.121  10.932  11.560  0.3740 -0.0931  0.8307
  710MOL0     H95846   7.957  11.335  11.558  0.3261  0.3813 -1.2265
  710MOL0     H95847   7.782  10.892  10.987 -0.6196  0.0704 -1.2591
  710MOL0     H95848   7.917  10.794  10.669  0.3006  1.2247 -0.0920
  710MOL0     H95849   7.758  10.865  10.691  0.7315  0.3981 -1.1744
  710MOL0     H95850   7.898  10.926  10.789  0.6216 -0.4954  2.7200
  711MOL0     O95851  10.735   7.798   5.840  0.7026  0.3499 -0.2148
  711MOL0     C95852  10.752   7.717   5.933  0.8602 -0.0101 -0.5253
  711MOL0     O95853  10.767   7.582   5.919  0.2537  0.6239  1.0112
  711MOL0     C95854  10.719   7.525   5.811  0.3061 -0.1166 -0.2121
  711MOL0     C95855  10.792   7.519   5.689 -0.4864 -0.6807  0.2870
  711MOL0     C95856  10.744   7.457   5.579 -0.7953  0.1285  0.8676
  711MOL0     C95857  10.631   7.378   5.590  0.9758 -0.0107  0.3524
  711MOL0     O95858  10.579   7.307   5.485  0.1474  0.5512  0.1377
  711MOL0     C95859  10.578   7.344   5.353  0.3648 -0.0600 -0.6441
  711MOL0     C95860  10.642   7.225   5.278 -0.1851 -1.0608 -0.1422
  711MOL0     C95861  10.783   7.214   5.318 -0.8842  0.3581  0.0141
  711MOL0     C95862  10.832   7.075   5.256  0.4522  0.8481 -0.0752
  711MOL0     C95863  10.800   6.951   5.344  1.1484 -0.2769  0.2614
  711MOL0     C95864  10.874   6.936   5.482  0.4676  0.5391 -0.2555
  711MOL0     C95865  10.793   6.862   5.580 -0.0137  0.6266 -0.1895
  711MOL0     C95866  10.669   6.936   5.629 -0.9543  0.3558 -0.1898
  711MOL0     N95867  10.592   6.849   5.717  0.6855  0.6020  0.4117
  711MOL0     C95868  10.624   6.818   5.848  0.8047 -0.4181  1.4272
  711MOL0     C95869  10.524   6.724   5.880 -1.0796  0.3793 -1.0812
  711MOL0     C95870  10.504   6.671   6.020 -0.1585  0.3439 -0.4548
  711MOL0     C95871  10.372   6.699   6.100 -1.1985 -0.1308  0.5306
  711MOL0     C95872  10.381   6.686   6.248 -0.0561 -0.5655 -0.3113
  711MOL0     C95873  10.443   6.555   6.305  0.3119 -0.9055 -0.3628
  711MOL0     O95874  10.580   6.571   6.349  0.6088  0.4766  0.6365
  711MOL0     C95875  10.663   6.458   6.366  0.0852 -0.8266  0.8275
  711MOL0     C95876  10.619   6.341   6.429  0.3933 -0.7450  0.0322
  711MOL0     C95877  10.716   6.246   6.468  0.1670  0.2157  0.2581
  711MOL0     C95878  10.849   6.267   6.441 -0.1346  0.8242  0.3011
  711MOL0     C95879  10.952   6.184   6.506  0.4593 -0.8139 -0.3843
  711MOL0     O95880  11.084   6.186   6.457 -0.8161 -0.2028 -0.0117
  711MOL0     C95881  11.187   6.121   6.526  0.6103 -0.6569 -0.2142
  711MOL0     C95882  11.233   6.168   6.651  0.0991  0.7232 -0.0521
  711MOL0     C95883  11.337   6.100   6.724  0.3004 -0.5032 -0.1034
  711MOL0     C95884  11.419   6.011   6.664 -0.2418  1.0522 -0.4783
  711MOL0     O95885  11.513   5.946   6.743 -0.6037 -0.0027 -0.4734
  711MOL0     C95886  11.526   5.801   6.738  0.7338 -1.0557 -0.0274
  711MOL0     C95887  11.394   5.745   6.806  0.3267  0.3794  0.3000
  711MOL0     C95888  11.374   5.595   6.763  0.2637  0.2072 -0.4743
  711MOL0     C95889  11.282   5.511   6.857  0.1953 -0.1468 -0.1955
  711MOL0     C95890  11.310   5.364   6.833 -0.1673  0.9068 -0.1907
  711MOL0     C95891  11.252   5.303   6.704 -0.8677  0.3908 -0.8217
  711MOL0     C95892  11.285   5.157   6.679 -0.1331  0.4434  0.3949
  711MOL0     C95893  11.243   5.068   6.789  1.4189 -0.6195  0.3339
  711MOL0    Cl95894  11.066   5.074   6.812 -0.0335 -0.0660  0.0207
  711MOL0     C95895  11.407   5.998   6.525  0.8667  0.4561  0.5794
  711MOL0     C95896  11.283   6.035   6.468  0.8695  0.6909  0.0945
  711MOL0     O95897  10.916   6.124   6.602  1.0349 -0.9836  0.1963
  711MOL0     C95898  10.892   6.383   6.382  1.2008 -1.0292  0.7082
  711MOL0     C95899  10.800   6.477   6.331  0.2596  0.3955  0.5642
  711MOL0     N95900  10.443   6.702   5.774  0.3096  0.6950  0.1966
  711MOL0     N95901  10.478   6.785   5.680  0.1376 -0.7354 -0.3848
  711MOL0     C95902  10.568   7.363   5.710  1.0165 -0.4554 -0.0094
  711MOL0     C95903  10.603   7.443   5.819 -0.5357  0.6707 -1.0398
  711MOL0     C95904  10.782   7.764   6.067 -0.1303 -0.8178 -0.3406
  711MOL0     C95905  10.861   7.883   6.086 -0.0357  0.2339 -0.1493
  711MOL0     C95906  10.907   7.935   6.204  0.5475  0.0268 -0.6022
  711MOL0     C95907  10.870   7.876   6.320 -0.1943  0.1846 -0.1051
  711MOL0     O95908  10.914   7.927   6.442  0.7240 -0.4018  0.4227
  711MOL0     C95909  10.912   7.834   6.549  1.1818  0.0971 -0.1815
  711MOL0     C95910  11.006   7.871   6.667  0.7139 -0.2189  0.0230
  711MOL0     C95911  11.162   7.872   6.637 -0.1904  0.2011 -0.0908
  711MOL0     C95912  11.232   7.736   6.667  0.1810 -0.2670  0.0197
  711MOL0     C95913  11.175   7.621   6.597  0.2429 -0.1604  0.2428
  711MOL0     C95914  11.134   7.530   6.531  0.2265 -0.0482  0.1249
  711MOL0     C95915  10.787   7.762   6.311 -0.2133 -0.8559 -0.2822
  711MOL0     C95916  10.744   7.703   6.189  0.0790  0.1000 -0.7394
  711MOL0     C95917  10.671   7.577   6.208  0.1530 -0.5569 -0.0210
  711MOL0     H95918  10.887   7.572   5.689 -1.2652  0.8761  2.5682
  711MOL0     H95919  10.803   7.467   5.488 -0.4648 -2.0979  0.7870
  711MOL0     H95920  10.476   7.369   5.324  0.1500  2.9386  2.0513
  711MOL0     H95921  10.631   7.437   5.329 -1.6644  0.9832 -1.2534
  711MOL0     H95922  10.632   7.235   5.170  0.4091 -2.9912 -0.4103
  711MOL0     H95923  10.579   7.142   5.310 -0.3537 -1.1411 -0.6738
  711MOL0     H95924  10.793   7.213   5.426  1.4560  0.5001 -0.1469
  711MOL0     H95925  10.844   7.289   5.266 -0.2456 -0.4057 -0.3789
  711MOL0     H95926  10.778   7.062   5.162  2.2161  1.4230 -1.2239
  711MOL0     H95927  10.938   7.067   5.228  1.4001 -2.3291  3.5728
  711MOL0     H95928  10.691   6.937   5.346  1.0445  0.2310 -1.0311
  711MOL0     H95929  10.836   6.867   5.283  1.3089  1.0589 -1.5399
  711MOL0     H95930  10.960   6.871   5.466  1.0279  0.4841  2.5717
  711MOL0     H95931  10.911   7.027   5.530 -0.3230 -0.7075  2.9120
  711MOL0     H95932  10.867   6.852   5.660  0.5190  0.5379 -0.6832
  711MOL0     H95933  10.756   6.774   5.525  0.8962  1.2138 -1.8198
  711MOL0     H95934  10.710   7.018   5.688  1.0888  0.3411 -1.4784
  711MOL0     H95935  10.611   6.975   5.546 -1.8716  0.1777  0.3537
  711MOL0     H95936  10.694   6.873   5.910 -1.5339  2.1418  2.0109
  711MOL0     H95937  10.534   6.567   6.033 -0.2647  0.4756  0.9843
  711MOL0     H95938  10.574   6.730   6.080  0.4550 -0.7579 -0.0422
  711MOL0     H95939  10.354   6.805   6.080 -0.6702 -0.2663 -0.7595
  711MOL0     H95940  10.285   6.643   6.064 -1.0381 -0.7642  1.1261
  711MOL0     H95941  10.287   6.711   6.298  1.3127 -1.7780  3.2029
  711MOL0     H95942  10.433   6.781   6.265 -1.7160  1.5184 -5.0384
  711MOL0     H95943  10.425   6.472   6.236 -1.2082 -1.6677  0.8773
  711MOL0     H95944  10.388   6.532   6.396  0.6592 -1.0941 -0.2016
  711MOL0     H95945  10.516   6.329   6.464  0.0606  2.9265  0.7726
  711MOL0     H95946  10.673   6.159   6.516 -1.5634  0.0465 -1.4556
  711MOL0     H95947  11.182   6.238   6.716  3.6874  1.6887  2.0431
  711MOL0     H95948  11.356   6.134   6.825  1.0906  0.2845 -0.5064
  711MOL0     H95949  11.548   5.771   6.635  1.6914 -0.1996 -0.0850
  711MOL0     H95950  11.612   5.771   6.800  1.9291  0.9449 -0.6528
  711MOL0     H95951  11.410   5.751   6.914  2.2895  0.3453  0.0620
  711MOL0     H95952  11.307   5.810   6.793 -0.5101 -0.7933 -0.0690
  711MOL0     H95953  11.318   5.596   6.669  1.3009  2.2607 -1.1294
  711MOL0     H95954  11.465   5.536   6.746  1.3323  1.4153  0.8762
  711MOL0     H95955  11.177   5.542   6.850 -1.0725 -3.8030  0.1613
  711MOL0     H95956  11.297   5.543   6.961  0.5193 -0.6795 -0.0756
  711MOL0     H95957  11.264   5.312   6.917 -2.3041  1.5814 -0.8918
  711MOL0     H95958  11.418   5.358   6.848 -0.0179  1.6516 -0.9381
  711MOL0     H95959  11.144   5.320   6.703 -0.6128  2.2601 -1.0441
  711MOL0     H95960  11.295   5.361   6.622  0.7511 -2.2940 -2.0115
  711MOL0     H95961  11.395   5.153   6.675 -0.0094  2.0010  1.3821
  711MOL0     H95962  11.236   5.128   6.585 -0.3576  1.7571  0.0836
  711MOL0     H95963  11.257   4.964   6.758  0.3289  0.0204 -2.6393
  711MOL0     H95964  11.292   5.089   6.884  1.3970 -0.4393  0.3070
  711MOL0     H95965  11.477   5.930   6.479 -0.7464 -0.7941 -0.1046
  711MOL0     H95966  11.254   6.000   6.369  0.8866  0.1107  0.2918
  711MOL0     H95967  10.995   6.407   6.361  0.4807  2.1946  0.3494
  711MOL0     H95968  10.830   6.567   6.280  0.8871 -1.2845 -2.2069
  711MOL0     H95969  10.471   7.319   5.730  1.8956 -1.2442  3.1094
  711MOL0     H95970  10.549   7.438   5.912 -3.2624 -0.9838 -2.5935
  711MOL0     H95971  10.870   7.943   5.996  0.8494  0.6289  0.1981
  711MOL0     H95972  10.971   8.022   6.210 -1.1320  1.3272 -0.8934
  711MOL0     H95973  10.938   7.731   6.523 -0.0800  0.1032 -1.5824
  711MOL0     H95974  10.812   7.834   6.595 -0.5233  0.6306 -3.6055
  711MOL0     H95975  10.989   7.819   6.761  1.1798  2.6500  1.8227
  711MOL0     H95976  10.980   7.976   6.684  0.2729 -0.7479  3.1925
  711MOL0     H95977  11.214   7.940   6.704  0.1970  1.5192 -1.6538
  711MOL0     H95978  11.196   7.906   6.539 -0.6901 -1.0098 -0.7124
  711MOL0     H95979  11.341   7.746   6.663  0.1003  0.4966 -0.3611
  711MOL0     H95980  11.229   7.725   6.776  1.8489  0.3053  0.1485
  711MOL0     H95981  11.090   7.451   6.473 -1.0524  0.4588  0.3782
  711MOL0     H95982  10.762   7.712   6.404 -1.1719  0.7909  0.4027
  711MOL0     H95983  10.617   7.555   6.301  1.9816  1.1919  1.5559
  711MOL0     H95984  10.592   7.585   6.133 -1.1862  2.8672  1.5386
  711MOL0     H95985  10.740   7.497   6.178  0.2858  0.1352 -1.6385
  712MOL0     O95986   1.637   7.259   5.022 -0.2998 -0.9037 -0.6671
  712MOL0     C95987   1.524   7.245   4.976  0.6615 -0.4977 -0.0530
  712MOL0     O95988   1.410   7.214   5.048  0.2461 -0.5820  0.1814
  712MOL0     C95989   1.429   7.199   5.187  0.6756 -1.0607  1.2875
  712MOL0     C95990   1.380   7.295   5.277  0.1825  0.6139 -0.0563
  712MOL0     C95991   1.419   7.282   5.416  0.9743  0.0387  0.2516
  712MOL0     C95992   1.499   7.177   5.466  0.1904 -0.0930 -0.5300
  712MOL0     O95993   1.566   7.190   5.593  0.0290 -0.1645  0.9615
  712MOL0     C95994   1.644   7.082   5.656  0.0380 -0.4208  0.4209
  712MOL0     C95995   1.693   7.123   5.792 -0.0125  0.0441  0.6911
  712MOL0     C95996   1.570   7.102   5.888 -0.3246  0.8447 -0.6167
  712MOL0     C95997   1.600   7.130   6.037 -0.1051 -0.4210  0.5491
  712MOL0     C95998   1.487   7.106   6.143 -0.4975 -0.4246  0.2708
  712MOL0     C95999   1.471   6.964   6.189  0.7261  0.3619  0.0394
  712MOL0     C96000   1.573   6.911   6.287 -0.5924 -0.1234 -0.2127
  712MOL0     C96001   1.555   6.761   6.325  0.0677 -0.7012  0.0181
  712MOL0     N96002   1.476   6.754   6.449  0.2704 -0.1994 -0.8006
  712MOL0     C96003   1.513   6.789   6.572 -0.4505  0.1298  0.0743
  712MOL0     C96004   1.410   6.742   6.640  0.4177 -0.0137  0.1006
  712MOL0     C96005   1.386   6.770   6.789  0.2018  0.0328 -0.0283
  712MOL0     C96006   1.391   6.646   6.875 -0.0905 -1.0423  0.3985
  712MOL0     C96007   1.339   6.685   7.019 -0.9060  0.1356 -0.1844
  712MOL0     C96008   1.329   6.562   7.110 -0.7733  1.1962 -0.6451
  712MOL0     O96009   1.460   6.489   7.104 -0.0572 -0.6493 -0.6577
  712MOL0     C96010   1.448   6.353   7.121  0.2569  0.4445 -0.4985
  712MOL0     C96011   1.453   6.281   7.002 -0.3088 -0.8597 -0.3040
  712MOL0     C96012   1.455   6.143   7.002  0.4090 -0.0478 -0.3336
  712MOL0     C96013   1.435   6.071   7.123 -0.0491  0.3576  1.0808
  712MOL0     C96014   1.416   5.924   7.107 -2.1977  0.1851  0.9074
  712MOL0     O96015   1.326   5.862   7.194 -0.0044 -0.1330 -0.0003
  712MOL0     C96016   1.326   5.727   7.176  0.1602 -0.3547  0.6010
  712MOL0     C96017   1.377   5.645   7.277  0.8803  0.1638  1.4583
  712MOL0     C96018   1.360   5.507   7.267  0.0583 -0.2509 -0.0471
  712MOL0     C96019   1.321   5.454   7.142  0.4819 -0.3468 -0.8132
  712MOL0     O96020   1.326   5.321   7.129  0.1232  0.5136 -0.1006
  712MOL0     C96021   1.215   5.262   7.066  0.7840  0.4269 -0.5524
  712MOL0     C96022   1.157   5.141   7.147 -0.2041  0.4264 -1.3832
  712MOL0     C96023   1.097   5.193   7.274 -0.3706 -1.0736 -0.9028
  712MOL0     C96024   0.990   5.112   7.336  0.7927 -0.9530 -0.6321
  712MOL0     C96025   0.945   5.178   7.465  0.1861  0.0428 -0.1183
  712MOL0     C96026   0.821   5.119   7.522 -0.0220 -0.1068  0.3087
  712MOL0     C96027   0.776   5.175   7.656  0.1419  0.1941 -0.4216
  712MOL0     C96028   0.656   5.101   7.721 -1.2969 -0.0486 -0.2529
  712MOL0    Cl96029   0.640   5.197   7.871 -0.3711 -0.1197 -0.1838
  712MOL0     C96030   1.287   5.532   7.031 -0.6558 -0.8179  0.5256
  712MOL0     C96031   1.283   5.668   7.051 -0.2961  0.5546 -0.1071
  712MOL0     O96032   1.488   5.871   7.025 -0.7803  0.6063 -0.5456
  712MOL0     C96033   1.413   6.142   7.242  0.1585  0.2923 -0.7362
  712MOL0     C96034   1.417   6.278   7.244  0.5164 -0.0107  0.5937
  712MOL0     N96035   1.319   6.670   6.566 -0.6601 -0.4807 -0.4116
  712MOL0     N96036   1.356   6.686   6.450  0.5492  0.0111 -0.3425
  712MOL0     C96037   1.514   7.081   5.378 -0.7988  0.1266  0.4506
  712MOL0     C96038   1.478   7.081   5.247 -0.5349  0.1300 -0.2133
  712MOL0     C96039   1.515   7.256   4.824  0.1575  0.7058 -0.1124
  712MOL0     C96040   1.610   7.329   4.751  0.1396  0.3355  0.2982
  712MOL0     C96041   1.591   7.359   4.612  0.3402  0.3235  0.0400
  712MOL0     C96042   1.482   7.304   4.554  0.4502  0.3053 -0.2502
  712MOL0     O96043   1.470   7.326   4.425  0.5455  0.6381 -0.0951
  712MOL0     C96044   1.348   7.394   4.379 -0.1578  0.9340 -0.5654
  712MOL0     C96045   1.374   7.454   4.241  0.0360  0.2210 -0.0498
  712MOL0     C96046   1.507   7.549   4.240  0.0173  0.9775  0.0853
  712MOL0     C96047   1.499   7.654   4.123  0.2585  0.2876 -0.2301
  712MOL0     C96048   1.588   7.769   4.156 -1.0055 -0.0740  0.1196
  712MOL0     C96049   1.666   7.853   4.192 -0.2617 -0.1108  0.0910
  712MOL0     C96050   1.390   7.222   4.622 -0.0911 -0.3560  1.0745
  712MOL0     C96051   1.407   7.202   4.753  1.1157  0.5264 -0.9485
  712MOL0     C96052   1.311   7.105   4.821 -0.7243  0.3513  0.0909
  712MOL0     H96053   1.323   7.383   5.248 -1.0331  1.0254  3.1312
  712MOL0     H96054   1.405   7.364   5.485  1.7300 -1.2226  1.9609
  712MOL0     H96055   1.587   6.989   5.672  0.9660 -0.5454  3.9798
  712MOL0     H96056   1.727   7.063   5.588 -0.5806  2.4599 -1.2838
  712MOL0     H96057   1.737   7.223   5.785  0.8869 -0.4117 -0.4361
  712MOL0     H96058   1.765   7.051   5.834  0.0893  0.9185  2.1013
  712MOL0     H96059   1.521   7.004   5.885 -0.6306  0.9340  0.8030
  712MOL0     H96060   1.489   7.172   5.863 -2.5886 -1.5733 -0.5504
  712MOL0     H96061   1.679   7.064   6.074 -0.1948 -0.0143  1.4761
  712MOL0     H96062   1.636   7.233   6.042 -0.3544 -0.4008  3.3275
  712MOL0     H96063   1.516   7.162   6.233 -0.2316  1.4222 -0.9127
  712MOL0     H96064   1.395   7.163   6.126 -0.8956 -1.2382 -0.3733
  712MOL0     H96065   1.371   6.959   6.234  0.1382  3.0391 -0.7941
  712MOL0     H96066   1.466   6.889   6.111  0.7738 -1.8447  2.0452
  712MOL0     H96067   1.586   6.976   6.373 -1.3439  4.1659 -3.0381
  712MOL0     H96068   1.675   6.914   6.247  0.6894 -0.4615  2.7748
  712MOL0     H96069   1.523   6.697   6.242  1.5670 -2.4988  0.7624
  712MOL0     H96070   1.650   6.714   6.350 -1.2411 -3.0521  0.9975
  712MOL0     H96071   1.583   6.860   6.615  2.6444 -2.4755 -0.3355
  712MOL0     H96072   1.470   6.831   6.821 -0.3487 -0.7162  3.1454
  712MOL0     H96073   1.296   6.831   6.796  0.2774  0.5218 -2.3584
  712MOL0     H96074   1.324   6.566   6.841 -1.3639 -0.2968  1.0864
  712MOL0     H96075   1.494   6.613   6.885  0.6438  0.4482 -1.7144
  712MOL0     H96076   1.243   6.738   7.021  0.8149  3.5383  1.0409
  712MOL0     H96077   1.411   6.756   7.062  1.2206 -2.1023  0.1350
  712MOL0     H96078   1.260   6.485   7.075  2.4730 -1.5436 -1.6228
  712MOL0     H96079   1.293   6.582   7.212  0.5542 -1.6295  0.5119
  712MOL0     H96080   1.466   6.342   6.914 -4.3492 -0.8152 -1.0637
  712MOL0     H96081   1.461   6.088   6.908  2.2599  2.0788 -1.5536
  712MOL0     H96082   1.427   5.685   7.365  2.5381  2.0877 -0.2528
  712MOL0     H96083   1.389   5.442   7.349 -0.1941  1.2699  1.2948
  712MOL0     H96084   1.130   5.328   7.044 -1.1498 -1.2133  1.4273
  712MOL0     H96085   1.244   5.215   6.972  0.5167 -3.3705  1.1155
  712MOL0     H96086   1.079   5.093   7.087  0.1174  0.4622 -1.8317
  712MOL0     H96087   1.238   5.070   7.160  0.6685  0.9982 -3.3364
  712MOL0     H96088   1.175   5.197   7.350 -3.1795 -3.0126  2.3764
  712MOL0     H96089   1.052   5.291   7.259  0.8445  0.1611  2.5531
  712MOL0     H96090   1.017   5.007   7.329 -1.4192 -1.6900  0.8511
  712MOL0     H96091   0.904   5.107   7.269  0.2000 -0.6724  0.0907
  712MOL0     H96092   0.910   5.280   7.446 -0.7858 -0.1194  0.7287
  712MOL0     H96093   1.025   5.193   7.538 -2.3382  2.1234  2.4744
  712MOL0     H96094   0.734   5.150   7.464  1.0065  2.0523 -0.1686
  712MOL0     H96095   0.838   5.011   7.524 -1.3770 -0.3383  1.6460
  712MOL0     H96096   0.758   5.283   7.652  0.5940  0.2668 -0.5178
  712MOL0     H96097   0.863   5.147   7.715 -0.5601 -2.6528 -0.5730
  712MOL0     H96098   0.565   5.111   7.660 -1.1582  0.4629 -0.3740
  712MOL0     H96099   0.687   5.001   7.752 -1.4269 -0.9879 -2.9321
  712MOL0     H96100   1.256   5.487   6.937  2.0695  0.1992 -0.9928
  712MOL0     H96101   1.233   5.726   6.974  2.6921  3.4252 -0.0941
  712MOL0     H96102   1.388   6.091   7.334 -1.7862  0.7394 -0.9703
  712MOL0     H96103   1.392   6.335   7.332  2.1605 -0.6333  1.5080
  712MOL0     H96104   1.559   6.987   5.405 -0.3849  0.3088  0.4025
  712MOL0     H96105   1.498   6.990   5.191  1.2133  0.8593 -0.8508
  712MOL0     H96106   1.706   7.355   4.793  1.3363  1.5352 -2.8537
  712MOL0     H96107   1.666   7.422   4.565 -0.2504  1.4763  0.5755
  712MOL0     H96108   1.307   7.465   4.452 -2.0584 -1.7497  1.1379
  712MOL0     H96109   1.266   7.322   4.385  0.6167  0.1779  2.3587
  712MOL0     H96110   1.288   7.507   4.199 -1.8216  0.0023  3.1636
  712MOL0     H96111   1.390   7.370   4.173 -2.5416 -1.7731  1.6024
  712MOL0     H96112   1.605   7.501   4.229  2.3276  4.7672  1.8744
  712MOL0     H96113   1.510   7.607   4.333  2.9271  0.3252  0.4837
  712MOL0     H96114   1.518   7.609   4.025  2.8925  1.3779 -0.2968
  712MOL0     H96115   1.396   7.691   4.126  0.5538  1.0875  1.3152
  712MOL0     H96116   1.754   7.908   4.216  2.0314 -1.5711 -3.9343
  712MOL0     H96117   1.308   7.179   4.566  1.8224 -0.2944 -2.0201
  712MOL0     H96118   1.243   7.043   4.761 -1.2316 -0.6248  1.6073
  712MOL0     H96119   1.373   7.037   4.880  2.4329  1.2832 -1.9044
  712MOL0     H96120   1.253   7.166   4.890  2.4499  2.3366  1.1678
  713MOL0     O96121   6.781   7.470   3.866  0.4949  0.0380  0.9072
  713MOL0     C96122   6.776   7.391   3.771 -0.7981  0.6578 -0.7436
  713MOL0     O96123   6.876   7.379   3.676  0.0666 -0.0244 -0.6794
  713MOL0     C96124   6.963   7.476   3.679 -0.3449 -0.2958  0.1027
  713MOL0     C96125   6.928   7.605   3.635 -0.9193 -0.6728 -1.1516
  713MOL0     C96126   7.022   7.707   3.645  0.1295  1.1892  0.3591
  713MOL0     C96127   7.146   7.696   3.709  1.1049  0.4991  0.2947
  713MOL0     O96128   7.223   7.800   3.713 -0.7627  0.5964 -0.2892
  713MOL0     C96129   7.363   7.768   3.672 -0.1798  0.3122  0.2215
  713MOL0     C96130   7.422   7.878   3.597 -0.6828  0.5313  0.0903
  713MOL0     C96131   7.442   8.014   3.657  0.3552  0.7610  0.1167
  713MOL0     C96132   7.492   8.119   3.558  1.1339 -0.1386  0.4383
  713MOL0     C96133   7.396   8.136   3.440 -0.5594 -0.3417 -0.2656
  713MOL0     C96134   7.370   8.286   3.418 -0.2668  0.5473  0.6836
  713MOL0     C96135   7.298   8.310   3.285 -1.1762  0.5771 -0.0202
  713MOL0     C96136   7.266   8.459   3.258 -0.1587  0.9875 -0.6276
  713MOL0     N96137   7.160   8.506   3.349 -0.0425 -0.4033 -0.4318
  713MOL0     C96138   7.026   8.498   3.321 -0.2271 -0.2865  0.8550
  713MOL0     C96139   6.966   8.581   3.417 -0.8380  0.2270 -0.1447
  713MOL0     C96140   6.823   8.585   3.452  1.1357 -0.0449  0.3106
  713MOL0     C96141   6.738   8.609   3.320 -0.3109 -0.0771  0.7992
  713MOL0     C96142   6.584   8.619   3.324 -0.9291  0.2360  0.9458
  713MOL0     C96143   6.533   8.743   3.391 -0.6304 -0.2205 -1.3159
  713MOL0     O96144   6.391   8.754   3.372 -0.4636  0.7320 -0.5172
  713MOL0     C96145   6.345   8.851   3.458  0.9687 -0.0922  0.9025
  713MOL0     C96146   6.295   8.816   3.584 -0.1870 -0.0370 -0.4218
  713MOL0     C96147   6.254   8.913   3.671 -0.4152  0.3605  0.9177
  713MOL0     C96148   6.270   9.054   3.648 -0.3553  1.2338 -0.0256
  713MOL0     C96149   6.254   9.145   3.767  0.1658 -0.3749  0.0795
  713MOL0     O96150   6.302   9.270   3.749 -0.4967  1.0599  0.7075
  713MOL0     C96151   6.304   9.367   3.849  0.6995 -0.0955 -0.0633
  713MOL0     C96152   6.365   9.349   3.977  0.0576 -0.3796  0.0797
  713MOL0     C96153   6.371   9.455   4.068  0.3144  0.0464  1.2292
  713MOL0     C96154   6.338   9.590   4.028 -0.5981  0.4438 -1.1315
  713MOL0     O96155   6.370   9.703   4.098  0.2178 -0.0582 -0.2314
  713MOL0     C96156   6.331   9.685   4.232  0.1766  0.0079  0.2153
  713MOL0     C96157   6.362   9.804   4.320 -0.0579 -0.8929  0.3226
  713MOL0     C96158   6.513   9.825   4.345  0.7465 -0.1473 -0.4206
  713MOL0     C96159   6.535   9.975   4.370  0.0002  0.6609  0.5280
  713MOL0     C96160   6.644  10.009   4.468 -0.9637  0.1721  0.0199
  713MOL0     C96161   6.600   9.988   4.614  0.1471 -0.5260 -0.3081
  713MOL0     C96162   6.712   9.982   4.712 -0.5104  0.7603 -0.1580
  713MOL0     C96163   6.696  10.069   4.832 -1.1503 -0.1200 -0.4576
  713MOL0    Cl96164   6.768  10.231   4.798  0.5116 -0.3628  0.3176
  713MOL0     C96165   6.283   9.597   3.900  0.0171 -0.2217  0.3123
  713MOL0     C96166   6.266   9.493   3.809 -0.3402  0.0230 -1.1787
  713MOL0     O96167   6.207   9.100   3.872  0.4191 -0.3349  0.8040
  713MOL0     C96168   6.321   9.091   3.521 -0.9995  0.0387 -0.1432
  713MOL0     C96169   6.355   8.984   3.430 -0.3850 -1.0081 -0.2620
  713MOL0     N96170   7.069   8.646   3.489  0.1433 -0.0461  0.5586
  713MOL0     N96171   7.180   8.590   3.448  0.5610  0.0363  0.6854
  713MOL0     C96172   7.181   7.567   3.761  0.0289  0.4451 -0.3830
  713MOL0     C96173   7.090   7.459   3.742 -0.7938 -0.3320  0.4838
  713MOL0     C96174   6.681   7.271   3.777  0.5753  0.7638 -0.2433
  713MOL0     C96175   6.708   7.162   3.693 -0.4707  0.3555  0.9057
  713MOL0     C96176   6.658   7.037   3.724  0.3135 -0.0691 -0.2751
  713MOL0     C96177   6.558   7.022   3.823 -1.0422  0.7446 -0.8865
  713MOL0     O96178   6.504   6.903   3.865 -1.1183  0.9310  0.3322
  713MOL0     C96179   6.534   6.789   3.780  0.9581  0.2740 -0.3392
  713MOL0     C96180   6.444   6.662   3.820  0.1603 -0.8663 -0.1983
  713MOL0     C96181   6.460   6.550   3.722  0.7144  0.0882 -0.2455
  713MOL0     C96182   6.411   6.409   3.772  0.1603 -0.1181  0.4079
  713MOL0     C96183   6.263   6.398   3.790 -0.6616  0.4894 -0.5401
  713MOL0     C96184   6.153   6.373   3.839 -0.4221  0.6532  0.5792
  713MOL0     C96185   6.513   7.138   3.890  0.0142  0.1892  0.2152
  713MOL0     C96186   6.573   7.259   3.865  0.5247  0.0914  0.3389
  713MOL0     C96187   6.511   7.385   3.939 -0.3895  0.4044  0.2965
  713MOL0     H96188   6.841   7.636   3.578  0.2654  0.5948 -2.3283
  713MOL0     H96189   6.987   7.802   3.605 -4.1635 -0.1490  0.4177
  713MOL0     H96190   7.417   7.757   3.767  0.3532  1.1752  0.0289
  713MOL0     H96191   7.360   7.674   3.617 -0.5254  1.6321 -2.1667
  713MOL0     H96192   7.362   7.879   3.506 -0.1325 -2.0745 -0.4007
  713MOL0     H96193   7.523   7.842   3.574 -1.6111 -1.8442 -0.5705
  713MOL0     H96194   7.520   7.999   3.732  3.3934  2.0059 -2.5224
  713MOL0     H96195   7.354   8.055   3.708 -0.4389 -0.1763 -0.4617
  713MOL0     H96196   7.514   8.218   3.598 -2.2231  1.4905 -1.3265
  713MOL0     H96197   7.586   8.080   3.520  0.2599 -0.1700 -1.8196
  713MOL0     H96198   7.452   8.088   3.359  3.6036  3.0294  0.2349
  713MOL0     H96199   7.297   8.095   3.456  1.1564 -3.9471  2.4973
  713MOL0     H96200   7.302   8.316   3.498 -0.9694  0.3795  0.1653
  713MOL0     H96201   7.466   8.339   3.425  2.3290 -1.6603 -7.0217
  713MOL0     H96202   7.206   8.251   3.291 -0.5130 -0.3716  1.4190
  713MOL0     H96203   7.356   8.263   3.205  0.2276  0.6695  0.9142
  713MOL0     H96204   7.349   8.526   3.285  0.8720 -0.7778  0.8915
  713MOL0     H96205   7.243   8.475   3.153 -3.9989  1.8671  0.1992
  713MOL0     H96206   6.990   8.434   3.242  0.2195  2.6429 -1.9263
  713MOL0     H96207   6.791   8.491   3.498 -0.8673  0.1485 -0.5654
  713MOL0     H96208   6.809   8.668   3.521  0.7873  2.6476 -2.7698
  713MOL0     H96209   6.775   8.701   3.275  2.5700 -2.7772 -2.9993
  713MOL0     H96210   6.762   8.527   3.252  1.2960 -2.2842  3.7789
  713MOL0     H96211   6.538   8.531   3.369  0.5632 -2.5781 -2.4922
  713MOL0     H96212   6.549   8.617   3.220 -1.0354 -1.9398  0.9777
  713MOL0     H96213   6.579   8.830   3.342 -0.0118 -0.4652 -1.1823
  713MOL0     H96214   6.567   8.760   3.494  2.0599  1.2954 -2.3433
  713MOL0     H96215   6.284   8.709   3.594  0.1976 -0.2192 -1.7586
  713MOL0     H96216   6.215   8.876   3.766 -1.0584 -2.4139 -0.3066
  713MOL0     H96217   6.415   9.257   4.008 -0.4388 -1.7564 -2.8593
  713MOL0     H96218   6.429   9.436   4.158 -1.6542  0.9794  2.7589
  713MOL0     H96219   6.225   9.658   4.229  0.6944 -2.2606 -2.4267
  713MOL0     H96220   6.390   9.607   4.280 -0.2762  1.2224  2.8929
  713MOL0     H96221   6.316   9.888   4.267 -1.4369 -2.8741 -1.7580
  713MOL0     H96222   6.312   9.802   4.417 -2.4715 -1.9849 -0.8684
  713MOL0     H96223   6.543   9.764   4.430 -0.1044  1.8555  1.4142
  713MOL0     H96224   6.568   9.793   4.256 -1.6585  0.1788 -2.1270
  713MOL0     H96225   6.442  10.024   4.399 -1.0133 -1.4145  1.0197
  713MOL0     H96226   6.546  10.019   4.271  2.2644  1.0185  0.8931
  713MOL0     H96227   6.669  10.113   4.446  5.3217 -1.1590 -1.0299
  713MOL0     H96228   6.732   9.947   4.449 -0.3945  0.5767  1.2265
  713MOL0     H96229   6.555  10.082   4.648 -0.3898 -1.0209  0.3666
  713MOL0     H96230   6.532   9.904   4.632 -0.9975  0.4216 -0.0931
  713MOL0     H96231   6.811   9.991   4.667  0.5685 -2.4212  1.2590
  713MOL0     H96232   6.709   9.878   4.749  2.0292  0.0762 -1.6721
  713MOL0     H96233   6.593  10.076   4.869 -1.3279 -2.3984 -0.3259
  713MOL0     H96234   6.753  10.015   4.909  0.5071  0.1147 -1.4739
  713MOL0     H96235   6.251   9.696   3.869  0.8087 -1.2051 -4.4330
  713MOL0     H96236   6.207   9.522   3.723  1.0572  1.7614 -1.6140
  713MOL0     H96237   6.350   9.193   3.498  0.9395 -0.7694 -1.5435
  713MOL0     H96238   6.392   9.018   3.334 -2.1723 -2.5902 -1.5817
  713MOL0     H96239   7.282   7.544   3.793  0.0167  0.7846 -0.0997
  713MOL0     H96240   7.111   7.363   3.787 -0.1096 -0.7017 -0.5823
  713MOL0     H96241   6.778   7.170   3.611 -1.0823 -1.2345  0.1858
  713MOL0     H96242   6.680   6.946   3.669  1.9154 -0.4434  0.9162
  713MOL0     H96243   6.640   6.762   3.786  0.4548 -1.8414  0.0256
  713MOL0     H96244   6.499   6.816   3.680 -0.2018 -0.5868 -0.1846
  713MOL0     H96245   6.341   6.698   3.828  0.8774  1.1283  0.7167
  713MOL0     H96246   6.480   6.635   3.920  0.2698 -1.3009 -0.3523
  713MOL0     H96247   6.568   6.543   3.703  1.4899  2.0535  2.7721
  713MOL0     H96248   6.401   6.573   3.632  0.2868  1.1022  0.2789
  713MOL0     H96249   6.442   6.331   3.703 -0.7395 -1.3771  1.3716
  713MOL0     H96250   6.453   6.389   3.871 -0.0876  1.6307  0.8895
  713MOL0     H96251   6.059   6.350   3.884 -0.2775  0.3946  0.7546
  713MOL0     H96252   6.430   7.126   3.959 -0.1555  3.1260  0.6367
  713MOL0     H96253   6.554   7.390   4.039  3.5189 -0.2059 -1.1732
  713MOL0     H96254   6.524   7.480   3.886  2.4059 -0.0243  0.0809
  713MOL0     H96255   6.403   7.373   3.949 -0.2728  1.2153  3.3924
  714MOL0     O96256   5.594   8.398   0.376  0.5865  0.8275 -0.3601
  714MOL0     C96257   5.620   8.285   0.403  0.3647 -0.1016 -0.8449
  714MOL0     O96258   5.741   8.241   0.448  0.0699 -0.4322 -0.1697
  714MOL0     C96259   5.839   8.340   0.476 -0.3120  0.4308  1.0677
  714MOL0     C96260   5.923   8.384   0.373 -0.2285 -0.7415  0.0308
  714MOL0     C96261   6.019   8.484   0.408 -0.6910 -0.1056 -0.1858
  714MOL0     C96262   6.038   8.523   0.542 -0.7118 -0.9552  0.3546
  714MOL0     O96263   6.135   8.602   0.591  0.0702  0.3231  0.1415
  714MOL0     C96264   6.185   8.701   0.512  0.7449 -0.5194 -0.1976
  714MOL0     C96265   6.279   8.785   0.599 -0.8335  0.5661 -0.1721
  714MOL0     C96266   6.339   8.909   0.529  0.1196  1.0821 -0.3474
  714MOL0     C96267   6.240   9.027   0.505 -0.7348  0.8410  0.3398
  714MOL0     C96268   6.313   9.143   0.428 -0.9513 -0.4065  0.7645
  714MOL0     C96269   6.221   9.251   0.368  0.6081 -0.0508 -0.1823
  714MOL0     C96270   6.290   9.382   0.346  0.1202 -0.0086 -0.8047
  714MOL0     C96271   6.335   9.402   0.202  0.5552  0.8002  0.4380
  714MOL0     N96272   6.419   9.522   0.188 -0.7222 -0.2673  0.6510
  714MOL0     C96273   6.549   9.523   0.137 -0.3443  0.0784 -0.2876
  714MOL0     C96274   6.569   9.651   0.097  0.4303  0.7825  0.3827
  714MOL0     C96275   6.667   9.711  -0.002 -0.5102  1.0239  0.1971
  714MOL0     C96276   6.645   9.664  -0.149 -0.4700  0.2797  0.9883
  714MOL0     C96277   6.707   9.529  -0.201 -0.0931 -0.3489  0.3296
  714MOL0     C96278   6.691   9.487  -0.347 -0.1965 -0.3546  0.0744
  714MOL0     O96279   6.802   9.535  -0.423  0.1606 -0.7752 -0.3311
  714MOL0     C96280   6.777   9.630  -0.515 -0.3301 -0.3304  0.1657
  714MOL0     C96281   6.884   9.660  -0.607 -0.1192  1.2065  0.3358
  714MOL0     C96282   6.864   9.757  -0.701 -1.9434 -0.1087 -0.2056
  714MOL0     C96283   6.743   9.828  -0.722 -0.1337 -0.3974  0.0875
  714MOL0     C96284   6.740   9.931  -0.818  0.9105  0.3833  0.3918
  714MOL0     O96285   6.860   9.959  -0.871 -0.4680  0.9717  0.0010
  714MOL0     C96286   6.866  10.047  -0.974 -0.4499 -0.3971  0.1455
  714MOL0     C96287   6.863  10.009  -1.103  0.5100  0.4011  0.4998
  714MOL0     C96288   6.838  10.106  -1.203  0.3241 -0.0338  0.2335
  714MOL0     C96289   6.841  10.239  -1.170  0.1637  0.3148 -0.0921
  714MOL0     O96290   6.832  10.333  -1.266  0.1137 -0.4329 -0.1766
  714MOL0     C96291   6.901  10.291  -1.394  0.6499 -0.4696 -0.6458
  714MOL0     C96292   6.930  10.415  -1.473 -0.7413  0.3452 -0.8207
  714MOL0     C96293   7.021  10.396  -1.596 -0.0040 -0.5402  0.3578
  714MOL0     C96294   7.051  10.534  -1.650 -0.2636  0.0774 -0.3500
  714MOL0     C96295   7.131  10.642  -1.564 -1.0258  0.3672 -0.0690
  714MOL0     C96296   7.263  10.598  -1.505 -0.4430 -0.1369 -0.2867
  714MOL0     C96297   7.333  10.713  -1.431  0.0061 -0.0229 -0.6277
  714MOL0     C96298   7.477  10.672  -1.392 -0.3712 -0.9838  0.8893
  714MOL0    Cl96299   7.475  10.538  -1.277 -0.1301 -0.1795  0.2954
  714MOL0     C96300   6.846  10.291  -1.032 -0.5840  0.9478 -0.4324
  714MOL0     C96301   6.865  10.187  -0.941 -0.7679 -0.1243  0.2788
  714MOL0     O96302   6.635   9.983  -0.853 -0.4973  0.0580 -0.0350
  714MOL0     C96303   6.636   9.789  -0.638 -0.0402  0.7488  0.2729
  714MOL0     C96304   6.660   9.699  -0.534  0.4399 -0.4857 -0.2978
  714MOL0     N96305   6.464   9.721   0.139  1.2185 -0.1464 -0.0269
  714MOL0     N96306   6.361   9.644   0.178 -1.1652  0.1943 -0.0531
  714MOL0     C96307   5.964   8.465   0.643 -0.4359  0.8138 -0.6014
  714MOL0     C96308   5.867   8.371   0.609 -0.2146  0.1450 -0.9496
  714MOL0     C96309   5.511   8.188   0.406  0.6141  1.2917 -0.3868
  714MOL0     C96310   5.430   8.174   0.521 -0.3978  0.0701  0.3462
  714MOL0     C96311   5.336   8.072   0.529 -0.6370  0.3951  0.6049
  714MOL0     C96312   5.321   7.976   0.430  0.0066 -0.1144  0.2591
  714MOL0     O96313   5.229   7.878   0.456 -0.3405  0.6094 -0.1077
  714MOL0     C96314   5.268   7.743   0.428  0.3131 -0.5041 -0.1967
  714MOL0     C96315   5.145   7.655   0.469 -0.9891 -0.1652 -0.0076
  714MOL0     C96316   5.029   7.660   0.363  0.2266 -0.7215 -1.0942
  714MOL0     C96317   4.952   7.526   0.339 -0.3111  0.5990 -0.6645
  714MOL0     C96318   4.832   7.543   0.263  0.0680 -0.6565 -1.2994
  714MOL0     C96319   4.724   7.561   0.211  0.0080 -0.1849  0.4414
  714MOL0     C96320   5.406   7.984   0.320  0.0222 -0.5485 -0.7873
  714MOL0     C96321   5.511   8.087   0.309  0.1927  0.3404  0.2668
  714MOL0     C96322   5.594   8.073   0.188 -0.0736  0.1198  0.1902
  714MOL0     H96323   5.917   8.341   0.273 -2.1124  2.1013 -1.2014
  714MOL0     H96324   6.087   8.525   0.333  2.3976  0.7642  2.7996
  714MOL0     H96325   6.252   8.663   0.434  1.6465  0.7407 -0.0775
  714MOL0     H96326   6.104   8.760   0.467  1.8390 -0.0999 -1.7067
  714MOL0     H96327   6.360   8.726   0.643 -1.1979 -1.4200 -1.9685
  714MOL0     H96328   6.225   8.835   0.679  0.8112  3.5586 -0.7961
  714MOL0     H96329   6.378   8.883   0.430  1.1124 -1.9147  0.7147
  714MOL0     H96330   6.419   8.941   0.596  0.6033  0.5117 -0.6368
  714MOL0     H96331   6.159   8.992   0.441  0.8939 -1.2505 -0.7153
  714MOL0     H96332   6.208   9.071   0.599 -2.5718 -0.2595  0.2810
  714MOL0     H96333   6.380   9.193   0.498 -1.7943  2.5052 -0.3537
  714MOL0     H96334   6.379   9.096   0.354 -1.4814  1.3037 -0.8737
  714MOL0     H96335   6.168   9.221   0.276  0.9820  0.0543 -0.4342
  714MOL0     H96336   6.142   9.265   0.442  0.1407 -0.9734 -0.4905
  714MOL0     H96337   6.370   9.392   0.420 -1.7618  0.2991  1.3011
  714MOL0     H96338   6.216   9.461   0.357 -1.6946 -1.7881  0.4819
  714MOL0     H96339   6.382   9.308   0.169 -1.5468 -0.0692 -0.2186
  714MOL0     H96340   6.261   9.413   0.123  0.7611 -0.1631  0.0944
  714MOL0     H96341   6.606   9.430   0.136  0.5512  0.6216 -1.0891
  714MOL0     H96342   6.667   9.819   0.011  0.9670  1.1092 -0.3536
  714MOL0     H96343   6.768   9.673   0.019 -1.1800 -2.8748 -2.5699
  714MOL0     H96344   6.539   9.655  -0.173  0.2450  1.2901 -3.3988
  714MOL0     H96345   6.684   9.744  -0.214 -0.2288 -0.4197  0.2583
  714MOL0     H96346   6.647   9.455  -0.145 -2.5804  0.3559 -1.2240
  714MOL0     H96347   6.807   9.519  -0.158 -0.1245  1.9847  1.1077
  714MOL0     H96348   6.589   9.490  -0.387 -0.8733  3.3862  1.6034
  714MOL0     H96349   6.720   9.382  -0.348 -0.4747 -0.4763  1.7124
  714MOL0     H96350   6.982   9.623  -0.581 -1.1525 -2.8024 -0.7612
  714MOL0     H96351   6.955   9.789  -0.751 -0.0118 -1.3562  2.2943
  714MOL0     H96352   6.877   9.906  -1.134  1.0813  0.7887 -0.5971
  714MOL0     H96353   6.826  10.069  -1.304 -5.3306  0.4745  0.4371
  714MOL0     H96354   6.996  10.244  -1.368  0.5411  0.6082  1.9159
  714MOL0     H96355   6.822  10.238  -1.449  1.2395  0.8947 -2.9624
  714MOL0     H96356   6.833  10.461  -1.492 -0.9033  1.4004  2.0798
  714MOL0     H96357   6.978  10.488  -1.407 -0.0823  4.1204 -4.9501
  714MOL0     H96358   7.111  10.346  -1.560 -0.6330 -1.3426  0.8487
  714MOL0     H96359   6.965  10.330  -1.663  2.2670 -2.2255  0.0023
  714MOL0     H96360   6.970  10.600  -1.683 -0.7766 -0.7262 -0.7351
  714MOL0     H96361   7.113  10.515  -1.738 -1.8200 -2.3412 -1.0067
  714MOL0     H96362   7.066  10.666  -1.480 -3.2490 -0.4382 -1.4711
  714MOL0     H96363   7.155  10.733  -1.620  1.3864 -0.7024 -0.9091
  714MOL0     H96364   7.250  10.505  -1.450  0.6526 -1.1905 -1.7196
  714MOL0     H96365   7.326  10.575  -1.592 -0.2267 -0.1017 -0.1397
  714MOL0     H96366   7.270  10.731  -1.343  2.0232  0.6797  0.7412
  714MOL0     H96367   7.334  10.806  -1.489 -4.1852  0.1090 -0.8237
  714MOL0     H96368   7.532  10.633  -1.478 -0.7619  0.7999 -0.2203
  714MOL0     H96369   7.526  10.756  -1.341  0.1323 -2.0214  2.1782
  714MOL0     H96370   6.844  10.396  -1.006  4.0506  1.4035 -1.0365
  714MOL0     H96371   6.890  10.196  -0.836 -1.3392 -3.8352  0.8949
  714MOL0     H96372   6.539   9.824  -0.674 -0.0536 -1.3367 -2.0212
  714MOL0     H96373   6.571   9.679  -0.475 -0.3426 -0.8690 -1.5543
  714MOL0     H96374   5.982   8.483   0.748  1.1734  0.2328 -0.7578
  714MOL0     H96375   5.795   8.334   0.682  0.3570  1.5137  0.3673
  714MOL0     H96376   5.430   8.241   0.607 -2.0934 -0.4994  0.8424
  714MOL0     H96377   5.269   8.059   0.614 -0.8176 -5.5910 -0.0266
  714MOL0     H96378   5.360   7.714   0.480  1.7533  2.6960 -0.7421
  714MOL0     H96379   5.293   7.727   0.323  1.6009  2.3852 -0.3970
  714MOL0     H96380   5.116   7.678   0.573  0.9498 -1.5677  0.9038
  714MOL0     H96381   5.176   7.550   0.473 -0.6738 -0.0863 -0.3616
  714MOL0     H96382   5.070   7.694   0.268  0.4770  1.5894 -0.2296
  714MOL0     H96383   4.968   7.747   0.392 -1.2404 -0.3919 -4.6867
  714MOL0     H96384   5.022   7.463   0.283  3.1990  4.2854 -0.9068
  714MOL0     H96385   4.933   7.481   0.437  0.2668 -0.5646 -1.0634
  714MOL0     H96386   4.627   7.570   0.166 -1.1369 -0.4204  2.6986
  714MOL0     H96387   5.388   7.904   0.250  1.1096 -0.5128 -1.1262
  714MOL0     H96388   5.692   8.055   0.232 -0.1161  3.1350  1.7657
  714MOL0     H96389   5.559   7.986   0.131 -2.3062  0.9959  0.0958
  714MOL0     H96390   5.598   8.170   0.136 -1.7373  1.3960  2.2595
  715MOL0     O96391   7.627   3.954   9.824 -0.3757 -0.8703  0.6762
  715MOL0     C96392   7.692   4.009   9.917  0.6608  0.2258 -0.4472
  715MOL0     O96393   7.814   4.057   9.908  0.2769  0.1439 -0.3192
  715MOL0     C96394   7.865   4.095   9.785  0.3388 -0.0337  0.4576
  715MOL0     C96395   7.799   4.168   9.685  0.6106  0.7453 -1.1564
  715MOL0     C96396   7.867   4.202   9.572 -0.8475  0.2769  0.5417
  715MOL0     C96397   8.009   4.204   9.568  0.1218  0.4049 -0.9966
  715MOL0     O96398   8.082   4.256   9.469  0.3001  0.2080 -0.7740
  715MOL0     C96399   8.022   4.332   9.363 -0.0477 -1.2528 -0.4262
  715MOL0     C96400   8.125   4.392   9.270  0.4353  0.1010 -0.1606
  715MOL0     C96401   8.242   4.466   9.337 -0.0931  0.2421 -0.1001
  715MOL0     C96402   8.353   4.516   9.242  0.7071  1.2636  0.9421
  715MOL0     C96403   8.475   4.578   9.309  0.5076 -0.2532 -0.0802
  715MOL0     C96404   8.604   4.576   9.218  0.1330  0.5871  0.4641
  715MOL0     C96405   8.585   4.675   9.097 -0.3232  1.1992 -0.3302
  715MOL0     C96406   8.579   4.817   9.140 -0.2582 -0.0839  0.6406
  715MOL0     N96407   8.693   4.864   9.224 -0.3079  0.3250 -0.5530
  715MOL0     C96408   8.811   4.906   9.169 -0.1385  0.0105  0.1748
  715MOL0     C96409   8.898   4.910   9.275  0.4938  0.0009 -0.4309
  715MOL0     C96410   9.046   4.923   9.259 -0.2653 -0.7253  0.9155
  715MOL0     C96411   9.115   4.789   9.236 -0.1262 -0.2331  0.9502
  715MOL0     C96412   9.262   4.802   9.236  0.0870  0.3917 -0.0207
  715MOL0     C96413   9.349   4.666   9.220 -0.5404 -0.5405  0.9728
  715MOL0     O96414   9.444   4.688   9.120  0.9107 -0.7160  0.5368
  715MOL0     C96415   9.441   4.608   9.011 -0.8714  0.0526  0.0597
  715MOL0     C96416   9.434   4.466   9.018  0.5717 -0.8587 -0.2767
  715MOL0     C96417   9.431   4.387   8.908 -0.2064 -0.3590 -0.6885
  715MOL0     C96418   9.448   4.452   8.783  0.0869 -1.1026  0.3529
  715MOL0     C96419   9.456   4.367   8.661  0.3568 -0.7327 -0.6218
  715MOL0     O96420   9.403   4.232   8.672  0.5876  0.6683  0.1508
  715MOL0     C96421   9.417   4.159   8.556  0.6772  0.4514 -0.1275
  715MOL0     C96422   9.522   4.064   8.550  0.6354  0.7911 -0.7327
  715MOL0     C96423   9.533   3.970   8.452  0.4432  0.6604 -0.8389
  715MOL0     C96424   9.427   3.967   8.355 -0.6974 -0.0860  0.1927
  715MOL0     O96425   9.420   3.882   8.246  0.6091  0.2838 -0.6988
  715MOL0     C96426   9.468   3.745   8.256  1.1006  0.0121  0.6138
  715MOL0     C96427   9.377   3.675   8.150 -0.6900  0.3300 -1.1553
  715MOL0     C96428   9.393   3.727   8.005 -0.5009  0.7437 -1.2678
  715MOL0     C96429   9.274   3.681   7.917 -0.3863  0.4278 -0.3663
  715MOL0     C96430   9.303   3.678   7.769 -0.5668  0.1457 -0.4542
  715MOL0     C96431   9.412   3.580   7.729 -0.7396  0.9538  0.1371
  715MOL0     C96432   9.403   3.547   7.578  0.6807 -0.6488 -0.3988
  715MOL0     C96433   9.477   3.429   7.534  0.4518 -0.4138  0.2271
  715MOL0    Cl96434   9.393   3.370   7.384 -0.3353  0.4435  0.5531
  715MOL0     C96435   9.328   4.072   8.353  0.1425  0.3321  0.3345
  715MOL0     C96436   9.320   4.163   8.459  0.5798  0.0599  0.0144
  715MOL0     O96437   9.498   4.421   8.560  1.0387 -0.1107  0.9005
  715MOL0     C96438   9.467   4.590   8.770  0.8067  0.0370  0.3993
  715MOL0     C96439   9.468   4.672   8.887  0.2391 -0.6927 -0.8085
  715MOL0     N96440   8.838   4.862   9.394  0.3153 -0.6817  0.1829
  715MOL0     N96441   8.706   4.850   9.366  0.5469 -0.0148  0.0950
  715MOL0     C96442   8.077   4.143   9.685  0.2927 -0.8324 -1.1906
  715MOL0     C96443   7.998   4.091   9.795 -0.5248  0.5408  0.5937
  715MOL0     C96444   7.620   4.020  10.050  0.2267 -0.2916  0.4661
  715MOL0     C96445   7.479   4.027  10.034  0.1388 -0.1514 -0.4299
  715MOL0     C96446   7.407   4.033  10.150  0.2371  0.8294 -1.0517
  715MOL0     C96447   7.458   4.034  10.285 -0.1184  0.6705  0.5280
  715MOL0     O96448   7.374   4.061  10.392  0.2918 -0.0088  0.3181
  715MOL0     C96449   7.234   4.076  10.394 -0.0814 -0.0209 -0.0662
  715MOL0     C96450   7.182   4.116  10.528 -0.5310  0.3436  0.2814
  715MOL0     C96451   7.030   4.139  10.531  0.4753 -0.6850 -0.3118
  715MOL0     C96452   6.993   4.171  10.678 -0.4680  0.8395  0.3230
  715MOL0     C96453   6.849   4.129  10.704  0.1248 -0.2423 -0.0298
  715MOL0     C96454   6.740   4.073  10.734 -0.8335 -0.5094  0.4445
  715MOL0     C96455   7.601   4.027  10.290 -0.4828  0.1469  1.0021
  715MOL0     C96456   7.680   4.008  10.177 -0.3697 -0.9289  0.1074
  715MOL0     C96457   7.830   4.004  10.196  0.2112 -0.3327 -0.2871
  715MOL0     H96458   7.693   4.185   9.695  0.2264 -0.2106 -3.1307
  715MOL0     H96459   7.806   4.229   9.487  0.5191 -1.3412 -1.0511
  715MOL0     H96460   7.956   4.268   9.303 -2.1120 -1.1533  1.5738
  715MOL0     H96461   7.959   4.406   9.414  0.4501 -2.1141  1.5433
  715MOL0     H96462   8.068   4.454   9.200  1.3933 -0.1667 -1.1930
  715MOL0     H96463   8.171   4.317   9.205 -0.5984  1.1315 -2.1763
  715MOL0     H96464   8.285   4.396   9.409  0.4810  1.0897  0.3973
  715MOL0     H96465   8.208   4.545   9.404  0.0494 -1.8760  2.6291
  715MOL0     H96466   8.380   4.435   9.174 -1.1966  1.4246 -0.0958
  715MOL0     H96467   8.310   4.598   9.185 -0.8725 -0.0349  0.1631
  715MOL0     H96468   8.453   4.683   9.331  1.0032  0.2949 -1.9934
  715MOL0     H96469   8.486   4.542   9.412  0.1677 -0.6886 -0.1958
  715MOL0     H96470   8.687   4.610   9.281  1.2172  0.3182 -0.7678
  715MOL0     H96471   8.623   4.471   9.197 -4.4768 -0.7307  1.7619
  715MOL0     H96472   8.496   4.650   9.038 -0.5361  0.9682  0.0840
  715MOL0     H96473   8.668   4.661   9.028  3.7381  0.6503  4.1444
  715MOL0     H96474   8.566   4.872   9.046  1.3374 -0.5654  0.0997
  715MOL0     H96475   8.488   4.831   9.199 -0.1220  1.4492  0.5179
  715MOL0     H96476   8.833   4.925   9.064 -3.7584  5.3692  0.0398
  715MOL0     H96477   9.059   4.992   9.174 -1.9515  0.2754  1.4100
  715MOL0     H96478   9.087   4.984   9.340  1.2028  0.6010 -0.7361
  715MOL0     H96479   9.090   4.717   9.314  1.4120 -1.4017  0.4103
  715MOL0     H96480   9.074   4.752   9.142 -4.4337  0.2949  2.4317
  715MOL0     H96481   9.288   4.841   9.335 -2.0398  0.6037  0.5057
  715MOL0     H96482   9.281   4.872   9.153 -4.1986 -0.8983 -2.3765
  715MOL0     H96483   9.280   4.588   9.185 -0.8661 -0.7025  1.9500
  715MOL0     H96484   9.393   4.625   9.311  0.4171  1.6156  1.5230
  715MOL0     H96485   9.429   4.402   9.105  0.3261 -1.8900 -1.0322
  715MOL0     H96486   9.416   4.280   8.914 -3.5817  0.0629  0.5443
  715MOL0     H96487   9.603   4.075   8.621 -0.2437 -2.0929  0.8523
  715MOL0     H96488   9.610   3.894   8.439  2.1924  2.6471 -2.9732
  715MOL0     H96489   9.575   3.748   8.233  0.9974  0.1129  0.1212
  715MOL0     H96490   9.462   3.715   8.361  0.0564 -1.1221  0.2531
  715MOL0     H96491   9.390   3.566   8.145 -1.2214  0.0763  1.3847
  715MOL0     H96492   9.274   3.688   8.184 -0.3445 -2.1926  1.3446
  715MOL0     H96493   9.399   3.836   8.014 -1.6479  0.6307  2.4157
  715MOL0     H96494   9.488   3.689   7.965  0.3158 -0.0922  1.2722
  715MOL0     H96495   9.186   3.737   7.948 -2.3381 -0.4221 -3.8508
  715MOL0     H96496   9.252   3.577   7.945 -2.8795  0.2006 -2.7527
  715MOL0     H96497   9.322   3.771   7.713  0.7294 -1.3198 -2.6083
  715MOL0     H96498   9.204   3.647   7.733 -1.5866 -1.1361  3.0698
  715MOL0     H96499   9.516   3.609   7.749 -1.1803  1.7674  1.2929
  715MOL0     H96500   9.401   3.487   7.786  1.6898 -0.6041 -1.6839
  715MOL0     H96501   9.436   3.638   7.527  1.4409  0.8880  2.6041
  715MOL0     H96502   9.296   3.528   7.566  0.4254  0.7658 -0.5213
  715MOL0     H96503   9.582   3.456   7.522 -0.1539  2.4959  0.8317
  715MOL0     H96504   9.470   3.354   7.613  0.8563 -0.6096  0.0806
  715MOL0     H96505   9.246   4.071   8.282  0.4224 -0.2145  0.0137
  715MOL0     H96506   9.245   4.241   8.454  0.3061 -0.2352 -5.1233
  715MOL0     H96507   9.482   4.644   8.677 -2.7982 -0.8678 -0.8595
  715MOL0     H96508   9.480   4.780   8.883  3.0553 -0.8135  1.2120
  715MOL0     H96509   8.185   4.149   9.685  0.2733  0.3931  0.8034
  715MOL0     H96510   8.051   4.049   9.880  0.2155 -3.7621 -1.7107
  715MOL0     H96511   7.434   4.025   9.936 -1.5843 -0.9302  0.3410
  715MOL0     H96512   7.299   4.044  10.144  0.1447  0.0922 -0.8723
  715MOL0     H96513   7.200   3.980  10.355 -1.0670  0.7892 -1.2850
  715MOL0     H96514   7.205   4.151  10.319 -1.4302  0.1069  0.5499
  715MOL0     H96515   7.234   4.211  10.542  2.2448 -0.2871 -4.1428
  715MOL0     H96516   7.219   4.048  10.605  1.8496  2.4713  1.1721
  715MOL0     H96517   6.988   4.046  10.494 -2.5034 -0.1861  1.4695
  715MOL0     H96518   6.996   4.218  10.464 -1.1500 -1.3929 -0.3685
  715MOL0     H96519   7.068   4.123  10.741  1.6986  1.2254 -1.7982
  715MOL0     H96520   6.991   4.280  10.691 -2.0199  1.2350 -2.3980
  715MOL0     H96521   6.643   4.029  10.746  1.1694 -5.8982 -0.1848
  715MOL0     H96522   7.643   4.043  10.389 -1.0952  2.2268  0.9744
  715MOL0     H96523   7.849   3.966  10.297 -2.2201  0.8631  0.7063
  715MOL0     H96524   7.872   3.930  10.127 -3.1353 -3.5018  0.7656
  715MOL0     H96525   7.871   4.105  10.187  3.3037 -1.1370  2.7045
  716MOL0     O96526   5.080   3.932   1.530  0.1508  0.0849  0.1775
  716MOL0     C96527   4.990   3.965   1.451 -0.1368 -0.6613 -0.1650
  716MOL0     O96528   4.996   3.961   1.311 -0.3064  0.6541  0.3954
  716MOL0     C96529   5.100   3.931   1.230 -0.5947 -0.1342  0.2516
  716MOL0     C96530   5.210   3.851   1.264  0.1181  0.1316  0.0891
  716MOL0     C96531   5.307   3.812   1.178 -0.2093 -0.3847 -0.1354
  716MOL0     C96532   5.301   3.866   1.050  0.9913 -0.3578  0.6046
  716MOL0     O96533   5.407   3.853   0.965 -0.5295  0.2076  0.3366
  716MOL0     C96534   5.372   3.761   0.858  0.5667 -0.4771 -0.6011
  716MOL0     C96535   5.499   3.720   0.787  0.4233 -0.8169  0.6313
  716MOL0     C96536   5.597   3.648   0.874  0.3969  0.8352 -0.7973
  716MOL0     C96537   5.692   3.556   0.791  0.0311  0.7350 -0.9223
  716MOL0     C96538   5.815   3.496   0.863  0.8435  0.3159 -1.1777
  716MOL0     C96539   5.824   3.348   0.830  0.0033 -0.0557 -0.9709
  716MOL0     C96540   5.715   3.255   0.909  0.0220  0.3029  0.3925
  716MOL0     C96541   5.761   3.107   0.921  1.0659 -0.0438  0.0508
  716MOL0     N96542   5.801   3.046   0.788 -0.2941  1.0836  0.1770
  716MOL0     C96543   5.703   3.040   0.687 -0.4195 -0.5697  0.3530
  716MOL0     C96544   5.771   2.992   0.583  0.2312 -0.0146 -0.1788
  716MOL0     C96545   5.720   2.954   0.442  0.2675  0.5996  0.0788
  716MOL0     C96546   5.619   2.835   0.437  0.4804  0.9488 -0.1432
  716MOL0     C96547   5.549   2.838   0.289 -1.3679  0.8553 -0.6062
  716MOL0     C96548   5.434   2.748   0.269 -0.0188  0.3194  0.5807
  716MOL0     O96549   5.340   2.790   0.364 -0.0765 -0.0588 -0.2117
  716MOL0     C96550   5.226   2.718   0.377 -0.2906  0.6408 -1.2989
  716MOL0     C96551   5.162   2.640   0.280  0.2805 -0.4868 -0.8761
  716MOL0     C96552   5.057   2.563   0.319 -0.6173 -1.2723 -0.7013
  716MOL0     C96553   4.995   2.566   0.448 -1.1594  0.3811 -1.4783
  716MOL0     C96554   4.876   2.486   0.471  0.5458 -0.5861 -0.1561
  716MOL0     O96555   4.826   2.416   0.362  0.4080  0.0311  0.1492
  716MOL0     C96556   4.713   2.337   0.394  0.2005 -1.0571  0.3951
  716MOL0     C96557   4.590   2.384   0.373  0.1739  0.0385 -0.5641
  716MOL0     C96558   4.477   2.323   0.422 -0.8965  1.0411  0.4049
  716MOL0     C96559   4.491   2.208   0.505  0.3532  0.4971  0.7378
  716MOL0     O96560   4.375   2.155   0.549  0.5333 -0.8877  0.3337
  716MOL0     C96561   4.380   2.063   0.661 -0.4031 -0.1350 -0.0965
  716MOL0     C96562   4.235   2.023   0.690 -0.2179 -0.1802 -0.0718
  716MOL0     C96563   4.238   1.894   0.773  0.4093 -0.1382  0.0579
  716MOL0     C96564   4.103   1.804   0.763  0.1782 -0.1800 -1.1391
  716MOL0     C96565   4.079   1.708   0.874  0.1351  0.3742 -0.0453
  716MOL0     C96566   4.188   1.605   0.865 -0.9893  0.4921  0.5683
  716MOL0     C96567   4.149   1.483   0.945 -0.3200  0.5953 -1.1355
  716MOL0     C96568   4.160   1.514   1.095 -0.6699  0.0823 -0.3027
  716MOL0    Cl96569   4.119   1.357   1.184  0.0568 -0.4468 -0.3575
  716MOL0     C96570   4.618   2.151   0.513 -0.1259  0.1512 -0.3250
  716MOL0     C96571   4.731   2.212   0.461 -0.4599  0.7378 -0.4017
  716MOL0     O96572   4.841   2.479   0.592  0.1784  0.0763 -0.4059
  716MOL0     C96573   5.046   2.661   0.539  0.4930  0.0315  0.4758
  716MOL0     C96574   5.160   2.732   0.501  0.2297 -0.4422 -0.7668
  716MOL0     N96575   5.893   2.970   0.626  0.8014  0.0042 -0.0061
  716MOL0     N96576   5.919   3.013   0.740 -0.2466  0.4821  0.2865
  716MOL0     C96577   5.201   3.967   1.017 -0.4275  0.4295  0.7488
  716MOL0     C96578   5.102   4.000   1.104  0.3896  0.6417 -0.1527
  716MOL0     C96579   4.855   3.990   1.499 -0.2506  0.1840  0.2870
  716MOL0     C96580   4.746   3.948   1.427 -0.0963  0.8829  0.5960
  716MOL0     C96581   4.614   3.957   1.457 -0.0270  0.2698  0.2894
  716MOL0     C96582   4.578   4.017   1.574  0.5164 -0.1575  0.8771
  716MOL0     O96583   4.444   4.026   1.628 -0.1807 -0.2776 -0.3124
  716MOL0     C96584   4.346   4.027   1.525 -0.0167 -0.1410 -0.0551
  716MOL0     C96585   4.213   4.015   1.603 -0.1200 -0.1375  0.2631
  716MOL0     C96586   4.188   3.867   1.646 -0.6485  0.0204  0.1976
  716MOL0     C96587   4.048   3.844   1.715 -0.2111 -0.9570  1.0437
  716MOL0     C96588   4.047   3.904   1.849 -0.2187  0.0362  0.2649
  716MOL0     C96589   4.048   3.950   1.959  0.2730  0.7085 -1.0967
  716MOL0     C96590   4.692   4.053   1.655  0.2372  0.6469  0.0535
  716MOL0     C96591   4.832   4.043   1.623  0.3658 -0.5862 -0.4586
  716MOL0     C96592   4.936   4.097   1.723 -0.2781  0.0916 -0.2740
  716MOL0     H96593   5.216   3.810   1.364 -0.6974 -4.3113 -1.4444
  716MOL0     H96594   5.396   3.757   1.208  0.5416 -0.5909 -2.5212
  716MOL0     H96595   5.323   3.670   0.896 -2.2334  1.1669  0.0549
  716MOL0     H96596   5.311   3.820   0.790 -0.4726  0.0717  0.7568
  716MOL0     H96597   5.547   3.808   0.744  0.5470 -1.2048 -0.0508
  716MOL0     H96598   5.478   3.652   0.704 -0.9506  1.0296 -0.6128
  716MOL0     H96599   5.553   3.583   0.950  1.6114  1.0409  0.1040
  716MOL0     H96600   5.657   3.723   0.926 -0.1546 -1.0624  2.9011
  716MOL0     H96601   5.627   3.480   0.747 -1.6915 -0.5190  3.2410
  716MOL0     H96602   5.731   3.621   0.713 -1.3536  4.2552  1.0729
  716MOL0     H96603   5.902   3.549   0.824  0.7961 -0.8270 -2.9853
  716MOL0     H96604   5.805   3.516   0.970  1.2247 -0.4708 -0.9889
  716MOL0     H96605   5.817   3.330   0.722  1.4174  0.0795 -1.1014
  716MOL0     H96606   5.922   3.312   0.861  0.4077  1.2421 -0.6887
  716MOL0     H96607   5.622   3.259   0.852 -0.0097 -0.5834  0.3564
  716MOL0     H96608   5.691   3.290   1.010  0.2701 -0.4381  0.7190
  716MOL0     H96609   5.858   3.101   0.971  0.3014 -0.9916  1.4877
  716MOL0     H96610   5.688   3.046   0.976  1.3627  0.2137  0.7471
  716MOL0     H96611   5.600   3.074   0.689  0.3666  2.0577  0.2181
  716MOL0     H96612   5.663   3.042   0.410 -1.7166  0.2990  2.5106
  716MOL0     H96613   5.804   2.932   0.375 -1.5430  0.8635 -2.4485
  716MOL0     H96614   5.658   2.735   0.457 -1.9219 -0.0130  0.0908
  716MOL0     H96615   5.538   2.847   0.509 -1.5088 -0.4696 -2.0178
  716MOL0     H96616   5.619   2.802   0.212 -1.3825  1.1610 -0.7620
  716MOL0     H96617   5.506   2.937   0.273  1.1389  1.6028 -3.8589
  716MOL0     H96618   5.473   2.646   0.281  0.1318  0.6533  3.6700
  716MOL0     H96619   5.405   2.769   0.166 -0.5901  0.1172  0.6960
  716MOL0     H96620   5.207   2.639   0.181  0.5624  1.9532 -0.8390
  716MOL0     H96621   5.022   2.503   0.236 -1.0414  0.7923 -2.0954
  716MOL0     H96622   4.585   2.475   0.314  2.4262 -0.1208 -1.1021
  716MOL0     H96623   4.376   2.352   0.396 -0.9218  0.7122  0.1265
  716MOL0     H96624   4.433   1.976   0.623  3.0831  1.8429 -0.1318
  716MOL0     H96625   4.435   2.102   0.746 -0.4565  2.0472 -0.9857
  716MOL0     H96626   4.179   2.105   0.735  2.8566  1.7335  0.5282
  716MOL0     H96627   4.186   2.005   0.594 -1.0815 -1.4718  0.5755
  716MOL0     H96628   4.316   1.828   0.734  1.1894  1.9447 -2.1320
  716MOL0     H96629   4.248   1.931   0.876 -0.2060 -1.0473  0.4565
  716MOL0     H96630   4.097   1.751   0.668 -1.2868 -2.5413  0.1615
  716MOL0     H96631   4.027   1.881   0.780 -0.1008 -1.0939  2.9341
  716MOL0     H96632   3.980   1.670   0.847  0.9451 -1.9428 -0.0027
  716MOL0     H96633   4.075   1.748   0.976 -3.9254  1.3710 -0.4384
  716MOL0     H96634   4.209   1.576   0.762  0.6407 -2.6285  1.6554
  716MOL0     H96635   4.274   1.648   0.918  1.0442 -4.8512  2.3564
  716MOL0     H96636   4.217   1.400   0.921 -0.2655  1.5196 -4.7276
  716MOL0     H96637   4.049   1.447   0.921  0.2958  0.0156 -2.9760
  716MOL0     H96638   4.244   1.565   1.143 -0.8898 -1.1797  1.5359
  716MOL0     H96639   4.077   1.575   1.131 -2.1696 -2.4567  0.8725
  716MOL0     H96640   4.629   2.057   0.566 -1.4166 -0.2466 -0.7254
  716MOL0     H96641   4.830   2.168   0.459 -1.0752 -0.9923  2.0751
  716MOL0     H96642   5.000   2.684   0.634  0.4652  2.6990 -0.1114
  716MOL0     H96643   5.195   2.797   0.580 -0.6068 -0.4661 -0.3713
  716MOL0     H96644   5.198   4.010   0.917 -1.9331 -2.2220 -0.4612
  716MOL0     H96645   5.017   4.065   1.082 -0.0485  0.6066  1.3419
  716MOL0     H96646   4.767   3.884   1.342 -2.3159 -2.9778  2.7091
  716MOL0     H96647   4.550   3.911   1.382 -0.0379  0.1730  0.3576
  716MOL0     H96648   4.365   3.944   1.457  1.6405  1.0437 -1.1085
  716MOL0     H96649   4.354   4.119   1.467 -2.4924 -1.6103 -2.9939
  716MOL0     H96650   4.131   4.048   1.539  0.2734 -0.3384 -0.3498
  716MOL0     H96651   4.203   4.076   1.693  0.6496  1.8074 -0.9091
  716MOL0     H96652   4.278   3.844   1.703 -0.0351 -1.3323 -1.2674
  716MOL0     H96653   4.194   3.813   1.551  1.9369 -0.8386  0.7699
  716MOL0     H96654   3.967   3.881   1.652  2.0228 -0.9341 -2.0011
  716MOL0     H96655   4.033   3.736   1.729 -2.2887 -0.5859  2.2351
  716MOL0     H96656   4.032   3.992   2.057 -2.4600 -0.4521 -0.9684
  716MOL0     H96657   4.651   4.081   1.751 -3.9069 -1.6125 -0.7771
  716MOL0     H96658   4.997   4.177   1.680 -0.8835  1.3771  1.1516
  716MOL0     H96659   4.885   4.129   1.815  1.7711  1.3340  0.5009
  716MOL0     H96660   4.999   4.012   1.753  0.3275  0.3195 -0.8769
  717MOL0     O96661   4.695   8.313   4.025 -0.1106  0.5771 -0.0449
  717MOL0     C96662   4.803   8.360   4.054 -0.2252  0.0151 -0.6538
  717MOL0     O96663   4.842   8.486   4.032 -0.2161  0.7693  0.1798
  717MOL0     C96664   4.746   8.587   4.011  1.1649  0.2014 -0.5185
  717MOL0     C96665   4.767   8.705   3.937  0.6313 -0.4483 -0.5265
  717MOL0     C96666   4.671   8.807   3.916 -0.3551 -0.5940  0.0810
  717MOL0     C96667   4.539   8.786   3.954  0.2808  0.3631  0.1745
  717MOL0     O96668   4.427   8.868   3.912 -0.1143 -0.1355  0.7436
  717MOL0     C96669   4.345   8.802   3.809 -0.6964  0.5145 -0.2975
  717MOL0     C96670   4.196   8.812   3.854 -0.1457 -0.2435  1.0447
  717MOL0     C96671   4.126   8.947   3.858  0.1543  0.3438  0.4246
  717MOL0     C96672   4.145   9.026   3.721  0.7464 -0.7251 -0.1592
  717MOL0     C96673   4.097   9.165   3.734 -0.1925  0.0663  0.9228
  717MOL0     C96674   3.958   9.191   3.802 -0.4829  0.0672 -0.3463
  717MOL0     C96675   3.868   9.318   3.763 -0.9300 -0.7683 -0.6263
  717MOL0     C96676   3.932   9.459   3.799  0.3049 -0.1238 -0.5753
  717MOL0     N96677   4.055   9.481   3.736 -0.4879  0.4035  0.4341
  717MOL0     C96678   4.052   9.547   3.612 -0.5071  0.6195 -0.2075
  717MOL0     C96679   4.170   9.597   3.597 -0.5082 -0.2519  0.3281
  717MOL0     C96680   4.234   9.683   3.479  0.2992  0.1424  0.7694
  717MOL0     C96681   4.176   9.633   3.345  0.6264  1.2139 -0.5529
  717MOL0     C96682   4.205   9.727   3.232 -0.9485  0.9318  0.6640
  717MOL0     C96683   4.346   9.783   3.216 -0.2844  0.8550 -0.9494
  717MOL0     O96684   4.436   9.678   3.198 -0.4372  0.3061  0.5445
  717MOL0     C96685   4.530   9.691   3.096 -0.5202 -0.5420  0.8112
  717MOL0     C96686   4.583   9.567   3.065  0.2312 -0.7070 -0.1139
  717MOL0     C96687   4.693   9.561   2.977  0.6103  0.0435  0.4083
  717MOL0     C96688   4.738   9.683   2.919 -0.0821 -1.2557 -0.2715
  717MOL0     C96689   4.843   9.681   2.814 -0.4198  0.7582  0.8124
  717MOL0     O96690   4.908   9.796   2.761  0.8105  0.3354  0.4376
  717MOL0     C96691   4.988   9.779   2.654  0.0304  0.0798  0.2811
  717MOL0     C96692   5.073   9.881   2.638  0.1803 -0.3813  0.5155
  717MOL0     C96693   5.168   9.892   2.536 -0.2037 -0.1255  0.9732
  717MOL0     C96694   5.163   9.805   2.428  0.1593  0.3790 -0.0419
  717MOL0     O96695   5.241   9.841   2.324 -0.0686  0.2692 -0.8656
  717MOL0     C96696   5.207   9.800   2.201 -0.1544 -0.6658  1.0993
  717MOL0     C96697   5.295   9.868   2.100  0.6548 -1.3598  0.1799
  717MOL0     C96698   5.249  10.011   2.069 -0.0806 -0.4703 -0.0761
  717MOL0     C96699   5.317  10.115   2.163 -0.4084 -0.3355 -0.3920
  717MOL0     C96700   5.457  10.105   2.215  0.5433 -0.0919  0.1339
  717MOL0     C96701   5.547  10.106   2.094  0.0927 -0.4654 -0.0591
  717MOL0     C96702   5.685  10.083   2.157 -0.3052 -0.1774 -0.2811
  717MOL0     C96703   5.798  10.113   2.056  0.6216 -0.4438 -1.0957
  717MOL0    Cl96704   5.767  10.258   1.942 -0.0888 -0.0219 -0.1951
  717MOL0     C96705   5.068   9.702   2.445  0.0718  0.5369  0.0721
  717MOL0     C96706   4.979   9.691   2.555  0.5010  0.8554  0.1646
  717MOL0     O96707   4.870   9.564   2.780 -0.1369  0.2929 -0.1966
  717MOL0     C96708   4.690   9.807   2.950 -0.1982 -0.2758  0.0005
  717MOL0     C96709   4.581   9.809   3.035 -0.0066 -0.9926 -0.6146
  717MOL0     N96710   4.236   9.572   3.714 -0.0677 -0.1354 -0.0244
  717MOL0     N96711   4.166   9.496   3.794 -0.6135 -0.3590  0.0515
  717MOL0     C96712   4.514   8.670   4.030  0.3572 -0.1795  0.5556
  717MOL0     C96713   4.607   8.572   4.062  0.2829  0.1068  0.2821
  717MOL0     C96714   4.908   8.266   4.107 -0.1068  0.6744 -0.6439
  717MOL0     C96715   5.044   8.289   4.078 -0.0507  1.2043 -0.3741
  717MOL0     C96716   5.141   8.190   4.114 -0.7309 -0.5264  0.1710
  717MOL0     C96717   5.110   8.066   4.174 -0.2620  0.7696  0.0766
  717MOL0     O96718   5.193   7.962   4.194  0.3061 -0.7446  0.1435
  717MOL0     C96719   5.322   7.960   4.147  0.1122  0.0143 -0.0734
  717MOL0     C96720   5.400   7.826   4.170  0.8744  0.4114 -0.0407
  717MOL0     C96721   5.541   7.819   4.096  0.4398  0.1171 -0.2111
  717MOL0     C96722   5.612   7.703   4.155 -0.0832  0.9220  1.0761
  717MOL0     C96723   5.650   7.594   4.060 -0.7729 -0.1933 -0.4065
  717MOL0     C96724   5.681   7.526   3.967 -0.6421  0.0065  0.3270
  717MOL0     C96725   4.975   8.052   4.199  0.4374  0.2638  0.4524
  717MOL0     C96726   4.867   8.144   4.176 -0.0052  0.4650  0.5589
  717MOL0     C96727   4.726   8.099   4.204  0.6557 -0.0949  0.3951
  717MOL0     H96728   4.870   8.720   3.906 -0.1555  0.2553 -3.0327
  717MOL0     H96729   4.683   8.901   3.863 -0.6951 -0.2099  0.6806
  717MOL0     H96730   4.354   8.841   3.707 -2.2630 -2.2681 -1.6244
  717MOL0     H96731   4.367   8.695   3.806 -0.9374  0.4770 -0.7719
  717MOL0     H96732   4.191   8.772   3.956 -0.4489  2.6575  2.2460
  717MOL0     H96733   4.134   8.758   3.782 -2.0775  1.9056  1.0132
  717MOL0     H96734   4.179   8.995   3.940  1.0215  1.8749 -0.9789
  717MOL0     H96735   4.020   8.956   3.884  0.4143  1.6607  1.1045
  717MOL0     H96736   4.250   9.028   3.691  1.4569 -0.1671  2.1451
  717MOL0     H96737   4.098   8.966   3.642 -0.0060 -0.0633 -0.2269
  717MOL0     H96738   4.178   9.217   3.787 -1.1685  0.2185  2.3144
  717MOL0     H96739   4.086   9.204   3.632  0.0308  0.8232  1.1770
  717MOL0     H96740   3.896   9.102   3.787 -0.3919  0.0309 -0.5132
  717MOL0     H96741   3.963   9.212   3.909 -0.7321  1.6294 -0.6288
  717MOL0     H96742   3.774   9.316   3.819 -0.4232  0.0066  0.2875
  717MOL0     H96743   3.843   9.319   3.656 -2.4339  0.2082 -0.3084
  717MOL0     H96744   3.856   9.529   3.765 -0.1503 -1.4504 -2.4621
  717MOL0     H96745   3.947   9.467   3.907 -0.1083 -1.8405 -0.3528
  717MOL0     H96746   3.973   9.551   3.538  1.5324  5.2899 -2.5750
  717MOL0     H96747   4.216   9.790   3.479  0.3637  0.2049 -1.3863
  717MOL0     H96748   4.342   9.665   3.478  0.3948  0.6403 -0.8153
  717MOL0     H96749   4.220   9.535   3.322 -2.5529 -0.0892 -1.6612
  717MOL0     H96750   4.068   9.623   3.354  0.9710 -1.8227  2.4680
  717MOL0     H96751   4.137   9.813   3.240  2.7491  4.4640 -2.0337
  717MOL0     H96752   4.178   9.681   3.137  0.7766  1.1495  0.0431
  717MOL0     H96753   4.390   9.855   3.286 -0.0723  0.4764 -0.6906
  717MOL0     H96754   4.335   9.841   3.124  1.0435 -1.5944 -2.7714
  717MOL0     H96755   4.550   9.476   3.116  1.5817  0.1006  2.3699
  717MOL0     H96756   4.741   9.468   2.950  1.6409  1.4892 -3.3100
  717MOL0     H96757   5.081   9.950   2.721  1.7420 -2.5022  2.2190
  717MOL0     H96758   5.235   9.976   2.525 -0.0899 -0.2744  0.5286
  717MOL0     H96759   5.226   9.693   2.191  1.7770 -0.2444 -0.4868
  717MOL0     H96760   5.102   9.822   2.180  0.4134 -0.5947 -2.3525
  717MOL0     H96761   5.394   9.867   2.147  1.1795 -2.0040 -0.9026
  717MOL0     H96762   5.297   9.824   2.000 -0.6870  4.3598 -2.8161
  717MOL0     H96763   5.279  10.033   1.966  1.4296 -2.5700 -0.1486
  717MOL0     H96764   5.140  10.018   2.080 -0.0501  0.6709 -0.4171
  717MOL0     H96765   5.258  10.125   2.255  0.7842 -0.9276  0.4818
  717MOL0     H96766   5.323  10.204   2.101  2.9447  0.0127  0.2152
  717MOL0     H96767   5.475  10.011   2.266 -0.3387  0.1500  0.9115
  717MOL0     H96768   5.475  10.190   2.281  0.4346 -1.2334  1.6924
  717MOL0     H96769   5.512  10.020   2.036 -0.7412  0.1056 -0.4320
  717MOL0     H96770   5.536  10.208   2.054  0.0559  0.7526  2.8062
  717MOL0     H96771   5.709   9.983   2.195  0.9464  0.6582  1.2333
  717MOL0     H96772   5.700  10.150   2.243 -0.0174 -0.4797 -0.0960
  717MOL0     H96773   5.899  10.117   2.099  0.3298 -0.4219 -0.3977
  717MOL0     H96774   5.804  10.028   1.989 -0.7131 -0.8792 -0.6909
  717MOL0     H96775   5.074   9.624   2.369 -1.1368  0.0843  0.4251
  717MOL0     H96776   4.933   9.594   2.544  3.3731 -0.5489 -0.5381
  717MOL0     H96777   4.726   9.904   2.916  1.6343  0.1034  2.6943
  717MOL0     H96778   4.542   9.898   3.083 -2.5414 -0.1673 -3.8558
  717MOL0     H96779   4.415   8.654   4.069  0.9263 -1.4474  1.5464
  717MOL0     H96780   4.577   8.488   4.123  0.0703 -1.3007 -1.6382
  717MOL0     H96781   5.080   8.370   4.017  1.5703 -1.7202 -3.6786
  717MOL0     H96782   5.239   8.207   4.071 -2.7323  2.7488 -3.7915
  717MOL0     H96783   5.380   8.041   4.192  4.1811 -2.0487 -1.0967
  717MOL0     H96784   5.318   7.974   4.039  0.2473  1.4560  0.0858
  717MOL0     H96785   5.345   7.743   4.124  0.6534  1.0048 -0.8652
  717MOL0     H96786   5.412   7.801   4.276 -2.5777  0.0460  0.3929
  717MOL0     H96787   5.591   7.915   4.111 -1.5789  1.1383  0.2420
  717MOL0     H96788   5.524   7.810   3.988  1.0943 -1.1643 -0.2369
  717MOL0     H96789   5.706   7.727   4.206  0.1685  0.0016  1.0715
  717MOL0     H96790   5.547   7.663   4.234 -0.3433 -2.7793 -0.8132
  717MOL0     H96791   5.708   7.455   3.892  3.2458  0.8274  0.7353
  717MOL0     H96792   4.952   7.949   4.223  1.2737 -0.1366 -0.4012
  717MOL0     H96793   4.678   8.056   4.116  0.6475  2.6566 -1.0456
  717MOL0     H96794   4.722   8.030   4.289 -1.3867 -1.9821 -1.1135
  717MOL0     H96795   4.673   8.190   4.233  2.9279  1.7544 -0.9176
  718MOL0     O96796   5.367   6.167   2.427 -0.5589 -0.0698 -0.6840
  718MOL0     C96797   5.485   6.144   2.444 -0.6039  0.4221 -0.4241
  718MOL0     O96798   5.535   6.018   2.453 -0.0958 -0.4384  1.2697
  718MOL0     C96799   5.442   5.919   2.482 -1.5054  0.5419  0.1336
  718MOL0     C96800   5.337   5.935   2.566  0.4096  0.4623  0.1109
  718MOL0     C96801   5.238   5.844   2.584  0.3272  0.4763  0.1375
  718MOL0     C96802   5.249   5.713   2.529  0.1495 -0.0206 -0.2515
  718MOL0     O96803   5.151   5.612   2.551 -0.8173 -0.0306  0.2418
  718MOL0     C96804   5.082   5.594   2.431  0.9376 -0.0106 -0.7867
  718MOL0     C96805   4.938   5.534   2.467  0.6874 -1.1239  0.2841
  718MOL0     C96806   4.846   5.627   2.555 -1.4324 -0.3610  0.1249
  718MOL0     C96807   4.749   5.716   2.470  0.6379 -0.5032  0.4293
  718MOL0     C96808   4.657   5.807   2.558 -0.2605 -0.9359 -0.2437
  718MOL0     C96809   4.550   5.879   2.479  0.1100 -0.0602 -0.1234
  718MOL0     C96810   4.463   5.975   2.549 -0.7019 -0.1954 -0.0036
  718MOL0     C96811   4.382   6.067   2.451 -0.2234  0.0592 -0.9180
  718MOL0     N96812   4.462   6.166   2.383  0.1720  0.2243  0.4197
  718MOL0     C96813   4.514   6.149   2.255 -0.9051 -0.7626  0.4406
  718MOL0     C96814   4.622   6.235   2.248  0.6883 -0.4850  0.6705
  718MOL0     C96815   4.714   6.249   2.131 -0.1919 -0.1208  0.3584
  718MOL0     C96816   4.680   6.391   2.060 -0.6291 -0.6851 -0.6710
  718MOL0     C96817   4.818   6.469   2.034 -0.7031  0.0656 -0.1479
  718MOL0     C96818   4.883   6.442   1.901  0.9663  0.0609  0.0100
  718MOL0     O96819   4.965   6.324   1.912  0.0481 -0.2938 -0.7909
  718MOL0     C96820   5.035   6.267   1.808  0.1718  0.2220 -0.2898
  718MOL0     C96821   5.056   6.129   1.824 -0.3996  0.7595  0.1450
  718MOL0     C96822   5.131   6.070   1.719  0.0796  0.2954  0.6999
  718MOL0     C96823   5.178   6.139   1.607  0.8883 -0.3472 -0.4320
  718MOL0     C96824   5.247   6.069   1.487  0.8061 -0.3580 -0.8085
  718MOL0     O96825   5.236   5.935   1.492  1.1934  0.7078 -0.0458
  718MOL0     C96826   5.272   5.837   1.403  0.2219  0.9894  0.8512
  718MOL0     C96827   5.383   5.843   1.310  0.3466  0.2594  0.2273
  718MOL0     C96828   5.417   5.744   1.214  1.1036  0.7355 -0.7066
  718MOL0     C96829   5.334   5.628   1.208  0.6843  0.3377  0.0551
  718MOL0     O96830   5.367   5.527   1.122  0.4799  0.3891  0.4011
  718MOL0     C96831   5.381   5.544   0.980  0.1399 -1.1234  0.4481
  718MOL0     C96832   5.375   5.416   0.906 -0.5339  0.6109 -0.5370
  718MOL0     C96833   5.383   5.420   0.751  0.7653 -0.9343 -0.3721
  718MOL0     C96834   5.398   5.283   0.695  0.0581  0.1331  0.1059
  718MOL0     C96835   5.432   5.290   0.541 -0.5535  0.6785  0.2420
  718MOL0     C96836   5.468   5.150   0.485  0.4706 -0.6528 -0.1127
  718MOL0     C96837   5.499   5.159   0.334 -0.4322  0.3286  0.1705
  718MOL0     C96838   5.537   5.032   0.270 -0.1806  1.3204 -0.7618
  718MOL0    Cl96839   5.414   4.902   0.282  0.3628 -0.4239 -0.6271
  718MOL0     C96840   5.233   5.613   1.297 -0.1457 -0.0512 -0.7350
  718MOL0     C96841   5.203   5.715   1.391  0.5169 -0.2930 -0.5952
  718MOL0     O96842   5.290   6.137   1.400  0.3893 -0.3686  0.5221
  718MOL0     C96843   5.154   6.273   1.601 -0.3280 -0.2877 -0.2606
  718MOL0     C96844   5.087   6.335   1.700 -0.1656 -0.4864  0.3051
  718MOL0     N96845   4.628   6.304   2.367  0.3689 -0.0676  0.8977
  718MOL0     N96846   4.529   6.262   2.439 -0.8982 -1.0889 -0.5619
  718MOL0     C96847   5.370   5.680   2.459  0.7959 -0.3240  0.1054
  718MOL0     C96848   5.461   5.787   2.434 -0.7576 -0.5187  0.8203
  718MOL0     C96849   5.589   6.249   2.431 -0.2662  0.5180  0.0801
  718MOL0     C96850   5.679   6.248   2.334 -0.6749  0.0753 -0.4810
  718MOL0     C96851   5.775   6.354   2.320 -0.5336 -0.5750 -0.0752
  718MOL0     C96852   5.785   6.462   2.409 -0.0291 -0.3898  0.5986
  718MOL0     O96853   5.872   6.564   2.397  0.0694 -0.3127  0.2882
  718MOL0     C96854   5.971   6.573   2.294  0.2173 -0.3737 -0.4398
  718MOL0     C96855   6.105   6.586   2.353 -0.2324 -0.5518 -0.0227
  718MOL0     C96856   6.157   6.449   2.409  0.4841 -0.2242  0.2581
  718MOL0     C96857   6.311   6.454   2.437  0.6715 -0.2584 -0.1715
  718MOL0     C96858   6.341   6.564   2.532 -0.1412  0.3249 -0.4318
  718MOL0     C96859   6.367   6.645   2.617 -0.2985 -0.8794 -0.3781
  718MOL0     C96860   5.692   6.459   2.511  0.5087  0.4281  0.3546
  718MOL0     C96861   5.588   6.359   2.523  0.5566  0.1492  0.1645
  718MOL0     C96862   5.490   6.369   2.636  0.0352  0.2311  0.4043
  718MOL0     H96863   5.326   6.032   2.613  1.9358  1.0113 -0.6139
  718MOL0     H96864   5.156   5.862   2.652 -0.1002  1.1926 -0.5537
  718MOL0     H96865   5.064   5.696   2.395 -0.0483 -0.8905 -2.9340
  718MOL0     H96866   5.127   5.532   2.353 -1.2797 -2.4959 -0.2303
  718MOL0     H96867   4.947   5.438   2.518  1.4255 -0.7685  0.8496
  718MOL0     H96868   4.890   5.516   2.371  0.2653  0.4971  0.1625
  718MOL0     H96869   4.904   5.682   2.630 -1.8910  0.8063 -0.3536
  718MOL0     H96870   4.791   5.553   2.613 -0.6828 -1.3134 -0.3485
  718MOL0     H96871   4.803   5.790   2.410 -1.6266  0.5489 -0.4283
  718MOL0     H96872   4.682   5.657   2.407  0.2111 -0.2817  0.6696
  718MOL0     H96873   4.602   5.751   2.634 -1.2412  0.4412  0.1002
  718MOL0     H96874   4.711   5.887   2.607 -2.7467  0.1828  0.8227
  718MOL0     H96875   4.607   5.939   2.407  0.4623  4.3844  3.4413
  718MOL0     H96876   4.499   5.795   2.432 -1.0464  1.3086 -1.4351
  718MOL0     H96877   4.525   6.045   2.605 -0.7837  0.5003 -0.7666
  718MOL0     H96878   4.401   5.926   2.625  0.3971  0.5519  1.4241
  718MOL0     H96879   4.333   6.003   2.377 -0.2648  0.2283 -1.0364
  718MOL0     H96880   4.305   6.116   2.512 -0.0835  2.5943 -2.6146
  718MOL0     H96881   4.486   6.082   2.174 -2.0429 -1.2824  1.2260
  718MOL0     H96882   4.815   6.246   2.173 -0.5751 -1.2314  1.2677
  718MOL0     H96883   4.713   6.171   2.054  2.0704 -0.3925  0.5494
  718MOL0     H96884   4.620   6.375   1.971  0.1153  0.5364 -1.4179
  718MOL0     H96885   4.624   6.448   2.135  2.4083 -2.3487  3.2812
  718MOL0     H96886   4.876   6.462   2.127 -0.7913 -1.6105 -0.1903
  718MOL0     H96887   4.790   6.574   2.027 -2.3548 -0.1204  2.4219
  718MOL0     H96888   4.951   6.514   1.854  0.9083 -1.2620 -2.2648
  718MOL0     H96889   4.800   6.424   1.831 -0.4792 -2.0562  2.0949
  718MOL0     H96890   5.027   6.070   1.910  0.4190 -0.7708 -0.5827
  718MOL0     H96891   5.160   5.967   1.739 -1.3533 -0.6178 -1.4735
  718MOL0     H96892   5.418   5.944   1.290  2.3033 -0.7755 -1.8957
  718MOL0     H96893   5.490   5.771   1.138  0.7784  0.9085 -0.9615
  718MOL0     H96894   5.295   5.600   0.941  1.9771  1.5849  0.0411
  718MOL0     H96895   5.466   5.604   0.946 -1.3120 -0.4485 -2.3669
  718MOL0     H96896   5.450   5.346   0.943 -1.4705 -0.0912  0.0878
  718MOL0     H96897   5.275   5.377   0.925 -0.6724 -0.5198 -3.1432
  718MOL0     H96898   5.293   5.463   0.707 -0.3206 -3.1239 -0.4229
  718MOL0     H96899   5.473   5.479   0.732 -0.8580  1.4042 -1.2879
  718MOL0     H96900   5.311   5.219   0.712 -0.1275 -0.1384 -1.7094
  718MOL0     H96901   5.478   5.237   0.754 -1.1025  1.0028  2.5302
  718MOL0     H96902   5.518   5.358   0.532 -0.0886  0.4034  2.2091
  718MOL0     H96903   5.357   5.342   0.480  3.6047  1.9450 -4.4713
  718MOL0     H96904   5.550   5.105   0.542  0.9467  2.2053  1.6357
  718MOL0     H96905   5.382   5.082   0.490  0.9741 -1.2453  0.6419
  718MOL0     H96906   5.567   5.245   0.320  1.3273 -0.6091  2.3997
  718MOL0     H96907   5.404   5.181   0.286  0.2327  1.7439 -0.5750
  718MOL0     H96908   5.565   5.057   0.167  2.9242  0.5628 -0.2286
  718MOL0     H96909   5.627   4.988   0.316 -0.2943  0.2714 -1.5101
  718MOL0     H96910   5.172   5.523   1.299  1.2529 -1.0281  1.2802
  718MOL0     H96911   5.119   5.689   1.453  0.7016  1.3322  0.3937
  718MOL0     H96912   5.180   6.326   1.510  1.4012  0.6177  0.6967
  718MOL0     H96913   5.069   6.441   1.685 -0.6459 -0.4795  0.8734
  718MOL0     H96914   5.400   5.580   2.428 -3.0762 -1.2442 -1.2985
  718MOL0     H96915   5.551   5.752   2.385 -0.5953 -0.4939  1.0947
  718MOL0     H96916   5.681   6.168   2.261 -0.6413  0.5298 -0.9842
  718MOL0     H96917   5.835   6.341   2.230 -0.5357  3.1514 -0.8123
  718MOL0     H96918   5.961   6.664   2.234  2.5353  1.2666  1.4604
  718MOL0     H96919   5.961   6.489   2.224 -1.3746  0.7848 -1.6926
  718MOL0     H96920   6.101   6.664   2.429 -1.5759  0.9406 -1.5465
  718MOL0     H96921   6.174   6.620   2.275  0.2738  0.7872  0.9703
  718MOL0     H96922   6.141   6.372   2.334 -0.0987  1.0218 -0.9505
  718MOL0     H96923   6.099   6.421   2.497  0.4802 -1.6309 -0.1745
  718MOL0     H96924   6.340   6.358   2.480  1.0251 -1.2706 -2.4815
  718MOL0     H96925   6.370   6.464   2.345  2.0180  0.5185  0.7416
  718MOL0     H96926   6.385   6.718   2.694  0.5306 -1.6977  0.2191
  718MOL0     H96927   5.700   6.541   2.582  0.6783  2.2106 -1.6274
  718MOL0     H96928   5.502   6.280   2.699  0.3395 -1.7266 -2.2312
  718MOL0     H96929   5.501   6.459   2.697 -0.8523  0.2846  0.4961
  718MOL0     H96930   5.387   6.376   2.599 -0.0230 -2.4285 -0.1479
  719MOL0     O96931   9.299   6.904  11.356 -0.3051  0.0914 -0.7891
  719MOL0     C96932   9.192   6.853  11.382 -0.2017  0.5319 -0.6980
  719MOL0     O96933   9.132   6.754  11.311 -0.5370  0.0530  0.3397
  719MOL0     C96934   9.229   6.689  11.231 -0.3721 -0.5634  0.1885
  719MOL0     C96935   9.230   6.716  11.091 -0.1869 -0.4404  0.0165
  719MOL0     C96936   9.328   6.652  11.017  1.4504 -0.3089  0.2575
  719MOL0     C96937   9.417   6.564  11.072  0.8946  0.0229  0.8356
  719MOL0     O96938   9.508   6.520  10.976 -0.3811 -0.5266  0.7084
  719MOL0     C96939   9.581   6.401  11.020 -0.1697 -0.2076 -0.5463
  719MOL0     C96940   9.639   6.329  10.904 -0.0534 -0.5854 -0.6702
  719MOL0     C96941   9.731   6.423  10.822 -0.3530  0.4594 -0.0063
  719MOL0     C96942   9.857   6.482  10.891 -0.2436  0.0782 -0.0814
  719MOL0     C96943   9.935   6.558  10.790  0.5253  0.3838 -0.1936
  719MOL0     C96944  10.025   6.664  10.864  0.4850 -0.0269  0.4874
  719MOL0     C96945  10.139   6.708  10.769  0.2576 -0.3981  0.0371
  719MOL0     C96946  10.095   6.747  10.631 -0.5227  0.2427  0.2210
  719MOL0     N96947  10.187   6.836  10.549 -0.2123  0.7752 -0.9408
  719MOL0     C96948  10.228   6.958  10.595 -0.5450  0.3495 -0.5676
  719MOL0     C96949  10.315   7.010  10.504  0.1091  1.4872  1.4124
  719MOL0     C96950  10.390   7.137  10.529  0.3560  0.8337  0.0580
  719MOL0     C96951  10.516   7.130  10.445  0.8629 -0.0683  0.4843
  719MOL0     C96952  10.610   7.236  10.467 -0.4375  0.4113  0.1359
  719MOL0     C96953  10.756   7.196  10.452  0.5834  0.4808  0.0050
  719MOL0     O96954  10.788   7.177  10.316 -0.6203 -0.3952 -0.3436
  719MOL0     C96955  10.909   7.219  10.277  0.3197 -0.3752 -0.5654
  719MOL0     C96956  10.913   7.282  10.149 -0.2089 -0.1998  0.0911
  719MOL0     C96957  11.033   7.344  10.108  0.1217  0.0579  0.0332
  719MOL0     C96958  11.153   7.335  10.185  0.0233  0.2943  0.0646
  719MOL0     C96959  11.282   7.387  10.136  0.3048 -0.1452  0.6495
  719MOL0     O96960  11.285   7.445  10.015  0.6048 -0.2723  0.0570
  719MOL0     C96961  11.402   7.446   9.943 -0.3602  0.7663  0.0109
  719MOL0     C96962  11.466   7.325   9.899 -0.2291 -0.1359 -0.6932
  719MOL0     C96963  11.591   7.336   9.832 -0.9166 -0.2684 -0.4058
  719MOL0     C96964  11.655   7.459   9.807  0.2868 -1.0336 -0.5357
  719MOL0     O96965  11.774   7.467   9.733 -0.2014 -0.5706 -0.8711
  719MOL0     C96966  11.829   7.353   9.669 -0.5837  0.6204 -0.3654
  719MOL0     C96967  11.929   7.391   9.563  0.3716 -0.2386 -0.3779
  719MOL0     C96968  12.015   7.272   9.515 -0.1481 -0.4160 -0.1439
  719MOL0     C96969  11.954   7.131   9.490  0.1279  0.2047 -0.1692
  719MOL0     C96970  12.085   7.047   9.458 -0.5048 -0.0499  0.2229
  719MOL0     C96971  12.081   6.892   9.479  0.0955 -0.8739  0.5148
  719MOL0     C96972  12.206   6.811   9.441  0.4470  0.3327 -0.5486
  719MOL0     C96973  12.158   6.676   9.388 -0.1195  0.4394 -0.4393
  719MOL0    Cl96974  12.103   6.691   9.213  0.2676  0.2348  0.3929
  719MOL0     C96975  11.585   7.578   9.852 -0.3190  0.2441  0.6633
  719MOL0     C96976  11.465   7.566   9.922 -0.1013 -0.0404 -0.3333
  719MOL0     O96977  11.380   7.372  10.204  0.3860 -0.2513 -0.2881
  719MOL0     C96978  11.140   7.286  10.314 -0.1406 -0.6180 -0.0430
  719MOL0     C96979  11.016   7.240  10.358 -0.0754  0.7136 -0.0246
  719MOL0     N96980  10.300   6.919  10.391  0.4755  0.0915  0.3568
  719MOL0     N96981  10.221   6.824  10.423 -0.0115  0.1873 -0.3009
  719MOL0     C96982   9.412   6.537  11.209  0.1269 -1.0657 -0.0544
  719MOL0     C96983   9.311   6.590  11.286 -0.6030 -0.2065  0.4118
  719MOL0     C96984   9.117   6.907  11.493  0.1164 -0.6291 -1.1021
  719MOL0     C96985   9.087   7.043  11.485 -0.1441 -0.6101 -0.0192
  719MOL0     C96986   9.004   7.103  11.583 -0.3870  0.4097  0.8159
  719MOL0     C96987   8.950   7.028  11.690  0.2602 -0.8211 -0.3271
  719MOL0     O96988   8.887   7.105  11.782 -0.1314  0.2236 -0.3713
  719MOL0     C96989   8.795   7.038  11.867 -0.1417 -0.3839 -0.2924
  719MOL0     C96990   8.705   7.142  11.937  0.3464  0.1421  1.0269
  719MOL0     C96991   8.637   7.234  11.830  0.4019 -0.5049 -0.8996
  719MOL0     C96992   8.560   7.164  11.724 -0.2975 -0.3359 -0.0689
  719MOL0     C96993   8.462   7.074  11.773  0.2984 -0.2585  0.3036
  719MOL0     C96994   8.370   7.014  11.811  0.8402  0.7981  0.3328
  719MOL0     C96995   8.970   6.896  11.692  0.4022  1.0248 -0.3051
  719MOL0     C96996   9.037   6.828  11.588  0.6865 -0.2724  1.2231
  719MOL0     C96997   9.055   6.676  11.583  0.8488 -0.0965  0.2961
  719MOL0     H96998   9.182   6.803  11.046  0.6263 -0.1711 -0.3460
  719MOL0     H96999   9.317   6.672  10.911 -4.3645  2.1149  0.9748
  719MOL0     H97000   9.658   6.440  11.087 -0.7117  2.0414 -1.1392
  719MOL0     H97001   9.511   6.328  11.062 -0.4642  0.1824 -0.3504
  719MOL0     H97002   9.560   6.303  10.833  0.6654  1.9902 -2.5422
  719MOL0     H97003   9.698   6.242  10.933  0.3541 -0.1933 -0.3105
  719MOL0     H97004   9.667   6.496  10.771 -3.2037 -1.1133  1.0559
  719MOL0     H97005   9.758   6.353  10.742  0.0387  1.2372 -0.5603
  719MOL0     H97006   9.823   6.542  10.975  1.3375  0.5751  0.2491
  719MOL0     H97007   9.928   6.406  10.926 -1.5041 -0.9875  0.2209
  719MOL0     H97008   9.993   6.486  10.731  0.5781 -0.6240  1.0292
  719MOL0     H97009   9.859   6.604  10.727  0.0047 -4.7195 -3.9376
  719MOL0     H97010   9.965   6.754  10.881 -0.1290 -0.2502 -0.4117
  719MOL0     H97011  10.073   6.625  10.954 -1.0298  2.1856  2.3780
  719MOL0     H97012  10.219   6.635  10.757  0.9627  0.3613 -0.0232
  719MOL0     H97013  10.201   6.787  10.814  1.5403 -1.3154 -0.0655
  719MOL0     H97014  10.079   6.659  10.568 -0.7364 -0.1181  0.7779
  719MOL0     H97015   9.996   6.792  10.635 -1.0922 -0.8597 -0.8098
  719MOL0     H97016  10.223   7.001  10.695 -1.6069 -1.2262  0.0910
  719MOL0     H97017  10.332   7.223  10.494  0.1324 -0.2312 -2.4693
  719MOL0     H97018  10.411   7.149  10.635  1.1537 -2.0666  0.3278
  719MOL0     H97019  10.561   7.031  10.446  1.6503  0.1747 -2.3799
  719MOL0     H97020  10.486   7.141  10.341 -1.4323 -1.8412  0.8904
  719MOL0     H97021  10.591   7.282  10.565 -0.0729 -1.3676  1.0828
  719MOL0     H97022  10.587   7.305  10.385  0.9653 -1.2232 -1.7288
  719MOL0     H97023  10.774   7.104  10.510  0.9513  0.5501  0.0018
  719MOL0     H97024  10.820   7.279  10.483  1.5059  0.4562 -1.7265
  719MOL0     H97025  10.833   7.276  10.076 -1.2725  0.7681  1.1475
  719MOL0     H97026  11.039   7.363  10.001 -0.0638 -2.6893 -0.5412
  719MOL0     H97027  11.429   7.226   9.923  0.0565 -0.1439 -0.2912
  719MOL0     H97028  11.625   7.237   9.803  5.8865  0.8245  2.0785
  719MOL0     H97029  11.884   7.290   9.739  0.0840 -0.9842 -2.2697
  719MOL0     H97030  11.747   7.294   9.627 -0.4466 -1.7656  2.4229
  719MOL0     H97031  11.882   7.450   9.483  2.3160  4.2602  1.4144
  719MOL0     H97032  11.988   7.471   9.609  2.5684 -2.2713  0.5424
  719MOL0     H97033  12.053   7.294   9.415 -0.8266 -1.6921 -0.7076
  719MOL0     H97034  12.098   7.272   9.587  0.5204  0.5738 -0.8848
  719MOL0     H97035  11.883   7.142   9.408 -0.9136  0.5431  0.7496
  719MOL0     H97036  11.912   7.085   9.580 -1.8415 -2.2523 -2.1997
  719MOL0     H97037  12.174   7.071   9.517 -1.1298  1.3087  0.6649
  719MOL0     H97038  12.105   7.061   9.352  1.5708  1.3049  0.7234
  719MOL0     H97039  12.079   6.887   9.588  2.3355  1.9978  0.7999
  719MOL0     H97040  11.999   6.850   9.419  0.1219  1.1498 -1.0182
  719MOL0     H97041  12.262   6.780   9.530  1.4728 -3.2262 -2.2507
  719MOL0     H97042  12.270   6.854   9.363  1.2718  1.4086  0.6776
  719MOL0     H97043  12.240   6.605   9.404 -1.2194 -0.3966  2.0258
  719MOL0     H97044  12.075   6.634   9.445 -0.2175  1.7468  0.4259
  719MOL0     H97045  11.625   7.675   9.822 -0.0983 -0.6288 -2.2167
  719MOL0     H97046  11.414   7.657   9.950  0.3693  0.2184 -0.3002
  719MOL0     H97047  11.223   7.279  10.384 -0.1840 -2.6073 -0.1192
  719MOL0     H97048  11.023   7.207  10.461  2.5758  1.1182 -0.0070
  719MOL0     H97049   9.480   6.470  11.260  0.7205 -0.9439 -0.6857
  719MOL0     H97050   9.315   6.570  11.392  1.5391  2.5287  0.9708
  719MOL0     H97051   9.127   7.107  11.407 -2.0199 -0.1836 -0.6922
  719MOL0     H97052   8.968   7.204  11.570  1.0697  0.7573 -0.9380
  719MOL0     H97053   8.839   6.975  11.945  0.7055  0.3828 -0.1310
  719MOL0     H97054   8.727   6.979  11.806 -2.9718  2.0083  0.3114
  719MOL0     H97055   8.767   7.207  12.000 -0.4780  3.0920 -0.9951
  719MOL0     H97056   8.622   7.092  11.987  0.8251 -1.0685  0.6582
  719MOL0     H97057   8.716   7.300  11.794  3.2822 -1.6278  2.7060
  719MOL0     H97058   8.569   7.304  11.880 -0.4945 -0.6068 -1.9501
  719MOL0     H97059   8.498   7.232  11.666 -0.0080 -1.7736 -2.1606
  719MOL0     H97060   8.628   7.120  11.651  0.6658 -1.5467  1.5049
  719MOL0     H97061   8.286   6.961  11.850  1.5162 -0.9367 -0.4570
  719MOL0     H97062   8.942   6.836  11.778  2.0220 -0.1162 -0.5189
  719MOL0     H97063   9.154   6.644  11.551  1.4381  0.9891  1.0085
  719MOL0     H97064   9.045   6.634  11.684 -0.5094 -1.9042 -0.5122
  719MOL0     H97065   8.973   6.648  11.516 -0.6447 -1.0049  2.3579
  720MOL0     O97066   3.643  11.474   9.038  0.6420 -0.9538  0.0161
  720MOL0     C97067   3.598  11.432   8.930  0.2282  0.3585 -0.3138
  720MOL0     O97068   3.472  11.415   8.899  0.0226  0.6037  0.5377
  720MOL0     C97069   3.371  11.481   8.972 -0.7836 -0.3685 -0.9011
  720MOL0     C97070   3.237  11.444   8.938  0.2426  0.0752  0.0120
  720MOL0     C97071   3.128  11.501   9.011 -0.0272 -0.3332  1.0237
  720MOL0     C97072   3.139  11.591   9.113 -0.2063 -0.5353 -0.9447
  720MOL0     O97073   3.043  11.626   9.206 -0.3600  0.7272  0.0446
  720MOL0     C97074   2.956  11.734   9.158 -0.2789  1.3189  0.9496
  720MOL0     C97075   2.832  11.738   9.251 -0.2836  0.3114  0.7928
  720MOL0     C97076   2.876  11.719   9.399  0.4446 -0.4936  0.4073
  720MOL0     C97077   2.751  11.716   9.489  0.4013 -0.7676  0.3664
  720MOL0     C97078   2.770  11.678   9.642 -1.1268  0.2908  0.4547
  720MOL0     C97079   2.827  11.535   9.667 -0.3399  0.6141 -0.6389
  720MOL0     C97080   2.722  11.429   9.625 -0.6703  0.4960 -0.5028
  720MOL0     C97081   2.627  11.419   9.743  0.8659  0.1897 -0.3480
  720MOL0     N97082   2.535  11.311   9.728  1.0479  1.5634  0.2028
  720MOL0     C97083   2.549  11.184   9.789  0.1403 -0.5017  1.5746
  720MOL0     C97084   2.428  11.125   9.761  1.0749 -0.0024  0.6459
  720MOL0     C97085   2.382  10.971   9.772  0.9029 -1.0272 -1.3061
  720MOL0     C97086   2.433  10.896   9.901 -0.6042 -0.8121  0.0648
  720MOL0     C97087   2.405  10.739   9.914  0.0496 -0.0457 -0.2400
  720MOL0     C97088   2.507  10.652   9.829  0.3960 -0.4615  0.0404
  720MOL0     O97089   2.490  10.520   9.868  1.0725 -0.0543 -0.2842
  720MOL0     C97090   2.533  10.428   9.776  0.8234  0.3142  0.3186
  720MOL0     C97091   2.581  10.445   9.651 -0.5952  0.1396  0.2407
  720MOL0     C97092   2.616  10.337   9.572 -0.6341  0.2547  0.0141
  720MOL0     C97093   2.608  10.200   9.612  0.5644 -0.6700  0.5449
  720MOL0     C97094   2.641  10.087   9.530 -0.4705  0.6771  0.3323
  720MOL0     O97095   2.719  10.117   9.423 -0.1806  0.4609 -0.6287
  720MOL0     C97096   2.758  10.031   9.322  0.1991  0.0165  0.3710
  720MOL0     C97097   2.888  10.050   9.272  1.2906  0.0458  0.4214
  720MOL0     C97098   2.918   9.982   9.157  0.1433  0.0220 -1.2986
  720MOL0     C97099   2.825   9.904   9.087 -0.5286 -0.2403 -0.3990
  720MOL0     O97100   2.844   9.838   8.971 -0.9005  0.7593  0.1702
  720MOL0     C97101   2.981   9.809   8.940  0.4992 -0.4482  0.1196
  720MOL0     C97102   2.989   9.703   8.832 -0.8949  0.5649  0.7306
  720MOL0     C97103   2.976   9.734   8.684 -0.0040 -1.1056  0.4441
  720MOL0     C97104   2.819   9.749   8.636 -1.0000  1.1421  0.7671
  720MOL0     C97105   2.794   9.732   8.476 -0.7616 -0.1062 -0.0730
  720MOL0     C97106   2.835   9.858   8.403 -0.1169  0.4539  0.2764
  720MOL0     C97107   2.859   9.831   8.254 -0.2854 -0.2506 -0.0454
  720MOL0     C97108   2.749   9.744   8.180  0.7022 -0.4123 -0.8354
  720MOL0    Cl97109   2.821   9.706   8.022  0.3612  0.2466 -0.1456
  720MOL0     C97110   2.703   9.879   9.142  0.6014 -0.2026  0.6423
  720MOL0     C97111   2.669   9.934   9.266  0.6692  0.3972 -0.1351
  720MOL0     O97112   2.633   9.977   9.579  0.1683  0.2422 -0.4239
  720MOL0     C97113   2.550  10.185   9.738 -0.5604  0.1675  0.3529
  720MOL0     C97114   2.517  10.295   9.818  0.1403  0.6026 -0.1492
  720MOL0     N97115   2.343  11.215   9.699 -0.2213  0.0667 -0.1183
  720MOL0     N97116   2.411  11.329   9.683  0.0743 -0.0180 -0.2696
  720MOL0     C97117   3.268  11.632   9.144  0.3359  0.0384  0.5774
  720MOL0     C97118   3.378  11.578   9.077  0.4288 -0.8898  0.6990
  720MOL0     C97119   3.697  11.394   8.825  0.3551 -0.5658  0.5913
  720MOL0     C97120   3.807  11.490   8.788 -0.0773  0.1146 -0.4824
  720MOL0     C97121   3.877  11.466   8.668 -0.4935 -0.4454  0.3290
  720MOL0     C97122   3.859  11.353   8.590 -0.5731 -0.2497 -1.2807
  720MOL0     O97123   3.922  11.328   8.477  0.0278 -0.0006 -1.0502
  720MOL0     C97124   4.015  11.423   8.428 -0.7384 -0.4385  0.1676
  720MOL0     C97125   4.024  11.400   8.280  0.5646  1.1133  1.8533
  720MOL0     C97126   4.111  11.502   8.203 -0.0806 -0.3045  0.1532
  720MOL0     C97127   4.261  11.473   8.238  1.2736  0.2501 -0.0095
  720MOL0     C97128   4.341  11.549   8.139  0.0215  0.3818  0.5098
  720MOL0     C97129   4.393  11.624   8.059 -0.4945 -0.3362  0.7958
  720MOL0     C97130   3.761  11.263   8.635 -0.2615 -0.1903 -0.1235
  720MOL0     C97131   3.684  11.280   8.747 -0.2877  0.5274 -0.3283
  720MOL0     C97132   3.586  11.166   8.769 -0.0876 -0.9825  0.0368
  720MOL0     H97133   3.218  11.377   8.855 -0.4790  0.0936  0.1566
  720MOL0     H97134   3.037  11.446   8.987  0.3291  0.0706 -1.5281
  720MOL0     H97135   3.005  11.832   9.167  0.8458  0.8406  0.3624
  720MOL0     H97136   2.919  11.736   9.055 -0.3769  1.6856  0.9896
  720MOL0     H97137   2.753  11.674   9.211  0.9071  0.2304 -1.6410
  720MOL0     H97138   2.796  11.839   9.229  0.2726 -0.0168 -2.0582
  720MOL0     H97139   2.936  11.803   9.434  1.1494  0.7307 -3.2998
  720MOL0     H97140   2.931  11.627   9.419 -0.4612 -0.5638  2.8332
  720MOL0     H97141   2.705  11.815   9.495  2.0378  0.0426  0.1532
  720MOL0     H97142   2.676  11.645   9.452 -2.3343 -1.3590  6.0043
  720MOL0     H97143   2.845  11.753   9.672 -0.0978 -0.4854 -0.1020
  720MOL0     H97144   2.675  11.700   9.690 -0.8518 -0.9086  1.6109
  720MOL0     H97145   2.916  11.516   9.607 -0.2508 -2.6231  0.3150
  720MOL0     H97146   2.867  11.530   9.768 -0.0024 -0.7654 -0.8199
  720MOL0     H97147   2.777  11.336   9.605  3.0762  2.7431 -1.7998
  720MOL0     H97148   2.667  11.449   9.532  0.2526  2.0580 -0.7453
  720MOL0     H97149   2.673  11.427   9.842  0.0243 -0.8293  0.1442
  720MOL0     H97150   2.574  11.513   9.732  0.3407 -0.0225  0.2639
  720MOL0     H97151   2.634  11.144   9.844 -0.5647 -1.1315  2.2237
  720MOL0     H97152   2.273  10.980   9.775  1.0261  4.2538  2.3277
  720MOL0     H97153   2.406  10.920   9.678  1.3541 -1.9352 -0.7113
  720MOL0     H97154   2.541  10.915   9.901 -0.1845 -2.7218 -2.0698
  720MOL0     H97155   2.375  10.943   9.980  0.2325 -0.7732  0.6691
  720MOL0     H97156   2.303  10.716   9.881  0.5582 -2.6243 -0.2302
  720MOL0     H97157   2.413  10.709  10.019  1.6371  0.6758 -0.1305
  720MOL0     H97158   2.609  10.684   9.853  0.4331  1.0542 -1.8937
  720MOL0     H97159   2.490  10.672   9.723  4.5282  4.3882 -0.0710
  720MOL0     H97160   2.593  10.541   9.602 -1.2837  0.6323  1.0077
  720MOL0     H97161   2.644  10.362   9.470  0.3932 -1.1755 -0.0831
  720MOL0     H97162   2.950  10.127   9.316  1.2894 -0.1072  0.6996
  720MOL0     H97163   3.020   9.994   9.121  1.7000 -2.3656  1.8166
  720MOL0     H97164   3.043   9.894   8.909  0.4845 -1.3978 -2.8565
  720MOL0     H97165   3.028   9.765   9.029 -0.1031 -3.1742 -0.8076
  720MOL0     H97166   3.085   9.655   8.856  1.2216  3.5948 -0.9095
  720MOL0     H97167   2.913   9.627   8.851  1.8650 -2.3379  0.9368
  720MOL0     H97168   3.026   9.829   8.668  0.9794 -1.7196 -0.2333
  720MOL0     H97169   3.028   9.665   8.617  0.6981 -0.1689  0.0066
  720MOL0     H97170   2.778   9.839   8.683 -1.7093  0.6099  1.2031
  720MOL0     H97171   2.757   9.675   8.688 -2.9035  4.6950  4.1525
  720MOL0     H97172   2.689   9.720   8.449 -0.7129  0.8126 -0.7298
  720MOL0     H97173   2.849   9.641   8.450  0.9922  0.9712 -0.2794
  720MOL0     H97174   2.758   9.932   8.426 -0.5757  0.2778 -0.6538
  720MOL0     H97175   2.921   9.903   8.452  1.6413  1.5922 -3.4662
  720MOL0     H97176   2.959   9.786   8.251  0.4056  0.8224  2.9065
  720MOL0     H97177   2.874   9.931   8.213  3.5499 -0.9003 -0.6077
  720MOL0     H97178   2.713   9.659   8.239  2.0782  0.5418  1.5257
  720MOL0     H97179   2.664   9.810   8.166 -0.1641 -0.6159  2.6481
  720MOL0     H97180   2.630   9.808   9.105 -0.5851  2.1207 -1.8824
  720MOL0     H97181   2.579   9.918   9.324  0.9187  1.4363  0.5647
  720MOL0     H97182   2.526  10.086   9.777 -1.2968 -0.3128 -1.2303
  720MOL0     H97183   2.451  10.273   9.902  1.8230 -3.3014  0.3859
  720MOL0     H97184   3.289  11.701   9.225  0.6937 -0.2668  0.7496
  720MOL0     H97185   3.470  11.630   9.104  1.8156 -2.2320 -1.1038
  720MOL0     H97186   3.826  11.581   8.845  0.4580  0.5132 -1.2687
  720MOL0     H97187   3.956  11.535   8.640 -2.2802  1.9214  0.8036
  720MOL0     H97188   4.104  11.417   8.491 -2.2839  2.9389  3.0935
  720MOL0     H97189   3.989  11.528   8.445 -2.3274 -0.8059  0.1823
  720MOL0     H97190   3.922  11.397   8.241  1.5311  0.2571 -0.8352
  720MOL0     H97191   4.070  11.302   8.260 -2.7179 -1.0421  3.8881
  720MOL0     H97192   4.089  11.598   8.251  0.3186 -0.5720  0.8940
  720MOL0     H97193   4.091  11.505   8.096  1.4439 -1.7175 -0.2086
  720MOL0     H97194   4.272  11.503   8.343 -2.6137 -0.0041  0.6277
  720MOL0     H97195   4.270  11.365   8.249 -1.5744 -0.1272 -0.6374
  720MOL0     H97196   4.461  11.678   7.996 -0.8157 -0.7094  0.1192
  720MOL0     H97197   3.766  11.176   8.570 -0.3310 -1.2672  1.2794
  720MOL0     H97198   3.489  11.199   8.732  1.6153  3.0834 -1.3790
  720MOL0     H97199   3.625  11.076   8.721 -0.9053 -0.4602 -1.6628
  720MOL0     H97200   3.570  11.139   8.874  0.3877  4.3764  1.7840
  721MOL0     O97201   5.224   0.983  11.342 -0.2259  0.4053  0.7346
  721MOL0     C97202   5.131   1.060  11.329  0.6655  0.2909  1.0987
  721MOL0     O97203   5.140   1.196  11.337 -0.2975 -0.4847  0.2084
  721MOL0     C97204   5.237   1.254  11.423 -0.1662  0.1138  0.6270
  721MOL0     C97205   5.303   1.192  11.527 -0.5465  0.3837  0.0108
  721MOL0     C97206   5.399   1.263  11.604  0.7456  0.4383 -0.9298
  721MOL0     C97207   5.426   1.399  11.574  0.3414  0.2551  0.4899
  721MOL0     O97208   5.509   1.471  11.651  0.1069  0.5088  0.4277
  721MOL0     C97209   5.576   1.424  11.766 -0.0138 -0.6406 -0.8004
  721MOL0     C97210   5.714   1.379  11.709 -0.0517  0.5382  0.6711
  721MOL0     C97211   5.820   1.368  11.819  0.3013  0.5789  0.2603
  721MOL0     C97212   5.840   1.488  11.898 -0.9557 -0.9823 -0.8976
  721MOL0     C97213   5.985   1.497  11.944 -0.2627 -0.5890  0.4788
  721MOL0     C97214   6.073   1.583  11.857 -0.1080 -0.2976 -0.0445
  721MOL0     C97215   6.199   1.628  11.941  0.3512  0.2489  0.3274
  721MOL0     C97216   6.318   1.523  11.984  0.4231 -0.4851 -0.0100
  721MOL0     N97217   6.368   1.544  12.123  0.1882  0.4817  0.3428
  721MOL0     C97218   6.405   1.663  12.178  0.1001 -0.2141  0.2618
  721MOL0     C97219   6.428   1.637  12.310  0.5250 -0.3116 -0.8465
  721MOL0     C97220   6.454   1.735  12.420 -0.5774 -0.0042  0.5076
  721MOL0     C97221   6.573   1.704  12.515  0.3137 -0.1042 -0.2232
  721MOL0     C97222   6.545   1.606  12.625  0.9463 -0.1005  0.2111
  721MOL0     C97223   6.664   1.558  12.702  0.1108 -0.4953  1.2391
  721MOL0     O97224   6.744   1.471  12.618 -0.1546  0.0668 -0.9535
  721MOL0     C97225   6.879   1.461  12.627  0.3128 -0.7709 -0.0935
  721MOL0     C97226   6.948   1.413  12.514  0.0673  0.3294  0.2419
  721MOL0     C97227   7.083   1.391  12.515 -0.5182 -0.5756  0.5328
  721MOL0     C97228   7.157   1.405  12.629 -0.5009 -0.4062 -0.5861
  721MOL0     C97229   7.300   1.387  12.612 -1.1663 -0.6852  0.4277
  721MOL0     O97230   7.348   1.326  12.491 -0.1510 -0.3605 -1.3402
  721MOL0     C97231   7.474   1.273  12.493 -0.3236 -0.6112 -0.7071
  721MOL0     C97232   7.554   1.287  12.384  0.3480  0.1296 -0.8535
  721MOL0     C97233   7.672   1.219  12.368  0.0847 -1.1283  0.9658
  721MOL0     C97234   7.730   1.155  12.474  0.4819 -0.0218 -0.4083
  721MOL0     O97235   7.851   1.088  12.466  0.2612 -0.2547 -0.4769
  721MOL0     C97236   7.953   1.112  12.364  0.6188  0.2428 -0.5503
  721MOL0     C97237   8.082   1.155  12.435 -1.2062 -0.2186  0.2826
  721MOL0     C97238   8.166   1.035  12.472  0.6124 -1.3322 -1.0175
  721MOL0     C97239   8.295   1.075  12.551  0.3304  0.4268 -0.5338
  721MOL0     C97240   8.383   0.952  12.576  0.2710  0.1365 -0.1039
  721MOL0     C97241   8.513   0.972  12.657  0.0987 -0.2649  0.3338
  721MOL0     C97242   8.584   0.836  12.698  0.3550 -0.7939 -0.7647
  721MOL0     C97243   8.637   0.759  12.573 -0.4247  0.4655 -0.1712
  721MOL0    Cl97244   8.653   0.588  12.598  0.6068 -0.2722  0.7247
  721MOL0     C97245   7.646   1.126  12.587  0.6335 -0.4633  0.6351
  721MOL0     C97246   7.521   1.183  12.599  0.3410  0.4245  0.7703
  721MOL0     O97247   7.371   1.418  12.710 -0.2635  0.3169  0.1432
  721MOL0     C97248   7.093   1.451  12.748  0.0105 -0.0603  0.2565
  721MOL0     C97249   6.960   1.487  12.746 -0.1758 -0.3549 -0.3577
  721MOL0     N97250   6.380   1.509  12.331  0.2569 -0.1167 -0.4613
  721MOL0     N97251   6.357   1.449  12.223  0.0908  0.1729 -0.0830
  721MOL0     C97252   5.366   1.454  11.461 -0.0386  1.3281  1.2157
  721MOL0     C97253   5.266   1.380  11.394  0.1150  0.0263  0.4184
  721MOL0     C97254   5.017   1.014  11.249  0.7720 -0.0450  0.0183
  721MOL0     C97255   4.992   1.088  11.134  0.3079 -0.5757  0.3598
  721MOL0     C97256   4.886   1.053  11.054 -0.0204 -0.1726  0.3369
  721MOL0     C97257   4.794   0.950  11.085 -0.4727  0.1076  0.2364
  721MOL0     O97258   4.685   0.917  11.017  0.3682  0.1990 -0.6779
  721MOL0     C97259   4.645   0.981  10.894 -0.0928 -0.5108 -0.0497
  721MOL0     C97260   4.568   1.098  10.919 -0.0551  0.2889  0.3829
  721MOL0     C97261   4.415   1.100  10.875 -0.4587  0.4170 -0.9185
  721MOL0     C97262   4.329   1.071  10.995 -0.5096  0.2775 -0.5934
  721MOL0     C97263   4.189   1.099  10.965  0.2915  0.1639  0.6048
  721MOL0     C97264   4.070   1.090  10.952 -0.0282 -0.0699  0.0155
  721MOL0     C97265   4.827   0.879  11.200  0.0698  0.5554 -0.3590
  721MOL0     C97266   4.936   0.903  11.277  0.5149 -0.0041  0.0037
  721MOL0     C97267   4.959   0.800  11.384 -0.2125  0.1018 -0.4946
  721MOL0     H97268   5.287   1.087  11.548  5.1015 -0.9619 -0.6541
  721MOL0     H97269   5.445   1.205  11.683  1.8535 -0.4337 -2.1754
  721MOL0     H97270   5.591   1.499  11.844 -0.1405 -0.3512 -1.0500
  721MOL0     H97271   5.530   1.338  11.817  0.8010 -0.2422  0.6761
  721MOL0     H97272   5.739   1.453  11.633 -2.7309 -1.1091 -2.0513
  721MOL0     H97273   5.704   1.281  11.662 -1.9629 -0.7035  3.3640
  721MOL0     H97274   5.916   1.339  11.773 -0.1922 -2.4752  0.9061
  721MOL0     H97275   5.794   1.292  11.893  1.1349  1.6001  1.6417
  721MOL0     H97276   5.828   1.569  11.825  1.5725 -1.6292 -2.1696
  721MOL0     H97277   5.758   1.482  11.970 -0.1283 -2.7013 -0.0345
  721MOL0     H97278   5.983   1.537  12.045  0.0360  0.0385  0.2421
  721MOL0     H97279   6.034   1.399  11.950  1.8056  0.3222 -0.3615
  721MOL0     H97280   6.102   1.533  11.764  0.3913  0.2573 -0.1905
  721MOL0     H97281   6.028   1.681  11.843  0.3656  0.2811  2.0655
  721MOL0     H97282   6.164   1.679  12.031 -4.8440 -2.3839  0.1344
  721MOL0     H97283   6.263   1.700  11.888 -1.3641 -0.0038 -2.2529
  721MOL0     H97284   6.279   1.422  11.970 -2.6821  0.6388 -0.1820
  721MOL0     H97285   6.401   1.543  11.916  0.8849 -1.4983  0.2462
  721MOL0     H97286   6.414   1.763  12.136 -2.2844 -1.2415 -3.0377
  721MOL0     H97287   6.462   1.831  12.369 -0.8865  1.0553  2.3822
  721MOL0     H97288   6.360   1.746  12.475 -0.7543 -0.7446  0.3711
  721MOL0     H97289   6.652   1.664  12.451  0.9925 -0.4469  0.8111
  721MOL0     H97290   6.608   1.799  12.558 -3.0965  1.6912 -1.0429
  721MOL0     H97291   6.496   1.516  12.586  1.1462 -0.5824  1.0413
  721MOL0     H97292   6.483   1.648  12.705  0.6777 -1.2518  0.6397
  721MOL0     H97293   6.629   1.495  12.784 -2.2888  0.3847  0.9828
  721MOL0     H97294   6.709   1.649  12.744  0.4626  1.1066 -2.2457
  721MOL0     H97295   6.897   1.376  12.425 -1.2490  1.6584  0.4208
  721MOL0     H97296   7.123   1.378  12.415  0.8890  2.4003  0.6036
  721MOL0     H97297   7.514   1.347  12.303  0.3351 -1.0978 -1.7902
  721MOL0     H97298   7.720   1.217  12.271  0.6679 -2.5179  1.2544
  721MOL0     H97299   7.957   1.011  12.322 -3.1852  0.2824 -1.3879
  721MOL0     H97300   7.923   1.179  12.283  2.9558  1.0450 -0.8039
  721MOL0     H97301   8.140   1.216  12.366 -1.2769  2.0031  2.0554
  721MOL0     H97302   8.063   1.222  12.520 -1.0497  0.0162  0.1344
  721MOL0     H97303   8.106   0.980  12.545 -2.3267 -0.2710 -2.4469
  721MOL0     H97304   8.187   0.975  12.382  1.4674  0.0768 -1.7890
  721MOL0     H97305   8.271   1.132  12.642  0.4046  1.1894 -0.9851
  721MOL0     H97306   8.351   1.143  12.487  1.0191 -1.0960 -1.5954
  721MOL0     H97307   8.404   0.920  12.474 -2.0096  3.0841 -1.6577
  721MOL0     H97308   8.325   0.883  12.638 -1.0502 -0.1564 -1.6074
  721MOL0     H97309   8.590   1.019  12.595 -2.2734 -1.0985 -3.6138
  721MOL0     H97310   8.491   1.021  12.752  1.2613 -3.6642  2.5454
  721MOL0     H97311   8.509   0.769  12.742 -1.1352  1.3175  0.1193
  721MOL0     H97312   8.662   0.854  12.772 -1.5710 -2.5992  1.9107
  721MOL0     H97313   8.560   0.775  12.496 -2.7548  3.6468  2.5336
  721MOL0     H97314   8.737   0.789  12.541  1.5012 -2.5885  2.3984
  721MOL0     H97315   7.686   1.063  12.666  2.5238  2.1998  1.9429
  721MOL0     H97316   7.460   1.166  12.688  1.9399  1.3044  2.1004
  721MOL0     H97317   7.155   1.466  12.837 -1.1523  1.8996  0.7935
  721MOL0     H97318   6.911   1.522  12.836 -0.1383  0.7237 -0.7364
  721MOL0     H97319   5.381   1.560  11.444 -2.2411  1.5107  0.0878
  721MOL0     H97320   5.208   1.419  11.311  0.2797 -2.0736 -0.7354
  721MOL0     H97321   5.049   1.176  11.104 -1.9617  0.7820 -0.2385
  721MOL0     H97322   4.874   1.126  10.974 -0.4121 -0.8033 -0.1863
  721MOL0     H97323   4.591   0.910  10.830  0.0821  0.8832 -1.8329
  721MOL0     H97324   4.716   1.017  10.820  1.7632 -0.3328  1.7492
  721MOL0     H97325   4.618   1.182  10.870 -0.8480 -0.0675 -1.1102
  721MOL0     H97326   4.575   1.114  11.027 -0.3957  2.0012  0.1826
  721MOL0     H97327   4.398   1.036  10.789 -0.1583  0.8936 -1.3372
  721MOL0     H97328   4.417   1.207  10.850 -0.5304  2.0543  4.6982
  721MOL0     H97329   4.340   0.964  11.014  0.9388 -0.3184 -4.0180
  721MOL0     H97330   4.359   1.127  11.084 -0.5658  0.2143 -0.5351
  721MOL0     H97331   3.968   1.073  10.927 -1.0850  0.0367  3.6433
  721MOL0     H97332   4.763   0.795  11.224  0.3431  0.9104  1.8572
  721MOL0     H97333   4.865   0.757  11.419 -0.6799  0.6049 -1.1060
  721MOL0     H97334   5.017   0.715  11.346  0.2722 -0.3939  1.2524
  721MOL0     H97335   5.010   0.838  11.473 -0.9771 -0.3684  0.1625
  722MOL0     O97336   0.851   3.433   4.899 -0.1584 -0.5530  0.3656
  722MOL0     C97337   0.885   3.558   4.890 -0.1667 -0.0587  0.5503
  722MOL0     O97338   0.817   3.651   4.813  0.0426 -0.1428  0.2905
  722MOL0     C97339   0.741   3.607   4.713  0.1949 -0.0678  0.3388
  722MOL0     C97340   0.769   3.487   4.629 -0.4247  0.1874  0.2789
  722MOL0     C97341   0.677   3.446   4.530  0.1201 -0.7253 -0.4229
  722MOL0     C97342   0.574   3.536   4.490 -0.6437  0.6501 -0.1024
  722MOL0     O97343   0.494   3.520   4.378  0.8211  0.7409 -0.4551
  722MOL0     C97344   0.543   3.449   4.265 -0.5290  0.0367  0.2866
  722MOL0     C97345   0.457   3.490   4.143  0.6898 -0.5063  0.9566
  722MOL0     C97346   0.523   3.446   4.008  0.2304 -0.1778  0.5636
  722MOL0     C97347   0.426   3.454   3.886  0.2580 -0.7684  0.1711
  722MOL0     C97348   0.357   3.318   3.869 -0.4718  0.2226  0.4345
  722MOL0     C97349   0.233   3.326   3.773 -0.9651 -0.6820 -0.1980
  722MOL0     C97350   0.270   3.351   3.619 -0.2177  0.8228 -0.5797
  722MOL0     C97351   0.132   3.384   3.555 -0.4667  0.1003  0.2083
  722MOL0     N97352   0.023   3.297   3.585  1.0195 -0.2760 -0.0633
  722MOL0     C97353   0.040   3.160   3.575 -0.0545  0.2675  0.4867
  722MOL0     C97354  -0.072   3.112   3.634 -0.5655  0.6161  0.6685
  722MOL0     C97355  -0.094   2.971   3.669  0.5360  2.1676 -0.5564
  722MOL0     C97356  -0.225   2.952   3.754  0.0181 -1.5526 -0.9693
  722MOL0     C97357  -0.214   3.004   3.899 -0.3812  0.5125  0.1172
  722MOL0     C97358  -0.337   2.963   3.971  0.0579 -0.1658 -0.6040
  722MOL0     O97359  -0.301   2.927   4.107  0.5159 -0.3796 -0.6172
  722MOL0     C97360  -0.318   3.018   4.214  0.0122  0.1983  0.2890
  722MOL0     C97361  -0.328   2.969   4.341 -0.0089 -0.6074  0.5639
  722MOL0     C97362  -0.338   3.054   4.453 -0.2028  0.1650  0.4854
  722MOL0     C97363  -0.340   3.195   4.433  0.8599 -0.3144  0.6168
  722MOL0     C97364  -0.360   3.291   4.547 -0.1063  0.1585 -0.0735
  722MOL0     O97365  -0.411   3.236   4.674 -0.0450  0.2747 -0.2267
  722MOL0     C97366  -0.325   3.248   4.777  0.1473  0.0144  0.0056
  722MOL0     C97367  -0.374   3.246   4.914 -0.0742 -0.3988  0.8603
  722MOL0     C97368  -0.293   3.250   5.021  0.8728 -0.4820 -0.0920
  722MOL0     C97369  -0.159   3.280   5.001 -0.1959  0.8386 -0.2617
  722MOL0     O97370  -0.082   3.290   5.109 -0.2977  0.2982  0.2722
  722MOL0     C97371   0.058   3.336   5.101  0.0856  1.5867  0.6713
  722MOL0     C97372   0.106   3.355   5.249  0.0442  0.4902  0.5375
  722MOL0     C97373   0.246   3.396   5.253 -0.2444 -0.9463 -0.1728
  722MOL0     C97374   0.305   3.367   5.389 -0.2071  0.4703 -0.1553
  722MOL0     C97375   0.448   3.412   5.395  0.5684 -0.4109  0.7290
  722MOL0     C97376   0.514   3.398   5.529 -0.0259 -0.0787 -0.2208
  722MOL0     C97377   0.656   3.467   5.523  0.8151 -0.2649 -0.0266
  722MOL0     C97378   0.755   3.376   5.446 -0.5832 -0.3035  0.4395
  722MOL0    Cl97379   0.775   3.216   5.520 -0.1369 -0.3439  0.3478
  722MOL0     C97380  -0.103   3.287   4.868 -0.2759 -0.1071  0.3283
  722MOL0     C97381  -0.188   3.263   4.758  0.4220  0.5519  0.1623
  722MOL0     O97382  -0.330   3.409   4.528  1.0251  0.2300  0.3961
  722MOL0     C97383  -0.339   3.243   4.303 -0.7435  0.4823  0.0516
  722MOL0     C97384  -0.327   3.150   4.193 -0.6723 -0.3968 -0.1439
  722MOL0     N97385  -0.152   3.224   3.663  0.2365 -0.8691 -0.3752
  722MOL0     N97386  -0.099   3.331   3.624  0.4135 -0.1851  0.3684
  722MOL0     C97387   0.556   3.653   4.564  0.7026 -1.1062 -0.4078
  722MOL0     C97388   0.633   3.690   4.677 -1.4113  0.2288  0.5517
  722MOL0     C97389   0.999   3.608   4.969  0.0577  0.2517  0.2688
  722MOL0     C97390   1.016   3.747   4.976  0.6639  0.0634 -1.6152
  722MOL0     C97391   1.104   3.800   5.067  0.4876 -0.0818 -0.0909
  722MOL0     C97392   1.193   3.721   5.142 -0.7805 -0.5184  1.3008
  722MOL0     O97393   1.297   3.764   5.221 -0.3787 -0.0066  0.0205
  722MOL0     C97394   1.278   3.887   5.287 -0.6585 -0.2200  0.0144
  722MOL0     C97395   1.344   4.004   5.205 -0.8651  0.6656  0.7402
  722MOL0     C97396   1.390   4.115   5.300  0.0443  0.0284 -0.3389
  722MOL0     C97397   1.275   4.191   5.357  0.6482 -0.1334 -0.2459
  722MOL0     C97398   1.305   4.304   5.438 -0.1853  0.2859  0.1604
  722MOL0     C97399   1.327   4.417   5.482  0.7879 -1.1396  0.2255
  722MOL0     C97400   1.198   3.587   5.121  0.3692  0.0576 -0.8330
  722MOL0     C97401   1.093   3.525   5.048 -1.1739 -0.8223  0.8853
  722MOL0     C97402   1.105   3.373   5.038 -0.0437 -0.6081 -0.0084
  722MOL0     H97403   0.851   3.416   4.631  1.6682  2.3850 -1.2849
  722MOL0     H97404   0.706   3.352   4.484  2.7960  1.1381 -2.8692
  722MOL0     H97405   0.642   3.491   4.242 -0.7342 -0.6150 -1.9716
  722MOL0     H97406   0.551   3.341   4.280  1.2674  0.5748  4.9960
  722MOL0     H97407   0.460   3.599   4.143 -2.5906 -0.3067 -0.7797
  722MOL0     H97408   0.354   3.456   4.153  0.2883  0.7471  1.2007
  722MOL0     H97409   0.541   3.339   4.020  0.4091 -0.1743  0.3042
  722MOL0     H97410   0.611   3.507   3.987 -1.2556  3.4728  3.6988
  722MOL0     H97411   0.349   3.528   3.909  2.4031  1.3429  0.9508
  722MOL0     H97412   0.477   3.476   3.792 -1.2531 -0.7644 -0.6693
  722MOL0     H97413   0.422   3.249   3.815 -0.5086  0.6709 -0.1897
  722MOL0     H97414   0.323   3.285   3.968  0.9874 -0.3858  0.7549
  722MOL0     H97415   0.182   3.231   3.794  1.2421 -2.2658 -1.6562
  722MOL0     H97416   0.166   3.408   3.800 -1.9491 -1.1984 -1.0139
  722MOL0     H97417   0.324   3.271   3.569 -0.1355 -0.8626  2.0231
  722MOL0     H97418   0.347   3.429   3.617  3.1516 -2.0851  2.4580
  722MOL0     H97419   0.108   3.487   3.580  0.0449  1.1099 -2.9994
  722MOL0     H97420   0.150   3.382   3.447 -0.8130 -1.0938  0.1569
  722MOL0     H97421   0.107   3.085   3.534 -3.4187 -3.7663  1.6770
  722MOL0     H97422  -0.101   2.909   3.580  4.4970 -1.2189  1.1814
  722MOL0     H97423  -0.007   2.934   3.724 -0.4974 -0.2824 -0.4281
  722MOL0     H97424  -0.300   3.019   3.712 -2.1264 -1.3178  2.7943
  722MOL0     H97425  -0.269   2.851   3.756  0.5318 -1.9478  4.0365
  722MOL0     H97426  -0.205   3.113   3.907 -1.6700  0.8008 -1.7322
  722MOL0     H97427  -0.122   2.984   3.954  0.1572 -0.5991 -1.1185
  722MOL0     H97428  -0.385   2.879   3.920  0.6800 -0.0249 -1.4449
  722MOL0     H97429  -0.409   3.046   3.976 -0.6417 -0.8548  1.5410
  722MOL0     H97430  -0.323   2.862   4.358 -0.0404 -1.1103 -2.1831
  722MOL0     H97431  -0.342   3.012   4.553  1.6356  2.3338  1.5679
  722MOL0     H97432  -0.476   3.211   4.931 -0.9608  1.8817  0.6011
  722MOL0     H97433  -0.338   3.244   5.119 -1.1729 -4.4492 -1.0730
  722MOL0     H97434   0.129   3.264   5.060 -1.7007 -0.2040  0.5475
  722MOL0     H97435   0.066   3.427   5.041  0.1364 -0.4836 -2.7756
  722MOL0     H97436   0.044   3.436   5.289 -0.7463 -0.9827  2.4585
  722MOL0     H97437   0.082   3.272   5.316  0.1522  0.9485  1.1424
  722MOL0     H97438   0.300   3.353   5.168  0.1264  0.0937 -0.4905
  722MOL0     H97439   0.241   3.504   5.232 -0.7703 -1.3229 -2.2990
  722MOL0     H97440   0.305   3.259   5.402  0.8248  0.0484 -2.9530
  722MOL0     H97441   0.253   3.409   5.475  1.1078 -1.1175  1.4807
  722MOL0     H97442   0.463   3.513   5.356  0.5976 -1.5985 -2.7409
  722MOL0     H97443   0.509   3.356   5.323 -1.2032 -1.2184 -0.2103
  722MOL0     H97444   0.446   3.449   5.598  1.6573  1.2948  0.4815
  722MOL0     H97445   0.530   3.291   5.549  0.2224 -0.0012 -0.0049
  722MOL0     H97446   0.699   3.474   5.624 -0.5074  1.2230  0.4793
  722MOL0     H97447   0.633   3.566   5.484 -2.2392 -2.1854 -3.7888
  722MOL0     H97448   0.718   3.359   5.344  0.1979  0.8602 -0.0566
  722MOL0     H97449   0.857   3.413   5.454 -0.7413 -0.0283  1.3149
  722MOL0     H97450   0.001   3.314   4.858 -0.1986  0.4222  2.1536
  722MOL0     H97451  -0.144   3.260   4.659  0.3187 -0.8370  0.1457
  722MOL0     H97452  -0.361   3.347   4.281 -1.3130  0.9404  2.4881
  722MOL0     H97453  -0.311   3.183   4.091  0.4693  0.7356  0.3656
  722MOL0     H97454   0.477   3.710   4.519  1.6134 -0.4124 -1.1559
  722MOL0     H97455   0.607   3.778   4.735  1.1530  0.6265  1.2014
  722MOL0     H97456   0.950   3.813   4.920  0.8396  0.7047 -1.0742
  722MOL0     H97457   1.108   3.904   5.098  1.7422  0.3242 -1.5209
  722MOL0     H97458   1.328   3.885   5.384 -1.6710 -0.3389  0.5524
  722MOL0     H97459   1.171   3.905   5.298 -0.3496  2.9396 -1.1516
  722MOL0     H97460   1.278   4.055   5.135 -0.5987  3.7252  2.5291
  722MOL0     H97461   1.429   3.970   5.144 -2.3955 -0.7844 -0.6655
  722MOL0     H97462   1.461   4.176   5.243 -0.6844 -1.9562 -3.6772
  722MOL0     H97463   1.445   4.076   5.386 -4.4069  0.9256  3.3037
  722MOL0     H97464   1.226   4.240   5.272 -0.4360  1.6091  1.3118
  722MOL0     H97465   1.206   4.132   5.418  1.1382  1.8144  2.3794
  722MOL0     H97466   1.369   4.511   5.511 -1.7330  0.0401  0.3624
  722MOL0     H97467   1.263   3.515   5.171  0.4409  0.4023 -0.4225
  722MOL0     H97468   1.088   3.320   4.943 -1.2353 -1.7320  0.7766
  722MOL0     H97469   1.201   3.338   5.077  1.2181 -0.1283 -2.4865
  722MOL0     H97470   1.013   3.357   5.096 -0.3678  4.0049  1.0942
  723MOL0     O97471   5.405   1.410   7.764 -0.7030 -0.3395 -0.2671
  723MOL0     C97472   5.510   1.397   7.826  0.3254  1.0255 -0.5552
  723MOL0     O97473   5.547   1.480   7.938 -0.3508  0.2795  0.6256
  723MOL0     C97474   5.485   1.605   7.943 -0.0190  0.1676  0.7616
  723MOL0     C97475   5.516   1.696   7.842 -0.0408  0.1970  1.5461
  723MOL0     C97476   5.444   1.812   7.814  0.1140 -0.2019  0.9463
  723MOL0     C97477   5.336   1.842   7.897  0.1038  0.6760 -0.8357
  723MOL0     O97478   5.284   1.956   7.857  1.1359 -0.3955  0.3811
  723MOL0     C97479   5.169   1.995   7.921 -0.7389 -0.0210 -1.1352
  723MOL0     C97480   5.125   2.128   7.861  0.1305 -0.3757 -0.7318
  723MOL0     C97481   5.034   2.201   7.965  0.9788  0.4746 -0.1071
  723MOL0     C97482   4.977   2.333   7.910  0.1081  0.4275  0.0727
  723MOL0     C97483   4.877   2.377   8.010 -0.0935 -1.6303 -0.2055
  723MOL0     C97484   4.945   2.460   8.127 -0.0355 -0.2215  0.3424
  723MOL0     C97485   4.843   2.532   8.218 -0.3600  0.4577 -0.1336
  723MOL0     C97486   4.919   2.568   8.343 -0.3392  0.0136 -0.1179
  723MOL0     N97487   4.824   2.604   8.454  0.3421  0.2791  0.2901
  723MOL0     C97488   4.759   2.717   8.484  1.4842  0.7947  0.2129
  723MOL0     C97489   4.687   2.693   8.596 -0.1223 -0.4823 -0.6942
  723MOL0     C97490   4.623   2.797   8.675  0.3362  0.4774 -0.5976
  723MOL0     C97491   4.501   2.754   8.759 -1.0127  0.2961  1.3046
  723MOL0     C97492   4.443   2.877   8.839  0.2853 -0.2568  0.2021
  723MOL0     C97493   4.373   2.974   8.745  0.0720  0.6410  0.2826
  723MOL0     O97494   4.317   2.911   8.633  0.3667 -0.1823  0.3117
  723MOL0     C97495   4.289   3.005   8.541 -0.0378  1.1394  0.0086
  723MOL0     C97496   4.379   3.023   8.435 -0.4919 -0.0489 -0.3687
  723MOL0     C97497   4.370   3.129   8.343 -0.1854  0.2856  0.4807
  723MOL0     C97498   4.256   3.212   8.347 -0.2562  0.5566  0.7320
  723MOL0     C97499   4.220   3.312   8.238 -0.5373  0.4824  0.6674
  723MOL0     O97500   4.128   3.413   8.269  0.0314 -0.8487  0.1978
  723MOL0     C97501   4.124   3.535   8.212 -0.3413  0.1676 -0.6222
  723MOL0     C97502   4.064   3.642   8.293  0.3397 -0.7602  0.3622
  723MOL0     C97503   4.056   3.770   8.244  0.1248 -0.3784  0.4208
  723MOL0     C97504   4.092   3.783   8.100  0.0914  1.3769 -0.6529
  723MOL0     O97505   4.086   3.904   8.041  0.4747 -0.5023  0.0972
  723MOL0     C97506   4.084   4.025   8.123 -1.2629  0.4159 -0.1537
  723MOL0     C97507   4.077   4.132   8.022 -0.0324  0.4218  0.4421
  723MOL0     C97508   4.214   4.159   7.958 -0.0310  0.4509  0.3611
  723MOL0     C97509   4.196   4.276   7.865  1.0240 -0.1652  0.3006
  723MOL0     C97510   4.317   4.303   7.773  0.5027 -0.6021 -0.6672
  723MOL0     C97511   4.304   4.440   7.706 -0.8040  0.2119  0.4647
  723MOL0     C97512   4.405   4.481   7.605  0.9563  0.7635  0.6201
  723MOL0     C97513   4.401   4.636   7.584  0.1567 -0.4701  0.3481
  723MOL0    Cl97514   4.244   4.680   7.508  0.1505 -0.2127 -0.5085
  723MOL0     C97515   4.125   3.674   8.018  0.2184  1.1012 -0.1345
  723MOL0     C97516   4.152   3.551   8.071 -0.5385 -0.5636 -0.2634
  723MOL0     O97517   4.286   3.290   8.128  0.1447 -0.6133  0.0460
  723MOL0     C97518   4.159   3.186   8.444 -0.7046 -0.0426 -0.6630
  723MOL0     C97519   4.174   3.086   8.543 -0.2664  1.2066 -0.0647
  723MOL0     N97520   4.706   2.558   8.634  0.2300 -0.1319  0.4461
  723MOL0     N97521   4.779   2.503   8.542  0.0406 -0.0693 -0.0746
  723MOL0     C97522   5.306   1.753   8.007 -0.3245  0.1191  1.2606
  723MOL0     C97523   5.378   1.636   8.024  0.9262 -0.0466 -0.3185
  723MOL0     C97524   5.605   1.287   7.785 -0.3576 -1.2406  0.3324
  723MOL0     C97525   5.694   1.249   7.886  0.1790  0.7694 -0.5434
  723MOL0     C97526   5.784   1.143   7.868  0.1019  0.3409  0.8054
  723MOL0     C97527   5.785   1.070   7.749 -0.5961 -1.2210 -1.0291
  723MOL0     O97528   5.857   0.951   7.745 -0.6757 -0.6470 -0.3869
  723MOL0     C97529   5.940   0.935   7.632 -0.7857  0.0465  0.6027
  723MOL0     C97530   6.032   0.821   7.670  0.1438  0.0095  0.5311
  723MOL0     C97531   5.965   0.700   7.719  1.0310  0.8545 -0.5062
  723MOL0     C97532   6.066   0.598   7.759  0.3986  0.2649  0.1475
  723MOL0     C97533   6.116   0.625   7.887 -0.0248 -0.1606  0.5252
  723MOL0     C97534   6.157   0.660   7.995  1.4602  0.3140 -0.1745
  723MOL0     C97535   5.699   1.107   7.653  0.0995  0.2648 -0.0660
  723MOL0     C97536   5.620   1.219   7.659  0.6552 -0.7428  0.3637
  723MOL0     C97537   5.551   1.276   7.530  0.7608  0.4423 -0.1107
  723MOL0     H97538   5.596   1.670   7.774 -0.4682 -0.2486  1.2075
  723MOL0     H97539   5.465   1.867   7.723 -1.4923 -2.3803 -0.8503
  723MOL0     H97540   5.094   1.916   7.932  1.1755 -1.5394  2.9566
  723MOL0     H97541   5.200   2.017   8.023 -2.2917 -3.6803  0.3021
  723MOL0     H97542   5.076   2.114   7.765 -0.2441 -0.1476 -0.5748
  723MOL0     H97543   5.209   2.197   7.857 -0.4407  0.4752  0.8779
  723MOL0     H97544   5.093   2.222   8.055  1.5550  0.2120 -0.4134
  723MOL0     H97545   4.954   2.130   7.988  0.3897  1.1634 -0.0072
  723MOL0     H97546   5.058   2.405   7.896  0.2968 -0.0751 -1.6974
  723MOL0     H97547   4.937   2.325   7.808  1.9373 -1.9370 -0.5337
  723MOL0     H97548   4.817   2.457   7.967 -0.3907 -2.0834 -0.6475
  723MOL0     H97549   4.805   2.302   8.043 -1.6041  0.9520  3.0317
  723MOL0     H97550   5.007   2.397   8.192 -0.5810  0.8685  1.9761
  723MOL0     H97551   5.012   2.534   8.082 -0.8734 -0.1109 -0.7524
  723MOL0     H97552   4.756   2.468   8.240  0.0252  0.1394  0.4695
  723MOL0     H97553   4.801   2.615   8.161  0.2703  1.3465  0.6800
  723MOL0     H97554   4.985   2.491   8.383 -1.5071 -2.4264 -2.5300
  723MOL0     H97555   4.993   2.646   8.321  1.7700 -2.3864 -2.1497
  723MOL0     H97556   4.771   2.813   8.434 -0.6104  0.8488 -0.2823
  723MOL0     H97557   4.697   2.835   8.746 -0.7210 -0.6694  1.1788
  723MOL0     H97558   4.592   2.879   8.609 -3.5212  4.2919  5.0452
  723MOL0     H97559   4.434   2.700   8.691 -0.7860  0.2242  1.1354
  723MOL0     H97560   4.534   2.678   8.831 -4.9407 -1.9089  1.0732
  723MOL0     H97561   4.521   2.924   8.900 -0.8354  0.6328  0.9832
  723MOL0     H97562   4.367   2.833   8.904 -0.7123 -2.7668 -2.4223
  723MOL0     H97563   4.439   3.059   8.727  0.9899  0.1412  1.1555
  723MOL0     H97564   4.293   3.019   8.805  1.5211  0.8858  2.1448
  723MOL0     H97565   4.469   2.967   8.410 -0.5388  0.4910 -1.8834
  723MOL0     H97566   4.446   3.143   8.267  1.1256 -3.2254  0.9509
  723MOL0     H97567   4.024   3.624   8.392 -3.6515  1.9360 -0.5719
  723MOL0     H97568   4.006   3.851   8.296 -3.0872 -0.2855 -2.4520
  723MOL0     H97569   4.004   4.014   8.196  0.4043 -3.9654  1.3531
  723MOL0     H97570   4.176   4.012   8.181  0.2952  1.1553 -2.3108
  723MOL0     H97571   4.003   4.107   7.946 -1.7525 -0.8606  2.4180
  723MOL0     H97572   4.047   4.227   8.067  3.9809  1.7644  0.6728
  723MOL0     H97573   4.291   4.192   8.029  2.1104 -1.2655 -1.0009
  723MOL0     H97574   4.252   4.078   7.895 -0.4598  1.4603 -1.2563
  723MOL0     H97575   4.177   4.369   7.920 -2.4475 -1.5443  1.6877
  723MOL0     H97576   4.107   4.277   7.802 -0.6020 -0.3601  2.4883
  723MOL0     H97577   4.334   4.233   7.691  0.9512  0.0494 -1.1439
  723MOL0     H97578   4.406   4.306   7.837  0.2056  0.3990 -0.2796
  723MOL0     H97579   4.202   4.443   7.667 -1.2707 -3.5476  1.0124
  723MOL0     H97580   4.318   4.505   7.794  2.6974 -0.1756  0.3212
  723MOL0     H97581   4.391   4.428   7.510 -1.5256  2.1724  0.1060
  723MOL0     H97582   4.506   4.453   7.635  0.8667  0.6887  0.8514
  723MOL0     H97583   4.428   4.699   7.670  1.1220  2.0747 -1.6933
  723MOL0     H97584   4.480   4.657   7.512 -0.4526 -0.3493 -0.2934
  723MOL0     H97585   4.154   3.679   7.914  1.6595  0.2243  0.1922
  723MOL0     H97586   4.191   3.469   8.012  1.9318  0.3246 -0.0060
  723MOL0     H97587   4.068   3.246   8.448 -2.1535 -2.0790 -1.4541
  723MOL0     H97588   4.098   3.071   8.619  1.6663  0.7800  1.8722
  723MOL0     H97589   5.232   1.781   8.082 -0.2790  0.6205  1.1265
  723MOL0     H97590   5.357   1.559   8.097  6.5324 -0.9205  0.8411
  723MOL0     H97591   5.700   1.292   7.985  0.5531 -1.6973  0.5758
  723MOL0     H97592   5.857   1.130   7.948  0.6999 -0.3887  0.1601
  723MOL0     H97593   5.992   1.027   7.603 -0.1683 -0.4922 -0.0597
  723MOL0     H97594   5.880   0.908   7.545 -0.6280 -1.0332  0.8116
  723MOL0     H97595   6.083   0.862   7.758 -1.2283  0.1460  1.2795
  723MOL0     H97596   6.107   0.808   7.592  0.4046 -2.3214  1.1030
  723MOL0     H97597   5.897   0.656   7.645  2.7417 -2.0852 -0.5022
  723MOL0     H97598   5.897   0.710   7.803  2.3940 -0.9841  0.9093
  723MOL0     H97599   6.012   0.503   7.769  1.6840 -0.3352  1.7576
  723MOL0     H97600   6.144   0.586   7.683  1.4121  0.3534  1.1584
  723MOL0     H97601   6.194   0.685   8.093  1.4379  0.0746 -0.1045
  723MOL0     H97602   5.707   1.041   7.567  1.9591 -1.2227  1.1667
  723MOL0     H97603   5.559   1.193   7.458  2.0091 -1.4354  2.0514
  723MOL0     H97604   5.445   1.300   7.537  0.7450  0.1453  0.8835
  723MOL0     H97605   5.609   1.365   7.505 -1.0915  2.2676  1.6604
  724MOL0     O97606   1.053   3.208   7.262  0.2112 -0.3753 -0.4233
  724MOL0     C97607   1.048   3.210   7.391 -0.4317 -0.5565 -1.4217
  724MOL0     O97608   1.057   3.318   7.471 -0.2159  0.4237  0.5660
  724MOL0     C97609   1.044   3.446   7.418 -0.2774 -0.0154 -0.4558
  724MOL0     C97610   1.090   3.546   7.498  0.1345 -0.6752 -0.4426
  724MOL0     C97611   1.093   3.678   7.455  0.1583 -0.0655  0.8213
  724MOL0     C97612   1.030   3.723   7.340  0.7203 -0.5043  0.3770
  724MOL0     O97613   1.018   3.848   7.293  0.4553 -0.0961  0.3722
  724MOL0     C97614   1.143   3.894   7.234  0.2459 -0.4450 -0.8107
  724MOL0     C97615   1.118   4.015   7.168 -0.9398  0.2013 -0.5935
  724MOL0     C97616   1.233   4.065   7.070  0.3909  0.4722  0.8319
  724MOL0     C97617   1.274   3.960   6.970 -0.7673  1.4396 -0.6072
  724MOL0     C97618   1.348   4.025   6.847  0.0441  0.2860 -1.0140
  724MOL0     C97619   1.358   3.938   6.721  0.0474 -0.3207  0.1631
  724MOL0     C97620   1.225   3.900   6.654 -1.1601  0.0517  0.6618
  724MOL0     C97621   1.206   3.750   6.674  0.6554  0.8770 -0.3976
  724MOL0     N97622   1.088   3.703   6.605 -0.8748  0.6980 -0.1033
  724MOL0     C97623   1.085   3.626   6.489 -0.9624  0.3377 -0.4239
  724MOL0     C97624   0.955   3.619   6.450 -0.4949 -0.0306  0.9150
  724MOL0     C97625   0.894   3.552   6.324  0.4185 -1.0591  0.5480
  724MOL0     C97626   0.809   3.434   6.363 -0.1791  0.3012 -0.5490
  724MOL0     C97627   0.729   3.374   6.250 -0.9002 -0.0165  0.3334
  724MOL0     C97628   0.690   3.226   6.272  0.1628  0.5405  0.5278
  724MOL0     O97629   0.600   3.180   6.156  0.1774  0.2214  0.7193
  724MOL0     C97630   0.612   3.043   6.127 -0.6268 -0.0092 -0.0037
  724MOL0     C97631   0.718   2.961   6.158 -0.3773  0.5163  0.3360
  724MOL0     C97632   0.724   2.825   6.125 -0.9924  0.0146 -0.3830
  724MOL0     C97633   0.607   2.766   6.071 -0.5852  0.4739 -0.2964
  724MOL0     C97634   0.605   2.621   6.049  0.1761  0.1462 -0.1227
  724MOL0     O97635   0.508   2.574   5.962 -0.1143  0.2231  0.1049
  724MOL0     C97636   0.478   2.443   5.933 -0.8273 -0.0184  0.0780
  724MOL0     C97637   0.360   2.424   5.869  0.1145  0.0481 -0.2170
  724MOL0     C97638   0.324   2.309   5.806 -0.4511 -0.3428 -0.2551
  724MOL0     C97639   0.412   2.196   5.820  0.2167  0.5877 -0.4460
  724MOL0     O97640   0.395   2.085   5.744 -0.0969 -0.1814 -0.5910
  724MOL0     C97641   0.351   1.969   5.813 -0.1858  0.2538 -0.4832
  724MOL0     C97642   0.373   1.854   5.708  0.8895  0.0342 -0.5000
  724MOL0     C97643   0.346   1.718   5.767  0.7610 -0.1244 -0.1390
  724MOL0     C97644   0.380   1.701   5.921 -0.6756 -0.2436 -0.6810
  724MOL0     C97645   0.376   1.559   5.957  0.7291  0.6139 -0.1436
  724MOL0     C97646   0.412   1.540   6.100 -0.5428  0.5293 -0.4142
  724MOL0     C97647   0.389   1.400   6.145 -0.2952  0.2516 -0.1602
  724MOL0     C97648   0.447   1.362   6.280 -0.2098 -0.1530 -0.8988
  724MOL0    Cl97649   0.407   1.201   6.334 -0.0963  0.2347  0.1481
  724MOL0     C97650   0.533   2.203   5.893  0.3733 -0.6590  0.4373
  724MOL0     C97651   0.570   2.332   5.936 -0.4204 -0.6953 -0.7976
  724MOL0     O97652   0.692   2.546   6.105  0.4199  0.0767  0.7689
  724MOL0     C97653   0.502   2.845   6.039  0.4616 -0.4606 -0.8602
  724MOL0     C97654   0.502   2.990   6.068 -0.0604  0.4587 -0.1494
  724MOL0     N97655   0.879   3.690   6.540  0.2290  0.1637  0.1054
  724MOL0     N97656   0.957   3.745   6.623 -1.0220 -0.0607  0.4959
  724MOL0     C97657   0.970   3.621   7.254  0.3312 -0.3589 -0.3664
  724MOL0     C97658   0.988   3.487   7.293 -0.0544 -0.6047  0.1945
  724MOL0     C97659   1.028   3.082   7.451  0.0038  0.2869 -0.3832
  724MOL0     C97660   1.037   3.076   7.594 -0.4212  0.3787  0.1838
  724MOL0     C97661   1.004   2.961   7.667  0.9783  0.0089 -0.1529
  724MOL0     C97662   0.968   2.842   7.605  0.6424 -0.3035  0.1811
  724MOL0     O97663   0.929   2.738   7.677 -1.0706  0.1936 -0.4239
  724MOL0     C97664   0.784   2.737   7.686  0.4856 -0.8375 -0.0176
  724MOL0     C97665   0.737   2.608   7.641  0.3850  0.0395  0.6289
  724MOL0     C97666   0.667   2.534   7.754 -0.6517 -1.2064  0.1086
  724MOL0     C97667   0.590   2.411   7.711  0.6164 -0.6962  0.2741
  724MOL0     C97668   0.540   2.364   7.834 -0.4457 -0.3184 -0.3012
  724MOL0     C97669   0.513   2.308   7.938  0.1279  0.0303  0.4676
  724MOL0     C97670   0.959   2.844   7.468  0.3880 -0.2378 -1.3545
  724MOL0     C97671   0.985   2.956   7.392 -0.2250  0.6106  0.6045
  724MOL0     C97672   0.958   2.946   7.244 -0.5190  0.7876  0.7879
  724MOL0     H97673   1.132   3.512   7.593 -1.4895  1.9434  1.3522
  724MOL0     H97674   1.149   3.748   7.516 -1.6718  2.7490 -0.5217
  724MOL0     H97675   1.219   3.898   7.312  0.4460 -1.4020 -0.9457
  724MOL0     H97676   1.172   3.814   7.166 -3.6829 -2.5409 -0.3706
  724MOL0     H97677   1.092   4.095   7.238  0.0446  0.1063 -0.0954
  724MOL0     H97678   1.034   3.985   7.105  0.3406 -2.6021 -1.1145
  724MOL0     H97679   1.318   4.101   7.128  1.1201  1.1236 -0.5985
  724MOL0     H97680   1.191   4.147   7.012  0.2467 -1.5184 -2.0855
  724MOL0     H97681   1.336   3.879   7.009 -1.1436  1.3291 -0.2259
  724MOL0     H97682   1.174   3.920   6.951 -0.5290  0.6842 -0.2821
  724MOL0     H97683   1.301   4.109   6.795  1.8837  0.9970 -1.6179
  724MOL0     H97684   1.454   4.045   6.868  0.2705 -1.1598 -0.6868
  724MOL0     H97685   1.414   4.000   6.651  1.5775 -1.5608  0.2473
  724MOL0     H97686   1.425   3.853   6.739  2.3835  1.4541  0.2501
  724MOL0     H97687   1.231   3.918   6.546  0.8094 -2.3655  0.2491
  724MOL0     H97688   1.140   3.957   6.691 -0.8061  2.5231 -1.9921
  724MOL0     H97689   1.293   3.693   6.638 -2.1504 -4.1495 -0.1701
  724MOL0     H97690   1.193   3.728   6.781  3.4470  0.6642 -0.0141
  724MOL0     H97691   1.166   3.571   6.443  0.6783  1.3996  1.1034
  724MOL0     H97692   0.836   3.626   6.268 -0.0938 -0.9001  1.2580
  724MOL0     H97693   0.971   3.521   6.253 -0.4666 -0.3190 -0.7798
  724MOL0     H97694   0.888   3.366   6.395 -2.1809 -1.2253  1.4437
  724MOL0     H97695   0.735   3.447   6.442  0.7740  2.1566  0.0810
  724MOL0     H97696   0.782   3.384   6.155 -1.5970  2.8518  0.1705
  724MOL0     H97697   0.646   3.442   6.227  0.7356  2.2382  0.8227
  724MOL0     H97698   0.638   3.209   6.367  1.5737 -0.6320  1.1342
  724MOL0     H97699   0.784   3.170   6.280  2.2260  3.7454  0.1139
  724MOL0     H97700   0.816   2.994   6.191  0.8683  0.3569 -2.7986
  724MOL0     H97701   0.819   2.773   6.127  0.4634  2.5224  0.2516
  724MOL0     H97702   0.293   2.507   5.850  2.4944  2.7595  2.2566
  724MOL0     H97703   0.230   2.308   5.751 -0.1507  0.0086 -0.7816
  724MOL0     H97704   0.400   1.955   5.910 -1.6465 -1.5916  0.0633
  724MOL0     H97705   0.245   1.975   5.842  0.3817 -0.2463  1.9310
  724MOL0     H97706   0.311   1.889   5.624  2.7057  3.6545 -0.5066
  724MOL0     H97707   0.475   1.866   5.671  1.9095 -4.0601  0.4813
  724MOL0     H97708   0.248   1.678   5.741  1.8386 -1.6018 -2.2004
  724MOL0     H97709   0.407   1.639   5.722 -0.7902 -2.3227  1.4045
  724MOL0     H97710   0.303   1.764   5.965 -1.4435 -0.5125 -1.6174
  724MOL0     H97711   0.478   1.744   5.945 -2.4737  3.2499  1.1789
  724MOL0     H97712   0.447   1.498   5.900  0.3348 -1.1417  1.1483
  724MOL0     H97713   0.276   1.521   5.940  1.1551 -0.8762  0.5075
  724MOL0     H97714   0.520   1.561   6.105 -0.0496 -0.9714 -2.9041
  724MOL0     H97715   0.359   1.606   6.169  3.4818  2.6799  0.9907
  724MOL0     H97716   0.429   1.341   6.062  2.3387 -0.2288  1.3566
  724MOL0     H97717   0.281   1.382   6.136 -1.0070  2.4552  2.5734
  724MOL0     H97718   0.556   1.373   6.276 -0.2048 -0.5094 -2.7220
  724MOL0     H97719   0.408   1.430   6.356 -2.0885  1.5009 -3.1887
  724MOL0     H97720   0.593   2.113   5.901  0.8086 -0.5703 -1.3431
  724MOL0     H97721   0.666   2.347   5.984 -1.5175 -1.6816  1.8616
  724MOL0     H97722   0.420   2.791   5.994  1.2261  0.1954 -3.1623
  724MOL0     H97723   0.423   3.058   6.042  1.3235  2.0826 -0.2515
  724MOL0     H97724   0.944   3.656   7.155 -2.0803 -3.1625 -0.8587
  724MOL0     H97725   0.938   3.422   7.222 -1.3338  0.1299  0.3995
  724MOL0     H97726   1.078   3.163   7.644  0.7416  0.6590 -1.1808
  724MOL0     H97727   1.010   2.949   7.775  1.1105 -1.9877 -0.3340
  724MOL0     H97728   0.738   2.822   7.635 -2.2078 -0.8711  2.0909
  724MOL0     H97729   0.755   2.754   7.790  0.7751 -0.1425 -0.0402
  724MOL0     H97730   0.819   2.549   7.600 -0.5575 -0.0445 -1.2553
  724MOL0     H97731   0.666   2.614   7.558  2.2875 -0.7852 -1.1438
  724MOL0     H97732   0.612   2.608   7.813 -0.3811  2.4168 -3.6746
  724MOL0     H97733   0.750   2.511   7.822 -0.0036  0.5449 -0.0251
  724MOL0     H97734   0.521   2.456   7.639  2.0242  0.6693 -0.3006
  724MOL0     H97735   0.663   2.342   7.666  0.7295 -1.3369  1.4156
  724MOL0     H97736   0.489   2.261   8.031 -2.9391 -1.8907 -1.1284
  724MOL0     H97737   0.912   2.753   7.431 -3.6934  0.2676  1.8125
  724MOL0     H97738   1.045   2.983   7.189 -0.4963  0.7164  0.7764
  724MOL0     H97739   0.942   2.844   7.207  4.2379  1.1796 -3.4493
  724MOL0     H97740   0.867   3.003   7.223 -1.2374 -0.1202  1.3665
  725MOL0     O97741   6.536   4.906   7.660  0.0471 -0.0380 -0.0617
  725MOL0     C97742   6.637   4.908   7.738  0.4930  0.4532  1.0200
  725MOL0     O97743   6.757   4.843   7.717 -0.5876  0.0749 -0.9266
  725MOL0     C97744   6.759   4.758   7.607  0.3376 -0.4348 -0.4679
  725MOL0     C97745   6.872   4.773   7.520  0.0334  0.4738  0.0579
  725MOL0     C97746   6.874   4.705   7.394 -0.3094 -0.3232  0.4126
  725MOL0     C97747   6.774   4.617   7.357  0.2896  0.5296 -0.0837
  725MOL0     O97748   6.792   4.556   7.231  0.2215 -1.3653 -0.4939
  725MOL0     C97749   6.683   4.506   7.155  1.1958  0.2957 -0.3853
  725MOL0     C97750   6.725   4.491   7.010 -0.1856 -1.0625  0.2543
  725MOL0     C97751   6.618   4.437   6.918 -0.1934  0.4531  0.2303
  725MOL0     C97752   6.652   4.404   6.773 -0.2613  0.1354 -0.5457
  725MOL0     C97753   6.526   4.400   6.686 -0.3691  0.6676  0.4724
  725MOL0     C97754   6.445   4.517   6.628 -0.2564  0.0918  0.2663
  725MOL0     C97755   6.403   4.479   6.480  0.6671  0.2834  0.2435
  725MOL0     C97756   6.335   4.592   6.404  0.0050  0.0235 -0.7403
  725MOL0     N97757   6.413   4.712   6.399 -1.0558  0.3933 -0.3398
  725MOL0     C97758   6.549   4.719   6.355 -0.3379  0.3969  0.8852
  725MOL0     C97759   6.582   4.850   6.325  0.2832 -0.2884  0.8870
  725MOL0     C97760   6.705   4.926   6.292 -0.8185  0.5436 -0.1148
  725MOL0     C97761   6.808   4.951   6.411 -0.3557 -0.0544 -0.5454
  725MOL0     C97762   6.745   5.047   6.518  0.5849 -0.1339  0.4116
  725MOL0     C97763   6.837   5.063   6.635  0.6546  0.0410  0.2193
  725MOL0     O97764   6.797   5.174   6.712  0.1065  0.0479  0.5104
  725MOL0     C97765   6.865   5.201   6.832  0.3332  0.0370 -0.1448
  725MOL0     C97766   6.971   5.118   6.883  0.1654  0.1789 -0.7828
  725MOL0     C97767   7.033   5.145   7.010  0.7763 -0.1630 -0.0996
  725MOL0     C97768   6.992   5.260   7.080 -0.2572  0.0068 -0.0028
  725MOL0     C97769   7.058   5.308   7.203 -0.7385 -0.2113 -1.2209
  725MOL0     O97770   6.993   5.412   7.265 -0.0053 -0.7986  0.3928
  725MOL0     C97771   7.037   5.434   7.391  0.4066  0.1580 -0.3205
  725MOL0     C97772   7.107   5.551   7.415  0.1026  0.8250  1.3600
  725MOL0     C97773   7.177   5.563   7.533  1.2566 -0.0286 -1.0991
  725MOL0     C97774   7.156   5.484   7.639  0.9722  0.3724  0.2278
  725MOL0     O97775   7.221   5.491   7.759  0.4296  0.5429  0.0135
  725MOL0     C97776   7.366   5.501   7.767  0.5076  0.0738  0.1639
  725MOL0     C97777   7.399   5.454   7.905  1.1918 -0.4083  0.2873
  725MOL0     C97778   7.361   5.562   8.014  0.6878  0.1534 -0.0571
  725MOL0     C97779   7.466   5.560   8.120  0.5863  0.1167 -0.9541
  725MOL0     C97780   7.438   5.650   8.240  0.1349 -0.0549  0.2019
  725MOL0     C97781   7.529   5.635   8.360  0.4035 -0.3744  0.2667
  725MOL0     C97782   7.466   5.731   8.464  0.5013  0.5476 -0.0459
  725MOL0     C97783   7.562   5.779   8.572  0.4169 -0.8075  0.1431
  725MOL0    Cl97784   7.691   5.886   8.507  0.4200 -0.0789  0.3760
  725MOL0     C97785   7.073   5.370   7.617 -0.1646 -0.4884 -0.0314
  725MOL0     C97786   7.016   5.347   7.496 -0.0436  0.4262  0.1237
  725MOL0     O97787   7.171   5.262   7.234 -0.1939 -0.0250 -0.3267
  725MOL0     C97788   6.895   5.348   7.023  0.9692  0.4458  0.7017
  725MOL0     C97789   6.825   5.314   6.898  0.0111 -0.9801  0.4204
  725MOL0     N97790   6.453   4.913   6.330 -0.1426 -0.2193 -0.0510
  725MOL0     N97791   6.362   4.835   6.373  0.0993 -0.1200  0.1343
  725MOL0     C97792   6.676   4.586   7.452  0.2665 -0.2066 -0.5850
  725MOL0     C97793   6.666   4.661   7.572 -0.0188  1.0604 -0.5618
  725MOL0     C97794   6.605   4.989   7.859 -0.6124 -0.5673 -0.3492
  725MOL0     C97795   6.476   5.022   7.906 -0.7777  1.1065  0.0675
  725MOL0     C97796   6.448   5.119   8.000 -0.6943 -0.0058  0.0797
  725MOL0     C97797   6.549   5.186   8.067 -0.7593  0.2078 -0.4711
  725MOL0     O97798   6.500   5.287   8.150  0.1979 -0.5653  0.1262
  725MOL0     C97799   6.597   5.395   8.175  0.1862 -0.3048  0.0831
  725MOL0     C97800   6.521   5.514   8.233  0.2938  0.1894 -0.4347
  725MOL0     C97801   6.619   5.609   8.296  0.5627 -0.0522 -0.1568
  725MOL0     C97802   6.563   5.749   8.279 -0.1333  0.6845 -0.0311
  725MOL0     C97803   6.598   5.810   8.402 -0.0500  0.1432  0.7506
  725MOL0     C97804   6.617   5.856   8.518  0.3482 -0.6697  0.5452
  725MOL0     C97805   6.684   5.153   8.039  0.7918  0.4217  0.0197
  725MOL0     C97806   6.712   5.048   7.947 -0.4141  1.1943  1.0011
  725MOL0     C97807   6.854   4.999   7.941 -0.9161  0.1102 -0.6734
  725MOL0     H97808   6.960   4.826   7.556  1.4592  1.7873 -4.6354
  725MOL0     H97809   6.970   4.706   7.343  0.4655 -3.7007  1.5296
  725MOL0     H97810   6.651   4.411   7.198 -2.0934  0.5385 -1.9625
  725MOL0     H97811   6.594   4.567   7.173  1.2386 -0.0073  0.9193
  725MOL0     H97812   6.816   4.432   7.000 -0.2918 -1.5774  1.9282
  725MOL0     H97813   6.759   4.592   6.986  1.5705 -1.3940  1.1702
  725MOL0     H97814   6.535   4.508   6.927 -0.4201  0.0559  1.4097
  725MOL0     H97815   6.587   4.345   6.969  1.1176 -0.1579 -0.0392
  725MOL0     H97816   6.716   4.483   6.734 -0.4578  0.1483 -0.8522
  725MOL0     H97817   6.700   4.306   6.770 -2.4186 -1.0522  1.1266
  725MOL0     H97818   6.572   4.363   6.594  2.1084 -0.5515  2.1225
  725MOL0     H97819   6.461   4.322   6.728 -0.7482  1.1858  0.8713
  725MOL0     H97820   6.349   4.534   6.678 -0.9451  2.0661 -1.5836
  725MOL0     H97821   6.509   4.605   6.622 -0.5623  0.2956 -0.0458
  725MOL0     H97822   6.338   4.391   6.485 -0.3326  0.7445 -2.7432
  725MOL0     H97823   6.489   4.447   6.419 -0.1711  0.2225 -0.9397
  725MOL0     H97824   6.306   4.559   6.303 -3.1913  1.9042 -0.5599
  725MOL0     H97825   6.237   4.613   6.448  1.4359  1.2216  2.0444
  725MOL0     H97826   6.625   4.643   6.339 -0.2352  0.6194  0.3080
  725MOL0     H97827   6.744   4.861   6.214 -2.8155  0.0984 -0.8033
  725MOL0     H97828   6.690   5.032   6.268  2.3080  1.4623  1.3269
  725MOL0     H97829   6.838   4.859   6.462 -0.6748  0.3868  0.4762
  725MOL0     H97830   6.900   5.002   6.382  0.4989  1.1683  3.5377
  725MOL0     H97831   6.644   5.009   6.533 -0.7429  1.0493 -3.9855
  725MOL0     H97832   6.737   5.150   6.479 -1.9843  0.6863  2.7857
  725MOL0     H97833   6.938   5.075   6.595  0.6265 -2.1984 -0.6876
  725MOL0     H97834   6.838   4.967   6.689  2.7114 -0.3821 -0.4836
  725MOL0     H97835   7.014   5.038   6.824 -0.5151 -0.1334 -0.8658
  725MOL0     H97836   7.103   5.071   7.045  0.2261 -1.0764 -0.8638
  725MOL0     H97837   7.103   5.625   7.335  0.0635  2.9826  3.2297
  725MOL0     H97838   7.258   5.635   7.536  1.8309 -0.6936 -0.1100
  725MOL0     H97839   7.413   5.434   7.694 -0.5234  0.1554 -0.6000
  725MOL0     H97840   7.402   5.603   7.753 -1.9374  0.8303 -1.1446
  725MOL0     H97841   7.334   5.372   7.937  1.4437 -1.9368 -2.7150
  725MOL0     H97842   7.504   5.424   7.910  0.3569 -3.4931  2.1834
  725MOL0     H97843   7.363   5.656   7.958 -1.4612  1.3063  1.6226
  725MOL0     H97844   7.269   5.534   8.066  2.1631 -4.2856  0.4952
  725MOL0     H97845   7.563   5.577   8.072 -0.6558  2.9546 -2.7313
  725MOL0     H97846   7.465   5.454   8.149 -2.0660 -0.2933 -2.2750
  725MOL0     H97847   7.336   5.630   8.274  0.3996  1.6649  2.2341
  725MOL0     H97848   7.442   5.752   8.200 -0.8280 -1.2200 -3.1876
  725MOL0     H97849   7.547   5.534   8.401 -1.9844 -0.6110  0.9304
  725MOL0     H97850   7.619   5.687   8.328 -1.3671  2.1979 -0.8461
  725MOL0     H97851   7.377   5.683   8.506  0.2545  1.0600  0.0231
  725MOL0     H97852   7.421   5.817   8.414 -3.7190 -1.4443 -0.1905
  725MOL0     H97853   7.507   5.836   8.648  0.3259  0.5994 -0.9411
  725MOL0     H97854   7.611   5.694   8.620  0.8510 -3.9810 -5.1294
  725MOL0     H97855   7.080   5.289   7.689  0.0036  0.0833  0.6029
  725MOL0     H97856   6.971   5.252   7.470 -0.1400  0.6427 -0.5220
  725MOL0     H97857   6.866   5.439   7.074 -0.2840 -0.5400  1.8361
  725MOL0     H97858   6.756   5.388   6.861 -0.4522 -0.2464  2.5854
  725MOL0     H97859   6.595   4.517   7.430 -1.0553  1.5320 -1.4412
  725MOL0     H97860   6.580   4.640   7.635  2.3850 -5.2095  1.3488
  725MOL0     H97861   6.398   4.968   7.854 -0.2528 -0.2445  0.6492
  725MOL0     H97862   6.346   5.145   8.024 -0.8600 -2.4086  2.4709
  725MOL0     H97863   6.653   5.438   8.092  0.6233  1.5280  1.2880
  725MOL0     H97864   6.670   5.359   8.248  0.9579  0.1648 -0.4467
  725MOL0     H97865   6.456   5.476   8.312  1.6950  3.6772  2.7119
  725MOL0     H97866   6.462   5.550   8.148  0.0215  0.8775  0.0362
  725MOL0     H97867   6.719   5.605   8.251  1.4666  1.7442  1.5481
  725MOL0     H97868   6.633   5.581   8.401  0.8404  1.2890  0.1824
  725MOL0     H97869   6.597   5.785   8.182  1.8703 -2.4636 -0.6450
  725MOL0     H97870   6.454   5.747   8.272 -0.3721  3.3763  1.6233
  725MOL0     H97871   6.629   5.911   8.609 -1.9101 -0.0239  0.5150
  725MOL0     H97872   6.767   5.197   8.092  4.1244 -3.6976 -1.2231
  725MOL0     H97873   6.896   5.025   7.843 -0.1883 -1.4332 -0.8070
  725MOL0     H97874   6.917   5.042   8.019 -0.5977 -2.9972  0.9148
  725MOL0     H97875   6.841   4.891   7.950 -0.9559  0.0129 -1.6919
  726MOL0     O97876  10.928   2.738   9.172  0.7023 -0.2466  0.4335
  726MOL0     C97877  11.022   2.699   9.239  0.5969  0.3731 -0.2506
  726MOL0     O97878  11.054   2.755   9.354  0.7833 -0.3613  0.1513
  726MOL0     C97879  11.006   2.882   9.389  0.5249  0.2027 -0.0863
  726MOL0     C97880  11.063   3.001   9.356  0.1473 -1.4717  0.4949
  726MOL0     C97881  11.023   3.123   9.412  0.8736 -0.9194  0.0798
  726MOL0     C97882  10.906   3.128   9.497 -0.0809 -0.0409 -0.4309
  726MOL0     O97883  10.842   3.243   9.530 -0.3785  0.3196  0.5094
  726MOL0     C97884  10.897   3.360   9.477  1.1393 -0.1502  0.3707
  726MOL0     C97885  10.799   3.473   9.505  0.1700 -0.0681  1.3715
  726MOL0     C97886  10.796   3.579   9.388  0.1156 -0.4991  1.0416
  726MOL0     C97887  10.694   3.675   9.426  1.2057 -0.0731 -0.9743
  726MOL0     C97888  10.733   3.786   9.521 -0.6611 -0.0235  0.0590
  726MOL0     C97889  10.627   3.888   9.517 -0.3147  0.2800  1.0951
  726MOL0     C97890  10.612   3.952   9.664 -0.2078 -0.4776 -0.9650
  726MOL0     C97891  10.741   4.006   9.726  0.3334  0.2741  0.5053
  726MOL0     N97892  10.785   4.117   9.644 -0.6154  0.1212  0.1766
  726MOL0     C97893  10.717   4.236   9.612  0.0537  0.9224 -1.2448
  726MOL0     C97894  10.806   4.312   9.563 -0.6468  0.0261  1.1066
  726MOL0     C97895  10.802   4.459   9.519 -0.2002  0.7214 -0.5327
  726MOL0     C97896  10.673   4.514   9.474 -0.2066  0.1881 -0.0551
  726MOL0     C97897  10.669   4.665   9.483  0.6422 -0.2156 -0.0577
  726MOL0     C97898  10.537   4.704   9.423 -0.1230 -0.7959 -1.2419
  726MOL0     O97899  10.537   4.846   9.400  1.4367 -0.6292 -0.2456
  726MOL0     C97900  10.417   4.907   9.386  0.4956 -0.0427 -0.0548
  726MOL0     C97901  10.308   4.861   9.309  0.1754 -0.3851 -0.3399
  726MOL0     C97902  10.192   4.936   9.300  0.0599  0.3269  0.1458
  726MOL0     C97903  10.179   5.063   9.358  0.6043  0.8980 -0.1448
  726MOL0     C97904  10.062   5.155   9.320  0.6511  0.4658  0.4715
  726MOL0     O97905  10.096   5.285   9.322 -0.8267 -0.0117  0.2194
  726MOL0     C97906   9.990   5.364   9.317 -0.2749  1.7386  0.1340
  726MOL0     C97907   9.991   5.452   9.212 -0.2751  0.5627 -0.3590
  726MOL0     C97908   9.903   5.562   9.217  0.0927 -1.0279 -0.2522
  726MOL0     C97909   9.821   5.579   9.330  0.9432 -1.3468  0.5522
  726MOL0     O97910   9.727   5.682   9.335  0.5627 -0.1178 -0.1679
  726MOL0     C97911   9.737   5.772   9.455  0.5569 -0.2438  1.0356
  726MOL0     C97912   9.863   5.856   9.444 -0.0452  0.3079  0.4057
  726MOL0     C97913   9.891   5.944   9.566 -0.4206  0.9330  0.0392
  726MOL0     C97914   9.779   6.042   9.589 -0.2547  0.5154 -0.9279
  726MOL0     C97915   9.797   6.118   9.714  0.1713  0.0905 -0.3043
  726MOL0     C97916   9.695   6.222   9.745  1.2984 -0.1577 -0.6216
  726MOL0     C97917   9.708   6.279   9.879  0.4855  0.1193 -0.1897
  726MOL0     C97918   9.613   6.403   9.881 -0.6591 -0.1133  0.7075
  726MOL0    Cl97919   9.571   6.419  10.048  0.5616 -0.3508 -0.5350
  726MOL0     C97920   9.818   5.488   9.436 -0.5171  0.0661 -0.2809
  726MOL0     C97921   9.908   5.382   9.432 -1.5288  0.2527  0.4105
  726MOL0     O97922   9.958   5.110   9.279  0.7663  0.3941 -0.3824
  726MOL0     C97923  10.279   5.111   9.438 -0.8162 -0.6512 -1.1327
  726MOL0     C97924  10.396   5.035   9.448  0.2354  0.1847 -1.3345
  726MOL0     N97925  10.925   4.243   9.549  0.0743  0.4243  1.4145
  726MOL0     N97926  10.913   4.126   9.601 -0.4270  0.9093  1.0003
  726MOL0     C97927  10.848   2.999   9.532 -0.3671 -0.3436 -0.4737
  726MOL0     C97928  10.905   2.880   9.488 -0.2142 -0.6285 -1.0839
  726MOL0     C97929  11.079   2.568   9.204  0.1855 -0.4777  0.2173
  726MOL0     C97930  11.114   2.480   9.306 -0.6097 -0.1108 -0.6985
  726MOL0     C97931  11.171   2.356   9.267 -0.9245 -1.0055  0.5804
  726MOL0     C97932  11.185   2.316   9.138  0.4170  0.9383 -0.2129
  726MOL0     O97933  11.223   2.189   9.097 -0.1687 -0.8022  0.7017
  726MOL0     C97934  11.169   2.079   9.166 -0.2715  0.1732 -0.7718
  726MOL0     C97935  11.064   2.011   9.077 -0.1914 -0.1492  0.5189
  726MOL0     C97936  10.936   2.089   9.044  0.3089  0.5900  0.6505
  726MOL0     C97937  10.964   2.173   8.913 -0.3677 -0.0611 -0.8715
  726MOL0     C97938  10.868   2.289   8.903 -0.3484 -0.6815  0.6976
  726MOL0     C97939  10.795   2.378   8.882  0.0404  0.7257  0.3945
  726MOL0     C97940  11.154   2.406   9.040 -1.0761 -0.2869 -0.6825
  726MOL0     C97941  11.109   2.534   9.072 -0.4381  0.0191  0.4645
  726MOL0     C97942  11.079   2.625   8.953  0.0463 -0.0917 -0.4397
  726MOL0     H97943  11.121   3.017   9.266 -2.2277  1.2057 -0.7141
  726MOL0     H97944  11.073   3.212   9.376  0.3004 -0.0032  1.4574
  726MOL0     H97945  10.991   3.370   9.533  2.4218 -2.6242 -1.1463
  726MOL0     H97946  10.923   3.344   9.372 -0.4466 -2.3402  0.2428
  726MOL0     H97947  10.822   3.512   9.605 -0.8770 -1.8122  2.3420
  726MOL0     H97948  10.698   3.433   9.506  0.1808 -0.1883 -0.1842
  726MOL0     H97949  10.779   3.529   9.292  0.5915  2.7268 -0.8541
  726MOL0     H97950  10.891   3.632   9.373 -0.0458 -0.5676 -0.3671
  726MOL0     H97951  10.658   3.719   9.333 -1.0578  1.6344  0.6049
  726MOL0     H97952  10.606   3.623   9.464  1.3516  1.9944  2.6250
  726MOL0     H97953  10.744   3.749   9.623 -1.5181 -1.8124 -0.4566
  726MOL0     H97954  10.824   3.834   9.484 -1.4549  0.8678 -0.8171
  726MOL0     H97955  10.655   3.967   9.447 -1.3496  0.4918  0.9003
  726MOL0     H97956  10.535   3.848   9.473  0.6701 -1.3578  0.4496
  726MOL0     H97957  10.568   3.871   9.723 -1.1902  1.2496  0.7778
  726MOL0     H97958  10.542   4.034   9.648 -0.3482 -0.4444 -0.2120
  726MOL0     H97959  10.723   4.049   9.824 -0.0425 -3.5808  2.3157
  726MOL0     H97960  10.819   3.928   9.729  0.5267  0.4162 -0.3991
  726MOL0     H97961  10.616   4.262   9.642 -0.2690 -1.2569 -0.2480
  726MOL0     H97962  10.838   4.510   9.608  2.2059  0.1087 -1.0731
  726MOL0     H97963  10.876   4.467   9.439  1.0836  0.4182  0.5844
  726MOL0     H97964  10.663   4.483   9.370 -2.9004 -0.8699  0.4403
  726MOL0     H97965  10.595   4.469   9.536 -0.5804 -0.7889 -1.2083
  726MOL0     H97966  10.746   4.706   9.416 -0.7501  2.3497 -0.2195
  726MOL0     H97967  10.676   4.713   9.582 -0.8619  2.9817 -1.3542
  726MOL0     H97968  10.459   4.686   9.497  1.1585  1.1093  0.6947
  726MOL0     H97969  10.507   4.654   9.331 -4.8151  1.8677 -1.4668
  726MOL0     H97970  10.315   4.766   9.259 -2.6824  0.7939 -3.3475
  726MOL0     H97971  10.104   4.901   9.246 -2.9562  2.0869  3.5308
  726MOL0     H97972  10.047   5.452   9.119  1.8193 -0.7066  0.8364
  726MOL0     H97973   9.900   5.633   9.135  0.4140 -3.2236 -2.2782
  726MOL0     H97974   9.646   5.832   9.463  2.3719  2.6144  1.7595
  726MOL0     H97975   9.747   5.720   9.551 -2.8035  0.9650  2.1913
  726MOL0     H97976   9.946   5.788   9.423  0.4525  0.9373  0.2913
  726MOL0     H97977   9.849   5.929   9.363 -0.4214  0.4351  0.5825
  726MOL0     H97978   9.899   5.889   9.661 -1.4149  0.5270 -0.0996
  726MOL0     H97979   9.987   5.995   9.553 -1.2393  3.2854  2.2881
  726MOL0     H97980   9.685   5.987   9.596  1.0731 -1.6332  1.0513
  726MOL0     H97981   9.775   6.106   9.500  1.4060 -0.1621 -1.5178
  726MOL0     H97982   9.899   6.158   9.713  0.3025 -0.2488 -0.6693
  726MOL0     H97983   9.781   6.050   9.798 -1.6796  1.0111  0.1528
  726MOL0     H97984   9.701   6.285   9.656  1.1534  1.5388  0.5287
  726MOL0     H97985   9.601   6.167   9.754  1.7657 -0.9327 -0.2999
  726MOL0     H97986   9.812   6.307   9.896 -0.1083  1.3782  1.7633
  726MOL0     H97987   9.687   6.199   9.950  2.1056 -0.3756 -0.2466
  726MOL0     H97988   9.661   6.489   9.835  1.1433 -1.7368 -0.6266
  726MOL0     H97989   9.513   6.384   9.840 -0.7942  0.6335  0.6825
  726MOL0     H97990   9.753   5.501   9.523  1.5757 -2.5626  1.8890
  726MOL0     H97991   9.918   5.310   9.512 -0.3961 -1.3514 -1.0991
  726MOL0     H97992  10.256   5.207   9.482  0.0793 -0.2593 -1.4878
  726MOL0     H97993  10.479   5.076   9.504 -0.1904  0.2999 -0.7686
  726MOL0     H97994  10.759   2.998   9.594  1.3177  2.0231  2.2641
  726MOL0     H97995  10.871   2.780   9.512 -3.2731  0.8132  1.4117
  726MOL0     H97996  11.103   2.493   9.413  1.0409 -2.0054 -0.2510
  726MOL0     H97997  11.213   2.287   9.340 -2.3186 -0.1027  2.2960
  726MOL0     H97998  11.139   2.095   9.270  2.3076 -2.4766  0.5707
  726MOL0     H97999  11.240   1.996   9.178 -0.8562 -0.2101  0.1166
  726MOL0     H98000  11.035   1.919   9.129  4.4874 -0.9642  2.1404
  726MOL0     H98001  11.109   1.980   8.982  0.6828 -2.0101  1.4913
  726MOL0     H98002  10.914   2.152   9.130 -0.4576 -1.6830  2.2222
  726MOL0     H98003  10.857   2.015   9.033 -3.8050  4.4408  1.4820
  726MOL0     H98004  11.070   2.198   8.905 -0.3931 -0.5450 -4.3796
  726MOL0     H98005  10.947   2.116   8.821 -2.2902  2.5495 -2.2525
  726MOL0     H98006  10.725   2.459   8.874 -0.0992  0.4194 -4.0484
  726MOL0     H98007  11.181   2.383   8.937  1.0133 -0.3361 -0.1524
  726MOL0     H98008  11.130   2.597   8.860  3.5572  3.3922  0.1951
  726MOL0     H98009  10.971   2.627   8.933  0.0261 -1.0447 -0.5015
  726MOL0     H98010  11.115   2.725   8.979  0.2819 -0.3767  0.3309
  727MOL0     O98011   0.639  10.286   4.169  0.8115 -0.4338  0.4191
  727MOL0     C98012   0.754  10.292   4.203  0.4540  0.0091  0.6345
  727MOL0     O98013   0.805  10.205   4.294  0.0831  0.6664 -0.1271
  727MOL0     C98014   0.764  10.073   4.292 -0.9037  0.2280  0.2859
  727MOL0     C98015   0.839  10.006   4.394  0.5459 -0.4648  0.2586
  727MOL0     C98016   0.810   9.869   4.408 -0.1874 -0.1807 -0.1391
  727MOL0     C98017   0.727   9.802   4.313  0.6096 -0.8473  0.0991
  727MOL0     O98018   0.698   9.672   4.320 -0.3458 -0.6302  0.6643
  727MOL0     C98019   0.800   9.595   4.389  0.0552 -0.1815 -0.0713
  727MOL0     C98020   0.779   9.444   4.364  1.0193  0.0841  0.2654
  727MOL0     C98021   0.885   9.360   4.435  0.1364 -0.5873 -0.2775
  727MOL0     C98022   0.865   9.203   4.416  0.8541 -0.7457  0.4003
  727MOL0     C98023   0.972   9.112   4.485  0.2605  0.8867 -0.2881
  727MOL0     C98024   0.916   8.968   4.494  0.1489  0.4833 -0.0880
  727MOL0     C98025   1.030   8.869   4.541 -0.4105  0.2053  0.0197
  727MOL0     C98026   1.000   8.716   4.551 -0.5141  0.3367  0.1250
  727MOL0     N98027   1.011   8.653   4.415 -0.1932  0.5945 -0.2063
  727MOL0     C98028   0.947   8.534   4.389 -0.4038  0.2262  1.0240
  727MOL0     C98029   0.973   8.499   4.256 -0.0283  0.5825  0.2420
  727MOL0     C98030   0.934   8.377   4.186  0.1874  0.0691 -0.9472
  727MOL0     C98031   0.961   8.251   4.278 -0.2687  0.2067  0.1351
  727MOL0     C98032   0.940   8.119   4.199 -0.0556  0.5167 -0.1639
  727MOL0     C98033   0.785   8.102   4.162 -0.3034 -0.5214 -0.6027
  727MOL0     O98034   0.697   8.097   4.278 -0.4961 -0.2568  0.5157
  727MOL0     C98035   0.648   8.214   4.324  0.5352 -0.8633 -0.3682
  727MOL0     C98036   0.648   8.228   4.463  0.2674 -0.0163 -1.1265
  727MOL0     C98037   0.597   8.347   4.517  0.0168 -0.9320 -0.6715
  727MOL0     C98038   0.550   8.455   4.435  0.4008  0.1756 -0.3668
  727MOL0     C98039   0.506   8.588   4.493 -0.0897 -0.4633 -0.7394
  727MOL0     O98040   0.481   8.694   4.408 -0.0614  0.0383 -0.2720
  727MOL0     C98041   0.453   8.815   4.467 -0.2623 -0.8709  1.1091
  727MOL0     C98042   0.543   8.890   4.542  0.4059  0.8852 -0.1605
  727MOL0     C98043   0.516   9.019   4.591  0.2390  0.5322  0.0461
  727MOL0     C98044   0.388   9.069   4.552  0.1728 -0.5415 -0.4019
  727MOL0     O98045   0.343   9.203   4.576 -0.5797  0.6703 -0.1292
  727MOL0     C98046   0.436   9.303   4.631  0.9033  0.0238  0.0473
  727MOL0     C98047   0.373   9.443   4.606 -0.6287  0.8009 -0.2042
  727MOL0     C98048   0.446   9.546   4.703  1.3115 -0.7652  0.8141
  727MOL0     C98049   0.398   9.686   4.657  0.2206  0.0794 -0.0898
  727MOL0     C98050   0.472   9.794   4.739 -0.9178  0.0147 -0.6008
  727MOL0     C98051   0.601   9.843   4.668  0.8506 -0.0463  0.5315
  727MOL0     C98052   0.688   9.944   4.747  0.5084 -0.5119 -0.1228
  727MOL0     C98053   0.618  10.076   4.794  0.0436  0.1922  0.5404
  727MOL0    Cl98054   0.546  10.035   4.963  0.1457 -0.1562  0.0652
  727MOL0     C98055   0.302   8.995   4.473 -0.3777 -0.2488  0.3639
  727MOL0     C98056   0.341   8.872   4.418  0.9877  0.1356 -0.7619
  727MOL0     O98057   0.492   8.587   4.616  0.1490 -0.1496 -0.3536
  727MOL0     C98058   0.549   8.434   4.296 -0.6599 -1.3375 -1.0252
  727MOL0     C98059   0.594   8.313   4.238 -0.6725 -0.2273 -1.0124
  727MOL0     N98060   1.054   8.600   4.197  0.7082 -0.6516  0.6690
  727MOL0     N98061   1.073   8.693   4.298  0.5271  1.1896 -0.6619
  727MOL0     C98062   0.673   9.871   4.211 -0.4518  0.1976 -0.1213
  727MOL0     C98063   0.689  10.003   4.197  0.0953  0.1780 -1.5106
  727MOL0     C98064   0.841  10.402   4.154  0.3676 -0.3549  0.2524
  727MOL0     C98065   0.972  10.380   4.152  0.3125 -0.5333 -0.4483
  727MOL0     C98066   1.063  10.468   4.111 -0.3229 -0.3299  0.4270
  727MOL0     C98067   1.013  10.596   4.068 -0.7352  0.3924  0.4114
  727MOL0     O98068   1.097  10.690   4.004  0.6360 -0.3895 -0.5606
  727MOL0     C98069   1.225  10.662   3.971 -0.4571  0.5997  1.2381
  727MOL0     C98070   1.314  10.692   4.090 -1.1534  0.0054 -0.4628
  727MOL0     C98071   1.446  10.611   4.080 -0.2413 -0.6179  1.0272
  727MOL0     C98072   1.444  10.456   4.079  0.9970 -0.7356  0.6542
  727MOL0     C98073   1.446  10.399   4.206 -0.1879  0.9703 -0.0273
  727MOL0     C98074   1.438  10.364   4.321  1.0826 -0.1325  0.5065
  727MOL0     C98075   0.880  10.630   4.084 -0.3236  0.2242  0.0573
  727MOL0     C98076   0.784  10.534   4.118 -0.1370  0.0282 -0.3602
  727MOL0     C98077   0.639  10.575   4.123  0.8807 -0.2244  0.2944
  727MOL0     H98078   0.908  10.050   4.465  3.5327 -5.6156  1.0177
  727MOL0     H98079   0.856   9.816   4.490 -0.9805 -0.1822  0.3107
  727MOL0     H98080   0.901   9.619   4.355 -0.5247 -0.1659 -1.9223
  727MOL0     H98081   0.801   9.606   4.498 -1.7099 -0.9862  0.0560
  727MOL0     H98082   0.784   9.437   4.255  0.1095  1.0129  0.1543
  727MOL0     H98083   0.679   9.405   4.385  1.0614  0.6172  1.5103
  727MOL0     H98084   0.880   9.378   4.542 -0.2850 -0.1364 -0.3683
  727MOL0     H98085   0.982   9.391   4.396 -0.1560 -0.3508 -0.8444
  727MOL0     H98086   0.762   9.173   4.438  0.9997 -3.8699 -2.4418
  727MOL0     H98087   0.881   9.193   4.308  2.1255  2.1739  0.2413
  727MOL0     H98088   1.051   9.118   4.409  0.0112  1.8080 -0.4818
  727MOL0     H98089   1.019   9.147   4.578 -0.3364 -1.1794  0.8670
  727MOL0     H98090   0.833   8.956   4.565  0.4555  1.0539  0.3759
  727MOL0     H98091   0.884   8.945   4.392 -1.5438 -2.0515  0.9186
  727MOL0     H98092   1.048   8.901   4.644  0.4573 -0.9125  0.2314
  727MOL0     H98093   1.125   8.888   4.490  0.4370  1.3820  1.9461
  727MOL0     H98094   1.060   8.671   4.630  0.2370 -0.8711 -1.0977
  727MOL0     H98095   0.898   8.718   4.593  0.9404  3.6176  4.2515
  727MOL0     H98096   0.883   8.470   4.448 -1.7358 -0.6674 -1.2368
  727MOL0     H98097   0.826   8.382   4.171 -0.8020 -1.5588  3.9082
  727MOL0     H98098   0.992   8.368   4.093 -1.2230 -0.6124 -1.7842
  727MOL0     H98099   1.067   8.267   4.298 -0.4217 -0.3070  1.4337
  727MOL0     H98100   0.904   8.249   4.371  1.6211 -0.3678  1.3216
  727MOL0     H98101   0.979   8.031   4.250 -0.4631 -0.7470 -1.9292
  727MOL0     H98102   0.993   8.134   4.104  0.0124 -0.7792 -0.3471
  727MOL0     H98103   0.778   8.007   4.109 -1.6521  0.0414 -1.4754
  727MOL0     H98104   0.750   8.170   4.084  2.7142 -1.1751 -2.6767
  727MOL0     H98105   0.674   8.152   4.535 -0.1012  1.5828  0.7972
  727MOL0     H98106   0.599   8.361   4.625  2.4550  2.0482 -0.9659
  727MOL0     H98107   0.630   8.831   4.569 -1.2413 -1.6780 -0.1636
  727MOL0     H98108   0.595   9.062   4.652  2.1163 -2.2139 -0.2748
  727MOL0     H98109   0.447   9.286   4.739  2.4546  1.4526  0.1508
  727MOL0     H98110   0.539   9.313   4.596  0.1875  5.3553 -1.2781
  727MOL0     H98111   0.396   9.472   4.503 -0.0727  0.1631 -0.2698
  727MOL0     H98112   0.265   9.435   4.617 -0.3470 -2.3432  1.3062
  727MOL0     H98113   0.416   9.532   4.807  3.4178 -0.8652  1.4548
  727MOL0     H98114   0.554   9.537   4.688  1.5425  1.7595  0.5021
  727MOL0     H98115   0.291   9.706   4.660  0.4799  1.9246 -1.4409
  727MOL0     H98116   0.420   9.711   4.553  0.4810 -1.0889 -0.3225
  727MOL0     H98117   0.489   9.763   4.842 -2.9963 -0.4084 -0.3213
  727MOL0     H98118   0.399   9.876   4.741  0.0549  0.8858  0.3005
  727MOL0     H98119   0.663   9.754   4.652  0.4421 -0.0844 -0.9715
  727MOL0     H98120   0.567   9.900   4.581 -2.1405  0.4974  1.9657
  727MOL0     H98121   0.773   9.978   4.688  0.8993  2.8067  2.0898
  727MOL0     H98122   0.723   9.890   4.836 -2.0157 -1.9923  0.0632
  727MOL0     H98123   0.696  10.150   4.814 -2.3046  2.5742  1.4254
  727MOL0     H98124   0.552  10.122   4.720 -0.6242 -1.6368 -0.0655
  727MOL0     H98125   0.205   9.040   4.452  0.3774  1.2281 -0.1088
  727MOL0     H98126   0.273   8.822   4.350  0.4104  0.7947 -0.6826
  727MOL0     H98127   0.512   8.520   4.240 -1.4111 -0.7522  0.3103
  727MOL0     H98128   0.594   8.313   4.130  0.3558  1.0501 -1.0376
  727MOL0     H98129   0.603   9.820   4.145 -3.2439  0.5292  2.3789
  727MOL0     H98130   0.642  10.052   4.112 -3.1408  1.5872  0.8773
  727MOL0     H98131   1.011  10.287   4.192  2.1950  0.6840  0.7511
  727MOL0     H98132   1.169  10.446   4.110 -0.1251  0.5116 -1.8139
  727MOL0     H98133   1.247  10.729   3.888  1.1508 -0.2661  0.9317
  727MOL0     H98134   1.234  10.560   3.934 -3.0497 -0.0160  2.0567
  727MOL0     H98135   1.255  10.667   4.179  0.4415  2.8576  1.5521
  727MOL0     H98136   1.335  10.796   4.115 -0.5743 -0.5140  1.3195
  727MOL0     H98137   1.504  10.653   4.163 -2.6483  0.5943  2.1884
  727MOL0     H98138   1.504  10.646   3.994 -1.1512 -1.2770  0.1198
  727MOL0     H98139   1.355  10.418   4.028 -0.7593  1.4633  1.8928
  727MOL0     H98140   1.527  10.413   4.023 -0.1645 -1.8218 -0.2995
  727MOL0     H98141   1.435  10.328   4.422  3.2836  1.2918  1.1431
  727MOL0     H98142   0.849  10.730   4.058 -1.8811  0.0932  1.2469
  727MOL0     H98143   0.636  10.684   4.108  2.8091 -0.0398  0.9192
  727MOL0     H98144   0.584  10.520   4.047  1.4463  0.0713 -0.3381
  727MOL0     H98145   0.598  10.548   4.221  2.0578  0.4818  1.0149
  728MOL0     O98146  10.336   7.638   9.975  0.4675  0.2583 -0.2264
  728MOL0     C98147  10.352   7.679   9.861 -0.7175 -0.4135 -0.9060
  728MOL0     O98148  10.263   7.656   9.760  0.2062 -0.6898  0.4123
  728MOL0     C98149  10.159   7.564   9.776  0.2383  0.1688 -0.6607
  728MOL0     C98150  10.169   7.422   9.807 -0.3299  0.3732  0.2093
  728MOL0     C98151  10.052   7.347   9.813  0.2538 -0.0983 -0.1255
  728MOL0     C98152   9.921   7.417   9.827 -0.7480  0.2133  0.0908
  728MOL0     O98153   9.806   7.351   9.847  0.2183 -0.3199 -0.4615
  728MOL0     C98154   9.793   7.284   9.974 -0.3109  0.2741  1.2340
  728MOL0     C98155   9.854   7.150   9.985 -0.3165 -0.3773  0.0753
  728MOL0     C98156   9.787   7.043  10.077 -0.0995  0.1608 -0.3583
  728MOL0     C98157   9.764   7.083  10.228  0.7441  0.3494  0.4993
  728MOL0     C98158   9.889   7.108  10.319 -1.1411 -0.2586 -0.0430
  728MOL0     C98159   9.867   7.226  10.414  0.0823  0.3113  1.2148
  728MOL0     C98160   9.930   7.214  10.551  0.6365  0.0248 -0.2399
  728MOL0     C98161   9.898   7.089  10.632 -0.2379  1.0904 -0.2702
  728MOL0     N98162   9.938   7.117  10.771  0.0822  0.3312  0.9409
  728MOL0     C98163   9.864   7.066  10.876  0.6724 -0.0410 -1.0895
  728MOL0     C98164   9.942   7.090  10.990 -0.1888  0.1625  0.6123
  728MOL0     C98165   9.907   7.045  11.129 -1.0224 -0.3405 -0.2191
  728MOL0     C98166  10.039   7.000  11.211 -0.3777  0.5714 -0.0101
  728MOL0     C98167  10.114   6.884  11.150 -0.0756  0.4471 -0.0572
  728MOL0     C98168  10.206   6.815  11.252 -0.1443 -0.5484  0.6256
  728MOL0     O98169  10.255   6.691  11.205 -0.8222 -0.5280  0.5601
  728MOL0     C98170  10.376   6.691  11.140 -0.5216  0.2121  0.1982
  728MOL0     C98171  10.494   6.741  11.200 -0.6119  0.2828  0.3534
  728MOL0     C98172  10.598   6.770  11.118  0.4012  0.0933 -0.7761
  728MOL0     C98173  10.609   6.726  10.987 -0.5953  0.2587 -0.6854
  728MOL0     C98174  10.718   6.755  10.900  0.3044 -0.9388 -0.6075
  728MOL0     O98175  10.701   6.723  10.768 -0.8456  0.2455 -0.0035
  728MOL0     C98176  10.814   6.760  10.690  0.6319  0.7238 -0.7688
  728MOL0     C98177  10.944   6.725  10.715  0.4901  0.4722  1.3285
  728MOL0     C98178  11.046   6.755  10.621  1.1518 -0.6011  0.8766
  728MOL0     C98179  11.012   6.826  10.500 -0.3817  0.1319  0.3095
  728MOL0     O98180  11.105   6.880  10.412  0.2580  0.5030 -0.5842
  728MOL0     C98181  11.238   6.920  10.450 -0.2121  0.5080 -0.2443
  728MOL0     C98182  11.350   6.865  10.359 -0.4886 -0.0777 -0.3054
  728MOL0     C98183  11.470   6.961  10.338  0.1307  0.4588 -0.6826
  728MOL0     C98184  11.556   6.909  10.214  0.4572 -0.4552  0.2015
  728MOL0     C98185  11.663   7.001  10.173  0.0784 -0.4458  0.3159
  728MOL0     C98186  11.741   6.964  10.047 -0.1881  0.2387 -0.0949
  728MOL0     C98187  11.854   7.063  10.017 -0.1676  0.3280  0.5530
  728MOL0     C98188  11.916   7.026   9.882 -0.3005  0.1453  0.1715
  728MOL0    Cl98189  11.983   6.862   9.888 -0.2870  0.6022 -0.3793
  728MOL0     C98190  10.877   6.844  10.475  0.5594  0.3745 -0.3873
  728MOL0     C98191  10.779   6.811  10.570  0.5305  0.2429 -0.0717
  728MOL0     O98192  10.818   6.803  10.955 -0.5034  0.0111  1.1384
  728MOL0     C98193  10.494   6.660  10.935 -0.5743  0.6449  0.7531
  728MOL0     C98194  10.380   6.642  11.003  0.7758  0.3882  0.4270
  728MOL0     N98195  10.057   7.147  10.947 -0.2566  0.4056  0.1862
  728MOL0     N98196  10.061   7.157  10.811 -0.1322  0.2292 -0.2357
  728MOL0     C98197   9.920   7.550   9.790 -1.7614 -0.4549 -0.2354
  728MOL0     C98198  10.034   7.621   9.774 -1.1493  0.3483 -0.2683
  728MOL0     C98199  10.473   7.752   9.826 -0.3058 -0.7355  0.2416
  728MOL0     C98200  10.562   7.788   9.926 -0.9327  0.4347 -0.0495
  728MOL0     C98201  10.693   7.837   9.898  0.4592  0.7186  0.1454
  728MOL0     C98202  10.735   7.849   9.764  0.3636 -0.5387 -0.1369
  728MOL0     O98203  10.873   7.877   9.724  0.0083 -0.2782  0.1390
  728MOL0     C98204  10.973   7.900   9.821  0.9945 -0.8781 -0.1589
  728MOL0     C98205  11.096   7.943   9.740 -0.1130  0.1474 -0.2434
  728MOL0     C98206  11.206   8.004   9.821 -0.3989  0.2595 -0.5562
  728MOL0     C98207  11.330   7.921   9.807 -0.1556  0.2062  0.5504
  728MOL0     C98208  11.433   7.987   9.876  0.2501  0.1087 -0.7954
  728MOL0     C98209  11.525   8.055   9.920  0.9554 -0.4869 -0.6305
  728MOL0     C98210  10.632   7.822   9.663 -0.2577  0.0930 -0.6898
  728MOL0     C98211  10.501   7.779   9.693  0.0017 -0.2948 -0.9580
  728MOL0     C98212  10.409   7.766   9.576 -0.9848 -0.7430  0.9021
  728MOL0     H98213  10.269   7.382   9.795 -0.7806 -0.4868 -0.9438
  728MOL0     H98214  10.045   7.240   9.831 -2.4224 -0.1364 -0.9605
  728MOL0     H98215   9.833   7.350  10.051  2.4566 -0.8090  0.8268
  728MOL0     H98216   9.684   7.279   9.983 -0.4683  1.2663  0.1036
  728MOL0     H98217   9.960   7.152  10.012 -0.1739  1.9436 -0.5137
  728MOL0     H98218   9.849   7.109   9.884 -1.0157 -1.1815  0.4264
  728MOL0     H98219   9.852   6.956  10.072 -0.3236 -0.0272 -0.0406
  728MOL0     H98220   9.696   7.016  10.022  0.8985 -2.0333 -1.0076
  728MOL0     H98221   9.699   7.170  10.230  0.5081  0.2242  3.9496
  728MOL0     H98222   9.709   6.996  10.265 -3.2375  2.3693 -0.1856
  728MOL0     H98223   9.914   7.016  10.374 -0.1062 -1.3181 -2.1735
  728MOL0     H98224   9.966   7.135  10.247 -1.0571 -1.1158 -0.2793
  728MOL0     H98225   9.894   7.324  10.372  1.3878  0.0069  1.2960
  728MOL0     H98226   9.759   7.227  10.432 -0.4517  0.8712 -1.5965
  728MOL0     H98227   9.903   7.302  10.608 -2.7008 -0.6761 -0.5442
  728MOL0     H98228  10.038   7.224  10.533  0.6176  2.2519  0.6389
  728MOL0     H98229   9.793   7.059  10.624  0.8374 -3.9215  0.8225
  728MOL0     H98230   9.952   7.005  10.586  0.3500  1.9507 -1.1857
  728MOL0     H98231   9.763   7.026  10.878 -2.4530  6.1020 -4.9399
  728MOL0     H98232   9.845   7.114  11.188 -2.3719 -2.2006  0.6443
  728MOL0     H98233   9.848   6.954  11.120  0.9687 -1.4255 -3.9849
  728MOL0     H98234  10.104   7.085  11.233  0.0969  0.0920  0.4753
  728MOL0     H98235  10.017   6.971  11.314  3.1044 -2.7555  0.0171
  728MOL0     H98236  10.180   6.924  11.072 -0.3084 -0.7382 -0.8999
  728MOL0     H98237  10.047   6.818  11.095 -1.3161  1.7472 -0.1597
  728MOL0     H98238  10.149   6.803  11.345 -0.3315 -2.0997  0.3422
  728MOL0     H98239  10.288   6.884  11.273  0.6284  0.6211 -4.6628
  728MOL0     H98240  10.513   6.776  11.301  0.2007  3.6204 -0.8342
  728MOL0     H98241  10.682   6.821  11.164 -0.4341 -0.7968  1.9222
  728MOL0     H98242  10.984   6.669  10.799  1.0273 -4.7871 -1.9710
  728MOL0     H98243  11.149   6.737  10.650  1.0707  0.0450  1.6087
  728MOL0     H98244  11.239   7.028  10.439 -1.6410  0.3442 -2.7092
  728MOL0     H98245  11.268   6.894  10.552 -2.1543 -3.4979 -0.4775
  728MOL0     H98246  11.382   6.766  10.393 -4.9891 -0.7701  2.7173
  728MOL0     H98247  11.311   6.861  10.257 -3.3719  0.5238  0.6941
  728MOL0     H98248  11.455   7.068  10.320  1.9976  0.7040 -0.9604
  728MOL0     H98249  11.535   6.945  10.424  0.9920  1.9187 -1.0275
  728MOL0     H98250  11.479   6.912  10.137 -0.7757  0.2847  1.4063
  728MOL0     H98251  11.585   6.804  10.225 -0.3308 -0.6811  0.1485
  728MOL0     H98252  11.737   7.011  10.252  0.1777  0.6779  0.1044
  728MOL0     H98253  11.614   7.098  10.159 -0.3403 -0.5473  1.0029
  728MOL0     H98254  11.788   6.867  10.065  1.1173  0.6970 -0.8926
  728MOL0     H98255  11.668   6.946   9.968 -0.0731 -1.0753  0.0791
  728MOL0     H98256  11.932   7.048  10.092 -0.1610 -1.5136  0.2337
  728MOL0     H98257  11.822   7.167  10.016  0.2679  0.4599 -0.0793
  728MOL0     H98258  11.834   7.031   9.810  0.5419 -2.1487 -1.0322
  728MOL0     H98259  11.999   7.093   9.858  2.4704 -1.8461  3.3244
  728MOL0     H98260  10.856   6.877  10.374  0.8211  0.3431 -0.4529
  728MOL0     H98261  10.674   6.834  10.562  0.6144  1.2450  1.3243
  728MOL0     H98262  10.501   6.620  10.835  2.7293 -1.2613  1.5943
  728MOL0     H98263  10.296   6.584  10.966  2.0588 -0.6068 -1.0312
  728MOL0     H98264   9.819   7.588   9.790 -2.0326 -1.1499 -0.1707
  728MOL0     H98265  10.034   7.729   9.763  1.7055  0.1755 -4.0094
  728MOL0     H98266  10.537   7.771  10.030 -2.5364 -1.9064 -0.7458
  728MOL0     H98267  10.776   7.849   9.967  3.5763  2.3103 -3.5526
  728MOL0     H98268  10.979   7.811   9.885  2.4685  0.1157  1.1343
  728MOL0     H98269  10.935   7.987   9.874 -1.9306  1.0132 -4.7665
  728MOL0     H98270  11.058   8.014   9.666 -0.0781 -2.3265 -2.8102
  728MOL0     H98271  11.131   7.855   9.686 -4.5291 -1.7310 -0.4795
  728MOL0     H98272  11.174   7.997   9.925 -1.0134 -0.9822 -0.8180
  728MOL0     H98273  11.222   8.107   9.786 -1.1570  0.2554 -0.9449
  728MOL0     H98274  11.310   7.822   9.852  1.6507  0.5378  2.2237
  728MOL0     H98275  11.362   7.910   9.703  1.0790 -0.4700  0.9738
  728MOL0     H98276  11.605   8.122   9.938  0.7852 -0.3154 -0.5156
  728MOL0     H98277  10.664   7.843   9.561  3.0481 -0.7586  0.0529
  728MOL0     H98278  10.321   7.829   9.597  0.0781  0.5157  1.8006
  728MOL0     H98279  10.454   7.805   9.485  0.7590 -1.4433  1.4202
  728MOL0     H98280  10.372   7.667   9.547 -0.0815 -1.2819  1.5530
  729MOL0     O98281   3.890   3.141   8.869  0.6240 -0.3887 -0.3255
  729MOL0     C98282   3.847   3.036   8.920 -0.4470 -0.3722 -0.8037
  729MOL0     O98283   3.710   2.988   8.911 -0.6735 -0.7303 -0.6025
  729MOL0     C98284   3.615   3.070   8.858 -0.4557  0.2559 -0.5233
  729MOL0     C98285   3.595   3.192   8.919 -0.2488 -0.1146 -0.4421
  729MOL0     C98286   3.485   3.276   8.864 -0.5903 -1.2312 -0.5163
  729MOL0     C98287   3.404   3.233   8.758  0.6062  0.0616 -0.3530
  729MOL0     O98288   3.307   3.326   8.715 -0.3264  0.8854  0.4498
  729MOL0     C98289   3.173   3.268   8.712  0.3234  0.1384  0.6080
  729MOL0     C98290   3.082   3.391   8.684 -0.9974  0.2447  0.6074
  729MOL0     C98291   2.935   3.343   8.675 -0.2266 -0.5289 -0.5404
  729MOL0     C98292   2.879   3.333   8.533  0.3074  0.0183 -0.3348
  729MOL0     C98293   2.725   3.304   8.542  0.0055  0.4349  0.0009
  729MOL0     C98294   2.655   3.305   8.403  0.0086 -1.3426 -0.4227
  729MOL0     C98295   2.513   3.243   8.410  0.1875  0.0186  0.4708
  729MOL0     C98296   2.447   3.202   8.273  0.1449  0.4987 -0.1605
  729MOL0     N98297   2.310   3.180   8.283  0.4674  0.0681 -0.7567
  729MOL0     C98298   2.213   3.270   8.239 -0.5576  0.4104  0.4030
  729MOL0     C98299   2.100   3.199   8.271  0.0658 -0.7976 -0.7437
  729MOL0     C98300   1.963   3.266   8.274 -0.5291  0.0012  0.1121
  729MOL0     C98301   1.950   3.397   8.363 -0.2118  0.4805 -1.0807
  729MOL0     C98302   2.040   3.403   8.488 -0.2279  1.5166  0.0200
  729MOL0     C98303   1.986   3.518   8.570 -0.0636 -0.6522 -0.4903
  729MOL0     O98304   2.069   3.628   8.574  0.0579 -0.8979  0.3531
  729MOL0     C98305   2.037   3.740   8.653  0.1733  0.4958 -1.0474
  729MOL0     C98306   2.134   3.827   8.676 -0.0303  0.4689  0.6149
  729MOL0     C98307   2.107   3.950   8.743  0.5389 -0.0790  0.7130
  729MOL0     C98308   1.989   3.970   8.811  0.2727  0.6682  1.3139
  729MOL0     C98309   1.965   4.099   8.883 -0.2380 -0.5419 -0.3087
  729MOL0     O98310   1.870   4.087   8.975 -0.0496 -0.3270  0.7408
  729MOL0     C98311   1.868   4.185   9.071  0.6340 -0.5231  0.1771
  729MOL0     C98312   1.774   4.289   9.063 -0.6133  0.1214 -0.5845
  729MOL0     C98313   1.773   4.406   9.154  0.1131 -0.3239 -0.0604
  729MOL0     C98314   1.870   4.402   9.262  1.0269 -1.1113 -0.7046
  729MOL0     O98315   1.891   4.499   9.359  0.0430 -0.2816 -0.6936
  729MOL0     C98316   1.974   4.623   9.324  0.7472  0.8728 -0.5324
  729MOL0     C98317   2.114   4.587   9.274  0.7650  0.9201 -0.3817
  729MOL0     C98318   2.215   4.697   9.319  0.3678  1.7526 -0.1057
  729MOL0     C98319   2.362   4.679   9.252  0.4245 -0.1308  1.0285
  729MOL0     C98320   2.463   4.769   9.325  0.9769  0.0776 -0.3873
  729MOL0     C98321   2.607   4.715   9.288  0.4688 -0.0394  0.0473
  729MOL0     C98322   2.726   4.803   9.319 -0.7250  0.1845 -1.0653
  729MOL0     C98323   2.859   4.734   9.310  0.7653  0.2044 -0.7222
  729MOL0    Cl98324   2.882   4.629   9.452 -0.4712 -0.4236  1.0123
  729MOL0     C98325   1.949   4.291   9.270 -0.1337 -0.5627  0.0823
  729MOL0     C98326   1.953   4.192   9.178 -0.7928  0.4550 -0.2590
  729MOL0     O98327   2.039   4.198   8.874  0.2683  0.2265 -1.0980
  729MOL0     C98328   1.898   3.862   8.796  0.9725  0.4389  0.0175
  729MOL0     C98329   1.915   3.748   8.722  0.1912 -0.6591  0.1348
  729MOL0     N98330   2.128   3.080   8.335 -0.4997 -0.6187  0.5726
  729MOL0     N98331   2.255   3.071   8.337  0.8495 -0.6509 -0.1394
  729MOL0     C98332   3.415   3.096   8.724 -0.0482 -0.8612  0.3177
  729MOL0     C98333   3.529   3.020   8.766  0.9047 -0.6552 -0.8238
  729MOL0     C98334   3.944   2.945   8.991  0.1513 -0.0347  0.2833
  729MOL0     C98335   3.908   2.813   8.986  1.4625  0.6587  0.5904
  729MOL0     C98336   3.972   2.712   9.055 -0.2825  0.1907  0.0550
  729MOL0     C98337   4.092   2.743   9.117 -0.2137  0.5306  1.0076
  729MOL0     O98338   4.154   2.632   9.178 -0.2718 -0.6308  0.2002
  729MOL0     C98339   4.204   2.659   9.312 -0.1585  0.1921  1.0222
  729MOL0     C98340   4.203   2.524   9.395 -0.3614 -0.9647  0.1603
  729MOL0     C98341   4.062   2.465   9.396 -0.7070  1.1797  0.5459
  729MOL0     C98342   4.052   2.352   9.495 -0.1627 -0.6041 -0.5214
  729MOL0     C98343   4.091   2.393   9.627 -0.0338 -0.5659  0.4418
  729MOL0     C98344   4.136   2.433   9.728  1.2275  0.0401  0.1440
  729MOL0     C98345   4.135   2.872   9.115  0.7300 -0.7510  0.5261
  729MOL0     C98346   4.059   2.980   9.065  0.0745 -0.7634  0.7808
  729MOL0     C98347   4.096   3.127   9.084 -0.5101  0.5032 -0.3814
  729MOL0     H98348   3.659   3.245   8.988  2.7591 -1.8723 -1.6802
  729MOL0     H98349   3.496   3.380   8.893  2.6449 -1.0458 -1.9171
  729MOL0     H98350   3.181   3.189   8.637  1.8145 -0.7056  1.6000
  729MOL0     H98351   3.150   3.223   8.809 -3.4649 -1.0304 -0.6764
  729MOL0     H98352   3.122   3.459   8.608  2.7011  0.5558  2.6037
  729MOL0     H98353   3.091   3.442   8.780 -1.1016  0.5319  0.4658
  729MOL0     H98354   2.876   3.424   8.720  0.5843 -0.8940  1.2712
  729MOL0     H98355   2.917   3.253   8.735 -0.1961 -0.4169 -0.3627
  729MOL0     H98356   2.886   3.432   8.487  0.9703  0.7052  1.1807
  729MOL0     H98357   2.927   3.260   8.467  0.2525  1.7082 -2.3673
  729MOL0     H98358   2.707   3.212   8.598  1.1406  1.0249  1.3878
  729MOL0     H98359   2.687   3.387   8.601 -0.0371  0.4160 -0.0006
  729MOL0     H98360   2.646   3.409   8.368 -1.0094 -2.3113 -3.3647
  729MOL0     H98361   2.722   3.254   8.333  0.1013 -4.1843  1.6050
  729MOL0     H98362   2.456   3.327   8.449 -1.5338  0.3010 -2.3893
  729MOL0     H98363   2.509   3.156   8.477  1.5331 -0.4164  0.0298
  729MOL0     H98364   2.462   3.289   8.208 -0.0227  0.7548  0.1431
  729MOL0     H98365   2.505   3.116   8.238 -0.2589 -0.7341  2.0164
  729MOL0     H98366   2.241   3.366   8.196  0.3670 -1.1921 -2.8735
  729MOL0     H98367   1.934   3.291   8.172  0.2075  1.4345  0.2252
  729MOL0     H98368   1.894   3.186   8.304 -0.7796  0.6507  1.3710
  729MOL0     H98369   1.977   3.480   8.297  4.2150  0.1170 -0.0367
  729MOL0     H98370   1.849   3.415   8.402 -0.5410 -0.9523 -1.1758
  729MOL0     H98371   2.144   3.420   8.459 -0.7969 -0.0898 -3.4116
  729MOL0     H98372   2.034   3.312   8.550  0.9297  1.7695  0.5236
  729MOL0     H98373   1.970   3.492   8.675 -0.6867 -1.7050 -0.8323
  729MOL0     H98374   1.883   3.543   8.546  0.1436 -0.8774 -1.6947
  729MOL0     H98375   2.231   3.803   8.633 -0.5069 -0.8863  0.2366
  729MOL0     H98376   2.182   4.029   8.741  0.6373 -0.1718 -1.0532
  729MOL0     H98377   1.723   4.292   8.967  0.0227 -1.8673 -1.0265
  729MOL0     H98378   1.717   4.498   9.141  1.0906  0.1494 -1.1251
  729MOL0     H98379   1.920   4.674   9.244 -0.5995 -1.0840 -0.9463
  729MOL0     H98380   1.975   4.690   9.410  0.4417 -1.1353  1.1012
  729MOL0     H98381   2.147   4.494   9.321 -1.6780 -0.8560 -1.9514
  729MOL0     H98382   2.121   4.577   9.166 -1.2749  1.3745 -0.5916
  729MOL0     H98383   2.165   4.792   9.299 -2.1399  0.5904  0.2886
  729MOL0     H98384   2.230   4.681   9.426  2.4778  0.1892 -0.5653
  729MOL0     H98385   2.372   4.695   9.144  2.6404  2.0107  1.4704
  729MOL0     H98386   2.406   4.578   9.258 -3.0847 -1.8300  0.5003
  729MOL0     H98387   2.442   4.764   9.432 -2.1287  1.5593 -0.8179
  729MOL0     H98388   2.450   4.872   9.289 -2.8833 -0.8170 -1.9845
  729MOL0     H98389   2.623   4.610   9.315 -1.0982  0.4929  3.5624
  729MOL0     H98390   2.608   4.724   9.179  1.2676  2.0627  0.1843
  729MOL0     H98391   2.707   4.856   9.413  0.3353  0.1315 -0.8162
  729MOL0     H98392   2.738   4.882   9.244  0.1753  2.1545  1.0488
  729MOL0     H98393   2.867   4.676   9.217 -0.3667 -0.4746 -0.4146
  729MOL0     H98394   2.948   4.798   9.309  1.6323 -0.9419 -0.0391
  729MOL0     H98395   2.009   4.288   9.361  0.5336  1.0058 -0.2569
  729MOL0     H98396   2.037   4.124   9.182  1.4441  3.0215 -0.4195
  729MOL0     H98397   1.806   3.877   8.851  0.4771  1.8254 -1.1187
  729MOL0     H98398   1.827   3.687   8.706 -0.3669 -0.0494  0.7672
  729MOL0     H98399   3.358   3.060   8.639  3.6158  3.7873 -4.9015
  729MOL0     H98400   3.555   2.922   8.727  0.7129 -1.2409  0.4632
  729MOL0     H98401   3.825   2.776   8.927  1.2743 -3.4224  3.0470
  729MOL0     H98402   3.938   2.609   9.058 -1.3080  0.5240 -0.0742
  729MOL0     H98403   4.141   2.728   9.367  1.3624  0.0465  3.0516
  729MOL0     H98404   4.308   2.692   9.306  0.0054 -0.5592 -1.3362
  729MOL0     H98405   4.245   2.548   9.493 -1.3309  0.4694  0.2536
  729MOL0     H98406   4.270   2.453   9.346 -0.6176 -0.3244 -1.1383
  729MOL0     H98407   4.040   2.418   9.300  2.2458  1.6576 -0.4776
  729MOL0     H98408   3.992   2.548   9.396  2.0693  3.7189 -0.2948
  729MOL0     H98409   3.946   2.327   9.506 -0.0988 -0.0117  1.8798
  729MOL0     H98410   4.112   2.264   9.468  2.1549  0.1492  1.8381
  729MOL0     H98411   4.172   2.472   9.821  1.5156 -1.5988  0.7580
  729MOL0     H98412   4.226   2.891   9.170  0.5237 -2.1887  1.4103
  729MOL0     H98413   4.013   3.176   9.135 -0.1279  0.5630  0.1993
  729MOL0     H98414   4.180   3.126   9.154  0.1275 -3.0806 -0.9641
  729MOL0     H98415   4.127   3.179   8.993 -1.3906 -0.0220 -1.0014
  730MOL0     O98416   6.154   8.149   5.128  0.3065  0.1830 -0.3261
  730MOL0     C98417   6.145   8.195   5.023  0.8730  0.0006 -0.2881
  730MOL0     O98418   6.057   8.143   4.928  0.3092 -0.1625 -0.0165
  730MOL0     C98419   5.976   8.039   4.964  0.3613  1.1001  0.1335
  730MOL0     C98420   6.022   7.902   4.934  0.6806  0.1573 -0.8780
  730MOL0     C98421   5.953   7.799   4.990  0.4155  0.6509  0.5297
  730MOL0     C98422   5.842   7.822   5.080 -0.9692 -0.6513 -0.1099
  730MOL0     O98423   5.768   7.728   5.135 -0.2957 -0.1079  0.7136
  730MOL0     C98424   5.783   7.588   5.102  0.2160  0.3697  0.1560
  730MOL0     C98425   5.673   7.543   5.005  0.2442 -0.5515  0.0514
  730MOL0     C98426   5.664   7.390   4.994  0.3613  0.8062 -0.6897
  730MOL0     C98427   5.786   7.330   4.927  0.2343  0.8426  0.5298
  730MOL0     C98428   5.762   7.184   4.877  0.2854  1.0450 -0.1215
  730MOL0     C98429   5.885   7.129   4.800 -0.0237 -0.7544  0.2103
  730MOL0     C98430   5.885   6.970   4.792 -0.5264  0.0872  1.3146
  730MOL0     C98431   5.930   6.913   4.928  0.0999  0.4622  0.0525
  730MOL0     N98432   5.919   6.759   4.926 -0.2730 -0.8023 -0.7862
  730MOL0     C98433   5.911   6.689   5.049  0.8697  0.0216 -0.6410
  730MOL0     C98434   5.886   6.568   5.011 -0.3974  0.0631 -0.0649
  730MOL0     C98435   5.879   6.450   5.107  0.0493  0.4661 -1.0055
  730MOL0     C98436   5.765   6.455   5.201  1.3014 -0.4791  0.2079
  730MOL0     C98437   5.630   6.427   5.125  0.7483  0.2735 -1.4415
  730MOL0     C98438   5.511   6.388   5.215  0.0614 -0.6202 -0.0989
  730MOL0     O98439   5.483   6.494   5.310 -0.2544 -0.0222  0.6353
  730MOL0     C98440   5.354   6.506   5.352 -0.5978 -0.3247  0.9637
  730MOL0     C98441   5.290   6.631   5.337 -0.4158 -0.3603  0.7077
  730MOL0     C98442   5.156   6.642   5.377  0.2022 -1.0985 -0.3835
  730MOL0     C98443   5.087   6.534   5.438 -0.6630  0.8427  0.3572
  730MOL0     C98444   4.943   6.543   5.467  0.1627  0.3075  0.1980
  730MOL0     O98445   4.871   6.433   5.514 -0.0138  0.1784 -0.0456
  730MOL0     C98446   4.742   6.438   5.546 -0.3501 -0.0741  0.0400
  730MOL0     C98447   4.707   6.354   5.653 -0.2719  1.1091  0.6804
  730MOL0     C98448   4.578   6.356   5.711  0.4431  0.3644 -0.3211
  730MOL0     C98449   4.480   6.438   5.644 -0.3223  0.6830  0.0297
  730MOL0     O98450   4.357   6.417   5.696  0.8795  0.0042  0.4998
  730MOL0     C98451   4.244   6.505   5.670 -0.8697 -0.4896  0.1562
  730MOL0     C98452   4.140   6.463   5.767  0.5447  0.3680  0.1112
  730MOL0     C98453   4.075   6.325   5.744 -0.8301 -0.1694  0.6388
  730MOL0     C98454   3.981   6.282   5.861 -0.2933 -1.3768  0.3111
  730MOL0     C98455   3.834   6.344   5.847 -0.4715 -0.0525  0.1991
  730MOL0     C98456   3.746   6.259   5.751  1.1014  0.0315 -0.3305
  730MOL0     C98457   3.602   6.297   5.777 -0.0151 -0.0153 -0.1491
  730MOL0     C98458   3.515   6.192   5.698  0.2987 -0.3883 -1.7739
  730MOL0    Cl98459   3.539   6.191   5.527 -0.2646 -0.8952  0.1799
  730MOL0     C98460   4.524   6.519   5.529  0.0988  0.3830 -0.2661
  730MOL0     C98461   4.653   6.522   5.487 -0.3648  0.8772  0.7399
  730MOL0     O98462   4.896   6.661   5.458 -0.3047 -0.2870  0.1435
  730MOL0     C98463   5.154   6.412   5.443  0.6291 -1.1276  0.0584
  730MOL0     C98464   5.282   6.398   5.405 -0.2024 -0.1129  0.0410
  730MOL0     N98465   5.874   6.558   4.868  0.9851 -0.6665 -0.0124
  730MOL0     N98466   5.902   6.672   4.821 -0.5814 -0.6708  0.0161
  730MOL0     C98467   5.800   7.958   5.097 -0.2945 -0.7080  0.5106
  730MOL0     C98468   5.865   8.067   5.037  0.5173 -0.3383 -0.8818
  730MOL0     C98469   6.234   8.299   4.987 -1.5341  0.0285  0.4346
  730MOL0     C98470   6.229   8.335   4.849 -0.0888 -0.1522  0.8319
  730MOL0     C98471   6.290   8.447   4.801  0.0634 -0.0670 -0.0029
  730MOL0     C98472   6.373   8.521   4.887  1.0135 -0.4116 -0.2996
  730MOL0     O98473   6.446   8.630   4.855  0.3455 -0.0178 -0.1315
  730MOL0     C98474   6.402   8.696   4.734  0.0095  0.3207  0.8227
  730MOL0     C98475   6.474   8.824   4.717  0.2022 -0.2214  0.6860
  730MOL0     C98476   6.596   8.830   4.622 -1.0456  0.0661  0.3187
  730MOL0     C98477   6.740   8.801   4.672 -0.2939 -0.7701 -0.2186
  730MOL0     C98478   6.753   8.662   4.694  0.1896  0.6815 -0.8041
  730MOL0     C98479   6.787   8.552   4.719  0.2956  0.0345  0.2465
  730MOL0     C98480   6.391   8.475   5.017 -0.7828 -0.2742 -0.1655
  730MOL0     C98481   6.318   8.374   5.076 -0.7216  0.7227  0.0656
  730MOL0     C98482   6.346   8.325   5.209 -0.4872 -0.2042 -1.0592
  730MOL0     H98483   6.115   7.884   4.882  1.5963 -0.5538  0.9038
  730MOL0     H98484   5.980   7.694   4.979  1.7559  1.2384 -3.4466
  730MOL0     H98485   5.880   7.550   5.069 -1.5781 -2.9170 -1.8543
  730MOL0     H98486   5.772   7.546   5.202  2.4245  0.8169  0.6345
  730MOL0     H98487   5.690   7.574   4.901 -1.8438 -2.2758 -0.8629
  730MOL0     H98488   5.584   7.577   5.059  1.2135 -0.6501  1.7813
  730MOL0     H98489   5.575   7.360   4.938 -0.6529  3.5958 -0.7327
  730MOL0     H98490   5.648   7.338   5.089  0.2008 -1.0497 -1.6873
  730MOL0     H98491   5.817   7.391   4.842 -1.4323  0.3532 -0.4841
  730MOL0     H98492   5.866   7.326   5.002  0.0202 -0.2530  0.7179
  730MOL0     H98493   5.731   7.119   4.959  1.2862 -3.4720 -3.0079
  730MOL0     H98494   5.682   7.186   4.802 -0.6038 -0.8550  0.7210
  730MOL0     H98495   5.876   7.170   4.699  0.8991 -0.3854  0.2702
  730MOL0     H98496   5.982   7.164   4.837  0.7269 -2.2511 -0.2572
  730MOL0     H98497   5.963   6.937   4.723 -2.1125  2.1353 -1.6625
  730MOL0     H98498   5.782   6.952   4.762  0.0680  1.2014 -1.7766
  730MOL0     H98499   6.032   6.948   4.945 -0.2719  2.3228 -1.2544
  730MOL0     H98500   5.867   6.942   5.012 -1.2524 -0.7294 -0.5054
  730MOL0     H98501   5.928   6.719   5.152  0.7305  0.2655 -0.6867
  730MOL0     H98502   5.868   6.359   5.048  1.1626 -0.2125 -0.1885
  730MOL0     H98503   5.969   6.438   5.168 -0.8413 -0.4615  0.2010
  730MOL0     H98504   5.783   6.378   5.275  3.0253 -1.0765 -0.7921
  730MOL0     H98505   5.753   6.548   5.258  0.8749  1.0141 -2.1598
  730MOL0     H98506   5.651   6.343   5.059 -1.8977 -0.6150 -1.2299
  730MOL0     H98507   5.606   6.522   5.076 -1.6039  1.2605  1.3298
  730MOL0     H98508   5.535   6.299   5.275  0.6336 -1.1671 -1.0963
  730MOL0     H98509   5.432   6.363   5.144 -0.0092  1.7146 -0.9190
  730MOL0     H98510   5.347   6.713   5.293  1.0968 -1.7296  0.0273
  730MOL0     H98511   5.105   6.736   5.357 -1.8963 -1.7079  1.6442
  730MOL0     H98512   4.783   6.288   5.692  0.2349  0.5148 -1.2143
  730MOL0     H98513   4.544   6.318   5.806 -2.3420  0.6367 -1.1330
  730MOL0     H98514   4.268   6.611   5.684 -0.5098  0.2594 -4.4944
  730MOL0     H98515   4.215   6.491   5.566  1.2748  0.3685 -0.6122
  730MOL0     H98516   4.182   6.472   5.867 -1.5421 -4.0469  1.6804
  730MOL0     H98517   4.056   6.531   5.749  0.2250 -0.1951 -0.5881
  730MOL0     H98518   4.028   6.319   5.646  0.2970 -2.2663  0.1659
  730MOL0     H98519   4.153   6.249   5.738 -0.9615 -0.2931  0.5001
  730MOL0     H98520   4.012   6.335   5.952 -4.2772  0.8126  0.6229
  730MOL0     H98521   3.983   6.174   5.875 -0.1642 -1.5408 -0.8691
  730MOL0     H98522   3.831   6.449   5.819  1.0766  0.6376  2.3197
  730MOL0     H98523   3.807   6.342   5.953  1.8911 -1.0086  0.8574
  730MOL0     H98524   3.774   6.263   5.646  4.2842  6.2110  0.3335
  730MOL0     H98525   3.757   6.154   5.778  1.4478 -0.5556 -2.5957
  730MOL0     H98526   3.571   6.398   5.747  3.1724  1.3022  0.6468
  730MOL0     H98527   3.577   6.262   5.878  1.7886 -1.8029 -0.2696
  730MOL0     H98528   3.522   6.096   5.750 -1.4455  0.3864  0.0271
  730MOL0     H98529   3.409   6.219   5.713  0.3138  0.0394 -2.3757
  730MOL0     H98530   4.446   6.570   5.474 -0.6527  0.2666  0.6560
  730MOL0     H98531   4.685   6.587   5.405 -0.3793  0.7598  0.6409
  730MOL0     H98532   5.113   6.322   5.486  0.2322  0.5033  3.4694
  730MOL0     H98533   5.332   6.302   5.411  1.7671  0.4388 -3.9289
  730MOL0     H98534   5.709   7.962   5.157 -0.6419 -1.3239  0.0480
  730MOL0     H98535   5.833   8.170   5.046  0.2747 -0.2391 -2.5999
  730MOL0     H98536   6.157   8.287   4.784 -0.1716 -0.3995  1.1005
  730MOL0     H98537   6.263   8.483   4.702  0.5939 -0.5763 -0.3436
  730MOL0     H98538   6.295   8.719   4.737 -0.3786 -0.7316 -1.8313
  730MOL0     H98539   6.426   8.627   4.652 -1.2348  0.7223  0.0903
  730MOL0     H98540   6.510   8.863   4.813  1.7559  4.4311 -1.4621
  730MOL0     H98541   6.401   8.890   4.668  0.6930 -1.8878 -2.5439
  730MOL0     H98542   6.606   8.932   4.584 -1.5412 -0.1338 -0.3626
  730MOL0     H98543   6.562   8.771   4.536 -0.2129 -0.0038  0.0256
  730MOL0     H98544   6.823   8.824   4.604 -1.6128  0.2547 -1.5648
  730MOL0     H98545   6.755   8.863   4.761  3.4018  2.0796 -2.5387
  730MOL0     H98546   6.814   8.450   4.737  1.5997  0.6305  2.0296
  730MOL0     H98547   6.465   8.536   5.067 -1.5673  1.1894 -0.7349
  730MOL0     H98548   6.266   8.313   5.282  1.3137 -0.8991  0.8940
  730MOL0     H98549   6.401   8.230   5.207  1.9227  0.7442  4.1110
  730MOL0     H98550   6.413   8.396   5.258  0.1008 -4.7138  6.2092
  731MOL0     O98551   4.624   5.636   4.989  0.9679  0.8079  0.3114
  731MOL0     C98552   4.567   5.705   5.065 -0.4723 -0.5614 -0.3287
  731MOL0     O98553   4.619   5.745   5.186  0.1125 -0.0926  0.1762
  731MOL0     C98554   4.748   5.713   5.217 -0.5064  0.1266 -0.1200
  731MOL0     C98555   4.772   5.646   5.341  0.7269  0.1765  0.3753
  731MOL0     C98556   4.898   5.596   5.381 -0.4118  0.0138 -0.2167
  731MOL0     C98557   5.008   5.633   5.308  0.1205  0.2914 -0.5069
  731MOL0     O98558   5.131   5.611   5.345 -0.4294  0.9621  0.6226
  731MOL0     C98559   5.177   5.570   5.476 -0.4440 -0.0142 -0.9373
  731MOL0     C98560   5.195   5.693   5.570 -0.1157 -0.1496 -0.8705
  731MOL0     C98561   5.251   5.635   5.705 -0.2921  0.1227 -0.4864
  731MOL0     C98562   5.294   5.749   5.801 -0.0925  0.4261 -0.1528
  731MOL0     C98563   5.358   5.695   5.921 -0.8183  0.6412  0.1715
  731MOL0     C98564   5.436   5.803   6.003  0.0706 -0.2952 -0.3881
  731MOL0     C98565   5.491   5.758   6.136  0.9652  0.6345 -0.2717
  731MOL0     C98566   5.593   5.646   6.126 -0.2663  0.5649  0.0888
  731MOL0     N98567   5.627   5.604   6.263 -1.1186  0.0881 -0.3023
  731MOL0     C98568   5.529   5.552   6.341  1.1703 -0.2120  0.8551
  731MOL0     C98569   5.569   5.566   6.464 -1.3150  0.0876  0.1790
  731MOL0     C98570   5.500   5.487   6.578 -0.5988  0.5607 -0.6854
  731MOL0     C98571   5.525   5.570   6.701  0.0387 -0.3565 -1.1686
  731MOL0     C98572   5.479   5.496   6.827 -0.3540  0.3684 -0.0503
  731MOL0     C98573   5.326   5.519   6.856 -0.2464  0.0930  0.8552
  731MOL0     O98574   5.250   5.448   6.763 -0.9077  0.5950  0.6968
  731MOL0     C98575   5.122   5.491   6.733 -0.0237 -0.4047  0.0305
  731MOL0     C98576   5.049   5.589   6.796 -0.0488 -0.1834 -1.1998
  731MOL0     C98577   4.936   5.629   6.735  0.7453  0.4358  0.3386
  731MOL0     C98578   4.886   5.569   6.612 -1.0180 -0.8285 -0.2325
  731MOL0     C98579   4.760   5.623   6.543  0.2362 -0.8446 -0.5201
  731MOL0     O98580   4.733   5.755   6.588 -0.4908  0.3540 -0.5516
  731MOL0     C98581   4.596   5.780   6.592 -0.7328 -0.4083 -0.0533
  731MOL0     C98582   4.546   5.806   6.723 -0.0460 -0.1722  0.5715
  731MOL0     C98583   4.416   5.861   6.737  0.0296 -0.1683 -0.2048
  731MOL0     C98584   4.332   5.884   6.626  0.2127 -0.3074  1.3451
  731MOL0     O98585   4.212   5.951   6.656 -0.5032  0.4461 -0.0216
  731MOL0     C98586   4.107   5.940   6.551 -0.2671  0.1047  0.4513
  731MOL0     C98587   3.969   5.941   6.606  0.4327  0.2854  0.3392
  731MOL0     C98588   3.934   6.074   6.674 -0.3723  0.5102 -0.1302
  731MOL0     C98589   3.869   6.189   6.577 -0.0982 -0.0123 -0.4431
  731MOL0     C98590   3.833   6.307   6.661 -0.0962  0.0289  0.6473
  731MOL0     C98591   3.751   6.395   6.567  1.3596 -1.2723  0.4711
  731MOL0     C98592   3.706   6.539   6.629 -0.5216  0.3742 -0.0755
  731MOL0     C98593   3.673   6.636   6.525 -0.4096 -0.9383  0.2156
  731MOL0    Cl98594   3.504   6.608   6.474  0.3319  0.0237  0.2116
  731MOL0     C98595   4.383   5.862   6.496  0.4196 -0.6534 -0.0521
  731MOL0     C98596   4.511   5.800   6.488  1.2123  0.8763  0.5909
  731MOL0     O98597   4.688   5.548   6.486  0.7423 -0.2006  0.2112
  731MOL0     C98598   4.955   5.461   6.553  0.3442 -0.3265 -0.4770
  731MOL0     C98599   5.070   5.431   6.613 -0.4352  0.1733 -0.3533
  731MOL0     N98600   5.684   5.642   6.478  0.2080 -0.1582  1.0184
  731MOL0     N98601   5.718   5.668   6.354  0.8479 -0.2491  0.0346
  731MOL0     C98602   4.984   5.688   5.183  1.0565 -0.8600 -0.3932
  731MOL0     C98603   4.854   5.729   5.137  0.2312 -0.8186  0.4650
  731MOL0     C98604   4.436   5.769   5.023 -0.2426  0.0509  0.4817
  731MOL0     C98605   4.393   5.875   5.097 -0.5162 -0.4400 -0.0482
  731MOL0     C98606   4.259   5.919   5.093  0.6797 -0.0202  0.4007
  731MOL0     C98607   4.169   5.853   5.002 -0.7204  0.2488 -0.7597
  731MOL0     O98608   4.043   5.908   4.989  0.3526  0.6608 -0.2854
  731MOL0     C98609   3.949   5.887   5.094 -0.5720  0.6858 -0.2049
  731MOL0     C98610   3.900   5.750   5.081  0.1701 -0.5787 -0.4554
  731MOL0     C98611   3.748   5.740   5.106 -0.2323 -0.2553 -0.8770
  731MOL0     C98612   3.711   5.732   5.249  0.2723 -0.0980 -0.8318
  731MOL0     C98613   3.635   5.850   5.294  0.1135  0.4090  0.9440
  731MOL0     C98614   3.577   5.953   5.301  0.6146  0.5257 -1.0849
  731MOL0     C98615   4.212   5.758   4.913 -0.2858  0.1805  0.3381
  731MOL0     C98616   4.348   5.711   4.925  0.8321 -0.5175 -0.5213
  731MOL0     C98617   4.368   5.590   4.839 -0.3425  0.0242 -0.0886
  731MOL0     H98618   4.685   5.623   5.403 -2.9528  2.0115 -3.5970
  731MOL0     H98619   4.901   5.531   5.468 -1.4028  2.3796  1.7152
  731MOL0     H98620   5.108   5.503   5.527 -2.5838  2.7371  0.0232
  731MOL0     H98621   5.275   5.523   5.462 -0.1157 -0.9192  3.2091
  731MOL0     H98622   5.094   5.733   5.582 -0.4857 -0.9255 -1.3321
  731MOL0     H98623   5.252   5.780   5.535 -2.4984  1.1030 -1.9386
  731MOL0     H98624   5.344   5.580   5.686 -0.6884 -0.3776 -1.0057
  731MOL0     H98625   5.178   5.563   5.744 -0.2257 -0.1580 -0.8755
  731MOL0     H98626   5.362   5.820   5.751 -0.2948 -0.1911 -1.3533
  731MOL0     H98627   5.210   5.806   5.842 -0.3752  0.9808 -1.4441
  731MOL0     H98628   5.292   5.623   5.970 -0.7238  1.1743  1.1039
  731MOL0     H98629   5.436   5.623   5.893 -3.1088 -1.2831 -1.7185
  731MOL0     H98630   5.524   5.830   5.944  0.7525  0.3761  0.9003
  731MOL0     H98631   5.385   5.897   6.025  0.7604  0.0929 -0.4311
  731MOL0     H98632   5.403   5.722   6.190 -0.4494  3.7018 -0.3531
  731MOL0     H98633   5.529   5.842   6.194 -0.4854  2.3162 -1.6520
  731MOL0     H98634   5.556   5.565   6.063 -1.7962 -1.1461  2.9456
  731MOL0     H98635   5.675   5.682   6.064 -1.8305  1.6023 -1.4471
  731MOL0     H98636   5.444   5.488   6.320  0.7690  1.3929 -3.2634
  731MOL0     H98637   5.396   5.480   6.545 -0.7187 -0.9169 -0.0742
  731MOL0     H98638   5.551   5.394   6.603  0.3679  1.9981  3.4889
  731MOL0     H98639   5.628   5.604   6.716 -0.8419  2.4966 -0.9171
  731MOL0     H98640   5.474   5.666   6.693  3.7377  1.6301 -3.7651
  731MOL0     H98641   5.529   5.538   6.914  3.2463  0.9404 -2.2032
  731MOL0     H98642   5.506   5.390   6.827  0.1048  0.4552  1.8713
  731MOL0     H98643   5.323   5.628   6.855  1.8703  0.1965  0.1713
  731MOL0     H98644   5.308   5.479   6.956  1.8741  1.0454  1.6730
  731MOL0     H98645   5.084   5.620   6.894  1.1523 -0.9866 -1.3561
  731MOL0     H98646   4.881   5.708   6.786  1.4631  0.9931  0.2685
  731MOL0     H98647   4.612   5.793   6.807  1.5542 -4.7683 -1.0751
  731MOL0     H98648   4.376   5.893   6.832  1.2611  2.3048 -0.4398
  731MOL0     H98649   4.118   6.030   6.490 -2.1166  0.4307  0.5338
  731MOL0     H98650   4.131   5.852   6.490  0.8193  2.0811 -2.1805
  731MOL0     H98651   3.892   5.926   6.529 -0.9831 -2.5007  2.1107
  731MOL0     H98652   3.954   5.863   6.682  0.8116  0.8964  1.0558
  731MOL0     H98653   3.862   6.043   6.751 -1.1914  0.5961 -0.8461
  731MOL0     H98654   4.016   6.123   6.727 -0.3872  2.3341 -1.6876
  731MOL0     H98655   3.776   6.145   6.538 -1.9493  0.4636  3.0452
  731MOL0     H98656   3.935   6.220   6.495 -1.3710 -0.0719 -1.5337
  731MOL0     H98657   3.926   6.359   6.689 -0.2212  0.9873 -0.6681
  731MOL0     H98658   3.777   6.270   6.748  2.2068 -2.5775  1.1823
  731MOL0     H98659   3.808   6.420   6.477 -2.2614 -1.0387 -1.9935
  731MOL0     H98660   3.658   6.340   6.548  1.6008 -1.1248 -1.2684
  731MOL0     H98661   3.794   6.569   6.687 -0.1264 -0.9222  0.0152
  731MOL0     H98662   3.629   6.527   6.706 -0.5865 -1.1850 -0.3474
  731MOL0     H98663   3.686   6.738   6.562  0.0898 -1.1087  0.5140
  731MOL0     H98664   3.755   6.630   6.453  0.7306  1.7499  1.1428
  731MOL0     H98665   4.330   5.882   6.404 -0.6362  1.2137  0.9038
  731MOL0     H98666   4.551   5.800   6.387  1.6389 -0.9808  0.7301
  731MOL0     H98667   4.924   5.420   6.457 -0.2839 -2.4896  0.5979
  731MOL0     H98668   5.144   5.361   6.576  1.9378  2.7171 -0.6588
  731MOL0     H98669   5.077   5.719   5.135  2.1811 -3.1156  0.1913
  731MOL0     H98670   4.830   5.788   5.049 -2.1908 -0.2460  1.4525
  731MOL0     H98671   4.466   5.923   5.161  0.1942 -0.3372 -0.9152
  731MOL0     H98672   4.229   6.009   5.144 -1.7807  1.1234 -2.7263
  731MOL0     H98673   3.866   5.958   5.092 -1.2066 -0.0418 -1.1045
  731MOL0     H98674   4.002   5.896   5.189  3.6623  1.4046 -2.3824
  731MOL0     H98675   3.951   5.675   5.142  2.1825 -1.5245 -3.0782
  731MOL0     H98676   3.914   5.720   4.977 -0.6877  0.3894 -0.8703
  731MOL0     H98677   3.721   5.642   5.066  1.9986 -1.6198  0.7226
  731MOL0     H98678   3.697   5.822   5.056 -0.8287  1.0367  1.6803
  731MOL0     H98679   3.644   5.647   5.264  2.2665 -1.3614  1.6750
  731MOL0     H98680   3.793   5.718   5.320 -1.4947  2.2169  1.8882
  731MOL0     H98681   3.515   6.040   5.302 -1.0462 -0.5729 -2.3693
  731MOL0     H98682   4.147   5.711   4.839 -0.2076  2.5117 -1.3434
  731MOL0     H98683   4.388   5.504   4.903 -1.1756 -0.4456 -0.4371
  731MOL0     H98684   4.292   5.568   4.763  2.0231  1.0307 -2.9307
  731MOL0     H98685   4.454   5.602   4.772 -1.0173  1.0424 -0.8245
  732MOL0     O98686  11.454   3.168   6.551  0.0766  0.5200  0.5148
  732MOL0     C98687  11.427   3.287   6.534  0.1918  1.1860  0.6718
  732MOL0     O98688  11.379   3.377   6.632  0.4965 -0.4813 -0.2202
  732MOL0     C98689  11.377   3.326   6.760 -0.6206 -0.3439 -0.1563
  732MOL0     C98690  11.274   3.354   6.850 -0.0833 -0.3580  0.1779
  732MOL0     C98691  11.280   3.325   6.982  0.4056 -0.3095  0.4219
  732MOL0     C98692  11.388   3.271   7.050 -0.3629 -0.5898 -0.7117
  732MOL0     O98693  11.385   3.261   7.187  0.0688 -0.2862 -0.0374
  732MOL0     C98694  11.507   3.290   7.252 -0.2765  0.5511  0.6595
  732MOL0     C98695  11.487   3.367   7.378  0.2102  0.3696  1.0309
  732MOL0     C98696  11.459   3.515   7.354 -0.3304  0.0098  0.4736
  732MOL0     C98697  11.359   3.551   7.242  0.9939  0.2179 -0.2355
  732MOL0     C98698  11.335   3.706   7.233 -0.1860 -0.3103  0.6569
  732MOL0     C98699  11.256   3.735   7.104 -0.0059 -0.5214  0.1633
  732MOL0     C98700  11.151   3.838   7.119 -0.1593  0.3410 -0.8643
  732MOL0     C98701  11.115   3.926   7.003 -0.3627  0.1648  0.6947
  732MOL0     N98702  11.060   3.846   6.893 -0.0645 -0.3041 -0.7227
  732MOL0     C98703  11.133   3.797   6.777  0.1759  0.7975  0.3084
  732MOL0     C98704  11.046   3.723   6.701 -0.6923 -0.7103 -0.2578
  732MOL0     C98705  11.078   3.639   6.590 -0.0286  0.3492  0.9371
  732MOL0     C98706  11.081   3.720   6.457 -0.2880 -0.2063  0.2660
  732MOL0     C98707  11.205   3.799   6.441  0.2590  0.7591 -0.0739
  732MOL0     C98708  11.177   3.912   6.347  0.4997 -0.5828  0.0586
  732MOL0     O98709  11.282   4.010   6.338 -0.5914  0.2245  0.1815
  732MOL0     C98710  11.369   4.009   6.233  0.2830  1.2361 -0.6972
  732MOL0     C98711  11.446   4.119   6.233  0.2359  0.5302  0.4319
  732MOL0     C98712  11.536   4.143   6.132  0.8386  0.2509 -0.3329
  732MOL0     C98713  11.568   4.044   6.029 -0.2708  0.8708 -0.4831
  732MOL0     C98714  11.659   4.081   5.923 -0.4804  0.5256 -0.3498
  732MOL0     O98715  11.688   4.212   5.915  0.1165  0.2331  0.2533
  732MOL0     C98716  11.762   4.240   5.800 -0.2597 -0.1542  0.6783
  732MOL0     C98717  11.898   4.230   5.817 -0.1683 -0.2676  0.6252
  732MOL0     C98718  11.989   4.270   5.712  0.0283 -0.1805  0.5127
  732MOL0     C98719  11.929   4.315   5.588 -0.8694  0.8730  0.3691
  732MOL0     O98720  12.016   4.338   5.483  0.2542 -0.2187 -0.4959
  732MOL0     C98721  12.117   4.243   5.452 -0.8747  1.0588 -0.7055
  732MOL0     C98722  12.206   4.284   5.335 -0.0077  0.9344  0.8821
  732MOL0     C98723  12.129   4.322   5.199 -0.5751  0.6316  0.2313
  732MOL0     C98724  12.044   4.199   5.154  0.5738 -1.0320 -0.7532
  732MOL0     C98725  12.020   4.217   5.009  0.6928  0.6792  1.2577
  732MOL0     C98726  11.960   4.091   4.943  0.9484 -0.1692 -0.0462
  732MOL0     C98727  12.011   4.058   4.805  0.7869 -0.0550  0.5229
  732MOL0     C98728  11.910   4.060   4.690  0.6188  0.0707  0.1197
  732MOL0    Cl98729  11.972   4.013   4.524 -0.6079 -0.2686  0.3047
  732MOL0     C98730  11.790   4.325   5.578  0.3466  1.1065 -0.7046
  732MOL0     C98731  11.710   4.310   5.689  0.0133  0.5139 -0.0272
  732MOL0     O98732  11.706   3.992   5.857  0.8169  1.1190  0.3427
  732MOL0     C98733  11.493   3.928   6.036  0.6455  0.9391  0.0203
  732MOL0     C98734  11.387   3.910   6.131  0.3714  0.5202  0.1143
  732MOL0     N98735  10.921   3.744   6.768  0.2619  0.6644  0.3747
  732MOL0     N98736  10.926   3.805   6.876 -0.6591 -0.1170 -0.3038
  732MOL0     C98737  11.495   3.236   6.973 -0.7151 -0.3350  1.1076
  732MOL0     C98738  11.484   3.245   6.827  0.8557  0.4757 -0.9325
  732MOL0     C98739  11.470   3.364   6.405 -0.1183  0.5676 -0.2230
  732MOL0     C98740  11.502   3.507   6.408 -0.1183  0.2796  0.7562
  732MOL0     C98741  11.544   3.571   6.291  0.7285  0.6083  0.4014
  732MOL0     C98742  11.537   3.500   6.167  1.0916  0.1758  0.3410
  732MOL0     O98743  11.576   3.576   6.061  0.3707 -0.0480  0.1184
  732MOL0     C98744  11.519   3.550   5.937  0.2998  0.1021  0.6711
  732MOL0     C98745  11.607   3.593   5.821 -0.1009 -1.2309  0.2634
  732MOL0     C98746  11.554   3.545   5.681  0.1040 -0.7190  1.3350
  732MOL0     C98747  11.563   3.662   5.571  0.4656 -0.4417 -0.2466
  732MOL0     C98748  11.445   3.751   5.587 -0.7187  0.0208  0.6714
  732MOL0     C98749  11.359   3.838   5.594 -0.3017  0.1840  0.3894
  732MOL0     C98750  11.521   3.363   6.165 -0.1179 -0.0890  0.5316
  732MOL0     C98751  11.487   3.287   6.286 -0.2748 -0.1469  1.1994
  732MOL0     C98752  11.462   3.143   6.269  0.4367 -0.1742  0.2446
  732MOL0     H98753  11.191   3.399   6.797 -0.1057 -0.0002  0.5128
  732MOL0     H98754  11.187   3.354   7.029  0.3495  0.6833 -0.2653
  732MOL0     H98755  11.546   3.193   7.284  0.9661  0.5161 -0.8465
  732MOL0     H98756  11.583   3.340   7.190 -1.8905  2.5863  0.2080
  732MOL0     H98757  11.572   3.344   7.444  1.0942 -0.9169 -0.4873
  732MOL0     H98758  11.396   3.320   7.415  0.2159  0.5934  1.3304
  732MOL0     H98759  11.553   3.560   7.322 -0.1259 -0.7930 -0.0903
  732MOL0     H98760  11.418   3.568   7.440  1.7494 -0.3533  1.7566
  732MOL0     H98761  11.393   3.514   7.145 -1.9233  3.2200 -2.6275
  732MOL0     H98762  11.264   3.503   7.267  1.7085 -0.9648  0.2784
  732MOL0     H98763  11.275   3.729   7.322 -1.7922 -2.0829  0.0923
  732MOL0     H98764  11.421   3.771   7.250 -0.5856 -0.5968  4.8676
  732MOL0     H98765  11.325   3.778   7.030 -0.3582  0.3960  0.3490
  732MOL0     H98766  11.205   3.644   7.073  1.4710 -2.2752  2.5239
  732MOL0     H98767  11.178   3.894   7.209 -1.6874 -1.4142  0.7817
  732MOL0     H98768  11.058   3.783   7.137 -0.0700  0.0732 -1.2210
  732MOL0     H98769  11.037   4.000   7.026  1.4363  2.9203 -1.5267
  732MOL0     H98770  11.204   3.968   6.956  0.9321 -3.1763 -0.1459
  732MOL0     H98771  11.238   3.817   6.762  0.4767 -0.7472  0.1545
  732MOL0     H98772  11.169   3.580   6.605  1.3113  2.1256  0.1568
  732MOL0     H98773  10.998   3.564   6.586  0.2838 -0.0015 -2.5527
  732MOL0     H98774  11.073   3.647   6.377  2.5510 -1.0291  0.6210
  732MOL0     H98775  10.985   3.772   6.453 -1.4974 -2.3511 -0.0510
  732MOL0     H98776  11.282   3.741   6.389  1.3357  2.5894 -0.6097
  732MOL0     H98777  11.238   3.851   6.531 -1.2156  1.8447 -0.1213
  732MOL0     H98778  11.105   3.975   6.400  0.2969 -0.2182 -0.6377
  732MOL0     H98779  11.133   3.886   6.250  0.9538  0.9616 -0.6017
  732MOL0     H98780  11.440   4.185   6.319  4.0165  2.0279 -0.2673
  732MOL0     H98781  11.598   4.233   6.133  1.9866 -0.4655 -1.9375
  732MOL0     H98782  11.932   4.193   5.913 -2.4846 -2.1906  0.8181
  732MOL0     H98783  12.095   4.260   5.729 -0.0260 -3.9094 -0.3528
  732MOL0     H98784  12.186   4.231   5.536 -3.6108 -1.4162  1.4032
  732MOL0     H98785  12.084   4.141   5.432 -1.0209  0.9348  0.1304
  732MOL0     H98786  12.253   4.377   5.368 -0.8718  1.4153  0.7860
  732MOL0     H98787  12.276   4.201   5.321 -0.8437  0.3594 -0.0049
  732MOL0     H98788  12.063   4.410   5.205 -1.4616  0.1585 -1.7579
  732MOL0     H98789  12.210   4.339   5.128 -0.8407  3.1245  0.4272
  732MOL0     H98790  11.949   4.202   5.208  0.7546  3.3067 -0.2879
  732MOL0     H98791  12.106   4.114   5.184  0.3635 -0.6918  0.7295
  732MOL0     H98792  12.108   4.248   4.953 -0.1395  0.6232 -0.1407
  732MOL0     H98793  11.959   4.300   4.971  2.1978  0.7917 -1.0964
  732MOL0     H98794  11.991   4.005   5.002  2.3341 -0.2839 -0.9083
  732MOL0     H98795  11.850   4.094   4.941  0.9035 -0.3593  1.4848
  732MOL0     H98796  12.037   3.952   4.793 -0.6594 -0.4101  0.3441
  732MOL0     H98797  12.097   4.119   4.775  0.9679 -0.6855 -0.2696
  732MOL0     H98798  11.818   4.006   4.713  1.5501 -1.8809 -0.4997
  732MOL0     H98799  11.891   4.166   4.671  0.9368  0.1063 -0.0104
  732MOL0     H98800  11.740   4.359   5.488  1.6056  2.8313 -0.8190
  732MOL0     H98801  11.603   4.313   5.676  0.1762 -1.9264 -3.0304
  732MOL0     H98802  11.503   3.849   5.962  0.8272  0.3931  0.6160
  732MOL0     H98803  11.343   3.810   6.132  0.9314  0.2241  2.6114
  732MOL0     H98804  11.580   3.176   7.004 -1.9371 -1.5599  2.1989
  732MOL0     H98805  11.569   3.222   6.765 -0.2343  3.6246 -3.9145
  732MOL0     H98806  11.504   3.559   6.503  2.0605  1.9261 -0.1238
  732MOL0     H98807  11.573   3.676   6.300  2.2231  0.2427  0.2083
  732MOL0     H98808  11.422   3.600   5.933  0.0896 -0.3509 -0.4467
  732MOL0     H98809  11.490   3.445   5.923 -2.1534  0.5645  1.8286
  732MOL0     H98810  11.707   3.559   5.848  0.0483 -0.7839  0.2800
  732MOL0     H98811  11.596   3.702   5.820 -3.6747 -1.4530 -0.3570
  732MOL0     H98812  11.461   3.486   5.678 -0.0191 -0.5505  1.7978
  732MOL0     H98813  11.628   3.469   5.654  0.7004 -1.3071  4.2903
  732MOL0     H98814  11.658   3.712   5.550  0.9050 -2.1634 -2.9352
  732MOL0     H98815  11.548   3.615   5.474  1.2137  0.8776 -1.0264
  732MOL0     H98816  11.286   3.915   5.606 -3.7172 -2.6068 -0.6702
  732MOL0     H98817  11.542   3.311   6.073  0.5801  2.9160 -1.1471
  732MOL0     H98818  11.443   3.121   6.163  1.4572  1.0215 -0.2230
  732MOL0     H98819  11.548   3.083   6.299 -0.5993 -2.1172 -0.5378
  732MOL0     H98820  11.376   3.107   6.326  0.4632  2.1690  1.8942
  733MOL0     O98821  11.131   7.244   3.578  0.6832 -0.0142  0.3446
  733MOL0     C98822  11.138   7.351   3.520 -1.4726  0.3930  0.9702
  733MOL0     O98823  11.038   7.429   3.467  0.9881 -0.5594  0.1723
  733MOL0     C98824  10.904   7.379   3.485 -0.5666 -1.0317  0.5687
  733MOL0     C98825  10.819   7.395   3.378  0.5675 -0.0043  0.1609
  733MOL0     C98826  10.699   7.322   3.375 -0.1929  0.1429 -0.4696
  733MOL0     C98827  10.652   7.252   3.480 -0.2015 -0.0165 -0.2358
  733MOL0     O98828  10.529   7.207   3.475  0.8602  0.1411  0.0513
  733MOL0     C98829  10.501   7.093   3.556  0.9091 -0.0878 -0.5976
  733MOL0     C98830  10.376   7.041   3.511  0.0756 -1.1498  0.1909
  733MOL0     C98831  10.365   6.901   3.565  0.4357  0.2498 -0.1584
  733MOL0     C98832  10.222   6.825   3.545 -0.2712 -0.1168 -0.7675
  733MOL0     C98833  10.228   6.686   3.616 -0.9380 -0.6117  1.1149
  733MOL0     C98834  10.092   6.631   3.613  0.3442  0.6260 -0.3662
  733MOL0     C98835  10.097   6.514   3.710  0.5012  0.0577 -0.2260
  733MOL0     C98836   9.996   6.416   3.664 -0.1152 -0.0098  1.0081
  733MOL0     N98837   9.854   6.468   3.656  0.1426  0.7378 -0.2533
  733MOL0     C98838   9.792   6.519   3.762  0.0996 -1.1263  0.4067
  733MOL0     C98839   9.696   6.597   3.703 -0.5005 -0.9669  0.1460
  733MOL0     C98840   9.608   6.706   3.755 -0.1741 -0.3815  0.3949
  733MOL0     C98841   9.459   6.695   3.696 -0.0547 -0.2791 -0.5557
  733MOL0     C98842   9.357   6.792   3.771 -0.2704 -0.3927  0.0587
  733MOL0     C98843   9.217   6.754   3.739  0.1561 -0.1112 -0.2547
  733MOL0     O98844   9.137   6.750   3.867 -0.9134 -0.8303  0.6177
  733MOL0     C98845   9.091   6.867   3.923 -0.2983 -0.7370  0.5047
  733MOL0     C98846   9.034   6.860   4.047 -0.7428 -0.4146  0.6128
  733MOL0     C98847   8.987   6.972   4.113  0.2076  0.5845 -0.1772
  733MOL0     C98848   8.997   7.098   4.041 -0.0181 -0.2476  0.4430
  733MOL0     C98849   8.961   7.217   4.112  0.0419  1.1729  0.9385
  733MOL0     O98850   8.995   7.341   4.060  0.7479 -0.1082  0.2237
  733MOL0     C98851   8.951   7.452   4.125 -0.7119 -0.0886 -0.0297
  733MOL0     C98852   8.979   7.475   4.258 -0.1148 -0.3094  0.2185
  733MOL0     C98853   8.950   7.592   4.326 -0.7895 -0.9280 -0.8850
  733MOL0     C98854   8.888   7.695   4.250 -0.9406 -0.0814  0.4664
  733MOL0     O98855   8.846   7.814   4.299 -0.3729 -0.4967 -0.2457
  733MOL0     C98856   8.805   7.818   4.439 -0.2770 -0.0513  0.2639
  733MOL0     C98857   8.704   7.929   4.456 -0.0601 -0.8273  0.7817
  733MOL0     C98858   8.582   7.900   4.368 -0.2598  1.0190  0.5851
  733MOL0     C98859   8.466   7.989   4.417 -1.3659 -0.8021  0.2777
  733MOL0     C98860   8.330   7.965   4.363 -0.9601  1.3955 -0.1729
  733MOL0     C98861   8.233   8.058   4.424  0.6564 -0.3033  0.4862
  733MOL0     C98862   8.094   8.018   4.394  0.1572 -0.0196  0.1801
  733MOL0     C98863   8.035   8.048   4.252 -1.0650 -0.3869 -0.3834
  733MOL0    Cl98864   7.915   8.178   4.273  0.4029 -0.1722 -0.4804
  733MOL0     C98865   8.875   7.678   4.120 -0.3621  0.1919  0.1225
  733MOL0     C98866   8.894   7.559   4.051  0.5753 -0.4558  1.3222
  733MOL0     O98867   8.901   7.202   4.221  0.1355 -1.1724  0.1811
  733MOL0     C98868   9.046   7.105   3.915  0.1782  0.3102  0.3186
  733MOL0     C98869   9.101   6.990   3.856  0.5629  1.1003  0.9430
  733MOL0     N98870   9.693   6.584   3.569 -0.9061 -0.4203 -0.8043
  733MOL0     N98871   9.787   6.502   3.543 -0.3314 -0.0012  0.5842
  733MOL0     C98872  10.721   7.265   3.607 -1.0174  0.5691 -0.7197
  733MOL0     C98873  10.853   7.323   3.599  0.5085 -0.8651 -0.2457
  733MOL0     C98874  11.274   7.395   3.485  1.0022 -0.5944  0.4293
  733MOL0     C98875  11.277   7.516   3.417 -0.2333 -0.2099 -0.5328
  733MOL0     C98876  11.394   7.575   3.383 -0.0627 -0.7707 -0.1567
  733MOL0     C98877  11.510   7.514   3.421 -0.0563  0.3434  0.7903
  733MOL0     O98878  11.609   7.584   3.364 -0.1783  0.2923 -0.9117
  733MOL0     C98879  11.743   7.544   3.376  0.5592  0.5437  0.1546
  733MOL0     C98880  11.835   7.669   3.359  0.9838 -1.1064 -0.2747
  733MOL0     C98881  11.985   7.642   3.366  0.7601 -0.1105 -0.4460
  733MOL0     C98882  12.079   7.764   3.320  0.0762  0.7559  0.3713
  733MOL0     C98883  12.072   7.871   3.414 -0.8263  0.0924  0.4078
  733MOL0     C98884  12.046   7.958   3.494  0.9812  0.2872  0.2037
  733MOL0     C98885  11.517   7.394   3.480 -0.4217 -0.2771  0.0243
  733MOL0     C98886  11.394   7.336   3.524  0.3614 -0.6123  1.1227
  733MOL0     C98887  11.412   7.202   3.595  0.1641 -0.3815  0.2980
  733MOL0     H98888  10.855   7.459   3.298  3.5306  0.0603  1.4204
  733MOL0     H98889  10.648   7.318   3.279  1.4150 -3.2064 -1.3334
  733MOL0     H98890  10.578   7.024   3.520  1.2778 -1.2385  2.1505
  733MOL0     H98891  10.502   7.108   3.664  0.9094  0.1913 -0.6364
  733MOL0     H98892  10.369   7.041   3.402 -1.9296  0.7256  0.2518
  733MOL0     H98893  10.289   7.095   3.551  0.7915 -0.8266  1.3436
  733MOL0     H98894  10.374   6.903   3.674  1.0160  1.6324 -0.2150
  733MOL0     H98895  10.440   6.838   3.517  1.6456 -0.1464  2.1071
  733MOL0     H98896  10.150   6.891   3.595  0.8513 -0.6456  1.7445
  733MOL0     H98897  10.191   6.805   3.443 -2.2543 -0.3804 -0.1611
  733MOL0     H98898  10.292   6.612   3.568 -1.2964  0.6488 -1.4841
  733MOL0     H98899  10.263   6.702   3.718  2.6555 -0.8638  0.0658
  733MOL0     H98900  10.023   6.704   3.655 -2.3151 -2.0484  0.2869
  733MOL0     H98901  10.057   6.598   3.515 -0.9305 -1.0511  0.5939
  733MOL0     H98902  10.077   6.541   3.814 -0.4457 -3.9443  0.8127
  733MOL0     H98903  10.190   6.456   3.716  0.7722  0.5229  0.1484
  733MOL0     H98904  10.031   6.385   3.565  1.3080 -1.1751  1.8426
  733MOL0     H98905  10.008   6.329   3.729  0.3454 -0.4457  0.3524
  733MOL0     H98906   9.813   6.515   3.869 -0.0407 -1.2463  0.4306
  733MOL0     H98907   9.623   6.706   3.863 -1.8002 -2.4197  0.6951
  733MOL0     H98908   9.634   6.803   3.713  0.5783 -1.4006 -1.6142
  733MOL0     H98909   9.462   6.715   3.589 -0.4807 -0.0982 -0.5345
  733MOL0     H98910   9.431   6.592   3.719  0.3887 -0.0463  1.1347
  733MOL0     H98911   9.374   6.897   3.744  2.6499 -0.1868  2.1430
  733MOL0     H98912   9.382   6.782   3.877 -2.1987 -2.9961  0.3441
  733MOL0     H98913   9.215   6.650   3.704 -0.8044 -0.8602  1.8406
  733MOL0     H98914   9.177   6.813   3.656  1.4392 -0.3138 -1.0480
  733MOL0     H98915   9.029   6.766   4.102 -5.6076 -1.8082 -1.5848
  733MOL0     H98916   8.976   6.968   4.221  2.4425  0.1834  0.0862
  733MOL0     H98917   9.037   7.399   4.309 -0.3198 -1.1436 -0.7575
  733MOL0     H98918   8.962   7.606   4.433 -2.4683  2.3944 -1.0289
  733MOL0     H98919   8.753   7.726   4.470 -1.1909  0.2583 -0.3066
  733MOL0     H98920   8.889   7.833   4.507  0.3846 -1.3327 -0.2392
  733MOL0     H98921   8.677   7.924   4.562  0.4724 -0.9971  0.9132
  733MOL0     H98922   8.737   8.028   4.424  1.2663 -1.3074  0.6004
  733MOL0     H98923   8.606   7.894   4.262  0.2649  0.7144  0.7165
  733MOL0     H98924   8.563   7.797   4.400  3.5136  0.2337  0.7434
  733MOL0     H98925   8.489   8.095   4.403  1.4319 -1.1754  1.3473
  733MOL0     H98926   8.459   7.990   4.526 -1.8091  2.6302  0.3253
  733MOL0     H98927   8.312   7.860   4.388 -1.3336  1.3779 -0.5075
  733MOL0     H98928   8.333   7.959   4.254  0.1870  1.2268 -0.1498
  733MOL0     H98929   8.239   8.060   4.534 -2.1496 -1.7303  0.7498
  733MOL0     H98930   8.246   8.159   4.383  1.3886 -0.1830  0.9880
  733MOL0     H98931   8.027   8.074   4.460 -1.8530 -0.6217 -1.2577
  733MOL0     H98932   8.088   7.911   4.419  1.4981 -0.1083  0.2277
  733MOL0     H98933   8.118   8.074   4.186 -0.1892 -4.8424 -1.3633
  733MOL0     H98934   7.993   7.959   4.204 -1.4820  1.5091 -3.8884
  733MOL0     H98935   8.829   7.759   4.064 -0.7644 -0.6057 -0.7328
  733MOL0     H98936   8.879   7.540   3.945  2.0165  0.8958  0.8340
  733MOL0     H98937   9.047   7.202   3.867 -3.1075  1.5108  2.3614
  733MOL0     H98938   9.147   6.998   3.758 -1.0488  3.5158  0.3096
  733MOL0     H98939  10.686   7.243   3.707  2.4813  3.5776  1.4107
  733MOL0     H98940  10.902   7.336   3.695 -0.0299 -1.3483  0.1044
  733MOL0     H98941  11.188   7.571   3.389  0.0249  1.4991  1.6966
  733MOL0     H98942  11.378   7.672   3.337 -0.9723 -1.8281 -2.1788
  733MOL0     H98943  11.777   7.451   3.329  1.2354  1.1631 -0.6210
  733MOL0     H98944  11.754   7.520   3.482 -6.8563 -1.1328  1.0424
  733MOL0     H98945  11.811   7.748   3.430  0.9935 -2.4946  1.3443
  733MOL0     H98946  11.812   7.700   3.256  1.8650  0.4764 -0.0313
  733MOL0     H98947  11.992   7.553   3.303 -0.8469 -1.2916  0.9329
  733MOL0     H98948  12.016   7.615   3.468  1.8022 -2.0026 -1.2164
  733MOL0     H98949  12.183   7.736   3.306  0.1257  0.2756  1.5892
  733MOL0     H98950  12.053   7.790   3.217  4.3418  1.2912 -0.7336
  733MOL0     H98951  12.027   8.043   3.557  2.5783  0.8789 -0.0855
  733MOL0     H98952  11.614   7.347   3.496 -0.0381  0.3671 -0.4043
  733MOL0     H98953  11.516   7.170   3.583  1.4126  2.9173  1.3068
  733MOL0     H98954  11.386   7.212   3.701  0.2467 -2.3697  0.5528
  733MOL0     H98955  11.346   7.135   3.539 -0.0296  0.3722 -0.3958
  734MOL0     O98956   6.199   2.993   5.566  0.0253  0.3085 -0.4211
  734MOL0     C98957   6.130   3.025   5.665  0.3882  0.3613 -0.7075
  734MOL0     O98958   6.160   2.997   5.792 -0.1159  0.9788 -0.8384
  734MOL0     C98959   6.268   2.929   5.823  0.8999  0.2188 -0.1851
  734MOL0     C98960   6.308   2.812   5.771 -0.0292  0.0111 -0.0656
  734MOL0     C98961   6.415   2.732   5.822 -0.2225  0.7554 -0.2312
  734MOL0     C98962   6.493   2.782   5.932  0.0445 -0.1315  1.1649
  734MOL0     O98963   6.596   2.697   5.967 -0.2382  0.1636 -1.1862
  734MOL0     C98964   6.675   2.728   6.080 -0.4690  0.6465  0.1358
  734MOL0     C98965   6.798   2.634   6.079 -0.6979  0.0503  0.4281
  734MOL0     C98966   6.751   2.490   6.099  1.4186 -0.4114  1.4318
  734MOL0     C98967   6.865   2.397   6.150 -0.3902  0.5742  0.6656
  734MOL0     C98968   6.876   2.402   6.312 -0.0244  0.8955  0.9691
  734MOL0     C98969   6.948   2.282   6.383  1.3719  0.1310  0.2557
  734MOL0     C98970   7.097   2.256   6.339  0.0726 -0.2795  0.3374
  734MOL0     C98971   7.168   2.143   6.406  0.4906  0.5257  0.3737
  734MOL0     N98972   7.190   2.162   6.549  0.3581  0.9114 -0.3520
  734MOL0     C98973   7.267   2.264   6.605  0.4906  0.5931 -0.5067
  734MOL0     C98974   7.239   2.251   6.741 -0.2669 -0.0432  0.0784
  734MOL0     C98975   7.294   2.347   6.842 -0.0373  0.2143 -0.2424
  734MOL0     C98976   7.212   2.477   6.836  0.9538 -0.2850 -0.0748
  734MOL0     C98977   7.190   2.559   6.955 -0.0013 -0.3472 -0.1618
  734MOL0     C98978   7.059   2.517   7.025 -0.1408  0.2687  0.3949
  734MOL0     O98979   7.033   2.583   7.150  0.8929  0.3355  1.7130
  734MOL0     C98980   7.089   2.546   7.257  1.5644 -0.1399 -0.8824
  734MOL0     C98981   7.173   2.433   7.278 -0.4933 -0.0554 -0.6712
  734MOL0     C98982   7.240   2.422   7.398 -0.0742  0.2631 -0.2381
  734MOL0     C98983   7.224   2.509   7.512  0.1034  1.1753 -0.4343
  734MOL0     C98984   7.306   2.494   7.635 -0.2687  0.0325  0.5085
  734MOL0     O98985   7.372   2.380   7.653  0.1396 -0.2868 -0.6346
  734MOL0     C98986   7.453   2.363   7.761 -0.1956  0.0609  0.7239
  734MOL0     C98987   7.401   2.363   7.890  0.1964  0.6930  0.5422
  734MOL0     C98988   7.487   2.339   7.995  0.8438 -0.4625  0.2178
  734MOL0     C98989   7.616   2.300   7.982  0.5144  0.1643  0.6269
  734MOL0     O98990   7.691   2.267   8.096 -1.1522 -0.5318 -0.1286
  734MOL0     C98991   7.628   2.189   8.201  0.3483  0.7660  1.5358
  734MOL0     C98992   7.597   2.039   8.174 -0.1513  0.3268 -0.8705
  734MOL0     C98993   7.543   1.953   8.287  1.2545 -0.8529  1.4118
  734MOL0     C98994   7.560   1.806   8.233 -0.4755 -0.8003 -0.7341
  734MOL0     C98995   7.492   1.707   8.323 -0.5209  0.6788  0.9193
  734MOL0     C98996   7.535   1.697   8.462  0.0687 -0.0776 -0.4879
  734MOL0     C98997   7.494   1.572   8.544 -0.4150 -0.4390  0.9747
  734MOL0     C98998   7.347   1.551   8.579  0.2980  0.8215 -0.4766
  734MOL0    Cl98999   7.244   1.557   8.433 -0.2459 -0.1496  0.1353
  734MOL0     C99000   7.667   2.295   7.846  0.4765  0.4259 -0.2751
  734MOL0     C99001   7.584   2.335   7.738 -1.2561 -0.5230  0.3449
  734MOL0     O99002   7.311   2.587   7.718 -0.2419 -0.4013  0.1592
  734MOL0     C99003   7.130   2.611   7.492  0.1820  0.5080 -0.7437
  734MOL0     C99004   7.059   2.631   7.372 -0.7169  0.6534  0.2410
  734MOL0     N99005   7.153   2.147   6.763 -0.6147  0.0449  0.2524
  734MOL0     N99006   7.122   2.096   6.646 -0.8311 -0.6873 -0.2947
  734MOL0     C99007   6.458   2.906   5.979  1.1654 -0.6944  0.6531
  734MOL0     C99008   6.346   2.974   5.926 -0.1371 -0.3378 -0.5650
  734MOL0     C99009   6.001   3.085   5.640  0.4142  0.4377 -0.0607
  734MOL0     C99010   5.915   3.122   5.752 -0.3877  0.2858  0.1667
  734MOL0     C99011   5.802   3.196   5.742 -0.0869 -0.5967 -0.9059
  734MOL0     C99012   5.755   3.238   5.610  0.0102  0.5122  0.1913
  734MOL0     O99013   5.638   3.300   5.583 -0.0232 -0.5282 -0.0287
  734MOL0     C99014   5.526   3.280   5.669  0.2067  0.3237  0.2440
  734MOL0     C99015   5.440   3.167   5.608 -0.2301  0.0346  0.0258
  734MOL0     C99016   5.342   3.102   5.700  0.3312  0.6993 -0.6448
  734MOL0     C99017   5.245   3.193   5.781 -0.8183  0.5229  0.4553
  734MOL0     C99018   5.139   3.111   5.843  0.1355 -0.4731  0.2220
  734MOL0     C99019   5.060   3.039   5.900  0.3845  0.4521  0.0591
  734MOL0     C99020   5.829   3.195   5.498 -0.5934 -0.8105 -0.1972
  734MOL0     C99021   5.950   3.117   5.509 -0.5955  0.1895 -0.1841
  734MOL0     C99022   6.016   3.093   5.376 -0.9280 -0.0870 -0.5143
  734MOL0     H99023   6.257   2.779   5.681  4.0736  0.0760 -2.6548
  734MOL0     H99024   6.437   2.636   5.776 -1.3907  0.0613  0.6033
  734MOL0     H99025   6.719   2.828   6.066  1.5145 -0.2483 -0.3604
  734MOL0     H99026   6.632   2.738   6.180 -1.9963  0.4777 -0.4695
  734MOL0     H99027   6.878   2.675   6.142 -0.5685 -3.0962  2.5034
  734MOL0     H99028   6.839   2.628   5.978 -0.4851 -2.9803  0.6190
  734MOL0     H99029   6.709   2.438   6.012 -2.4601  4.4935 -0.0889
  734MOL0     H99030   6.668   2.491   6.171 -2.9481 -0.0917 -3.0730
  734MOL0     H99031   6.826   2.299   6.119 -5.7618  2.3987  0.5117
  734MOL0     H99032   6.963   2.412   6.105 -0.7424  0.7228 -0.0777
  734MOL0     H99033   6.920   2.498   6.340  1.8371  0.7680 -1.2158
  734MOL0     H99034   6.774   2.400   6.350 -0.7212  2.1019 -0.7000
  734MOL0     H99035   6.949   2.307   6.490  4.1479  0.2988  0.2670
  734MOL0     H99036   6.898   2.187   6.364  2.9654 -0.8731  0.8047
  734MOL0     H99037   7.151   2.349   6.358 -0.4075  0.4086 -1.4306
  734MOL0     H99038   7.094   2.229   6.233  0.5582 -1.9393  0.7087
  734MOL0     H99039   7.116   2.049   6.385  0.2145  1.4406 -4.1489
  734MOL0     H99040   7.268   2.129   6.364 -0.2569  1.8825 -2.0667
  734MOL0     H99041   7.333   2.341   6.567  2.0970  0.7834  2.4268
  734MOL0     H99042   7.285   2.303   6.942 -0.6989  1.2140  0.1575
  734MOL0     H99043   7.403   2.355   6.846  0.2996 -3.1889  1.2015
  734MOL0     H99044   7.271   2.543   6.772 -2.8529  3.0261 -0.6062
  734MOL0     H99045   7.116   2.466   6.783  1.0749  0.2863 -0.4184
  734MOL0     H99046   7.206   2.664   6.929  1.1443 -0.1911  1.0514
  734MOL0     H99047   7.272   2.535   7.024  0.7831  1.3868 -0.4398
  734MOL0     H99048   7.068   2.409   7.034  2.1797  0.3184 -0.6938
  734MOL0     H99049   6.979   2.550   6.958  0.4891  2.5101  0.6749
  734MOL0     H99050   7.191   2.353   7.206 -0.3010 -2.2820  1.7142
  734MOL0     H99051   7.308   2.337   7.399 -1.5264 -0.9685 -0.7679
  734MOL0     H99052   7.296   2.373   7.915  0.0852  0.4278  0.1917
  734MOL0     H99053   7.445   2.354   8.094 -0.8990 -0.1907 -0.5255
  734MOL0     H99054   7.684   2.194   8.295  1.4507 -3.8096  1.3580
  734MOL0     H99055   7.528   2.231   8.216  0.4029  1.7866 -0.6259
  734MOL0     H99056   7.532   2.040   8.086  0.3411 -2.1351 -1.3323
  734MOL0     H99057   7.690   1.986   8.151 -0.0530  0.4049 -0.6541
  734MOL0     H99058   7.607   1.962   8.375  0.9312  0.8408  1.5027
  734MOL0     H99059   7.437   1.978   8.298  0.7998 -2.4273  0.9605
  734MOL0     H99060   7.666   1.783   8.229  0.4436  2.7877 -0.5432
  734MOL0     H99061   7.517   1.800   8.132  0.1912  0.1254 -1.0910
  734MOL0     H99062   7.499   1.607   8.278  2.6900  0.4424  1.7020
  734MOL0     H99063   7.385   1.726   8.324 -0.3359  2.0950 -0.8070
  734MOL0     H99064   7.641   1.724   8.472 -0.1316  1.0978 -1.3539
  734MOL0     H99065   7.488   1.780   8.516  0.4815 -1.1135  1.5521
  734MOL0     H99066   7.556   1.574   8.634  2.5603 -2.6841 -0.8081
  734MOL0     H99067   7.523   1.480   8.491 -4.1342  0.3946 -3.0787
  734MOL0     H99068   7.336   1.449   8.619  0.6338  0.7108 -0.6695
  734MOL0     H99069   7.325   1.618   8.663  4.0193  0.8885  0.6295
  734MOL0     H99070   7.768   2.261   7.826  0.1304  0.1612 -1.6471
  734MOL0     H99071   7.612   2.325   7.634 -0.9838 -1.1302  0.4727
  734MOL0     H99072   7.117   2.673   7.581  1.9683 -2.5958  1.9189
  734MOL0     H99073   6.989   2.713   7.358 -3.4740 -1.3247  1.3940
  734MOL0     H99074   6.510   2.944   6.066  3.5915 -1.7923 -0.2176
  734MOL0     H99075   6.330   3.062   5.987 -1.8567 -2.8820  3.0075
  734MOL0     H99076   5.950   3.083   5.848  1.9106 -2.0113 -1.4689
  734MOL0     H99077   5.750   3.219   5.835 -1.4190  0.4622 -1.8529
  734MOL0     H99078   5.469   3.373   5.676  1.7882  1.3089  0.5603
  734MOL0     H99079   5.554   3.248   5.770 -3.6554 -1.5509  0.8933
  734MOL0     H99080   5.500   3.081   5.578 -1.3739 -0.8033  0.0916
  734MOL0     H99081   5.393   3.209   5.518  0.3504  0.8273  0.0765
  734MOL0     H99082   5.391   3.042   5.777 -0.6559 -0.4058 -0.8436
  734MOL0     H99083   5.291   3.023   5.643 -1.6277  0.3052  1.5120
  734MOL0     H99084   5.301   3.251   5.854  1.7040  0.0364 -1.0037
  734MOL0     H99085   5.208   3.269   5.712 -3.6583 -1.0615  0.0467
  734MOL0     H99086   4.989   2.967   5.935 -1.7611 -0.2605 -4.8977
  734MOL0     H99087   5.780   3.227   5.407 -1.7459  0.1440  0.7275
  734MOL0     H99088   5.956   3.121   5.290 -0.3606 -0.6618 -1.1111
  734MOL0     H99089   6.109   3.150   5.379 -0.4700 -0.5736 -3.1886
  734MOL0     H99090   6.046   2.989   5.356 -2.4006 -0.5524 -0.3932
  735MOL0     O99091   1.604   8.603   6.680  1.0109 -0.0735  0.8533
  735MOL0     C99092   1.726   8.601   6.670  0.3666  0.2598  0.2142
  735MOL0     O99093   1.809   8.581   6.765 -0.3219  0.6369 -0.0491
  735MOL0     C99094   1.752   8.570   6.893 -0.8551  1.0830  0.1010
  735MOL0     C99095   1.778   8.659   6.999  0.0443 -0.8858  0.1160
  735MOL0     C99096   1.733   8.650   7.123  0.9170  0.8060  0.6586
  735MOL0     C99097   1.662   8.532   7.151 -0.4262 -0.3356  0.6170
  735MOL0     O99098   1.603   8.530   7.275 -1.2791 -0.1541 -0.4889
  735MOL0     C99099   1.568   8.401   7.324  0.6053 -0.0591  0.4490
  735MOL0     C99100   1.503   8.433   7.461 -0.0981  0.3170 -0.5596
  735MOL0     C99101   1.619   8.471   7.563  0.0026  0.8529 -0.3609
  735MOL0     C99102   1.582   8.575   7.667  0.5546 -0.9309  0.5301
  735MOL0     C99103   1.482   8.516   7.783 -0.5217 -0.4357 -0.2163
  735MOL0     C99104   1.451   8.608   7.904 -0.3262 -0.5707  0.5001
  735MOL0     C99105   1.531   8.611   8.029 -0.2566  0.0411  0.1749
  735MOL0     C99106   1.620   8.484   8.046 -0.7825  0.2114  0.3436
  735MOL0     N99107   1.713   8.484   8.162  0.1437 -0.3157 -0.4436
  735MOL0     C99108   1.850   8.511   8.162  0.4978 -1.2457 -0.0708
  735MOL0     C99109   1.888   8.482   8.284  0.4530  0.9236 -0.9427
  735MOL0     C99110   2.034   8.487   8.324  0.0227 -0.4907  0.6455
  735MOL0     C99111   2.057   8.597   8.434 -0.6260  0.6192 -0.1922
  735MOL0     C99112   2.203   8.596   8.472  0.2300  0.2893 -0.2541
  735MOL0     C99113   2.262   8.732   8.501 -0.1002 -0.1114 -0.4080
  735MOL0     O99114   2.265   8.821   8.396 -0.1014 -0.1167  0.5128
  735MOL0     C99115   2.325   8.776   8.279 -0.7332  0.0364  0.6681
  735MOL0     C99116   2.452   8.718   8.280 -1.1438  0.9357  0.0829
  735MOL0     C99117   2.515   8.672   8.164 -0.3374  0.5835  0.1173
  735MOL0     C99118   2.437   8.682   8.041  0.4495 -0.6743 -0.9842
  735MOL0     C99119   2.499   8.651   7.911  0.5204 -0.3117  0.7818
  735MOL0     O99120   2.410   8.647   7.806  0.0676  0.3903  0.1145
  735MOL0     C99121   2.454   8.611   7.679 -0.0125  0.4404 -0.6803
  735MOL0     C99122   2.450   8.473   7.635 -0.1548  0.4493 -1.0826
  735MOL0     C99123   2.502   8.426   7.509 -0.2536 -0.6890  0.2575
  735MOL0     C99124   2.556   8.520   7.419  0.3221  0.2426  0.1089
  735MOL0     O99125   2.600   8.498   7.286  0.1593 -0.3495 -0.5011
  735MOL0     C99126   2.578   8.367   7.229 -0.3402 -0.3424 -0.9582
  735MOL0     C99127   2.647   8.348   7.097 -0.2417  0.7045 -0.4877
  735MOL0     C99128   2.606   8.217   7.027 -0.4955 -0.9607  0.0749
  735MOL0     C99129   2.647   8.258   6.880  0.0365  0.0537 -0.7021
  735MOL0     C99130   2.618   8.153   6.769 -0.2616  0.1539  0.2477
  735MOL0     C99131   2.678   8.011   6.784 -0.6381  0.0798 -0.3676
  735MOL0     C99132   2.615   7.908   6.692 -0.2730 -0.4624  0.3599
  735MOL0     C99133   2.462   7.893   6.716 -0.8351  0.3387 -0.4593
  735MOL0    Cl99134   2.395   7.789   6.595 -0.0042  0.2079  0.6614
  735MOL0     C99135   2.565   8.654   7.462  0.6260 -0.3019  0.4887
  735MOL0     C99136   2.510   8.704   7.587  0.5313 -0.0775  0.0448
  735MOL0     O99137   2.623   8.640   7.901 -0.0543 -0.5517 -0.2978
  735MOL0     C99138   2.305   8.746   8.043  0.0592  0.1646 -0.7228
  735MOL0     C99139   2.253   8.793   8.158 -0.0322 -0.1399 -0.0399
  735MOL0     N99140   1.777   8.436   8.359 -0.9455  0.4302 -0.2139
  735MOL0     N99141   1.674   8.437   8.284  0.2171 -0.3320  0.3878
  735MOL0     C99142   1.641   8.433   7.051  0.5500 -0.1894 -0.2355
  735MOL0     C99143   1.700   8.440   6.931  0.1786 -0.6760  0.5384
  735MOL0     C99144   1.803   8.601   6.543  0.0534  1.1430  0.4203
  735MOL0     C99145   1.949   8.579   6.538  0.3572 -0.3072  0.0831
  735MOL0     C99146   2.027   8.587   6.427  0.1275  0.4518 -0.5690
  735MOL0     C99147   1.962   8.622   6.311 -0.0581 -0.5568  0.5747
  735MOL0     O99148   2.045   8.652   6.205 -0.1749  0.2518 -0.0104
  735MOL0     C99149   2.068   8.550   6.116  0.0717  0.5000 -0.1773
  735MOL0     C99150   2.183   8.568   6.012  0.1020  0.3066 -0.0434
  735MOL0     C99151   2.328   8.566   6.081  0.2858 -0.3445  0.4227
  735MOL0     C99152   2.409   8.693   6.061 -0.7872 -0.8947 -0.4525
  735MOL0     C99153   2.552   8.663   6.090  0.4058  1.1747 -0.3126
  735MOL0     C99154   2.672   8.650   6.111  0.6400 -0.9833  0.1208
  735MOL0     C99155   1.824   8.614   6.299 -0.8883  0.6334 -0.5105
  735MOL0     C99156   1.746   8.602   6.414 -0.0459  0.2304 -0.6998
  735MOL0     C99157   1.600   8.595   6.397  1.2621 -0.1565 -0.3387
  735MOL0     H99158   1.832   8.751   6.977  0.3075 -1.2703 -0.8678
  735MOL0     H99159   1.740   8.729   7.197 -0.5022  0.5113  1.1489
  735MOL0     H99160   1.499   8.348   7.257  3.8444 -1.0104 -2.4723
  735MOL0     H99161   1.642   8.320   7.315 -0.6593 -1.7554  3.6103
  735MOL0     H99162   1.442   8.350   7.498  0.4206 -1.6817 -3.8308
  735MOL0     H99163   1.442   8.520   7.434  1.6220  0.9016 -2.9499
  735MOL0     H99164   1.704   8.513   7.509 -0.9358  1.7525 -1.1854
  735MOL0     H99165   1.662   8.383   7.612 -3.1969 -0.5100  0.2479
  735MOL0     H99166   1.675   8.603   7.716  0.5647  0.6910 -0.3423
  735MOL0     H99167   1.536   8.657   7.610 -0.9255 -1.4692  0.9005
  735MOL0     H99168   1.387   8.495   7.733 -0.5557 -3.7499  0.9516
  735MOL0     H99169   1.514   8.420   7.826  0.5014  0.5594  1.3942
  735MOL0     H99170   1.446   8.711   7.868 -3.8350 -0.1142  1.9054
  735MOL0     H99171   1.346   8.586   7.921 -0.7531  0.5820 -0.5251
  735MOL0     H99172   1.475   8.625   8.122  0.9339  0.1793  0.8925
  735MOL0     H99173   1.598   8.698   8.034  3.7322 -2.5402 -2.4304
  735MOL0     H99174   1.562   8.391   8.052  2.3470 -1.8069  1.6690
  735MOL0     H99175   1.684   8.481   7.958 -1.8106  2.2318 -0.5517
  735MOL0     H99176   1.906   8.555   8.081 -2.4710 -1.7537 -2.5943
  735MOL0     H99177   2.065   8.392   8.369 -0.1913  0.1587  2.2309
  735MOL0     H99178   2.092   8.504   8.233  0.8397 -5.1995  0.0399
  735MOL0     H99179   2.043   8.695   8.388 -1.2244  1.9390  2.5896
  735MOL0     H99180   1.999   8.585   8.526 -1.6819 -2.0206 -1.1105
  735MOL0     H99181   2.254   8.537   8.396  0.4197  1.6255 -1.2035
  735MOL0     H99182   2.225   8.545   8.567 -0.4791  0.5212  0.0438
  735MOL0     H99183   2.358   8.721   8.552  0.1308 -2.7232 -1.2911
  735MOL0     H99184   2.206   8.775   8.585  2.0848  1.0285  0.5645
  735MOL0     H99185   2.503   8.713   8.375 -2.4461 -1.6756  0.7424
  735MOL0     H99186   2.614   8.628   8.168 -1.1464 -1.2692  2.5571
  735MOL0     H99187   2.405   8.405   7.707  0.8157 -0.7752 -1.5943
  735MOL0     H99188   2.497   8.319   7.490  0.2985 -1.1861  2.5833
  735MOL0     H99189   2.618   8.295   7.301 -0.0924  1.0107  0.3002
  735MOL0     H99190   2.472   8.346   7.211 -0.8610 -0.2631  1.5673
  735MOL0     H99191   2.626   8.443   7.047  0.7264  2.0253  1.4820
  735MOL0     H99192   2.752   8.328   7.122 -0.8845 -1.1254  1.0181
  735MOL0     H99193   2.654   8.131   7.075 -1.4958 -0.7129  1.5600
  735MOL0     H99194   2.497   8.207   7.032 -0.5565 -1.1831 -1.2332
  735MOL0     H99195   2.755   8.271   6.880 -0.0373  1.7483  2.5406
  735MOL0     H99196   2.608   8.353   6.844  0.4035 -0.1575 -1.6698
  735MOL0     H99197   2.643   8.189   6.669  1.3566  2.5312  1.4177
  735MOL0     H99198   2.510   8.141   6.775 -0.4244  0.0386 -2.0681
  735MOL0     H99199   2.786   8.008   6.768 -0.8372  1.2151 -2.2268
  735MOL0     H99200   2.656   7.965   6.881  0.3760 -2.0522 -1.0663
  735MOL0     H99201   2.673   7.817   6.712 -0.4362 -0.5714  0.3390
  735MOL0     H99202   2.641   7.942   6.592 -0.8281  1.0214  0.6939
  735MOL0     H99203   2.447   7.868   6.821  2.1253  4.9258  1.3803
  735MOL0     H99204   2.415   7.987   6.689  0.8046  0.3403 -3.8031
  735MOL0     H99205   2.606   8.725   7.390 -0.4934 -0.1469 -0.0262
  735MOL0     H99206   2.501   8.804   7.626 -2.3799  0.0049 -0.6117
  735MOL0     H99207   2.247   8.775   7.956  0.5174  2.4559 -0.3328
  735MOL0     H99208   2.159   8.846   8.172  0.1064  0.0425  0.2049
  735MOL0     H99209   1.590   8.341   7.080 -3.0693  1.3960 -0.9875
  735MOL0     H99210   1.681   8.365   6.855  1.5815 -0.1845 -0.3475
  735MOL0     H99211   2.010   8.568   6.627  1.4143  1.4380 -0.3722
  735MOL0     H99212   2.134   8.572   6.433  0.0526  0.1254 -0.0182
  735MOL0     H99213   1.979   8.524   6.057  0.5384 -2.8359  0.3541
  735MOL0     H99214   2.091   8.463   6.179 -0.7201 -0.1695 -0.7731
  735MOL0     H99215   2.166   8.652   5.944 -1.7606  0.3720  0.4533
  735MOL0     H99216   2.178   8.481   5.945  2.0218  2.7594 -3.7702
  735MOL0     H99217   2.384   8.499   6.016  0.7462  1.4606 -1.1496
  735MOL0     H99218   2.311   8.545   6.187  0.8940  1.6792  0.9765
  735MOL0     H99219   2.392   8.744   5.966  1.0530  2.2753  0.7594
  735MOL0     H99220   2.376   8.773   6.129 -0.3804  1.0741 -2.4382
  735MOL0     H99221   2.778   8.646   6.125  0.7683  1.1060  0.0400
  735MOL0     H99222   1.776   8.633   6.204  0.1790  0.0049 -1.1806
  735MOL0     H99223   1.557   8.506   6.445 -1.9634 -0.3125 -3.0892
  735MOL0     H99224   1.552   8.688   6.430  0.7290  0.0204 -1.5545
  735MOL0     H99225   1.568   8.583   6.293 -2.5154 -1.1047  0.7815
  736MOL0     O99226   3.747   0.513   0.412 -0.2943  0.5106  0.1868
  736MOL0     C99227   3.719   0.519   0.296  0.2018 -0.3798  0.3116
  736MOL0     O99228   3.786   0.463   0.187  0.0323  0.9389 -0.2455
  736MOL0     C99229   3.908   0.405   0.192 -0.5145 -0.1609  0.1763
  736MOL0     C99230   3.947   0.347   0.068 -0.0135 -0.4937 -0.3315
  736MOL0     C99231   4.074   0.280   0.069  0.0265 -0.0689 -0.0406
  736MOL0     C99232   4.154   0.260   0.185 -0.4059 -0.4136  0.4860
  736MOL0     O99233   4.253   0.168   0.167 -0.0266  0.4576  0.5405
  736MOL0     C99234   4.307   0.090   0.269 -0.4429 -0.3001 -0.5742
  736MOL0     C99235   4.253  -0.054   0.289  0.2402 -0.2955  0.1395
  736MOL0     C99236   4.097  -0.074   0.287  0.1475  0.5381  0.7759
  736MOL0     C99237   4.023  -0.022   0.403  0.2879 -0.4686  0.5004
  736MOL0     C99238   3.867  -0.019   0.376  0.0784 -0.3942  0.3181
  736MOL0     C99239   3.774   0.047   0.483  0.3220  0.3837 -0.2879
  736MOL0     C99240   3.805   0.194   0.500 -0.2914 -0.2218  0.4205
  736MOL0     C99241   3.727   0.258   0.619  0.9040  0.4706 -0.2291
  736MOL0     N99242   3.580   0.248   0.603  0.0298  0.2692  0.5439
  736MOL0     C99243   3.510   0.237   0.485 -0.5109 -0.9079  0.1048
  736MOL0     C99244   3.380   0.247   0.507 -0.2203  0.4458  0.2420
  736MOL0     C99245   3.263   0.239   0.406 -0.1635  0.3794 -1.1806
  736MOL0     C99246   3.130   0.187   0.485 -0.9412  0.5234  0.3147
  736MOL0     C99247   3.033   0.142   0.373  1.0368 -0.1275  0.6316
  736MOL0     C99248   2.946   0.261   0.326 -1.2015 -0.0055 -1.4508
  736MOL0     O99249   2.890   0.227   0.203 -0.3607 -0.2661 -0.2730
  736MOL0     C99250   2.790   0.313   0.155 -0.9233  0.0815  0.0954
  736MOL0     C99251   2.739   0.279   0.033 -0.0066  0.1826  0.2803
  736MOL0     C99252   2.636   0.351  -0.019 -0.4012  1.1219  1.2019
  736MOL0     C99253   2.581   0.464   0.033 -0.3245  0.6810 -0.0239
  736MOL0     C99254   2.466   0.530  -0.026 -0.3982  1.3218  0.0942
  736MOL0     O99255   2.412   0.468  -0.139  0.2915  1.5665 -0.4289
  736MOL0     C99256   2.302   0.521  -0.198  0.3484 -0.9604 -0.0327
  736MOL0     C99257   2.188   0.454  -0.232 -1.2550  1.1478  0.8772
  736MOL0     C99258   2.079   0.509  -0.301 -0.6311  0.3898 -0.6942
  736MOL0     C99259   2.085   0.642  -0.354 -0.8271 -0.2949 -1.3242
  736MOL0     O99260   1.977   0.699  -0.415  0.0390 -0.1821 -0.2768
  736MOL0     C99261   1.931   0.829  -0.363 -0.0095  0.8297  0.5074
  736MOL0     C99262   1.803   0.819  -0.269  0.0227 -0.1210 -0.4944
  736MOL0     C99263   1.809   0.727  -0.151  0.5937 -0.5756 -0.2746
  736MOL0     C99264   1.693   0.731  -0.059 -0.8035  0.2365 -0.2483
  736MOL0     C99265   1.711   0.645   0.064 -0.1023  0.6283  0.1190
  736MOL0     C99266   1.800   0.708   0.170 -0.1824 -0.3370 -0.5358
  736MOL0     C99267   1.808   0.617   0.289  0.4451  0.1102 -0.2144
  736MOL0     C99268   1.812   0.687   0.421  0.0554 -0.6005  0.4379
  736MOL0    Cl99269   1.692   0.809   0.451 -0.4453 -0.3258 -0.2127
  736MOL0     C99270   2.209   0.713  -0.321  0.1124 -0.5006 -0.6327
  736MOL0     C99271   2.309   0.657  -0.245  0.1452 -0.5745 -0.2592
  736MOL0     O99272   2.442   0.644   0.011  0.3424 -0.2088  0.4249
  736MOL0     C99273   2.629   0.505   0.155  0.0399 -0.0085 -0.1336
  736MOL0     C99274   2.734   0.426   0.215  0.7931  0.6138  0.1718
  736MOL0     N99275   3.374   0.263   0.652  0.6575  0.7430 -0.3675
  736MOL0     N99276   3.495   0.262   0.698  0.5209 -0.9037 -0.8165
  736MOL0     C99277   4.114   0.324   0.300 -0.0057  0.5387  0.4428
  736MOL0     C99278   3.992   0.390   0.302 -0.9405 -0.6393 -0.0447
  736MOL0     C99279   3.607   0.596   0.259 -0.1726 -0.0498 -0.3431
  736MOL0     C99280   3.521   0.556   0.155  0.5100  0.7442  0.4000
  736MOL0     C99281   3.399   0.624   0.131 -0.0999  0.8873 -0.1699
  736MOL0     C99282   3.362   0.735   0.194 -0.2848 -0.4699 -0.4651
  736MOL0     O99283   3.258   0.822   0.164  0.6467 -0.0063 -1.3046
  736MOL0     C99284   3.131   0.754   0.151 -0.6926  0.8100  0.0895
  736MOL0     C99285   3.099   0.654   0.270  0.1444  0.3829 -0.5643
  736MOL0     C99286   3.094   0.729   0.398 -0.0069  0.5392 -0.2544
  736MOL0     C99287   3.031   0.641   0.508 -0.9878 -1.0194 -0.3918
  736MOL0     C99288   3.075   0.699   0.644  0.6367  0.7146 -0.3725
  736MOL0     C99289   3.107   0.741   0.754  0.4389  0.2430 -0.4179
  736MOL0     C99290   3.454   0.785   0.283  0.9909 -0.9091 -0.6598
  736MOL0     C99291   3.576   0.718   0.321  0.0121 -0.2861  0.6456
  736MOL0     C99292   3.678   0.784   0.413 -0.1502 -0.2688 -0.5376
  736MOL0     H99293   3.870   0.340  -0.008 -1.7514  0.0861  1.2880
  736MOL0     H99294   4.105   0.242  -0.028 -0.8330 -1.5609  0.2544
  736MOL0     H99295   4.416   0.099   0.274 -0.4940 -0.3327  1.4930
  736MOL0     H99296   4.276   0.135   0.364 -2.9965 -1.9797 -0.5260
  736MOL0     H99297   4.291  -0.104   0.378  1.1426  1.0420  0.5456
  736MOL0     H99298   4.290  -0.108   0.201  1.9663  2.1963 -0.8026
  736MOL0     H99299   4.081  -0.182   0.285 -2.7749  0.8871  0.6486
  736MOL0     H99300   4.059  -0.041   0.190  1.5086  1.9555  0.6689
  736MOL0     H99301   4.035  -0.090   0.487 -2.7932  0.7581  2.1274
  736MOL0     H99302   4.072   0.074   0.422 -0.3154  0.3183 -1.6258
  736MOL0     H99303   3.856   0.037   0.283 -2.2933 -1.2645 -0.0228
  736MOL0     H99304   3.830  -0.120   0.355 -0.4219  0.3376 -2.7762
  736MOL0     H99305   3.675   0.030   0.440  1.0693 -2.7587 -0.9821
  736MOL0     H99306   3.773  -0.003   0.579 -2.5009 -1.4475 -1.1556
  736MOL0     H99307   3.785   0.258   0.413  1.5190 -3.1718 -2.3850
  736MOL0     H99308   3.910   0.216   0.520  0.1332 -1.4936 -0.2935
  736MOL0     H99309   3.735   0.214   0.719 -2.7137  1.6741  0.7384
  736MOL0     H99310   3.761   0.360   0.638  2.5383 -0.7390  4.6118
  736MOL0     H99311   3.553   0.216   0.388 -0.6968  0.1790 -0.2190
  736MOL0     H99312   3.262   0.336   0.355 -0.8387  1.4716  0.8294
  736MOL0     H99313   3.294   0.162   0.334  0.5664 -0.8025  0.3495
  736MOL0     H99314   3.157   0.094   0.538  0.3575  0.7207  0.0340
  736MOL0     H99315   3.107   0.269   0.553 -0.5678 -0.6601  1.9282
  736MOL0     H99316   2.964   0.068   0.415 -0.4799  2.0087  2.1164
  736MOL0     H99317   3.077   0.107   0.279  0.0556 -1.0907  0.5179
  736MOL0     H99318   3.016   0.345   0.319  2.4867 -2.6725 -0.0168
  736MOL0     H99319   2.870   0.283   0.401 -1.1485  1.1916 -1.7248
  736MOL0     H99320   2.780   0.188  -0.010  1.3874  1.8155 -2.0956
  736MOL0     H99321   2.616   0.315  -0.119 -0.2124 -0.1016  1.5953
  736MOL0     H99322   2.181   0.351  -0.199 -0.9692  1.6279  2.5123
  736MOL0     H99323   1.996   0.444  -0.324 -0.7418 -0.7952  2.5020
  736MOL0     H99324   2.017   0.877  -0.314 -0.2680 -0.4118  2.3077
  736MOL0     H99325   1.905   0.890  -0.449 -0.7599  0.7112  0.6413
  736MOL0     H99326   1.777   0.919  -0.231  1.3099 -1.4950  4.7874
  736MOL0     H99327   1.722   0.788  -0.335 -0.8656 -2.4062  1.5192
  736MOL0     H99328   1.822   0.625  -0.189  1.9150  0.1234 -1.8185
  736MOL0     H99329   1.891   0.750  -0.083 -0.9071 -1.2522  1.8493
  736MOL0     H99330   1.601   0.701  -0.111 -0.0195 -0.2724 -1.3924
  736MOL0     H99331   1.672   0.836  -0.036  2.8679  1.2560 -0.7900
  736MOL0     H99332   1.753   0.553   0.022 -1.8206 -0.0165 -0.2968
  736MOL0     H99333   1.621   0.621   0.123  1.1635 -0.9064  1.5218
  736MOL0     H99334   1.900   0.738   0.138 -0.4051  0.8768 -0.1624
  736MOL0     H99335   1.747   0.802   0.191 -1.0025 -0.9012 -0.0434
  736MOL0     H99336   1.894   0.552   0.268 -0.6142 -0.3860 -3.7326
  736MOL0     H99337   1.727   0.543   0.292 -0.9032  1.3068 -2.8934
  736MOL0     H99338   1.806   0.609   0.498 -0.7647 -0.4072  0.5746
  736MOL0     H99339   1.903   0.748   0.429 -1.2975  1.4204  1.4088
  736MOL0     H99340   2.211   0.818  -0.351 -0.6253 -1.1042 -3.0610
  736MOL0     H99341   2.403   0.709  -0.232 -0.2945 -0.0392  0.9463
  736MOL0     H99342   2.606   0.597   0.208  0.7877 -0.1810  0.5127
  736MOL0     H99343   2.764   0.435   0.319 -0.3927  3.3184  0.3688
  736MOL0     H99344   4.173   0.322   0.391  0.4213 -0.9479  0.1532
  736MOL0     H99345   3.974   0.429   0.402  1.4217 -0.0605  0.2093
  736MOL0     H99346   3.536   0.463   0.101  1.2708  0.5063  1.0097
  736MOL0     H99347   3.340   0.586   0.049 -0.4749  1.9587 -0.4132
  736MOL0     H99348   3.138   0.688   0.064 -1.7722 -1.4869  1.6514
  736MOL0     H99349   3.051   0.826   0.136 -2.9334 -0.7453  3.3746
  736MOL0     H99350   3.174   0.575   0.274  0.2976  0.4070 -2.2957
  736MOL0     H99351   3.001   0.609   0.251  1.6799 -2.3291 -2.8392
  736MOL0     H99352   3.038   0.823   0.393 -1.3756 -0.2004  0.4128
  736MOL0     H99353   3.196   0.764   0.417  0.7435 -1.5773 -0.1061
  736MOL0     H99354   2.922   0.642   0.498 -1.0633  1.7784 -0.0073
  736MOL0     H99355   3.067   0.541   0.483  1.7205 -0.4129  0.6318
  736MOL0     H99356   3.138   0.783   0.847 -2.4853 -0.4883  1.0278
  736MOL0     H99357   3.425   0.872   0.340  1.0707 -1.0167 -0.4556
  736MOL0     H99358   3.661   0.892   0.417  1.4084 -0.0185 -0.0986
  736MOL0     H99359   3.673   0.734   0.510 -0.0119 -0.9486 -0.8727
  736MOL0     H99360   3.778   0.776   0.369 -1.2640 -0.4282 -3.2365
  737MOL0     O99361   1.671   7.992   5.113 -0.1642 -0.4312 -1.1262
  737MOL0     C99362   1.652   7.873   5.114 -0.1036  0.1968  0.7937
  737MOL0     O99363   1.547   7.804   5.174  1.3412 -0.1557  0.0163
  737MOL0     C99364   1.486   7.871   5.282  0.2595 -0.0505  0.6000
  737MOL0     C99365   1.544   7.855   5.404  0.0846  0.4112 -0.2720
  737MOL0     C99366   1.487   7.924   5.514  0.3580  1.6613  0.0235
  737MOL0     C99367   1.364   7.993   5.508 -0.3067 -0.2308 -0.1269
  737MOL0     O99368   1.300   8.052   5.626  0.1946 -0.4632  0.2870
  737MOL0     C99369   1.331   8.190   5.644  0.0787 -1.1505  0.0030
  737MOL0     C99370   1.281   8.234   5.786  0.8112 -0.1445 -0.4797
  737MOL0     C99371   1.406   8.263   5.870  0.3222 -0.0170 -0.8020
  737MOL0     C99372   1.464   8.130   5.927 -0.0971 -1.0459 -0.3277
  737MOL0     C99373   1.612   8.179   5.960 -0.2676  0.0929  0.5586
  737MOL0     C99374   1.628   8.285   6.080  0.3275  0.1007 -0.2225
  737MOL0     C99375   1.781   8.321   6.101  0.2508  0.2741  0.7098
  737MOL0     C99376   1.884   8.220   6.145 -0.0835 -0.2905  0.5158
  737MOL0     N99377   1.862   8.189   6.296 -0.1787  0.2707  0.1566
  737MOL0     C99378   1.936   8.251   6.395 -0.1155 -0.9417 -0.2246
  737MOL0     C99379   1.886   8.186   6.512  0.6250  0.2241  0.3503
  737MOL0     C99380   1.940   8.238   6.644  0.4039  0.0054 -0.7383
  737MOL0     C99381   1.939   8.135   6.764 -0.1538  0.1901  0.4191
  737MOL0     C99382   1.998   8.207   6.891  0.0127 -0.1104  0.2957
  737MOL0     C99383   2.005   8.096   6.994 -0.3686 -0.1369 -0.7655
  737MOL0     O99384   2.086   8.147   7.107  0.0311  0.6815  0.4423
  737MOL0     C99385   2.059   8.264   7.163 -1.0065 -0.4842 -0.6246
  737MOL0     C99386   1.944   8.298   7.236 -0.3396  0.1516  0.0285
  737MOL0     C99387   1.945   8.420   7.301  0.3022 -0.4768  0.5347
  737MOL0     C99388   2.051   8.505   7.295 -0.1562 -0.2677  0.4174
  737MOL0     C99389   2.049   8.641   7.361  0.4361  0.6665 -0.0460
  737MOL0     O99390   1.949   8.663   7.452 -0.1572 -0.2202  0.8222
  737MOL0     C99391   1.976   8.748   7.555 -0.9345 -0.1555  0.1911
  737MOL0     C99392   1.883   8.848   7.597 -0.0136 -0.6901 -0.3558
  737MOL0     C99393   1.915   8.924   7.704  0.0971  0.4696 -0.3165
  737MOL0     C99394   2.040   8.926   7.756 -0.1924 -0.4571 -0.7198
  737MOL0     O99395   2.055   9.021   7.854 -0.8698  0.3033  0.1077
  737MOL0     C99396   2.185   9.085   7.858  0.2822 -0.0602  0.3279
  737MOL0     C99397   2.185   9.156   7.995  0.1030  0.0638 -0.2494
  737MOL0     C99398   2.329   9.196   8.029  0.1782 -0.3749  0.2792
  737MOL0     C99399   2.412   9.079   8.090 -0.8139  0.9235 -0.6586
  737MOL0     C99400   2.547   9.137   8.135  0.1417  0.1904  0.5798
  737MOL0     C99401   2.634   9.142   8.009  0.5021 -0.2947  0.4624
  737MOL0     C99402   2.713   9.013   7.985 -0.4980  0.4610 -0.4987
  737MOL0     C99403   2.754   8.989   7.844  0.1498  0.1727 -0.1866
  737MOL0    Cl99404   2.626   9.008   7.727 -0.1943  0.3352 -0.0395
  737MOL0     C99405   2.139   8.843   7.711  0.3648  0.4528 -0.6919
  737MOL0     C99406   2.102   8.750   7.613 -0.4331  0.8568  0.3486
  737MOL0     O99407   2.144   8.716   7.337 -0.4144  0.0642 -0.1915
  737MOL0     C99408   2.166   8.465   7.230  0.2031 -0.6467  0.4831
  737MOL0     C99409   2.166   8.350   7.158 -0.5668  0.0434  0.7008
  737MOL0     N99410   1.806   8.078   6.476 -0.2820  0.8228  0.1386
  737MOL0     N99411   1.804   8.082   6.348  0.3482  0.3748 -0.5538
  737MOL0     C99412   1.302   8.006   5.379 -0.6796 -0.5943  0.3429
  737MOL0     C99413   1.355   7.943   5.270 -0.6306  0.5719  0.3779
  737MOL0     C99414   1.739   7.792   5.022 -0.5510 -0.1245 -0.4596
  737MOL0     C99415   1.746   7.657   5.061  0.3294 -0.0890  0.1659
  737MOL0     C99416   1.835   7.583   4.995 -0.5678 -0.0947 -0.1223
  737MOL0     C99417   1.912   7.628   4.886  0.8676  0.5205 -0.2058
  737MOL0     O99418   1.992   7.536   4.826  0.5177 -0.2823  0.6728
  737MOL0     C99419   2.117   7.576   4.778  0.1060  0.2220 -0.1744
  737MOL0     C99420   2.173   7.481   4.671  0.2226 -0.0026  0.0222
  737MOL0     C99421   2.237   7.361   4.735 -0.4694 -0.2897  0.2534
  737MOL0     C99422   2.325   7.284   4.642 -1.3051  0.4189 -0.1985
  737MOL0     C99423   2.265   7.247   4.512 -0.0486  0.7460  0.2079
  737MOL0     C99424   2.232   7.237   4.394 -0.2346  0.5802 -0.4060
  737MOL0     C99425   1.906   7.763   4.856  0.3376 -0.1076  0.7567
  737MOL0     C99426   1.810   7.844   4.917 -0.9053  0.0332  0.5422
  737MOL0     C99427   1.785   7.979   4.850  0.0129  0.2677 -0.2429
  737MOL0     H99428   1.632   7.792   5.408  1.0818  1.7966  1.4589
  737MOL0     H99429   1.536   7.918   5.611  2.0411 -0.9222 -0.8967
  737MOL0     H99430   1.440   8.196   5.632  0.6259  2.7093  4.2096
  737MOL0     H99431   1.288   8.256   5.568  0.6553  0.4753  1.0361
  737MOL0     H99432   1.213   8.160   5.829 -0.4667  1.4353  0.3333
  737MOL0     H99433   1.239   8.335   5.789 -1.7411 -1.0957  2.7725
  737MOL0     H99434   1.373   8.323   5.956 -1.4046  1.6359 -2.5239
  737MOL0     H99435   1.476   8.330   5.820 -1.4659  4.8759  2.5019
  737MOL0     H99436   1.413   8.101   6.019 -1.8449 -0.2400 -0.9962
  737MOL0     H99437   1.456   8.051   5.852 -2.6254  2.9784 -4.9227
  737MOL0     H99438   1.670   8.091   5.990  2.2422  2.1965  2.4002
  737MOL0     H99439   1.652   8.214   5.864 -1.8248  0.4458  0.0092
  737MOL0     H99440   1.573   8.373   6.046  0.8569  0.2823 -0.6184
  737MOL0     H99441   1.601   8.247   6.178 -0.6561  0.0240 -0.5154
  737MOL0     H99442   1.772   8.387   6.188 -0.0298  0.5430  0.4786
  737MOL0     H99443   1.823   8.372   6.014  0.9088 -4.2101 -1.9112
  737MOL0     H99444   1.868   8.133   6.080 -3.4890  1.6039 -1.4348
  737MOL0     H99445   1.987   8.256   6.147 -0.5130  1.0542 -0.4588
  737MOL0     H99446   1.989   8.344   6.379 -1.2566 -0.6032 -2.5159
  737MOL0     H99447   2.038   8.280   6.621  1.4571 -1.5527  0.6460
  737MOL0     H99448   1.877   8.326   6.659  0.0708  0.0282 -2.1600
  737MOL0     H99449   1.833   8.107   6.769 -0.2906  0.3987 -0.9146
  737MOL0     H99450   1.985   8.038   6.749  1.7251  0.4594  3.6242
  737MOL0     H99451   1.939   8.284   6.941 -1.5590 -3.1121  3.5530
  737MOL0     H99452   2.098   8.245   6.867 -0.6871  2.0535  0.6467
  737MOL0     H99453   2.042   7.997   6.962 -1.2814 -1.8564  2.9477
  737MOL0     H99454   1.903   8.091   7.032 -0.0490  4.7376  1.4006
  737MOL0     H99455   1.860   8.230   7.253  0.3480 -0.0657  3.1415
  737MOL0     H99456   1.855   8.453   7.352  0.5360 -1.4099  1.6005
  737MOL0     H99457   1.795   8.862   7.535 -0.1214  1.8142  0.2734
  737MOL0     H99458   1.849   9.000   7.746 -0.6899  0.8225 -2.0904
  737MOL0     H99459   2.275   9.028   7.834 -0.6310 -2.4573  2.2128
  737MOL0     H99460   2.171   9.163   7.783  2.0402 -2.2134 -2.4179
  737MOL0     H99461   2.116   9.241   7.982 -1.4953 -1.5689 -3.6097
  737MOL0     H99462   2.145   9.088   8.070 -0.4479  0.7785  0.1213
  737MOL0     H99463   2.367   9.239   7.936  1.1508 -0.6746  0.5249
  737MOL0     H99464   2.319   9.267   8.112 -1.6656 -0.2426 -0.0141
  737MOL0     H99465   2.420   8.993   8.024  2.3054 -1.1227  2.0621
  737MOL0     H99466   2.371   9.041   8.184 -1.8060  0.4257 -1.2754
  737MOL0     H99467   2.595   9.076   8.211  1.5545  1.1500  0.5032
  737MOL0     H99468   2.543   9.236   8.181  1.0659  1.0440 -1.0719
  737MOL0     H99469   2.569   9.166   7.925 -2.5221 -1.9615  2.1545
  737MOL0     H99470   2.709   9.221   8.016  1.4671 -1.2182  0.8309
  737MOL0     H99471   2.662   8.933   8.038 -2.9115  3.0206  1.3708
  737MOL0     H99472   2.810   9.028   8.033  0.1421 -0.7339 -1.3787
  737MOL0     H99473   2.833   9.062   7.827 -0.8385  1.5838  1.0449
  737MOL0     H99474   2.785   8.884   7.845 -0.8963 -0.1589  0.6464
  737MOL0     H99475   2.236   8.833   7.759 -0.4608  3.8573  2.0644
  737MOL0     H99476   2.177   8.677   7.585  0.3299  2.0118 -0.7341
  737MOL0     H99477   2.258   8.522   7.243  0.2243 -0.3576 -0.8608
  737MOL0     H99478   2.252   8.316   7.100 -0.2130  1.5756  0.2867
  737MOL0     H99479   1.221   8.078   5.371 -0.4521 -0.4871 -1.3779
  737MOL0     H99480   1.301   7.965   5.178  0.3846  1.7193  0.0236
  737MOL0     H99481   1.688   7.599   5.133  2.2826 -1.5813  0.6482
  737MOL0     H99482   1.840   7.479   5.023 -0.0456  0.4367  1.9306
  737MOL0     H99483   2.193   7.590   4.856  1.1308 -0.3178 -1.0459
  737MOL0     H99484   2.106   7.675   4.734 -3.5421  0.6432  1.3738
  737MOL0     H99485   2.247   7.533   4.609 -1.9506  0.7997 -2.0207
  737MOL0     H99486   2.092   7.451   4.605  0.8574  0.4249 -0.9658
  737MOL0     H99487   2.151   7.296   4.751 -1.7783  2.0135  3.7485
  737MOL0     H99488   2.291   7.382   4.828  1.6670 -2.3892 -0.4119
  737MOL0     H99489   2.419   7.336   4.621  1.2653 -3.5135  0.4036
  737MOL0     H99490   2.368   7.197   4.693  1.9883  1.0277 -1.7094
  737MOL0     H99491   2.217   7.236   4.288  2.1427  2.0665 -0.8190
  737MOL0     H99492   1.955   7.794   4.764  2.4217  2.3088  2.5398
  737MOL0     H99493   1.826   7.992   4.749 -0.7547 -0.6405 -0.6918
  737MOL0     H99494   1.676   7.977   4.842 -0.0191 -0.5041  0.2698
  737MOL0     H99495   1.807   8.073   4.901 -1.1229  0.5968 -0.3470
  738MOL0     O99496   1.027   0.312   9.979  0.0143  0.6034 -0.6343
  738MOL0     C99497   0.912   0.285  10.015  1.7704  0.1135 -0.8500
  738MOL0     O99498   0.811   0.380  10.048  0.5361  0.4841 -0.3844
  738MOL0     C99499   0.847   0.510  10.026  0.3532  0.2736 -0.2893
  738MOL0     C99500   0.856   0.605  10.123 -0.5809  0.4929 -1.0414
  738MOL0     C99501   0.884   0.735  10.088 -1.7239 -0.7279  0.3825
  738MOL0     C99502   0.909   0.778   9.958  0.4524 -0.1939 -0.8521
  738MOL0     O99503   0.929   0.907   9.916 -0.9408 -0.7672  0.4971
  738MOL0     C99504   0.925   1.015  10.008  0.3601  0.9267  1.1085
  738MOL0     C99505   0.931   1.162   9.943 -0.2066 -0.5617 -0.6275
  738MOL0     C99506   0.898   1.264  10.058 -0.8171  0.4722 -0.0994
  738MOL0     C99507   0.994   1.273  10.174  0.2089 -0.1837 -0.2902
  738MOL0     C99508   0.972   1.408  10.261 -0.3065 -0.0937 -0.0657
  738MOL0     C99509   1.070   1.400  10.376  0.5807  0.3194  0.4676
  738MOL0     C99510   1.115   1.532  10.437  0.3231 -0.1144 -0.3063
  738MOL0     C99511   1.238   1.516  10.539  0.1781 -1.5126  0.2640
  738MOL0     N99512   1.306   1.646  10.579  0.1456  0.1934 -0.4051
  738MOL0     C99513   1.247   1.752  10.637  0.1809  0.2108 -0.1518
  738MOL0     C99514   1.338   1.842  10.662  0.3029 -0.4216  0.0991
  738MOL0     C99515   1.313   1.972  10.734  1.3982 -0.2838  0.6910
  738MOL0     C99516   1.353   2.099  10.645 -0.4762  1.0327 -0.4652
  738MOL0     C99517   1.344   2.226  10.732 -0.3020  0.2459 -0.7092
  738MOL0     C99518   1.431   2.341  10.676  0.1371 -0.3826 -0.1128
  738MOL0     O99519   1.430   2.455  10.776 -0.2770  0.1568 -0.2355
  738MOL0     C99520   1.467   2.576  10.728 -0.5278 -0.3709  0.7823
  738MOL0     C99521   1.506   2.606  10.590 -0.0114 -0.5376  0.4594
  738MOL0     C99522   1.533   2.740  10.545  1.1350 -0.2546  0.7643
  738MOL0     C99523   1.499   2.842  10.634  0.0641 -1.1544 -0.6589
  738MOL0     C99524   1.511   2.988  10.593  0.3287 -0.0040 -0.2021
  738MOL0     O99525   1.496   3.078  10.691 -0.3477  0.8161 -0.6390
  738MOL0     C99526   1.515   3.206  10.675  0.2969 -0.2016 -0.4022
  738MOL0     C99527   1.447   3.290  10.579 -0.3531 -0.3083  0.0161
  738MOL0     C99528   1.475   3.425  10.551 -0.1077  0.8185 -0.3487
  738MOL0     C99529   1.587   3.481  10.609 -0.9982  0.6099 -0.6402
  738MOL0     O99530   1.608   3.612  10.581  0.1354  0.5868  0.2519
  738MOL0     C99531   1.605   3.649  10.445  0.1787  0.1315 -0.1857
  738MOL0     C99532   1.703   3.765  10.423 -0.6560  0.2457 -0.3553
  738MOL0     C99533   1.852   3.735  10.436 -0.3170 -0.6947 -0.6003
  738MOL0     C99534   1.899   3.740  10.580 -0.0391 -0.2808  0.1602
  738MOL0     C99535   2.051   3.711  10.604 -0.8282 -0.3956  0.1659
  738MOL0     C99536   2.106   3.574  10.567 -0.1147 -0.9600 -0.0528
  738MOL0     C99537   2.250   3.543  10.621  0.6064  0.0294  0.3839
  738MOL0     C99538   2.345   3.651  10.608  1.1046 -0.4013  0.3028
  738MOL0    Cl99539   2.506   3.592  10.631  0.2458  0.2891  0.1877
  738MOL0     C99540   1.662   3.405  10.706 -0.1757  0.5162  0.5518
  738MOL0     C99541   1.624   3.269  10.740  0.4627  0.3020  0.0817
  738MOL0     O99542   1.543   3.016  10.477  0.1239 -0.3594  0.3622
  738MOL0     C99543   1.463   2.815  10.764 -0.0226  0.6620 -0.6654
  738MOL0     C99544   1.446   2.688  10.806  0.2813  0.4817 -0.1699
  738MOL0     N99545   1.459   1.802  10.617 -0.4343  0.2214 -0.2151
  738MOL0     N99546   1.438   1.683  10.561  0.2185 -0.3838 -0.0736
  738MOL0     C99547   0.893   0.681   9.858  0.2011  0.3361  0.6507
  738MOL0     C99548   0.857   0.544   9.893 -0.1648  0.1121 -0.5974
  738MOL0     C99549   0.863   0.141  10.007 -0.9283  0.7123 -0.4110
  738MOL0     C99550   0.734   0.111   9.986 -0.2574 -0.7785  1.3988
  738MOL0     C99551   0.679  -0.021   9.991  0.0765 -0.7205 -0.2645
  738MOL0     C99552   0.763  -0.122  10.045  0.5212  0.0011  1.6154
  738MOL0     O99553   0.734  -0.254  10.060 -0.9227  0.2336  0.0038
  738MOL0     C99554   0.600  -0.295  10.032  0.4843 -1.1420  0.3053
  738MOL0     C99555   0.578  -0.444  10.060  0.5487  0.4372 -0.9411
  738MOL0     C99556   0.680  -0.536   9.986 -0.0609 -0.3548 -0.9437
  738MOL0     C99557   0.737  -0.657  10.058  0.7173  0.1228  0.9963
  738MOL0     C99558   0.811  -0.734   9.954  0.3305 -0.1099 -0.2303
  738MOL0     C99559   0.861  -0.792   9.861  0.6281  0.1452 -0.1445
  738MOL0     C99560   0.894  -0.092  10.076  0.2274 -0.7228  0.8486
  738MOL0     C99561   0.944   0.039  10.056 -0.0563  0.5345 -0.5958
  738MOL0     C99562   1.091   0.058  10.075 -0.3072 -0.2865  0.2320
  738MOL0     H99563   0.843   0.576  10.227  1.3648  1.7968 -0.3852
  738MOL0     H99564   0.892   0.808  10.168  2.5707  0.0132 -0.5026
  738MOL0     H99565   0.829   1.018  10.060 -0.1379  2.2112  0.1637
  738MOL0     H99566   1.012   1.013  10.075  1.8114 -0.5837 -0.7126
  738MOL0     H99567   0.857   1.169   9.863 -2.9935 -2.9467  1.4690
  738MOL0     H99568   1.027   1.181   9.896 -0.3108  1.3021 -0.1650
  738MOL0     H99569   0.792   1.263  10.087 -1.3990  1.2959 -2.0308
  738MOL0     H99570   0.917   1.358  10.007  2.3460 -0.2406 -0.4200
  738MOL0     H99571   0.960   1.185  10.228 -3.3330  0.1353 -1.7270
  738MOL0     H99572   1.098   1.279  10.142 -0.5517  3.4371 -2.8114
  738MOL0     H99573   0.999   1.495  10.199 -2.2457  0.0840 -0.7490
  738MOL0     H99574   0.873   1.437  10.297 -1.3241 -2.7035 -0.5821
  738MOL0     H99575   1.030   1.333  10.453  0.6893 -1.2168 -0.7625
  738MOL0     H99576   1.158   1.353  10.330  0.0482 -1.1196  0.8736
  738MOL0     H99577   1.035   1.577  10.497  0.7147  1.3720 -0.8814
  738MOL0     H99578   1.135   1.608  10.362  1.6929 -0.4942 -0.3438
  738MOL0     H99579   1.188   1.470  10.624 -1.4387 -1.3990 -0.5837
  738MOL0     H99580   1.318   1.454  10.497  4.0876  2.3562  1.3177
  738MOL0     H99581   1.140   1.761  10.651  0.3360 -0.1731  1.3812
  738MOL0     H99582   1.206   1.985  10.756  0.2754 -2.7609 -2.4844
  738MOL0     H99583   1.373   1.971  10.826  3.2612  1.2161 -0.4443
  738MOL0     H99584   1.456   2.096  10.609  0.1456  4.5313  0.6947
  738MOL0     H99585   1.283   2.117  10.563 -0.3840  3.6650 -0.0237
  738MOL0     H99586   1.392   2.207  10.828  1.2340  1.6358 -1.1651
  738MOL0     H99587   1.242   2.250  10.763  0.0190 -3.0469  3.7835
  738MOL0     H99588   1.384   2.370  10.582 -3.0277 -0.5652  1.3038
  738MOL0     H99589   1.535   2.310  10.663  1.4186  2.8864  1.1385
  738MOL0     H99590   1.534   2.527  10.520 -0.8440 -0.1760 -0.3075
  738MOL0     H99591   1.579   2.766  10.451  0.3669  3.8567  1.3107
  738MOL0     H99592   1.375   3.239  10.515  0.7565 -0.6152 -1.0166
  738MOL0     H99593   1.415   3.474  10.475  0.4131 -2.6261 -3.2716
  738MOL0     H99594   1.635   3.561  10.387 -0.2647 -1.5079  1.9530
  738MOL0     H99595   1.508   3.692  10.417 -0.9959 -2.4330 -0.2815
  738MOL0     H99596   1.691   3.815  10.327 -0.8208  5.0928  1.8889
  738MOL0     H99597   1.682   3.843  10.497  2.7195  0.1744  0.8979
  738MOL0     H99598   1.881   3.646  10.380 -4.0079 -0.9726 -2.3709
  738MOL0     H99599   1.908   3.811  10.380 -1.6684  2.2340  1.7339
  738MOL0     H99600   1.839   3.670  10.640  0.0620  1.9214  3.0393
  738MOL0     H99601   1.886   3.842  10.618  0.4015  0.7828 -2.3693
  738MOL0     H99602   2.074   3.730  10.709  0.2935  0.8844 -0.2937
  738MOL0     H99603   2.118   3.777  10.549 -1.5292 -1.9196 -2.7263
  738MOL0     H99604   2.041   3.492  10.598  0.9765 -1.6474  0.4875
  738MOL0     H99605   2.112   3.567  10.458  3.4576 -0.0610 -0.0529
  738MOL0     H99606   2.276   3.462  10.552 -0.4800 -0.2945  0.3322
  738MOL0     H99607   2.256   3.520  10.727  0.0915 -3.2665 -0.1977
  738MOL0     H99608   2.329   3.701  10.512 -2.7797  0.4273  1.2333
  738MOL0     H99609   2.336   3.728  10.685 -1.3901  0.7436 -1.0137
  738MOL0     H99610   1.750   3.447  10.755  0.2516 -0.6152  0.7923
  738MOL0     H99611   1.680   3.217  10.817 -1.0469 -1.7443 -0.1145
  738MOL0     H99612   1.446   2.895  10.835  4.9367  0.1415  1.5246
  738MOL0     H99613   1.397   2.675  10.902 -0.5864  2.0285 -0.3692
  738MOL0     H99614   0.897   0.713   9.755 -1.4764 -0.4463  0.3146
  738MOL0     H99615   0.844   0.482   9.805  0.9942 -1.8375  0.5388
  738MOL0     H99616   0.679   0.192   9.939  0.8744  0.4221  2.0924
  738MOL0     H99617   0.578  -0.037   9.954  1.4693 -1.9892 -3.9830
  738MOL0     H99618   0.576  -0.270   9.928  2.4471 -1.3291 -0.2430
  738MOL0     H99619   0.525  -0.238  10.087  0.4846 -0.3277 -0.5226
  738MOL0     H99620   0.477  -0.472  10.029  0.2079 -1.4786  1.5940
  738MOL0     H99621   0.587  -0.460  10.167 -1.8688  1.6480 -0.4836
  738MOL0     H99622   0.761  -0.477   9.942 -0.7432  0.0918 -1.6210
  738MOL0     H99623   0.623  -0.572   9.900 -1.9429  2.2881 -0.9157
  738MOL0     H99624   0.809  -0.631  10.136  1.4333 -0.8657  0.6810
  738MOL0     H99625   0.660  -0.707  10.117  1.6594  1.1393  3.1991
  738MOL0     H99626   0.891  -0.866   9.789 -0.2257 -2.1876  1.7676
  738MOL0     H99627   0.964  -0.165  10.114  2.3961  0.6079 -0.3562
  738MOL0     H99628   1.137  -0.033  10.116 -0.5772 -0.7424 -0.4417
  738MOL0     H99629   1.138   0.078   9.979 -1.7096 -0.8173 -0.6025
  738MOL0     H99630   1.097   0.143  10.143 -0.6914 -1.7751  2.2571
  739MOL0     O99631   7.476   5.647   9.249 -0.8881  0.3602 -0.6341
  739MOL0     C99632   7.502   5.685   9.136 -0.3573 -0.1994  1.0014
  739MOL0     O99633   7.592   5.778   9.101 -0.1665  0.2645  0.2607
  739MOL0     C99634   7.691   5.813   9.193 -0.6027 -1.0081 -0.0723
  739MOL0     C99635   7.762   5.716   9.267  0.3988 -0.3235 -0.0416
  739MOL0     C99636   7.852   5.754   9.364 -0.1805 -0.2959  0.2555
  739MOL0     C99637   7.891   5.890   9.370 -0.0300 -0.5605 -0.2179
  739MOL0     O99638   7.994   5.932   9.453 -0.3104 -0.5010 -0.0597
  739MOL0     C99639   8.115   5.984   9.393 -0.6083 -0.4946 -0.5067
  739MOL0     C99640   8.218   5.985   9.503  0.5331 -0.1717  0.2103
  739MOL0     C99641   8.281   5.848   9.516 -0.5638  0.2677 -0.0683
  739MOL0     C99642   8.396   5.852   9.621 -0.2956 -0.4369 -0.0652
  739MOL0     C99643   8.466   5.728   9.667  1.2322 -0.3482  0.1579
  739MOL0     C99644   8.599   5.757   9.748  0.2261  0.1231  0.4152
  739MOL0     C99645   8.663   5.617   9.787  0.7201 -0.6816  0.3148
  739MOL0     C99646   8.802   5.620   9.832 -0.0116 -0.3666  0.0452
  739MOL0     N99647   8.803   5.696   9.958 -0.4903  0.1140 -0.4679
  739MOL0     C99648   8.843   5.825   9.967  0.0231 -0.9381  0.3567
  739MOL0     C99649   8.820   5.862  10.100 -0.0683  0.1558  0.6206
  739MOL0     C99650   8.841   5.990  10.160  0.2985 -0.4425 -0.1247
  739MOL0     C99651   8.984   6.033  10.157 -0.4075 -0.2740 -0.0047
  739MOL0     C99652   9.003   6.183  10.169 -0.3027 -0.4569  0.0758
  739MOL0     C99653   9.152   6.237  10.196  0.9371  0.1452  0.6193
  739MOL0     O99654   9.213   6.223  10.069  0.0063  0.6919 -0.0221
  739MOL0     C99655   9.309   6.125  10.035 -0.3177 -0.6740 -0.7711
  739MOL0     C99656   9.384   6.059  10.135 -0.3468  0.5458 -0.6929
  739MOL0     C99657   9.481   5.967  10.087 -0.4864 -0.5898 -0.6122
  739MOL0     C99658   9.495   5.937   9.956  0.0501  0.0698  0.1492
  739MOL0     C99659   9.590   5.829   9.917  0.9454 -0.5952 -0.1534
  739MOL0     O99660   9.669   5.764  10.016  0.0547 -0.2153  0.2957
  739MOL0     C99661   9.755   5.667   9.978  0.8940 -0.3601  0.5491
  739MOL0     C99662   9.740   5.536  10.034  0.3824  0.2508 -0.6509
  739MOL0     C99663   9.832   5.430  10.000 -0.1529 -0.4074  0.4417
  739MOL0     C99664   9.931   5.445   9.896 -0.1718 -0.6942 -0.5098
  739MOL0     O99665  10.013   5.343   9.856  0.0653  0.5667 -0.6829
  739MOL0     C99666   9.969   5.209   9.887  0.3285  0.3253 -1.3000
  739MOL0     C99667  10.039   5.124   9.781  0.4156  0.5344  0.8909
  739MOL0     C99668  10.194   5.140   9.802 -0.3329 -0.6684  0.8724
  739MOL0     C99669  10.260   5.000   9.804 -0.2001 -0.1962  0.1705
  739MOL0     C99670  10.402   5.017   9.871  1.2833  0.5337  0.3371
  739MOL0     C99671  10.454   4.897   9.946 -0.9343 -0.8028  0.0295
  739MOL0     C99672  10.459   4.759   9.873  0.0190  0.6550  0.4078
  739MOL0     C99673  10.590   4.681   9.918  0.0550 -0.2584 -0.2261
  739MOL0    Cl99674  10.603   4.508   9.872 -0.3131  0.0896  0.0240
  739MOL0     C99675   9.941   5.575   9.844 -0.4143 -0.1442 -0.5968
  739MOL0     C99676   9.857   5.687   9.895 -0.3333  1.0557  1.0435
  739MOL0     O99677   9.586   5.786   9.796  0.3922 -0.7272 -0.3213
  739MOL0     C99678   9.414   5.995   9.856  0.2976 -0.0835 -0.7645
  739MOL0     C99679   9.319   6.091   9.901 -0.7266 -0.2039 -0.9910
  739MOL0     N99680   8.768   5.743  10.163 -0.9021 -0.2206 -0.2194
  739MOL0     N99681   8.785   5.642  10.085 -0.1100 -0.0339  0.3317
  739MOL0     C99682   7.823   5.981   9.285  0.1667 -0.2329 -0.5537
  739MOL0     C99683   7.725   5.946   9.199 -0.2786  1.2271 -1.0351
  739MOL0     C99684   7.444   5.615   9.018 -0.5201  0.5188 -0.3261
  739MOL0     C99685   7.514   5.609   8.897  0.0356  0.4650  0.1609
  739MOL0     C99686   7.478   5.524   8.795  0.3575 -0.6131 -0.9235
  739MOL0     C99687   7.366   5.452   8.805  0.8649 -0.1853  0.2322
  739MOL0     O99688   7.305   5.390   8.693 -0.1645 -0.7592  0.6281
  739MOL0     C99689   7.388   5.360   8.571 -0.6672 -0.5198  0.2697
  739MOL0     C99690   7.349   5.233   8.480  0.2581 -0.8121 -1.2522
  739MOL0     C99691   7.220   5.241   8.402  0.4628 -0.5116  0.6290
  739MOL0     C99692   7.223   5.353   8.292 -0.6123  0.2196 -0.2819
  739MOL0     C99693   7.101   5.360   8.214 -0.2971  0.3523  1.2204
  739MOL0     C99694   6.995   5.358   8.156  0.0645 -1.0548  0.7532
  739MOL0     C99695   7.277   5.472   8.913 -0.1561  0.0122 -1.1645
  739MOL0     C99696   7.327   5.540   9.027 -0.0777 -0.1703 -0.3051
  739MOL0     C99697   7.239   5.527   9.156 -0.0344  0.7191  0.0155
  739MOL0     H99698   7.747   5.611   9.244  3.8217 -0.7611 -0.8231
  739MOL0     H99699   7.908   5.684   9.426 -0.9999  1.1026  2.7367
  739MOL0     H99700   8.160   5.932   9.307  0.2192  0.6776 -0.8052
  739MOL0     H99701   8.098   6.085   9.356  2.2985  0.3438  0.1418
  739MOL0     H99702   8.166   6.027   9.589  0.6515  2.7178 -1.0275
  739MOL0     H99703   8.294   6.060   9.479 -0.2492  0.2590 -1.0353
  739MOL0     H99704   8.326   5.809   9.424  0.9509  0.0704  0.7311
  739MOL0     H99705   8.204   5.777   9.551 -0.1710  1.0386  2.5656
  739MOL0     H99706   8.462   5.925   9.574  0.7269  0.3477  2.4226
  739MOL0     H99707   8.356   5.899   9.712 -0.7560  2.0070 -1.4322
  739MOL0     H99708   8.405   5.665   9.732  3.1706 -3.0171 -0.4065
  739MOL0     H99709   8.483   5.663   9.580 -0.4445 -1.2576  0.4679
  739MOL0     H99710   8.666   5.803   9.675 -0.4565 -0.0755 -0.3558
  739MOL0     H99711   8.582   5.821   9.835  4.1586  0.6739  0.9354
  739MOL0     H99712   8.666   5.543   9.706  0.1555 -1.5686  1.0709
  739MOL0     H99713   8.595   5.576   9.862 -2.4649  3.5535  0.0782
  739MOL0     H99714   8.842   5.519   9.847  0.3843 -0.5613 -2.0535
  739MOL0     H99715   8.847   5.677   9.750 -1.6832  1.0677  0.0529
  739MOL0     H99716   8.900   5.882   9.895 -0.5545 -0.7846  0.0207
  739MOL0     H99717   8.780   6.065  10.109 -1.1070  0.5115  2.7513
  739MOL0     H99718   8.800   5.993  10.261 -0.6456 -1.9112 -0.4380
  739MOL0     H99719   9.033   5.986  10.243  0.0937  1.8898  0.9787
  739MOL0     H99720   9.034   6.004  10.065 -1.3674  0.9017 -0.9345
  739MOL0     H99721   8.934   6.227  10.242 -0.4727  0.0817 -0.3987
  739MOL0     H99722   8.979   6.216  10.068  2.9017 -0.9036 -0.9242
  739MOL0     H99723   9.201   6.188  10.280 -3.3149 -3.6723  1.2623
  739MOL0     H99724   9.122   6.341  10.204 -1.4568 -0.2067 -2.0422
  739MOL0     H99725   9.379   6.082  10.241  1.0844 -3.8117  0.5523
  739MOL0     H99726   9.554   5.924  10.155 -1.0452  0.0074  0.3922
  739MOL0     H99727   9.661   5.518  10.106 -1.2994 -2.0621 -2.8794
  739MOL0     H99728   9.823   5.335  10.051 -0.9111  0.3608  1.8073
  739MOL0     H99729   9.995   5.174   9.987 -1.3033  0.5903 -0.7517
  739MOL0     H99730   9.862   5.193   9.873  0.2762 -1.1887  0.4283
  739MOL0     H99731   9.999   5.024   9.796  1.1034 -0.2365 -1.8588
  739MOL0     H99732  10.009   5.160   9.682 -0.8231  0.1403  1.1011
  739MOL0     H99733  10.227   5.193   9.712  1.9937  4.2329  4.1812
  739MOL0     H99734  10.226   5.193   9.891 -0.5498  0.0320  0.5383
  739MOL0     H99735  10.283   4.969   9.702  0.1358  1.1004 -0.1783
  739MOL0     H99736  10.213   4.923   9.866 -0.5122  0.2027  0.4367
  739MOL0     H99737  10.391   5.084   9.956  2.2783 -1.6644  2.3160
  739MOL0     H99738  10.468   5.066   9.799 -4.0563  1.1734 -4.8995
  739MOL0     H99739  10.556   4.930   9.966 -1.3800  0.9986 -0.4395
  739MOL0     H99740  10.398   4.888  10.039 -2.2412  3.0327 -0.1898
  739MOL0     H99741  10.463   4.768   9.764  2.9975 -4.3085 -0.1570
  739MOL0     H99742  10.370   4.698   9.889  1.3086 -0.9087  2.0562
  739MOL0     H99743  10.674   4.741   9.883 -1.1299  1.0633 -0.9440
  739MOL0     H99744  10.586   4.678  10.027  0.9902 -1.3546 -0.2062
  739MOL0     H99745  10.019   5.604   9.775 -2.4585  1.3158 -2.4213
  739MOL0     H99746   9.886   5.784   9.854  1.6094 -0.4964 -1.5854
  739MOL0     H99747   9.430   5.966   9.753  0.0859  3.1215 -1.7881
  739MOL0     H99748   9.246   6.136   9.835  1.9724  4.4210 -1.1881
  739MOL0     H99749   7.864   6.081   9.294  1.3800 -0.8688  2.0420
  739MOL0     H99750   7.690   6.018   9.126 -1.5781  1.6016 -0.0728
  739MOL0     H99751   7.607   5.665   8.887  0.3885  0.2463  1.9224
  739MOL0     H99752   7.542   5.512   8.709  1.9298 -1.4798  0.3057
  739MOL0     H99753   7.492   5.344   8.602  0.2116  1.0954 -1.6574
  739MOL0     H99754   7.390   5.450   8.509 -1.4465 -0.3826  0.4365
  739MOL0     H99755   7.345   5.142   8.541 -0.6623  0.3242  0.4656
  739MOL0     H99756   7.434   5.214   8.414  1.7767  0.1657  0.3290
  739MOL0     H99757   7.136   5.248   8.471  1.1937 -0.3650  1.5218
  739MOL0     H99758   7.199   5.149   8.346  1.1530 -0.2385 -0.1010
  739MOL0     H99759   7.245   5.455   8.327 -1.7882  0.9110 -1.4903
  739MOL0     H99760   7.299   5.327   8.218 -0.2325  3.3115 -1.1224
  739MOL0     H99761   6.909   5.367   8.092  0.5350  1.2086  0.3453
  739MOL0     H99762   7.183   5.419   8.917  0.8105 -1.7441 -0.2493
  739MOL0     H99763   7.148   5.467   9.144  1.3624 -1.4637 -0.2396
  739MOL0     H99764   7.287   5.486   9.245 -0.2854  0.7261  0.1537
  739MOL0     H99765   7.213   5.629   9.185 -0.1507  0.5950  0.3528
  740MOL0     O99766   2.755  10.862   9.120 -0.0519 -0.0021  0.2136
  740MOL0     C99767   2.755  10.872   8.994 -0.9920 -0.0840 -0.0407
  740MOL0     O99768   2.849  10.939   8.927 -0.9918  0.6778  0.2541
  740MOL0     C99769   2.975  10.960   8.987  1.1610 -0.2326 -0.0566
  740MOL0     C99770   3.042  10.860   9.055 -0.4188  0.6962  0.5263
  740MOL0     C99771   3.178  10.890   9.092  0.8395 -1.2007 -0.6706
  740MOL0     C99772   3.234  11.011   9.079  0.3859 -0.1238 -1.2119
  740MOL0     O99773   3.358  11.019   9.123 -0.7299  0.4692 -0.2298
  740MOL0     C99774   3.412  11.155   9.134  0.0417 -0.0241  0.5850
  740MOL0     C99775   3.552  11.157   9.196  0.2822 -0.2549  0.5407
  740MOL0     C99776   3.555  11.066   9.321  0.1997 -0.8758  0.7399
  740MOL0     C99777   3.689  11.088   9.397 -0.1697 -0.8510  0.0331
  740MOL0     C99778   3.695  11.025   9.532  0.1862  0.6631 -0.9078
  740MOL0     C99779   3.836  11.031   9.601 -0.2691 -1.6245 -0.3240
  740MOL0     C99780   3.821  11.000   9.752 -0.2112 -0.6914 -0.6410
  740MOL0     C99781   3.952  11.012   9.830 -0.1943  0.2057 -0.8911
  740MOL0     N99782   4.068  10.968   9.768  0.5247  0.2160  1.1045
  740MOL0     C99783   4.176  11.049   9.727 -0.2764 -0.3218 -0.1473
  740MOL0     C99784   4.252  10.954   9.656  0.1026  0.2396  0.2481
  740MOL0     C99785   4.390  10.985   9.592 -0.2332 -1.0288 -0.1317
  740MOL0     C99786   4.355  11.027   9.446  0.1122 -0.3159 -0.7311
  740MOL0     C99787   4.287  11.166   9.440  0.3978  0.1991  0.5554
  740MOL0     C99788   4.381  11.274   9.503  0.9783  0.3581 -0.0445
  740MOL0     O99789   4.307  11.398   9.527 -0.7928 -0.7631  0.1230
  740MOL0     C99790   4.384  11.516   9.538 -2.0648  0.2169  0.0303
  740MOL0     C99791   4.323  11.628   9.496  0.4688 -0.3726  0.0441
  740MOL0     C99792   4.400  11.747   9.511 -1.0021  0.3962  0.1455
  740MOL0     C99793   4.529  11.761   9.580 -0.9957 -0.4673 -0.1623
  740MOL0     C99794   4.607  11.888   9.594 -0.3091  1.0261  0.1929
  740MOL0     O99795   4.740  11.883   9.648 -0.0880  0.3273 -0.4716
  740MOL0     C99796   4.794  11.996   9.710 -0.4193  0.1752 -0.8392
  740MOL0     C99797   4.736  12.115   9.739 -0.8043 -1.1949 -0.3820
  740MOL0     C99798   4.824  12.207   9.805 -0.6113 -0.7440  0.7177
  740MOL0     C99799   4.961  12.184   9.839 -0.2247 -0.0974  0.2970
  740MOL0     O99800   5.035  12.287   9.898  0.1005 -0.1106 -0.7804
  740MOL0     C99801   5.180  12.284   9.892 -0.6476  0.4548 -1.5010
  740MOL0     C99802   5.233  12.423   9.934  0.0763  1.1760 -0.2806
  740MOL0     C99803   5.388  12.404   9.946 -0.3179  0.0210  0.0423
  740MOL0     C99804   5.446  12.546   9.988 -0.2922 -0.0157  0.1341
  740MOL0     C99805   5.590  12.523  10.032 -0.4273 -1.4030  0.6622
  740MOL0     C99806   5.702  12.517   9.923  0.5887  0.0082 -1.1800
  740MOL0     C99807   5.835  12.445   9.967 -0.1740 -0.0980 -0.3980
  740MOL0     C99808   5.908  12.529  10.078  0.2492 -0.0198 -0.2957
  740MOL0    Cl99809   5.940  12.698  10.024  0.3944  0.1861 -0.0207
  740MOL0     C99810   5.011  12.059   9.798  0.5868 -0.1624  0.2280
  740MOL0     C99811   4.923  11.962   9.752  0.1501 -0.5845  0.2102
  740MOL0     O99812   4.551  11.991   9.547 -0.2594  0.0996  0.0360
  740MOL0     C99813   4.587  11.636   9.612  0.9654 -0.3865 -0.4967
  740MOL0     C99814   4.511  11.516   9.606  0.6243 -0.6532 -0.2361
  740MOL0     N99815   4.201  10.830   9.670 -0.5332 -0.2760 -0.0301
  740MOL0     N99816   4.094  10.837   9.739  0.3387  0.6409  0.1904
  740MOL0     C99817   3.164  11.112   9.012  0.1463 -0.2562 -0.5069
  740MOL0     C99818   3.041  11.082   8.966  0.9094 -0.4248  0.1296
  740MOL0     C99819   2.641  10.822   8.909 -0.2850 -0.5025 -0.6926
  740MOL0     C99820   2.662  10.798   8.770  0.2849  0.4561  0.0375
  740MOL0     C99821   2.572  10.746   8.684  0.2370  0.0396  0.4235
  740MOL0     C99822   2.455  10.707   8.741  0.5417 -0.1681  0.5275
  740MOL0     O99823   2.360  10.667   8.649 -0.8653 -0.5891  0.9131
  740MOL0     C99824   2.267  10.565   8.688 -0.3826 -0.1541  1.0065
  740MOL0     C99825   2.310  10.436   8.615 -1.1653  0.1624 -0.2224
  740MOL0     C99826   2.425  10.364   8.696 -0.7591  0.3322 -0.0020
  740MOL0     C99827   2.459  10.228   8.628  0.3936  0.0117 -0.2060
  740MOL0     C99828   2.567  10.164   8.697  0.4618 -1.4179  0.0486
  740MOL0     C99829   2.660  10.093   8.722  0.5899  0.6586  0.3187
  740MOL0     C99830   2.420  10.734   8.875  0.7935 -0.8383 -1.0531
  740MOL0     C99831   2.513  10.782   8.962  0.0407  0.2831  0.2499
  740MOL0     C99832   2.478  10.800   9.112 -0.1326  0.3583  0.9745
  740MOL0     H99833   2.985  10.768   9.062  1.9264 -0.7676  2.0125
  740MOL0     H99834   3.233  10.815   9.150  1.7570  0.1549  0.2672
  740MOL0     H99835   3.415  11.207   9.039 -0.7308  0.6423  0.9102
  740MOL0     H99836   3.340  11.212   9.194 -0.7588  0.0319 -0.4046
  740MOL0     H99837   3.585  11.256   9.228 -0.3078 -0.0218  0.4398
  740MOL0     H99838   3.627  11.114   9.130  0.8506 -0.1833  1.1277
  740MOL0     H99839   3.542  10.963   9.288 -2.7810  0.2033 -2.1224
  740MOL0     H99840   3.472  11.102   9.383 -0.2910  0.0292 -0.3995
  740MOL0     H99841   3.769  11.037   9.342  1.4294  0.2153  1.2443
  740MOL0     H99842   3.714  11.195   9.403  2.7497 -1.5176  2.1085
  740MOL0     H99843   3.616  11.071   9.592 -0.1554  0.5701 -1.2835
  740MOL0     H99844   3.659  10.922   9.525  1.2786  0.2601 -0.8763
  740MOL0     H99845   3.905  10.966   9.547  0.0209 -1.5538 -0.0424
  740MOL0     H99846   3.880  11.131   9.590 -0.4874 -1.7020 -2.1126
  740MOL0     H99847   3.793  10.895   9.760  1.8604 -1.2456 -0.0477
  740MOL0     H99848   3.751  11.068   9.802  1.8156  1.0512  0.0018
  740MOL0     H99849   3.978  11.117   9.846 -0.5999  0.2128 -0.2359
  740MOL0     H99850   3.944  10.959   9.925 -0.2796  0.6171 -0.6691
  740MOL0     H99851   4.198  11.151   9.755  0.7496 -0.3854 -0.6590
  740MOL0     H99852   4.445  11.058   9.653 -0.0533 -0.8198 -0.5360
  740MOL0     H99853   4.451  10.894   9.594 -1.9435 -2.3225 -2.1731
  740MOL0     H99854   4.452  11.032   9.396 -0.8322  2.6106 -2.5316
  740MOL0     H99855   4.301  10.947   9.394  0.9739  0.0537 -2.2641
  740MOL0     H99856   4.183  11.179   9.472 -0.7041  0.9939 -2.9334
  740MOL0     H99857   4.280  11.202   9.337 -1.7701 -1.0328  0.2073
  740MOL0     H99858   4.462  11.288   9.430  1.3835 -0.5789  0.2089
  740MOL0     H99859   4.422  11.239   9.598  2.1108 -2.0561 -1.3174
  740MOL0     H99860   4.231  11.628   9.438  0.5228 -3.6401 -0.2424
  740MOL0     H99861   4.362  11.832   9.455  0.6177 -0.7025 -2.8277
  740MOL0     H99862   4.634  12.132   9.707  0.1253  0.6415 -2.7386
  740MOL0     H99863   4.781  12.301   9.839  0.4081 -1.3744  4.1482
  740MOL0     H99864   5.213  12.213   9.968  0.7163  0.7835 -1.7640
  740MOL0     H99865   5.213  12.244   9.796 -2.6725 -1.2282 -1.5830
  740MOL0     H99866   5.199  12.503   9.869 -1.8924  1.5096  1.0823
  740MOL0     H99867   5.187  12.437  10.033  2.3848 -0.3688  1.1054
  740MOL0     H99868   5.417  12.323  10.013 -1.9283 -0.6411 -0.0239
  740MOL0     H99869   5.438  12.383   9.851  0.7086  2.2261  0.0124
  740MOL0     H99870   5.388  12.580  10.075  0.0942 -2.7191  1.5640
  740MOL0     H99871   5.430  12.608   9.900 -0.0845 -2.7650 -1.9857
  740MOL0     H99872   5.593  12.434  10.095 -0.2431  1.4559  5.0646
  740MOL0     H99873   5.612  12.609  10.095 -2.8647  1.5346 -2.1743
  740MOL0     H99874   5.665  12.480   9.827 -0.5867  0.1148 -0.7791
  740MOL0     H99875   5.726  12.623   9.906  0.0702  0.3657  0.1805
  740MOL0     H99876   5.899  12.443   9.879 -0.7966 -1.1279 -0.8521
  740MOL0     H99877   5.823  12.341  10.000 -2.2712  0.7129  1.7033
  740MOL0     H99878   5.853  12.517  10.172  1.4874  2.2621  0.8179
  740MOL0     H99879   6.010  12.490  10.088  0.5060  0.4841 -0.8984
  740MOL0     H99880   5.118  12.050   9.810  0.3143 -1.2632  2.2269
  740MOL0     H99881   4.958  11.861   9.732 -0.7946 -0.6450 -1.2438
  740MOL0     H99882   4.680  11.634   9.667  0.6857 -2.2221 -0.0281
  740MOL0     H99883   4.545  11.429   9.661  0.8018  1.0910  2.6657
  740MOL0     H99884   3.199  11.214   9.005 -3.1896  0.9030 -1.8470
  740MOL0     H99885   2.986  11.164   8.920  0.3422  0.4816  2.2772
  740MOL0     H99886   2.758  10.829   8.731  1.3148  0.9879  2.7717
  740MOL0     H99887   2.589  10.726   8.579 -1.1081 -0.7438  0.3271
  740MOL0     H99888   2.171  10.598   8.647 -1.7048 -0.5002  3.6027
  740MOL0     H99889   2.257  10.557   8.796  0.1266  0.0078  1.0666
  740MOL0     H99890   2.336  10.446   8.509 -2.4803 -1.6689 -0.7659
  740MOL0     H99891   2.229  10.363   8.613 -0.5017 -0.5839 -1.6911
  740MOL0     H99892   2.403  10.349   8.802  1.1490 -3.0833  0.0314
  740MOL0     H99893   2.515  10.426   8.696 -1.0978  1.0252  3.5835
  740MOL0     H99894   2.379  10.155   8.643  2.8535 -2.2643  3.6691
  740MOL0     H99895   2.475  10.248   8.521 -1.5915 -1.7771 -0.9042
  740MOL0     H99896   2.754  10.044   8.736  0.8546  0.9607 -0.3705
  740MOL0     H99897   2.325  10.713   8.924 -0.1336  4.2123 -0.1390
  740MOL0     H99898   2.476  10.904   9.144  0.4066  1.3873 -2.0502
  740MOL0     H99899   2.389  10.752   9.154  0.1417  1.2140  2.6164
  740MOL0     H99900   2.560  10.745   9.161  0.6683 -0.5506 -1.2344
  741MOL0     O99901   1.498   0.853   6.282 -0.3100  0.3704  0.3194
  741MOL0     C99902   1.417   0.777   6.228 -0.6426  0.4090  0.2732
  741MOL0     O99903   1.436   0.643   6.210  0.6481  1.1077 -0.8845
  741MOL0     C99904   1.553   0.598   6.263  0.5561 -0.0818  0.5893
  741MOL0     C99905   1.668   0.602   6.184 -0.4608  0.2089 -0.3002
  741MOL0     C99906   1.787   0.541   6.225 -0.4516  0.2530 -1.2921
  741MOL0     C99907   1.805   0.485   6.344  0.4487 -0.0641 -0.1903
  741MOL0     O99908   1.929   0.433   6.366  0.4365 -0.2014  0.2930
  741MOL0     C99909   1.945   0.344   6.484  0.0560  1.3374 -0.0613
  741MOL0     C99910   2.003   0.423   6.598  0.1024 -0.4650 -0.5830
  741MOL0     C99911   2.002   0.343   6.739 -0.5011  0.1508  0.6954
  741MOL0     C99912   2.122   0.370   6.822 -0.4955 -0.0086 -0.7430
  741MOL0     C99913   2.108   0.281   6.942  0.2233 -0.1484 -0.0598
  741MOL0     C99914   2.207   0.307   7.056 -0.3680  0.0648  0.7457
  741MOL0     C99915   2.200   0.196   7.155  0.0058  0.0348 -0.5776
  741MOL0     C99916   2.064   0.179   7.217 -0.5203  0.2296 -0.8299
  741MOL0     N99917   2.017   0.294   7.286 -0.2978 -0.4662  0.2800
  741MOL0     C99918   1.900   0.352   7.267  0.0183 -0.9632  0.5721
  741MOL0     C99919   1.885   0.447   7.368 -0.1338 -0.1993  0.5481
  741MOL0     C99920   1.770   0.545   7.395 -0.1500  0.1219  0.3394
  741MOL0     C99921   1.661   0.464   7.470  0.1394 -0.0851 -0.0675
  741MOL0     C99922   1.675   0.460   7.626  0.8521  0.2480 -0.9373
  741MOL0     C99923   1.632   0.322   7.687  0.1773 -0.4227 -0.0071
  741MOL0     O99924   1.692   0.297   7.820 -0.9648  0.8872 -0.0655
  741MOL0     C99925   1.827   0.252   7.835 -0.4854 -0.0770  0.4611
  741MOL0     C99926   1.915   0.200   7.736 -0.4534  0.0627  0.7128
  741MOL0     C99927   2.045   0.159   7.758 -0.6536 -0.4355  0.5169
  741MOL0     C99928   2.093   0.178   7.891  1.4399 -0.2260  0.4291
  741MOL0     C99929   2.230   0.150   7.915 -0.4553  0.3053  0.2353
  741MOL0     O99930   2.328   0.163   7.819  0.2981 -1.1398  0.6874
  741MOL0     C99931   2.460   0.131   7.836 -0.4578 -0.2500 -0.6435
  741MOL0     C99932   2.525   0.071   7.950 -0.2837  0.1119  0.5448
  741MOL0     C99933   2.661   0.081   7.961 -0.6605  0.0869  0.2561
  741MOL0     C99934   2.728   0.130   7.851 -0.3261  1.4002 -0.1742
  741MOL0     O99935   2.869   0.148   7.864 -0.4614  0.2163  1.3588
  741MOL0     C99936   2.909   0.221   7.981 -0.6757 -0.2652  0.0130
  741MOL0     C99937   3.057   0.267   7.976  0.4041 -0.1954  0.5086
  741MOL0     C99938   3.137   0.287   8.099 -0.6480  0.4475 -0.4494
  741MOL0     C99939   3.292   0.283   8.071  0.3414 -0.1532 -0.5264
  741MOL0     C99940   3.364   0.292   8.202 -0.7910 -0.1794 -0.1408
  741MOL0     C99941   3.513   0.262   8.190 -0.5437  0.8783 -0.3050
  741MOL0     C99942   3.589   0.273   8.324 -0.0205 -1.1212  0.9070
  741MOL0     C99943   3.728   0.211   8.317 -0.0237 -0.5202 -0.5742
  741MOL0    Cl99944   3.805   0.248   8.479 -0.1906 -0.2086  0.2991
  741MOL0     C99945   2.667   0.174   7.736  0.3433 -0.8407  0.2662
  741MOL0     C99946   2.532   0.182   7.722 -0.2656  1.1995 -0.0329
  741MOL0     O99947   2.247   0.103   8.029  0.1204  0.2329 -0.4731
  741MOL0     C99948   2.002   0.229   7.995  0.7466 -0.1169  0.2486
  741MOL0     C99949   1.867   0.257   7.966  0.0768  0.9638 -0.5247
  741MOL0     N99950   2.001   0.439   7.443 -0.3099 -0.3039 -0.7126
  741MOL0     N99951   2.081   0.352   7.395  0.5438  0.4562  1.0772
  741MOL0     C99952   1.686   0.479   6.426 -0.0867  0.3316 -0.0701
  741MOL0     C99953   1.559   0.540   6.385 -0.4302  1.4491 -0.0333
  741MOL0     C99954   1.295   0.836   6.169 -0.1334  0.2754 -0.6219
  741MOL0     C99955   1.190   0.736   6.149  0.1848  0.2427 -0.3066
  741MOL0     C99956   1.066   0.780   6.098 -0.8425  0.3126  0.5844
  741MOL0     C99957   1.050   0.918   6.069  0.9225  1.1051 -0.7741
  741MOL0     O99958   0.935   0.968   6.016  0.3531  0.1275  0.3416
  741MOL0     C99959   0.828   0.882   5.980  0.7694 -0.0181 -0.1291
  741MOL0     C99960   0.746   0.961   5.877  0.7277 -0.3742  0.8474
  741MOL0     C99961   0.730   1.103   5.925 -0.3614 -0.2539  0.3363
  741MOL0     C99962   0.605   1.156   5.842  0.1501 -0.6288 -0.2092
  741MOL0     C99963   0.476   1.111   5.896 -0.4456 -0.4901  0.4881
  741MOL0     C99964   0.360   1.097   5.916 -0.2223 -0.2175  0.5162
  741MOL0     C99965   1.142   1.010   6.102 -0.0440 -0.6271  0.3090
  741MOL0     C99966   1.269   0.978   6.142 -0.6758  0.0692 -0.0652
  741MOL0     C99967   1.367   1.088   6.155 -0.4933 -0.7696  0.3552
  741MOL0     H99968   1.676   0.644   6.084  0.7194  1.7036  0.3745
  741MOL0     H99969   1.876   0.541   6.162 -0.3047  0.0867 -1.0881
  741MOL0     H99970   1.854   0.294   6.518  0.7963 -0.2525 -0.3344
  741MOL0     H99971   2.014   0.260   6.474  2.0875  2.5242  2.7366
  741MOL0     H99972   1.960   0.524   6.605 -0.4665 -0.6574 -1.1785
  741MOL0     H99973   2.106   0.431   6.563  0.2660  0.0489 -0.0009
  741MOL0     H99974   1.983   0.235   6.728 -0.0837 -0.0243  1.6564
  741MOL0     H99975   1.917   0.381   6.796  1.7321  3.1473  2.2507
  741MOL0     H99976   2.201   0.342   6.751  1.5101 -0.2531  1.4702
  741MOL0     H99977   2.126   0.473   6.860  1.7716 -0.8740  1.6522
  741MOL0     H99978   2.007   0.289   6.981  0.4812 -1.3796  0.9202
  741MOL0     H99979   2.115   0.177   6.909  1.0230 -0.1885  0.2050
  741MOL0     H99980   2.307   0.323   7.015 -0.7667  1.5134  0.2870
  741MOL0     H99981   2.175   0.400   7.104 -1.2395  1.9477 -3.0443
  741MOL0     H99982   2.273   0.215   7.234 -0.6817 -0.3010  0.1500
  741MOL0     H99983   2.227   0.100   7.110 -1.4318 -1.9326  2.3884
  741MOL0     H99984   1.985   0.150   7.146 -1.4549 -2.3247  1.1155
  741MOL0     H99985   2.068   0.098   7.289  0.3256  0.2196 -0.8795
  741MOL0     H99986   1.843   0.340   7.175  3.1764  1.2408 -1.8829
  741MOL0     H99987   1.808   0.629   7.455  3.6351  0.7150 -2.4754
  741MOL0     H99988   1.732   0.603   7.310  1.0209  1.6499  0.7977
  741MOL0     H99989   1.563   0.509   7.450 -0.8688 -0.1252  3.9340
  741MOL0     H99990   1.656   0.363   7.430  0.5522 -0.5033  0.9088
  741MOL0     H99991   1.615   0.538   7.673 -3.0332 -2.1300 -1.4559
  741MOL0     H99992   1.782   0.470   7.643  0.9901  1.7378 -2.4185
  741MOL0     H99993   1.650   0.240   7.617 -0.5866 -0.5165 -0.1036
  741MOL0     H99994   1.525   0.343   7.699  0.2262  2.3525 -2.9824
  741MOL0     H99995   1.892   0.183   7.632 -0.0872  3.5600 -0.0774
  741MOL0     H99996   2.103   0.120   7.675  0.2984 -1.7166  1.7391
  741MOL0     H99997   2.462   0.035   8.031 -1.6821  1.9727  0.3658
  741MOL0     H99998   2.708   0.042   8.050  1.8935  2.5490  0.1420
  741MOL0     H99999   2.856   0.315   7.996  1.4996  1.4121 -1.9725
  741MOL0     H    0   2.896   0.162   8.072 -1.6519  1.8568  1.3089
  741MOL0     H    1   3.104   0.191   7.913  0.4799  1.4907 -1.5890
  741MOL0     H    2   3.061   0.362   7.922  0.4232 -0.1354  0.6158
  741MOL0     H    3   3.117   0.380   8.153  0.6116  0.2276  0.4461
  741MOL0     H    4   3.115   0.209   8.172  3.0138 -0.9545 -0.6280
  741MOL0     H    5   3.314   0.362   7.999  2.1183  0.2934  0.4384
  741MOL0     H    6   3.317   0.187   8.026 -0.8670 -0.6389 -0.2040
  741MOL0     H    7   3.320   0.218   8.269  1.5232 -0.3403  1.3047
  741MOL0     H    8   3.334   0.384   8.253 -3.2002 -2.8703  3.8293
  741MOL0     H    9   3.532   0.165   8.143  0.4130  0.7858  0.2332
  741MOL0     H   10   3.543   0.349   8.131 -0.8371 -0.7932 -3.1083
  741MOL0     H   11   3.519   0.230   8.396  0.7347 -0.8618  1.8111
  741MOL0     H   12   3.590   0.378   8.353 -0.6341 -0.9681  0.4013
  741MOL0     H   13   3.722   0.103   8.298 -0.1578 -0.0357 -3.9098
  741MOL0     H   14   3.769   0.270   8.235  0.3439  1.7357  1.1385
  741MOL0     H   15   2.717   0.216   7.650  0.3694 -0.9989  0.2038
  741MOL0     H   16   2.495   0.228   7.631  0.0339 -0.2176 -0.9142
  741MOL0     H   17   2.049   0.237   8.093  2.0746  0.2090 -0.3923
  741MOL0     H   18   1.795   0.288   8.040 -2.3620 -1.2159 -1.8383
  741MOL0     H   19   1.685   0.427   6.520  0.9816  1.0780  0.3746
  741MOL0     H   20   1.471   0.527   6.446  1.0994 -3.1912  1.6489
  741MOL0     H   21   1.199   0.628   6.164  2.4615  0.5110  0.6992
  741MOL0     H   22   1.004   0.693   6.076  0.1357 -1.1066  2.9905
  741MOL0     H   23   0.771   0.854   6.070  0.4837  1.9781  0.3522
  741MOL0     H   24   0.855   0.791   5.926  1.0606  1.1490 -2.0230
  741MOL0     H   25   0.654   0.903   5.868 -0.8847  2.3541 -3.5123
  741MOL0     H   26   0.798   0.965   5.781  0.8548  2.7864  0.9293
  741MOL0     H   27   0.824   1.154   5.902 -0.3810 -0.1721  0.4378
  741MOL0     H   28   0.701   1.085   6.029 -2.2688 -2.7630 -0.5251
  741MOL0     H   29   0.612   1.265   5.840 -0.9764 -0.5347  0.1274
  741MOL0     H   30   0.616   1.124   5.738  1.7587  3.5475 -1.5115
  741MOL0     H   31   0.258   1.070   5.934 -0.0475 -2.3789 -1.2490
  741MOL0     H   32   1.128   1.116   6.085  3.7556  0.0419  0.5739
  741MOL0     H   33   1.382   1.116   6.259 -1.6457 -1.4825  0.7338
  741MOL0     H   34   1.468   1.056   6.127  0.3709  0.1322  2.2975
  741MOL0     H   35   1.335   1.174   6.095  2.4912  0.2788  0.1315
  742MOL0     O   36  11.392   5.817   3.528 -0.5215 -0.4683 -0.0215
  742MOL0     C   37  11.307   5.905   3.520  0.2511 -0.1776  0.3446
  742MOL0     O   38  11.323   6.035   3.478  0.2989  0.6184  0.3922
  742MOL0     C   39  11.422   6.050   3.388 -0.5394  0.0458  0.3509
  742MOL0     C   40  11.539   6.095   3.436  0.7079  0.2170  0.2127
  742MOL0     C   41  11.645   6.134   3.351 -0.2567 -0.0054  0.9087
  742MOL0     C   42  11.626   6.146   3.211 -0.6146 -0.0299  0.6308
  742MOL0     O   43  11.717   6.199   3.126 -0.3773 -0.5763 -0.1889
  742MOL0     C   44  11.853   6.151   3.135 -0.3780  0.1696  0.3346
  742MOL0     C   45  11.945   6.219   3.023  0.0677  0.1678  0.0766
  742MOL0     C   46  11.947   6.378   3.041  0.1956  0.5807  0.3303
  742MOL0     C   47  11.995   6.449   2.915 -0.2298 -0.0749 -0.2781
  742MOL0     C   48  11.899   6.557   2.868 -0.8070  0.5689  0.1784
  742MOL0     C   49  11.952   6.611   2.733  0.2629  0.6472 -0.4105
  742MOL0     C   50  11.866   6.731   2.685 -0.2127 -0.7177  1.2993
  742MOL0     C   51  11.891   6.859   2.764  0.2664 -0.4100 -0.9446
  742MOL0     N   52  11.833   6.983   2.707  0.9987 -1.5624 -0.2301
  742MOL0     C   53  11.912   7.084   2.641  0.1881 -0.5111  0.7613
  742MOL0     C   54  11.822   7.192   2.620 -0.4866 -0.1297  0.3567
  742MOL0     C   55  11.848   7.336   2.577  0.3567  0.1133 -0.4830
  742MOL0     C   56  11.811   7.347   2.435 -0.0334 -0.8705  0.4930
  742MOL0     C   57  11.659   7.364   2.412 -0.2221  0.3263  0.6218
  742MOL0     C   58  11.625   7.362   2.263  0.7655 -0.3991 -0.4910
  742MOL0     O   59  11.677   7.477   2.192  0.1103 -0.7963 -0.3185
  742MOL0     C   60  11.646   7.482   2.059  1.1670  0.5082  0.2408
  742MOL0     C   61  11.549   7.396   1.991  0.5575 -1.0685 -0.1557
  742MOL0     C   62  11.527   7.419   1.851 -0.4266 -0.4015  1.1412
  742MOL0     C   63  11.603   7.520   1.777  0.0180 -0.3501 -0.6134
  742MOL0     C   64  11.571   7.547   1.633  0.0947 -0.2491  0.1983
  742MOL0     O   65  11.676   7.620   1.562  0.3168 -0.1245 -0.3247
  742MOL0     C   66  11.640   7.691   1.447  0.4292 -0.7683 -0.2374
  742MOL0     C   67  11.661   7.829   1.454  0.9466  0.5705 -0.5465
  742MOL0     C   68  11.622   7.902   1.339 -0.8881 -0.0484 -0.3938
  742MOL0     C   69  11.594   7.845   1.222 -0.1497 -0.5197  0.4254
  742MOL0     O   70  11.584   7.921   1.105  0.4730 -0.2080 -0.0220
  742MOL0     C   71  11.555   8.063   1.120 -0.0917  0.5237 -0.3003
  742MOL0     C   72  11.512   8.131   0.991 -0.2829 -0.0331  0.9694
  742MOL0     C   73  11.358   8.127   0.972  0.3299  0.6736 -0.4897
  742MOL0     C   74  11.292   8.159   0.841  0.0984 -0.1904  0.0602
  742MOL0     C   75  11.149   8.112   0.853 -0.1703  0.3363 -0.1863
  742MOL0     C   76  11.073   8.108   0.726 -0.1727 -0.1133  0.7067
  742MOL0     C   77  11.081   8.236   0.644 -0.1306 -0.5591 -0.9645
  742MOL0     C   78  10.966   8.244   0.542  0.1199  0.0266  0.5267
  742MOL0    Cl   79  10.973   8.420   0.478 -0.0057  0.1902  0.4841
  742MOL0     C   80  11.573   7.714   1.215 -0.5166 -0.0805 -0.3837
  742MOL0     C   81  11.588   7.640   1.333  0.1091  1.2947 -0.0119
  742MOL0     O   82  11.464   7.523   1.588 -0.2845  0.2418  0.0374
  742MOL0     C   83  11.700   7.597   1.851  0.5201 -0.9481 -0.1318
  742MOL0     C   84  11.721   7.580   1.985 -0.5207 -0.4554 -1.4698
  742MOL0     N   85  11.694   7.150   2.668  0.0944 -0.1402 -0.5420
  742MOL0     N   86  11.700   7.032   2.714 -0.3041  0.4147  0.5228
  742MOL0     C   87  11.502   6.099   3.158 -0.5311 -0.3076 -0.6320
  742MOL0     C   88  11.405   6.047   3.251 -0.4195 -0.2315 -0.3015
  742MOL0     C   89  11.159   5.877   3.551  0.4253 -0.3602  0.6763
  742MOL0     C   90  11.058   5.967   3.496 -0.9904  0.5745 -0.0991
  742MOL0     C   91  10.915   5.938   3.509  0.3708 -0.3972 -0.0254
  742MOL0     C   92  10.877   5.818   3.573 -0.8057  0.4782  0.5043
  742MOL0     O   93  10.740   5.802   3.601  0.5039  0.4923 -0.3547
  742MOL0     C   94  10.686   5.680   3.649  0.4229 -0.1766 -0.2091
  742MOL0     C   95  10.545   5.678   3.613  0.0242  0.2121  0.9624
  742MOL0     C   96  10.477   5.542   3.636 -0.0470 -0.1766  0.1743
  742MOL0     C   97  10.444   5.512   3.785  0.1074  0.8483  1.2656
  742MOL0     C   98  10.560   5.471   3.865 -0.1620 -1.1334 -0.8927
  742MOL0     C   99  10.666   5.450   3.923 -1.0106  0.7357  0.1115
  742MOL0     C  100  10.970   5.725   3.615  0.5474  0.1727  0.2374
  742MOL0     C  101  11.114   5.747   3.616  0.0876  0.6030  0.7511
  742MOL0     C  102  11.195   5.643   3.687 -0.0993  0.5395  0.9737
  742MOL0     H  103  11.542   6.092   3.545  1.8085  5.1678  0.5549
  742MOL0     H  104  11.735   6.156   3.408  2.0716 -2.6662 -1.4187
  742MOL0     H  105  11.896   6.172   3.233 -1.0348 -0.0538  0.6792
  742MOL0     H  106  11.856   6.042   3.125 -1.3187 -0.0699  2.1505
  742MOL0     H  107  11.927   6.177   2.924 -1.4937 -0.1939  0.4872
  742MOL0     H  108  12.047   6.189   3.051  0.1759 -0.2167 -0.7155
  742MOL0     H  109  12.009   6.402   3.127 -0.2062 -0.2306  0.8548
  742MOL0     H  110  11.847   6.421   3.055 -0.2816  0.0062 -1.1197
  742MOL0     H  111  12.092   6.492   2.940 -0.2734 -0.1482  0.0186
  742MOL0     H  112  12.005   6.375   2.835 -0.5327  0.0246 -0.4109
  742MOL0     H  113  11.796   6.522   2.860  0.4966 -3.3565 -2.2659
  742MOL0     H  114  11.904   6.640   2.939  1.3087  1.6740 -1.1619
  742MOL0     H  115  12.058   6.638   2.737  0.6767 -0.6046 -1.9688
  742MOL0     H  116  11.939   6.529   2.661  0.8185 -0.3972  0.6363
  742MOL0     H  117  11.758   6.720   2.678 -0.3573  1.4494 -1.5760
  742MOL0     H  118  11.900   6.743   2.582 -0.1600 -1.9191  1.1678
  742MOL0     H  119  11.857   6.848   2.868  2.0547 -3.6214 -0.5710
  742MOL0     H  120  11.999   6.875   2.768  0.5165 -2.1031  0.2180
  742MOL0     H  121  12.017   7.099   2.622 -0.3709  1.2207 -1.3622
  742MOL0     H  122  11.786   7.404   2.636 -0.3861 -2.0767  1.4360
  742MOL0     H  123  11.954   7.357   2.593  1.0987 -1.6270 -2.5760
  742MOL0     H  124  11.866   7.434   2.397  3.1186 -2.5952  0.8581
  742MOL0     H  125  11.841   7.253   2.388 -1.1669 -1.3136  0.6213
  742MOL0     H  126  11.635   7.458   2.461  0.6656 -0.7918  3.4294
  742MOL0     H  127  11.616   7.276   2.462  0.7111 -0.7047 -0.3083
  742MOL0     H  128  11.516   7.358   2.259  0.5708  2.7140 -0.5951
  742MOL0     H  129  11.671   7.268   2.230  0.6170 -0.5693 -0.2177
  742MOL0     H  130  11.486   7.332   2.052  0.7280  0.7114  1.9919
  742MOL0     H  131  11.448   7.361   1.804 -2.3239  0.2125  3.3924
  742MOL0     H  132  11.683   7.885   1.544 -1.0964  0.2527  0.2124
  742MOL0     H  133  11.648   8.006   1.355 -2.1535  0.2452 -0.1392
  742MOL0     H  134  11.477   8.078   1.195 -0.7701 -0.9956 -0.6629
  742MOL0     H  135  11.642   8.117   1.158 -1.4057  1.1620  1.9747
  742MOL0     H  136  11.534   8.238   0.984  0.0609 -0.1802 -0.8558
  742MOL0     H  137  11.583   8.086   0.921  2.8129  1.8506  2.6454
  742MOL0     H  138  11.324   8.025   0.992  0.0235  1.3275  2.8824
  742MOL0     H  139  11.306   8.182   1.051 -0.0020 -0.8162  0.3820
  742MOL0     H  140  11.353   8.110   0.765  0.0641  0.1589 -0.1988
  742MOL0     H  141  11.304   8.266   0.820  3.5783 -0.0141  2.2437
  742MOL0     H  142  11.098   8.167   0.932 -0.8382 -2.2574  1.3177
  742MOL0     H  143  11.159   8.011   0.893  1.4684  0.3933 -0.3749
  742MOL0     H  144  11.107   8.027   0.661 -1.7339 -0.6005  0.4548
  742MOL0     H  145  10.970   8.084   0.753 -0.3179 -0.2090  0.0873
  742MOL0     H  146  11.180   8.261   0.604  0.2281  1.5026  1.0029
  742MOL0     H  147  11.068   8.315   0.718  2.7434 -0.2935 -0.6225
  742MOL0     H  148  10.993   8.160   0.477  3.0858  2.5277 -1.7528
  742MOL0     H  149  10.868   8.223   0.586 -0.1886  0.6374  0.1456
  742MOL0     H  150  11.554   7.672   1.117  0.9965  2.5059 -1.9222
  742MOL0     H  151  11.563   7.535   1.327 -1.5019  1.6940 -1.2432
  742MOL0     H  152  11.747   7.673   1.790 -3.2490 -0.6967 -3.0838
  742MOL0     H  153  11.794   7.639   2.040 -0.0835 -1.2006 -1.2320
  742MOL0     H  154  11.486   6.117   3.052 -0.5188  1.6461 -0.3493
  742MOL0     H  155  11.309   6.027   3.205 -0.7787  0.6676  0.0371
  742MOL0     H  156  11.088   6.050   3.432 -0.2436 -0.6369 -1.3897
  742MOL0     H  157  10.838   6.007   3.478  1.5856  0.5512 -1.0718
  742MOL0     H  158  10.701   5.674   3.757 -0.1927 -4.8270 -0.2018
  742MOL0     H  159  10.735   5.597   3.599 -2.4609 -3.2815  1.6894
  742MOL0     H  160  10.547   5.700   3.506  0.3703  2.4172  1.3783
  742MOL0     H  161  10.490   5.754   3.669  0.4678  0.0340  1.6499
  742MOL0     H  162  10.547   5.469   3.595 -1.9204 -1.9084 -0.0870
  742MOL0     H  163  10.390   5.543   3.569  1.0978  2.2436 -1.4205
  742MOL0     H  164  10.414   5.610   3.824  0.0403  1.9797 -1.4107
  742MOL0     H  165  10.365   5.436   3.780  1.0880 -0.1057 -0.2990
  742MOL0     H  166  10.752   5.418   3.979 -0.6425  1.7418  0.1304
  742MOL0     H  167  10.925   5.646   3.674 -4.2684  1.5642 -1.1795
  742MOL0     H  168  11.245   5.690   3.772  0.9090  1.3498 -0.0391
  742MOL0     H  169  11.136   5.564   3.734  1.4912 -0.5774  1.1811
  742MOL0     H  170  11.265   5.590   3.622  0.2324  2.7096 -0.5271
  743MOL0     O  171   6.805   6.077   4.934 -0.1147  0.4196  0.9331
  743MOL0     C  172   6.691   6.106   4.902  0.5675 -0.2181 -0.0605
  743MOL0     O  173   6.647   6.236   4.894  0.3044  0.0450 -0.0498
  743MOL0     C  174   6.734   6.334   4.944 -0.5315  0.3303 -0.3633
  743MOL0     C  175   6.688   6.397   5.058 -1.1254 -0.4891  0.1531
  743MOL0     C  176   6.780   6.492   5.114 -0.1631  0.4619 -0.0234
  743MOL0     C  177   6.906   6.526   5.054 -0.0286  0.0631  0.1826
  743MOL0     O  178   6.987   6.626   5.112  0.0175  0.5321  0.2695
  743MOL0     C  179   7.085   6.680   5.022  0.9473  0.2651 -0.0222
  743MOL0     C  180   7.185   6.755   5.109 -0.7228  0.2659  0.4184
  743MOL0     C  181   7.145   6.897   5.152  0.5657 -1.0613 -0.8978
  743MOL0     C  182   7.266   6.975   5.222 -0.5684  0.4661  0.1239
  743MOL0     C  183   7.202   7.099   5.293 -0.2717 -0.6099 -0.4747
  743MOL0     C  184   7.293   7.200   5.362  0.8500  0.4089 -0.6269
  743MOL0     C  185   7.391   7.134   5.461 -1.0703 -0.4351 -0.5281
  743MOL0     C  186   7.325   7.071   5.588 -0.2273 -0.8814  0.2182
  743MOL0     N  187   7.430   7.027   5.686  0.8821 -0.9894 -0.0354
  743MOL0     C  188   7.537   6.948   5.662 -0.7620 -0.1789  0.8534
  743MOL0     C  189   7.580   6.920   5.793 -0.4226 -0.1372  1.6451
  743MOL0     C  190   7.689   6.823   5.830  0.1096  0.3490  0.6729
  743MOL0     C  191   7.643   6.748   5.956 -0.4862 -0.5888  1.2070
  743MOL0     C  192   7.668   6.821   6.083  1.4191 -0.9820 -0.3774
  743MOL0     C  193   7.568   6.790   6.191 -0.3502 -0.4897 -0.3301
  743MOL0     O  194   7.614   6.846   6.318  0.3942 -0.1575  0.8057
  743MOL0     C  195   7.683   6.761   6.393  0.4983  0.3512 -0.0226
  743MOL0     C  196   7.612   6.672   6.481  0.9677  0.0196  0.1402
  743MOL0     C  197   7.687   6.569   6.546 -0.6993 -0.5529  0.1055
  743MOL0     C  198   7.826   6.559   6.524  0.4390 -0.5033  0.6259
  743MOL0     C  199   7.913   6.455   6.598 -1.1862  0.4169  0.0441
  743MOL0     O  200   7.847   6.351   6.647  0.7489 -0.3777  0.2035
  743MOL0     C  201   7.903   6.233   6.692 -0.5181 -0.0478 -0.5212
  743MOL0     C  202   7.841   6.156   6.793 -0.8157 -0.8252 -0.6481
  743MOL0     C  203   7.908   6.051   6.864 -0.0846 -0.5553 -0.2293
  743MOL0     C  204   8.038   6.020   6.832 -0.1459  0.8795  0.3316
  743MOL0     O  205   8.093   5.909   6.900  0.5365 -0.3014 -0.4480
  743MOL0     C  206   8.225   5.872   6.862 -0.7873  0.7741  0.8393
  743MOL0     C  207   8.270   5.746   6.933  0.1280  1.0508  0.7191
  743MOL0     C  208   8.230   5.613   6.855  0.3308 -0.6126 -1.0977
  743MOL0     C  209   8.267   5.489   6.938  0.5853  0.6650  0.0610
  743MOL0     C  210   8.218   5.366   6.858  0.1515  0.0860 -0.0791
  743MOL0     C  211   8.254   5.236   6.931 -0.2372 -0.4251  0.4449
  743MOL0     C  212   8.279   5.123   6.831 -0.2800 -0.0765  0.1767
  743MOL0     C  213   8.377   5.015   6.879  0.5243 -0.3357  0.0037
  743MOL0    Cl  214   8.552   5.078   6.883  0.3206 -0.2280 -0.1042
  743MOL0     C  215   8.104   6.092   6.722  0.5255 -0.7895 -0.2890
  743MOL0     C  216   8.040   6.203   6.658  0.4051  0.9491 -0.8166
  743MOL0     O  217   8.029   6.484   6.618  0.4305  0.0061  1.0256
  743MOL0     C  218   7.891   6.656   6.451 -0.2971  0.0501 -1.1545
  743MOL0     C  219   7.825   6.761   6.386 -0.4682 -0.1475 -0.2699
  743MOL0     N  220   7.496   6.988   5.882 -0.1158  0.4861 -0.3119
  743MOL0     N  221   7.414   7.053   5.819 -0.9302  0.5502  0.4095
  743MOL0     C  222   6.930   6.468   4.922 -0.6608  0.2170 -0.0348
  743MOL0     C  223   6.848   6.364   4.881 -0.2199  0.8832  0.2212
  743MOL0     C  224   6.610   6.001   4.855  0.3539  0.0914 -0.7159
  743MOL0     C  225   6.476   6.016   4.881  0.9361  0.4588 -0.4649
  743MOL0     C  226   6.380   5.941   4.798 -0.4479 -0.8000 -0.3009
  743MOL0     C  227   6.419   5.823   4.731 -0.6790 -0.0381  0.0696
  743MOL0     O  228   6.339   5.731   4.672 -0.0548 -0.3302  0.5021
  743MOL0     C  229   6.216   5.790   4.625  0.6148  0.1966 -0.2139
  743MOL0     C  230   6.227   5.904   4.523  0.9616 -0.6529  0.8151
  743MOL0     C  231   6.266   5.860   4.383 -0.6509  1.3096  0.4597
  743MOL0     C  232   6.403   5.806   4.375 -0.0484 -0.4216 -1.2377
  743MOL0     C  233   6.455   5.818   4.241 -0.4566 -0.4250  0.6792
  743MOL0     C  234   6.498   5.811   4.127 -0.6211  0.4521 -0.5324
  743MOL0     C  235   6.564   5.801   4.728  0.6402 -0.6456 -0.6670
  743MOL0     C  236   6.662   5.891   4.778  0.3825  0.2892  0.4388
  743MOL0     C  237   6.803   5.863   4.735  0.8810  0.4783 -0.9746
  743MOL0     H  238   6.589   6.370   5.092 -1.9414  2.0176 -0.0296
  743MOL0     H  239   6.754   6.551   5.202  3.3685  0.8467  0.9081
  743MOL0     H  240   7.141   6.604   4.967 -2.4520 -1.8087 -0.9055
  743MOL0     H  241   7.038   6.750   4.953 -1.4825 -0.0799  1.1556
  743MOL0     H  242   7.282   6.764   5.059  0.2271  2.4696  2.5080
  743MOL0     H  243   7.209   6.690   5.193 -4.3353 -2.4046 -0.3668
  743MOL0     H  244   7.068   6.898   5.231 -0.5020  1.2703 -1.8755
  743MOL0     H  245   7.104   6.961   5.074  0.4347 -0.3089 -0.2318
  743MOL0     H  246   7.324   6.920   5.296  2.0216  0.9552 -1.4135
  743MOL0     H  247   7.342   7.007   5.150 -1.2166  2.6976  0.3409
  743MOL0     H  248   7.150   7.153   5.214 -0.6004  3.6338  2.3030
  743MOL0     H  249   7.126   7.056   5.358  1.0046 -1.7848  0.3082
  743MOL0     H  250   7.342   7.247   5.276  0.0352 -2.7371 -3.0136
  743MOL0     H  251   7.242   7.276   5.421  2.0432  0.5015  0.3204
  743MOL0     H  252   7.457   7.215   5.493 -0.2796 -1.6328  1.0255
  743MOL0     H  253   7.444   7.060   5.401 -0.5823  0.7666 -1.6414
  743MOL0     H  254   7.250   7.130   5.641 -2.3584 -1.4580 -1.9795
  743MOL0     H  255   7.284   6.980   5.543  0.9407 -0.5932 -1.5220
  743MOL0     H  256   7.571   6.904   5.568  3.3111 -0.1924  2.1446
  743MOL0     H  257   7.705   6.759   5.742 -0.0782  2.3248 -0.8649
  743MOL0     H  258   7.789   6.859   5.854  0.1005 -1.7261  4.5478
  743MOL0     H  259   7.542   6.706   5.960 -1.2335  1.1556  1.4490
  743MOL0     H  260   7.701   6.655   5.961  0.2004 -0.2777 -0.4914
  743MOL0     H  261   7.674   6.930   6.074  0.9886 -0.8101  1.1902
  743MOL0     H  262   7.769   6.787   6.110  2.1867  0.0206 -1.8057
  743MOL0     H  263   7.556   6.682   6.205  3.2192 -0.7774  2.0465
  743MOL0     H  264   7.474   6.837   6.164 -1.4638 -2.3515  0.1123
  743MOL0     H  265   7.506   6.676   6.504  0.6785 -5.2010  0.9552
  743MOL0     H  266   7.642   6.496   6.612  0.3321 -0.4750  0.9309
  743MOL0     H  267   7.735   6.166   6.811 -0.3121 -2.0215  4.2358
  743MOL0     H  268   7.869   5.992   6.947 -0.5759 -2.3621 -1.6705
  743MOL0     H  269   8.216   5.858   6.754  0.0098  1.9959  0.5926
  743MOL0     H  270   8.303   5.948   6.876  0.7621 -1.0816  2.9203
  743MOL0     H  271   8.378   5.764   6.934  0.8329 -2.1769 -1.7916
  743MOL0     H  272   8.226   5.750   7.033 -0.6390  1.0034  0.3879
  743MOL0     H  273   8.124   5.609   6.827  0.1419  0.1735 -0.5277
  743MOL0     H  274   8.278   5.619   6.757 -1.6475 -1.1402 -2.1550
  743MOL0     H  275   8.224   5.497   7.038  1.6635  0.0558  0.5887
  743MOL0     H  276   8.376   5.480   6.947  0.6760 -1.3334 -2.1268
  743MOL0     H  277   8.269   5.358   6.762  1.3094 -0.5048  0.5643
  743MOL0     H  278   8.109   5.373   6.845 -0.6061 -5.4143  0.9161
  743MOL0     H  279   8.349   5.249   6.984  0.1456  2.5388 -0.7515
  743MOL0     H  280   8.174   5.205   6.998 -0.9707  0.6011  0.0778
  743MOL0     H  281   8.310   5.156   6.731 -2.0527 -2.9254 -1.4500
  743MOL0     H  282   8.186   5.070   6.808  2.0739 -3.3450 -3.1987
  743MOL0     H  283   8.350   4.985   6.981 -2.8963  1.2254 -0.3078
  743MOL0     H  284   8.378   4.925   6.817 -1.4870  1.8845 -3.5435
  743MOL0     H  285   8.208   6.070   6.699  0.2253 -2.3046 -0.3082
  743MOL0     H  286   8.095   6.256   6.581  1.0278  1.2906 -0.1554
  743MOL0     H  287   7.997   6.643   6.432  0.0521 -2.6679  1.8631
  743MOL0     H  288   7.878   6.846   6.344 -5.2141  1.9890 -2.7448
  743MOL0     H  289   7.022   6.488   4.869  1.5705  0.2039  3.4986
  743MOL0     H  290   6.877   6.302   4.797  0.0176  3.7866 -1.9875
  743MOL0     H  291   6.440   6.095   4.946 -0.6704  0.4229 -1.2558
  743MOL0     H  292   6.282   5.987   4.811  0.3464  0.2578  2.6730
  743MOL0     H  293   6.175   5.811   4.725  3.1130 -0.7528  1.1008
  743MOL0     H  294   6.162   5.702   4.590 -0.4680 -0.3881  2.6370
  743MOL0     H  295   6.303   5.978   4.548  0.0496  0.8721 -0.6792
  743MOL0     H  296   6.126   5.947   4.515 -0.1701 -3.2010  0.3061
  743MOL0     H  297   6.244   5.937   4.308 -0.4359 -0.0927 -1.0940
  743MOL0     H  298   6.211   5.769   4.358  0.3006  0.8017  0.1652
  743MOL0     H  299   6.459   5.867   4.447 -1.1147 -1.0000  0.1341
  743MOL0     H  300   6.403   5.702   4.407 -0.8155  0.3572  1.6134
  743MOL0     H  301   6.529   5.810   4.024 -2.4636  0.3405 -1.1243
  743MOL0     H  302   6.602   5.709   4.687  2.1083 -0.4622  0.2015
  743MOL0     H  303   6.854   5.806   4.814 -2.1686  1.4261  1.9193
  743MOL0     H  304   6.807   5.811   4.639  1.2489 -1.4025  0.0078
  743MOL0     H  305   6.846   5.962   4.715 -0.5394  1.1243 -0.9793
  744MOL0     O  306   0.901   4.352  11.403  0.1513  0.5542 -0.4170
  744MOL0     C  307   0.992   4.417  11.349 -0.7021  1.1705  0.0153
  744MOL0     O  308   1.126   4.414  11.383 -0.1595  0.8312  0.1319
  744MOL0     C  309   1.165   4.303  11.456  0.7094 -0.5114  0.2454
  744MOL0     C  310   1.222   4.333  11.578  0.2528  1.2565 -0.5574
  744MOL0     C  311   1.267   4.244  11.669  0.4708 -0.2412 -0.3583
  744MOL0     C  312   1.243   4.112  11.643  0.2869  0.3460  0.2543
  744MOL0     O  313   1.273   4.014  11.730 -0.0057 -0.1984 -0.3437
  744MOL0     C  314   1.217   4.030  11.866  0.5197 -0.5442 -0.1405
  744MOL0     C  315   1.065   4.046  11.875 -0.2154  0.0680 -0.4475
  744MOL0     C  316   0.993   3.919  11.825 -0.0526 -0.0564 -0.1318
  744MOL0     C  317   0.839   3.918  11.853  0.8858 -0.2511 -0.8294
  744MOL0     C  318   0.751   3.947  11.724  0.7677  0.2546  1.4829
  744MOL0     C  319   0.758   4.093  11.684 -0.7621  0.8815  0.4320
  744MOL0     C  320   0.663   4.128  11.566  0.2119  1.5994  0.5890
  744MOL0     C  321   0.549   4.224  11.588 -0.3726 -0.1647 -0.0685
  744MOL0     N  322   0.446   4.166  11.668  0.5653  0.6534 -0.1340
  744MOL0     C  323   0.363   4.070  11.629  1.1960 -0.0753 -0.5249
  744MOL0     C  324   0.277   4.059  11.730  0.5881 -0.4869 -0.6790
  744MOL0     C  325   0.161   3.970  11.719  0.2735  0.3512  1.1330
  744MOL0     C  326   0.028   3.995  11.800  0.0698 -0.5012  0.4731
  744MOL0     C  327  -0.078   3.876  11.765 -0.3423  0.4924 -0.6241
  744MOL0     C  328  -0.195   3.905  11.856 -0.9974  0.1492  0.8565
  744MOL0     O  329  -0.166   3.871  11.997  0.6584 -0.1405 -0.4020
  744MOL0     C  330  -0.276   3.828  12.067 -0.0512  0.1926  0.0744
  744MOL0     C  331  -0.267   3.726  12.163 -0.0103 -0.6296  0.4773
  744MOL0     C  332  -0.374   3.686  12.249  0.6967 -0.1114 -0.0682
  744MOL0     C  333  -0.496   3.756  12.251  0.2122  0.1151  0.7602
  744MOL0     C  334  -0.581   3.748  12.367 -0.0016 -0.7052 -1.0250
  744MOL0     O  335  -0.688   3.830  12.384 -0.4376  0.2430  0.2233
  744MOL0     C  336  -0.743   3.842  12.511 -0.9674  0.1102 -0.2669
  744MOL0     C  337  -0.685   3.910  12.618  0.4467 -0.5834  0.3088
  744MOL0     C  338  -0.751   3.906  12.742  0.2921 -0.7403 -0.1920
  744MOL0     C  339  -0.875   3.847  12.759  0.3231 -0.3859 -0.2973
  744MOL0     O  340  -0.917   3.844  12.891 -0.3944  0.1444  0.2606
  744MOL0     C  341  -1.029   3.755  12.921  0.3149 -0.2876 -0.7682
  744MOL0     C  342  -1.107   3.782  13.055 -0.8065  0.5846  0.0152
  744MOL0     C  343  -1.185   3.658  13.103  0.4847 -0.3029  0.3297
  744MOL0     C  344  -1.311   3.632  13.017 -0.3683  0.4689 -0.1431
  744MOL0     C  345  -1.424   3.741  13.042  0.8029  0.1343  0.1739
  744MOL0     C  346  -1.559   3.719  12.967 -0.6552 -0.3951 -0.0037
  744MOL0     C  347  -1.526   3.697  12.818 -0.2044  0.3423 -1.0993
  744MOL0     C  348  -1.646   3.699  12.721  0.4648  0.3376  0.2994
  744MOL0    Cl  349  -1.717   3.530  12.716 -0.2208  0.3695  0.4675
  744MOL0     C  350  -0.929   3.793  12.642  0.5008 -0.6017  1.0768
  744MOL0     C  351  -0.867   3.787  12.518  0.1001  0.0938  0.4467
  744MOL0     O  352  -0.547   3.667  12.455 -0.5786  0.1904  0.0489
  744MOL0     C  353  -0.511   3.855  12.144  0.1273  0.1423  0.2672
  744MOL0     C  354  -0.410   3.885  12.055  0.6054  0.5308  0.1387
  744MOL0     N  355   0.304   4.148  11.831  0.5212 -0.5338 -0.2173
  744MOL0     N  356   0.410   4.213  11.787  0.0884 -0.0872 -0.3742
  744MOL0     C  357   1.182   4.071  11.521  0.1501 -0.5414  0.0051
  744MOL0     C  358   1.145   4.173  11.420  0.2939 -0.4582 -0.1792
  744MOL0     C  359   0.952   4.521  11.244 -0.4162  0.2498  0.2834
  744MOL0     C  360   0.819   4.505  11.189  0.0280  0.8799  0.6515
  744MOL0     C  361   0.794   4.577  11.069  0.8253  0.3963 -0.4077
  744MOL0     C  362   0.881   4.668  11.016 -0.2451 -0.7798  0.5605
  744MOL0     O  363   0.841   4.724  10.898  0.7212 -0.1465  0.8941
  744MOL0     C  364   0.892   4.845  10.840  0.2301 -0.8058  0.2485
  744MOL0     C  365   0.789   4.953  10.856 -0.1449 -0.5889  0.5725
  744MOL0     C  366   0.760   4.969  11.004  0.1825 -0.7858  0.1676
  744MOL0     C  367   0.882   5.027  11.090 -0.0456  0.7366 -0.0630
  744MOL0     C  368   0.885   5.171  11.085  0.8192  0.6933 -0.5328
  744MOL0     C  369   0.873   5.291  11.085 -0.1611  1.0527 -0.1596
  744MOL0     C  370   0.996   4.692  11.088  0.0822 -0.7069 -0.0079
  744MOL0     C  371   1.036   4.627  11.199  0.5585  0.3394 -1.3220
  744MOL0     C  372   1.159   4.676  11.271  0.3724  0.5215  0.3356
  744MOL0     H  373   1.239   4.437  11.605 -3.0116  2.1567 -1.4819
  744MOL0     H  374   1.311   4.282  11.761 -3.4674  2.0949  0.7602
  744MOL0     H  375   1.249   3.939  11.917 -0.8009 -2.8665 -3.1448
  744MOL0     H  376   1.265   4.114  11.918 -0.8417 -0.5531  1.1983
  744MOL0     H  377   1.035   4.136  11.820  0.6386  0.1246 -0.8537
  744MOL0     H  378   1.022   4.038  11.975 -1.9438 -4.4176 -1.3259
  744MOL0     H  379   1.027   3.824  11.867 -0.4357  0.1239  0.5984
  744MOL0     H  380   1.008   3.919  11.716  0.8837 -1.5487 -0.0367
  744MOL0     H  381   0.783   3.833  11.894  0.0591  1.7678  2.6454
  744MOL0     H  382   0.816   4.001  11.921 -2.3986 -1.1581 -0.6496
  744MOL0     H  383   0.782   3.891  11.636  1.1641  2.8838 -0.1834
  744MOL0     H  384   0.649   3.915  11.747  1.7392 -2.4792  2.2906
  744MOL0     H  385   0.722   4.147  11.772  2.4535  1.6797  1.3897
  744MOL0     H  386   0.860   4.110  11.650 -0.7225  1.1504  0.6807
  744MOL0     H  387   0.605   4.039  11.541  0.2335  2.6134 -3.8090
  744MOL0     H  388   0.722   4.157  11.479 -1.6519  2.2696 -0.5145
  744MOL0     H  389   0.600   4.303  11.644 -0.8784 -0.1178  0.3379
  744MOL0     H  390   0.501   4.255  11.495  1.3700 -1.5684 -1.5026
  744MOL0     H  391   0.363   4.017  11.534  1.8176  0.4339 -0.8179
  744MOL0     H  392   0.134   3.967  11.613 -1.7628  0.6904  1.5871
  744MOL0     H  393   0.199   3.873  11.754 -1.1692 -1.7662 -2.6310
  744MOL0     H  394   0.057   3.984  11.905  4.0612 -0.6571 -0.4871
  744MOL0     H  395  -0.033   4.083  11.780 -0.3014 -1.1028 -1.1992
  744MOL0     H  396  -0.033   3.777  11.780 -0.0949  0.4891 -1.3637
  744MOL0     H  397  -0.093   3.875  11.657  0.6608  2.3589 -0.8268
  744MOL0     H  398  -0.259   3.829  11.811 -1.9524  1.8329 -0.7418
  744MOL0     H  399  -0.246   3.999  11.836  1.3494  0.9207 -2.4009
  744MOL0     H  400  -0.169   3.682  12.178  0.5298  0.9085  1.6375
  744MOL0     H  401  -0.369   3.600  12.316  0.9241 -0.6405 -0.7609
  744MOL0     H  402  -0.588   3.956  12.602  0.2844  0.0604  1.0774
  744MOL0     H  403  -0.703   3.928  12.837  2.1587 -0.7648 -1.0695
  744MOL0     H  404  -1.108   3.761  12.846 -1.6560 -1.4782  1.1147
  744MOL0     H  405  -0.997   3.650  12.919  0.9257 -0.1279  0.2078
  744MOL0     H  406  -1.041   3.815  13.136 -0.2753  2.4757 -1.1433
  744MOL0     H  407  -1.169   3.872  13.057 -2.6850 -0.5154 -2.8240
  744MOL0     H  408  -1.122   3.570  13.088  1.6443  0.6928 -0.8770
  744MOL0     H  409  -1.222   3.669  13.206 -2.8248 -0.0050 -0.7951
  744MOL0     H  410  -1.352   3.531  13.025 -3.0082  1.4514 -0.4205
  744MOL0     H  411  -1.274   3.632  12.914  2.9612 -1.3867  0.9135
  744MOL0     H  412  -1.384   3.838  13.009  1.2960 -0.3119 -0.5646
  744MOL0     H  413  -1.460   3.756  13.144  0.0920  0.6749 -0.1431
  744MOL0     H  414  -1.619   3.634  13.002 -0.2793 -0.6456  0.0382
  744MOL0     H  415  -1.610   3.815  12.973 -1.1735 -0.2282 -4.2063
  744MOL0     H  416  -1.466   3.608  12.798  3.3969  2.4720 -0.6778
  744MOL0     H  417  -1.458   3.780  12.793  0.0470  0.7561  0.8345
  744MOL0     H  418  -1.708   3.781  12.758  2.5188  0.3957  4.1940
  744MOL0     H  419  -1.605   3.722  12.622 -0.0932 -1.5882 -0.4217
  744MOL0     H  420  -1.028   3.750  12.651  0.0838  0.3321  1.0311
  744MOL0     H  421  -0.922   3.744  12.436  0.6036  1.3319 -0.5840
  744MOL0     H  422  -0.601   3.912  12.124  0.6792  0.5210 -1.3080
  744MOL0     H  423  -0.428   3.962  11.980  2.5637 -1.2991 -2.3944
  744MOL0     H  424   1.150   3.969  11.503 -2.5075  0.2281 -0.0817
  744MOL0     H  425   1.102   4.152  11.323  1.6173  0.3865 -0.9740
  744MOL0     H  426   0.744   4.437  11.229  1.9643 -1.1082  1.0838
  744MOL0     H  427   0.708   4.547  11.011  1.3171 -1.1241 -0.3969
  744MOL0     H  428   0.919   4.824  10.736 -0.0938  1.7038 -0.4007
  744MOL0     H  429   0.982   4.879  10.891 -0.1405 -2.0105  1.7837
  744MOL0     H  430   0.704   4.921  10.796 -0.6835 -0.5039  1.2815
  744MOL0     H  431   0.838   5.042  10.815 -0.9948 -0.0293  0.7548
  744MOL0     H  432   0.713   4.883  11.053 -5.3788  1.2675 -0.7368
  744MOL0     H  433   0.684   5.046  11.020  2.1330  0.7511  2.9399
  744MOL0     H  434   0.864   4.988  11.191  0.2222  2.7204  0.7902
  744MOL0     H  435   0.983   4.992  11.065  1.0202  2.1631  1.9609
  744MOL0     H  436   0.865   5.397  11.097  1.9010  1.1120  1.4198
  744MOL0     H  437   1.061   4.767  11.044 -4.3032  1.9437 -2.6543
  744MOL0     H  438   1.153   4.647  11.377  0.6261  1.3451  0.5795
  744MOL0     H  439   1.249   4.630  11.230  0.3965  1.4948 -0.7491
  744MOL0     H  440   1.162   4.785  11.275  0.9790  0.5801  5.2281
  745MOL0     O  441   6.233   9.206   3.029  0.2379 -0.5572 -0.0337
  745MOL0     C  442   6.236   9.084   3.049 -0.0157  0.4061 -0.1401
  745MOL0     O  443   6.146   8.999   3.129  0.5341 -0.2480  0.3334
  745MOL0     C  444   6.079   9.058   3.236  0.4495  0.2267 -0.6694
  745MOL0     C  445   6.057   9.186   3.272 -0.1359  0.3353  0.5911
  745MOL0     C  446   6.008   9.221   3.399  0.7839  0.7113  0.2105
  745MOL0     C  447   5.960   9.129   3.495  0.2626 -0.3207 -0.0002
  745MOL0     O  448   5.911   9.182   3.618  0.2104  0.0501  0.0670
  745MOL0     C  449   5.775   9.147   3.645  0.5996 -0.1047 -0.2503
  745MOL0     C  450   5.737   9.215   3.781 -0.3141 -0.0323  0.0130
  745MOL0     C  451   5.833   9.173   3.896  0.6433  1.3634 -0.3040
  745MOL0     C  452   5.802   9.243   4.025  0.1752 -0.6428  0.0161
  745MOL0     C  453   5.861   9.174   4.142 -0.4501  0.5327 -0.4173
  745MOL0     C  454   6.007   9.162   4.138  0.1778  0.1589 -0.2908
  745MOL0     C  455   6.061   9.196   4.272 -0.0919  0.8153  0.8856
  745MOL0     C  456   6.209   9.211   4.276  0.1583 -0.2982 -0.1900
  745MOL0     N  457   6.276   9.087   4.286 -0.0892  0.4917 -0.0892
  745MOL0     C  458   6.291   8.997   4.183 -0.0367 -0.5301  0.6420
  745MOL0     C  459   6.340   8.883   4.229 -0.6712 -0.2303 -0.1856
  745MOL0     C  460   6.374   8.759   4.152  0.7135 -0.3132 -1.0008
  745MOL0     C  461   6.349   8.630   4.213  0.2251 -0.5993 -0.1973
  745MOL0     C  462   6.393   8.526   4.103  0.2846 -0.1120 -0.6456
  745MOL0     C  463   6.339   8.387   4.147  0.7046  0.0732  0.8558
  745MOL0     O  464   6.360   8.301   4.036  0.1351  0.3198  0.9372
  745MOL0     C  465   6.296   8.178   4.037  0.3422 -0.4484 -0.2349
  745MOL0     C  466   6.266   8.100   4.151  0.7342  1.1336  0.3233
  745MOL0     C  467   6.203   7.973   4.133 -0.4382 -0.0206  0.3209
  745MOL0     C  468   6.166   7.931   4.005  0.5288  0.1401 -0.4908
  745MOL0     C  469   6.110   7.790   3.992 -0.3693 -0.3234 -0.4990
  745MOL0     O  470   6.098   7.747   3.863  0.0132 -0.0887  0.4069
  745MOL0     C  471   6.119   7.613   3.844 -0.2266 -0.2749  1.1028
  745MOL0     C  472   6.036   7.520   3.906 -1.3037  0.2376 -0.5978
  745MOL0     C  473   6.050   7.384   3.867 -0.4193  0.2309 -0.3741
  745MOL0     C  474   6.153   7.339   3.787  0.8052 -0.3690 -0.4595
  745MOL0     O  475   6.182   7.207   3.757  0.5760 -0.3545 -0.6251
  745MOL0     C  476   6.105   7.106   3.822  0.0365  0.0433 -1.3592
  745MOL0     C  477   6.154   6.973   3.776  0.3306  0.1427  0.9946
  745MOL0     C  478   6.069   6.927   3.654  0.0399  0.1336 -0.9769
  745MOL0     C  479   6.117   6.803   3.586  0.0759 -0.0411 -0.0946
  745MOL0     C  480   6.013   6.735   3.508 -0.5321 -0.0598 -0.7166
  745MOL0     C  481   5.948   6.612   3.584  0.0749  0.1167 -0.0914
  745MOL0     C  482   5.886   6.644   3.719  0.4449  0.1750 -0.1926
  745MOL0     C  483   5.762   6.557   3.745 -0.6985 -0.1787  0.0557
  745MOL0    Cl  484   5.708   6.614   3.911 -0.1070 -0.2767  0.0229
  745MOL0     C  485   6.231   7.437   3.726 -0.6620  0.5881  0.3854
  745MOL0     C  486   6.212   7.571   3.751  0.3239  0.0343  0.1912
  745MOL0     O  487   6.087   7.717   4.095 -0.4748 -0.2450  0.2413
  745MOL0     C  488   6.183   8.012   3.889 -0.8647  1.3161 -0.8757
  745MOL0     C  489   6.252   8.136   3.908 -0.7284 -0.1855 -0.2659
  745MOL0     N  490   6.371   8.895   4.360 -0.9515 -0.7620 -0.7089
  745MOL0     N  491   6.321   9.013   4.393  0.5610 -0.3344 -1.1983
  745MOL0     C  492   5.967   9.001   3.446  0.3194  0.7254  0.5766
  745MOL0     C  493   6.030   8.964   3.323  0.2899 -0.5087 -0.6713
  745MOL0     C  494   6.343   9.006   2.973  1.0090 -0.0525 -0.5642
  745MOL0     C  495   6.385   8.884   3.037  0.0516 -0.2850  1.0245
  745MOL0     C  496   6.485   8.808   2.979 -0.1222 -0.3559 -0.4007
  745MOL0     C  497   6.552   8.850   2.868 -0.5376  1.5849 -0.1997
  745MOL0     O  498   6.650   8.756   2.817 -0.6741  0.2687 -0.9453
  745MOL0     C  499   6.791   8.782   2.831  0.3041  0.3377 -0.2147
  745MOL0     C  500   6.847   8.851   2.708  0.9363  0.6231  0.8391
  745MOL0     C  501   6.814   8.774   2.577 -0.0285  0.3023  0.3966
  745MOL0     C  502   6.891   8.820   2.453  0.6462  0.2261 -0.5184
  745MOL0     C  503   6.832   8.794   2.328  0.9248 -0.6547  0.2512
  745MOL0     C  504   6.768   8.765   2.224  0.5862 -0.6179  0.0970
  745MOL0     C  505   6.512   8.969   2.806 -0.6119 -0.1870 -0.9786
  745MOL0     C  506   6.406   9.049   2.847 -0.9277 -0.3916 -1.0551
  745MOL0     C  507   6.367   9.163   2.761 -0.7020 -0.6291 -0.0822
  745MOL0     H  508   6.101   9.266   3.214 -2.8063  0.8722 -0.8707
  745MOL0     H  509   6.010   9.324   3.434  1.5686 -0.2013  3.2221
  745MOL0     H  510   5.709   9.176   3.563  0.0808 -1.6265 -0.4153
  745MOL0     H  511   5.758   9.039   3.657  2.6208 -0.3737  0.5654
  745MOL0     H  512   5.638   9.175   3.805 -0.3182  0.5567  1.0459
  745MOL0     H  513   5.732   9.323   3.767  0.5444  0.1269  0.8464
  745MOL0     H  514   5.937   9.197   3.872 -0.0499  2.9396 -1.9630
  745MOL0     H  515   5.833   9.065   3.914  1.5163  1.7598  2.5846
  745MOL0     H  516   5.828   9.349   4.020  2.4156 -1.1223  0.3598
  745MOL0     H  517   5.694   9.239   4.043 -0.0089  2.0512 -0.0915
  745MOL0     H  518   5.824   9.223   4.233 -2.4066  1.2890 -1.5680
  745MOL0     H  519   5.833   9.068   4.148  1.4825  0.0432  1.8067
  745MOL0     H  520   6.033   9.059   4.111  0.1186  0.2270 -0.6101
  745MOL0     H  521   6.047   9.237   4.068 -0.3641 -0.0835 -0.8750
  745MOL0     H  522   6.031   9.117   4.342  0.1452 -0.7534 -0.7047
  745MOL0     H  523   6.012   9.289   4.304 -1.7976  0.8367 -1.4160
  745MOL0     H  524   6.234   9.253   4.178 -1.5064 -0.8611 -0.8962
  745MOL0     H  525   6.226   9.274   4.364 -2.4442  0.4183 -0.0955
  745MOL0     H  526   6.268   9.024   4.080 -2.7750  2.3102  1.8425
  745MOL0     H  527   6.309   8.767   4.065 -1.6971  0.3990  0.7668
  745MOL0     H  528   6.477   8.764   4.115 -0.0844  0.2585 -3.3265
  745MOL0     H  529   6.412   8.610   4.299 -1.7082 -2.8298  0.8054
  745MOL0     H  530   6.245   8.622   4.246  0.0535 -0.1349 -0.6014
  745MOL0     H  531   6.502   8.515   4.095  0.3480 -3.1758  2.3182
  745MOL0     H  532   6.350   8.547   4.005  1.1294  1.0410 -0.7894
  745MOL0     H  533   6.231   8.393   4.164  0.5541 -1.0025  0.3611
  745MOL0     H  534   6.397   8.350   4.233  1.2308 -2.1143 -0.3551
  745MOL0     H  535   6.291   8.130   4.252 -0.9022 -0.0542  1.1332
  745MOL0     H  536   6.186   7.906   4.217 -1.8374  1.4086  1.2130
  745MOL0     H  537   5.963   7.532   3.985 -0.0922 -1.2964  0.8223
  745MOL0     H  538   5.996   7.307   3.920  3.9953 -2.0489  1.3749
  745MOL0     H  539   6.109   7.125   3.929 -1.3834  2.3303 -1.6465
  745MOL0     H  540   6.002   7.126   3.793 -0.1066  0.2808 -0.6986
  745MOL0     H  541   6.257   6.985   3.740 -0.2660 -1.0577 -1.3385
  745MOL0     H  542   6.134   6.896   3.851 -2.2996 -0.9291 -0.6648
  745MOL0     H  543   5.969   6.911   3.697 -0.6715 -1.5401 -3.0859
  745MOL0     H  544   6.070   7.012   3.586  2.9455  0.6452 -0.3971
  745MOL0     H  545   6.153   6.725   3.654  0.8151 -0.6866 -1.1982
  745MOL0     H  546   6.200   6.843   3.526 -0.5804  0.5473 -0.6266
  745MOL0     H  547   6.063   6.693   3.421  0.8215  1.4158 -0.6948
  745MOL0     H  548   5.943   6.807   3.464  0.5409  0.6456 -1.3167
  745MOL0     H  549   5.869   6.562   3.527  0.0850 -0.1637  0.1363
  745MOL0     H  550   6.029   6.541   3.602  1.2037  1.3321 -0.2194
  745MOL0     H  551   5.848   6.746   3.729 -3.1587 -1.1310  0.8203
  745MOL0     H  552   5.961   6.621   3.795  0.8648  0.6199 -0.4660
  745MOL0     H  553   5.686   6.577   3.669  1.2901  1.2835 -1.6614
  745MOL0     H  554   5.778   6.450   3.726 -0.1550  0.0464 -0.7873
  745MOL0     H  555   6.311   7.415   3.657  1.1587  0.4535  2.4260
  745MOL0     H  556   6.273   7.648   3.705  1.6097  0.0775  1.9043
  745MOL0     H  557   6.149   7.981   3.791  2.8177  1.4699 -2.3400
  745MOL0     H  558   6.255   8.210   3.829  1.0426 -0.7039 -0.7326
  745MOL0     H  559   5.940   8.915   3.506 -1.4821  0.5337 -0.4339
  745MOL0     H  560   6.037   8.859   3.298  0.1487  0.1548 -3.8543
  745MOL0     H  561   6.343   8.850   3.131  0.7254 -1.4544  0.9133
  745MOL0     H  562   6.499   8.703   3.002 -1.5108 -1.6449 -4.5771
  745MOL0     H  563   6.835   8.682   2.829  0.6120  0.4427 -2.8125
  745MOL0     H  564   6.808   8.835   2.926  2.4475  0.1656 -0.4542
  745MOL0     H  565   6.956   8.860   2.705  0.7743  3.8831 -1.1381
  745MOL0     H  566   6.821   8.958   2.701 -0.4179  0.2017 -2.1702
  745MOL0     H  567   6.708   8.790   2.554  0.1596 -1.1565 -1.7752
  745MOL0     H  568   6.820   8.665   2.582 -1.0344  0.2439  0.5799
  745MOL0     H  569   6.918   8.926   2.455  1.7143 -0.0342 -0.3308
  745MOL0     H  570   6.990   8.773   2.453  1.5946  2.0983  0.0141
  745MOL0     H  571   6.713   8.730   2.139  0.9453 -1.8721  0.3608
  745MOL0     H  572   6.586   9.006   2.736  0.6193  1.1858  0.9286
  745MOL0     H  573   6.395   9.257   2.810 -4.1306  0.7903 -0.5470
  745MOL0     H  574   6.402   9.164   2.657 -0.0547  3.2138  0.0083
  745MOL0     H  575   6.260   9.153   2.743 -1.0077 -0.6966  1.6325
  746MOL0     O  576   9.345   0.676  11.475  0.3924  0.1094  0.6252
  746MOL0     C  577   9.308   0.736  11.574 -0.0284  0.1491  0.1153
  746MOL0     O  578   9.357   0.714  11.703 -0.2825  0.0591  0.4926
  746MOL0     C  579   9.415   0.595  11.731  0.6750  0.2554 -0.0644
  746MOL0     C  580   9.335   0.480  11.754  0.4348  0.0439 -0.0886
  746MOL0     C  581   9.400   0.372  11.807  0.1931  0.9817  0.2229
  746MOL0     C  582   9.542   0.362  11.815  0.1617  0.3491  0.4712
  746MOL0     O  583   9.588   0.256  11.886  0.8112  0.1203  0.8841
  746MOL0     C  584   9.724   0.255  11.927  0.3291  0.4024  0.6838
  746MOL0     C  585   9.740   0.188  12.054  0.3597 -0.4582 -1.0071
  746MOL0     C  586   9.654   0.240  12.176  0.2948  0.4072  1.2972
  746MOL0     C  587   9.662   0.392  12.190  0.8176 -0.1804  0.9645
  746MOL0     C  588   9.575   0.438  12.308 -0.1063  0.3770  0.6933
  746MOL0     C  589   9.521   0.573  12.274  0.9040 -0.6974 -1.1135
  746MOL0     C  590   9.379   0.597  12.319  0.9672 -0.5533  0.7489
  746MOL0     C  591   9.324   0.726  12.253  0.4867 -0.4613 -0.1116
  746MOL0     N  592   9.371   0.852  12.316  1.0574 -0.1906  0.5108
  746MOL0     C  593   9.374   0.883  12.454  0.4877 -0.7215  0.0868
  746MOL0     C  594   9.407   1.014  12.451  0.4840  1.0331  0.4153
  746MOL0     C  595   9.403   1.109  12.572 -0.4359  0.6788  0.0154
  746MOL0     C  596   9.432   1.253  12.537 -0.4087 -0.2784 -0.7325
  746MOL0     C  597   9.379   1.352  12.638  1.0442  0.2134 -0.1331
  746MOL0     C  598   9.447   1.485  12.641 -0.0570  0.0894 -0.0759
  746MOL0     O  599   9.587   1.455  12.664  0.0462  0.4091 -0.2293
  746MOL0     C  600   9.663   1.520  12.756 -0.8296  0.0287  0.4567
  746MOL0     C  601   9.626   1.636  12.824 -0.7332 -0.3878  0.0431
  746MOL0     C  602   9.705   1.677  12.940  0.8589  0.0366 -0.3107
  746MOL0     C  603   9.822   1.613  12.972  0.4488  0.3291 -0.2874
  746MOL0     C  604   9.886   1.663  13.095  0.4180  0.8980 -0.3085
  746MOL0     O  605   9.999   1.601  13.123 -0.9691 -0.0611 -0.0018
  746MOL0     C  606  10.043   1.607  13.252 -0.2468 -0.4107 -0.6303
  746MOL0     C  607  10.016   1.508  13.343  0.1854 -0.1852  0.2919
  746MOL0     C  608  10.083   1.502  13.464  0.4676  0.0469 -0.0148
  746MOL0     C  609  10.192   1.589  13.487 -0.5338  0.0071  0.2997
  746MOL0     O  610  10.258   1.550  13.598 -0.4872  0.0576 -0.6634
  746MOL0     C  611  10.242   1.631  13.713  0.2664 -0.1139  0.6211
  746MOL0     C  612  10.221   1.551  13.830 -0.5728  0.6037 -0.4488
  746MOL0     C  613  10.204   1.626  13.962  0.3907 -0.4195 -0.3411
  746MOL0     C  614  10.181   1.523  14.064  0.1950  0.5207 -0.7265
  746MOL0     C  615  10.162   1.576  14.198 -0.2218 -1.2235 -0.7379
  746MOL0     C  616  10.162   1.475  14.306  0.9040 -0.0376 -0.0472
  746MOL0     C  617  10.122   1.522  14.444  0.2718  0.0256 -0.9959
  746MOL0     C  618  10.147   1.426  14.560 -0.6605  0.2929 -0.2982
  746MOL0    Cl  619  10.313   1.440  14.626 -0.1568  0.5252  0.2106
  746MOL0     C  620  10.220   1.691  13.394  0.6888  0.5092 -0.3863
  746MOL0     C  621  10.139   1.705  13.283 -1.3030  0.1028  0.3275
  746MOL0     O  622   9.845   1.769  13.154  1.0942  0.0855 -1.2626
  746MOL0     C  623   9.868   1.505  12.898 -0.9841 -0.7861  0.0708
  746MOL0     C  624   9.794   1.469  12.785  0.9405 -0.2679  0.3887
  746MOL0     N  625   9.436   1.049  12.322 -0.5881 -0.7794  0.6513
  746MOL0     N  626   9.423   0.950  12.242 -0.4717 -0.4376  0.1627
  746MOL0     C  627   9.618   0.476  11.777 -0.4220  0.5546  0.7557
  746MOL0     C  628   9.558   0.592  11.737  0.6041  0.2003 -0.0539
  746MOL0     C  629   9.227   0.854  11.548 -0.5596  0.8063  0.2485
  746MOL0     C  630   9.115   0.859  11.631 -0.0664 -0.5269  0.9902
  746MOL0     C  631   9.034   0.979  11.627  1.0858 -0.7298 -0.1070
  746MOL0     C  632   9.077   1.096  11.570 -0.2774  0.5313  0.2445
  746MOL0     O  633   8.993   1.205  11.592  0.6903  0.0600 -0.0002
  746MOL0     C  634   8.998   1.314  11.498  0.9420  0.0644 -0.5429
  746MOL0     C  635   8.919   1.433  11.539  0.2958 -0.7960 -1.2679
  746MOL0     C  636   8.961   1.483  11.679 -0.2922  0.9195  0.7854
  746MOL0     C  637   8.881   1.602  11.721 -0.5943 -0.3632 -0.0106
  746MOL0     C  638   8.914   1.722  11.646 -0.5470  0.7542 -0.2867
  746MOL0     C  639   8.934   1.832  11.596  0.3705  0.3139  0.9639
  746MOL0     C  640   9.199   1.090  11.487  0.8700 -1.4526 -0.2167
  746MOL0     C  641   9.269   0.968  11.480  0.5067  0.4038  0.6887
  746MOL0     C  642   9.384   0.963  11.385 -0.2700  0.9811  0.2549
  746MOL0     H  643   9.228   0.497  11.745 -0.1949 -1.4463  3.0596
  746MOL0     H  644   9.349   0.293  11.861 -2.1752  1.8575 -0.5978
  746MOL0     H  645   9.774   0.193  11.852  0.4881  1.6205 -0.2484
  746MOL0     H  646   9.768   0.354  11.943 -0.1693  0.6683  0.4200
  746MOL0     H  647   9.846   0.203  12.077 -0.2117 -1.1725  2.6185
  746MOL0     H  648   9.720   0.083  12.028 -0.6585 -0.2568 -1.0749
  746MOL0     H  649   9.699   0.185  12.259  1.0652 -0.4330  0.3432
  746MOL0     H  650   9.554   0.203  12.150  1.0610 -0.7169 -0.2628
  746MOL0     H  651   9.768   0.417  12.191  1.5656 -2.9539  1.4572
  746MOL0     H  652   9.627   0.440  12.098  0.7937  1.7480  1.9300
  746MOL0     H  653   9.487   0.373  12.321  0.3120 -0.7196 -1.5928
  746MOL0     H  654   9.649   0.440  12.388  1.2093 -0.8759 -0.4339
  746MOL0     H  655   9.575   0.653  12.326 -3.0243  2.7808 -1.7826
  746MOL0     H  656   9.536   0.600  12.169 -1.0903 -1.1455 -1.5561
  746MOL0     H  657   9.375   0.601  12.429  0.1608 -0.5976  0.7287
  746MOL0     H  658   9.314   0.513  12.294  0.6392 -0.1759  0.3210
  746MOL0     H  659   9.360   0.724  12.150 -3.1282 -0.0787 -1.5276
  746MOL0     H  660   9.215   0.737  12.244  0.5989  1.6703  0.5536
  746MOL0     H  661   9.339   0.815  12.531  1.1225 -0.2139  0.8420
  746MOL0     H  662   9.297   1.099  12.596 -1.7915  3.7707 -3.6370
  746MOL0     H  663   9.477   1.079  12.647 -0.6539  1.6709  0.6525
  746MOL0     H  664   9.541   1.261  12.530 -0.4037  1.8797  0.8789
  746MOL0     H  665   9.409   1.277  12.433  1.2886  0.1245 -1.0460
  746MOL0     H  666   9.397   1.307  12.736  0.4761  1.4458  0.5470
  746MOL0     H  667   9.272   1.366  12.619  1.2402 -0.0114 -1.5119
  746MOL0     H  668   9.407   1.558  12.712 -0.2624 -0.7551  0.7001
  746MOL0     H  669   9.449   1.526  12.540  4.1286 -0.8088 -0.5664
  746MOL0     H  670   9.538   1.678  12.776  0.9136  0.0771 -2.8037
  746MOL0     H  671   9.668   1.766  12.991 -2.0586 -0.1172 -1.9340
  746MOL0     H  672   9.938   1.434  13.336  0.2149 -0.1576 -0.3509
  746MOL0     H  673  10.069   1.414  13.526 -0.1683 -1.7330 -2.5473
  746MOL0     H  674  10.334   1.689  13.717  0.1960  0.1953 -1.2130
  746MOL0     H  675  10.154   1.694  13.697  0.0558 -0.7238 -0.8315
  746MOL0     H  676  10.123   1.506  13.813 -1.0383  0.9209  1.2175
  746MOL0     H  677  10.309   1.486  13.824 -0.6198  0.4015  0.8066
  746MOL0     H  678  10.284   1.692  13.997 -1.0785  2.9502 -2.7687
  746MOL0     H  679  10.122   1.698  13.958  2.9605  2.7091 -2.7756
  746MOL0     H  680  10.262   1.449  14.057  0.8685  1.0411  1.0605
  746MOL0     H  681  10.081   1.485  14.042  0.1686 -1.3010  2.0222
  746MOL0     H  682  10.074   1.640  14.202  0.6335 -0.0804  1.3802
  746MOL0     H  683  10.247   1.639  14.226 -1.7092  0.5939 -0.1084
  746MOL0     H  684  10.112   1.384  14.271 -0.1390  1.4626 -2.7076
  746MOL0     H  685  10.268   1.456  14.327  1.4892  0.0560 -2.5715
  746MOL0     H  686  10.015   1.545  14.443 -0.0374 -1.1707  0.8800
  746MOL0     H  687  10.182   1.611  14.468  1.1116 -0.7862  0.0146
  746MOL0     H  688  10.064   1.451  14.627  0.3655  1.5002  0.5688
  746MOL0     H  689  10.135   1.323  14.525  0.3095  0.0855 -0.0466
  746MOL0     H  690  10.299   1.758  13.424 -1.1606  1.7919  1.9681
  746MOL0     H  691  10.145   1.791  13.218 -2.0841  0.1210  0.2726
  746MOL0     H  692   9.949   1.439  12.926  2.1352  2.8729  0.4249
  746MOL0     H  693   9.837   1.379  12.742 -0.8399 -0.2486 -1.6569
  746MOL0     H  694   9.725   0.494  11.782  0.2889 -2.0244 -1.9884
  746MOL0     H  695   9.616   0.681  11.713 -2.2785  1.8241 -1.5944
  746MOL0     H  696   9.088   0.769  11.684 -2.5879 -0.9227 -0.8327
  746MOL0     H  697   8.937   0.984  11.676  0.7873 -0.9187 -0.6591
  746MOL0     H  698   8.950   1.273  11.408  0.6403  1.4976 -1.0621
  746MOL0     H  699   9.097   1.350  11.470  1.5489 -0.6011  0.6768
  746MOL0     H  700   8.812   1.421  11.522  0.2290 -0.5705 -1.0079
  746MOL0     H  701   8.943   1.517  11.473  0.9596  0.6739  0.7537
  746MOL0     H  702   9.065   1.518  11.680 -1.0115  3.2320  0.6751
  746MOL0     H  703   8.962   1.416  11.765  3.3877 -1.6387 -0.9720
  746MOL0     H  704   8.777   1.575  11.705 -0.9622  0.0456  1.5366
  746MOL0     H  705   8.891   1.629  11.827  2.2902  0.0560 -0.3113
  746MOL0     H  706   8.943   1.914  11.528 -3.1511 -0.7722 -1.0549
  746MOL0     H  707   9.245   1.172  11.435  1.0547 -2.0926 -1.0806
  746MOL0     H  708   9.372   0.886  11.308  3.3521 -0.3651  0.8370
  746MOL0     H  709   9.407   1.063  11.347  2.9306 -0.6755 -2.6088
  746MOL0     H  710   9.470   0.936  11.446  0.1994 -0.1484 -0.8660
  747MOL0     O  711   7.885   8.643   7.159  0.3745 -0.4082 -0.1197
  747MOL0     C  712   7.877   8.535   7.212  0.2050 -0.4667  0.0212
  747MOL0     O  713   7.957   8.435   7.177 -0.2780  0.0884 -0.4413
  747MOL0     C  714   8.075   8.457   7.112 -0.1679 -0.0461 -0.2439
  747MOL0     C  715   8.152   8.574   7.117 -0.2616 -0.1660 -0.3726
  747MOL0     C  716   8.288   8.568   7.085 -0.8573  0.2148  0.7083
  747MOL0     C  717   8.344   8.458   7.020 -0.1376 -0.0418 -0.3656
  747MOL0     O  718   8.473   8.445   6.979  0.2120 -0.6586  1.0023
  747MOL0     C  719   8.570   8.544   7.025 -0.0179  0.5310  0.6490
  747MOL0     C  720   8.708   8.489   6.958 -0.7054  0.4764 -0.9430
  747MOL0     C  721   8.759   8.347   6.998  0.1886  0.0116  0.0960
  747MOL0     C  722   8.892   8.317   6.919  0.0231 -0.7081  0.5422
  747MOL0     C  723   8.940   8.180   6.979  0.1977  0.3180  1.6615
  747MOL0     C  724   9.077   8.145   6.919  0.5425  0.3155  0.6695
  747MOL0     C  725   9.128   8.013   6.985 -0.0223  0.5869 -0.0901
  747MOL0     C  726   9.246   8.035   7.077  0.1979  0.4891  0.3712
  747MOL0     N  727   9.362   8.069   7.001  0.3066 -0.2227  0.5517
  747MOL0     C  728   9.424   7.998   6.898 -0.0995 -0.0414 -0.7584
  747MOL0     C  729   9.530   8.072   6.865 -0.1890 -0.5058 -0.3849
  747MOL0     C  730   9.624   8.035   6.756  0.1093 -0.6585  0.1728
  747MOL0     C  731   9.769   8.053   6.808  0.5529  0.4088  0.1295
  747MOL0     C  732   9.869   7.976   6.717  0.2436 -0.0340  0.3233
  747MOL0     C  733   9.899   8.044   6.577  0.2082  0.1174  0.8630
  747MOL0     O  734   9.783   8.044   6.488 -0.3297 -0.3012 -0.5864
  747MOL0     C  735   9.820   8.035   6.357  0.4050  0.0806 -0.7000
  747MOL0     C  736   9.745   7.953   6.279  0.5543 -0.3467  0.2938
  747MOL0     C  737   9.765   7.936   6.140 -0.9321 -0.3919  0.2465
  747MOL0     C  738   9.882   7.998   6.079  0.0577  0.3457  0.5998
  747MOL0     C  739   9.922   7.980   5.939 -0.1239  0.1088  0.4363
  747MOL0     O  740  10.024   8.061   5.891 -0.1202  0.6125 -0.3353
  747MOL0     C  741  10.043   8.075   5.759  0.8947  1.0593  0.2222
  747MOL0     C  742  10.177   8.084   5.708  0.7078  0.6127  0.1807
  747MOL0     C  743  10.202   8.102   5.566  0.3334 -0.0289  0.1671
  747MOL0     C  744  10.096   8.118   5.485  0.4735 -0.1668  0.0759
  747MOL0     O  745  10.111   8.131   5.350  0.2870  0.0308  0.1294
  747MOL0     C  746  10.050   8.022   5.271 -0.1505  0.0104  0.4875
  747MOL0     C  747  10.130   8.023   5.136 -0.3743  0.3998 -0.3444
  747MOL0     C  748  10.130   8.166   5.077  0.2283  1.0313 -0.2813
  747MOL0     C  749   9.985   8.220   5.055 -0.2541  0.0772 -0.7078
  747MOL0     C  750   9.979   8.322   4.941  0.3927 -0.3052  0.4694
  747MOL0     C  751  10.080   8.436   4.954  0.2503  0.3969  0.8540
  747MOL0     C  752  10.062   8.510   5.089  0.0536 -0.2560 -0.1617
  747MOL0     C  753   9.916   8.557   5.109 -0.5580 -1.1722  0.0993
  747MOL0    Cl  754   9.887   8.680   5.228  0.1429 -0.2059 -0.1100
  747MOL0     C  755   9.967   8.131   5.542  0.0176 -0.3823 -0.0990
  747MOL0     C  756   9.934   8.111   5.675 -0.2583 -0.3444 -0.0973
  747MOL0     O  757   9.850   7.911   5.858  0.3397  0.6570 -1.1247
  747MOL0     C  758   9.959   8.087   6.165 -0.5601 -0.0280  0.6241
  747MOL0     C  759   9.932   8.104   6.298  0.0912  0.0582  0.3966
  747MOL0     N  760   9.539   8.189   6.941  0.1840 -0.4146 -0.4622
  747MOL0     N  761   9.445   8.179   7.021  0.4852  0.2571 -0.7338
  747MOL0     C  762   8.257   8.354   6.988  0.7804 -0.3232 -0.0827
  747MOL0     C  763   8.122   8.350   7.036 -0.0369  0.9358  0.5074
  747MOL0     C  764   7.758   8.508   7.299 -0.3993  0.2293  0.4415
  747MOL0     C  765   7.747   8.377   7.352 -0.2902  0.1333 -0.2189
  747MOL0     C  766   7.638   8.345   7.439 -0.6823  0.0580  0.4847
  747MOL0     C  767   7.535   8.437   7.468 -0.2612  0.8807  1.5014
  747MOL0     O  768   7.421   8.427   7.543 -0.2306  0.3743  0.6215
  747MOL0     C  769   7.397   8.300   7.609  0.0557 -0.0652  0.3480
  747MOL0     C  770   7.276   8.318   7.704  0.2812 -0.5061  0.0619
  747MOL0     C  771   7.214   8.186   7.740  0.3371  0.3613 -0.1608
  747MOL0     C  772   7.091   8.198   7.830  0.0958 -0.1533 -0.7498
  747MOL0     C  773   7.028   8.069   7.836 -1.2319 -0.7600  0.2565
  747MOL0     C  774   6.976   7.965   7.856 -0.0843 -1.0762 -0.1932
  747MOL0     C  775   7.545   8.561   7.407 -0.5416  0.9340  0.5449
  747MOL0     C  776   7.651   8.595   7.326 -0.0467  0.2671  1.0695
  747MOL0     C  777   7.660   8.740   7.290  0.0379  0.1048 -0.2900
  747MOL0     H  778   8.118   8.668   7.160 -1.8405 -0.3021 -1.2456
  747MOL0     H  779   8.339   8.660   7.111  1.7753 -1.8929  3.8022
  747MOL0     H  780   8.544   8.641   6.981 -3.0168 -1.2301 -1.8518
  747MOL0     H  781   8.576   8.547   7.134  2.2848 -0.3290  0.6103
  747MOL0     H  782   8.789   8.554   6.995 -1.6428  1.6185 -0.8129
  747MOL0     H  783   8.717   8.493   6.850 -1.0665 -1.0753 -1.0494
  747MOL0     H  784   8.676   8.279   6.978  0.2279  0.3742 -1.4408
  747MOL0     H  785   8.778   8.349   7.106  0.5981  0.0508  0.0243
  747MOL0     H  786   8.872   8.298   6.813  1.0642 -0.6091  0.3111
  747MOL0     H  787   8.960   8.401   6.933 -1.9166  0.8521  0.9234
  747MOL0     H  788   8.941   8.189   7.088  0.6786 -1.7896  1.8643
  747MOL0     H  789   8.877   8.094   6.955 -0.7453  1.1337  1.1169
  747MOL0     H  790   9.052   8.129   6.814  1.8864  5.6034 -0.7690
  747MOL0     H  791   9.148   8.228   6.925  0.3845  0.4272  1.0249
  747MOL0     H  792   9.149   7.939   6.907  0.3231  0.4575  0.1213
  747MOL0     H  793   9.044   7.969   7.040  0.6668 -2.6599 -1.3447
  747MOL0     H  794   9.217   8.112   7.149  0.8834  1.9780 -0.9128
  747MOL0     H  795   9.253   7.942   7.136  0.4343  1.2702  1.6205
  747MOL0     H  796   9.393   7.899   6.863 -2.7631  0.2236  0.5481
  747MOL0     H  797   9.611   7.930   6.727 -0.9238 -1.1711  2.2594
  747MOL0     H  798   9.606   8.087   6.662  0.6676 -2.0391 -0.7280
  747MOL0     H  799   9.788   8.160   6.817 -0.1474  0.5585 -0.1146
  747MOL0     H  800   9.767   8.006   6.907  3.0976  0.7867  0.4322
  747MOL0     H  801   9.824   7.877   6.705  0.2801 -0.0716  0.5005
  747MOL0     H  802   9.970   7.973   6.757  1.5891  2.0180 -2.5479
  747MOL0     H  803   9.980   7.979   6.540  0.8573  0.1781  2.1069
  747MOL0     H  804   9.931   8.147   6.591 -1.1000  0.6168  0.3005
  747MOL0     H  805   9.668   7.899   6.334  0.0806  3.0468  3.3813
  747MOL0     H  806   9.699   7.883   6.071 -0.4166  1.1830 -1.5338
  747MOL0     H  807  10.263   8.071   5.773 -0.3492  1.3737  1.7824
  747MOL0     H  808  10.300   8.107   5.520  0.1971  3.0792  0.0136
  747MOL0     H  809  10.073   7.930   5.325 -3.4593 -0.1979  1.7211
  747MOL0     H  810   9.946   8.042   5.244 -0.0744 -1.7945 -1.4419
  747MOL0     H  811  10.232   7.998   5.164 -0.5169  1.3620  1.1510
  747MOL0     H  812  10.093   7.943   5.071  0.3687  1.6546 -2.4312
  747MOL0     H  813  10.187   8.231   5.143  1.8108 -2.3371  1.9273
  747MOL0     H  814  10.179   8.160   4.979 -1.3115 -0.2167 -1.0131
  747MOL0     H  815   9.958   8.268   5.149 -2.3814  2.8270 -2.5448
  747MOL0     H  816   9.925   8.131   5.031  2.6961 -1.8600 -1.4976
  747MOL0     H  817   9.872   8.345   4.940  0.5212  0.2894 -0.8216
  747MOL0     H  818   9.996   8.268   4.848 -0.0618 -0.7378  0.6365
  747MOL0     H  819  10.183   8.411   4.928  0.1700  1.3819 -0.5531
  747MOL0     H  820  10.051   8.490   4.863  1.6088 -0.7100 -0.2816
  747MOL0     H  821  10.133   8.593   5.088  0.6248 -0.7256  0.3873
  747MOL0     H  822  10.084   8.443   5.172 -2.9876 -0.4007  0.6261
  747MOL0     H  823   9.878   8.596   5.015 -2.1332 -0.1654  1.1058
  747MOL0     H  824   9.848   8.474   5.131 -1.8755 -0.1394  0.0593
  747MOL0     H  825   9.889   8.170   5.476 -0.7477 -2.1244 -0.3016
  747MOL0     H  826   9.836   8.137   5.713 -0.0610  0.1206  0.1104
  747MOL0     H  827  10.041   8.145   6.125 -1.1158 -0.1559 -0.7396
  747MOL0     H  828   9.984   8.182   6.353  0.9130 -0.8631  0.9505
  747MOL0     H  829   8.299   8.287   6.914  2.7852  1.7876 -0.9822
  747MOL0     H  830   8.054   8.272   7.005  2.8426 -1.9280  0.8081
  747MOL0     H  831   7.826   8.304   7.336 -0.4057 -0.3339  1.2464
  747MOL0     H  832   7.639   8.243   7.475  2.7806  1.0087  3.7245
  747MOL0     H  833   7.482   8.267   7.669  1.2292 -1.7054 -2.1014
  747MOL0     H  834   7.378   8.220   7.537 -2.7279 -1.4747  2.4531
  747MOL0     H  835   7.200   8.386   7.665 -0.1594 -0.6113  0.7271
  747MOL0     H  836   7.318   8.360   7.796 -1.0738 -2.0145  1.4287
  747MOL0     H  837   7.288   8.120   7.786  2.0864  0.0786 -3.1467
  747MOL0     H  838   7.184   8.141   7.645  0.4497  2.3505 -1.2139
  747MOL0     H  839   7.126   8.235   7.926 -1.0380 -0.0076 -0.3737
  747MOL0     H  840   7.009   8.256   7.786  0.3376 -1.5039 -3.1563
  747MOL0     H  841   6.930   7.868   7.859 -0.9844 -0.7524 -2.0639
  747MOL0     H  842   7.462   8.630   7.413 -1.6457 -0.3725  0.8986
  747MOL0     H  843   7.651   8.758   7.183 -0.2175  0.9725 -0.1284
  747MOL0     H  844   7.578   8.785   7.347  1.2634 -0.5991  2.1783
  747MOL0     H  845   7.751   8.787   7.329 -2.0656  3.6923  0.7092
  748MOL0     O  846   5.758   4.894   5.980 -0.0780  0.0356 -0.0019
  748MOL0     C  847   5.861   4.905   6.047  0.5079 -0.8059 -0.4982
  748MOL0     O  848   5.908   4.810   6.133 -0.1129  0.3395  0.4508
  748MOL0     C  849   5.834   4.697   6.163  0.1082 -0.3125 -1.0852
  748MOL0     C  850   5.705   4.697   6.190  0.8342 -0.9256  0.0536
  748MOL0     C  851   5.646   4.579   6.237  0.7319 -1.2801  0.3445
  748MOL0     C  852   5.710   4.457   6.229  0.5871  0.5712  0.2678
  748MOL0     O  853   5.638   4.341   6.258 -0.4278  0.2757  0.2851
  748MOL0     C  854   5.665   4.233   6.165  0.0145 -0.1955 -0.5485
  748MOL0     C  855   5.572   4.123   6.205 -0.1134  1.3117 -1.0728
  748MOL0     C  856   5.596   3.979   6.143  0.2954  0.6515 -0.1198
  748MOL0     C  857   5.497   3.875   6.201  1.0606 -0.5361 -0.2808
  748MOL0     C  858   5.504   3.833   6.353  0.4361 -0.4958 -0.8744
  748MOL0     C  859   5.423   3.712   6.384 -0.7393  0.0530  0.0992
  748MOL0     C  860   5.439   3.673   6.536  1.0751 -0.3946 -0.1204
  748MOL0     C  861   5.396   3.524   6.566  0.6642 -0.2439 -0.2729
  748MOL0     N  862   5.274   3.470   6.508  0.7015 -0.0338  0.1630
  748MOL0     C  863   5.163   3.467   6.591  1.2522 -0.0919 -0.1092
  748MOL0     C  864   5.062   3.396   6.526  0.8893 -1.0258 -0.2870
  748MOL0     C  865   4.910   3.377   6.572 -0.7566 -0.5687 -0.4491
  748MOL0     C  866   4.897   3.301   6.705 -0.9353 -0.2559  0.3929
  748MOL0     C  867   4.909   3.149   6.692 -0.8757 -0.0099 -0.8149
  748MOL0     C  868   5.008   3.092   6.800 -1.0734  0.2930  0.1270
  748MOL0     O  869   4.987   3.127   6.938 -0.2501  0.9030  0.1041
  748MOL0     C  870   5.086   3.075   7.024 -0.3571 -0.9153  0.0463
  748MOL0     C  871   5.055   3.083   7.157 -0.8531 -1.0955  0.5167
  748MOL0     C  872   5.142   3.048   7.262  0.0048  0.0457 -0.5465
  748MOL0     C  873   5.271   2.991   7.227  0.0432 -1.3597  0.5091
  748MOL0     C  874   5.358   2.931   7.337 -0.1938  0.5730 -0.2901
  748MOL0     O  875   5.474   2.869   7.299  0.6534 -0.5426 -0.2345
  748MOL0     C  876   5.537   2.781   7.379 -0.3261 -0.7597  0.0382
  748MOL0     C  877   5.471   2.700   7.481  0.3640 -0.8068  0.9662
  748MOL0     C  878   5.548   2.620   7.560 -0.1169  0.3194  0.0132
  748MOL0     C  879   5.687   2.588   7.540  0.1264  0.3924  0.2064
  748MOL0     O  880   5.759   2.518   7.630  0.0007 -0.4407 -0.5529
  748MOL0     C  881   5.812   2.392   7.580  0.9877 -0.1647 -0.2510
  748MOL0     C  882   5.930   2.352   7.663  0.5303 -0.9609  0.0664
  748MOL0     C  883   5.879   2.291   7.792 -0.2306 -1.3326 -0.0895
  748MOL0     C  884   6.015   2.263   7.871  0.5057 -0.0014  1.4130
  748MOL0     C  885   5.977   2.218   8.012  0.2470  0.6423 -0.7699
  748MOL0     C  886   6.090   2.182   8.101  0.1273  0.4755 -0.1054
  748MOL0     C  887   6.199   2.083   8.046  0.0678 -0.1915  0.4639
  748MOL0     C  888   6.144   1.946   7.996  0.1097 -0.1246  0.1483
  748MOL0    Cl  889   6.101   1.857   8.137  0.0510  0.0683  0.2762
  748MOL0     C  890   5.748   2.658   7.435 -0.7738  0.6977 -0.8555
  748MOL0     C  891   5.677   2.761   7.363  0.1269  0.0122  0.4578
  748MOL0     O  892   5.320   2.949   7.456 -0.1044  0.9142 -0.4420
  748MOL0     C  893   5.299   2.968   7.088 -0.2694  1.2796 -1.1042
  748MOL0     C  894   5.205   3.003   6.994  0.0866 -0.4786  0.6186
  748MOL0     N  895   5.120   3.366   6.400  1.0206 -0.1509  0.0171
  748MOL0     N  896   5.240   3.407   6.387 -0.1848  0.0142 -0.3943
  748MOL0     C  897   5.845   4.464   6.213 -0.6925 -0.5494 -0.6227
  748MOL0     C  898   5.910   4.576   6.176  0.8229 -0.7507  0.1218
  748MOL0     C  899   5.916   5.037   6.061  0.7565 -0.0165  0.8678
  748MOL0     C  900   5.825   5.148   6.085  0.2515 -0.4372 -0.2885
  748MOL0     C  901   5.879   5.275   6.121  0.5411  0.4650 -0.2905
  748MOL0     C  902   6.012   5.292   6.146  0.1062 -0.0595  0.2001
  748MOL0     O  903   6.069   5.404   6.193 -0.1144 -0.3433 -1.4868
  748MOL0     C  904   6.008   5.449   6.318 -0.2387 -0.1423  0.2447
  748MOL0     C  905   6.049   5.586   6.357  0.3316 -0.2047 -0.1592
  748MOL0     C  906   6.185   5.609   6.410 -0.6034 -0.8565  0.3996
  748MOL0     C  907   6.193   5.727   6.504 -0.1090 -0.4572  0.2885
  748MOL0     C  908   6.142   5.855   6.448 -0.7530 -0.8367 -0.2575
  748MOL0     C  909   6.087   5.963   6.421 -0.8002 -0.0986 -0.1581
  748MOL0     C  910   6.093   5.197   6.109 -0.6490  0.7016  0.9314
  748MOL0     C  911   6.053   5.066   6.067  0.6418 -0.1715  0.0006
  748MOL0     C  912   6.147   4.948   6.040 -0.4473 -0.1948  0.0830
  748MOL0     H  913   5.645   4.787   6.177 -2.3034 -2.9273 -0.4424
  748MOL0     H  914   5.546   4.572   6.278  1.5003 -1.5436  2.3371
  748MOL0     H  915   5.635   4.275   6.068 -0.5423  2.0193  0.5293
  748MOL0     H  916   5.774   4.220   6.165  0.1516  0.8360 -1.2758
  748MOL0     H  917   5.467   4.153   6.193 -1.8685 -3.2893  0.3207
  748MOL0     H  918   5.595   4.106   6.311  0.4834  1.4752 -1.1737
  748MOL0     H  919   5.696   3.936   6.152  0.0281 -0.6613 -2.5299
  748MOL0     H  920   5.593   3.994   6.035  2.0156  0.6789 -0.1961
  748MOL0     H  921   5.396   3.915   6.192  1.5552  1.9739  3.3843
  748MOL0     H  922   5.525   3.778   6.158  1.5374 -1.2421  1.5568
  748MOL0     H  923   5.607   3.803   6.377 -0.3045 -3.5159 -1.0576
  748MOL0     H  924   5.485   3.922   6.413  0.5091 -0.5782 -0.7282
  748MOL0     H  925   5.318   3.733   6.360 -0.5588  0.4103 -0.4077
  748MOL0     H  926   5.440   3.622   6.324  0.7591 -0.8686  1.8297
  748MOL0     H  927   5.366   3.739   6.585  1.3367  0.6101 -1.0416
  748MOL0     H  928   5.539   3.689   6.579  0.7397 -1.1637  0.9846
  748MOL0     H  929   5.461   3.460   6.506 -0.9991 -0.0874 -2.3674
  748MOL0     H  930   5.400   3.506   6.674 -1.9056  1.8938  0.2680
  748MOL0     H  931   5.143   3.517   6.685  5.2961  0.8253  0.4455
  748MOL0     H  932   4.854   3.470   6.573  1.4968  0.8768 -0.8369
  748MOL0     H  933   4.873   3.317   6.488 -0.6089 -0.8509 -0.3179
  748MOL0     H  934   4.972   3.342   6.773  0.2733  1.0424 -1.6038
  748MOL0     H  935   4.798   3.325   6.746 -0.8642 -1.5629  1.3687
  748MOL0     H  936   4.934   3.120   6.590 -0.4047 -0.1244 -0.6684
  748MOL0     H  937   4.815   3.105   6.727 -1.0244  0.4003 -0.6816
  748MOL0     H  938   5.103   3.143   6.781  0.0948 -0.4006  3.3991
  748MOL0     H  939   5.006   2.982   6.795  0.7056  0.2782 -2.1204
  748MOL0     H  940   4.959   3.125   7.184 -1.2823 -0.3715 -1.9371
  748MOL0     H  941   5.124   3.068   7.367  1.5351 -1.7603  0.1167
  748MOL0     H  942   5.363   2.698   7.492  0.1923  0.3571 -0.2240
  748MOL0     H  943   5.493   2.562   7.634 -0.1619  1.1834  0.6659
  748MOL0     H  944   5.729   2.321   7.585  0.0711  0.7986 -1.2086
  748MOL0     H  945   5.842   2.402   7.475 -1.0480 -1.0742 -0.9687
  748MOL0     H  946   5.989   2.280   7.604 -1.3308 -2.2602 -0.2970
  748MOL0     H  947   5.998   2.436   7.678  0.1403 -0.9656  2.0847
  748MOL0     H  948   5.815   2.352   7.857 -0.0697 -1.1866 -0.0657
  748MOL0     H  949   5.839   2.190   7.782  1.9430 -2.4321  1.4030
  748MOL0     H  950   6.077   2.353   7.870  0.2818  0.1751 -0.7500
  748MOL0     H  951   6.068   2.179   7.825 -0.0919 -1.5206  3.3293
  748MOL0     H  952   5.910   2.133   7.997  0.3170  0.3061  0.7301
  748MOL0     H  953   5.913   2.294   8.059 -1.3593  0.5714 -2.6699
  748MOL0     H  954   6.135   2.278   8.126  1.7250 -0.4223  0.6591
  748MOL0     H  955   6.056   2.138   8.196  2.0291 -1.4000 -0.2105
  748MOL0     H  956   6.266   2.065   8.131 -1.4800 -3.4830  1.1607
  748MOL0     H  957   6.250   2.133   7.963 -1.4315  2.8986  1.2704
  748MOL0     H  958   6.054   1.971   7.939  0.6243  5.2239  1.1239
  748MOL0     H  959   6.220   1.894   7.938  1.0475 -0.7213  1.8696
  748MOL0     H  960   5.853   2.640   7.419  0.0501  0.7053  3.3621
  748MOL0     H  961   5.744   2.804   7.289  3.7065 -2.4115  2.0104
  748MOL0     H  962   5.394   2.920   7.064  0.5597  2.4030 -0.1742
  748MOL0     H  963   5.233   3.002   6.890  1.6565 -2.6548  0.9917
  748MOL0     H  964   5.898   4.369   6.218 -0.0380 -0.2707 -1.9120
  748MOL0     H  965   6.018   4.572   6.164  0.6590 -3.4070 -1.2155
  748MOL0     H  966   5.718   5.132   6.081  0.0089  1.2031 -1.9873
  748MOL0     H  967   5.811   5.358   6.137 -2.7118 -1.3190 -3.2427
  748MOL0     H  968   6.029   5.379   6.399 -0.8101 -1.3149 -0.5917
  748MOL0     H  969   5.899   5.440   6.311 -0.1307 -3.4359  1.3368
  748MOL0     H  970   5.982   5.606   6.440 -1.4171 -0.2823 -1.4917
  748MOL0     H  971   6.052   5.656   6.273  2.7280 -1.5888 -1.3383
  748MOL0     H  972   6.247   5.616   6.320 -3.3565  0.0225 -1.5257
  748MOL0     H  973   6.216   5.518   6.462  2.4670 -2.2146 -3.3225
  748MOL0     H  974   6.127   5.709   6.590  3.0923  1.7685  3.5236
  748MOL0     H  975   6.301   5.734   6.522  0.3213  0.7745 -2.2831
  748MOL0     H  976   6.044   6.060   6.404  0.8591  0.8262  0.5848
  748MOL0     H  977   6.199   5.223   6.108 -0.4890  0.1752  2.3329
  748MOL0     H  978   6.249   4.987   6.036 -0.3628 -0.5089 -0.9655
  748MOL0     H  979   6.147   4.879   6.125  2.6243  1.2348  1.3890
  748MOL0     H  980   6.126   4.889   5.950 -3.6990 -0.8808  1.1427
  749MOL0     O  981  10.201   7.780   6.299  0.4797  0.8114 -0.0635
  749MOL0     C  982  10.271   7.831   6.223  0.5118 -0.1217 -0.1419
  749MOL0     O  983  10.367   7.912   6.255  0.0047  0.5221  0.1190
  749MOL0     C  984  10.384   7.953   6.387  0.6832  0.2832 -0.2147
  749MOL0     C  985  10.523   7.985   6.418  1.1126  0.8409 -0.0697
  749MOL0     C  986  10.555   8.018   6.546  0.7774 -0.3588  0.0665
  749MOL0     C  987  10.448   8.020   6.647  0.2869 -0.1344  1.0043
  749MOL0     O  988  10.456   8.055   6.773  0.7047  0.1672  0.3156
  749MOL0     C  989  10.582   8.100   6.826  0.3337 -0.4675 -0.0679
  749MOL0     C  990  10.675   8.001   6.881  1.0710  0.6046 -0.4575
  749MOL0     C  991  10.623   7.910   6.983  0.0365 -0.2477  0.4584
  749MOL0     C  992  10.541   7.971   7.094 -0.0020  0.6875  0.3585
  749MOL0     C  993  10.488   7.873   7.204 -1.1531 -0.5480  0.0845
  749MOL0     C  994  10.446   7.955   7.328  0.0308 -0.4578  1.0777
  749MOL0     C  995  10.397   7.855   7.433 -0.5456  0.2275 -0.2209
  749MOL0     C  996  10.291   7.918   7.519 -0.0777 -0.7525  0.5718
  749MOL0     N  997  10.334   8.019   7.612  0.9466  0.0301 -0.0175
  749MOL0     C  998  10.320   8.150   7.610  0.1579  0.0018  0.0421
  749MOL0     C  999  10.394   8.192   7.718 -0.9674 -0.2807  0.9920
  749MOL0     C 1000  10.392   8.327   7.773  0.4970  0.9398  0.1643
  749MOL0     C 1001  10.311   8.342   7.899 -1.2933  0.6041 -0.2301
  749MOL0     C 1002  10.158   8.299   7.885  0.7043  0.8414  0.0775
  749MOL0     C 1003  10.081   8.291   8.010  0.4594 -0.4189 -1.1046
  749MOL0     O 1004  10.117   8.177   8.098 -0.7840 -0.0036  0.6402
  749MOL0     C 1005  10.016   8.112   8.166  0.0217  0.1622  0.1033
  749MOL0     C 1006   9.983   8.138   8.300 -0.5757  0.2578 -0.4088
  749MOL0     C 1007   9.897   8.046   8.369  0.0340 -0.1846  0.0423
  749MOL0     C 1008   9.838   7.939   8.298 -0.0085  0.2936 -0.7766
  749MOL0     C 1009   9.753   7.832   8.374 -1.1063 -0.2364  1.3072
  749MOL0     O 1010   9.702   7.736   8.294 -0.0085 -0.5544  0.3118
  749MOL0     C 1011   9.596   7.674   8.353 -1.1551  0.9578 -0.7401
  749MOL0     C 1012   9.477   7.678   8.293 -0.3873 -0.4320  0.5432
  749MOL0     C 1013   9.364   7.614   8.352  0.6684  0.2998  0.2316
  749MOL0     C 1014   9.376   7.558   8.482 -0.4154  0.1647  0.1627
  749MOL0     O 1015   9.262   7.507   8.555 -0.4966 -0.4544 -0.0663
  749MOL0     C 1016   9.143   7.454   8.486 -0.1771 -0.8264 -0.2677
  749MOL0     C 1017   9.171   7.332   8.398  0.3099  0.1581 -0.5307
  749MOL0     C 1018   9.030   7.297   8.336  0.9953  0.6569  1.0438
  749MOL0     C 1019   9.038   7.167   8.250  0.2387  0.4123 -0.0169
  749MOL0     C 1020   8.925   7.162   8.136  0.6752  0.1914  0.8289
  749MOL0     C 1021   8.931   7.059   8.025 -0.2113 -0.0383  0.0356
  749MOL0     C 1022   8.841   7.087   7.904 -0.4112 -0.5583 -0.0584
  749MOL0     C 1023   8.824   6.972   7.812  0.6408  0.0833 -0.0644
  749MOL0    Cl 1024   8.991   6.904   7.770  0.1323 -0.0142  0.4744
  749MOL0     C 1025   9.502   7.545   8.538 -0.2536  0.2688 -0.7048
  749MOL0     C 1026   9.613   7.596   8.472 -0.3325  0.1607  0.0634
  749MOL0     O 1027   9.729   7.861   8.489 -0.0984 -0.1927 -0.2048
  749MOL0     C 1028   9.868   7.919   8.168 -0.3538 -0.9618 -0.0602
  749MOL0     C 1029   9.950   8.007   8.099  0.0299  0.7460  0.3065
  749MOL0     N 1030  10.454   8.092   7.780 -0.4704  0.4087  0.1221
  749MOL0     N 1031  10.419   7.978   7.715 -0.3308  0.3348  0.2983
  749MOL0     C 1032  10.315   8.005   6.601  0.8472 -0.2210  0.0048
  749MOL0     C 1033  10.278   7.977   6.471  0.9352  0.0316 -0.5233
  749MOL0     C 1034  10.253   7.810   6.074  0.0814 -0.2192 -0.2257
  749MOL0     C 1035  10.344   7.879   5.993 -0.3229 -0.5074  0.2753
  749MOL0     C 1036  10.360   7.843   5.859  0.5478  0.0078  0.3796
  749MOL0     C 1037  10.278   7.752   5.797 -0.2181  0.5525  0.9052
  749MOL0     O 1038  10.264   7.715   5.660 -0.3877  0.7021  0.3523
  749MOL0     C 1039  10.329   7.787   5.566  0.3671 -0.4492 -0.0856
  749MOL0     C 1040  10.315   7.714   5.430  0.3100 -0.3458  0.6417
  749MOL0     C 1041  10.393   7.804   5.326  0.3630  0.2102 -0.1053
  749MOL0     C 1042  10.399   7.733   5.194  0.2957 -0.8046 -0.0432
  749MOL0     C 1043  10.464   7.823   5.104 -0.3589  0.0257  1.6223
  749MOL0     C 1044  10.510   7.901   5.021  0.4771  0.7004 -0.1150
  749MOL0     C 1045  10.174   7.695   5.870 -0.7060  0.3117  0.0137
  749MOL0     C 1046  10.167   7.707   6.017  0.0343  0.1136  0.1800
  749MOL0     C 1047  10.060   7.640   6.095  0.4445  0.5607  0.4668
  749MOL0     H 1048  10.598   7.982   6.341  0.7281 -2.8080 -0.4869
  749MOL0     H 1049  10.661   8.028   6.567  1.1953 -2.3377 -0.7817
  749MOL0     H 1050  10.640   8.164   6.760 -1.5533  1.6168  0.1794
  749MOL0     H 1051  10.537   8.171   6.896 -0.5308 -0.0268 -1.0531
  749MOL0     H 1052  10.754   8.057   6.931  2.3769 -1.5223 -0.0178
  749MOL0     H 1053  10.716   7.935   6.804 -1.0891  0.9988 -2.0631
  749MOL0     H 1054  10.712   7.869   7.030  0.5899 -0.0812 -0.4243
  749MOL0     H 1055  10.563   7.831   6.935 -1.5793  1.3049 -0.1954
  749MOL0     H 1056  10.601   8.052   7.136 -0.4288  2.1377 -1.6664
  749MOL0     H 1057  10.447   8.015   7.058 -1.3029 -1.9411  0.3462
  749MOL0     H 1058  10.402   7.826   7.156 -2.6888  1.7515  0.4124
  749MOL0     H 1059  10.560   7.793   7.221  0.0535  0.1953 -1.3338
  749MOL0     H 1060  10.529   8.012   7.371  1.4227 -0.9683 -0.8017
  749MOL0     H 1061  10.374   8.035   7.305  2.5353  2.3124  2.1975
  749MOL0     H 1062  10.486   7.829   7.491 -1.8938  1.1280  2.3566
  749MOL0     H 1063  10.348   7.775   7.377 -1.5320  1.1013 -0.6368
  749MOL0     H 1064  10.217   7.964   7.453  0.4966 -0.2104  0.3023
  749MOL0     H 1065  10.237   7.850   7.586 -0.9329  1.4639  2.2752
  749MOL0     H 1066  10.251   8.204   7.546 -0.3895 -2.4748 -1.5864
  749MOL0     H 1067  10.491   8.349   7.813 -1.4280  3.9800  3.8906
  749MOL0     H 1068  10.367   8.403   7.699  0.7730  2.2481  1.3862
  749MOL0     H 1069  10.356   8.276   7.974 -0.7080  0.5044 -0.6621
  749MOL0     H 1070  10.320   8.449   7.920 -2.8612  0.4280  1.6345
  749MOL0     H 1071  10.151   8.198   7.844  1.7221  0.6512  0.3361
  749MOL0     H 1072  10.113   8.357   7.803 -1.1681  1.9643  1.7907
  749MOL0     H 1073   9.977   8.274   7.983  0.2079 -0.9665  0.1239
  749MOL0     H 1074  10.094   8.383   8.069 -0.2402 -0.3399 -1.0744
  749MOL0     H 1075  10.030   8.225   8.343  1.4688  0.8989 -3.5411
  749MOL0     H 1076   9.874   8.057   8.474 -1.6300 -1.2188 -0.1777
  749MOL0     H 1077   9.468   7.733   8.200 -0.6184 -1.1027  0.1612
  749MOL0     H 1078   9.265   7.636   8.313  0.9899  0.5388 -0.4516
  749MOL0     H 1079   9.055   7.453   8.549 -0.1022  1.7670 -0.0284
  749MOL0     H 1080   9.122   7.540   8.421 -0.2307  0.5374  1.4833
  749MOL0     H 1081   9.239   7.344   8.313 -0.2274 -0.5076 -1.0634
  749MOL0     H 1082   9.195   7.247   8.462  0.7920  0.4555 -0.3160
  749MOL0     H 1083   8.948   7.262   8.399  1.3243 -1.8245  0.2125
  749MOL0     H 1084   9.009   7.386   8.276  0.9567  0.4008  0.6806
  749MOL0     H 1085   9.046   7.077   8.311 -0.7507  0.4593  0.1986
  749MOL0     H 1086   9.130   7.175   8.192  0.7973 -0.2725  0.7593
  749MOL0     H 1087   8.929   7.261   8.089 -2.6150  0.0661  0.0498
  749MOL0     H 1088   8.826   7.155   8.180 -0.2091  0.7070 -0.9476
  749MOL0     H 1089   9.035   7.051   7.993 -1.1461  1.9709 -4.3005
  749MOL0     H 1090   8.919   6.959   8.066 -1.7314  0.3542  0.6123
  749MOL0     H 1091   8.870   7.172   7.843 -3.9057 -0.1835 -1.4394
  749MOL0     H 1092   8.743   7.118   7.941  0.6947  1.2563  1.5441
  749MOL0     H 1093   8.760   6.904   7.870 -0.7378  1.0896 -0.3685
  749MOL0     H 1094   8.774   7.003   7.720  2.5195 -3.5356 -2.5616
  749MOL0     H 1095   9.503   7.493   8.634 -2.5817 -1.2508 -1.4308
  749MOL0     H 1096   9.717   7.598   8.501 -0.9337  1.2289  2.4034
  749MOL0     H 1097   9.817   7.839   8.116 -2.4153 -0.5890  1.2731
  749MOL0     H 1098   9.990   7.986   8.000  1.2307 -2.9196  1.4089
  749MOL0     H 1099  10.237   8.009   6.677 -2.8885 -1.7108 -3.4455
  749MOL0     H 1100  10.175   7.973   6.436  0.5016  0.6572  0.6242
  749MOL0     H 1101  10.426   7.938   6.031  0.2693  1.1264 -3.2065
  749MOL0     H 1102  10.439   7.896   5.807 -1.2225  1.0453 -1.3769
  749MOL0     H 1103  10.429   7.807   5.606  0.0692 -2.3891  1.8174
  749MOL0     H 1104  10.276   7.882   5.559  2.7390  0.9567 -0.0028
  749MOL0     H 1105  10.210   7.692   5.409  0.3531 -0.8400  0.9419
  749MOL0     H 1106  10.349   7.612   5.450  0.2375 -0.5161 -0.0686
  749MOL0     H 1107  10.488   7.819   5.377 -0.2666  1.1381  0.8423
  749MOL0     H 1108  10.327   7.891   5.325 -2.1281 -1.5266  1.5430
  749MOL0     H 1109  10.451   7.637   5.197  0.1068 -0.8893  1.7537
  749MOL0     H 1110  10.297   7.718   5.157 -0.7260 -2.7992  3.1700
  749MOL0     H 1111  10.558   7.972   4.957  1.1781 -0.9050 -1.4493
  749MOL0     H 1112  10.089   7.644   5.826 -1.1906 -0.4226  1.6970
  749MOL0     H 1113  10.014   7.706   6.169 -2.0699 -3.8793  3.3688
  749MOL0     H 1114   9.993   7.585   6.029  1.4566  2.8353 -2.6947
  749MOL0     H 1115  10.112   7.563   6.154  2.9848  1.2148 -0.7678
  750MOL0     O 1116   7.047   1.904   4.580 -0.4224  0.7336 -0.6066
  750MOL0     C 1117   6.946   1.838   4.603  0.0622  0.2266 -0.3488
  750MOL0     O 1118   6.937   1.706   4.637  0.3291  0.2010 -0.3361
  750MOL0     C 1119   7.044   1.629   4.679  0.5484  0.3396  0.8743
  750MOL0     C 1120   7.001   1.501   4.699  0.0452 -0.2940  0.9109
  750MOL0     C 1121   7.064   1.401   4.773 -0.1283  0.0886  0.3095
  750MOL0     C 1122   7.199   1.431   4.820  0.4865 -0.5160  0.0120
  750MOL0     O 1123   7.275   1.347   4.899 -0.2170 -0.3315  0.3804
  750MOL0     C 1124   7.205   1.252   4.972 -0.1649 -0.4679  0.1674
  750MOL0     C 1125   7.309   1.186   5.058 -0.2055  0.5225 -1.4906
  750MOL0     C 1126   7.414   1.096   4.990 -0.3386  0.5967 -0.1543
  750MOL0     C 1127   7.344   0.967   4.945  1.0180 -0.4823 -0.5804
  750MOL0     C 1128   7.445   0.888   4.871  0.8832  0.2368 -0.7726
  750MOL0     C 1129   7.492   0.964   4.736  0.4723  0.5226  0.8533
  750MOL0     C 1130   7.546   0.859   4.641 -0.1080 -0.1617  0.5992
  750MOL0     C 1131   7.443   0.774   4.555 -0.6477 -0.7542 -0.9838
  750MOL0     N 1132   7.512   0.674   4.469 -0.2057 -0.6572 -0.5747
  750MOL0     C 1133   7.550   0.544   4.516 -0.4726  0.2536  0.2714
  750MOL0     C 1134   7.567   0.469   4.395 -0.1023 -0.1324 -0.0415
  750MOL0     C 1135   7.626   0.328   4.391  0.3556 -0.7895 -0.9447
  750MOL0     C 1136   7.769   0.323   4.344  0.1326 -0.4700 -0.0378
  750MOL0     C 1137   7.786   0.334   4.197  0.7000  0.2038  1.0434
  750MOL0     C 1138   7.720   0.207   4.122  0.3203 -0.2250 -0.2172
  750MOL0     O 1139   7.771   0.196   3.990 -0.5124 -0.7927  0.5659
  750MOL0     C 1140   7.756   0.072   3.937  0.3025  1.5113  0.1089
  750MOL0     C 1141   7.801   0.046   3.811  0.0159 -0.0368  0.6494
  750MOL0     C 1142   7.802  -0.077   3.743  0.8726 -0.7964 -0.6125
  750MOL0     C 1143   7.751  -0.191   3.815  0.4519 -0.0223  0.1496
  750MOL0     C 1144   7.765  -0.316   3.752  0.4366 -0.0036  0.0444
  750MOL0     O 1145   7.798  -0.320   3.617 -0.5705 -0.1475  0.5674
  750MOL0     C 1146   7.779  -0.446   3.556 -0.2700  0.4815  0.4324
  750MOL0     C 1147   7.651  -0.507   3.549  0.1516 -0.4214 -0.1592
  750MOL0     C 1148   7.634  -0.635   3.490  0.0181  0.4903  0.4176
  750MOL0     C 1149   7.742  -0.698   3.423  0.3939 -0.4477  0.5309
  750MOL0     O 1150   7.716  -0.819   3.356 -0.2461  0.0622 -0.0909
  750MOL0     C 1151   7.747  -0.926   3.449  0.3872 -0.7173  0.6180
  750MOL0     C 1152   7.895  -0.958   3.447 -0.1273 -0.7806 -0.4120
  750MOL0     C 1153   7.933  -1.000   3.303 -0.5622  0.1663 -0.6328
  750MOL0     C 1154   8.078  -1.049   3.288 -0.6311  0.4304 -0.2000
  750MOL0     C 1155   8.102  -1.168   3.185  0.0665  0.5851  0.5452
  750MOL0     C 1156   8.252  -1.195   3.169  0.4084 -0.1728 -0.5287
  750MOL0     C 1157   8.283  -1.307   3.063 -0.3284  0.2277  0.9719
  750MOL0     C 1158   8.442  -1.325   3.058  0.2642 -0.3266  0.0212
  750MOL0    Cl 1159   8.496  -1.468   2.986  0.5730  0.3943 -0.0236
  750MOL0     C 1160   7.866  -0.632   3.416  0.5807 -0.5758  0.1031
  750MOL0     C 1161   7.880  -0.504   3.481  0.1515  0.2828 -0.9600
  750MOL0     O 1162   7.741  -0.415   3.826 -0.3444  0.1974 -0.3718
  750MOL0     C 1163   7.694  -0.176   3.943 -0.6408 -0.1929  0.6654
  750MOL0     C 1164   7.702  -0.045   4.002 -0.4154 -0.0123  1.0227
  750MOL0     N 1165   7.546   0.556   4.292  0.0858 -0.8357  0.5920
  750MOL0     N 1166   7.494   0.665   4.335 -0.3561 -0.0668 -0.2579
  750MOL0     C 1167   7.255   1.555   4.789 -0.2296 -0.1751  0.5109
  750MOL0     C 1168   7.184   1.654   4.714 -0.2065 -0.1332  0.6395
  750MOL0     C 1169   6.811   1.914   4.600  0.2689  0.1311  0.5089
  750MOL0     C 1170   6.698   1.866   4.669  1.1745 -0.4333  0.4600
  750MOL0     C 1171   6.575   1.933   4.665  0.5320 -0.5205 -0.7818
  750MOL0     C 1172   6.564   2.063   4.602 -0.5850  0.7295  1.3841
  750MOL0     O 1173   6.451   2.138   4.612 -0.2396  0.6298 -0.7341
  750MOL0     C 1174   6.470   2.280   4.658  0.9088 -0.3646 -0.8017
  750MOL0     C 1175   6.347   2.342   4.722 -0.1016 -0.4121 -0.3259
  750MOL0     C 1176   6.227   2.325   4.639 -0.6156 -0.4258  0.0009
  750MOL0     C 1177   6.133   2.456   4.634 -0.1584  0.8776  0.2932
  750MOL0     C 1178   6.190   2.574   4.570  0.2343 -0.1147  0.9795
  750MOL0     C 1179   6.258   2.667   4.533  0.0077  0.2767  0.2638
  750MOL0     C 1180   6.673   2.112   4.532  0.2927  0.4640 -0.1824
  750MOL0     C 1181   6.794   2.038   4.523 -0.6913 -0.5449  0.0664
  750MOL0     C 1182   6.909   2.096   4.434  0.0204  0.9751 -1.4235
  750MOL0     H 1183   6.898   1.486   4.670 -0.0553  1.7192  0.0177
  750MOL0     H 1184   7.008   1.316   4.811  0.4584  0.0636  1.1607
  750MOL0     H 1185   7.122   1.302   5.021 -0.3232 -0.3087 -0.2551
  750MOL0     H 1186   7.148   1.191   4.901 -1.3819  2.1766 -1.2695
  750MOL0     H 1187   7.268   1.123   5.137  2.4161  0.4956 -0.0132
  750MOL0     H 1188   7.371   1.263   5.106  2.4764 -0.7991 -2.5980
  750MOL0     H 1189   7.484   1.081   5.072 -1.0126 -2.4757 -0.0361
  750MOL0     H 1190   7.466   1.135   4.902 -1.7129  1.3392 -0.6731
  750MOL0     H 1191   7.293   0.907   5.021 -1.4878  0.3476 -1.5116
  750MOL0     H 1192   7.271   0.992   4.868  2.6880  0.4091 -1.9405
  750MOL0     H 1193   7.528   0.874   4.941 -1.2719  0.1428  1.9745
  750MOL0     H 1194   7.417   0.785   4.847  2.2835 -1.0660  2.5464
  750MOL0     H 1195   7.406   1.017   4.696  0.2500  2.1250  3.2147
  750MOL0     H 1196   7.567   1.041   4.759  0.3206  2.3932 -3.9383
  750MOL0     H 1197   7.597   0.790   4.710 -1.5384 -1.9887 -0.0791
  750MOL0     H 1198   7.628   0.894   4.578  1.9872 -1.0721  2.6518
  750MOL0     H 1199   7.389   0.708   4.623 -0.4581  0.8853  0.8755
  750MOL0     H 1200   7.373   0.838   4.501  0.5837  0.7862 -0.8425
  750MOL0     H 1201   7.558   0.503   4.616  1.8116  2.0471  0.8772
  750MOL0     H 1202   7.630   0.287   4.492 -1.0136 -1.9546 -1.3050
  750MOL0     H 1203   7.559   0.264   4.332 -1.1906  0.9213 -1.1121
  750MOL0     H 1204   7.807   0.413   4.394 -5.4933  2.4411 -0.2365
  750MOL0     H 1205   7.826   0.238   4.383  2.1362  0.2439 -1.2492
  750MOL0     H 1206   7.893   0.341   4.175  0.8931  1.4853  2.2140
  750MOL0     H 1207   7.748   0.426   4.151  0.7688  0.6207  1.8011
  750MOL0     H 1208   7.610   0.211   4.116  0.1700 -0.2660  1.7448
  750MOL0     H 1209   7.750   0.122   4.183 -1.5151 -0.2723  0.7082
  750MOL0     H 1210   7.828   0.128   3.745 -2.4148 -1.0102 -1.7821
  750MOL0     H 1211   7.846  -0.072   3.643 -2.2453  1.2479 -2.0414
  750MOL0     H 1212   7.566  -0.452   3.587 -0.0550  0.6976 -2.1194
  750MOL0     H 1213   7.546  -0.699   3.486  0.0254  0.2900  2.3078
  750MOL0     H 1214   7.725  -0.893   3.551 -2.0692 -2.0178  0.5808
  750MOL0     H 1215   7.691  -1.016   3.423 -1.2239 -0.2898  2.3798
  750MOL0     H 1216   7.962  -0.882   3.488 -2.2247 -0.0510  1.9221
  750MOL0     H 1217   7.899  -1.045   3.513 -1.7995 -1.1827 -0.7809
  750MOL0     H 1218   7.869  -1.088   3.293  2.0746 -2.0450  0.5883
  750MOL0     H 1219   7.926  -0.919   3.229  1.5165  0.9339 -0.0653
  750MOL0     H 1220   8.108  -1.088   3.385  1.4492 -1.3821 -1.4799
  750MOL0     H 1221   8.140  -0.966   3.253 -0.9136  0.5534 -0.4222
  750MOL0     H 1222   8.068  -1.146   3.083 -2.8419 -3.5653  0.4063
  750MOL0     H 1223   8.038  -1.256   3.189 -0.4269  0.9235  0.2486
  750MOL0     H 1224   8.293  -1.100   3.133 -2.3548  0.0497 -3.4074
  750MOL0     H 1225   8.308  -1.212   3.262  0.3259  1.9617 -0.0263
  750MOL0     H 1226   8.250  -1.289   2.960 -1.1536 -1.6793  0.8662
  750MOL0     H 1227   8.237  -1.402   3.093 -3.1710  1.5917  1.2375
  750MOL0     H 1228   8.485  -1.240   3.003  1.1049 -0.7209  0.0517
  750MOL0     H 1229   8.485  -1.326   3.159  0.6649 -1.8908 -0.1297
  750MOL0     H 1230   7.945  -0.685   3.364  2.2686 -0.5031  2.4557
  750MOL0     H 1231   7.977  -0.456   3.490  0.2685  0.4566 -2.7290
  750MOL0     H 1232   7.657  -0.265   3.993 -0.6279 -1.2033 -1.0429
  750MOL0     H 1233   7.660  -0.035   4.102  0.3512  0.4348  1.3126
  750MOL0     H 1234   7.356   1.568   4.825  0.7949  1.8939 -2.6914
  750MOL0     H 1235   7.233   1.747   4.686 -5.1762  3.3325  2.1866
  750MOL0     H 1236   6.713   1.778   4.730  2.3955  2.6500  5.2010
  750MOL0     H 1237   6.483   1.905   4.714 -0.0153  3.4522  0.8570
  750MOL0     H 1238   6.486   2.332   4.563  0.6644 -2.1717 -1.8962
  750MOL0     H 1239   6.558   2.291   4.722 -0.6051 -2.8652  1.9744
  750MOL0     H 1240   6.353   2.448   4.750 -1.7443 -0.3883  0.0302
  750MOL0     H 1241   6.320   2.288   4.813  0.0365 -2.3465 -1.3735
  750MOL0     H 1242   6.163   2.251   4.688 -2.0186  2.2389  2.5545
  750MOL0     H 1243   6.254   2.301   4.536  0.6917 -2.5333  0.7778
  750MOL0     H 1244   6.052   2.428   4.567  0.9461 -0.8881 -0.3985
  750MOL0     H 1245   6.103   2.474   4.738  0.7466 -1.7375  1.1086
  750MOL0     H 1246   6.318   2.748   4.496  0.6064  1.4346  3.4212
  750MOL0     H 1247   6.664   2.209   4.484 -1.3808 -0.5554 -2.0861
  750MOL0     H 1248   6.990   2.118   4.505  0.3602 -1.4855 -0.9424
  750MOL0     H 1249   6.932   2.011   4.369 -2.3210 -1.4579  0.6761
  750MOL0     H 1250   6.884   2.185   4.376 -1.8872 -0.9615 -3.7338
  751MOL0     O 1251  10.602   5.683  10.443  0.0136  0.0598  0.0325
  751MOL0     C 1252  10.612   5.693  10.320  0.1966 -0.0393  0.1070
  751MOL0     O 1253  10.566   5.801  10.250  0.1000 -0.3627  0.4122
  751MOL0     C 1254  10.493   5.903  10.307 -0.6979 -0.0319  0.6711
  751MOL0     C 1255  10.416   5.905  10.426  0.7288 -0.2504 -0.6037
  751MOL0     C 1256  10.336   6.011  10.456  0.0516  0.2230 -0.2075
  751MOL0     C 1257  10.342   6.127  10.377  0.2485  0.0912  0.0584
  751MOL0     O 1258  10.255   6.230  10.412  0.3235  0.0611  0.1823
  751MOL0     C 1259  10.317   6.360  10.450 -0.6963  0.4728 -0.3147
  751MOL0     C 1260  10.301   6.386  10.596 -0.1724 -1.6997  0.2283
  751MOL0     C 1261  10.395   6.307  10.685 -0.1168  0.2002  0.7315
  751MOL0     C 1262  10.315   6.224  10.794 -0.9763 -0.6577  0.6741
  751MOL0     C 1263  10.286   6.309  10.918  0.3715  0.7248  0.1838
  751MOL0     C 1264  10.238   6.212  11.023  0.6475  0.2184 -0.4702
  751MOL0     C 1265  10.211   6.297  11.145 -0.5792 -0.1738  0.6050
  751MOL0     C 1266  10.073   6.289  11.200 -0.3666  0.1715 -0.5006
  751MOL0     N 1267  10.023   6.147  11.224 -0.0546  0.1006  0.5286
  751MOL0     C 1268  10.068   6.058  11.316 -0.3315 -0.0399  0.3955
  751MOL0     C 1269  10.005   5.936  11.296  0.2701  0.5046 -0.1568
  751MOL0     C 1270  10.018   5.803  11.359 -0.1828  1.4721  0.2816
  751MOL0     C 1271   9.992   5.685  11.270  0.9964  0.6419 -0.0771
  751MOL0     C 1272   9.973   5.557  11.353 -0.0936  0.9703 -0.3271
  751MOL0     C 1273  10.027   5.434  11.273  0.3087 -0.4854 -0.6477
  751MOL0     O 1274  10.001   5.316  11.342 -0.1475  0.4931 -0.3689
  751MOL0     C 1275  10.086   5.218  11.293 -0.4360  0.2559 -1.0634
  751MOL0     C 1276  10.131   5.206  11.160 -0.7309  0.1023  0.1594
  751MOL0     C 1277  10.224   5.110  11.118 -0.7355  0.0529 -0.4245
  751MOL0     C 1278  10.283   5.017  11.202 -0.2170 -0.0555 -0.9374
  751MOL0     C 1279  10.391   4.912  11.159 -0.3595  0.8647 -0.4269
  751MOL0     O 1280  10.448   4.916  11.041 -0.0440 -0.8967 -0.4193
  751MOL0     C 1281  10.566   4.849  11.021  0.3874 -0.3798  0.2486
  751MOL0     C 1282  10.681   4.857  11.098 -0.9244 -1.1723  0.1481
  751MOL0     C 1283  10.794   4.799  11.056 -1.4920  0.5113  0.1619
  751MOL0     C 1284  10.804   4.723  10.941  0.7802  0.3764  0.5269
  751MOL0     O 1285  10.914   4.649  10.913 -0.7461  0.8155 -1.0055
  751MOL0     C 1286  11.033   4.724  10.886  0.2641 -1.5455 -0.8284
  751MOL0     C 1287  11.005   4.800  10.757 -0.5153 -0.9716 -0.2383
  751MOL0     C 1288  11.134   4.868  10.706  0.6022  0.6833 -0.5703
  751MOL0     C 1289  11.108   4.943  10.580  0.6684  0.2206 -0.3312
  751MOL0     C 1290  11.236   5.009  10.535 -0.1345  0.7898 -0.2126
  751MOL0     C 1291  11.230   5.073  10.394  0.7061  0.1071 -0.4866
  751MOL0     C 1292  11.356   5.147  10.354  0.4849  0.5264  0.2590
  751MOL0     C 1293  11.360   5.293  10.375 -0.2033 -1.1306  0.3553
  751MOL0    Cl 1294  11.520   5.339  10.310  0.7286  0.2971 -0.3825
  751MOL0     C 1295  10.690   4.711  10.861  1.7978 -0.0827  0.5556
  751MOL0     C 1296  10.570   4.768  10.905  0.1044 -0.0860  0.1020
  751MOL0     O 1297  10.423   4.837  11.248 -0.5278  0.4664 -0.2398
  751MOL0     C 1298  10.229   5.017  11.331 -0.7162  0.7461 -0.1895
  751MOL0     C 1299  10.135   5.107  11.370  0.3000  0.6324 -0.2895
  751MOL0     N 1300   9.922   5.962  11.191 -0.3850 -0.0944  0.0931
  751MOL0     N 1301   9.938   6.074  11.143 -0.1005  0.5010  0.4186
  751MOL0     C 1302  10.436   6.141  10.270 -0.0082  0.4045  0.0378
  751MOL0     C 1303  10.494   6.024  10.225 -0.5085  0.0919 -0.4610
  751MOL0     C 1304  10.684   5.581  10.245  0.1472  0.2499 -0.2342
  751MOL0     C 1305  10.733   5.600  10.115  0.4285 -0.1167 -0.3151
  751MOL0     C 1306  10.827   5.520  10.052  0.0420  0.9632  0.5802
  751MOL0     C 1307  10.873   5.408  10.110 -0.0092 -0.4799  0.6281
  751MOL0     O 1308  10.962   5.318  10.051 -1.0560 -0.5480  0.0388
  751MOL0     C 1309  11.102   5.364  10.052  0.2352  0.0934 -0.1818
  751MOL0     C 1310  11.206   5.252  10.025  0.2362  0.1159 -0.3592
  751MOL0     C 1311  11.342   5.325   9.990  0.0898 -0.2835 -0.2312
  751MOL0     C 1312  11.451   5.223   9.966 -0.5581  0.5006  0.0497
  751MOL0     C 1313  11.461   5.160   9.834  0.7144  0.4280  0.0482
  751MOL0     C 1314  11.457   5.086   9.736  0.5954  0.3386 -1.1218
  751MOL0     C 1315  10.817   5.366  10.235 -0.5432 -0.1262  0.6685
  751MOL0     C 1316  10.729   5.456  10.303 -0.7273 -0.6111 -1.0594
  751MOL0     C 1317  10.684   5.409  10.443  0.6230  0.5350 -0.1268
  751MOL0     H 1318  10.419   5.818  10.491  0.8353 -0.0024 -0.2721
  751MOL0     H 1319  10.278   5.991  10.545 -1.4604 -3.5831 -1.8533
  751MOL0     H 1320  10.424   6.358  10.430 -0.9961  0.4367 -2.1073
  751MOL0     H 1321  10.268   6.436  10.388  2.6060  2.0224 -1.2158
  751MOL0     H 1322  10.197   6.365  10.623 -0.3640 -2.0766 -0.7497
  751MOL0     H 1323  10.310   6.492  10.621 -0.8685 -1.3454 -0.9345
  751MOL0     H 1324  10.459   6.379  10.737 -2.7020  1.9018  1.7811
  751MOL0     H 1325  10.456   6.234  10.631  0.7043 -0.1864  2.1142
  751MOL0     H 1326  10.226   6.184  10.744 -0.7135  1.4999 -1.7379
  751MOL0     H 1327  10.374   6.136  10.822 -1.1952 -3.0439 -5.0284
  751MOL0     H 1328  10.388   6.345  10.936  0.9268 -0.6573 -0.0589
  751MOL0     H 1329  10.208   6.385  10.903 -1.0135 -0.3910  1.4451
  751MOL0     H 1330  10.145   6.160  10.997  0.8967  0.8604 -3.0012
  751MOL0     H 1331  10.313   6.135  11.042  0.1900 -0.3132 -0.7889
  751MOL0     H 1332  10.246   6.400  11.131  2.9994 -1.1751  1.0871
  751MOL0     H 1333  10.268   6.261  11.231 -1.0246  1.6842  1.7139
  751MOL0     H 1334  10.058   6.349  11.290 -0.1642 -1.6143  0.7959
  751MOL0     H 1335  10.008   6.331  11.123  0.6934  0.9061 -1.0104
  751MOL0     H 1336  10.146   6.068  11.391 -0.7190 -2.6575  1.2479
  751MOL0     H 1337  10.120   5.788  11.396  0.4293  1.2678 -1.3959
  751MOL0     H 1338   9.967   5.794  11.455 -0.8084 -0.4364 -0.1868
  751MOL0     H 1339   9.897   5.702  11.218  0.4224 -0.4058  0.5584
  751MOL0     H 1340  10.072   5.668  11.198  1.2555  0.2552  0.2928
  751MOL0     H 1341   9.869   5.546  11.384  0.4665 -0.1427  1.3452
  751MOL0     H 1342  10.031   5.565  11.446 -0.8468 -0.7553  0.3288
  751MOL0     H 1343  10.132   5.458  11.254 -0.6836  2.4652 -3.3393
  751MOL0     H 1344   9.980   5.440  11.174  0.6098  3.3577 -0.7170
  751MOL0     H 1345  10.099   5.267  11.076  0.5336 -1.4085 -1.4720
  751MOL0     H 1346  10.253   5.104  11.013  0.3331  0.3064 -0.1538
  751MOL0     H 1347  10.668   4.897  11.198 -0.2604 -2.3274  0.7136
  751MOL0     H 1348  10.883   4.786  11.117 -1.9727 -0.9016  0.6219
  751MOL0     H 1349  11.059   4.783  10.974 -2.8008 -1.2988  0.0493
  751MOL0     H 1350  11.110   4.657  10.848 -2.2663 -3.8482 -2.2459
  751MOL0     H 1351  10.972   4.731  10.679  2.8812 -2.3852 -0.6353
  751MOL0     H 1352  10.929   4.876  10.775  0.4275 -0.5064  2.0995
  751MOL0     H 1353  11.163   4.946  10.777  0.7618  0.9698 -0.9500
  751MOL0     H 1354  11.216   4.795  10.705 -1.6981 -2.1629  1.2973
  751MOL0     H 1355  11.037   5.023  10.601 -0.8180 -0.2060 -3.2755
  751MOL0     H 1356  11.068   4.887  10.495  1.9510 -0.8118 -0.3083
  751MOL0     H 1357  11.305   4.925  10.544 -0.2184  0.7098 -0.3065
  751MOL0     H 1358  11.259   5.081  10.614 -0.5394 -0.8802  1.5017
  751MOL0     H 1359  11.214   5.003  10.312 -0.7580 -0.4037  0.2004
  751MOL0     H 1360  11.145   5.140  10.379  0.2856 -0.5344 -0.9587
  751MOL0     H 1361  11.367   5.138  10.246 -1.9450  1.6764 -0.1618
  751MOL0     H 1362  11.444   5.101  10.399 -1.2203 -2.9906  0.2904
  751MOL0     H 1363  11.275   5.339  10.323 -2.0591 -2.0231  2.4455
  751MOL0     H 1364  11.356   5.319  10.481 -0.0032  0.3866  0.0244
  751MOL0     H 1365  10.687   4.639  10.779 -0.3687 -1.3719  1.6689
  751MOL0     H 1366  10.479   4.753  10.848  1.7665 -1.2555 -2.4043
  751MOL0     H 1367  10.273   4.948  11.402  2.9418  2.1967 -0.7952
  751MOL0     H 1368  10.089   5.098  11.468 -0.2897  1.0126 -0.5210
  751MOL0     H 1369  10.443   6.238  10.221 -2.1921  0.0492 -1.1241
  751MOL0     H 1370  10.554   6.025  10.135 -0.0877 -1.4411 -0.2243
  751MOL0     H 1371  10.699   5.694  10.073 -2.1216  0.3319  2.3824
  751MOL0     H 1372  10.865   5.541   9.952  0.4181 -0.7836  0.3272
  751MOL0     H 1373  11.125   5.416  10.146  0.0977  0.7191 -0.4850
  751MOL0     H 1374  11.113   5.442   9.976 -0.2282  1.1333  0.7867
  751MOL0     H 1375  11.180   5.195   9.935 -0.0640  0.4505 -0.4859
  751MOL0     H 1376  11.216   5.178  10.105  3.6120 -3.3640 -3.5665
  751MOL0     H 1377  11.364   5.388  10.077 -1.0674 -0.7852  0.4508
  751MOL0     H 1378  11.332   5.387   9.900 -2.0906 -1.4424 -0.8424
  751MOL0     H 1379  11.546   5.271   9.992 -0.9298  0.5039  1.4549
  751MOL0     H 1380  11.443   5.146  10.043 -0.2679  0.7087  0.2902
  751MOL0     H 1381  11.443   5.006   9.666 -0.2512 -0.2227 -0.3308
  751MOL0     H 1382  10.852   5.270  10.271  0.3376 -0.8027 -1.8001
  751MOL0     H 1383  10.580   5.436  10.465  0.6443  0.7650 -0.3033
  751MOL0     H 1384  10.706   5.303  10.452  1.3128  0.6743 -0.1534
  751MOL0     H 1385  10.734   5.469  10.519 -1.3665 -0.1440  1.8105
  752MOL0     O 1386   6.790   7.327   2.436 -0.2440 -0.5690 -0.1979
  752MOL0     C 1387   6.875   7.379   2.509 -0.1546 -0.1627  0.1296
  752MOL0     O 1388   6.998   7.416   2.482 -0.7963 -0.2259  0.2769
  752MOL0     C 1389   7.044   7.391   2.353 -0.4208 -0.0367  0.0443
  752MOL0     C 1390   7.058   7.500   2.268 -0.5347  0.2187  0.5522
  752MOL0     C 1391   7.114   7.485   2.142  0.5148  0.3281 -0.4653
  752MOL0     C 1392   7.146   7.365   2.090  0.2152 -0.3209  0.4849
  752MOL0     O 1393   7.198   7.357   1.959  0.5974  0.0645  0.0423
  752MOL0     C 1394   7.161   7.245   1.875 -0.6561 -0.5088  0.1756
  752MOL0     C 1395   7.158   7.273   1.728  0.8309  0.1433 -0.0986
  752MOL0     C 1396   7.051   7.374   1.687  0.3149  0.5223 -0.2839
  752MOL0     C 1397   7.025   7.374   1.539 -0.3811  0.2379 -0.4535
  752MOL0     C 1398   6.891   7.449   1.508  0.7377 -0.1799  1.2045
  752MOL0     C 1399   6.897   7.471   1.351 -0.0290  0.7077  0.8181
  752MOL0     C 1400   6.769   7.534   1.298 -0.4333  0.6835  0.1162
  752MOL0     C 1401   6.748   7.531   1.155  0.0727  0.0726 -0.1926
  752MOL0     N 1402   6.615   7.593   1.128  0.2908 -0.1694  0.0932
  752MOL0     C 1403   6.543   7.702   1.171 -0.7554 -0.1101  0.9615
  752MOL0     C 1404   6.415   7.682   1.139  0.4334  0.1645  0.2480
  752MOL0     C 1405   6.275   7.747   1.179 -0.1743 -0.1921  0.5601
  752MOL0     C 1406   6.261   7.887   1.116 -0.8029 -0.3690  0.2890
  752MOL0     C 1407   6.137   7.957   1.171  0.3772  0.0651  0.0304
  752MOL0     C 1408   6.113   8.086   1.089  0.0005 -0.0512 -0.7967
  752MOL0     O 1409   6.224   8.169   1.123  0.5134 -0.2179  0.6923
  752MOL0     C 1410   6.201   8.288   1.179 -0.1308 -0.2979  0.2703
  752MOL0     C 1411   6.149   8.391   1.101  0.3787  0.6397  0.8326
  752MOL0     C 1412   6.128   8.513   1.156 -0.5327  0.5775 -0.1877
  752MOL0     C 1413   6.178   8.546   1.284 -1.4174 -0.0816 -0.8861
  752MOL0     C 1414   6.152   8.675   1.356  0.2594  0.1474 -0.9915
  752MOL0     O 1415   6.161   8.675   1.490  0.3670 -0.1067 -0.9705
  752MOL0     C 1416   6.111   8.780   1.563  0.1064 -0.1466 -0.3984
  752MOL0     C 1417   6.099   8.915   1.523  0.8415 -0.0591  0.1959
  752MOL0     C 1418   6.036   9.005   1.615  0.0874  0.3825  0.4605
  752MOL0     C 1419   5.975   8.965   1.737  0.0111  0.8636  1.1681
  752MOL0     O 1420   5.896   9.050   1.823  0.0887  0.7049 -0.0456
  752MOL0     C 1421   5.899   9.194   1.822  0.1113 -0.6658  0.3138
  752MOL0     C 1422   6.030   9.258   1.879 -0.0890  0.2552 -0.2082
  752MOL0     C 1423   6.101   9.167   1.994  0.2709 -0.5645  1.0863
  752MOL0     C 1424   6.152   9.252   2.112 -0.4590  0.4609  0.6089
  752MOL0     C 1425   6.053   9.272   2.228 -0.1544 -0.3229 -0.1224
  752MOL0     C 1426   6.116   9.374   2.313 -1.0395 -0.2053 -0.4411
  752MOL0     C 1427   6.038   9.363   2.447  0.2525  0.5441  0.0901
  752MOL0     C 1428   6.066   9.484   2.528  0.6649 -0.7975  0.1543
  752MOL0    Cl 1429   6.235   9.487   2.564 -0.5440  0.4076 -0.0476
  752MOL0     C 1430   6.000   8.833   1.766 -0.0016  0.1039  0.0287
  752MOL0     C 1431   6.063   8.743   1.684 -0.4535 -0.6126 -0.7333
  752MOL0     O 1432   6.128   8.777   1.286 -0.1833  0.1421 -0.3130
  752MOL0     C 1433   6.242   8.439   1.353  0.5449  0.0564  0.7065
  752MOL0     C 1434   6.235   8.312   1.309 -0.0401  0.1992 -0.2847
  752MOL0     N 1435   6.406   7.577   1.046 -0.1356 -1.2642 -0.3587
  752MOL0     N 1436   6.527   7.528   1.051 -0.3114  1.1169  0.0296
  752MOL0     C 1437   7.125   7.250   2.178  0.3323 -0.5639 -0.0534
  752MOL0     C 1438   7.079   7.267   2.309 -0.3355 -0.9117  0.2513
  752MOL0     C 1439   6.823   7.393   2.652  0.2623 -0.5389  0.7668
  752MOL0     C 1440   6.924   7.386   2.750  0.2825  0.7394  0.1696
  752MOL0     C 1441   6.903   7.413   2.884  0.2111 -0.7260  0.2974
  752MOL0     C 1442   6.772   7.466   2.920 -1.7512 -0.3061 -0.1531
  752MOL0     O 1443   6.745   7.524   3.044 -0.2849  0.7349  0.4206
  752MOL0     C 1444   6.840   7.543   3.155 -0.4043  0.0698 -0.0895
  752MOL0     C 1445   6.766   7.601   3.282 -0.2049 -0.4169  0.4906
  752MOL0     C 1446   6.664   7.501   3.346 -0.0628  0.3281  0.0805
  752MOL0     C 1447   6.572   7.570   3.457 -0.3617 -0.3550 -0.3778
  752MOL0     C 1448   6.443   7.601   3.396  0.5298  0.6073 -0.6132
  752MOL0     C 1449   6.334   7.620   3.363  0.6579 -0.5815  0.4580
  752MOL0     C 1450   6.675   7.475   2.819 -0.3133 -0.0661  0.4358
  752MOL0     C 1451   6.688   7.435   2.689  0.2001  0.3481 -0.1665
  752MOL0     C 1452   6.576   7.447   2.599  0.0067 -1.4581  1.0151
  752MOL0     H 1453   7.033   7.603   2.294 -3.1230 -0.5921  1.5790
  752MOL0     H 1454   7.115   7.575   2.083  2.3304  0.8347  0.2754
  752MOL0     H 1455   7.236   7.165   1.875 -0.2543 -0.1449 -0.6644
  752MOL0     H 1456   7.077   7.184   1.909  0.1655 -3.2572 -2.2908
  752MOL0     H 1457   7.135   7.176   1.684  4.2749 -0.3091 -1.1757
  752MOL0     H 1458   7.260   7.306   1.707  2.2337 -0.8795  4.1769
  752MOL0     H 1459   7.086   7.471   1.725  4.1732 -0.9992  0.6061
  752MOL0     H 1460   6.960   7.348   1.741  1.7011 -1.8048  1.1256
  752MOL0     H 1461   7.104   7.417   1.476 -0.6760 -2.1828 -2.6556
  752MOL0     H 1462   7.020   7.270   1.507  1.2469  0.7885 -2.8137
  752MOL0     H 1463   6.810   7.394   1.555  0.7765 -1.3474 -0.0450
  752MOL0     H 1464   6.876   7.546   1.557 -1.7068 -0.0296  0.2687
  752MOL0     H 1465   6.979   7.537   1.323 -0.9693  2.1090  1.2830
  752MOL0     H 1466   6.913   7.374   1.303  0.7257 -0.1985  2.8245
  752MOL0     H 1467   6.762   7.640   1.326 -2.5154  1.1673 -1.9209
  752MOL0     H 1468   6.682   7.481   1.338 -0.4559  0.4647 -0.2148
  752MOL0     H 1469   6.832   7.584   1.108 -0.7125  0.8001 -0.8063
  752MOL0     H 1470   6.732   7.432   1.111 -4.5164  2.3726 -4.7122
  752MOL0     H 1471   6.588   7.771   1.242 -0.4362 -0.2395  0.8856
  752MOL0     H 1472   6.187   7.684   1.163 -1.2990  1.4247  0.0282
  752MOL0     H 1473   6.262   7.755   1.287 -3.7680 -1.5169  0.3596
  752MOL0     H 1474   6.344   7.949   1.150 -0.7385 -0.5370  0.4369
  752MOL0     H 1475   6.251   7.878   1.007 -1.4450  0.1145  0.3056
  752MOL0     H 1476   6.165   7.986   1.273 -0.4455 -0.0048  0.2876
  752MOL0     H 1477   6.047   7.895   1.161  0.5999  0.0073 -1.9352
  752MOL0     H 1478   6.021   8.143   1.107  1.3438  2.7255 -2.1049
  752MOL0     H 1479   6.120   8.065   0.982  0.1782 -1.1272 -0.5836
  752MOL0     H 1480   6.131   8.374   0.995  1.8032  0.0992  0.6540
  752MOL0     H 1481   6.096   8.591   1.088 -0.7026 -0.7830 -1.7258
  752MOL0     H 1482   6.146   8.962   1.436 -1.6450 -1.7176 -2.2198
  752MOL0     H 1483   6.049   9.110   1.590  3.2366 -0.4651 -2.2150
  752MOL0     H 1484   5.872   9.246   1.731 -1.6610  1.1637  1.8046
  752MOL0     H 1485   5.817   9.229   1.885  0.1357 -0.6293  0.3260
  752MOL0     H 1486   6.101   9.276   1.798 -0.7286  0.9756 -0.6250
  752MOL0     H 1487   6.008   9.356   1.922  0.1172 -0.4523  1.5966
  752MOL0     H 1488   6.035   9.089   2.032  1.1380 -1.8548  0.0301
  752MOL0     H 1489   6.196   9.125   1.960  0.2742  2.5946 -3.8234
  752MOL0     H 1490   6.187   9.349   2.074 -0.8729  0.2110 -0.4196
  752MOL0     H 1491   6.240   9.207   2.160  1.0924  2.9764  0.3328
  752MOL0     H 1492   6.039   9.176   2.278 -2.2764 -0.1367 -0.2668
  752MOL0     H 1493   5.955   9.309   2.197 -0.7385 -0.7952  1.0867
  752MOL0     H 1494   6.220   9.348   2.335 -0.6211  0.9255 -1.0531
  752MOL0     H 1495   6.128   9.475   2.273 -1.3488  0.7668  1.7733
  752MOL0     H 1496   6.060   9.270   2.500 -0.8718 -0.3024 -0.8565
  752MOL0     H 1497   5.931   9.364   2.421  0.8563  1.5550 -2.7802
  752MOL0     H 1498   6.041   9.580   2.482  0.7305 -0.0556  1.6062
  752MOL0     H 1499   6.001   9.490   2.616  0.7097  2.3326  0.0884
  752MOL0     H 1500   5.962   8.801   1.862  0.4640 -2.7615 -0.6424
  752MOL0     H 1501   6.091   8.645   1.721 -1.1870  0.2982  2.5368
  752MOL0     H 1502   6.285   8.449   1.452 -2.2682 -1.3105  2.1768
  752MOL0     H 1503   6.270   8.230   1.371 -2.4894  0.3294  1.3958
  752MOL0     H 1504   7.141   7.146   2.151  1.2301 -0.9168  1.6559
  752MOL0     H 1505   7.060   7.177   2.366 -1.6365 -0.4161  0.6390
  752MOL0     H 1506   7.025   7.354   2.729 -0.5744  0.2278 -4.0653
  752MOL0     H 1507   6.982   7.411   2.957 -1.5659 -3.2019  2.3259
  752MOL0     H 1508   6.924   7.609   3.130  0.0923  0.1415  1.6544
  752MOL0     H 1509   6.898   7.456   3.184 -0.4469  1.0363  3.3269
  752MOL0     H 1510   6.718   7.697   3.261 -2.7468 -0.3187  5.3525
  752MOL0     H 1511   6.844   7.625   3.356 -0.2588 -0.9672  0.7375
  752MOL0     H 1512   6.724   7.420   3.389  0.0151 -1.2093 -2.6985
  752MOL0     H 1513   6.603   7.458   3.266  1.2335  2.8606 -2.4701
  752MOL0     H 1514   6.561   7.483   3.522  1.2163 -0.1532  0.1973
  752MOL0     H 1515   6.622   7.655   3.504 -2.7454  0.5933  0.6136
  752MOL0     H 1516   6.236   7.640   3.326  0.7062 -1.8895 -0.4365
  752MOL0     H 1517   6.580   7.525   2.837  0.1485  1.2552 -0.6464
  752MOL0     H 1518   6.550   7.346   2.565  3.1956 -2.4766  1.3013
  752MOL0     H 1519   6.488   7.503   2.632 -0.4295  0.5261 -2.8638
  752MOL0     H 1520   6.613   7.510   2.517 -4.0410  1.7504  1.2891
  753MOL0     O 1521   1.893   0.279  10.355 -0.4859  0.0674 -0.5015
  753MOL0     C 1522   1.911   0.399  10.367  0.4103 -0.4326 -0.7073
  753MOL0     O 1523   1.891   0.497  10.263 -0.0364  0.4885  0.9212
  753MOL0     C 1524   1.849   0.464  10.134  0.0399 -0.7621  0.2043
  753MOL0     C 1525   1.763   0.549  10.065  0.8623 -0.1367 -1.1083
  753MOL0     C 1526   1.719   0.525   9.938 -0.2237 -0.1145 -1.1533
  753MOL0     C 1527   1.751   0.417   9.870  0.4324  0.3949  0.3314
  753MOL0     O 1528   1.698   0.395   9.745 -0.1590  0.6346 -0.0282
  753MOL0     C 1529   1.761   0.299   9.661  0.1989  0.5834  0.8206
  753MOL0     C 1530   1.676   0.299   9.527 -0.7370 -0.0112  0.1792
  753MOL0     C 1531   1.527   0.273   9.554 -0.1649 -0.5906 -0.7607
  753MOL0     C 1532   1.453   0.266   9.420  0.3655  0.8443 -0.0798
  753MOL0     C 1533   1.440   0.401   9.348 -0.6638 -0.3856  0.9849
  753MOL0     C 1534   1.327   0.398   9.249 -0.0458  0.1983  0.7642
  753MOL0     C 1535   1.293   0.530   9.178  0.4263  0.1276 -0.2195
  753MOL0     C 1536   1.398   0.596   9.097 -0.0730  0.4511  0.8763
  753MOL0     N 1537   1.395   0.532   8.969  0.3429 -0.2539 -0.6018
  753MOL0     C 1538   1.362   0.595   8.852 -0.2540  0.8626 -0.8689
  753MOL0     C 1539   1.407   0.508   8.755  0.2837  1.1197  0.2768
  753MOL0     C 1540   1.428   0.534   8.606 -0.8468  0.0023 -0.0670
  753MOL0     C 1541   1.335   0.470   8.493 -0.0185  0.5401  0.3024
  753MOL0     C 1542   1.377   0.335   8.461  0.1277 -0.5653 -0.7991
  753MOL0     C 1543   1.300   0.273   8.345  0.3732  0.5258  0.6376
  753MOL0     O 1544   1.157   0.260   8.360  0.6967 -0.3660 -0.1513
  753MOL0     C 1545   1.087   0.228   8.246 -0.0785  0.3914 -0.2911
  753MOL0     C 1546   1.025   0.098   8.217  0.6358 -0.2828 -0.1566
  753MOL0     C 1547   0.947   0.090   8.094  0.2977 -0.1701 -0.0869
  753MOL0     C 1548   0.903   0.209   8.030 -0.0186  0.7054  0.6053
  753MOL0     C 1549   0.802   0.190   7.913  0.6573 -0.8157 -0.6832
  753MOL0     O 1550   0.774   0.301   7.837 -0.3595 -0.0524 -1.0238
  753MOL0     C 1551   0.691   0.293   7.722 -1.1244  0.5596 -1.4309
  753MOL0     C 1552   0.740   0.334   7.597  0.4400 -0.1873  1.5946
  753MOL0     C 1553   0.655   0.334   7.485 -0.3021 -0.2465  0.0448
  753MOL0     C 1554   0.531   0.286   7.483  0.0496  0.0573 -0.6734
  753MOL0     O 1555   0.463   0.288   7.369  0.8558  0.6098 -0.3071
  753MOL0     C 1556   0.400   0.416   7.338 -0.1236  0.0541  0.3019
  753MOL0     C 1557   0.341   0.403   7.196  0.3304 -0.5641  0.1549
  753MOL0     C 1558   0.239   0.509   7.171 -0.7268 -0.8211  0.0427
  753MOL0     C 1559   0.199   0.500   7.018 -1.0494 -0.4141 -0.0640
  753MOL0     C 1560   0.079   0.597   7.023  0.1477 -0.8334 -0.2672
  753MOL0     C 1561   0.029   0.630   6.884 -0.7379 -0.0344  0.4760
  753MOL0     C 1562  -0.094   0.718   6.866  0.8103 -0.3890  0.1916
  753MOL0     C 1563  -0.102   0.838   6.949  0.4230 -0.0200 -0.7365
  753MOL0    Cl 1564  -0.266   0.908   6.937  0.0179  0.0233  0.4307
  753MOL0     C 1565   0.486   0.230   7.603 -0.6883  0.2152 -0.3381
  753MOL0     C 1566   0.562   0.232   7.716 -0.3088  0.2577 -0.5429
  753MOL0     O 1567   0.765   0.078   7.894  0.2400 -0.2802 -0.3112
  753MOL0     C 1568   0.957   0.326   8.074 -1.2492 -0.5981  0.2695
  753MOL0     C 1569   1.045   0.332   8.176  1.0318  0.1761  0.6829
  753MOL0     N 1570   1.469   0.406   8.822 -0.2908  0.7005  0.3223
  753MOL0     N 1571   1.466   0.419   8.942  0.2849  0.1727  0.4065
  753MOL0     C 1572   1.829   0.316   9.942  0.6918 -0.8670 -0.1716
  753MOL0     C 1573   1.884   0.348  10.065 -0.3526  0.2394 -1.5500
  753MOL0     C 1574   1.976   0.465  10.481  0.4629  0.2334 -0.5470
  753MOL0     C 1575   2.079   0.557  10.457  1.5784 -0.2760  0.4113
  753MOL0     C 1576   2.154   0.611  10.557  0.6929 -0.0306 -0.0610
  753MOL0     C 1577   2.138   0.573  10.689 -0.0194  0.5573 -0.0175
  753MOL0     O 1578   2.214   0.626  10.796 -0.2453 -0.1829  0.1666
  753MOL0     C 1579   2.244   0.769  10.796 -0.1900 -0.2075 -0.4914
  753MOL0     C 1580   2.128   0.859  10.834  0.8570 -0.2745  0.2639
  753MOL0     C 1581   2.179   1.002  10.874  0.0621 -0.5130 -0.8404
  753MOL0     C 1582   2.060   1.107  10.882 -0.7028 -0.0758  0.5821
  753MOL0     C 1583   2.109   1.230  10.949 -0.4854  0.5078 -0.3827
  753MOL0     C 1584   2.157   1.313  11.023  0.4636 -0.1652  0.1277
  753MOL0     C 1585   2.036   0.475  10.715 -0.1237  0.1222 -0.1255
  753MOL0     C 1586   1.960   0.418  10.608 -0.1572  0.7101  0.0560
  753MOL0     C 1587   1.850   0.315  10.646  0.4377 -0.1138 -0.0315
  753MOL0     H 1588   1.735   0.636  10.125  1.9799  0.4171 -1.3712
  753MOL0     H 1589   1.660   0.607   9.897 -0.3041 -0.4262 -1.6622
  753MOL0     H 1590   1.868   0.307   9.641  0.0996  0.4517  0.2115
  753MOL0     H 1591   1.738   0.203   9.709  4.8948 -0.3124  1.7506
  753MOL0     H 1592   1.721   0.226   9.459 -1.8755 -0.7605  0.2212
  753MOL0     H 1593   1.689   0.397   9.479 -2.2753 -1.2621 -3.0787
  753MOL0     H 1594   1.486   0.356   9.612  1.1366  0.2195 -0.9505
  753MOL0     H 1595   1.519   0.173   9.599  2.1172 -1.4323 -2.0555
  753MOL0     H 1596   1.518   0.208   9.353 -0.0812  0.1229  0.1098
  753MOL0     H 1597   1.356   0.221   9.442 -1.6529  3.8656 -1.9514
  753MOL0     H 1598   1.425   0.487   9.414  1.0714  1.7322 -1.2126
  753MOL0     H 1599   1.532   0.433   9.300 -1.2395 -0.9393 -0.5405
  753MOL0     H 1600   1.335   0.321   9.172 -2.2697 -1.4750  2.0789
  753MOL0     H 1601   1.240   0.368   9.308  0.0834 -3.5517 -0.6871
  753MOL0     H 1602   1.271   0.607   9.253  1.4558  1.3963 -1.1884
  753MOL0     H 1603   1.205   0.498   9.121 -0.1145 -0.0208  0.6751
  753MOL0     H 1604   1.370   0.700   9.076  0.9667  0.5025 -0.3642
  753MOL0     H 1605   1.495   0.600   9.147  0.5635  2.7830 -0.3727
  753MOL0     H 1606   1.329   0.696   8.828  0.1288  0.6223 -2.5932
  753MOL0     H 1607   1.425   0.643   8.599 -3.5733  0.8004  6.1011
  753MOL0     H 1608   1.530   0.506   8.580  0.1272  1.9592  1.3837
  753MOL0     H 1609   1.237   0.460   8.541 -0.5679 -2.4601 -1.1903
  753MOL0     H 1610   1.325   0.529   8.401  1.4637 -1.0689 -0.9587
  753MOL0     H 1611   1.353   0.273   8.548  0.3956 -0.8495 -0.9232
  753MOL0     H 1612   1.485   0.333   8.442  0.2446 -2.5319 -0.1662
  753MOL0     H 1613   1.338   0.171   8.333  0.0194  0.4809 -0.1643
  753MOL0     H 1614   1.315   0.338   8.258  1.8846 -1.0174 -0.3293
  753MOL0     H 1615   1.040   0.007   8.274 -1.3931  1.3603  3.3259
  753MOL0     H 1616   0.920  -0.011   8.064 -2.3100  1.0939 -2.3387
  753MOL0     H 1617   0.845   0.358   7.585  1.5403 -3.9333  2.4719
  753MOL0     H 1618   0.709   0.360   7.394 -2.3324 -2.0172 -1.7923
  753MOL0     H 1619   0.322   0.433   7.412 -0.1113 -0.7145  0.5043
  753MOL0     H 1620   0.462   0.505   7.343  0.2860 -0.2776  1.3680
  753MOL0     H 1621   0.418   0.409   7.119 -0.3411 -0.4942 -0.5131
  753MOL0     H 1622   0.296   0.304   7.188  2.2206 -1.5320  0.7922
  753MOL0     H 1623   0.158   0.501   7.245 -0.1576  0.1480  0.8004
  753MOL0     H 1624   0.289   0.605   7.184 -1.2097 -0.5653  0.0238
  753MOL0     H 1625   0.176   0.395   6.998 -0.1881 -1.1163  2.2078
  753MOL0     H 1626   0.274   0.543   6.952  1.3383  0.9600  3.2637
  753MOL0     H 1627   0.102   0.696   7.063  0.6715  0.2685 -3.0661
  753MOL0     H 1628   0.004   0.533   7.072 -2.2489  1.8449 -0.1525
  753MOL0     H 1629   0.115   0.682   6.842 -0.6449 -0.9812 -0.5642
  753MOL0     H 1630   0.022   0.542   6.819  0.5937 -2.0333  2.8910
  753MOL0     H 1631  -0.180   0.651   6.861 -0.9844  1.8503 -2.1933
  753MOL0     H 1632  -0.080   0.771   6.771 -0.9329  0.2897  0.2737
  753MOL0     H 1633  -0.082   0.829   7.056  0.0154  1.4210 -0.5086
  753MOL0     H 1634  -0.029   0.902   6.898 -0.7703  0.2374 -2.1979
  753MOL0     H 1635   0.393   0.174   7.601 -1.0305  0.7322  0.4001
  753MOL0     H 1636   0.510   0.186   7.800 -1.6148  1.7329 -0.5003
  753MOL0     H 1637   0.932   0.418   8.022  0.5171  3.4340  5.6495
  753MOL0     H 1638   1.083   0.431   8.203  1.6035 -0.3582  1.9463
  753MOL0     H 1639   1.846   0.219   9.898 -0.8497 -2.4358  2.4546
  753MOL0     H 1640   1.957   0.281  10.109  0.2911  1.7200 -0.2914
  753MOL0     H 1641   2.106   0.583  10.355  4.3444 -1.6221  0.7010
  753MOL0     H 1642   2.232   0.682  10.531 -1.6897  3.4795  1.4827
  753MOL0     H 1643   2.302   0.806  10.711  0.5924  1.4038  0.6913
  753MOL0     H 1644   2.321   0.785  10.872 -1.3408  3.3345  0.1181
  753MOL0     H 1645   2.071   0.808  10.912  2.6085 -1.8984  0.5693
  753MOL0     H 1646   2.061   0.859  10.748 -3.1368 -2.2663  3.0741
  753MOL0     H 1647   2.251   1.036  10.799  0.8257 -1.2770 -0.4636
  753MOL0     H 1648   2.228   0.999  10.971 -5.5647  0.0086  2.4905
  753MOL0     H 1649   2.038   1.138  10.779 -2.0174  0.6469  1.0650
  753MOL0     H 1650   1.974   1.075  10.941 -0.7414 -1.3355 -0.1273
  753MOL0     H 1651   2.215   1.380  11.083 -0.6512 -1.5964  2.9538
  753MOL0     H 1652   2.018   0.459  10.821  1.2795 -1.4620 -0.0806
  753MOL0     H 1653   1.750   0.361  10.647  0.0645 -0.7094  3.1099
  753MOL0     H 1654   1.851   0.226  10.584  1.6227 -0.5528  0.5841
  753MOL0     H 1655   1.865   0.283  10.750 -1.9189 -0.3412  0.3152
  754MOL0     O 1656   6.491   2.748   9.791 -0.0331 -0.3210  0.2582
  754MOL0     C 1657   6.494   2.868   9.775  0.2670  0.5048  0.4036
  754MOL0     O 1658   6.476   2.973   9.869  0.2853  0.4961  0.6934
  754MOL0     C 1659   6.484   2.936  10.000 -0.3542  0.3723 -0.5573
  754MOL0     C 1660   6.588   2.996  10.066  0.4061 -0.3678 -0.5019
  754MOL0     C 1661   6.583   2.975  10.208  0.4631  0.1990  0.1263
  754MOL0     C 1662   6.482   2.902  10.269  0.3632  0.2134  0.4083
  754MOL0     O 1663   6.482   2.882  10.401 -0.3127  0.1083  0.2424
  754MOL0     C 1664   6.486   3.000  10.483 -0.6489 -0.1206 -0.1272
  754MOL0     C 1665   6.350   3.078  10.481 -0.6907  0.3196 -0.3224
  754MOL0     C 1666   6.342   3.203  10.574  0.0468  0.0346 -1.0593
  754MOL0     C 1667   6.247   3.183  10.696  0.7481 -0.1059  0.1202
  754MOL0     C 1668   6.284   3.065  10.783  0.1252 -0.0942 -0.7497
  754MOL0     C 1669   6.162   3.042  10.888  0.3478  0.9402  0.2997
  754MOL0     C 1670   6.128   3.160  10.984 -0.6633  0.9316 -0.4296
  754MOL0     C 1671   6.243   3.228  11.066 -0.3163  0.1649  0.2996
  754MOL0     N 1672   6.315   3.133  11.154  0.4326  0.0144 -0.2777
  754MOL0     C 1673   6.257   3.049  11.254 -0.6031  0.9368  0.0251
  754MOL0     C 1674   6.372   2.991  11.301  0.3692  0.2793 -0.2434
  754MOL0     C 1675   6.381   2.896  11.418 -0.4872 -0.4163 -0.2269
  754MOL0     C 1676   6.325   2.972  11.546 -0.1116 -0.0958  1.0248
  754MOL0     C 1677   6.338   2.871  11.656 -0.0864 -0.2272 -0.0401
  754MOL0     C 1678   6.286   2.906  11.792  0.3271 -0.4907  0.3132
  754MOL0     O 1679   6.359   3.019  11.843 -0.1595  0.1174  0.3252
  754MOL0     C 1680   6.344   3.050  11.979  1.2969  0.3515 -0.4226
  754MOL0     C 1681   6.245   3.003  12.060  0.1369 -0.1947 -0.7451
  754MOL0     C 1682   6.249   3.030  12.208  0.2128  0.5182 -0.2037
  754MOL0     C 1683   6.354   3.098  12.263 -0.6219 -1.7433 -0.2306
  754MOL0     C 1684   6.370   3.118  12.406 -0.5473  1.0560 -0.2209
  754MOL0     O 1685   6.492   3.161  12.453  0.5612 -0.2596  1.2442
  754MOL0     C 1686   6.522   3.178  12.588  0.6644  0.5577 -0.3403
  754MOL0     C 1687   6.605   3.280  12.621  0.3775 -0.0362  0.1383
  754MOL0     C 1688   6.649   3.291  12.749 -0.1502  0.0929  0.0472
  754MOL0     C 1689   6.626   3.193  12.846 -0.4090  0.0596  0.7013
  754MOL0     O 1690   6.702   3.204  12.967  0.3015  0.2202  0.1800
  754MOL0     C 1691   6.746   3.080  13.033 -0.1252  0.0756 -0.3357
  754MOL0     C 1692   6.819   3.127  13.155 -0.0373  0.8744  0.2601
  754MOL0     C 1693   6.787   3.030  13.269  1.0854 -0.5090 -0.3665
  754MOL0     C 1694   6.872   3.054  13.397  0.2757 -1.2661  0.6846
  754MOL0     C 1695   6.904   2.935  13.479 -0.3107 -0.9180 -0.1920
  754MOL0     C 1696   7.015   2.847  13.412 -0.7714  0.0766  0.2468
  754MOL0     C 1697   7.161   2.915  13.414  0.9698  0.4812 -0.2383
  754MOL0     C 1698   7.255   2.824  13.342 -0.9117 -0.2885  1.1253
  754MOL0    Cl 1699   7.196   2.818  13.172 -0.0686 -0.3654 -0.1092
  754MOL0     C 1700   6.540   3.078  12.812 -0.0089 -1.2577  0.1079
  754MOL0     C 1701   6.489   3.075  12.679 -0.6831  0.6425 -0.4408
  754MOL0     O 1702   6.283   3.075  12.479  0.0133  0.1240  0.6010
  754MOL0     C 1703   6.438   3.166  12.175  0.3018  0.0184 -0.7555
  754MOL0     C 1704   6.435   3.142  12.041 -0.3722  0.5054 -0.1774
  754MOL0     N 1705   6.485   3.043  11.246 -0.1595  0.2274  0.2409
  754MOL0     N 1706   6.450   3.123  11.156  0.9646 -0.1418 -0.4580
  754MOL0     C 1707   6.376   2.849  10.194 -0.6118  0.0377  0.0349
  754MOL0     C 1708   6.381   2.862  10.059 -0.2237  0.6222  1.1315
  754MOL0     C 1709   6.479   2.914   9.630  0.4335 -1.1589  0.2711
  754MOL0     C 1710   6.464   3.057   9.622  0.1381 -0.4592  1.2604
  754MOL0     C 1711   6.462   3.110   9.491  0.3433 -0.2452  0.3080
  754MOL0     C 1712   6.466   3.032   9.374  0.2572 -0.5887 -0.9178
  754MOL0     O 1713   6.447   3.087   9.252 -0.0796 -0.6456 -0.2964
  754MOL0     C 1714   6.464   3.230   9.238  0.4957  0.1368  0.0511
  754MOL0     C 1715   6.608   3.282   9.254  0.1080 -0.0706  0.1665
  754MOL0     C 1716   6.697   3.223   9.142  0.3882 -0.0066 -0.5470
  754MOL0     C 1717   6.829   3.288   9.128 -0.2792  0.3179 -0.1933
  754MOL0     C 1718   6.897   3.296   9.259  0.3638  0.0884 -1.0153
  754MOL0     C 1719   6.978   3.336   9.339 -0.0306 -0.3317 -0.9655
  754MOL0     C 1720   6.472   2.895   9.386  0.3981  0.1493  0.1760
  754MOL0     C 1721   6.483   2.829   9.514  0.5122  0.4593  0.5885
  754MOL0     C 1722   6.476   2.678   9.520  0.3769  1.2641  0.3980
  754MOL0     H 1723   6.660   3.057  10.012 -0.8973 -0.5618 -2.5396
  754MOL0     H 1724   6.669   3.007  10.265  1.6965 -2.0993 -0.3309
  754MOL0     H 1725   6.498   2.956  10.582  4.0679 -3.0665 -1.6813
  754MOL0     H 1726   6.576   3.062  10.477 -1.5616  1.3097  0.4752
  754MOL0     H 1727   6.282   3.002  10.522 -0.2852 -0.2781 -0.7287
  754MOL0     H 1728   6.324   3.100  10.377  1.9353 -0.6178 -1.2523
  754MOL0     H 1729   6.316   3.299  10.528 -0.5213  2.9168  4.4219
  754MOL0     H 1730   6.444   3.215  10.611 -1.2186 -0.8323  3.2919
  754MOL0     H 1731   6.271   3.277  10.746  2.3445  0.0092 -0.7739
  754MOL0     H 1732   6.141   3.184  10.671  0.0961 -0.2304  2.6053
  754MOL0     H 1733   6.311   2.972  10.733 -0.3454  0.2398 -1.6429
  754MOL0     H 1734   6.374   3.100  10.835  0.4067  2.5524 -2.8211
  754MOL0     H 1735   6.077   3.025  10.821  1.7968  1.5826 -1.7908
  754MOL0     H 1736   6.179   2.947  10.939  2.2700 -0.2261 -2.2932
  754MOL0     H 1737   6.056   3.116  11.053  0.0420 -3.6083 -2.2681
  754MOL0     H 1738   6.079   3.235  10.920  0.4218 -0.6982 -3.3981
  754MOL0     H 1739   6.323   3.266  11.001 -0.4510  2.8486  1.5765
  754MOL0     H 1740   6.203   3.316  11.117 -0.5601  0.0884  0.2434
  754MOL0     H 1741   6.157   3.030  11.292 -0.2365  0.6547  0.8843
  754MOL0     H 1742   6.321   2.808  11.395 -2.1848  0.5758  0.2433
  754MOL0     H 1743   6.487   2.873  11.431 -0.2842  1.3124  1.6853
  754MOL0     H 1744   6.369   3.072  11.548  2.7605 -1.1594 -1.2664
  754MOL0     H 1745   6.219   2.991  11.528 -0.2590 -0.4100  1.5265
  754MOL0     H 1746   6.445   2.850  11.667 -0.5501 -2.1220  1.4542
  754MOL0     H 1747   6.279   2.785  11.621 -0.7409  0.2293 -0.0816
  754MOL0     H 1748   6.299   2.821  11.860  1.3449 -0.2075  0.4973
  754MOL0     H 1749   6.178   2.919  11.788  0.2038 -1.7291 -0.7977
  754MOL0     H 1750   6.164   2.943  12.020 -1.5573  0.7571  1.1015
  754MOL0     H 1751   6.174   2.992  12.276  0.0381  0.8055 -0.2347
  754MOL0     H 1752   6.623   3.361  12.551  0.7531 -1.7445 -1.8471
  754MOL0     H 1753   6.702   3.382  12.774 -1.9683  1.0274  0.6232
  754MOL0     H 1754   6.669   3.002  13.040  0.4549 -0.4569  0.2261
  754MOL0     H 1755   6.822   3.031  12.972  1.2138  1.7604 -0.0910
  754MOL0     H 1756   6.928   3.127  13.144  0.7873 -3.0345  5.0740
  754MOL0     H 1757   6.789   3.229  13.183 -3.4124 -0.2515  1.1903
  754MOL0     H 1758   6.682   3.044  13.300  1.4711  0.7532  0.4525
  754MOL0     H 1759   6.810   2.927  13.239 -0.2758 -1.0362  0.2834
  754MOL0     H 1760   6.814   3.115  13.467 -2.6787 -1.9241 -1.0214
  754MOL0     H 1761   6.955   3.112  13.354 -1.1783 -0.0295 -0.5735
  754MOL0     H 1762   6.808   2.884  13.493 -1.0729  0.5802  0.2369
  754MOL0     H 1763   6.934   2.968  13.579  1.5696 -1.3590 -0.5783
  754MOL0     H 1764   7.032   2.752  13.465  1.6952 -0.7003 -1.7195
  754MOL0     H 1765   6.984   2.827  13.309  2.1078  0.8499 -0.8570
  754MOL0     H 1766   7.191   2.935  13.518 -0.2542 -0.8211  0.3967
  754MOL0     H 1767   7.157   3.013  13.364 -0.2842  0.7292  0.3228
  754MOL0     H 1768   7.358   2.859  13.348 -0.3644 -1.8229  1.2058
  754MOL0     H 1769   7.247   2.724  13.386 -1.2690 -2.8171 -3.9617
  754MOL0     H 1770   6.506   3.000  12.880  1.5730 -0.5805  1.7496
  754MOL0     H 1771   6.451   2.983  12.636  4.7138 -2.6622  0.9212
  754MOL0     H 1772   6.518   3.232  12.209 -1.1529  0.4632  2.1280
  754MOL0     H 1773   6.498   3.193  11.969 -2.1005 -2.5944 -4.3474
  754MOL0     H 1774   6.291   2.797  10.239 -2.0630 -0.9011 -3.4510
  754MOL0     H 1775   6.298   2.828   9.997 -0.6773  1.3837  1.3123
  754MOL0     H 1776   6.461   3.133   9.699 -0.5222  1.2376 -0.3681
  754MOL0     H 1777   6.451   3.216   9.468  0.5783 -0.6474 -1.8680
  754MOL0     H 1778   6.395   3.275   9.310 -0.3276  1.5903 -1.5645
  754MOL0     H 1779   6.421   3.248   9.139 -1.4211 -2.8131  0.2351
  754MOL0     H 1780   6.647   3.256   9.353  0.6392 -0.9154 -0.2468
  754MOL0     H 1781   6.621   3.390   9.245  1.1347 -0.3184 -2.0384
  754MOL0     H 1782   6.641   3.231   9.047 -0.3980  1.0455 -0.0221
  754MOL0     H 1783   6.706   3.114   9.145 -0.6293 -0.1690 -2.1542
  754MOL0     H 1784   6.889   3.226   9.061 -2.1205 -1.2388 -0.4875
  754MOL0     H 1785   6.820   3.384   9.076 -1.4449 -0.5050 -1.6239
  754MOL0     H 1786   7.063   3.381   9.388  1.8669 -0.9892 -3.4736
  754MOL0     H 1787   6.455   2.842   9.293  0.1238  0.1442  0.2281
  754MOL0     H 1788   6.563   2.635   9.571 -2.7463 -1.5271  4.0278
  754MOL0     H 1789   6.388   2.642   9.575  0.4307  0.1891 -0.2008
  754MOL0     H 1790   6.476   2.639   9.418 -0.1037 -1.9509  1.5146
  755MOL0     O 1791   1.768   6.445  11.490  0.6738 -0.1278 -0.2399
  755MOL0     C 1792   1.824   6.538  11.447  0.5528 -0.0451  0.3509
  755MOL0     O 1793   1.910   6.616  11.519  0.7068 -0.3793  0.2290
  755MOL0     C 1794   1.943   6.582  11.651  0.1339 -0.6990 -0.1745
  755MOL0     C 1795   2.079   6.602  11.683 -0.7732  0.6076 -0.2383
  755MOL0     C 1796   2.125   6.562  11.807 -1.1244  1.0655 -0.2263
  755MOL0     C 1797   2.036   6.526  11.906 -0.7888  0.3687 -0.5374
  755MOL0     O 1798   2.089   6.511  12.030 -0.1827 -0.0418 -0.4562
  755MOL0     C 1799   2.041   6.397  12.102 -0.2167  0.6508  0.6893
  755MOL0     C 1800   2.101   6.386  12.243  0.0432  1.1402  0.4957
  755MOL0     C 1801   2.073   6.257  12.305  0.5323  0.1823  0.4168
  755MOL0     C 1802   2.197   6.203  12.389  0.4171  0.3830  0.2428
  755MOL0     C 1803   2.172   6.085  12.484 -0.3905 -0.9722  0.0531
  755MOL0     C 1804   2.092   6.134  12.601  0.7018 -0.2177  0.4611
  755MOL0     C 1805   2.118   6.038  12.719  0.0003 -0.0594  0.3374
  755MOL0     C 1806   2.227   6.088  12.823  0.4154  0.1683 -0.0436
  755MOL0     N 1807   2.201   6.217  12.877 -0.0643  0.0657  0.1559
  755MOL0     C 1808   2.103   6.249  12.962  0.2852  0.3727  0.0088
  755MOL0     C 1809   2.131   6.378  12.998 -0.4992 -0.1536  0.3445
  755MOL0     C 1810   2.039   6.467  13.090  0.1894  0.2960  0.1630
  755MOL0     C 1811   2.055   6.425  13.236 -1.0151  0.2174  0.9847
  755MOL0     C 1812   1.931   6.462  13.316  0.4315  0.8789  0.4112
  755MOL0     C 1813   1.957   6.464  13.467  0.3944  1.0282 -0.1906
  755MOL0     O 1814   1.977   6.603  13.503 -0.0458  0.0808 -0.2228
  755MOL0     C 1815   1.968   6.632  13.639  0.6219  0.5676  0.4039
  755MOL0     C 1816   1.982   6.539  13.748 -0.4718 -0.3207  0.2579
  755MOL0     C 1817   1.974   6.595  13.880  0.2969  0.5112 -0.5379
  755MOL0     C 1818   1.947   6.727  13.900 -0.2277 -1.3126  0.7401
  755MOL0     C 1819   1.950   6.784  14.044 -0.8402  0.8137  0.3194
  755MOL0     O 1820   1.947   6.916  14.055  0.0012 -0.3270 -0.1398
  755MOL0     C 1821   1.932   6.975  14.187 -0.2386 -0.4556  0.5411
  755MOL0     C 1822   1.825   7.068  14.210 -0.4104 -0.0684 -0.6044
  755MOL0     C 1823   1.805   7.129  14.334  0.5676 -0.3815  0.7668
  755MOL0     C 1824   1.899   7.104  14.427 -0.4118 -0.1871 -1.3487
  755MOL0     O 1825   1.874   7.156  14.556 -0.4610 -0.0728  0.3702
  755MOL0     C 1826   1.731   7.186  14.589  0.0296 -0.4825 -0.9662
  755MOL0     C 1827   1.744   7.224  14.739  1.2435  0.6303  0.5200
  755MOL0     C 1828   1.626   7.301  14.797 -0.7124 -0.4463 -0.6247
  755MOL0     C 1829   1.670   7.389  14.908 -0.0351 -0.4155  0.2126
  755MOL0     C 1830   1.729   7.330  15.042  0.0387 -0.5511  0.2084
  755MOL0     C 1831   1.773   7.431  15.151  0.9070 -0.4084  0.9413
  755MOL0     C 1832   1.864   7.373  15.247  1.2512 -0.2278  0.1898
  755MOL0     C 1833   1.891   7.466  15.369  0.1688  0.6439  0.2469
  755MOL0    Cl 1834   1.773   7.445  15.497 -0.0114  0.6203 -0.0452
  755MOL0     C 1835   2.006   7.024  14.413  0.9600  1.0495  1.1712
  755MOL0     C 1836   2.030   6.961  14.293  0.6433 -1.2717  0.7369
  755MOL0     O 1837   1.967   6.703  14.137 -0.3656  0.3174 -0.0616
  755MOL0     C 1838   1.941   6.816  13.788 -0.1343  0.1252 -0.0404
  755MOL0     C 1839   1.949   6.767  13.656  0.9535 -0.1343 -0.2526
  755MOL0     N 1840   2.239   6.421  12.930  0.4221  0.6349 -0.1939
  755MOL0     N 1841   2.277   6.329  12.852 -0.0405  0.7135  0.4133
  755MOL0     C 1842   1.895   6.518  11.882 -0.1879  0.1211  0.1774
  755MOL0     C 1843   1.854   6.543  11.753 -0.8779  0.8392 -0.1561
  755MOL0     C 1844   1.799   6.570  11.301 -0.4697 -0.4530  0.5967
  755MOL0     C 1845   1.710   6.488  11.228 -0.8162 -0.2474  0.1781
  755MOL0     C 1846   1.692   6.510  11.089 -1.2316 -0.1656  0.7076
  755MOL0     C 1847   1.717   6.638  11.038  0.6317 -0.2109  0.4706
  755MOL0     O 1848   1.664   6.671  10.911 -0.1963  0.1572 -0.5217
  755MOL0     C 1849   1.757   6.730  10.823  0.0842  0.1205  0.0719
  755MOL0     C 1850   1.678   6.762  10.692  0.2885  0.3564 -0.1713
  755MOL0     C 1851   1.574   6.871  10.716  0.8242 -0.5687 -1.1967
  755MOL0     C 1852   1.463   6.875  10.605 -0.1879 -0.8660  0.1792
  755MOL0     C 1853   1.385   7.004  10.619 -0.2839  0.1134  0.6319
  755MOL0     C 1854   1.318   7.102  10.613 -0.7262 -0.1092  0.1670
  755MOL0     C 1855   1.780   6.733  11.116 -1.1344  0.2591 -0.0090
  755MOL0     C 1856   1.832   6.696  11.243  0.1845 -0.1733 -0.3580
  755MOL0     C 1857   1.893   6.810  11.319 -1.0614 -0.3545 -1.1157
  755MOL0     H 1858   2.158   6.634  11.615  0.6755 -4.0454 -1.0954
  755MOL0     H 1859   2.227   6.575  11.842 -1.7123  1.3033  1.4843
  755MOL0     H 1860   1.935   6.398  12.129 -0.1004 -0.8701  1.3430
  755MOL0     H 1861   2.075   6.302  12.060  3.1963  1.7293  0.7151
  755MOL0     H 1862   2.054   6.472  12.290 -0.8794 -0.8673  3.5488
  755MOL0     H 1863   2.210   6.396  12.242  0.9080 -4.7051  0.1059
  755MOL0     H 1864   2.036   6.180  12.236  0.4290 -0.8583  1.5775
  755MOL0     H 1865   1.995   6.273  12.380  1.2122 -1.0442  1.4425
  755MOL0     H 1866   2.269   6.170  12.313 -1.7437 -0.7472 -1.4099
  755MOL0     H 1867   2.231   6.290  12.445 -1.7806  0.8572  0.9334
  755MOL0     H 1868   2.126   6.006  12.424 -3.3568  1.7872 -1.6356
  755MOL0     H 1869   2.270   6.051  12.519  0.8461  2.6410  0.6017
  755MOL0     H 1870   2.110   6.239  12.624 -3.3477  0.9790 -1.0106
  755MOL0     H 1871   1.987   6.127  12.569  1.9069 -0.9319 -4.1480
  755MOL0     H 1872   2.143   5.938  12.680  0.5951  0.8337 -1.7501
  755MOL0     H 1873   2.023   6.029  12.773  0.1389 -1.5454  0.3808
  755MOL0     H 1874   2.237   6.019  12.908  6.6354 -0.8347 -1.1445
  755MOL0     H 1875   2.326   6.090  12.776  0.3683  0.7114 -0.1213
  755MOL0     H 1876   2.030   6.180  13.003 -0.5181  1.2068  0.0205
  755MOL0     H 1877   2.069   6.570  13.069  0.4276  0.3272  0.6463
  755MOL0     H 1878   1.940   6.442  13.052  0.7775 -2.3927  0.2108
  755MOL0     H 1879   2.065   6.316  13.234  0.0947  0.2495 -2.6533
  755MOL0     H 1880   2.140   6.487  13.267 -0.7008  0.1619  0.2574
  755MOL0     H 1881   1.853   6.390  13.290  2.4555 -1.2516 -0.0978
  755MOL0     H 1882   1.901   6.562  13.286  1.1190  0.1264 -3.2507
  755MOL0     H 1883   2.054   6.416  13.485  0.0652 -0.3412 -1.8496
  755MOL0     H 1884   1.874   6.422  13.525  3.0459 -0.4123  2.8937
  755MOL0     H 1885   1.992   6.433  13.731 -2.3184 -0.4596 -0.1434
  755MOL0     H 1886   1.967   6.519  13.958 -0.2806 -2.0208 -2.8844
  755MOL0     H 1887   1.752   7.076  14.130  0.5118  0.4048 -1.4332
  755MOL0     H 1888   1.720   7.195  14.341 -1.5277 -2.8219 -0.2466
  755MOL0     H 1889   1.694   7.271  14.530  2.1399  0.6414 -0.7786
  755MOL0     H 1890   1.671   7.097  14.570 -0.8190  0.1140 -1.1708
  755MOL0     H 1891   1.774   7.139  14.801 -2.2284 -1.0096  0.1782
  755MOL0     H 1892   1.828   7.294  14.736  1.6109  0.1549 -0.7084
  755MOL0     H 1893   1.575   7.356  14.718 -1.2795  0.3513  0.2716
  755MOL0     H 1894   1.543   7.237  14.829 -3.2523  2.7836 -0.2906
  755MOL0     H 1895   1.579   7.450  14.916 -0.9613 -1.0791 -3.5019
  755MOL0     H 1896   1.746   7.454  14.863  0.5132 -1.5895 -0.5977
  755MOL0     H 1897   1.816   7.268  15.017  1.1441  1.1949 -0.4701
  755MOL0     H 1898   1.653   7.267  15.088  0.4001 -2.8705 -2.0970
  755MOL0     H 1899   1.832   7.506  15.098  1.4805 -0.3657  1.6082
  755MOL0     H 1900   1.687   7.481  15.195  1.2006  0.3686  0.6456
  755MOL0     H 1901   1.960   7.350  15.200  2.8037 -1.1195  3.4704
  755MOL0     H 1902   1.822   7.279  15.282  2.2532 -1.0409 -0.7328
  755MOL0     H 1903   1.981   7.422  15.412 -0.9355  0.6105  2.6848
  755MOL0     H 1904   1.906   7.570  15.340 -0.6001 -0.1401 -3.3953
  755MOL0     H 1905   2.089   7.023  14.483 -0.5876  2.6881  3.1429
  755MOL0     H 1906   2.119   6.907  14.263 -0.3094 -1.3459 -2.2753
  755MOL0     H 1907   1.915   6.920  13.804 -1.1703 -0.2979  1.1388
  755MOL0     H 1908   1.928   6.831  13.572  1.5494  0.6238  0.1557
  755MOL0     H 1909   1.830   6.482  11.961  0.9159  1.2588  1.6706
  755MOL0     H 1910   1.747   6.544  11.733 -0.9738  2.5930  0.3301
  755MOL0     H 1911   1.653   6.407  11.273 -1.1943 -1.0897 -1.7300
  755MOL0     H 1912   1.649   6.433  11.026 -2.0021  2.3039 -1.9873
  755MOL0     H 1913   1.841   6.663  10.802 -2.3421 -3.2682  0.3706
  755MOL0     H 1914   1.807   6.821  10.858 -2.0866  1.2910  0.3199
  755MOL0     H 1915   1.626   6.669  10.668  0.2920  0.8501 -2.2134
  755MOL0     H 1916   1.746   6.784  10.609  1.1530 -2.1713 -0.2444
  755MOL0     H 1917   1.619   6.968  10.737  0.2650 -0.6668  0.5907
  755MOL0     H 1918   1.527   6.854  10.813  1.3738 -0.1140 -0.8414
  755MOL0     H 1919   1.527   6.890  10.517  0.4148  1.5095  0.9244
  755MOL0     H 1920   1.396   6.794  10.576 -2.9673  0.5644  2.1523
  755MOL0     H 1921   1.278   7.201  10.604  0.2624  0.3020  0.1735
  755MOL0     H 1922   1.792   6.835  11.079 -0.4646  0.3531  0.4476
  755MOL0     H 1923   1.852   6.824  11.419 -0.9849  0.9947 -1.2553
  755MOL0     H 1924   1.997   6.782  11.341 -0.8474  0.4929 -1.0029
  755MOL0     H 1925   1.901   6.906  11.267 -0.6930 -0.3926 -1.1365
  756MOL0     O 1926   3.820   8.323   2.859 -0.0965 -0.0135 -0.0645
  756MOL0     C 1927   3.852   8.239   2.939 -0.2692  0.5496  0.3104
  756MOL0     O 1928   3.949   8.251   3.043 -0.0032  0.6148 -0.2947
  756MOL0     C 1929   4.036   8.354   3.030 -0.8610 -0.3586  0.3606
  756MOL0     C 1930   3.994   8.485   3.044  0.2304 -0.4110  0.4640
  756MOL0     C 1931   4.078   8.596   3.017 -0.1375 -0.1686  0.2291
  756MOL0     C 1932   4.214   8.570   2.989 -0.0543 -0.0746  1.2333
  756MOL0     O 1933   4.313   8.663   2.993  0.5847  0.2050 -0.5433
  756MOL0     C 1934   4.302   8.766   3.091 -0.2469 -0.2663 -0.5890
  756MOL0     C 1935   4.312   8.717   3.240 -0.1710 -0.4353  0.4675
  756MOL0     C 1936   4.364   8.820   3.332 -0.9700 -0.2698  0.3659
  756MOL0     C 1937   4.419   8.764   3.465  0.0855 -0.0474  0.3569
  756MOL0     C 1938   4.542   8.681   3.449  0.8596 -0.2213 -0.4071
  756MOL0     C 1939   4.643   8.720   3.564 -0.2237  0.2618  1.0707
  756MOL0     C 1940   4.739   8.843   3.531  0.0568 -0.1530  0.7369
  756MOL0     C 1941   4.880   8.793   3.507  0.2102  0.6635  0.0997
  756MOL0     N 1942   4.899   8.745   3.370 -0.5599  0.3906 -0.3913
  756MOL0     C 1943   4.964   8.804   3.274 -0.8621  0.3707 -0.0703
  756MOL0     C 1944   4.962   8.718   3.175 -0.4587 -0.2216  0.5773
  756MOL0     C 1945   5.034   8.748   3.044  0.6925  0.4888  0.3817
  756MOL0     C 1946   5.000   8.882   2.978  0.0800  0.2285  0.3910
  756MOL0     C 1947   5.064   8.877   2.832  0.3429 -0.6942 -0.2119
  756MOL0     C 1948   4.971   8.852   2.709 -0.5928  0.1703 -0.7496
  756MOL0     O 1949   4.868   8.963   2.712 -0.2550  0.2133 -0.3140
  756MOL0     C 1950   4.747   8.929   2.656 -0.5613 -0.4484 -0.1346
  756MOL0     C 1951   4.653   8.876   2.739 -0.1990 -0.7039  0.3495
  756MOL0     C 1952   4.531   8.837   2.693  0.1111  0.7099  0.6477
  756MOL0     C 1953   4.494   8.859   2.554  0.8244 -0.2168 -0.0696
  756MOL0     C 1954   4.351   8.854   2.503 -0.4066  1.2011 -0.6426
  756MOL0     O 1955   4.331   8.873   2.369 -0.7607 -0.5286 -0.4705
  756MOL0     C 1956   4.210   8.856   2.305 -0.9823  0.0923 -0.4083
  756MOL0     C 1957   4.079   8.876   2.360 -0.7469 -0.7748 -0.2709
  756MOL0     C 1958   3.965   8.824   2.286  0.4654  0.4268 -0.4969
  756MOL0     C 1959   3.985   8.790   2.149 -0.3869 -0.3528 -0.2730
  756MOL0     O 1960   3.887   8.744   2.067  1.0334 -0.3734  0.3714
  756MOL0     C 1961   3.752   8.786   2.092  0.5195 -0.1189  0.7044
  756MOL0     C 1962   3.694   8.900   2.012 -0.3696 -0.7064 -0.7305
  756MOL0     C 1963   3.745   9.038   2.060  0.5126  0.4486  0.5690
  756MOL0     C 1964   3.649   9.092   2.179  0.6160 -0.4354 -0.0510
  756MOL0     C 1965   3.710   9.224   2.232  0.6580 -0.1016  0.4432
  756MOL0     C 1966   3.840   9.210   2.291 -0.6584  0.3308 -0.6136
  756MOL0     C 1967   3.877   9.334   2.373  0.5486 -0.1746  0.4931
  756MOL0     C 1968   4.005   9.324   2.452  0.3631 -0.0629  0.3364
  756MOL0    Cl 1969   4.122   9.413   2.347 -0.6151 -0.0325  0.6455
  756MOL0     C 1970   4.112   8.802   2.089  0.2012  0.1237 -0.8641
  756MOL0     C 1971   4.224   8.823   2.172  1.0711  0.7744 -0.1692
  756MOL0     O 1972   4.271   8.816   2.589  0.1038 -0.3217  0.8170
  756MOL0     C 1973   4.599   8.901   2.466 -0.4419 -0.5074  0.0480
  756MOL0     C 1974   4.719   8.943   2.519  0.7537 -0.4831 -0.2258
  756MOL0     N 1975   4.886   8.603   3.211 -0.3221 -0.7069  0.0937
  756MOL0     N 1976   4.849   8.623   3.323  0.7391 -0.7748 -0.6377
  756MOL0     C 1977   4.257   8.439   2.977 -0.7335  0.3141 -0.3031
  756MOL0     C 1978   4.173   8.326   3.003  0.1128 -0.2660 -0.5339
  756MOL0     C 1979   3.788   8.106   2.932 -1.2025  0.8776  0.6120
  756MOL0     C 1980   3.844   8.005   3.002 -0.0157 -0.3543  0.0672
  756MOL0     C 1981   3.797   7.873   3.012 -0.3871  0.8315 -0.2136
  756MOL0     C 1982   3.672   7.837   2.954 -0.5119  0.5017 -1.0426
  756MOL0     O 1983   3.616   7.714   2.980  0.3074  0.2227 -0.1056
  756MOL0     C 1984   3.684   7.614   3.059 -0.3476 -0.6820 -0.1840
  756MOL0     C 1985   3.589   7.506   3.095  0.5278 -0.7368 -0.4647
  756MOL0     C 1986   3.477   7.569   3.167  0.5632 -0.7807  0.1308
  756MOL0     C 1987   3.362   7.467   3.176  0.1186  0.2909  0.2168
  756MOL0     C 1988   3.294   7.438   3.054  0.2667  0.7372 -0.1746
  756MOL0     C 1989   3.232   7.418   2.954  0.7272  0.5321  0.3379
  756MOL0     C 1990   3.612   7.938   2.875  0.0453  0.6995 -0.0996
  756MOL0     C 1991   3.669   8.070   2.865  0.6554 -0.4773 -0.5648
  756MOL0     C 1992   3.595   8.173   2.769 -1.2541  0.7194  0.1911
  756MOL0     H 1993   3.892   8.503   3.075 -0.8572 -0.4636 -2.7329
  756MOL0     H 1994   4.043   8.699   3.024  0.4387 -0.0371  1.4240
  756MOL0     H 1995   4.383   8.838   3.076 -0.0736 -0.3583 -0.1074
  756MOL0     H 1996   4.210   8.825   3.079 -0.5513 -1.1104 -2.9912
  756MOL0     H 1997   4.373   8.626   3.238 -1.0689 -1.1073 -2.8246
  756MOL0     H 1998   4.209   8.697   3.269 -0.6724 -3.9878 -2.9072
  756MOL0     H 1999   4.295   8.900   3.359 -0.4437  0.3308 -0.0290
  756MOL0     H 2000   4.452   8.871   3.291 -0.8782 -1.6202 -1.2336
  756MOL0     H 2001   4.440   8.843   3.537 -1.5832 -0.0238  0.8534
  756MOL0     H 2002   4.340   8.703   3.510 -0.8433  0.3616 -0.6826
  756MOL0     H 2003   4.524   8.574   3.458  3.4894 -0.6103  1.7834
  756MOL0     H 2004   4.578   8.685   3.346  1.3200  3.0438 -0.2255
  756MOL0     H 2005   4.586   8.746   3.654 -1.0098  0.0924  0.6337
  756MOL0     H 2006   4.693   8.625   3.584  0.1012 -0.2583 -1.7769
  756MOL0     H 2007   4.730   8.925   3.604 -1.4245  0.1842  0.2132
  756MOL0     H 2008   4.697   8.892   3.442 -4.7550 -2.9614  1.0920
  756MOL0     H 2009   4.947   8.879   3.519  1.0019  0.2346 -1.1089
  756MOL0     H 2010   4.913   8.727   3.588  1.3118  0.3894 -0.5563
  756MOL0     H 2011   5.009   8.902   3.289  0.7727 -0.8195  4.4944
  756MOL0     H 2012   5.139   8.758   3.074 -0.3216  2.5981  3.7174
  756MOL0     H 2013   5.032   8.662   2.977  0.9861 -1.7113  3.0361
  756MOL0     H 2014   4.892   8.900   2.970  0.1305 -0.2897 -2.9348
  756MOL0     H 2015   5.034   8.956   3.052 -2.9308  0.2724  1.8938
  756MOL0     H 2016   5.139   8.798   2.827  3.3319  2.0068 -2.1369
  756MOL0     H 2017   5.109   8.973   2.806  2.0036 -1.5386 -0.5824
  756MOL0     H 2018   4.929   8.753   2.725 -0.2009  0.0266 -0.6047
  756MOL0     H 2019   5.025   8.862   2.614 -1.1646  1.8406 -0.9425
  756MOL0     H 2020   4.663   8.860   2.846 -0.2924 -4.1057 -0.0227
  756MOL0     H 2021   4.458   8.810   2.770  0.2008  0.5177  0.6649
  756MOL0     H 2022   4.076   8.910   2.463 -0.9316  0.3586 -0.6340
  756MOL0     H 2023   3.864   8.840   2.323  0.5487  1.6396 -0.7485
  756MOL0     H 2024   3.690   8.706   2.052 -2.0512  2.4178 -0.7753
  756MOL0     H 2025   3.731   8.809   2.197  3.0783  2.9959  0.6874
  756MOL0     H 2026   3.710   8.891   1.905 -1.2860 -0.1681 -0.9259
  756MOL0     H 2027   3.585   8.892   2.018 -0.4330  0.1686 -0.5176
  756MOL0     H 2028   3.850   9.037   2.090  0.3100  3.9013  1.8748
  756MOL0     H 2029   3.744   9.109   1.976 -0.7828  1.3901  1.3417
  756MOL0     H 2030   3.638   9.036   2.273 -3.9041  1.5279  0.8624
  756MOL0     H 2031   3.551   9.095   2.130  1.7538 -4.8153 -3.1620
  756MOL0     H 2032   3.635   9.254   2.306 -0.7824  0.2827 -1.1278
  756MOL0     H 2033   3.714   9.302   2.156 -0.0051  0.8265  1.3320
  756MOL0     H 2034   3.848   9.115   2.343  3.2684  0.8081 -0.0626
  756MOL0     H 2035   3.917   9.210   2.213 -0.1744  1.6905 -0.1636
  756MOL0     H 2036   3.798   9.342   2.449 -0.8005 -2.7728 -0.4968
  756MOL0     H 2037   3.868   9.426   2.316 -0.7363  1.5752  3.3210
  756MOL0     H 2038   3.998   9.377   2.548 -3.1874 -0.9770  0.7350
  756MOL0     H 2039   4.023   9.218   2.472 -3.2733 -1.1603 -1.2812
  756MOL0     H 2040   4.124   8.787   1.983 -0.7928  0.5916 -1.0499
  756MOL0     H 2041   4.322   8.810   2.127  1.3281  1.0206  0.3136
  756MOL0     H 2042   4.564   8.912   2.364 -1.3691  1.1821  0.5011
  756MOL0     H 2043   4.784   8.997   2.451 -0.8347 -1.7811 -2.9467
  756MOL0     H 2044   4.363   8.426   2.956 -0.0341  1.6332  2.0011
  756MOL0     H 2045   4.215   8.228   3.019 -2.0168 -1.0088  1.0199
  756MOL0     H 2046   3.933   8.021   3.062 -0.6482 -0.0989  0.9609
  756MOL0     H 2047   3.856   7.793   3.056  0.6237  1.6666  0.0117
  756MOL0     H 2048   3.691   7.648   3.163 -2.3278 -1.3671  0.2141
  756MOL0     H 2049   3.782   7.575   3.031 -0.6661 -0.2466 -1.9847
  756MOL0     H 2050   3.642   7.429   3.152 -1.0495 -1.7969 -0.3723
  756MOL0     H 2051   3.554   7.466   2.999  0.5090 -0.1808 -0.6959
  756MOL0     H 2052   3.432   7.657   3.119  3.4189 -0.0851 -1.4594
  756MOL0     H 2053   3.504   7.603   3.268 -2.4428 -2.1811  1.5297
  756MOL0     H 2054   3.394   7.375   3.225  2.4159  0.1220 -1.4549
  756MOL0     H 2055   3.283   7.519   3.231  0.7419  0.3099  1.1184
  756MOL0     H 2056   3.183   7.408   2.859 -0.8762  2.7938  0.8465
  756MOL0     H 2057   3.517   7.912   2.829 -1.1190  1.5233  1.7237
  756MOL0     H 2058   3.520   8.119   2.711  0.5141 -2.1992  0.4414
  756MOL0     H 2059   3.548   8.241   2.841 -0.7917 -1.0209  2.2589
  756MOL0     H 2060   3.669   8.232   2.715 -1.2789 -0.9326 -1.7467
  757MOL0     O 2061   7.946   8.006   8.263 -0.4871 -0.5755  0.4063
  757MOL0     C 2062   7.930   7.882   8.279  1.2372  0.0085  0.2897
  757MOL0     O 2063   7.866   7.818   8.384 -0.4238 -0.1518 -0.4141
  757MOL0     C 2064   7.831   7.886   8.497  0.0076  0.6640 -0.5338
  757MOL0     C 2065   7.745   7.820   8.583  0.3106  0.6311 -0.5927
  757MOL0     C 2066   7.697   7.868   8.706 -0.0047 -0.2469 -0.4774
  757MOL0     C 2067   7.733   7.997   8.743 -0.5907 -0.3367  1.1074
  757MOL0     O 2068   7.690   8.041   8.864  0.3729 -0.4467  0.4553
  757MOL0     C 2069   7.798   8.069   8.953 -0.0914 -0.5433 -0.3229
  757MOL0     C 2070   7.743   8.141   9.082  0.3230 -0.1578  0.9973
  757MOL0     C 2071   7.761   8.052   9.202 -0.9693 -0.3561 -0.5129
  757MOL0     C 2072   7.675   7.930   9.219  0.9980 -0.9418  0.2605
  757MOL0     C 2073   7.532   7.979   9.251  0.1005 -0.0679 -1.4555
  757MOL0     C 2074   7.424   7.885   9.204  0.0576  0.4788  0.2890
  757MOL0     C 2075   7.406   7.747   9.282  0.2497 -0.2616  0.5808
  757MOL0     C 2076   7.341   7.771   9.418  0.7066  0.0879 -0.3215
  757MOL0     N 2077   7.427   7.830   9.528  0.3402  0.4394 -0.5376
  757MOL0     C 2078   7.539   7.775   9.585 -0.6132 -0.1529 -0.4578
  757MOL0     C 2079   7.559   7.866   9.687 -0.3454  0.4682 -0.5485
  757MOL0     C 2080   7.676   7.852   9.793  0.0847  1.2126  0.0340
  757MOL0     C 2081   7.683   7.725   9.883  0.3097  0.6398 -1.0462
  757MOL0     C 2082   7.567   7.697   9.976 -0.0262 -0.2812  0.0731
  757MOL0     C 2083   7.597   7.603  10.095  0.7670 -0.9032  0.0312
  757MOL0     O 2084   7.613   7.469  10.062  0.4606  0.9900 -0.3022
  757MOL0     C 2085   7.500   7.388  10.042  0.4294 -0.1220  0.4086
  757MOL0     C 2086   7.533   7.260   9.998  0.0301  1.0421 -0.6611
  757MOL0     C 2087   7.434   7.169   9.950 -0.7046  1.1740 -0.8349
  757MOL0     C 2088   7.295   7.193   9.974 -0.3363 -1.0862 -1.0894
  757MOL0     C 2089   7.190   7.110   9.927 -0.0605 -0.2300 -0.5075
  757MOL0     O 2090   7.057   7.147   9.928  0.3401  0.2704  0.3020
  757MOL0     C 2091   6.973   7.042   9.890  0.2722  0.3453  0.1368
  757MOL0     C 2092   6.908   6.978   9.994 -0.0570  0.8563  0.5350
  757MOL0     C 2093   6.808   6.882   9.966 -0.4237 -1.1535 -0.2792
  757MOL0     C 2094   6.774   6.847   9.839 -1.3318 -0.1165  0.3169
  757MOL0     O 2095   6.678   6.749   9.834 -0.3518  0.3277  0.9922
  757MOL0     C 2096   6.593   6.753   9.721 -0.2450  0.1248  0.3458
  757MOL0     C 2097   6.478   6.664   9.748 -0.2833 -0.7765  0.4717
  757MOL0     C 2098   6.503   6.514   9.734  0.4594 -0.4113  0.4837
  757MOL0     C 2099   6.361   6.436   9.736 -0.3233  1.2850  0.3131
  757MOL0     C 2100   6.378   6.307   9.814 -0.2514 -0.4475 -1.0566
  757MOL0     C 2101   6.269   6.208   9.807  0.0024 -0.3928  0.5584
  757MOL0     C 2102   6.305   6.108   9.916  0.0172 -0.3537 -0.7293
  757MOL0     C 2103   6.220   5.983   9.893 -0.3782  0.7687 -0.5375
  757MOL0    Cl 2104   6.241   5.852  10.007 -0.3560 -0.0557  0.1745
  757MOL0     C 2105   6.851   6.904   9.732  0.0585 -1.0604  0.0104
  757MOL0     C 2106   6.944   7.003   9.753  0.3507  0.3552  0.1898
  757MOL0     O 2107   7.226   6.995   9.898 -0.2387  0.1429 -0.0585
  757MOL0     C 2108   7.268   7.326  10.027  1.2989 -0.5163 -0.4602
  757MOL0     C 2109   7.366   7.426  10.057 -0.7795  0.7706  0.3180
  757MOL0     N 2110   7.478   7.976   9.678 -0.1386 -0.2553  0.2406
  757MOL0     N 2111   7.405   7.954   9.577 -0.9992  0.2441  0.3616
  757MOL0     C 2112   7.811   8.078   8.651  0.8710  0.1314 -1.2424
  757MOL0     C 2113   7.858   8.022   8.535 -0.6216  0.1139  0.3486
  757MOL0     C 2114   8.001   7.803   8.172 -0.4141 -0.0731 -0.0553
  757MOL0     C 2115   8.009   7.857   8.042 -0.9886  0.2924  0.6739
  757MOL0     C 2116   8.053   7.773   7.943 -1.0557 -0.1794  0.1353
  757MOL0     C 2117   8.103   7.641   7.970  0.0446 -0.0281  0.2120
  757MOL0     O 2118   8.149   7.583   7.861 -0.0730 -0.9900  0.1108
  757MOL0     C 2119   8.290   7.599   7.856  0.7281  0.3345 -0.1681
  757MOL0     C 2120   8.359   7.470   7.797 -0.3488 -0.9521 -0.0134
  757MOL0     C 2121   8.363   7.352   7.898 -0.8624 -0.2733 -0.2267
  757MOL0     C 2122   8.413   7.222   7.848 -0.5717 -0.6860  1.0172
  757MOL0     C 2123   8.325   7.150   7.753  0.5129 -0.1347  0.3485
  757MOL0     C 2124   8.225   7.113   7.692 -0.9093  0.0853  0.2568
  757MOL0     C 2125   8.109   7.592   8.103 -0.5367 -0.0177 -0.8377
  757MOL0     C 2126   8.053   7.669   8.201  0.3872 -0.4293  1.0161
  757MOL0     C 2127   8.042   7.594   8.340 -0.8433 -0.4469  0.0568
  757MOL0     H 2128   7.718   7.718   8.555  1.6805 -0.4979  1.9043
  757MOL0     H 2129   7.639   7.807   8.775 -1.3793  0.1876 -1.2211
  757MOL0     H 2130   7.860   7.982   8.974  1.0412  0.7896  2.2310
  757MOL0     H 2131   7.868   8.134   8.899  0.8556 -1.1592  0.1503
  757MOL0     H 2132   7.635   8.155   9.069 -0.0940 -2.3448  1.6676
  757MOL0     H 2133   7.786   8.241   9.085  2.1108 -0.6210 -3.0258
  757MOL0     H 2134   7.766   8.115   9.292 -2.0565 -2.7546  1.3315
  757MOL0     H 2135   7.858   8.003   9.200  0.6012  2.1785  2.7046
  757MOL0     H 2136   7.682   7.868   9.129 -0.4015 -0.0171 -0.5348
  757MOL0     H 2137   7.707   7.862   9.298  1.0287 -0.2177  0.8797
  757MOL0     H 2138   7.525   7.993   9.360 -0.1315 -0.3844 -1.4281
  757MOL0     H 2139   7.504   8.077   9.212 -0.7434  0.6590  0.7882
  757MOL0     H 2140   7.331   7.942   9.201 -0.7643 -0.8115  0.7984
  757MOL0     H 2141   7.450   7.872   9.098  2.8466 -0.5530  1.0060
  757MOL0     H 2142   7.495   7.688   9.308 -0.0002 -2.2040 -2.4786
  757MOL0     H 2143   7.357   7.674   9.217  3.0594 -1.0517 -0.8139
  757MOL0     H 2144   7.256   7.840   9.410 -0.0079 -0.6227  0.8630
  757MOL0     H 2145   7.286   7.685   9.457 -0.2723  0.5668 -0.6069
  757MOL0     H 2146   7.597   7.685   9.570 -1.7981 -0.7271 -1.8552
  757MOL0     H 2147   7.765   7.855   9.730 -1.2877 -3.0714 -2.5285
  757MOL0     H 2148   7.662   7.937   9.861  0.1868  0.1358  1.4499
  757MOL0     H 2149   7.710   7.639   9.821  1.0931  0.1909 -0.1140
  757MOL0     H 2150   7.763   7.733   9.957 -0.4461  0.3192 -0.1768
  757MOL0     H 2151   7.482   7.669   9.913 -0.7440 -1.1261  1.3778
  757MOL0     H 2152   7.535   7.792  10.020  3.2861  0.3381  1.4117
  757MOL0     H 2153   7.524   7.611  10.176 -0.0053 -2.2964 -0.5012
  757MOL0     H 2154   7.688   7.642  10.141 -1.6014  4.1122  1.1962
  757MOL0     H 2155   7.638   7.230   9.994  0.1741  1.1647  1.2396
  757MOL0     H 2156   7.447   7.079   9.891 -1.6657 -0.2466  1.0410
  757MOL0     H 2157   6.935   6.994  10.098 -2.0223  1.5912  0.9669
  757MOL0     H 2158   6.746   6.836  10.042 -2.5509 -1.9711 -2.3772
  757MOL0     H 2159   6.558   6.850   9.684 -0.3959 -0.1949 -0.3617
  757MOL0     H 2160   6.663   6.703   9.654  0.9227  0.4679  1.2569
  757MOL0     H 2161   6.443   6.677   9.851 -0.2330  0.5403  0.3386
  757MOL0     H 2162   6.393   6.704   9.693  1.6950  4.2771  0.5635
  757MOL0     H 2163   6.559   6.494   9.642 -1.9205 -1.7824 -0.7793
  757MOL0     H 2164   6.566   6.484   9.818 -1.2239 -0.8644  1.6290
  757MOL0     H 2165   6.328   6.417   9.634  0.2729 -0.1043  0.3456
  757MOL0     H 2166   6.277   6.485   9.787 -0.2220  0.7638  0.9976
  757MOL0     H 2167   6.386   6.336   9.919  1.2214 -1.6968 -0.7946
  757MOL0     H 2168   6.476   6.261   9.799  1.1266  1.4074  1.4706
  757MOL0     H 2169   6.173   6.256   9.826 -0.7994 -1.0462 -1.5440
  757MOL0     H 2170   6.264   6.163   9.707  2.3908  2.8805 -1.2316
  757MOL0     H 2171   6.304   6.156  10.014 -0.2906  2.2340 -1.8992
  757MOL0     H 2172   6.403   6.059   9.911 -0.2064 -1.4097  2.6653
  757MOL0     H 2173   6.113   6.005   9.896 -0.6805 -0.7292  0.9132
  757MOL0     H 2174   6.241   5.958   9.789 -1.3532  0.9957 -0.7961
  757MOL0     H 2175   6.836   6.860   9.634 -0.6357  0.7644 -0.7456
  757MOL0     H 2176   6.993   7.058   9.673 -2.1542  1.5116 -0.6628
  757MOL0     H 2177   7.164   7.339  10.053  1.6355 -1.0954  1.3741
  757MOL0     H 2178   7.333   7.513  10.111 -2.0591  0.1392  0.6014
  757MOL0     H 2179   7.826   8.182   8.677 -0.7154  0.0063  0.4256
  757MOL0     H 2180   7.926   8.086   8.479 -3.2323  0.6041 -2.5143
  757MOL0     H 2181   7.964   7.953   8.017 -1.9872 -0.6897 -1.5822
  757MOL0     H 2182   8.045   7.802   7.839  1.5343 -1.0872 -0.3783
  757MOL0     H 2183   8.327   7.628   7.955  0.9102 -0.8125  0.1188
  757MOL0     H 2184   8.307   7.682   7.787 -1.3361  1.0146  0.0718
  757MOL0     H 2185   8.461   7.495   7.769 -1.6513  2.8738 -2.1038
  757MOL0     H 2186   8.311   7.434   7.706  2.3467 -0.6494 -1.6546
  757MOL0     H 2187   8.259   7.347   7.933 -0.0585 -2.0069  2.2316
  757MOL0     H 2188   8.405   7.381   7.994  2.3770  1.0686 -1.8920
  757MOL0     H 2189   8.509   7.239   7.799 -1.8235  0.4725 -1.1694
  757MOL0     H 2190   8.415   7.166   7.942  1.2491 -2.0588  0.2194
  757MOL0     H 2191   8.131   7.096   7.643 -0.0950  1.4583 -1.9136
  757MOL0     H 2192   8.149   7.495   8.132 -3.3806 -0.5615  1.7576
  757MOL0     H 2193   8.116   7.513   8.341  0.2757  0.5531 -0.1336
  757MOL0     H 2194   8.061   7.659   8.426 -2.0165 -0.3865  0.2908
  757MOL0     H 2195   7.942   7.553   8.362 -0.0664 -1.6937  1.4696
  758MOL0     O 2196   1.160   7.604   2.487 -0.6354  0.8936 -0.5180
  758MOL0     C 2197   1.056   7.656   2.468  0.3080  0.0688  0.3110
  758MOL0     O 2198   1.021   7.767   2.530  0.2571  0.1405  0.3076
  758MOL0     C 2199   1.104   7.845   2.606  0.1017  0.5129  0.9937
  758MOL0     C 2200   1.230   7.881   2.563  1.9530 -0.0007 -0.3006
  758MOL0     C 2201   1.312   7.966   2.635 -0.0055  0.3373  0.2015
  758MOL0     C 2202   1.262   8.011   2.760 -0.4321 -0.5986 -1.2187
  758MOL0     O 2203   1.330   8.087   2.842  0.5723 -0.2298 -0.0662
  758MOL0     C 2204   1.405   8.196   2.777  0.0013  0.0832  0.1805
  758MOL0     C 2205   1.414   8.306   2.883  0.9881  0.5504  0.4734
  758MOL0     C 2206   1.485   8.440   2.852  0.3099 -0.1847  0.5924
  758MOL0     C 2207   1.488   8.524   2.979 -0.0015 -0.5073  0.5930
  758MOL0     C 2208   1.394   8.644   2.985  0.4489 -0.4367  0.3783
  758MOL0     C 2209   1.240   8.613   2.978  0.4020  0.1630 -0.8724
  758MOL0     C 2210   1.159   8.746   2.987 -0.1337  0.3043  0.2301
  758MOL0     C 2211   1.009   8.718   3.001 -1.6530 -0.8275  1.0395
  758MOL0     N 2212   0.947   8.836   2.943  0.8718  0.0754  0.4183
  758MOL0     C 2213   0.881   8.846   2.822 -0.2429 -0.8283  0.2427
  758MOL0     C 2214   0.856   8.976   2.802  0.5051  0.5067  0.0591
  758MOL0     C 2215   0.797   9.022   2.677  0.9746 -0.2564  0.7464
  758MOL0     C 2216   0.663   9.102   2.704 -0.4716 -0.5191  0.1922
  758MOL0     C 2217   0.608   9.166   2.567 -0.3069 -0.4516 -0.1512
  758MOL0     C 2218   0.703   9.275   2.506 -0.1100 -0.0528 -1.1487
  758MOL0     O 2219   0.662   9.316   2.378  0.7516  0.6419  0.2800
  758MOL0     C 2220   0.560   9.405   2.367  0.1429  0.5426 -0.3598
  758MOL0     C 2221   0.583   9.539   2.375 -0.2655  0.2752 -0.4161
  758MOL0     C 2222   0.483   9.635   2.377  0.5304 -0.4662  0.8926
  758MOL0     C 2223   0.347   9.594   2.353 -0.5221 -0.1227 -0.4009
  758MOL0     C 2224   0.234   9.687   2.350 -0.9211 -0.4853 -0.1303
  758MOL0     O 2225   0.113   9.636   2.374 -0.5591 -0.4262 -0.2871
  758MOL0     C 2226   0.005   9.709   2.414  1.0278  0.6757  0.4359
  758MOL0     C 2227  -0.121   9.648   2.391 -0.1284 -0.4504  0.7147
  758MOL0     C 2228  -0.240   9.706   2.427 -0.6376  0.9210  0.9110
  758MOL0     C 2229  -0.241   9.828   2.491 -0.1035  0.1709  0.8432
  758MOL0     O 2230  -0.346   9.889   2.544  0.9968 -0.3165 -0.5001
  758MOL0     C 2231  -0.473   9.861   2.482 -0.1094  0.2034  0.2732
  758MOL0     C 2232  -0.521   9.982   2.397  0.3932  0.6604  0.5851
  758MOL0     C 2233  -0.442   9.979   2.270  0.0584  0.2061  0.3112
  758MOL0     C 2234  -0.440  10.120   2.205  0.6840 -0.6350 -0.4499
  758MOL0     C 2235  -0.381  10.127   2.065  1.0008  0.2814 -0.3276
  758MOL0     C 2236  -0.220  10.120   2.088  0.4488 -1.3810 -0.6619
  758MOL0     C 2237  -0.145  10.131   1.963  0.1887  0.1709  0.5700
  758MOL0     C 2238  -0.187  10.041   1.838  0.3283  0.2212  0.2141
  758MOL0    Cl 2239  -0.081  10.085   1.706 -0.5223 -0.0689 -0.0044
  758MOL0     C 2240  -0.115   9.890   2.505  0.0933  0.3588 -1.0000
  758MOL0     C 2241   0.003   9.836   2.467 -0.2223 -0.0016 -0.1395
  758MOL0     O 2242   0.261   9.802   2.334  1.0627 -0.7817 -0.1142
  758MOL0     C 2243   0.321   9.457   2.340 -1.0509 -0.6963  0.4800
  758MOL0     C 2244   0.427   9.363   2.352 -0.3350  0.1687 -0.9222
  758MOL0     N 2245   0.902   9.046   2.914 -0.1284  0.1212 -0.3180
  758MOL0     N 2246   0.954   8.963   2.995  0.2050  0.6355  0.7881
  758MOL0     C 2247   1.136   7.957   2.808  0.1938  0.1417 -0.5225
  758MOL0     C 2248   1.054   7.869   2.731 -0.5138 -0.3704 -0.1070
  758MOL0     C 2249   0.992   7.614   2.349 -0.0801  0.8446 -0.0169
  758MOL0     C 2250   0.877   7.550   2.350 -0.0829  0.4014  0.1175
  758MOL0     C 2251   0.827   7.496   2.235 -0.4525 -0.0159 -0.1345
  758MOL0     C 2252   0.885   7.520   2.111 -0.3950  0.6751  0.7473
  758MOL0     O 2253   0.852   7.451   1.995  0.0661 -1.1504  0.2755
  758MOL0     C 2254   0.891   7.516   1.870 -0.7866 -0.9639 -0.5501
  758MOL0     C 2255   0.829   7.440   1.757  0.2904  0.5457  0.5861
  758MOL0     C 2256   0.884   7.298   1.737 -0.1596  1.4652  0.1663
  758MOL0     C 2257   0.788   7.237   1.623 -0.1111 -0.3386 -0.2321
  758MOL0     C 2258   0.864   7.231   1.496  0.3338  0.5175  0.1954
  758MOL0     C 2259   0.917   7.219   1.391 -0.0338  0.4879  0.1100
  758MOL0     C 2260   1.014   7.598   2.105 -0.0492  0.8649 -0.8507
  758MOL0     C 2261   1.061   7.649   2.228 -0.2507 -0.3375 -0.1901
  758MOL0     C 2262   1.169   7.749   2.233 -0.0721  0.1477 -0.4419
  758MOL0     H 2263   1.257   7.837   2.468  2.7580 -1.4490  0.5583
  758MOL0     H 2264   1.416   7.986   2.610  1.2827 -3.8312  1.4429
  758MOL0     H 2265   1.504   8.155   2.754 -0.1351 -0.9638  1.3445
  758MOL0     H 2266   1.357   8.225   2.684 -1.8164 -2.8456  0.0922
  758MOL0     H 2267   1.463   8.261   2.969  0.5202 -0.9086  0.0132
  758MOL0     H 2268   1.311   8.330   2.912  0.7255 -2.1983  2.1608
  758MOL0     H 2269   1.423   8.483   2.773 -0.4417 -1.1202  0.6513
  758MOL0     H 2270   1.590   8.421   2.825  0.9970 -0.7499  3.3242
  758MOL0     H 2271   1.472   8.456   3.064  3.4572 -2.7299 -0.3309
  758MOL0     H 2272   1.589   8.561   3.002 -0.3009 -1.4677  4.1524
  758MOL0     H 2273   1.409   8.698   3.079  0.4946 -1.6250  1.0739
  758MOL0     H 2274   1.414   8.709   2.899 -0.8191 -1.9045 -1.1070
  758MOL0     H 2275   1.209   8.569   2.883  0.8098 -2.2406  0.0163
  758MOL0     H 2276   1.211   8.541   3.056  0.9091 -1.1754 -1.8951
  758MOL0     H 2277   1.175   8.785   2.886 -0.2802  0.1128  0.1319
  758MOL0     H 2278   1.178   8.814   3.070 -0.4293 -2.0439  2.3524
  758MOL0     H 2279   0.982   8.630   2.942 -0.7205  0.9090 -2.2245
  758MOL0     H 2280   0.977   8.701   3.104  0.7973  3.5176  2.7931
  758MOL0     H 2281   0.860   8.767   2.751 -1.9070 -0.5150  0.3368
  758MOL0     H 2282   0.878   9.070   2.621 -0.2281 -0.1355 -0.9752
  758MOL0     H 2283   0.751   8.938   2.624 -2.4229  1.0119  1.4240
  758MOL0     H 2284   0.590   9.028   2.739  0.7379  0.0962  4.5501
  758MOL0     H 2285   0.686   9.179   2.778  1.7799 -1.3533  0.4198
  758MOL0     H 2286   0.517   9.212   2.606  0.4640 -0.8498  2.2585
  758MOL0     H 2287   0.573   9.079   2.511 -0.5224 -0.0825 -0.5956
  758MOL0     H 2288   0.802   9.229   2.513 -1.2169 -2.4685 -0.6939
  758MOL0     H 2289   0.711   9.363   2.571 -3.0074 -0.4600 -0.1247
  758MOL0     H 2290   0.683   9.579   2.384 -0.8782  1.8993 -0.5477
  758MOL0     H 2291   0.509   9.740   2.388 -0.0396 -0.1460 -0.6042
  758MOL0     H 2292  -0.132   9.550   2.346  0.2717 -0.6668  1.0923
  758MOL0     H 2293  -0.321   9.642   2.393  1.2133 -0.4056 -1.2502
  758MOL0     H 2294  -0.478   9.771   2.421 -1.0518  0.2016  0.3355
  758MOL0     H 2295  -0.545   9.847   2.563  0.3726  0.6979  0.7953
  758MOL0     H 2296  -0.630   9.978   2.388  0.3267 -0.6094  1.7013
  758MOL0     H 2297  -0.495  10.075   2.448  1.0661 -0.2890  2.0560
  758MOL0     H 2298  -0.334   9.964   2.285 -0.2317 -1.5363  0.9219
  758MOL0     H 2299  -0.482   9.902   2.203 -1.2037  0.3826  0.8357
  758MOL0     H 2300  -0.390  10.196   2.265 -1.3015  1.3010 -1.0833
  758MOL0     H 2301  -0.542  10.156   2.188  1.9060  3.0729 -0.8272
  758MOL0     H 2302  -0.402  10.219   2.009 -0.6524  1.1241  1.5639
  758MOL0     H 2303  -0.410  10.046   1.997  1.4650  0.6065 -0.9161
  758MOL0     H 2304  -0.192  10.195   2.163 -1.2739 -1.0123 -0.3298
  758MOL0     H 2305  -0.210  10.019   2.128  3.4663  0.2819  3.5332
  758MOL0     H 2306  -0.041  10.100   1.976  1.4734  3.0292 -1.8561
  758MOL0     H 2307  -0.141  10.236   1.931 -0.1766 -0.1408 -0.5064
  758MOL0     H 2308  -0.160   9.936   1.852  0.5145  0.1500 -0.6158
  758MOL0     H 2309  -0.292  10.051   1.808 -0.4467  0.1165  2.6850
  758MOL0     H 2310  -0.102   9.987   2.552  0.4404  1.6921 -3.6181
  758MOL0     H 2311   0.095   9.891   2.484  0.4911 -0.9998 -0.6825
  758MOL0     H 2312   0.221   9.422   2.315 -1.7684  2.1972 -1.2599
  758MOL0     H 2313   0.404   9.258   2.344  1.9392 -0.4310 -0.2533
  758MOL0     H 2314   1.109   7.993   2.906 -0.6923 -0.2425 -0.6209
  758MOL0     H 2315   0.952   7.844   2.757 -1.1765  1.4991 -0.7260
  758MOL0     H 2316   0.830   7.542   2.448  0.7654  3.4774  0.8730
  758MOL0     H 2317   0.728   7.451   2.245 -0.6804  0.9426  3.0396
  758MOL0     H 2318   0.998   7.512   1.848 -1.1165 -1.1396 -2.3091
  758MOL0     H 2319   0.861   7.621   1.874 -0.9489 -1.0586  1.9421
  758MOL0     H 2320   0.854   7.491   1.664  0.0425 -0.7738 -0.2209
  758MOL0     H 2321   0.721   7.440   1.773  0.5592 -3.3053  4.0227
  758MOL0     H 2322   0.874   7.239   1.829  2.8186 -0.8595 -0.8512
  758MOL0     H 2323   0.991   7.296   1.715  0.2678 -1.4882  2.0347
  758MOL0     H 2324   0.758   7.135   1.650  3.5131 -1.8178 -1.1566
  758MOL0     H 2325   0.692   7.288   1.612 -2.1715 -3.6336  0.9007
  758MOL0     H 2326   0.975   7.198   1.303 -0.9743 -0.9249 -0.2010
  758MOL0     H 2327   1.074   7.609   2.015 -0.4490 -3.6643 -1.8894
  758MOL0     H 2328   1.140   7.842   2.281 -0.3956 -0.9552  1.6148
  758MOL0     H 2329   1.254   7.714   2.293 -1.6327  2.3989  3.4078
  758MOL0     H 2330   1.200   7.771   2.130 -1.1691  2.7959 -0.2810
  759MOL0     O 2331   2.356   1.226   8.861 -0.3759 -0.0410 -0.0513
  759MOL0     C 2332   2.479   1.199   8.865  0.0414 -0.2303  0.1899
  759MOL0     O 2333   2.547   1.128   8.764 -0.9396  0.4261  0.4840
  759MOL0     C 2334   2.475   1.095   8.645  1.2566 -0.1590 -0.0466
  759MOL0     C 2335   2.455   1.196   8.552  0.7013  1.2064 -0.8585
  759MOL0     C 2336   2.381   1.174   8.435  0.0441 -0.0805 -0.4260
  759MOL0     C 2337   2.330   1.046   8.411  0.4981 -0.0752 -0.3363
  759MOL0     O 2338   2.270   1.007   8.294 -0.1516  0.6654 -0.5544
  759MOL0     C 2339   2.169   1.087   8.241 -1.8020 -0.1809 -0.0028
  759MOL0     C 2340   2.095   1.001   8.138 -1.2914 -1.0168 -0.0412
  759MOL0     C 2341   1.956   0.971   8.180 -0.4303 -0.1210  0.1212
  759MOL0     C 2342   1.899   0.880   8.078 -0.1163 -0.1479  0.2927
  759MOL0     C 2343   1.817   0.780   8.153 -0.0590  0.6869  0.8227
  759MOL0     C 2344   1.766   0.691   8.036  0.4435  0.0183  0.2457
  759MOL0     C 2345   1.736   0.548   8.090  0.2950  0.1231 -0.2827
  759MOL0     C 2346   1.646   0.549   8.231  0.6654  0.4152  0.4969
  759MOL0     N 2347   1.506   0.589   8.200 -0.2195  0.0707  0.0587
  759MOL0     C 2348   1.432   0.531   8.088 -1.0268 -0.6410  0.1853
  759MOL0     C 2349   1.333   0.615   8.073 -0.3100  1.0825 -0.5160
  759MOL0     C 2350   1.218   0.622   7.972 -0.8719  1.7465 -0.5979
  759MOL0     C 2351   1.206   0.760   7.898 -0.0667  0.0713  0.5187
  759MOL0     C 2352   1.057   0.792   7.839  0.1129  0.7043 -0.1108
  759MOL0     C 2353   1.006   0.676   7.752  0.4819  0.7666  0.4054
  759MOL0     O 2354   1.099   0.628   7.651 -0.1748  0.2480  0.7790
  759MOL0     C 2355   1.083   0.680   7.529  0.1144 -1.7925  0.3420
  759MOL0     C 2356   1.169   0.779   7.486 -0.1397 -0.9722  0.4175
  759MOL0     C 2357   1.156   0.841   7.361  0.2704 -0.2505  0.2152
  759MOL0     C 2358   1.050   0.810   7.275 -0.8269 -0.5639 -0.0512
  759MOL0     C 2359   1.021   0.883   7.151  0.3299 -0.1100 -0.5530
  759MOL0     O 2360   0.904   0.874   7.077  0.5716  0.0572 -0.6334
  759MOL0     C 2361   0.899   0.925   6.952 -0.0756 -1.1429  1.3951
  759MOL0     C 2362   0.907   0.842   6.842  0.1643 -0.0044 -0.3177
  759MOL0     C 2363   0.874   0.877   6.708 -0.7241 -0.1621  0.5653
  759MOL0     C 2364   0.840   1.014   6.691  0.4536 -0.5011 -0.0354
  759MOL0     O 2365   0.800   1.075   6.572 -0.2379  0.3412  0.5367
  759MOL0     C 2366   0.812   1.003   6.448  0.1945  0.4373  0.2635
  759MOL0     C 2367   0.802   1.107   6.329  0.1839 -0.2332  0.2833
  759MOL0     C 2368   0.913   1.214   6.327  0.2102 -0.9990  0.1142
  759MOL0     C 2369   0.889   1.284   6.195  0.0444 -0.3632  1.5931
  759MOL0     C 2370   0.980   1.393   6.161  0.2152 -0.0058 -0.2335
  759MOL0     C 2371   0.972   1.425   6.006 -0.3543  0.5654  0.5129
  759MOL0     C 2372   1.042   1.556   5.978 -0.3813  0.1640  0.4980
  759MOL0     C 2373   0.957   1.685   5.984  0.3696 -1.2749 -0.3414
  759MOL0    Cl 2374   1.028   1.825   5.901 -0.1398  0.1436 -0.1052
  759MOL0     C 2375   0.844   1.100   6.798 -0.8726 -0.2899  0.0416
  759MOL0     C 2376   0.874   1.058   6.931  1.0703  0.0515 -0.0546
  759MOL0     O 2377   1.120   0.953   7.119  0.7503 -0.3183 -0.5209
  759MOL0     C 2378   0.973   0.701   7.317 -0.4242  0.8376 -0.4079
  759MOL0     C 2379   0.985   0.636   7.444 -0.1692 -0.3270  0.6576
  759MOL0     N 2380   1.334   0.707   8.172  0.1875 -0.6085 -0.2640
  759MOL0     N 2381   1.439   0.691   8.254 -0.2011  0.0350  0.1347
  759MOL0     C 2382   2.371   0.948   8.496  0.3216 -0.5196  0.3366
  759MOL0     C 2383   2.431   0.970   8.617  0.7941  0.5190 -0.7964
  759MOL0     C 2384   2.564   1.234   8.983 -0.9595 -0.4704  0.0410
  759MOL0     C 2385   2.696   1.179   8.992  0.6122  0.1739  0.0702
  759MOL0     C 2386   2.771   1.199   9.105 -0.3403  0.3579  0.1515
  759MOL0     C 2387   2.735   1.287   9.208  0.5262  0.1585 -0.5551
  759MOL0     O 2388   2.823   1.313   9.311  0.4905  0.1311 -0.0009
  759MOL0     C 2389   2.866   1.204   9.395 -0.2018  0.3668 -0.3206
  759MOL0     C 2390   2.761   1.118   9.446  0.7078 -0.5608  0.5152
  759MOL0     C 2391   2.661   1.201   9.525  0.0648  0.3443 -0.0564
  759MOL0     C 2392   2.540   1.125   9.559 -0.1780  0.5794 -0.1813
  759MOL0     C 2393   2.458   1.119   9.444  0.5077  0.0125 -0.0343
  759MOL0     C 2394   2.398   1.123   9.335 -1.3040 -0.7592 -0.1966
  759MOL0     C 2395   2.617   1.358   9.191 -0.8562 -0.1419  0.4729
  759MOL0     C 2396   2.530   1.334   9.079  0.7740 -0.5256 -0.2878
  759MOL0     C 2397   2.394   1.399   9.097  0.0177 -0.0002  0.0903
  759MOL0     H 2398   2.495   1.296   8.569  0.1780  1.2716  0.0864
  759MOL0     H 2399   2.378   1.267   8.378  2.4387  1.7003  2.0989
  759MOL0     H 2400   2.106   1.120   8.324  0.5131 -3.0206  3.1504
  759MOL0     H 2401   2.214   1.173   8.191  0.7608 -0.5112  1.5505
  759MOL0     H 2402   2.155   0.910   8.130  1.8490  0.8246  0.7605
  759MOL0     H 2403   2.092   1.047   8.039 -3.5704 -2.5692 -0.7491
  759MOL0     H 2404   1.889   1.056   8.195 -0.2238 -0.0442  0.6406
  759MOL0     H 2405   1.965   0.909   8.270 -0.9262 -2.4239 -1.3230
  759MOL0     H 2406   1.829   0.935   8.015  0.6897 -1.1692 -1.5744
  759MOL0     H 2407   1.979   0.834   8.018 -0.6080 -0.2433 -0.2920
  759MOL0     H 2408   1.880   0.726   8.224 -2.5521 -4.8830 -0.6207
  759MOL0     H 2409   1.736   0.832   8.203 -2.7072 -1.0089 -1.4037
  759MOL0     H 2410   1.677   0.728   7.984  1.2647  0.4585 -0.8806
  759MOL0     H 2411   1.845   0.684   7.961  0.3146 -1.1798  0.2139
  759MOL0     H 2412   1.830   0.496   8.113 -0.6466 -3.9141 -4.1662
  759MOL0     H 2413   1.682   0.504   8.006 -5.4170 -0.7493  3.2989
  759MOL0     H 2414   1.645   0.442   8.253 -1.1130  0.1211 -0.7692
  759MOL0     H 2415   1.690   0.607   8.312  2.4487  3.5450 -2.4484
  759MOL0     H 2416   1.461   0.455   8.017 -4.6312 -0.7524 -1.4138
  759MOL0     H 2417   1.221   0.538   7.902 -5.0356  0.4336  0.4713
  759MOL0     H 2418   1.126   0.590   8.024  0.5648  0.0608  1.0497
  759MOL0     H 2419   1.249   0.834   7.967 -0.5330  2.3964 -1.5593
  759MOL0     H 2420   1.273   0.755   7.811 -1.8967 -0.6387 -0.9098
  759MOL0     H 2421   1.057   0.883   7.778 -1.0119  0.5260 -0.3988
  759MOL0     H 2422   0.982   0.804   7.918 -3.1454  0.5716 -2.9292
  759MOL0     H 2423   0.921   0.717   7.697  0.0898 -2.4048 -1.5655
  759MOL0     H 2424   0.983   0.591   7.817 -4.0452 -1.9337 -4.0350
  759MOL0     H 2425   1.256   0.807   7.543  0.5764 -0.9357 -0.6514
  759MOL0     H 2426   1.217   0.926   7.334 -1.0128  0.3397 -0.9056
  759MOL0     H 2427   0.934   0.741   6.869 -3.0580 -0.9383 -0.1554
  759MOL0     H 2428   0.881   0.809   6.624 -1.4883  2.1845 -1.5045
  759MOL0     H 2429   0.907   0.950   6.436  0.3771  0.9264 -0.5540
  759MOL0     H 2430   0.729   0.932   6.442  0.9662 -0.3449 -3.0272
  759MOL0     H 2431   0.808   1.040   6.242 -1.1131 -0.1035  0.0779
  759MOL0     H 2432   0.705   1.157   6.333  0.1781 -0.1048 -1.0436
  759MOL0     H 2433   0.896   1.293   6.401 -2.1984  0.3934 -1.7708
  759MOL0     H 2434   1.008   1.160   6.327  0.5414 -0.4304  0.5952
  759MOL0     H 2435   0.786   1.321   6.186  0.5048  0.9071  1.2975
  759MOL0     H 2436   0.896   1.205   6.120 -3.0395  0.3432  0.4186
  759MOL0     H 2437   1.082   1.365   6.187  0.7773  1.2797 -0.9777
  759MOL0     H 2438   0.963   1.489   6.210  2.5600 -0.2900  1.2847
  759MOL0     H 2439   1.015   1.345   5.945 -2.0152  0.6994 -0.8881
  759MOL0     H 2440   0.869   1.427   5.972 -1.1477 -0.1335  2.6941
  759MOL0     H 2441   1.075   1.547   5.874  0.6042 -1.7425  0.9290
  759MOL0     H 2442   1.125   1.566   6.049  0.9119  0.5563 -1.0262
  759MOL0     H 2443   0.858   1.662   5.943 -0.1447 -0.4349  0.4001
  759MOL0     H 2444   0.932   1.695   6.090 -0.7078  1.4784 -0.7758
  759MOL0     H 2445   0.817   1.205   6.788  0.3726  0.0775  0.3574
  759MOL0     H 2446   0.877   1.124   7.017 -0.4504 -1.3869  1.1724
  759MOL0     H 2447   0.892   0.662   7.257 -2.8247 -1.2992  3.7705
  759MOL0     H 2448   0.911   0.565   7.477 -0.1791  0.8977  3.5557
  759MOL0     H 2449   2.359   0.847   8.458  0.6831  0.3342 -2.2013
  759MOL0     H 2450   2.449   0.891   8.689  1.7449  0.1937 -1.3777
  759MOL0     H 2451   2.741   1.124   8.910  2.9189  1.1963  0.5668
  759MOL0     H 2452   2.875   1.171   9.116 -0.2326  0.0241 -1.4933
  759MOL0     H 2453   2.919   1.248   9.480 -1.3153  1.4085 -0.1318
  759MOL0     H 2454   2.933   1.143   9.334 -1.4650  0.4568 -1.8385
  759MOL0     H 2455   2.809   1.044   9.511 -0.4715 -2.7787 -1.0336
  759MOL0     H 2456   2.709   1.064   9.366 -2.1811  1.5376  0.8236
  759MOL0     H 2457   2.646   1.302   9.486  0.1709  0.4800  0.2482
  759MOL0     H 2458   2.711   1.221   9.620 -2.0502  0.3540  1.1014
  759MOL0     H 2459   2.549   1.023   9.598 -0.1967  0.7159  0.1834
  759MOL0     H 2460   2.488   1.177   9.640  1.6469 -0.2986  1.6314
  759MOL0     H 2461   2.324   1.123   9.258 -1.2909 -1.4113 -0.2147
  759MOL0     H 2462   2.595   1.430   9.270  1.9965  2.4498 -0.8744
  759MOL0     H 2463   2.372   1.485   9.033 -3.0835 -2.1057 -1.9723
  759MOL0     H 2464   2.315   1.326   9.075  0.3852 -0.8783  1.5736
  759MOL0     H 2465   2.381   1.417   9.204 -0.4395 -2.2589  0.4707
  760MOL0     O 2466   4.698   0.426   2.214  0.3102 -0.6494  0.2815
  760MOL0     C 2467   4.749   0.423   2.098  0.9199  0.1672 -0.4892
  760MOL0     O 2468   4.876   0.416   2.065  0.5489 -0.5070 -0.5615
  760MOL0     C 2469   4.960   0.366   2.167 -0.0020  0.7306  0.4791
  760MOL0     C 2470   5.019   0.243   2.131 -0.6044 -0.5131 -0.1671
  760MOL0     C 2471   5.105   0.179   2.220 -0.6302 -0.1034  0.3355
  760MOL0     C 2472   5.134   0.239   2.344 -0.2484  1.0108 -1.2385
  760MOL0     O 2473   5.232   0.193   2.436  0.9212 -0.5315  0.0552
  760MOL0     C 2474   5.213   0.075   2.513 -0.0874  0.4475 -0.4010
  760MOL0     C 2475   5.274   0.083   2.654  0.4111 -0.4732 -0.3539
  760MOL0     C 2476   5.215   0.178   2.767 -0.2831 -0.5937  0.1019
  760MOL0     C 2477   5.093   0.109   2.823 -0.3067 -0.1946  1.0326
  760MOL0     C 2478   5.000   0.201   2.894  0.2994 -0.0284 -0.4048
  760MOL0     C 2479   5.072   0.249   3.027 -0.5822  1.0196 -0.3794
  760MOL0     C 2480   4.983   0.258   3.157 -0.1701 -0.9192  0.3166
  760MOL0     C 2481   4.932   0.406   3.161  0.2373 -0.0787  0.0914
  760MOL0     N 2482   4.828   0.441   3.069  0.7293 -0.3652  0.5216
  760MOL0     C 2483   4.850   0.525   2.959 -0.3798 -0.2750 -0.3819
  760MOL0     C 2484   4.741   0.522   2.886  0.2851 -0.6695 -0.2337
  760MOL0     C 2485   4.709   0.629   2.777 -0.2937 -0.7240  0.3932
  760MOL0     C 2486   4.798   0.595   2.660 -0.4620 -0.1704  0.4272
  760MOL0     C 2487   4.760   0.672   2.537  0.3853  0.4192  0.6887
  760MOL0     C 2488   4.836   0.805   2.529 -0.6918 -0.1126  0.4315
  760MOL0     O 2489   4.958   0.806   2.444  0.8971  0.2338  0.0104
  760MOL0     C 2490   4.955   0.806   2.309  0.8272 -0.2272  1.0979
  760MOL0     C 2491   5.078   0.805   2.247  0.5600  1.2249 -0.3183
  760MOL0     C 2492   5.095   0.810   2.107  0.8814  0.3034  0.1989
  760MOL0     C 2493   4.990   0.806   2.024 -0.1592  0.0733 -0.1584
  760MOL0     C 2494   5.019   0.802   1.878  0.3775 -0.7914 -0.2725
  760MOL0     O 2495   5.144   0.823   1.836  0.0967 -0.1403 -0.1170
  760MOL0     C 2496   5.182   0.823   1.708  0.0439  0.3587  0.1416
  760MOL0     C 2497   5.125   0.759   1.605  0.5859  0.2109  0.2734
  760MOL0     C 2498   5.174   0.784   1.470 -1.0406  0.0766  0.5048
  760MOL0     C 2499   5.278   0.872   1.449  0.2159  0.2387  0.2150
  760MOL0     O 2500   5.340   0.910   1.334  0.3814  0.6337  0.4108
  760MOL0     C 2501   5.243   0.914   1.228  0.3378  0.7418  0.5461
  760MOL0     C 2502   5.329   0.953   1.111 -1.2960 -0.0984 -0.6346
  760MOL0     C 2503   5.395   0.828   1.041 -0.0114 -0.3768  0.6169
  760MOL0     C 2504   5.549   0.810   1.061 -0.3153  0.8694  0.2439
  760MOL0     C 2505   5.607   0.712   0.956  0.0054  1.0160  0.0972
  760MOL0     C 2506   5.756   0.691   0.981 -0.5464 -0.6636 -0.4783
  760MOL0     C 2507   5.844   0.800   0.932  0.6339  0.8008  0.8239
  760MOL0     C 2508   5.991   0.750   0.948 -0.3993 -0.1130  0.8299
  760MOL0    Cl 2509   6.038   0.613   0.844  0.0952  0.0804  0.2084
  760MOL0     C 2510   5.322   0.940   1.552 -0.5785  0.7455 -0.1991
  760MOL0     C 2511   5.279   0.918   1.684  0.0792  1.3577 -0.0337
  760MOL0     O 2512   4.918   0.776   1.809 -0.1771  0.2041  1.2247
  760MOL0     C 2513   4.863   0.801   2.080  0.7021 -0.0201 -0.1914
  760MOL0     C 2514   4.846   0.807   2.225  0.7190  0.5084 -0.1546
  760MOL0     N 2515   4.646   0.444   2.951  0.3422  0.0133 -0.8315
  760MOL0     N 2516   4.695   0.398   3.064 -0.1572 -0.4041 -1.0589
  760MOL0     C 2517   5.071   0.356   2.383  0.4202  0.1345 -0.9100
  760MOL0     C 2518   4.991   0.427   2.288 -0.2754 -0.4357 -1.2765
  760MOL0     C 2519   4.648   0.441   1.985  0.3470 -0.2044  0.7134
  760MOL0     C 2520   4.674   0.521   1.875 -0.4348  0.5315  0.6412
  760MOL0     C 2521   4.590   0.540   1.767 -0.3165 -0.2036  0.2899
  760MOL0     C 2522   4.472   0.464   1.765  0.9218 -0.3103 -0.3761
  760MOL0     O 2523   4.385   0.459   1.659  0.9349  0.2993 -1.1159
  760MOL0     C 2524   4.406   0.536   1.540  0.5878  0.4477 -0.4999
  760MOL0     C 2525   4.345   0.473   1.414  0.4989 -0.9411  0.4650
  760MOL0     C 2526   4.193   0.467   1.430 -0.2513 -0.1417  0.2846
  760MOL0     C 2527   4.129   0.410   1.300 -0.7553  1.0901 -0.1106
  760MOL0     C 2528   4.174   0.487   1.183 -0.3934 -0.0415  0.6494
  760MOL0     C 2529   4.188   0.572   1.095  0.3034  0.4411 -0.1467
  760MOL0     C 2530   4.437   0.381   1.874  0.0122 -0.1589  0.3490
  760MOL0     C 2531   4.520   0.370   1.985 -0.5555  0.0195 -0.0286
  760MOL0     C 2532   4.473   0.274   2.089 -0.6613  0.5328  0.6345
  760MOL0     H 2533   5.015   0.205   2.029 -0.3830 -0.2848 -0.2590
  760MOL0     H 2534   5.173   0.096   2.205  1.6055  1.4414  1.3262
  760MOL0     H 2535   5.105   0.058   2.524  0.0363 -1.3308 -1.5883
  760MOL0     H 2536   5.269  -0.004   2.463  0.9592  0.4747  0.6871
  760MOL0     H 2537   5.376   0.122   2.643 -0.2597  1.8880  0.9683
  760MOL0     H 2538   5.265  -0.023   2.680 -0.2154 -0.7507 -1.6202
  760MOL0     H 2539   5.192   0.276   2.725  0.2093  0.2972  1.7907
  760MOL0     H 2540   5.300   0.199   2.833  0.5678 -2.6071 -0.2805
  760MOL0     H 2541   5.039   0.048   2.750 -0.3614  1.3088 -0.2392
  760MOL0     H 2542   5.124   0.037   2.900 -0.1102  1.1196  2.2216
  760MOL0     H 2543   4.967   0.289   2.837  2.0758  2.5859  2.2898
  760MOL0     H 2544   4.909   0.150   2.925  0.8147 -0.8001 -0.1323
  760MOL0     H 2545   5.149   0.176   3.053 -2.2656 -1.5822 -2.2906
  760MOL0     H 2546   5.119   0.347   3.011  2.2456  0.2407  2.1338
  760MOL0     H 2547   5.036   0.238   3.250  0.0747 -0.1082  0.3607
  760MOL0     H 2548   4.899   0.188   3.152  1.9235 -3.6059 -3.3068
  760MOL0     H 2549   4.886   0.423   3.259  1.1651  4.7092 -0.0730
  760MOL0     H 2550   5.019   0.471   3.151 -0.2188  0.9620  2.2641
  760MOL0     H 2551   4.947   0.572   2.946  1.2817 -2.9114  1.4941
  760MOL0     H 2552   4.602   0.623   2.751 -1.5230  2.8654  3.7007
  760MOL0     H 2553   4.733   0.729   2.814 -1.9830 -0.3806  0.6430
  760MOL0     H 2554   4.903   0.603   2.690  0.5319  1.4411 -2.9533
  760MOL0     H 2555   4.778   0.490   2.635 -1.5337 -0.6885  3.1488
  760MOL0     H 2556   4.652   0.686   2.531  0.3389 -0.4382 -3.0242
  760MOL0     H 2557   4.785   0.627   2.441  3.7074  2.4206  0.4592
  760MOL0     H 2558   4.874   0.834   2.628  0.4242 -0.7288  0.2035
  760MOL0     H 2559   4.771   0.887   2.499  2.2879  2.3758  0.2801
  760MOL0     H 2560   5.161   0.800   2.316 -1.0182  0.1132  1.5990
  760MOL0     H 2561   5.198   0.808   2.071  1.4690  0.9995  1.7601
  760MOL0     H 2562   5.048   0.683   1.615 -2.0277  1.9816 -3.8438
  760MOL0     H 2563   5.129   0.739   1.383 -1.2463 -0.9818  1.1469
  760MOL0     H 2564   5.179   0.829   1.200 -0.9406  1.4379  1.2806
  760MOL0     H 2565   5.169   0.992   1.248 -0.8419  0.6166 -2.7460
  760MOL0     H 2566   5.268   0.993   1.030  4.3690 -0.7010 -5.9462
  760MOL0     H 2567   5.412   1.021   1.134  0.7605 -2.5064 -0.4451
  760MOL0     H 2568   5.346   0.740   1.084 -0.4137 -2.8959 -4.3239
  760MOL0     H 2569   5.387   0.838   0.933  0.8431  0.6417  0.6317
  760MOL0     H 2570   5.577   0.776   1.161 -0.3779 -0.1103 -0.0594
  760MOL0     H 2571   5.608   0.901   1.050  0.5440  0.2711 -0.2989
  760MOL0     H 2572   5.571   0.729   0.854 -0.2901 -0.2470 -0.0301
  760MOL0     H 2573   5.572   0.609   0.973  0.5492  0.9259  0.6928
  760MOL0     H 2574   5.771   0.702   1.089  0.0844  1.6558 -0.7461
  760MOL0     H 2575   5.787   0.596   0.938 -2.4184 -0.7973 -1.6299
  760MOL0     H 2576   5.835   0.898   0.979 -0.9295  0.5279  1.1565
  760MOL0     H 2577   5.829   0.815   0.824  2.6623 -2.0951  0.0179
  760MOL0     H 2578   6.054   0.839   0.936  1.5397 -1.6130 -0.8381
  760MOL0     H 2579   6.014   0.719   1.050  1.4974  0.6972  0.7068
  760MOL0     H 2580   5.394   1.018   1.530 -0.4456  0.9647  0.9188
  760MOL0     H 2581   5.306   0.987   1.763  0.2690 -1.5486  2.6451
  760MOL0     H 2582   4.774   0.805   2.019 -0.4976  1.0558  1.5184
  760MOL0     H 2583   4.747   0.798   2.270  1.0662 -0.6804  0.4224
  760MOL0     H 2584   5.079   0.388   2.486  1.2525 -1.2242 -0.5407
  760MOL0     H 2585   4.944   0.520   2.320  2.2665  0.3311  0.5807
  760MOL0     H 2586   4.769   0.572   1.862  0.2336 -0.2120  2.3322
  760MOL0     H 2587   4.621   0.593   1.677 -0.1067 -1.4160 -0.3673
  760MOL0     H 2588   4.512   0.530   1.516  0.3668  0.5654 -1.5385
  760MOL0     H 2589   4.371   0.638   1.559  0.9188  0.2572  1.2788
  760MOL0     H 2590   4.381   0.375   1.382 -1.0903 -1.5087  0.3109
  760MOL0     H 2591   4.362   0.539   1.329  0.9681  0.6585  1.7494
  760MOL0     H 2592   4.146   0.557   1.469 -0.1734  0.4399 -0.9440
  760MOL0     H 2593   4.172   0.385   1.500 -3.2990 -0.1724 -0.5304
  760MOL0     H 2594   4.166   0.308   1.283  2.0784  1.6101  2.1836
  760MOL0     H 2595   4.020   0.414   1.295 -0.8405 -0.4212  0.0275
  760MOL0     H 2596   4.189   0.643   1.015  1.0230  1.0237  0.3576
  760MOL0     H 2597   4.336   0.342   1.878 -0.1623  0.2012 -0.3767
  760MOL0     H 2598   4.543   0.190   2.081 -0.9954  0.4339 -2.9786
  760MOL0     H 2599   4.482   0.310   2.192  0.4985 -2.2354  1.5878
  760MOL0     H 2600   4.374   0.233   2.066 -0.3614  1.0805 -1.9587
  761MOL0     O 2601  10.689   4.625   8.620 -0.0876 -0.4173 -1.0034
  761MOL0     C 2602  10.643   4.589   8.729 -0.5643  1.1341  1.2552
  761MOL0     O 2603  10.671   4.473   8.793 -0.4571  0.9847 -0.1764
  761MOL0     C 2604  10.744   4.364   8.738  0.2268 -0.3666  0.2271
  761MOL0     C 2605  10.710   4.248   8.801  0.8007 -0.7009 -0.9051
  761MOL0     C 2606  10.773   4.125   8.769  0.7470 -0.7683 -0.2771
  761MOL0     C 2607  10.884   4.126   8.673  0.4019 -0.1426  0.6118
  761MOL0     O 2608  10.963   4.016   8.644  0.1213  0.2158  0.1737
  761MOL0     C 2609  11.000   3.952   8.760 -0.2472  0.4975 -0.2527
  761MOL0     C 2610  11.087   3.837   8.723  0.0041  0.3458 -0.0581
  761MOL0     C 2611  11.119   3.762   8.854 -0.2273 -0.0285 -0.7313
  761MOL0     C 2612  11.235   3.658   8.845  0.6637 -0.1260 -0.8481
  761MOL0     C 2613  11.292   3.628   8.982  0.2658  0.0062  0.2843
  761MOL0     C 2614  11.385   3.506   8.979  0.3436 -1.2335  0.4332
  761MOL0     C 2615  11.510   3.554   8.904 -0.6081  0.1142 -0.3402
  761MOL0     C 2616  11.601   3.425   8.885  0.8063 -0.7608  0.0726
  761MOL0     N 2617  11.738   3.456   8.859 -0.1031 -0.1689  0.1395
  761MOL0     C 2618  11.796   3.529   8.761 -0.2278 -0.1566  0.6405
  761MOL0     C 2619  11.928   3.529   8.794  0.5199 -0.1979 -1.3071
  761MOL0     C 2620  12.029   3.602   8.722  0.0456  0.4343 -0.7562
  761MOL0     C 2621  12.065   3.551   8.596 -1.2935  0.9985  0.4681
  761MOL0     C 2622  12.175   3.639   8.527 -0.1636  0.6730  0.5009
  761MOL0     C 2623  12.216   3.574   8.393 -0.5589  0.1722  0.3105
  761MOL0     O 2624  12.323   3.645   8.332  0.0171 -0.9639  0.2990
  761MOL0     C 2625  12.318   3.780   8.293  0.5211  0.4548  0.0379
  761MOL0     C 2626  12.436   3.851   8.314 -0.1350 -0.4935 -0.2216
  761MOL0     C 2627  12.444   3.987   8.289 -0.3584  0.4756  0.4407
  761MOL0     C 2628  12.334   4.053   8.238  0.2103  0.5872  0.5758
  761MOL0     C 2629  12.342   4.191   8.197  0.1260  0.1962 -0.0643
  761MOL0     O 2630  12.466   4.237   8.148 -0.7608 -0.8751  0.1013
  761MOL0     C 2631  12.499   4.370   8.116  0.3929 -0.0758 -0.2418
  761MOL0     C 2632  12.414   4.466   8.068 -0.7502 -0.5343  1.0705
  761MOL0     C 2633  12.458   4.599   8.030 -0.2861 -0.0264 -0.2759
  761MOL0     C 2634  12.586   4.631   8.067  0.3267  0.5110 -0.8822
  761MOL0     O 2635  12.624   4.760   8.036 -0.3252  0.0687 -0.3260
  761MOL0     C 2636  12.643   4.844   8.153 -0.1347  0.2501  0.2501
  761MOL0     C 2637  12.678   4.985   8.095  0.1058  0.3880 -0.8428
  761MOL0     C 2638  12.762   5.063   8.196 -0.5448  0.5219  0.1455
  761MOL0     C 2639  12.699   5.075   8.332 -0.1878  0.7129 -0.4262
  761MOL0     C 2640  12.776   5.167   8.433  0.1484 -0.7153  0.7063
  761MOL0     C 2641  12.930   5.148   8.432 -0.6669  0.4475 -0.2833
  761MOL0     C 2642  12.976   5.001   8.461 -0.0600  0.6566  0.1521
  761MOL0     C 2643  12.999   4.981   8.606  0.2113 -0.0955 -0.8704
  761MOL0    Cl 2644  13.145   5.056   8.658  0.2683 -0.6852 -0.5653
  761MOL0     C 2645  12.678   4.530   8.110  0.2547 -0.1877 -0.2750
  761MOL0     C 2646  12.628   4.405   8.141 -0.1851 -0.3975  0.1919
  761MOL0     O 2647  12.243   4.259   8.213 -0.1858  0.1426  0.5872
  761MOL0     C 2648  12.219   3.981   8.225 -0.0242 -0.3282  0.0027
  761MOL0     C 2649  12.204   3.844   8.242  0.6638 -0.0567 -0.6333
  761MOL0     N 2650  11.943   3.448   8.898 -0.5290 -0.2141  0.2764
  761MOL0     N 2651  11.832   3.411   8.941  0.2531 -0.0448  0.6770
  761MOL0     C 2652  10.907   4.244   8.604 -0.5414  0.8478 -0.7877
  761MOL0     C 2653  10.840   4.360   8.634  0.6121 -0.4481 -0.4885
  761MOL0     C 2654  10.580   4.690   8.815 -1.0377 -0.7896 -0.0467
  761MOL0     C 2655  10.557   4.817   8.760  0.1450 -0.0161  0.5771
  761MOL0     C 2656  10.491   4.927   8.819  0.1908 -0.0374  0.3550
  761MOL0     C 2657  10.466   4.911   8.956 -0.2047  0.1849 -0.0420
  761MOL0     O 2658  10.381   4.991   9.023  0.8333 -1.3995 -0.7854
  761MOL0     C 2659  10.320   5.113   8.970  0.4931  0.1698 -0.6382
  761MOL0     C 2660  10.183   5.076   8.906  1.1412  0.0612 -0.0903
  761MOL0     C 2661  10.109   5.191   8.842 -0.2831 -0.0139 -0.4146
  761MOL0     C 2662  10.039   5.269   8.950  0.8245  0.5547  0.1289
  761MOL0     C 2663   9.992   5.393   8.881  0.0192  1.0011 -0.7086
  761MOL0     C 2664   9.944   5.494   8.837 -0.0229  0.4615  1.2033
  761MOL0     C 2665  10.501   4.791   9.018  0.4742 -0.5389  0.7052
  761MOL0     C 2666  10.557   4.684   8.953 -0.1924  0.0140  0.2200
  761MOL0     C 2667  10.575   4.565   9.046 -0.7994  0.4577  0.4549
  761MOL0     H 2668  10.628   4.239   8.871 -0.6110  1.6664 -2.1538
  761MOL0     H 2669  10.738   4.032   8.813  0.2872 -0.1770  0.6351
  761MOL0     H 2670  11.060   4.016   8.825  0.2562  0.8494 -1.0530
  761MOL0     H 2671  10.916   3.905   8.813  1.5225 -0.1392  2.1254
  761MOL0     H 2672  11.180   3.868   8.674 -0.2148 -0.2729 -0.8818
  761MOL0     H 2673  11.025   3.775   8.658  0.5657  0.8882 -1.1406
  761MOL0     H 2674  11.029   3.718   8.899 -0.8718  2.7053  0.8754
  761MOL0     H 2675  11.149   3.839   8.926  1.3869  0.1461 -1.5460
  761MOL0     H 2676  11.196   3.567   8.797  1.3794 -1.7211  1.4316
  761MOL0     H 2677  11.317   3.710   8.794  0.3279  3.9326  2.2395
  761MOL0     H 2678  11.350   3.717   9.008 -2.7149  1.2519  3.2929
  761MOL0     H 2679  11.209   3.614   9.051 -2.7096 -2.1017 -3.3213
  761MOL0     H 2680  11.417   3.476   9.079  1.4591  1.9691  1.1727
  761MOL0     H 2681  11.331   3.425   8.929 -2.5078  0.0983  1.1334
  761MOL0     H 2682  11.558   3.631   8.965  1.1759 -0.8022 -0.4941
  761MOL0     H 2683  11.493   3.595   8.804 -1.1172 -3.4256 -1.8757
  761MOL0     H 2684  11.605   3.355   8.969 -1.3405 -2.1669 -0.9228
  761MOL0     H 2685  11.562   3.373   8.797  1.1461 -0.1026 -0.4774
  761MOL0     H 2686  11.766   3.600   8.684  1.7157  0.4143  0.3335
  761MOL0     H 2687  11.998   3.706   8.725  0.8758  0.7254  2.8646
  761MOL0     H 2688  12.114   3.594   8.791  0.6398  3.1228 -1.0644
  761MOL0     H 2689  12.107   3.451   8.608 -0.7635  1.3704  1.8077
  761MOL0     H 2690  11.981   3.551   8.526 -0.5934 -1.9270 -0.5082
  761MOL0     H 2691  12.260   3.643   8.595 -0.7458  3.0493  1.1586
  761MOL0     H 2692  12.126   3.736   8.517  0.4871  0.8822 -0.9811
  761MOL0     H 2693  12.135   3.569   8.319  0.1137 -0.4564 -0.3995
  761MOL0     H 2694  12.247   3.471   8.410 -1.1421  0.0573  0.7249
  761MOL0     H 2695  12.517   3.798   8.362  0.4263  0.4595 -0.0865
  761MOL0     H 2696  12.531   4.049   8.306 -0.6810  2.6058 -4.2536
  761MOL0     H 2697  12.317   4.433   8.029 -0.6664 -1.1262  1.3430
  761MOL0     H 2698  12.393   4.675   7.987  1.2670  1.7281  0.3402
  761MOL0     H 2699  12.552   4.854   8.214 -0.2970 -0.4434  0.1324
  761MOL0     H 2700  12.723   4.805   8.217  1.2569  2.4103 -0.0535
  761MOL0     H 2701  12.733   4.973   8.001  2.1098  0.3221  0.2627
  761MOL0     H 2702  12.579   5.029   8.081 -0.2578 -0.8019 -2.2787
  761MOL0     H 2703  12.863   5.022   8.202 -0.0367  1.7231 -0.0078
  761MOL0     H 2704  12.775   5.158   8.143  0.1079 -1.3016 -3.2714
  761MOL0     H 2705  12.689   4.975   8.375 -1.1475  1.0124  0.0838
  761MOL0     H 2706  12.598   5.114   8.319 -1.3479 -2.5029 -2.3361
  761MOL0     H 2707  12.740   5.162   8.536  0.8675  3.7440  1.3706
  761MOL0     H 2708  12.754   5.271   8.405 -0.0630 -0.2053  2.6483
  761MOL0     H 2709  12.983   5.174   8.341  2.9283  1.2322  1.8277
  761MOL0     H 2710  12.974   5.214   8.507  3.7952 -1.2249 -1.0874
  761MOL0     H 2711  13.072   4.969   8.419 -0.4403  0.3882 -0.5205
  761MOL0     H 2712  12.902   4.928   8.430  2.5403 -2.6080  1.0985
  761MOL0     H 2713  12.918   5.023   8.666 -0.9667 -5.7075  2.0938
  761MOL0     H 2714  12.995   4.875   8.631  0.7136  0.2617  0.8991
  761MOL0     H 2715  12.783   4.546   8.134 -0.0337 -0.8565  1.6289
  761MOL0     H 2716  12.702   4.329   8.162 -1.1873 -1.0510  1.4917
  761MOL0     H 2717  12.127   4.021   8.183 -0.2092 -1.5172 -0.7605
  761MOL0     H 2718  12.112   3.793   8.214  0.7257  0.0924 -1.1234
  761MOL0     H 2719  10.975   4.225   8.521 -0.5367  0.9132 -0.7978
  761MOL0     H 2720  10.860   4.456   8.587  1.7458  0.8994  2.5092
  761MOL0     H 2721  10.568   4.828   8.653 -2.7219 -0.3691  0.1486
  761MOL0     H 2722  10.475   5.016   8.758  0.9848  0.6302  1.0830
  761MOL0     H 2723  10.384   5.163   8.896 -0.7635  1.6144 -0.8035
  761MOL0     H 2724  10.297   5.183   9.050 -0.2612  2.8908 -3.0826
  761MOL0     H 2725  10.112   5.034   8.978  0.5693  0.5973 -0.3375
  761MOL0     H 2726  10.190   4.996   8.831 -0.6870 -1.0755  0.8835
  761MOL0     H 2727  10.041   5.145   8.771 -1.1773 -3.2171  2.2738
  761MOL0     H 2728  10.183   5.252   8.788 -0.6719 -0.0603 -1.0046
  761MOL0     H 2729   9.949   5.218   8.985 -2.9279  4.0128 -3.3495
  761MOL0     H 2730  10.108   5.278   9.033  0.5319 -0.0584  0.4460
  761MOL0     H 2731   9.875   5.560   8.788  1.3784  2.3221  1.6467
  761MOL0     H 2732  10.465   4.774   9.119  2.1819 -0.7719  1.3077
  761MOL0     H 2733  10.518   4.570   9.139 -0.7988 -1.3285  0.5954
  761MOL0     H 2734  10.551   4.470   8.997 -0.2442  0.1882  0.6824
  761MOL0     H 2735  10.675   4.545   9.087 -1.4722 -0.0554  1.9148
  762MOL0     O 2736   4.895  11.445   3.775 -0.1842 -0.3617 -0.3175
  762MOL0     C 2737   4.928  11.337   3.734  0.1407 -0.4914 -1.4543
  762MOL0     O 2738   4.985  11.239   3.807  0.4726  0.6970 -0.3833
  762MOL0     C 2739   5.016  11.276   3.940  0.1011  0.8703  0.6617
  762MOL0     C 2740   5.120  11.368   3.975  0.8318  0.7810  1.0362
  762MOL0     C 2741   5.146  11.390   4.109  0.6690 -0.5162  0.1183
  762MOL0     C 2742   5.079  11.329   4.219  0.3891 -0.1481 -0.1773
  762MOL0     O 2743   5.112  11.374   4.344 -0.0209 -0.3133  0.0478
  762MOL0     C 2744   5.048  11.311   4.465 -0.5218  0.2255  0.2257
  762MOL0     C 2745   5.103  11.378   4.590  0.6080 -0.1689  0.1056
  762MOL0     C 2746   5.036  11.305   4.705 -1.0050 -0.6755  0.0928
  762MOL0     C 2747   5.125  11.178   4.745  0.6291 -0.4301 -0.3168
  762MOL0     C 2748   5.077  11.107   4.868  0.6916 -0.1812 -0.5426
  762MOL0     C 2749   4.933  11.077   4.870  0.2375  0.3537 -0.2118
  762MOL0     C 2750   4.898  10.978   4.757 -0.5962 -0.0239 -0.0514
  762MOL0     C 2751   4.745  10.953   4.760 -0.2155  0.1651  0.4569
  762MOL0     N 2752   4.698  10.862   4.655  0.4809  0.3190  0.4127
  762MOL0     C 2753   4.725  10.870   4.525 -0.4203 -0.2900 -0.1716
  762MOL0     C 2754   4.691  10.744   4.478 -0.5723  0.3491 -0.1729
  762MOL0     C 2755   4.682  10.690   4.340 -0.5767  0.3903  0.5494
  762MOL0     C 2756   4.643  10.796   4.225 -0.1831  0.1433 -0.3499
  762MOL0     C 2757   4.631  10.723   4.084 -0.7106 -0.0423 -0.7293
  762MOL0     C 2758   4.589  10.830   3.980 -0.8207  0.3195 -0.2685
  762MOL0     O 2759   4.604  10.796   3.838 -0.3450 -0.1180  1.1731
  762MOL0     C 2760   4.735  10.801   3.788  0.0701 -0.2432  0.0543
  762MOL0     C 2761   4.752  10.777   3.653  0.0709  0.6353 -0.6306
  762MOL0     C 2762   4.875  10.785   3.598  0.5414 -0.5273  0.4932
  762MOL0     C 2763   4.986  10.820   3.675 -0.0139 -0.1569  0.1160
  762MOL0     C 2764   5.111  10.836   3.603  0.3244  0.2437  0.1803
  762MOL0     O 2765   5.217  10.892   3.680 -0.0465  0.2195  0.9166
  762MOL0     C 2766   5.330  10.912   3.603  0.4045  0.0968 -0.8909
  762MOL0     C 2767   5.364  11.029   3.538  0.0708  1.1090  0.0592
  762MOL0     C 2768   5.476  11.033   3.456 -0.6424 -0.3230  0.1043
  762MOL0     C 2769   5.576  10.931   3.460 -0.0428  1.1231  0.5391
  762MOL0     O 2770   5.698  10.936   3.395  0.2725  0.7357  0.5101
  762MOL0     C 2771   5.740  11.070   3.356  0.1189  0.0243  0.3117
  762MOL0     C 2772   5.886  11.048   3.319 -0.1504 -0.1769  0.2335
  762MOL0     C 2773   5.954  11.165   3.245  0.3368 -0.9769  0.1520
  762MOL0     C 2774   5.893  11.242   3.126 -0.1047  0.2767 -0.3932
  762MOL0     C 2775   5.853  11.143   3.028 -0.1947 -0.5402  0.4298
  762MOL0     C 2776   5.779  11.197   2.906 -1.1865  0.0352 -0.3979
  762MOL0     C 2777   5.717  11.092   2.831  0.9272  0.3269  0.0561
  762MOL0     C 2778   5.632  11.161   2.712 -0.9758  0.4276 -0.3587
  762MOL0    Cl 2779   5.497  11.246   2.783  0.2338 -0.4388  0.2244
  762MOL0     C 2780   5.549  10.826   3.547  0.9458  0.1481 -0.1394
  762MOL0     C 2781   5.432  10.817   3.620  0.3694  0.7278  0.1178
  762MOL0     O 2782   5.110  10.816   3.483  0.2972 -0.1218  0.1310
  762MOL0     C 2783   4.976  10.852   3.810 -1.1441  0.3062 -0.3111
  762MOL0     C 2784   4.847  10.842   3.871 -0.2038  0.3085  0.0611
  762MOL0     N 2785   4.636  10.672   4.581 -0.2081 -0.1219 -0.5004
  762MOL0     N 2786   4.636  10.750   4.685  0.6920  0.9368  0.2660
  762MOL0     C 2787   4.987  11.226   4.176 -0.5582 -0.1196  1.1251
  762MOL0     C 2788   4.953  11.212   4.043 -0.5957  0.0862 -0.5340
  762MOL0     C 2789   4.922  11.294   3.589 -0.0662  0.0254 -0.6221
  762MOL0     C 2790   4.952  11.156   3.556  0.0720 -0.1757 -0.2948
  762MOL0     C 2791   4.984  11.125   3.422  0.1382  0.2873 -0.4970
  762MOL0     C 2792   4.991  11.221   3.323  0.4402 -0.1474  0.6363
  762MOL0     O 2793   5.030  11.193   3.189  0.1602 -0.1300 -0.3831
  762MOL0     C 2794   5.144  11.119   3.164 -0.6644  1.0745  0.2375
  762MOL0     C 2795   5.197  11.166   3.032  0.2487  0.0902 -0.5531
  762MOL0     C 2796   5.091  11.139   2.922 -0.0281  0.0748 -0.7388
  762MOL0     C 2797   5.130  11.233   2.807  0.3101  0.1957 -0.9247
  762MOL0     C 2798   5.019  11.242   2.701  0.6809 -0.3224 -0.7059
  762MOL0     C 2799   4.932  11.272   2.625 -0.3904  0.0227 -0.5395
  762MOL0     C 2800   4.951  11.348   3.353  0.4682  0.6469 -0.2898
  762MOL0     C 2801   4.900  11.384   3.481  0.0942 -0.6713 -0.0825
  762MOL0     C 2802   4.866  11.536   3.499 -0.0968 -0.2927  0.2853
  762MOL0     H 2803   5.173  11.416   3.893 -0.3877  0.0756 -0.2147
  762MOL0     H 2804   5.216  11.465   4.144 -0.0234  0.4963 -0.5910
  762MOL0     H 2805   4.940  11.326   4.451  0.2018  2.9175 -4.5166
  762MOL0     H 2806   5.072  11.205   4.456  1.8334  0.6150  1.3048
  762MOL0     H 2807   5.070  11.483   4.598  0.0145 -0.3863  0.6311
  762MOL0     H 2808   5.212  11.377   4.587  0.5949 -1.7029 -1.0983
  762MOL0     H 2809   4.939  11.268   4.673 -0.3245 -0.1063 -2.9337
  762MOL0     H 2810   5.051  11.375   4.788  1.7906  1.9670 -2.3641
  762MOL0     H 2811   5.115  11.118   4.654 -1.4673 -0.9425  0.2038
  762MOL0     H 2812   5.231  11.194   4.767  0.6832  0.7083 -1.2953
  762MOL0     H 2813   5.138  11.018   4.886  0.4853 -0.0967  0.6080
  762MOL0     H 2814   5.100  11.174   4.951  0.9034 -1.8361  0.7846
  762MOL0     H 2815   4.921  11.027   4.967 -1.6089  2.4275  0.7134
  762MOL0     H 2816   4.878  11.172   4.865 -0.0106  0.1799 -0.8914
  762MOL0     H 2817   4.956  10.885   4.765 -0.8177 -0.0259  1.9200
  762MOL0     H 2818   4.923  11.021   4.659  0.0025 -2.7415 -1.1855
  762MOL0     H 2819   4.716  10.904   4.854 -0.6253 -0.2292  0.1309
  762MOL0     H 2820   4.687  11.045   4.745  0.0190  0.6568  2.3056
  762MOL0     H 2821   4.767  10.955   4.473  1.1103  1.5285  3.6701
  762MOL0     H 2822   4.785  10.656   4.324 -0.5990  1.3899 -2.4417
  762MOL0     H 2823   4.616  10.604   4.324  0.9648 -0.6863 -0.2866
  762MOL0     H 2824   4.550  10.842   4.260 -0.1010 -0.2695  0.4326
  762MOL0     H 2825   4.718  10.875   4.213 -1.1834  1.3674  0.9621
  762MOL0     H 2826   4.545  10.656   4.089 -0.7177  0.0614  1.9358
  762MOL0     H 2827   4.722  10.668   4.057 -0.4120 -0.7864  1.5167
  762MOL0     H 2828   4.654  10.914   4.003  0.4363 -1.3937  3.1318
  762MOL0     H 2829   4.481  10.843   3.992 -0.6294  2.0767 -0.2323
  762MOL0     H 2830   4.672  10.751   3.584  0.4625 -0.8112 -0.5701
  762MOL0     H 2831   4.874  10.760   3.493 -1.7304 -0.4237  0.4323
  762MOL0     H 2832   5.287  11.106   3.536 -0.3105  0.7332  0.0221
  762MOL0     H 2833   5.479  11.119   3.390 -2.1670  0.7139  1.3046
  762MOL0     H 2834   5.678  11.107   3.275  2.8676  2.1250 -0.9968
  762MOL0     H 2835   5.735  11.148   3.433  1.2453 -0.4080  0.8587
  762MOL0     H 2836   5.944  11.027   3.409 -0.6147 -2.9751 -0.0301
  762MOL0     H 2837   5.896  10.957   3.260 -0.4219 -0.2027  0.2251
  762MOL0     H 2838   5.969  11.241   3.321 -1.7331 -0.6266  0.2420
  762MOL0     H 2839   6.055  11.137   3.213  0.6122 -0.0784  0.2221
  762MOL0     H 2840   5.970  11.307   3.082  1.8239 -1.3258  0.4446
  762MOL0     H 2841   5.811  11.296   3.174 -0.7804  0.4423 -1.6773
  762MOL0     H 2842   5.781  11.077   3.077 -1.3289 -0.4441 -1.0296
  762MOL0     H 2843   5.939  11.085   2.996  2.2608  3.0974 -0.2108
  762MOL0     H 2844   5.707  11.271   2.941  1.2503  2.1560  0.3634
  762MOL0     H 2845   5.847  11.252   2.841  0.0695 -0.2315  0.6428
  762MOL0     H 2846   5.641  11.043   2.891  1.6345 -2.4484 -1.1782
  762MOL0     H 2847   5.798  11.027   2.797  1.3810  0.7709  0.2621
  762MOL0     H 2848   5.698  11.232   2.662  1.3859  0.8710  3.0215
  762MOL0     H 2849   5.606  11.097   2.627  0.1714  1.3530 -1.4432
  762MOL0     H 2850   5.629  10.754   3.556  0.7235 -0.1060 -0.2032
  762MOL0     H 2851   5.414  10.733   3.687 -1.2555 -0.4230 -1.6761
  762MOL0     H 2852   5.059  10.893   3.867 -1.4003  3.1684 -1.8170
  762MOL0     H 2853   4.854  10.873   3.975  3.6268  2.3116 -0.6014
  762MOL0     H 2854   4.928  11.190   4.259 -1.1776  0.2940  0.8667
  762MOL0     H 2855   4.876  11.142   4.012 -3.1562  2.4232  0.1507
  762MOL0     H 2856   4.961  11.081   3.635  2.4911 -1.5534 -1.7426
  762MOL0     H 2857   5.000  11.022   3.393 -1.0344  0.2120 -0.9375
  762MOL0     H 2858   5.116  11.013   3.166  2.1842  0.2620  1.6749
  762MOL0     H 2859   5.232  11.131   3.228  0.5696 -0.1677 -1.1390
  762MOL0     H 2860   5.290  11.115   3.007  0.2726 -0.0797 -0.1205
  762MOL0     H 2861   5.199  11.275   3.034 -0.1365  0.0918  0.5588
  762MOL0     H 2862   4.987  11.156   2.952  0.3730  0.2766  0.6221
  762MOL0     H 2863   5.091  11.034   2.890  2.7513 -0.6309  1.1494
  762MOL0     H 2864   5.170  11.330   2.837  0.6521 -0.2086 -0.0482
  762MOL0     H 2865   5.214  11.179   2.762  1.0969 -1.0805  1.8972
  762MOL0     H 2866   4.852  11.311   2.566 -1.3850  1.2087  1.4809
  762MOL0     H 2867   4.958  11.431   3.283  1.9039  0.7901 -0.0064
  762MOL0     H 2868   4.860  11.586   3.402  0.1391 -1.5655 -0.4052
  762MOL0     H 2869   4.768  11.554   3.544 -0.3423 -0.0899 -0.3224
  762MOL0     H 2870   4.946  11.578   3.562 -0.8809 -0.7095  1.6071
  763MOL0     O 2871   8.634   7.158  10.471 -0.0903 -0.1262 -0.0893
  763MOL0     C 2872   8.543   7.236  10.503  0.1226 -0.3292  0.2540
  763MOL0     O 2873   8.414   7.208  10.523 -0.0687 -0.4027  0.4966
  763MOL0     C 2874   8.372   7.080  10.557 -0.8079 -0.1969  0.2968
  763MOL0     C 2875   8.241   7.055  10.534  0.0369 -0.4271  0.7120
  763MOL0     C 2876   8.178   6.930  10.552  0.1582  0.0135 -0.3946
  763MOL0     C 2877   8.262   6.823  10.598 -0.2616  1.9791  1.1304
  763MOL0     O 2878   8.215   6.692  10.604  0.7962 -0.4956 -0.7441
  763MOL0     C 2879   8.078   6.659  10.578  0.6368 -0.0049  0.4669
  763MOL0     C 2880   8.044   6.514  10.617 -0.0443 -0.3767 -0.2917
  763MOL0     C 2881   8.113   6.426  10.517  0.0125  0.4330 -0.6505
  763MOL0     C 2882   8.113   6.278  10.560  0.4413  0.6081 -0.5451
  763MOL0     C 2883   8.182   6.165  10.471  0.3150  0.0597  0.5486
  763MOL0     C 2884   8.330   6.186  10.460  0.1009  0.3615  0.4368
  763MOL0     C 2885   8.389   6.082  10.363 -0.0858 -0.3422 -0.5529
  763MOL0     C 2886   8.546   6.083  10.358  0.2372  1.6088  0.0098
  763MOL0     N 2887   8.612   6.208  10.374  0.2788 -0.8264 -0.6373
  763MOL0     C 2888   8.593   6.316  10.295 -0.0412 -0.8744  0.1649
  763MOL0     C 2889   8.658   6.418  10.362  0.2401  0.3297  0.3539
  763MOL0     C 2890   8.660   6.572  10.341 -1.0956 -0.0391  0.6335
  763MOL0     C 2891   8.547   6.622  10.235 -0.1527  0.7629 -0.2140
  763MOL0     C 2892   8.543   6.774  10.240  0.3330 -0.0663  0.4983
  763MOL0     C 2893   8.468   6.831  10.118 -0.0172  0.8020 -0.6616
  763MOL0     O 2894   8.526   6.805   9.988 -0.4580 -0.5784  0.2071
  763MOL0     C 2895   8.573   6.914   9.927 -0.3344 -1.6212  0.0292
  763MOL0     C 2896   8.497   7.013   9.849  0.7156 -0.7775  0.1823
  763MOL0     C 2897   8.566   7.115   9.776  0.7601 -0.6449 -0.1676
  763MOL0     C 2898   8.711   7.122   9.771  0.0432 -0.4221  0.2185
  763MOL0     C 2899   8.786   7.220   9.693 -0.0763  0.6334  0.2038
  763MOL0     O 2900   8.897   7.277   9.747 -0.0729  0.1784  0.0261
  763MOL0     C 2901   8.949   7.396   9.701 -0.1883 -0.3404  0.3284
  763MOL0     C 2902   8.851   7.495   9.655 -0.8447  0.2323  0.1650
  763MOL0     C 2903   8.901   7.623   9.610 -0.5786  0.3637  0.2477
  763MOL0     C 2904   9.040   7.657   9.617  0.1522  1.0195 -0.2862
  763MOL0     O 2905   9.111   7.765   9.576 -0.0960  0.0578 -0.0219
  763MOL0     C 2906   9.028   7.877   9.544 -0.7518  0.6048 -0.3765
  763MOL0     C 2907   9.126   7.990   9.576  0.2282 -0.8575 -0.4576
  763MOL0     C 2908   9.156   8.009   9.729  0.0176 -0.0094  0.1536
  763MOL0     C 2909   9.259   8.117   9.755  0.1611 -0.0540  0.1571
  763MOL0     C 2910   9.304   8.125   9.900  0.2408  0.3832 -0.7223
  763MOL0     C 2911   9.238   8.252   9.974 -0.0625  0.5469 -0.2136
  763MOL0     C 2912   9.098   8.209  10.021  0.6601  0.1364  0.4450
  763MOL0     C 2913   9.024   8.313  10.093 -0.6985  0.1822 -0.0977
  763MOL0    Cl 2914   8.850   8.274  10.120  0.2583  0.5948  0.1664
  763MOL0     C 2915   9.129   7.562   9.671  0.3381  0.5393 -1.1123
  763MOL0     C 2916   9.083   7.433   9.718  0.9954 -0.9142 -0.4526
  763MOL0     O 2917   8.749   7.231   9.575 -0.1695  0.6560 -0.1177
  763MOL0     C 2918   8.779   7.018   9.838  0.1903 -0.3025  0.0508
  763MOL0     C 2919   8.711   6.916   9.910  0.3656  1.1227  0.6031
  763MOL0     N 2920   8.732   6.361  10.468  0.1030  0.2825  0.0406
  763MOL0     N 2921   8.704   6.242  10.467  0.3457  0.1764 -0.3262
  763MOL0     C 2922   8.400   6.845  10.623 -0.2221 -0.4612 -1.0535
  763MOL0     C 2923   8.457   6.974  10.608  0.0307 -0.5801  0.2477
  763MOL0     C 2924   8.565   7.381  10.504 -0.4876 -0.5729 -0.5330
  763MOL0     C 2925   8.462   7.467  10.460  0.2534  0.7533 -1.0310
  763MOL0     C 2926   8.468   7.603  10.467  0.6916 -0.5391 -0.3585
  763MOL0     C 2927   8.582   7.660  10.514 -0.4902 -0.1734 -0.6684
  763MOL0     O 2928   8.598   7.798  10.509  0.5907 -0.3937 -0.5200
  763MOL0     C 2929   8.666   7.871  10.605  0.3847 -0.2931  0.4605
  763MOL0     C 2930   8.813   7.894  10.564 -0.6867  0.6226  0.1021
  763MOL0     C 2931   8.842   7.934  10.415 -0.1461 -1.5205  0.6876
  763MOL0     C 2932   8.743   8.024  10.347  1.3825 -0.6161  0.3867
  763MOL0     C 2933   8.674   7.958  10.239  0.5857  0.4156 -0.1379
  763MOL0     C 2934   8.603   7.899  10.153 -0.9715  0.0875  0.4503
  763MOL0     C 2935   8.679   7.577  10.575 -0.0016  0.0075  1.0643
  763MOL0     C 2936   8.671   7.437  10.572 -0.8416 -0.1998 -1.2706
  763MOL0     C 2937   8.786   7.358  10.636 -0.2649  0.5687  0.1783
  763MOL0     H 2938   8.186   7.140  10.496  0.0790  0.1079  1.8147
  763MOL0     H 2939   8.074   6.911  10.529 -0.6100  0.0346  2.6281
  763MOL0     H 2940   8.018   6.734  10.631  0.5649  1.8227 -2.0375
  763MOL0     H 2941   8.056   6.681  10.473 -2.7933  4.7016  1.8317
  763MOL0     H 2942   7.937   6.495  10.605 -0.3600  1.6215 -1.0308
  763MOL0     H 2943   8.084   6.480  10.713 -3.9358 -2.4761  0.8415
  763MOL0     H 2944   8.217   6.457  10.502 -0.5849  2.8479 -0.2411
  763MOL0     H 2945   8.070   6.451  10.419  1.3104 -1.9355 -1.9220
  763MOL0     H 2946   8.158   6.262  10.658  1.5874 -2.5234 -1.4459
  763MOL0     H 2947   8.011   6.238  10.569 -0.2603  2.2844 -0.8140
  763MOL0     H 2948   8.164   6.070  10.521  0.6482 -0.4045 -0.1920
  763MOL0     H 2949   8.129   6.170  10.375 -1.1915  1.2241  1.4007
  763MOL0     H 2950   8.346   6.290  10.430 -3.0962  0.8997  0.2067
  763MOL0     H 2951   8.373   6.173  10.559  1.3062 -0.4377 -0.1644
  763MOL0     H 2952   8.350   6.108  10.264  2.5081 -0.4514 -1.6891
  763MOL0     H 2953   8.348   5.985  10.390  0.9026 -1.6230 -3.1855
  763MOL0     H 2954   8.585   6.004  10.422 -0.8159 -1.0382 -2.4144
  763MOL0     H 2955   8.570   6.039  10.260 -1.5658  1.2100 -0.3036
  763MOL0     H 2956   8.538   6.329  10.202  0.3227 -2.1881 -0.2510
  763MOL0     H 2957   8.638   6.614  10.440 -0.9226 -1.9759  1.5499
  763MOL0     H 2958   8.760   6.598  10.304 -0.5884 -1.4760  0.9062
  763MOL0     H 2959   8.583   6.592  10.136 -4.6726 -0.7470 -1.6429
  763MOL0     H 2960   8.455   6.573  10.269 -0.1409  0.0839 -1.1174
  763MOL0     H 2961   8.644   6.814  10.236  0.4864 -0.1406  2.6069
  763MOL0     H 2962   8.507   6.809  10.338 -0.1057  3.6274 -0.8056
  763MOL0     H 2963   8.453   6.939  10.134 -1.5211  0.4440  0.5852
  763MOL0     H 2964   8.373   6.777  10.118 -1.9837  3.9752 -0.0673
  763MOL0     H 2965   8.392   6.996   9.831  0.7198 -0.4177 -0.1980
  763MOL0     H 2966   8.524   7.194   9.716  1.4379 -2.4362 -3.2259
  763MOL0     H 2967   8.745   7.469   9.648 -0.4975 -1.3155  0.2927
  763MOL0     H 2968   8.833   7.674   9.542 -0.1373 -0.1200 -0.5819
  763MOL0     H 2969   9.002   7.869   9.438  0.5745 -3.6803 -0.5704
  763MOL0     H 2970   8.936   7.891   9.601  0.0056 -0.5621  1.1960
  763MOL0     H 2971   9.215   7.967   9.517 -0.2474  2.1212 -2.5004
  763MOL0     H 2972   9.078   8.079   9.537 -0.5614 -0.9642  0.2448
  763MOL0     H 2973   9.059   8.039   9.770 -0.2140  0.0921 -0.4584
  763MOL0     H 2974   9.175   7.908   9.769 -3.2734 -0.8845 -0.1815
  763MOL0     H 2975   9.223   8.218   9.732 -1.2533  0.5080  3.9758
  763MOL0     H 2976   9.347   8.092   9.696  1.5256  3.1522  0.6476
  763MOL0     H 2977   9.411   8.145   9.888  0.9002 -1.8925  0.8184
  763MOL0     H 2978   9.292   8.029   9.952  0.2669 -0.4208 -2.1372
  763MOL0     H 2979   9.299   8.273  10.062 -1.7838  0.3858  1.0719
  763MOL0     H 2980   9.226   8.346   9.919 -3.5557  1.1738  1.3014
  763MOL0     H 2981   9.101   8.116  10.079  0.7434  1.5310  2.8260
  763MOL0     H 2982   9.045   8.196   9.927  0.1879 -1.7599  0.9417
  763MOL0     H 2983   9.072   8.336  10.188 -0.4620 -0.8224  0.0424
  763MOL0     H 2984   9.012   8.402  10.031  0.9844  0.2007 -0.4355
  763MOL0     H 2985   9.235   7.585   9.664  0.2658  1.2551  0.0170
  763MOL0     H 2986   9.153   7.366   9.767 -0.2310 -3.6761 -2.2035
  763MOL0     H 2987   8.887   7.008   9.842  0.1419 -0.2888  2.8423
  763MOL0     H 2988   8.759   6.830   9.957 -1.4022 -0.1244  0.2471
  763MOL0     H 2989   8.469   6.769  10.661 -1.3863 -2.0571 -2.0037
  763MOL0     H 2990   8.561   7.002  10.621  0.3144 -0.8693 -1.2714
  763MOL0     H 2991   8.371   7.427  10.416 -1.6321 -0.2767  3.3213
  763MOL0     H 2992   8.388   7.665  10.428 -0.3633  1.1973  3.9307
  763MOL0     H 2993   8.675   7.827  10.705  0.2711 -3.4762 -0.8215
  763MOL0     H 2994   8.626   7.972  10.617 -0.8716 -0.3132 -2.6769
  763MOL0     H 2995   8.869   7.813  10.611 -1.8093 -0.0857  0.2522
  763MOL0     H 2996   8.848   7.985  10.613  2.1334  0.0485 -0.6067
  763MOL0     H 2997   8.856   7.841  10.358 -1.9633 -1.3672 -0.0639
  763MOL0     H 2998   8.931   7.998  10.412 -0.8443 -0.5523 -2.7440
  763MOL0     H 2999   8.669   8.059  10.420  1.4593  4.4738 -1.5247
  763MOL0     H 3000   8.789   8.119  10.319  2.3213 -0.4966  2.2338
  763MOL0     H 3001   8.564   7.822  10.090  1.5553 -1.1517  0.2754
  763MOL0     H 3002   8.766   7.638  10.598  0.4604  0.3989 -1.4619
  763MOL0     H 3003   8.829   7.303  10.552 -0.0331  1.1075 -0.0606
  763MOL0     H 3004   8.864   7.426  10.671 -0.1610  0.2746  0.5243
  763MOL0     H 3005   8.742   7.303  10.719 -1.7785  1.0258 -0.2902
  764MOL0     O 3006   1.301   2.579   9.214  0.0249  0.2451 -0.1479
  764MOL0     C 3007   1.340   2.498   9.296  0.5075 -0.0637 -0.6169
  764MOL0     O 3008   1.269   2.467   9.410  0.6736 -0.5065  0.0963
  764MOL0     C 3009   1.157   2.539   9.448 -0.5204 -0.1764 -0.1098
  764MOL0     C 3010   1.157   2.680   9.460 -0.2836  0.5802 -0.4532
  764MOL0     C 3011   1.034   2.743   9.485  0.0749  0.0669 -0.0820
  764MOL0     C 3012   0.921   2.668   9.534  0.2544  0.1266 -0.4621
  764MOL0     O 3013   0.817   2.728   9.583  0.4372 -0.6005  0.4407
  764MOL0     C 3014   0.721   2.760   9.480 -0.0718  0.8126  0.3585
  764MOL0     C 3015   0.747   2.892   9.402  0.0366  0.1306 -0.7395
  764MOL0     C 3016   0.747   3.005   9.503  0.1703  0.0672  0.6391
  764MOL0     C 3017   0.718   3.148   9.440 -0.1087  0.3169 -0.6827
  764MOL0     C 3018   0.700   3.254   9.548  0.4028 -0.2488 -0.3983
  764MOL0     C 3019   0.718   3.388   9.480 -0.1528  1.4080  0.3988
  764MOL0     C 3020   0.743   3.502   9.576 -0.5537  0.2948  0.4002
  764MOL0     C 3021   0.743   3.628   9.491 -0.1771  0.7857  0.9811
  764MOL0     N 3022   0.700   3.738   9.570  0.3596  0.2934  0.1279
  764MOL0     C 3023   0.773   3.829   9.647  0.0103 -0.4871  0.2482
  764MOL0     C 3024   0.704   3.941   9.672 -0.2758 -0.0686 -0.6515
  764MOL0     C 3025   0.749   4.066   9.737 -0.3633 -0.6551 -0.8948
  764MOL0     C 3026   0.773   4.176   9.632 -0.2074 -0.5449  0.4651
  764MOL0     C 3027   0.796   4.310   9.707 -0.0389 -0.3337 -0.4567
  764MOL0     C 3028   0.834   4.419   9.598 -0.6244  0.2382 -0.7977
  764MOL0     O 3029   0.840   4.540   9.667 -1.2944 -0.7464  0.3682
  764MOL0     C 3030   0.898   4.649   9.605 -0.8645  0.1000 -0.4890
  764MOL0     C 3031   0.915   4.768   9.685  0.0872  0.0299  0.3983
  764MOL0     C 3032   0.943   4.894   9.628 -0.7139 -0.1677  0.0385
  764MOL0     C 3033   0.974   4.906   9.489 -0.3957  0.6934 -0.3361
  764MOL0     C 3034   0.995   5.037   9.425 -0.2364  0.8924  0.3288
  764MOL0     O 3035   1.048   5.041   9.296  0.8501 -0.1602 -0.0577
  764MOL0     C 3036   1.054   5.162   9.225 -0.0616  0.1909 -0.9563
  764MOL0     C 3037   1.168   5.171   9.144 -0.2940  0.3623 -0.4180
  764MOL0     C 3038   1.162   5.265   9.046 -0.7622 -0.3393 -0.7428
  764MOL0     C 3039   1.067   5.365   9.041 -0.2101  0.7500  0.8283
  764MOL0     O 3040   1.075   5.474   8.954  0.4028 -0.4793 -0.1096
  764MOL0     C 3041   1.138   5.449   8.828  0.2341  0.3250  0.8185
  764MOL0     C 3042   1.044   5.378   8.728  0.2963 -0.3355 -0.9553
  764MOL0     C 3043   0.896   5.423   8.719  0.0669 -0.4774  0.4186
  764MOL0     C 3044   0.850   5.405   8.569 -0.1291  0.2757 -0.0314
  764MOL0     C 3045   0.857   5.262   8.523 -1.2939  0.0444 -0.2394
  764MOL0     C 3046   0.787   5.248   8.380  0.7632  0.6044 -0.6970
  764MOL0     C 3047   0.635   5.280   8.369  1.2319  0.8978  0.3314
  764MOL0     C 3048   0.578   5.241   8.231 -0.2597 -0.2286  0.5493
  764MOL0    Cl 3049   0.415   5.311   8.231 -0.2003 -0.5122 -0.3298
  764MOL0     C 3050   0.970   5.366   9.137 -0.1615 -0.3003 -0.0337
  764MOL0     C 3051   0.956   5.260   9.232  0.3427 -0.5711  0.7597
  764MOL0     O 3052   0.998   5.131   9.506 -0.6194 -0.5982 -0.1944
  764MOL0     C 3053   0.988   4.780   9.416 -0.7810 -0.2690  0.1191
  764MOL0     C 3054   0.966   4.652   9.480  0.1600 -0.4468  1.3870
  764MOL0     N 3055   0.573   3.916   9.624  0.1131 -0.0633 -1.0901
  764MOL0     N 3056   0.577   3.796   9.569 -0.0367  0.5456 -0.3678
  764MOL0     C 3057   0.934   2.528   9.527  0.1223 -0.4175 -0.3106
  764MOL0     C 3058   1.043   2.470   9.476 -0.7872 -0.2416  1.2881
  764MOL0     C 3059   1.470   2.433   9.268  0.8282  0.1188  0.0959
  764MOL0     C 3060   1.578   2.518   9.231  0.9257 -0.2263 -0.5509
  764MOL0     C 3061   1.703   2.477   9.204  0.6103  0.2174 -0.2607
  764MOL0     C 3062   1.736   2.342   9.229  0.6397  0.2542 -0.3910
  764MOL0     O 3063   1.871   2.315   9.226  0.2962  0.7974  0.2109
  764MOL0     C 3064   1.914   2.188   9.290  0.0351  0.1285 -0.6100
  764MOL0     C 3065   1.915   2.191   9.439  0.0909 -0.8012 -0.1523
  764MOL0     C 3066   1.989   2.312   9.495  0.0462 -0.0480  0.1001
  764MOL0     C 3067   2.022   2.286   9.646 -0.5750 -0.0865  0.1438
  764MOL0     C 3068   1.909   2.310   9.736 -0.2164 -0.6317  1.4736
  764MOL0     C 3069   1.820   2.342   9.808  0.2660 -0.0415 -0.0903
  764MOL0     C 3070   1.631   2.255   9.264  0.0726 -0.3105 -0.1630
  764MOL0     C 3071   1.502   2.304   9.293 -0.5702  0.1906 -0.1283
  764MOL0     C 3072   1.407   2.195   9.344  0.3877  0.3347 -0.3313
  764MOL0     H 3073   1.244   2.743   9.447 -1.8798  3.2368  0.8790
  764MOL0     H 3074   1.023   2.851   9.478 -3.3706 -0.0728  1.1178
  764MOL0     H 3075   0.731   2.675   9.412  2.5526  0.1556  1.4696
  764MOL0     H 3076   0.627   2.754   9.535  0.5482  0.0568  1.3597
  764MOL0     H 3077   0.667   2.924   9.335 -2.3264 -0.0976  1.7991
  764MOL0     H 3078   0.845   2.889   9.352  1.6245 -1.7617  2.1343
  764MOL0     H 3079   0.847   3.004   9.549  0.8962 -3.6861 -0.6658
  764MOL0     H 3080   0.665   2.982   9.571 -1.2933  0.5255 -0.9216
  764MOL0     H 3081   0.804   3.170   9.375 -0.0955  1.2400 -0.3688
  764MOL0     H 3082   0.626   3.127   9.386 -0.0576 -1.6778 -0.0867
  764MOL0     H 3083   0.605   3.248   9.602  0.3999  2.8240  0.1238
  764MOL0     H 3084   0.783   3.235   9.616  0.0711  0.2828  0.1675
  764MOL0     H 3085   0.802   3.390   9.411 -2.4613 -0.1650 -2.7281
  764MOL0     H 3086   0.622   3.392   9.427 -1.5978  1.6002  2.8638
  764MOL0     H 3087   0.839   3.474   9.622 -1.3186 -3.6116 -0.0838
  764MOL0     H 3088   0.668   3.506   9.656 -3.1060 -1.3495 -1.7371
  764MOL0     H 3089   0.836   3.640   9.435 -2.2961  0.9739 -2.8638
  764MOL0     H 3090   0.676   3.617   9.405  1.4436 -0.7734 -0.1495
  764MOL0     H 3091   0.878   3.804   9.658  1.2162  0.9870 -5.0741
  764MOL0     H 3092   0.676   4.093   9.814  1.0793 -3.6136  1.7418
  764MOL0     H 3093   0.836   4.046   9.800 -0.8289 -2.2868 -0.6999
  764MOL0     H 3094   0.868   4.165   9.580 -0.6847 -1.3480 -0.2550
  764MOL0     H 3095   0.693   4.167   9.558 -0.9984 -3.3787  1.5326
  764MOL0     H 3096   0.870   4.293   9.786 -1.9208 -1.9387  1.0816
  764MOL0     H 3097   0.705   4.339   9.759  0.0450  3.1588 -1.9877
  764MOL0     H 3098   0.755   4.436   9.525 -2.9771  0.5710  1.6795
  764MOL0     H 3099   0.924   4.393   9.540 -0.3510 -3.2990  0.9538
  764MOL0     H 3100   0.877   4.752   9.785 -0.9578 -1.0923 -0.1522
  764MOL0     H 3101   0.929   4.987   9.682  2.2830 -0.3668  1.3316
  764MOL0     H 3102   1.250   5.100   9.138  0.2905  1.1038 -1.7878
  764MOL0     H 3103   1.242   5.261   8.973  0.4159 -0.8294  0.5387
  764MOL0     H 3104   1.163   5.547   8.788 -1.0082  1.5994  3.0070
  764MOL0     H 3105   1.233   5.396   8.837  1.2202  1.3840 -2.1364
  764MOL0     H 3106   1.091   5.386   8.629  0.6758 -2.1980 -0.9739
  764MOL0     H 3107   1.053   5.269   8.739  1.3267 -0.1100  0.7900
  764MOL0     H 3108   0.823   5.368   8.778 -0.6140 -0.9303 -0.8229
  764MOL0     H 3109   0.888   5.530   8.740  0.1879 -0.0010 -1.7534
  764MOL0     H 3110   0.899   5.476   8.501 -2.2109  1.9374  0.0890
  764MOL0     H 3111   0.745   5.436   8.577  0.1168  1.9362 -2.1879
  764MOL0     H 3112   0.815   5.186   8.590 -0.5428 -0.2952 -0.1457
  764MOL0     H 3113   0.956   5.216   8.513 -1.6410 -1.2840  1.7853
  764MOL0     H 3114   0.843   5.316   8.316  1.7664  3.4189  2.8591
  764MOL0     H 3115   0.799   5.144   8.347 -1.9931  0.7416 -2.4753
  764MOL0     H 3116   0.611   5.387   8.370 -5.7514 -0.1465  3.9221
  764MOL0     H 3117   0.580   5.238   8.453  0.3764  3.1082  0.9625
  764MOL0     H 3118   0.635   5.278   8.145 -0.8876 -0.1218  0.1717
  764MOL0     H 3119   0.575   5.133   8.215  1.1176 -0.1597 -0.3217
  764MOL0     H 3120   0.892   5.441   9.123  1.7892  1.7283 -0.5862
  764MOL0     H 3121   0.883   5.262   9.312  1.1523 -0.0861  1.5237
  764MOL0     H 3122   1.024   4.794   9.315  0.6797  1.5374  0.8342
  764MOL0     H 3123   0.979   4.561   9.422 -0.7892 -0.3604  1.0214
  764MOL0     H 3124   0.852   2.468   9.565 -1.3686  0.5662 -1.8348
  764MOL0     H 3125   1.052   2.362   9.468  3.0805  0.0408 -0.7787
  764MOL0     H 3126   1.556   2.624   9.218 -1.8696 -0.6689  0.0635
  764MOL0     H 3127   1.789   2.533   9.168  1.3059 -1.0909 -0.6940
  764MOL0     H 3128   2.011   2.153   9.254 -1.1175 -5.0671  0.5768
  764MOL0     H 3129   1.861   2.103   9.246 -2.0180  2.5084 -3.1674
  764MOL0     H 3130   1.954   2.093   9.469 -1.9304 -1.0617  1.9500
  764MOL0     H 3131   1.816   2.194   9.485  1.1826 -1.4095  2.4452
  764MOL0     H 3132   1.933   2.406   9.501  0.2924  0.1962 -1.0457
  764MOL0     H 3133   2.083   2.332   9.442 -1.2193  0.7175 -2.0010
  764MOL0     H 3134   2.054   2.184   9.672 -2.3238 -0.6927  0.0478
  764MOL0     H 3135   2.106   2.353   9.667  1.0689 -0.9137 -2.9831
  764MOL0     H 3136   1.737   2.375   9.868 -0.9887  0.9311 -2.2527
  764MOL0     H 3137   1.645   2.147   9.269  0.5466 -0.2202  0.5532
  764MOL0     H 3138   1.418   2.095   9.301 -2.6131 -1.4298  2.4801
  764MOL0     H 3139   1.419   2.185   9.452  0.1400 -2.5740 -0.4774
  764MOL0     H 3140   1.300   2.215   9.340  0.2540  0.6194  2.5941
  765MOL0     O 3141   0.307   0.487   4.714  0.8221  0.1684  0.0125
  765MOL0     C 3142   0.353   0.400   4.641  0.1545  0.5648  0.0130
  765MOL0     O 3143   0.479   0.350   4.645  0.0924  0.7600  0.0821
  765MOL0     C 3144   0.565   0.423   4.729  0.0733 -0.3719 -0.1990
  765MOL0     C 3145   0.617   0.547   4.696 -0.5080 -0.8225  0.4478
  765MOL0     C 3146   0.719   0.604   4.776  0.2806  0.3757 -0.4920
  765MOL0     C 3147   0.769   0.531   4.886 -0.2035  0.2605  0.0138
  765MOL0     O 3148   0.866   0.600   4.965  0.0008  0.3420  0.7413
  765MOL0     C 3149   0.841   0.607   5.111 -0.5574 -0.0553  0.3375
  765MOL0     C 3150   0.837   0.756   5.144 -0.4323  1.2827 -0.2308
  765MOL0     C 3151   0.715   0.824   5.077 -0.1283  0.9371  0.4302
  765MOL0     C 3152   0.717   0.966   5.123 -0.2418 -0.6953  0.5199
  765MOL0     C 3153   0.589   1.048   5.110  0.9131  1.0905  0.5718
  765MOL0     C 3154   0.496   1.006   4.990 -0.4016  1.7338  0.9813
  765MOL0     C 3155   0.360   1.071   5.006 -0.3025  0.0791 -0.1841
  765MOL0     C 3156   0.255   0.994   5.092  0.1979  0.2278  0.7053
  765MOL0     N 3157   0.136   1.076   5.116  0.1543 -0.0926 -0.0186
  765MOL0     C 3158   0.138   1.200   5.183 -0.6972 -0.0490  0.2149
  765MOL0     C 3159   0.003   1.226   5.197 -0.5840 -0.1537 -0.5181
  765MOL0     C 3160  -0.052   1.329   5.272  0.0016 -0.1443  0.1385
  765MOL0     C 3161  -0.098   1.439   5.179 -0.0629 -0.1661 -0.5032
  765MOL0     C 3162  -0.156   1.562   5.259  0.0508  0.5542 -0.0618
  765MOL0     C 3163  -0.215   1.670   5.162 -0.2686  0.4265  0.0993
  765MOL0     O 3164  -0.108   1.700   5.078 -0.8123 -0.4816  0.0616
  765MOL0     C 3165  -0.136   1.773   4.958  0.2471 -0.0812 -0.4803
  765MOL0     C 3166  -0.021   1.813   4.877  1.2703  0.7587 -1.8462
  765MOL0     C 3167  -0.049   1.862   4.749 -0.5624 -0.7672 -0.3136
  765MOL0     C 3168  -0.184   1.886   4.708 -0.7582  0.5314 -0.3128
  765MOL0     C 3169  -0.194   1.961   4.587  0.0998  0.8468  0.7381
  765MOL0     O 3170  -0.321   1.977   4.544 -0.6044  0.9838 -0.5208
  765MOL0     C 3171  -0.341   2.090   4.471  0.0312  0.5734 -0.6016
  765MOL0     C 3172  -0.410   2.068   4.354  0.8031 -0.5742  0.5973
  765MOL0     C 3173  -0.414   2.171   4.256  0.4707  0.3321 -0.4229
  765MOL0     C 3174  -0.374   2.295   4.289  0.2817  0.1565  0.0277
  765MOL0     O 3175  -0.388   2.397   4.200  0.0422  0.6722  0.2736
  765MOL0     C 3176  -0.424   2.529   4.246  0.1237 -0.2027  0.7807
  765MOL0     C 3177  -0.576   2.544   4.248 -0.5593  0.3746  0.0110
  765MOL0     C 3178  -0.653   2.492   4.368  1.3240  0.1723  0.6053
  765MOL0     C 3179  -0.784   2.578   4.386 -0.3558  0.0613 -0.6045
  765MOL0     C 3180  -0.889   2.506   4.465 -0.2580  0.4183  0.2177
  765MOL0     C 3181  -0.974   2.418   4.374 -0.3427  0.2721 -0.3804
  765MOL0     C 3182  -1.095   2.356   4.438 -0.1893 -1.0858  0.5619
  765MOL0     C 3183  -1.090   2.298   4.571 -0.8661  0.0317  0.4372
  765MOL0    Cl 3184  -1.235   2.198   4.610  0.2118  0.2569 -0.0000
  765MOL0     C 3185  -0.328   2.317   4.423 -0.8735  0.1057  0.3887
  765MOL0     C 3186  -0.299   2.213   4.510  1.4951  0.1522 -0.1084
  765MOL0     O 3187  -0.087   1.988   4.526  0.1389  0.5232  0.6530
  765MOL0     C 3188  -0.291   1.841   4.792 -0.2066 -0.5577 -0.6842
  765MOL0     C 3189  -0.267   1.797   4.914 -0.2661  0.9576 -0.7692
  765MOL0     N 3190  -0.066   1.122   5.139  0.8283 -0.2392  0.2151
  765MOL0     N 3191   0.012   1.029   5.088 -0.8299  0.0029  0.3160
  765MOL0     C 3192   0.718   0.409   4.924  0.3203 -0.2652  0.2229
  765MOL0     C 3193   0.615   0.357   4.839 -0.0440 -0.4210  0.3703
  765MOL0     C 3194   0.276   0.364   4.523 -1.1232  0.3946  0.3824
  765MOL0     C 3195   0.223   0.481   4.462  0.1050  0.3106  0.1115
  765MOL0     C 3196   0.129   0.461   4.353  1.0622  0.2123 -0.9651
  765MOL0     C 3197   0.107   0.329   4.308 -0.0524  1.4647 -0.8959
  765MOL0     O 3198   0.025   0.296   4.209 -0.2473 -0.6188  0.7737
  765MOL0     C 3199  -0.039   0.387   4.125 -0.7630  0.2620  0.5282
  765MOL0     C 3200  -0.149   0.315   4.059  0.5276  0.3319  0.8024
  765MOL0     C 3201  -0.280   0.300   4.147 -0.3450  0.4373 -0.1899
  765MOL0     C 3202  -0.382   0.215   4.064 -0.7042 -0.7590 -0.2500
  765MOL0     C 3203  -0.499   0.188   4.147 -0.0607  0.8534  0.1305
  765MOL0     C 3204  -0.588   0.181   4.229  1.4926  0.4971 -0.4596
  765MOL0     C 3205   0.171   0.218   4.375 -0.1014  0.2194  0.2816
  765MOL0     C 3206   0.252   0.232   4.494  0.4732 -0.2660 -0.0317
  765MOL0     C 3207   0.296   0.108   4.567  0.1802 -0.0005 -0.3870
  765MOL0     H 3208   0.574   0.606   4.616  2.2041 -1.8738 -1.9642
  765MOL0     H 3209   0.752   0.703   4.747  2.6216  0.7559  2.9069
  765MOL0     H 3210   0.745   0.560   5.133 -1.2672 -0.1832 -2.5946
  765MOL0     H 3211   0.923   0.565   5.170 -1.6556  0.3010  2.2148
  765MOL0     H 3212   0.932   0.807   5.125 -0.6435  1.1738 -1.6882
  765MOL0     H 3213   0.827   0.764   5.253  0.7258  4.6480 -0.2573
  765MOL0     H 3214   0.630   0.769   5.118  2.0187 -2.7902  0.3010
  765MOL0     H 3215   0.717   0.809   4.969  0.0036  0.0592  0.5469
  765MOL0     H 3216   0.753   0.971   5.225  1.1693 -0.2308  0.0141
  765MOL0     H 3217   0.788   1.019   5.059 -1.6507  2.1620  1.1669
  765MOL0     H 3218   0.533   1.027   5.202 -0.7035  0.8402 -0.4333
  765MOL0     H 3219   0.615   1.155   5.108 -0.9206  1.5594  0.7029
  765MOL0     H 3220   0.528   1.040   4.891 -0.1435 -0.5923  0.1989
  765MOL0     H 3221   0.499   0.896   4.989 -1.2331  1.6723 -1.5162
  765MOL0     H 3222   0.306   1.062   4.911 -0.5914  1.9156 -0.2211
  765MOL0     H 3223   0.369   1.176   5.034 -1.5975 -0.4328  2.4328
  765MOL0     H 3224   0.238   0.904   5.032  0.6533  0.7679 -0.2598
  765MOL0     H 3225   0.303   0.969   5.187  0.5289 -0.3213  0.3964
  765MOL0     H 3226   0.218   1.261   5.224 -1.2776  0.1833  1.0194
  765MOL0     H 3227  -0.138   1.290   5.329  1.5853 -1.3327  1.8624
  765MOL0     H 3228   0.024   1.365   5.342  0.1236 -5.5979  3.4069
  765MOL0     H 3229  -0.016   1.470   5.113  0.1203 -1.4478 -0.8958
  765MOL0     H 3230  -0.176   1.402   5.112 -0.9659  0.0023  0.4246
  765MOL0     H 3231  -0.073   1.607   5.314 -0.1002 -0.0975  0.7261
  765MOL0     H 3232  -0.237   1.522   5.322 -1.1590  0.6681 -1.4862
  765MOL0     H 3233  -0.257   1.761   5.206 -0.2512 -0.7323  2.7032
  765MOL0     H 3234  -0.290   1.621   5.099  1.0175  0.8735 -1.8650
  765MOL0     H 3235   0.082   1.796   4.906  1.4734  2.5697 -1.4152
  765MOL0     H 3236   0.037   1.884   4.686  0.8878  3.0115  2.5424
  765MOL0     H 3237  -0.457   1.971   4.343  2.6847 -1.8836  3.2643
  765MOL0     H 3238  -0.476   2.154   4.169  1.1814 -0.4934 -0.7851
  765MOL0     H 3239  -0.385   2.552   4.346  1.8555  2.2311 -0.3302
  765MOL0     H 3240  -0.369   2.600   4.182 -0.6003 -0.6541 -0.3699
  765MOL0     H 3241  -0.593   2.652   4.249  0.2888  0.5819  3.4162
  765MOL0     H 3242  -0.616   2.502   4.155 -1.3468 -0.3811  0.6738
  765MOL0     H 3243  -0.674   2.386   4.350 -4.4853  0.5883  2.8264
  765MOL0     H 3244  -0.593   2.505   4.459  1.9683  3.8967 -0.2059
  765MOL0     H 3245  -0.829   2.600   4.289 -2.4913  1.9042  0.7096
  765MOL0     H 3246  -0.757   2.672   4.434  3.9597 -2.7369  3.4515
  765MOL0     H 3247  -0.965   2.573   4.505 -1.2579  0.3918 -1.5400
  765MOL0     H 3248  -0.842   2.441   4.540  0.5837  0.5367 -0.1991
  765MOL0     H 3249  -1.004   2.487   4.295  0.9870  2.5935  1.0379
  765MOL0     H 3250  -0.907   2.339   4.339 -2.6321 -1.4468 -1.1362
  765MOL0     H 3251  -1.115   2.270   4.373  3.2369 -0.5271 -1.5245
  765MOL0     H 3252  -1.174   2.430   4.441 -1.2002 -2.1440  0.8151
  765MOL0     H 3253  -1.015   2.224   4.604 -3.1854 -1.2879  3.1926
  765MOL0     H 3254  -1.076   2.374   4.648 -2.4015 -0.4659  1.2527
  765MOL0     H 3255  -0.288   2.409   4.464 -1.5353  1.7830 -2.4838
  765MOL0     H 3256  -0.248   2.242   4.601  1.0614 -3.0703  1.3123
  765MOL0     H 3257  -0.394   1.844   4.759 -0.4457 -3.9318 -0.5791
  765MOL0     H 3258  -0.352   1.768   4.975 -1.4455  1.8095 -1.9510
  765MOL0     H 3259   0.773   0.353   4.998 -3.6329 -0.5443  3.3144
  765MOL0     H 3260   0.591   0.251   4.847  0.9251 -0.7877 -1.2193
  765MOL0     H 3261   0.248   0.580   4.500  1.6863 -1.0573  3.0417
  765MOL0     H 3262   0.078   0.550   4.318 -0.7610 -0.4854 -0.1832
  765MOL0     H 3263   0.030   0.424   4.048 -0.2533 -1.7304 -0.0310
  765MOL0     H 3264  -0.082   0.471   4.181  0.3776  1.7579 -0.7379
  765MOL0     H 3265  -0.107   0.217   4.034  1.5822  1.3122 -1.6044
  765MOL0     H 3266  -0.181   0.363   3.966 -2.3335  1.0737  2.0653
  765MOL0     H 3267  -0.326   0.398   4.166 -1.3102  0.2088 -1.2273
  765MOL0     H 3268  -0.251   0.247   4.238 -2.2470  0.9011  0.7415
  765MOL0     H 3269  -0.406   0.262   3.968  1.8054  0.6218 -0.2961
  765MOL0     H 3270  -0.336   0.118   4.043  0.7559  0.3114 -2.5145
  765MOL0     H 3271  -0.670   0.189   4.298  1.1362 -3.6600 -0.1097
  765MOL0     H 3272   0.164   0.119   4.331  3.8886  0.7154 -1.9386
  765MOL0     H 3273   0.352   0.135   4.657 -1.5568  0.4918  0.5781
  765MOL0     H 3274   0.216   0.042   4.600  0.3907 -1.3218 -2.3678
  765MOL0     H 3275   0.364   0.049   4.505 -0.1838  0.2517 -1.0341
  766MOL0     O 3276  11.240   6.168   7.273  0.5835 -0.1963 -0.4101
  766MOL0     C 3277  11.301   6.262   7.320 -0.7418  0.4634  0.2606
  766MOL0     O 3278  11.380   6.256   7.436  0.5091  0.3674  0.4256
  766MOL0     C 3279  11.376   6.156   7.531 -0.8267  0.5353  0.4146
  766MOL0     C 3280  11.270   6.084   7.576  0.2440 -0.5762  0.1020
  766MOL0     C 3281  11.287   5.977   7.662  0.5327  0.6291 -0.2711
  766MOL0     C 3282  11.412   5.934   7.706 -0.0635  0.8415 -0.0607
  766MOL0     O 3283  11.431   5.829   7.800  0.3721  0.6142  0.6709
  766MOL0     C 3284  11.461   5.701   7.740  0.4323  0.1403 -0.2957
  766MOL0     C 3285  11.570   5.622   7.810 -0.0594  0.1359  0.5077
  766MOL0     C 3286  11.714   5.685   7.794 -0.0931  0.5992 -0.0941
  766MOL0     C 3287  11.820   5.579   7.853  1.4916  0.1064 -0.5083
  766MOL0     C 3288  11.958   5.639   7.847  0.3283 -0.3459 -0.3495
  766MOL0     C 3289  12.057   5.515   7.835  0.0569 -0.6877 -0.3528
  766MOL0     C 3290  12.203   5.562   7.844 -0.1110  0.4189 -0.2116
  766MOL0     C 3291  12.254   5.655   7.728 -0.9672 -0.2704 -0.1388
  766MOL0     N 3292  12.395   5.653   7.699  0.0658  0.4346  0.3698
  766MOL0     C 3293  12.488   5.757   7.710  0.4497  0.8921  0.0561
  766MOL0     C 3294  12.614   5.702   7.709  0.6736  0.3977  0.4462
  766MOL0     C 3295  12.749   5.775   7.723  0.5306 -0.4993  0.0028
  766MOL0     C 3296  12.782   5.857   7.606 -0.1884  0.2282  0.6196
  766MOL0     C 3297  12.925   5.916   7.616 -1.0579 -0.5287 -0.1907
  766MOL0     C 3298  12.939   6.015   7.734  0.0100  0.6650 -0.7208
  766MOL0     O 3299  12.855   6.133   7.723  0.4796  0.3222  0.7235
  766MOL0     C 3300  12.809   6.178   7.841  0.0814 -0.0559 -0.5970
  766MOL0     C 3301  12.678   6.175   7.863  0.0955 -0.3827 -0.1335
  766MOL0     C 3302  12.632   6.235   7.986  0.8036 -0.4503 -0.8174
  766MOL0     C 3303  12.715   6.275   8.086 -0.2883 -0.7939  0.2607
  766MOL0     C 3304  12.670   6.326   8.221  0.6046  0.6394 -0.0102
  766MOL0     O 3305  12.762   6.382   8.314  0.5281 -0.3776 -0.5941
  766MOL0     C 3306  12.713   6.405   8.442 -0.0759  1.2545  0.5490
  766MOL0     C 3307  12.727   6.300   8.529  0.0256  0.2980 -0.4162
  766MOL0     C 3308  12.657   6.310   8.650 -0.2044  0.2869  0.2751
  766MOL0     C 3309  12.589   6.423   8.689 -0.1356 -0.7920 -0.4459
  766MOL0     O 3310  12.527   6.410   8.815 -0.2087  0.1048  0.0608
  766MOL0     C 3311  12.476   6.517   8.898 -0.0701 -0.1119 -0.1166
  766MOL0     C 3312  12.364   6.473   8.995 -0.3994 -0.3061  0.3514
  766MOL0     C 3313  12.401   6.405   9.127 -0.1798 -0.3752 -0.2495
  766MOL0     C 3314  12.271   6.347   9.191 -0.2446  0.0611  0.4311
  766MOL0     C 3315  12.298   6.285   9.329 -0.2170 -0.1836  0.7403
  766MOL0     C 3316  12.163   6.240   9.392  0.0482  0.1228 -1.1697
  766MOL0     C 3317  12.179   6.152   9.523 -1.3184 -0.2456  1.4951
  766MOL0     C 3318  12.046   6.098   9.561 -0.2499 -0.1800 -0.3445
  766MOL0    Cl 3319  12.069   6.006   9.719  0.5274 -0.4588 -0.1664
  766MOL0     C 3320  12.583   6.524   8.596  0.8109  0.1568 -0.9328
  766MOL0     C 3321  12.647   6.521   8.473 -0.2894 -0.4264 -0.0699
  766MOL0     O 3322  12.552   6.310   8.244  0.0393 -0.0102 -0.2874
  766MOL0     C 3323  12.852   6.284   8.051  0.4041  0.1240 -0.7562
  766MOL0     C 3324  12.894   6.229   7.933 -0.3281 -0.1226 -0.1192
  766MOL0     N 3325  12.591   5.564   7.695 -0.2088  0.3099 -0.8199
  766MOL0     N 3326  12.464   5.540   7.690  0.4376 -0.5351 -0.4424
  766MOL0     C 3327  11.515   6.012   7.661  0.0531  0.1279 -1.0159
  766MOL0     C 3328  11.502   6.122   7.584  0.2571  0.3016  0.4655
  766MOL0     C 3329  11.290   6.386   7.230 -0.1289  0.0485  0.2957
  766MOL0     C 3330  11.235   6.365   7.103  0.2982 -0.2696 -0.1150
  766MOL0     C 3331  11.203   6.478   7.017  0.1993  1.3091  0.3638
  766MOL0     C 3332  11.229   6.604   7.064 -0.9342  0.8290 -0.4962
  766MOL0     O 3333  11.197   6.711   6.982 -0.7074  0.1517 -0.3536
  766MOL0     C 3334  11.310   6.791   6.932 -0.0293 -0.5841 -0.2696
  766MOL0     C 3335  11.433   6.715   6.895 -0.8146  0.9899 -0.5240
  766MOL0     C 3336  11.418   6.608   6.784  0.6190  0.7475  0.3389
  766MOL0     C 3337  11.451   6.655   6.653 -0.0306 -0.6086  0.3129
  766MOL0     C 3338  11.377   6.583   6.542  0.0599 -0.2334  0.6810
  766MOL0     C 3339  11.327   6.510   6.457  0.6497 -0.9003  0.4825
  766MOL0     C 3340  11.273   6.620   7.191 -0.2658 -0.7359 -0.3020
  766MOL0     C 3341  11.308   6.515   7.271  0.2703  0.1721  0.0967
  766MOL0     C 3342  11.352   6.551   7.411  0.8199 -0.4328  0.6393
  766MOL0     H 3343  11.168   6.101   7.545  0.5996 -1.8452 -1.9093
  766MOL0     H 3344  11.202   5.911   7.672  1.7876 -2.2610 -5.2979
  766MOL0     H 3345  11.378   5.632   7.758  0.8927 -0.1972  0.5917
  766MOL0     H 3346  11.477   5.703   7.632 -3.1433 -0.8874 -0.9799
  766MOL0     H 3347  11.564   5.520   7.771  0.1923  0.6067 -0.7984
  766MOL0     H 3348  11.536   5.609   7.913 -4.0034 -0.4836 -0.6945
  766MOL0     H 3349  11.722   5.773   7.859  1.9321  0.5654 -0.2262
  766MOL0     H 3350  11.739   5.713   7.691 -0.4269 -1.8270 -0.9043
  766MOL0     H 3351  11.781   5.565   7.954 -4.5887 -1.9895 -2.6478
  766MOL0     H 3352  11.813   5.486   7.795  0.6626 -0.5651  0.6405
  766MOL0     H 3353  11.956   5.699   7.756 -1.2415  1.4830  0.8289
  766MOL0     H 3354  11.980   5.707   7.930 -0.4461  0.8506 -1.0880
  766MOL0     H 3355  12.053   5.457   7.928  0.6155  0.5721  0.4902
  766MOL0     H 3356  12.039   5.450   7.749 -1.0182  0.1586 -0.8025
  766MOL0     H 3357  12.266   5.473   7.833  1.1224  1.5645 -3.6897
  766MOL0     H 3358  12.233   5.614   7.936 -0.9627  1.4060 -0.4650
  766MOL0     H 3359  12.199   5.636   7.635 -1.6730  1.6945 -0.1721
  766MOL0     H 3360  12.217   5.755   7.754 -1.1107 -0.5710  0.8253
  766MOL0     H 3361  12.481   5.865   7.712  0.2457  1.0037  4.9680
  766MOL0     H 3362  12.746   5.831   7.816 -0.1644  0.4588 -0.5753
  766MOL0     H 3363  12.822   5.694   7.729 -0.5623 -1.5730 -0.7146
  766MOL0     H 3364  12.785   5.806   7.509  2.2660  2.0337 -0.3423
  766MOL0     H 3365  12.708   5.936   7.595 -5.0152 -3.8925 -0.1879
  766MOL0     H 3366  12.940   5.965   7.520 -2.5207 -0.7389 -0.5461
  766MOL0     H 3367  13.007   5.844   7.622  0.5954  1.3823  2.3568
  766MOL0     H 3368  13.041   6.053   7.742  0.4828 -0.5666 -0.7598
  766MOL0     H 3369  12.919   5.962   7.827 -0.6735  0.7875 -0.7897
  766MOL0     H 3370  12.607   6.153   7.785  1.0869 -1.6110 -0.7308
  766MOL0     H 3371  12.528   6.222   8.013  0.8551 -0.5564 -0.6705
  766MOL0     H 3372  12.777   6.207   8.509 -0.7666  0.0526 -1.3068
  766MOL0     H 3373  12.653   6.226   8.718  0.3469 -0.2451 -0.3349
  766MOL0     H 3374  12.562   6.554   8.954 -0.1756 -1.8454  1.2972
  766MOL0     H 3375  12.434   6.591   8.830  2.9953  0.2948 -1.7878
  766MOL0     H 3376  12.317   6.565   9.033 -1.6348 -0.6246 -0.3405
  766MOL0     H 3377  12.287   6.422   8.936  0.7034  0.9302 -2.3157
  766MOL0     H 3378  12.459   6.313   9.118 -0.3245 -0.3024 -2.3370
  766MOL0     H 3379  12.443   6.480   9.195  1.6292  0.0672 -1.7765
  766MOL0     H 3380  12.226   6.279   9.118 -0.9497 -0.7842  1.6171
  766MOL0     H 3381  12.202   6.431   9.205  1.4637  1.4388  0.9974
  766MOL0     H 3382  12.366   6.350   9.385 -2.1626  0.6109  2.2978
  766MOL0     H 3383  12.358   6.200   9.295  2.0116  2.0904 -1.4486
  766MOL0     H 3384  12.109   6.333   9.413  1.0151  1.3392 -3.6839
  766MOL0     H 3385  12.101   6.186   9.320 -0.7095 -0.5757 -0.0116
  766MOL0     H 3386  12.225   6.215   9.600  0.4621  0.7480 -0.2776
  766MOL0     H 3387  12.248   6.069   9.504 -1.4310  0.1210 -0.7827
  766MOL0     H 3388  11.971   6.176   9.577  0.9368  0.9233  0.0625
  766MOL0     H 3389  12.014   6.023   9.488  1.3511  0.8052 -2.1380
  766MOL0     H 3390  12.521   6.611   8.616  0.3877 -0.4493  0.5432
  766MOL0     H 3391  12.633   6.601   8.400  1.0466 -0.7914 -0.7531
  766MOL0     H 3392  12.925   6.333   8.114  1.4844 -0.6808 -1.3372
  766MOL0     H 3393  12.998   6.238   7.903 -1.0525 -1.1215 -3.3428
  766MOL0     H 3394  11.613   5.984   7.699 -0.8709 -1.3162  0.4061
  766MOL0     H 3395  11.590   6.184   7.573 -2.5825  4.2333 -2.8898
  766MOL0     H 3396  11.214   6.264   7.070 -5.3539  0.5387  0.0274
  766MOL0     H 3397  11.148   6.467   6.923 -1.0298 -3.0511  1.3506
  766MOL0     H 3398  11.339   6.850   7.019 -0.3395  0.1262 -0.6377
  766MOL0     H 3399  11.281   6.848   6.843  1.5182 -1.7872 -1.5997
  766MOL0     H 3400  11.483   6.668   6.980 -3.1679  0.2967  0.5506
  766MOL0     H 3401  11.503   6.794   6.865  1.0770  0.7627  2.8240
  766MOL0     H 3402  11.313   6.578   6.790  0.4264  1.4811  0.7592
  766MOL0     H 3403  11.493   6.533   6.807  1.6043  1.6563  0.1574
  766MOL0     H 3404  11.416   6.759   6.653  2.8866  0.5228  2.4353
  766MOL0     H 3405  11.559   6.638   6.642  0.4019  1.3745  1.0994
  766MOL0     H 3406  11.271   6.453   6.386  2.4033  0.4450 -2.1419
  766MOL0     H 3407  11.264   6.723   7.226 -3.3672 -0.9066 -0.2432
  766MOL0     H 3408  11.366   6.658   7.431  0.2551  0.7925 -4.1910
  766MOL0     H 3409  11.277   6.513   7.480 -1.2353  0.3007 -1.0715
  766MOL0     H 3410  11.447   6.502   7.432  0.3521 -2.1781 -1.0108
  767MOL0     O 3411  11.109   1.811   3.247  0.4792  0.0410  0.5375
  767MOL0     C 3412  10.990   1.770   3.231  0.5857 -0.7604 -0.8174
  767MOL0     O 3413  10.947   1.678   3.139  0.0376  0.4889 -0.5027
  767MOL0     C 3414  11.046   1.597   3.079 -0.8304 -0.4648  0.0956
  767MOL0     C 3415  11.129   1.647   2.981 -0.7651  0.4473  0.0000
  767MOL0     C 3416  11.224   1.568   2.921 -0.3315  0.1962 -0.5240
  767MOL0     C 3417  11.227   1.432   2.958 -0.3193  0.6407  0.9405
  767MOL0     O 3418  11.301   1.340   2.882 -0.6050 -0.7428 -0.6702
  767MOL0     C 3419  11.445   1.373   2.874 -0.1362  0.4961 -0.7985
  767MOL0     C 3420  11.537   1.302   2.975 -0.9072  0.3613  0.0621
  767MOL0     C 3421  11.508   1.326   3.127 -0.4812 -0.0982 -0.1823
  767MOL0     C 3422  11.515   1.471   3.165 -0.5522  0.0356  0.5968
  767MOL0     C 3423  11.485   1.497   3.315  0.4291 -0.2502 -0.3787
  767MOL0     C 3424  11.600   1.433   3.398 -0.2075  0.3493 -0.2528
  767MOL0     C 3425  11.613   1.479   3.548  0.3830  0.5197  0.0365
  767MOL0     C 3426  11.700   1.603   3.553 -0.6350  0.4845  0.2489
  767MOL0     N 3427  11.721   1.659   3.687  0.6068  0.0423  0.0422
  767MOL0     C 3428  11.769   1.789   3.713  1.0981  0.7109 -0.0493
  767MOL0     C 3429  11.755   1.798   3.844 -0.6774 -0.0795 -0.6791
  767MOL0     C 3430  11.787   1.918   3.930 -0.2771  0.7602 -0.3034
  767MOL0     C 3431  11.918   1.930   3.997 -0.6792  0.4311 -0.5201
  767MOL0     C 3432  12.006   1.957   3.881 -0.5904  0.2144 -0.5652
  767MOL0     C 3433  12.159   1.940   3.915 -0.7816  0.3413 -0.3037
  767MOL0     O 3434  12.198   1.810   3.968 -0.1223  1.0049  0.8258
  767MOL0     C 3435  12.163   1.711   3.886 -0.8970 -0.8875 -0.2358
  767MOL0     C 3436  12.219   1.691   3.767 -0.1225  0.0464  0.0567
  767MOL0     C 3437  12.186   1.582   3.687 -0.3059 -0.5003  0.4369
  767MOL0     C 3438  12.073   1.505   3.722  0.9340  0.0769  0.8763
  767MOL0     C 3439  12.024   1.398   3.630  0.5104 -0.6969  0.0892
  767MOL0     O 3440  12.054   1.413   3.508 -0.2880 -0.1064  0.7124
  767MOL0     C 3441  12.021   1.334   3.400 -0.4843  0.1938  0.0108
  767MOL0     C 3442  12.111   1.334   3.294  0.0226  0.3850 -1.2906
  767MOL0     C 3443  12.093   1.243   3.187  0.4021 -0.3747 -0.2506
  767MOL0     C 3444  11.977   1.166   3.174 -0.2650 -0.2046  0.2547
  767MOL0     O 3445  11.953   1.101   3.054 -0.8536  0.1037 -0.1938
  767MOL0     C 3446  11.860   0.994   3.049  0.5861 -0.4782  0.4062
  767MOL0     C 3447  11.862   0.906   2.914  0.4778  0.0057 -0.6404
  767MOL0     C 3448  11.973   0.805   2.903  0.1293  0.1136  0.4323
  767MOL0     C 3449  11.988   0.716   3.027 -0.4095 -0.0748 -0.0292
  767MOL0     C 3450  12.079   0.589   2.995  0.2579  0.1446 -0.3572
  767MOL0     C 3451  12.101   0.506   3.132 -0.2812  0.2268 -0.8745
  767MOL0     C 3452  11.974   0.447   3.196  0.1691  0.5014 -0.5178
  767MOL0     C 3453  11.921   0.338   3.117  0.0144 -0.5339  0.1382
  767MOL0    Cl 3454  11.783   0.263   3.198  0.1166  0.4100 -0.1466
  767MOL0     C 3455  11.875   1.193   3.269 -0.1250 -0.2318  0.8049
  767MOL0     C 3456  11.897   1.276   3.381  0.4002 -0.3165  0.3786
  767MOL0     O 3457  11.959   1.312   3.677 -0.4858  0.7699 -0.0655
  767MOL0     C 3458  12.010   1.532   3.846 -0.6258  0.5023 -0.7178
  767MOL0     C 3459  12.066   1.626   3.931 -0.4594 -0.6958  0.3662
  767MOL0     N 3460  11.710   1.678   3.896 -0.0332  0.8199  0.1329
  767MOL0     N 3461  11.683   1.599   3.800  0.0061  0.3521 -0.4429
  767MOL0     C 3462  11.149   1.380   3.060  0.0174  0.2495 -1.0061
  767MOL0     C 3463  11.054   1.469   3.118 -0.8661 -0.1527  1.1610
  767MOL0     C 3464  10.895   1.809   3.348 -0.7926 -0.0418  0.2420
  767MOL0     C 3465  10.958   1.879   3.457  0.0354 -0.3457  0.0834
  767MOL0     C 3466  10.884   1.901   3.579 -1.2033 -1.8954  0.7059
  767MOL0     C 3467  10.754   1.846   3.583  0.6892  0.0527 -0.6664
  767MOL0     O 3468  10.668   1.845   3.695  0.9044 -0.4685  0.9574
  767MOL0     C 3469  10.734   1.885   3.810  0.8653  0.2247 -0.4980
  767MOL0     C 3470  10.612   1.871   3.914 -0.2896  0.1220 -0.5195
  767MOL0     C 3471  10.671   1.874   4.064  0.4536  1.3348  1.0004
  767MOL0     C 3472  10.741   2.008   4.096 -2.0362 -1.2648  0.0694
  767MOL0     C 3473  10.755   2.026   4.240  0.1408  0.7528 -0.0324
  767MOL0     C 3474  10.769   2.045   4.361  0.5684  0.0181  0.0391
  767MOL0     C 3475  10.688   1.793   3.473  0.6814 -0.0516  0.3461
  767MOL0     C 3476  10.760   1.786   3.352 -0.3416  0.0248  0.7427
  767MOL0     C 3477  10.696   1.737   3.228  0.3462  0.4805 -0.7831
  767MOL0     H 3478  11.116   1.747   2.939 -4.9506 -0.3979 -1.1965
  767MOL0     H 3479  11.292   1.611   2.849  1.7623  0.5659  1.5554
  767MOL0     H 3480  11.479   1.354   2.772  2.5621 -0.0700  0.1304
  767MOL0     H 3481  11.462   1.479   2.897 -4.7408  1.3366 -0.4199
  767MOL0     H 3482  11.643   1.328   2.965 -0.7120 -1.1555 -3.2690
  767MOL0     H 3483  11.528   1.195   2.951  1.2693  0.9221 -4.2377
  767MOL0     H 3484  11.562   1.261   3.196 -1.2638 -1.3607 -0.7402
  767MOL0     H 3485  11.402   1.300   3.134 -1.0416  1.5506 -1.7839
  767MOL0     H 3486  11.609   1.510   3.123 -0.8506 -0.3305 -0.4524
  767MOL0     H 3487  11.434   1.518   3.109 -1.9923 -1.6019  1.2429
  767MOL0     H 3488  11.472   1.601   3.346 -1.2953 -0.5397 -0.0251
  767MOL0     H 3489  11.397   1.440   3.347 -0.6948  1.9065  0.5386
  767MOL0     H 3490  11.594   1.324   3.396 -1.7266  0.3867 -3.7421
  767MOL0     H 3491  11.692   1.460   3.346  0.1869 -0.3886  0.0469
  767MOL0     H 3492  11.667   1.402   3.604  0.9501  2.2700  1.9998
  767MOL0     H 3493  11.515   1.493   3.595  1.3397  1.2995  1.8643
  767MOL0     H 3494  11.797   1.580   3.509 -1.3425 -2.3046 -0.0489
  767MOL0     H 3495  11.656   1.679   3.487 -0.8735 -0.2712 -0.4758
  767MOL0     H 3496  11.803   1.852   3.632 -0.6291 -0.8251 -2.1032
  767MOL0     H 3497  11.761   2.012   3.880  0.1855  1.7246  1.2301
  767MOL0     H 3498  11.720   1.900   4.015 -2.5822  0.0708 -2.1362
  767MOL0     H 3499  11.919   2.018   4.063 -4.3108  0.6714 -0.5843
  767MOL0     H 3500  11.943   1.851   4.068 -1.3626  1.3665  0.8212
  767MOL0     H 3501  11.992   2.058   3.842  0.0171 -0.6732 -3.2508
  767MOL0     H 3502  11.975   1.884   3.805 -3.0874  1.6425 -1.0424
  767MOL0     H 3503  12.187   2.004   3.999 -2.7956  0.6435  0.1891
  767MOL0     H 3504  12.208   1.969   3.821 -2.5444  1.7896 -0.8341
  767MOL0     H 3505  12.298   1.756   3.732  0.5186 -0.3594  0.7272
  767MOL0     H 3506  12.228   1.562   3.589 -3.7565 -0.1796 -1.2444
  767MOL0     H 3507  12.208   1.382   3.296 -0.4345  1.3133 -0.8687
  767MOL0     H 3508  12.170   1.257   3.112 -0.3798  3.4015 -0.5310
  767MOL0     H 3509  11.878   0.923   3.131  1.7969 -3.4806 -2.2448
  767MOL0     H 3510  11.759   1.037   3.051  1.0227  0.8775 -2.2862
  767MOL0     H 3511  11.765   0.856   2.912  0.7950 -0.7498  1.1942
  767MOL0     H 3512  11.850   0.980   2.834 -0.8143  0.9009  0.3328
  767MOL0     H 3513  11.965   0.747   2.811  0.7365  0.3522  0.2212
  767MOL0     H 3514  12.068   0.855   2.883 -1.2771  3.1434  0.7777
  767MOL0     H 3515  11.890   0.688   3.066 -0.1522 -1.5368 -0.3772
  767MOL0     H 3516  12.045   0.773   3.102 -3.1848  1.9805  0.6631
  767MOL0     H 3517  12.174   0.626   2.956  0.9507  3.3714  3.7131
  767MOL0     H 3518  12.033   0.524   2.919  0.6916 -0.4716 -0.0960
  767MOL0     H 3519  12.165   0.420   3.110 -0.6643  0.0249 -1.2127
  767MOL0     H 3520  12.161   0.560   3.206  2.8129 -2.6638 -1.0628
  767MOL0     H 3521  11.911   0.530   3.228 -1.6614 -1.7307  2.1108
  767MOL0     H 3522  11.992   0.392   3.289  2.2228  1.2795 -0.3934
  767MOL0     H 3523  11.897   0.367   3.014  5.2584  1.1794 -0.9169
  767MOL0     H 3524  11.992   0.257   3.094  0.1186 -0.3843 -0.0722
  767MOL0     H 3525  11.782   1.136   3.267  0.5263 -1.2999 -0.4019
  767MOL0     H 3526  11.822   1.287   3.459  2.0259  2.6067  1.6998
  767MOL0     H 3527  11.926   1.468   3.875  0.4273 -1.2648 -1.4228
  767MOL0     H 3528  12.020   1.655   4.025  0.5038  0.5503  0.4842
  767MOL0     H 3529  11.140   1.273   3.076  3.6863 -0.2396 -1.3825
  767MOL0     H 3530  10.978   1.423   3.180 -2.5891  0.4300 -0.4458
  767MOL0     H 3531  11.060   1.913   3.447  0.4899 -2.0905 -2.2438
  767MOL0     H 3532  10.942   1.933   3.666  0.8290 -0.8686 -0.9487
  767MOL0     H 3533  10.765   1.989   3.796 -1.9319  1.4467  1.2886
  767MOL0     H 3534  10.813   1.820   3.848  0.0457  0.0118  0.9417
  767MOL0     H 3535  10.559   1.776   3.906  1.2466 -0.9869  1.5705
  767MOL0     H 3536  10.545   1.956   3.893  1.2043  2.2599  2.5198
  767MOL0     H 3537  10.724   1.780   4.082 -2.7171 -0.9234 -0.2949
  767MOL0     H 3538  10.577   1.864   4.120 -0.5311 -1.2854 -0.8805
  767MOL0     H 3539  10.839   2.003   4.048  0.4809 -2.1829  4.6704
  767MOL0     H 3540  10.701   2.098   4.048 -1.6094 -1.1708 -0.1181
  767MOL0     H 3541  10.773   2.050   4.468  0.9541 -4.4802  0.4284
  767MOL0     H 3542  10.591   1.750   3.497  1.3345 -2.7270 -1.4604
  767MOL0     H 3543  10.726   1.632   3.221  1.0607  0.6931 -1.0998
  767MOL0     H 3544  10.589   1.752   3.244  0.3004 -1.0921  0.5499
  767MOL0     H 3545  10.731   1.794   3.140 -0.6514  3.3972  0.5753
  768MOL0     O 3546  10.404   8.468   9.369 -0.5047  0.6932 -0.0906
  768MOL0     C 3547  10.307   8.483   9.439  0.3049  0.1660 -0.3397
  768MOL0     O 3548  10.226   8.596   9.445 -0.1292 -0.4134  0.4793
  768MOL0     C 3549  10.254   8.698   9.360  0.8007 -0.3050 -0.0652
  768MOL0     C 3550  10.372   8.776   9.366  0.0841 -0.4074 -0.1277
  768MOL0     C 3551  10.383   8.886   9.286 -0.3176  0.4605 -0.5868
  768MOL0     C 3552  10.288   8.927   9.190  0.4376 -0.0067  0.0391
  768MOL0     O 3553  10.298   9.042   9.121 -1.4330 -0.6026  0.7274
  768MOL0     C 3554  10.326   9.011   8.984  0.1985  0.4267 -0.2356
  768MOL0     C 3555  10.372   9.138   8.914  0.9068 -0.0034  0.4012
  768MOL0     C 3556  10.516   9.194   8.940 -0.1638 -0.4109  0.1428
  768MOL0     C 3557  10.609   9.110   8.850 -0.1376 -0.7901  0.2707
  768MOL0     C 3558  10.740   9.180   8.836 -0.4805 -0.8745 -0.2506
  768MOL0     C 3559  10.835   9.084   8.761 -0.0561 -0.2597 -0.5256
  768MOL0     C 3560  10.962   9.151   8.715  0.1847 -0.2469  0.4934
  768MOL0     C 3561  11.058   9.179   8.824  0.0117 -0.0161  0.1916
  768MOL0     N 3562  11.145   9.066   8.829 -0.9498  0.1018 -0.1934
  768MOL0     C 3563  11.164   8.994   8.939  0.3791 -0.4312  0.2050
  768MOL0     C 3564  11.243   8.889   8.901 -0.2638  0.8896  0.6535
  768MOL0     C 3565  11.304   8.781   8.990 -0.1871 -0.0882  0.3025
  768MOL0     C 3566  11.216   8.684   9.076 -0.4771 -0.4613  0.3246
  768MOL0     C 3567  11.143   8.596   8.975  0.2246  0.8246  0.7786
  768MOL0     C 3568  11.228   8.497   8.888 -0.7765  0.4448 -0.0881
  768MOL0     O 3569  11.151   8.443   8.791  0.2212 -0.3723  0.2449
  768MOL0     C 3570  11.057   8.350   8.825 -0.2476  0.3255 -0.9298
  768MOL0     C 3571  10.950   8.328   8.743  0.3052  0.2710  0.6904
  768MOL0     C 3572  10.848   8.239   8.779  0.0198  0.3481 -0.6706
  768MOL0     C 3573  10.844   8.166   8.892  0.0600  0.2220 -0.5157
  768MOL0     C 3574  10.743   8.051   8.907  0.5851 -0.3129  0.5180
  768MOL0     O 3575  10.754   7.973   9.013 -0.9759  0.4353 -0.1597
  768MOL0     C 3576  10.643   7.906   9.048 -0.0471 -0.0115 -0.0038
  768MOL0     C 3577  10.529   7.970   9.109 -0.1226  0.4694  0.0840
  768MOL0     C 3578  10.412   7.896   9.138  0.5581  0.3732 -0.0732
  768MOL0     C 3579  10.415   7.760   9.117  0.3111  0.4571 -0.0190
  768MOL0     O 3580  10.295   7.691   9.124  0.2843  0.1839  0.0224
  768MOL0     C 3581  10.303   7.587   9.216 -0.8170 -0.2002 -0.3578
  768MOL0     C 3582  10.177   7.579   9.299 -0.2371 -0.9516  0.0628
  768MOL0     C 3583  10.136   7.712   9.357  0.2498 -0.1808 -0.9383
  768MOL0     C 3584  10.006   7.716   9.433 -0.1778 -0.1466  0.3719
  768MOL0     C 3585   9.974   7.833   9.527 -0.0824 -0.5315  0.0256
  768MOL0     C 3586   9.922   7.956   9.454  0.5191  0.1536  0.0656
  768MOL0     C 3587   9.886   8.067   9.554 -0.2225 -0.0385  0.1586
  768MOL0     C 3588   9.760   8.021   9.628 -0.2166  0.0143 -0.9777
  768MOL0    Cl 3589   9.706   8.157   9.732  0.3164 -0.1779 -0.2193
  768MOL0     C 3590  10.527   7.696   9.051  0.8853  0.1784  0.5156
  768MOL0     C 3591  10.643   7.765   9.022  0.5411  0.1779  0.9960
  768MOL0     O 3592  10.640   8.062   8.840  0.5132 -0.0318  0.3708
  768MOL0     C 3593  10.959   8.189   8.983  0.4643 -0.3325 -0.3929
  768MOL0     C 3594  11.054   8.283   8.954  0.8358  0.9262  0.4987
  768MOL0     N 3595  11.267   8.900   8.763  0.9562 -0.6424 -0.1338
  768MOL0     N 3596  11.213   9.013   8.725  0.6421  0.1301  0.0258
  768MOL0     C 3597  10.169   8.851   9.189  0.1094 -0.0788 -0.5359
  768MOL0     C 3598  10.146   8.750   9.283 -0.5869 -0.2550 -0.6950
  768MOL0     C 3599  10.275   8.383   9.547  0.7873  0.8102  0.0821
  768MOL0     C 3600  10.216   8.435   9.658 -0.2639  0.6361 -0.2889
  768MOL0     C 3601  10.218   8.360   9.778  0.0444 -0.4353  0.0179
  768MOL0     C 3602  10.247   8.224   9.776  1.3788 -0.3134  0.0079
  768MOL0     O 3603  10.221   8.166   9.900 -0.7720  0.0766  0.0088
  768MOL0     C 3604  10.217   8.021   9.904 -0.4389 -0.1683 -0.9302
  768MOL0     C 3605  10.188   7.980  10.051 -1.1293  0.0780  0.1830
  768MOL0     C 3606  10.052   8.036  10.116  0.1393 -0.3055 -0.9062
  768MOL0     C 3607   9.936   7.996  10.022 -0.5894 -0.4746 -0.2161
  768MOL0     C 3608   9.812   8.057  10.070 -0.2265 -0.3654 -0.4562
  768MOL0     C 3609   9.721   8.125  10.104 -0.3231  0.0067 -0.5806
  768MOL0     C 3610  10.279   8.166   9.655 -0.0617  0.8078  0.0376
  768MOL0     C 3611  10.305   8.245   9.542  0.4768 -0.4152  0.1232
  768MOL0     C 3612  10.351   8.179   9.406 -0.1043  0.1949  0.2363
  768MOL0     H 3613  10.460   8.755   9.427  1.2263 -1.0123 -1.8929
  768MOL0     H 3614  10.463   8.955   9.312 -1.5425  0.7549  2.8756
  768MOL0     H 3615  10.406   8.936   8.994  0.1290  0.2534 -0.9481
  768MOL0     H 3616  10.241   8.958   8.940  1.6386  0.8800 -3.8902
  768MOL0     H 3617  10.296   9.208   8.950 -1.4635 -2.3561  0.3416
  768MOL0     H 3618  10.340   9.116   8.812 -0.4961 -0.2790  0.8802
  768MOL0     H 3619  10.547   9.181   9.044  0.4845 -2.7483 -0.2887
  768MOL0     H 3620  10.519   9.300   8.914  0.0534 -0.5719 -0.5002
  768MOL0     H 3621  10.634   9.020   8.908  1.1098  1.8730  4.2181
  768MOL0     H 3622  10.549   9.092   8.760 -0.2146 -0.9488  0.3529
  768MOL0     H 3623  10.723   9.273   8.782 -3.1657 -1.3806 -0.3888
  768MOL0     H 3624  10.789   9.210   8.929  2.6397 -1.9927 -1.3738
  768MOL0     H 3625  10.861   8.995   8.818 -1.1260 -1.4468 -1.8043
  768MOL0     H 3626  10.792   9.050   8.666 -1.4849 -2.1094  0.7090
  768MOL0     H 3627  10.940   9.243   8.660 -1.3532  0.8109  2.7117
  768MOL0     H 3628  11.001   9.084   8.638 -1.8385 -0.7973 -0.0953
  768MOL0     H 3629  11.126   9.259   8.794  1.4947 -1.2451  0.1609
  768MOL0     H 3630  11.007   9.197   8.919  0.7818  3.0707  0.1184
  768MOL0     H 3631  11.128   9.022   9.038 -0.2360  0.6421 -0.3008
  768MOL0     H 3632  11.356   8.709   8.927 -2.3044 -1.1170 -0.3750
  768MOL0     H 3633  11.383   8.836   9.042 -1.1584  1.6334  0.0282
  768MOL0     H 3634  11.269   8.621   9.148 -0.8203  0.0727  1.0534
  768MOL0     H 3635  11.147   8.734   9.144  0.5183  0.4802  0.6611
  768MOL0     H 3636  11.082   8.665   8.915 -1.3505  2.0168  3.5846
  768MOL0     H 3637  11.076   8.531   9.031  1.3657 -0.1255  1.0738
  768MOL0     H 3638  11.269   8.416   8.948  0.5385  0.3389 -1.1090
  768MOL0     H 3639  11.313   8.549   8.843  1.9397 -1.1485  2.8029
  768MOL0     H 3640  10.943   8.384   8.650  0.3112  2.2319  1.8240
  768MOL0     H 3641  10.759   8.234   8.717 -0.3571 -0.3717 -0.0761
  768MOL0     H 3642  10.533   8.076   9.130 -2.0746  0.5650  0.2127
  768MOL0     H 3643  10.319   7.931   9.182 -0.1117 -1.7438  0.2972
  768MOL0     H 3644  10.336   7.493   9.171  0.4957 -0.8387  1.7814
  768MOL0     H 3645  10.384   7.610   9.286 -0.7515 -0.0059 -0.4959
  768MOL0     H 3646  10.086   7.541   9.251 -1.6789  1.4386  0.7167
  768MOL0     H 3647  10.200   7.508   9.378 -3.2420 -1.7592  0.3367
  768MOL0     H 3648  10.208   7.746   9.431  0.2990  1.9911 -1.8960
  768MOL0     H 3649  10.127   7.796   9.287  0.8480  1.5681  0.9840
  768MOL0     H 3650   9.991   7.619   9.481 -0.2681 -0.6730 -0.6888
  768MOL0     H 3651   9.940   7.718   9.346  0.3820 -1.8643 -0.1210
  768MOL0     H 3652  10.066   7.843   9.584  0.3926 -3.0742 -0.1711
  768MOL0     H 3653   9.901   7.797   9.601 -0.3200  3.7807  2.2040
  768MOL0     H 3654  10.007   7.996   9.398  0.6066  2.1431  1.5271
  768MOL0     H 3655   9.840   7.929   9.387  1.7736 -3.1699 -0.3282
  768MOL0     H 3656   9.865   8.162   9.503 -1.9484  1.1023  2.7779
  768MOL0     H 3657   9.974   8.092   9.614  1.5830 -0.3121 -2.2126
  768MOL0     H 3658   9.689   7.993   9.550  1.3314  0.4651 -2.6071
  768MOL0     H 3659   9.792   7.932   9.684  1.5670 -0.8050 -3.1560
  768MOL0     H 3660  10.527   7.590   9.025  1.7277  0.7602 -2.1503
  768MOL0     H 3661  10.728   7.733   8.963  0.8420  0.7172  1.1314
  768MOL0     H 3662  10.967   8.138   9.079 -0.4746 -3.1106 -1.6915
  768MOL0     H 3663  11.137   8.287   9.023  0.7723 -1.0767  0.7748
  768MOL0     H 3664  10.096   8.875   9.111  1.8648 -3.1346 -3.3640
  768MOL0     H 3665  10.051   8.699   9.291 -1.3491  1.1277 -0.7155
  768MOL0     H 3666  10.175   8.535   9.648 -2.0656 -0.2586 -3.2482
  768MOL0     H 3667  10.198   8.402   9.876  2.1446 -0.1271  0.3505
  768MOL0     H 3668  10.302   7.972   9.856 -0.4315 -2.0361  0.8449
  768MOL0     H 3669  10.142   7.994   9.828 -0.7491 -0.2701 -0.5920
  768MOL0     H 3670  10.276   8.010  10.107 -1.1424  2.0551 -0.7474
  768MOL0     H 3671  10.172   7.872  10.046 -0.5286 -0.0586  1.0406
  768MOL0     H 3672  10.050   8.145  10.120 -2.4259 -0.1748  5.0947
  768MOL0     H 3673  10.034   8.004  10.219 -1.2169 -1.1150 -1.3700
  768MOL0     H 3674   9.940   8.032   9.919 -1.2249  2.5567  0.7262
  768MOL0     H 3675   9.919   7.888  10.030 -0.5092 -0.5551 -1.0462
  768MOL0     H 3676   9.645   8.191  10.139 -0.6170 -0.1400 -0.9414
  768MOL0     H 3677  10.309   8.063   9.643  0.8818  1.3652 -3.3575
  768MOL0     H 3678  10.392   8.080   9.428 -0.9106 -0.4367 -0.9714
  768MOL0     H 3679  10.272   8.170   9.331  1.4702 -0.8823 -1.4028
  768MOL0     H 3680  10.436   8.231   9.362 -0.6190  1.5840  0.8354
  769MOL0     O 3681  10.255   5.519   2.848 -0.8148  0.5276 -0.9018
  769MOL0     C 3682  10.332   5.489   2.762  0.4207 -1.2999  0.6593
  769MOL0     O 3683  10.452   5.535   2.746 -0.3566 -0.2165  0.5718
  769MOL0     C 3684  10.521   5.598   2.844 -0.3665  0.2544  0.5839
  769MOL0     C 3685  10.637   5.667   2.794  1.0796 -0.1435  0.6194
  769MOL0     C 3686  10.723   5.721   2.887 -0.6611 -0.4830 -0.1429
  769MOL0     C 3687  10.705   5.703   3.024 -0.7652 -0.9806 -1.0520
  769MOL0     O 3688  10.795   5.744   3.124  0.0103 -0.2994  0.1008
  769MOL0     C 3689  10.916   5.662   3.123  0.0180  0.5190 -0.2943
  769MOL0     C 3690  10.979   5.642   3.261 -0.0899  0.5406 -0.1657
  769MOL0     C 3691  11.122   5.581   3.257 -0.2472 -0.1741  0.1263
  769MOL0     C 3692  11.230   5.673   3.197 -0.5979 -0.2190 -0.2769
  769MOL0     C 3693  11.373   5.638   3.245 -0.0840 -1.1378  0.6563
  769MOL0     C 3694  11.477   5.696   3.152 -0.1876  0.0587  0.6825
  769MOL0     C 3695  11.617   5.644   3.195 -0.5672 -1.1132 -0.9655
  769MOL0     C 3696  11.668   5.738   3.312 -0.3676  0.6420 -0.1225
  769MOL0     N 3697  11.783   5.672   3.378 -0.0824 -0.3082 -0.4032
  769MOL0     C 3698  11.792   5.622   3.506 -0.0159  0.1804  0.3093
  769MOL0     C 3699  11.924   5.592   3.519  0.0771 -0.2473  0.8005
  769MOL0     C 3700  11.971   5.517   3.640 -0.5788 -0.0655  0.1622
  769MOL0     C 3701  11.906   5.383   3.671  0.8930 -1.3136 -0.1178
  769MOL0     C 3702  11.942   5.281   3.570 -0.1190  0.3281  1.2930
  769MOL0     C 3703  12.087   5.248   3.564 -0.2423  0.9782 -0.9023
  769MOL0     O 3704  12.124   5.142   3.482  0.0299  0.7380  0.5154
  769MOL0     C 3705  12.147   5.168   3.351  0.4262 -0.7793 -0.1455
  769MOL0     C 3706  12.177   5.056   3.269  0.6009 -0.0765  0.2036
  769MOL0     C 3707  12.230   5.080   3.138  0.3857 -1.1120 -0.1701
  769MOL0     C 3708  12.235   5.211   3.089 -0.3588  0.2331 -0.3406
  769MOL0     C 3709  12.278   5.230   2.952 -0.3954 -1.0646  1.1187
  769MOL0     O 3710  12.277   5.366   2.901  0.1599  0.5569 -0.0374
  769MOL0     C 3711  12.356   5.401   2.796 -0.4107 -0.0594 -0.0642
  769MOL0     C 3712  12.490   5.357   2.782  0.3236  0.0159  0.0203
  769MOL0     C 3713  12.575   5.412   2.674  0.3914 -0.1307 -0.4098
  769MOL0     C 3714  12.514   5.503   2.582 -0.7354  0.5010  0.7081
  769MOL0     O 3715  12.590   5.564   2.480 -0.0677 -0.2674 -0.7469
  769MOL0     C 3716  12.733   5.552   2.473  1.1401  0.2593  0.6877
  769MOL0     C 3717  12.780   5.653   2.358  0.7163 -0.4266  0.3322
  769MOL0     C 3718  12.819   5.785   2.398 -0.6010  0.3332 -0.3656
  769MOL0     C 3719  12.850   5.862   2.269 -0.9360 -0.5712 -0.7078
  769MOL0     C 3720  12.866   6.011   2.306 -1.3859 -0.4064  0.1888
  769MOL0     C 3721  12.955   6.082   2.202  0.3318  0.3915 -0.1817
  769MOL0     C 3722  12.953   6.235   2.215  0.5059 -0.6390  0.0628
  769MOL0     C 3723  13.019   6.303   2.097  0.6462  0.3085  0.0250
  769MOL0    Cl 3724  13.199   6.297   2.114 -0.0143 -0.2133 -0.0351
  769MOL0     C 3725  12.384   5.537   2.596 -0.1847  0.1073  0.0179
  769MOL0     C 3726  12.314   5.498   2.706 -0.0663 -0.9395  0.0626
  769MOL0     O 3727  12.318   5.135   2.880  0.2686 -0.5190  0.1885
  769MOL0     C 3728  12.201   5.320   3.170  0.2036 -0.3915  0.2271
  769MOL0     C 3729  12.153   5.297   3.305 -0.4918 -0.4219  0.0669
  769MOL0     N 3730  11.987   5.613   3.395  0.4999 -0.2264 -0.8910
  769MOL0     N 3731  11.903   5.680   3.320  0.6145  0.5003 -0.3559
  769MOL0     C 3732  10.589   5.649   3.064 -0.0158 -0.0807 -0.4676
  769MOL0     C 3733  10.497   5.592   2.980 -0.2345  0.9005  0.2883
  769MOL0     C 3734  10.282   5.385   2.669 -0.2719 -0.6050 -0.2678
  769MOL0     C 3735  10.377   5.333   2.590  0.2023  0.1194  0.4634
  769MOL0     C 3736  10.345   5.234   2.494 -0.8394  0.7377  0.8188
  769MOL0     C 3737  10.214   5.196   2.475  0.2547  0.5162  0.5210
  769MOL0     O 3738  10.179   5.096   2.387  0.1143 -0.3244 -0.1128
  769MOL0     C 3739  10.257   5.083   2.270  1.4898  0.1229  0.1303
  769MOL0     C 3740  10.180   4.988   2.179  0.9003 -1.0491  0.1087
  769MOL0     C 3741  10.273   4.927   2.084 -0.7234 -0.0479 -0.3656
  769MOL0     C 3742  10.395   5.003   2.021 -0.9624 -0.5809  0.6078
  769MOL0     C 3743  10.358   5.133   1.963 -0.3493 -0.9946  1.0876
  769MOL0     C 3744  10.295   5.234   1.921  0.5925 -0.0362  0.6484
  769MOL0     C 3745  10.123   5.252   2.558  0.8638 -1.1066  0.0153
  769MOL0     C 3746  10.147   5.343   2.661 -0.6154 -0.1220 -0.9085
  769MOL0     C 3747  10.031   5.392   2.748  0.7882 -0.7979  0.0925
  769MOL0     H 3748  10.639   5.700   2.691 -4.6923 -1.7732 -0.3690
  769MOL0     H 3749  10.799   5.788   2.849 -0.2685  1.6236  3.8473
  769MOL0     H 3750  10.881   5.568   3.079  0.1671  0.8977 -1.2435
  769MOL0     H 3751  10.987   5.700   3.050 -0.7307 -0.1420 -1.3893
  769MOL0     H 3752  10.904   5.590   3.323 -2.8718  2.0298 -2.0542
  769MOL0     H 3753  10.997   5.740   3.306 -0.1806  0.1841  0.6816
  769MOL0     H 3754  11.137   5.488   3.201  2.5236  1.4016 -2.0130
  769MOL0     H 3755  11.148   5.557   3.361  4.5180 -1.1380 -1.0488
  769MOL0     H 3756  11.230   5.669   3.088  5.1789 -0.3493 -0.5711
  769MOL0     H 3757  11.221   5.781   3.217  0.2660  0.4538 -3.0819
  769MOL0     H 3758  11.389   5.667   3.349 -0.4579  1.8717 -0.0306
  769MOL0     H 3759  11.380   5.530   3.227  0.1280 -0.9467 -0.4659
  769MOL0     H 3760  11.456   5.652   3.054  2.1519 -0.0829  0.1806
  769MOL0     H 3761  11.463   5.803   3.139  0.1012  0.3736  2.6844
  769MOL0     H 3762  11.685   5.642   3.110  1.3934 -0.8519  0.5379
  769MOL0     H 3763  11.612   5.539   3.223  1.4289 -1.1790 -0.7474
  769MOL0     H 3764  11.695   5.839   3.280 -0.6242  1.1784  1.2825
  769MOL0     H 3765  11.594   5.749   3.392 -2.2088  1.2137 -1.8321
  769MOL0     H 3766  11.717   5.615   3.584  1.1911 -1.4977  1.3775
  769MOL0     H 3767  12.079   5.504   3.633 -0.1651  1.1437  2.8452
  769MOL0     H 3768  11.951   5.577   3.729  0.2102 -0.5186  0.6561
  769MOL0     H 3769  11.946   5.355   3.769 -0.0888  1.0510  1.0420
  769MOL0     H 3770  11.800   5.407   3.686  1.1387 -0.5374  0.4447
  769MOL0     H 3771  11.905   5.307   3.471 -0.1913 -4.9187 -0.3445
  769MOL0     H 3772  11.893   5.189   3.603  1.3043 -0.4828  1.2115
  769MOL0     H 3773  12.110   5.203   3.661  0.3277 -0.3468 -1.6228
  769MOL0     H 3774  12.154   5.333   3.545  1.0554 -0.0009 -0.8674
  769MOL0     H 3775  12.170   4.956   3.311  1.3750  0.5222  1.8389
  769MOL0     H 3776  12.264   4.991   3.086  1.2078 -1.0743  0.2953
  769MOL0     H 3777  12.540   5.305   2.864  1.1719 -2.7539 -2.0738
  769MOL0     H 3778  12.671   5.366   2.656  1.8410  2.2162  0.8181
  769MOL0     H 3779  12.780   5.565   2.571 -1.6689 -2.0536  2.5625
  769MOL0     H 3780  12.758   5.449   2.444 -3.6027 -3.1745  6.4089
  769MOL0     H 3781  12.873   5.611   2.318  0.0721 -2.0887  0.4929
  769MOL0     H 3782  12.704   5.647   2.280 -1.8913 -3.4275  2.8156
  769MOL0     H 3783  12.732   5.822   2.453 -0.7573  0.0193 -0.4010
  769MOL0     H 3784  12.907   5.788   2.464 -1.2761  2.4289  0.5136
  769MOL0     H 3785  12.769   5.856   2.196 -1.5914  0.0519 -0.0565
  769MOL0     H 3786  12.941   5.824   2.221 -0.6727  0.5362 -1.1013
  769MOL0     H 3787  12.913   6.039   2.401  0.0125  0.1478 -0.6392
  769MOL0     H 3788  12.770   6.059   2.285  0.5230  1.6998 -6.5496
  769MOL0     H 3789  13.054   6.042   2.227 -0.3169 -0.5903  0.8647
  769MOL0     H 3790  12.929   6.059   2.098 -0.3764 -0.6698  0.2182
  769MOL0     H 3791  13.005   6.257   2.309  0.5329  1.5719 -0.4176
  769MOL0     H 3792  12.847   6.257   2.226  0.5941 -1.4244  3.6656
  769MOL0     H 3793  12.985   6.249   2.008  0.4775 -3.0322  1.9375
  769MOL0     H 3794  12.983   6.406   2.100  1.2240  0.5163  3.0679
  769MOL0     H 3795  12.335   5.613   2.536 -0.5615  2.7043  3.2896
  769MOL0     H 3796  12.216   5.538   2.730  0.8110  0.8069  0.9215
  769MOL0     H 3797  12.201   5.415   3.117 -0.2018 -1.7647 -2.3896
  769MOL0     H 3798  12.152   5.392   3.358 -0.9904 -1.1706  1.4231
  769MOL0     H 3799  10.570   5.633   3.170 -0.7368  4.2718  0.2361
  769MOL0     H 3800  10.420   5.537   3.032  1.9249 -1.4510  1.2279
  769MOL0     H 3801  10.481   5.334   2.619  0.4101 -1.3754 -0.1572
  769MOL0     H 3802  10.415   5.166   2.448 -1.9765 -1.8164  2.6276
  769MOL0     H 3803  10.358   5.045   2.282  2.5425  3.1330  1.5292
  769MOL0     H 3804  10.280   5.180   2.225  4.0624  0.4544  1.9861
  769MOL0     H 3805  10.102   5.043   2.125 -0.3396 -4.2832 -1.6340
  769MOL0     H 3806  10.127   4.911   2.235  0.3337 -0.3596  0.5424
  769MOL0     H 3807  10.212   4.891   2.001  0.1647  0.0411 -1.0757
  769MOL0     H 3808  10.328   4.847   2.133 -2.7502  0.3838  2.8968
  769MOL0     H 3809  10.467   5.020   2.101  0.8008 -0.1199 -1.0094
  769MOL0     H 3810  10.437   4.928   1.952  1.7004  1.7054 -0.4450
  769MOL0     H 3811  10.250   5.325   1.888  0.5206 -0.3498 -0.1471
  769MOL0     H 3812  10.022   5.213   2.553  1.1846 -2.6308  3.1826
  769MOL0     H 3813  10.027   5.342   2.845  2.8124 -2.6247 -0.7007
  769MOL0     H 3814  10.041   5.500   2.762  1.2747 -0.2145 -3.6149
  769MOL0     H 3815   9.932   5.387   2.701 -0.7683  5.8537  1.6433
  770MOL0     O 3816  10.080   7.307   5.926 -0.2253  0.3795 -0.1168
  770MOL0     C 3817  10.182   7.257   5.880 -0.3360 -0.0886 -0.0071
  770MOL0     O 3818  10.288   7.216   5.961 -0.0566 -0.5069 -0.3200
  770MOL0     C 3819  10.302   7.252   6.088 -0.5710 -0.4752 -0.0708
  770MOL0     C 3820  10.324   7.165   6.191 -0.0796  0.8041 -0.5352
  770MOL0     C 3821  10.322   7.211   6.327 -0.2152 -0.3471 -0.3217
  770MOL0     C 3822  10.306   7.344   6.359 -0.3683 -0.8645  1.3819
  770MOL0     O 3823  10.301   7.379   6.492  0.3522 -0.3926  0.2172
  770MOL0     C 3824  10.289   7.519   6.529  1.0982 -0.2324  0.1239
  770MOL0     C 3825  10.421   7.597   6.515  0.1035 -0.3580 -0.3305
  770MOL0     C 3826  10.526   7.535   6.599 -0.3778 -1.1066  0.0164
  770MOL0     C 3827  10.558   7.619   6.725  0.3781  0.3402  0.2947
  770MOL0     C 3828  10.700   7.577   6.770  0.4077 -0.7398  0.1165
  770MOL0     C 3829  10.706   7.450   6.854 -0.3169  0.1928  0.8952
  770MOL0     C 3830  10.849   7.400   6.886  0.2995 -0.1550 -0.0267
  770MOL0     C 3831  10.894   7.324   6.768 -0.6307  0.3695  0.1485
  770MOL0     N 3832  11.015   7.255   6.800 -0.0522  0.4556  0.2490
  770MOL0     C 3833  11.133   7.316   6.811  0.3782  0.4553 -0.3827
  770MOL0     C 3834  11.226   7.219   6.833 -0.1184 -0.4642 -0.6868
  770MOL0     C 3835  11.375   7.239   6.837 -0.2618 -0.2812 -0.6844
  770MOL0     C 3836  11.447   7.245   6.710  0.4067 -0.1945  0.0654
  770MOL0     C 3837  11.500   7.394   6.685 -0.0842 -0.7884 -0.4285
  770MOL0     C 3838  11.597   7.409   6.563 -0.2518  0.8251  0.6148
  770MOL0     O 3839  11.527   7.460   6.449 -0.0500 -0.3590 -0.0973
  770MOL0     C 3840  11.592   7.515   6.347  0.7874 -0.6010 -0.5715
  770MOL0     C 3841  11.505   7.567   6.250  0.3253  1.1564 -0.6046
  770MOL0     C 3842  11.555   7.637   6.140  0.6703  0.6591 -0.4025
  770MOL0     C 3843  11.694   7.625   6.109  0.9418 -0.5969 -0.5881
  770MOL0     C 3844  11.744   7.672   5.986  0.2541  0.1192 -0.0551
  770MOL0     O 3845  11.880   7.689   5.966 -0.3123  0.5913  0.0431
  770MOL0     C 3846  11.928   7.731   5.842 -0.2846  0.1413  0.0212
  770MOL0     C 3847  11.976   7.865   5.849  0.4918  0.7399 -0.9171
  770MOL0     C 3848  12.035   7.911   5.736 -1.1693 -0.9659 -0.2340
  770MOL0     C 3849  12.052   7.825   5.625  0.2802 -0.6063  0.5498
  770MOL0     O 3850  12.082   7.875   5.502 -0.4488  0.0854  0.4305
  770MOL0     C 3851  12.185   7.973   5.492 -0.2458  0.3005 -0.1140
  770MOL0     C 3852  12.254   7.974   5.351  0.0419  1.0030  0.7433
  770MOL0     C 3853  12.325   7.846   5.304 -0.8965  0.2392  0.8139
  770MOL0     C 3854  12.401   7.771   5.413  0.5939 -0.3305 -0.4489
  770MOL0     C 3855  12.499   7.848   5.487  0.3189 -0.7593  0.5154
  770MOL0     C 3856  12.559   7.786   5.615 -0.3999  0.2202  0.2414
  770MOL0     C 3857  12.634   7.645   5.592  0.0858 -0.0742 -0.6615
  770MOL0     C 3858  12.752   7.650   5.496  0.3628  0.1508 -0.8281
  770MOL0    Cl 3859  12.705   7.577   5.344 -0.1534 -0.1571  0.3640
  770MOL0     C 3860  11.984   7.707   5.618  0.4730  0.5394  0.5508
  770MOL0     C 3861  11.924   7.656   5.731  0.1218  0.1089 -0.1710
  770MOL0     O 3862  11.662   7.666   5.895 -0.0567 -0.2096 -0.1448
  770MOL0     C 3863  11.777   7.557   6.207 -0.5744  0.0251  0.2269
  770MOL0     C 3864  11.727   7.509   6.331  0.2980  0.2749  0.3075
  770MOL0     N 3865  11.167   7.099   6.834  0.1528 -0.4117 -0.3571
  770MOL0     N 3866  11.035   7.117   6.818 -0.1254 -0.0133  0.0470
  770MOL0     C 3867  10.297   7.435   6.249 -0.4855  1.0187  0.7737
  770MOL0     C 3868  10.301   7.389   6.115 -0.0243 -1.0934 -0.0256
  770MOL0     C 3869  10.198   7.235   5.735  0.2526  0.0061  0.2478
  770MOL0     C 3870  10.228   7.329   5.642 -0.2195 -0.1394  0.8198
  770MOL0     C 3871  10.262   7.296   5.509 -0.0959 -0.4187 -0.4773
  770MOL0     C 3872  10.280   7.159   5.467  0.4210 -0.1782 -0.9533
  770MOL0     O 3873  10.305   7.140   5.338  0.0001  0.1407  0.0423
  770MOL0     C 3874  10.213   7.053   5.264 -1.4397 -0.0508 -1.0110
  770MOL0     C 3875  10.259   7.042   5.118 -0.7265  0.5515  0.5691
  770MOL0     C 3876  10.401   6.971   5.096 -0.1758 -0.3533  0.2615
  770MOL0     C 3877  10.393   6.815   5.108 -0.2469  0.4875  0.3636
  770MOL0     C 3878  10.416   6.765   5.240 -0.7097 -0.2308 -1.4958
  770MOL0     C 3879  10.418   6.703   5.342  0.0472 -0.5663  0.0810
  770MOL0     C 3880  10.263   7.063   5.560  0.3554 -0.9261  0.3786
  770MOL0     C 3881  10.217   7.090   5.695  0.5058 -0.4119  0.2131
  770MOL0     C 3882  10.190   6.968   5.783 -0.0027 -0.1804  0.2032
  770MOL0     H 3883  10.335   7.059   6.169 -1.8683  1.0259 -2.7458
  770MOL0     H 3884  10.336   7.146   6.413 -1.0684 -2.5499 -1.7750
  770MOL0     H 3885  10.214   7.564   6.463  1.9256 -0.3716 -0.9299
  770MOL0     H 3886  10.255   7.536   6.632  0.8471 -0.4602  0.0812
  770MOL0     H 3887  10.403   7.704   6.530  2.2390  0.6677 -3.8970
  770MOL0     H 3888  10.462   7.590   6.413 -2.5218 -4.0462 -1.3399
  770MOL0     H 3889  10.611   7.512   6.534 -0.0699 -0.3462  0.1345
  770MOL0     H 3890  10.503   7.441   6.649 -1.2802 -0.1807  1.4215
  770MOL0     H 3891  10.551   7.726   6.701  1.5327 -0.0236 -1.9536
  770MOL0     H 3892  10.485   7.604   6.805 -2.9215  3.1029 -1.9065
  770MOL0     H 3893  10.772   7.580   6.688 -0.1843 -1.5846 -0.4595
  770MOL0     H 3894  10.728   7.662   6.832 -2.2301 -0.9624  1.7714
  770MOL0     H 3895  10.650   7.476   6.945 -1.2768  1.1548  0.0540
  770MOL0     H 3896  10.634   7.377   6.817 -2.0345  2.1937  0.0732
  770MOL0     H 3897  10.852   7.330   6.970  0.8030  1.1508  1.0866
  770MOL0     H 3898  10.916   7.486   6.902 -3.2969  2.8301  0.2211
  770MOL0     H 3899  10.817   7.249   6.746  0.2741 -0.2165 -1.1310
  770MOL0     H 3900  10.907   7.390   6.681 -2.5114 -0.2135 -0.6473
  770MOL0     H 3901  11.143   7.422   6.790  0.0059  0.3491 -1.1225
  770MOL0     H 3902  11.395   7.320   6.908 -1.0899 -1.3407  0.8152
  770MOL0     H 3903  11.410   7.153   6.894  1.9287  1.3839  0.6906
  770MOL0     H 3904  11.531   7.177   6.722 -0.5451 -1.3688  0.2345
  770MOL0     H 3905  11.392   7.205   6.625  0.4378 -0.2848  0.0887
  770MOL0     H 3906  11.549   7.432   6.775 -0.2904  2.2868 -1.4959
  770MOL0     H 3907  11.420   7.465   6.660  1.6165  0.4354 -2.9238
  770MOL0     H 3908  11.647   7.315   6.541  0.4533  0.7316  2.4332
  770MOL0     H 3909  11.673   7.481   6.593  2.2362 -2.0148  1.6100
  770MOL0     H 3910  11.399   7.552   6.267  0.3702  0.8091 -0.6377
  770MOL0     H 3911  11.492   7.680   6.063  1.3697  1.1922 -0.6996
  770MOL0     H 3912  11.975   7.910   5.948 -2.3845 -1.3561  0.1404
  770MOL0     H 3913  12.079   8.010   5.735  2.0867 -2.2450  1.0155
  770MOL0     H 3914  12.134   8.069   5.490  1.9987  1.6347 -3.8418
  770MOL0     H 3915  12.252   7.980   5.578 -0.2570  1.1872 -0.1700
  770MOL0     H 3916  12.170   7.991   5.282  1.9409  0.7771 -1.7541
  770MOL0     H 3917  12.317   8.062   5.335  0.6229  0.5301  0.4164
  770MOL0     H 3918  12.241   7.794   5.258 -1.4574  0.5961  1.4134
  770MOL0     H 3919  12.399   7.874   5.229 -0.3615  2.0516  1.9476
  770MOL0     H 3920  12.435   7.676   5.370 -2.3127 -0.8218 -1.9410
  770MOL0     H 3921  12.325   7.747   5.488 -1.0233  3.0067 -0.8177
  770MOL0     H 3922  12.450   7.936   5.528  0.2195 -1.0092  0.9348
  770MOL0     H 3923  12.583   7.872   5.421  0.4750  0.5325  1.1495
  770MOL0     H 3924  12.620   7.861   5.667 -1.6339  1.2415  0.2663
  770MOL0     H 3925  12.482   7.751   5.684  0.8211 -1.3210  0.8993
  770MOL0     H 3926  12.568   7.568   5.553 -1.2062  1.4600 -1.6366
  770MOL0     H 3927  12.668   7.615   5.692 -1.1532 -0.9282 -0.4849
  770MOL0     H 3928  12.798   7.748   5.477  0.5364  0.1831 -0.2809
  770MOL0     H 3929  12.830   7.589   5.544 -1.0039  0.4101  1.9617
  770MOL0     H 3930  11.986   7.639   5.533 -2.1945  3.2697 -1.9613
  770MOL0     H 3931  11.886   7.555   5.732  1.8316 -0.5903 -1.1400
  770MOL0     H 3932  11.882   7.564   6.184 -0.5028  0.9373  0.7883
  770MOL0     H 3933  11.794   7.474   6.409 -1.3955  0.0478  1.7341
  770MOL0     H 3934  10.298   7.544   6.245 -0.3972  1.0192 -2.9830
  770MOL0     H 3935  10.300   7.471   6.044  0.5372 -1.2878 -0.2623
  770MOL0     H 3936  10.224   7.435   5.664 -2.4213 -0.5399  2.7622
  770MOL0     H 3937  10.284   7.357   5.421  1.8110  1.6637  1.2989
  770MOL0     H 3938  10.115   7.095   5.289 -1.0341 -1.1946  3.2594
  770MOL0     H 3939  10.207   6.958   5.317  1.8300  2.0988  3.9618
  770MOL0     H 3940  10.254   7.143   5.076  0.1248  0.3435 -0.0765
  770MOL0     H 3941  10.175   6.989   5.072 -0.4599 -1.4882  2.3008
  770MOL0     H 3942  10.471   7.009   5.171  0.7593  0.2662 -0.8855
  770MOL0     H 3943  10.440   6.997   4.997 -2.5084 -1.8104 -1.1346
  770MOL0     H 3944  10.296   6.785   5.069  0.0595  2.5282 -2.2796
  770MOL0     H 3945  10.472   6.768   5.049 -1.0759 -1.7156  0.9278
  770MOL0     H 3946  10.416   6.639   5.428  1.0021 -0.9279 -0.1648
  770MOL0     H 3947  10.265   6.958   5.533 -0.9863 -1.2454  1.3847
  770MOL0     H 3948  10.193   6.866   5.744 -0.3599 -1.1250  2.4423
  770MOL0     H 3949  10.262   6.976   5.866  1.9709  0.5471 -1.4923
  770MOL0     H 3950  10.090   6.976   5.828 -1.8638 -1.0947 -3.4198
  771MOL0     O 3951   0.622   9.791  10.185 -0.4203 -0.1314 -0.0014
  771MOL0     C 3952   0.507   9.795  10.139 -0.2417  0.0890 -0.0769
  771MOL0     O 3953   0.398   9.735  10.192  0.2092 -0.1947  0.5322
  771MOL0     C 3954   0.409   9.648  10.300 -0.0954  1.6609  0.1162
  771MOL0     C 3955   0.371   9.514  10.291 -0.3638 -0.4126  0.1609
  771MOL0     C 3956   0.387   9.423  10.398  0.1502  0.6506 -0.0896
  771MOL0     C 3957   0.442   9.464  10.516 -0.3906  0.0960 -0.9020
  771MOL0     O 3958   0.459   9.391  10.628  0.0443  0.0451  0.4603
  771MOL0     C 3959   0.589   9.359  10.665 -0.2728 -0.3358  0.2990
  771MOL0     C 3960   0.597   9.202  10.663 -0.3417  0.0847  1.2227
  771MOL0     C 3961   0.745   9.160  10.647 -0.9228  0.2764  0.6171
  771MOL0     C 3962   0.746   9.006  10.671  0.2666  0.0456  0.4909
  771MOL0     C 3963   0.885   8.943  10.689 -0.5576 -0.1685 -0.6918
  771MOL0     C 3964   0.871   8.800  10.772 -0.1692 -0.8661  0.2884
  771MOL0     C 3965   0.816   8.698  10.682 -0.3763  0.9185 -0.2253
  771MOL0     C 3966   0.815   8.550  10.736 -0.7432  0.3944 -0.4474
  771MOL0     N 3967   0.698   8.525  10.826 -0.1617 -0.0944  0.0705
  771MOL0     C 3968   0.573   8.580  10.832 -0.0668 -0.1343  0.3708
  771MOL0     C 3969   0.530   8.527  10.946  0.2198  0.1201 -0.9803
  771MOL0     C 3970   0.406   8.582  11.011  0.9597 -0.4733 -0.1513
  771MOL0     C 3971   0.292   8.490  11.059 -0.0515 -0.4267 -0.7095
  771MOL0     C 3972   0.222   8.425  10.941  0.7569 -0.5992  0.0046
  771MOL0     C 3973   0.118   8.325  10.985 -1.1363 -0.0334 -0.2047
  771MOL0     O 3974   0.100   8.237  10.873 -0.1471  0.3324 -0.4005
  771MOL0     C 3975   0.047   8.113  10.882  0.9351 -0.4633 -0.1975
  771MOL0     C 3976  -0.001   8.053  11.003 -1.0721 -0.6690  0.2840
  771MOL0     C 3977  -0.070   7.933  11.001  0.4283 -0.6051  1.1425
  771MOL0     C 3978  -0.108   7.879  10.874 -1.0315  0.4106 -0.4934
  771MOL0     C 3979  -0.207   7.769  10.862 -0.5264 -0.5936  0.3423
  771MOL0     O 3980  -0.256   7.762  10.735  0.0736 -0.2709  0.4760
  771MOL0     C 3981  -0.346   7.663  10.713  0.3802 -0.6467  0.0798
  771MOL0     C 3982  -0.299   7.547  10.648  0.9350 -0.2765 -0.0497
  771MOL0     C 3983  -0.382   7.430  10.640  0.0799 -0.4032  0.1362
  771MOL0     C 3984  -0.513   7.442  10.698  0.3588 -0.4908 -0.1367
  771MOL0     O 3985  -0.602   7.340  10.694 -0.0579  0.6266  0.0688
  771MOL0     C 3986  -0.560   7.232  10.781  0.8959  0.5084 -0.0850
  771MOL0     C 3987  -0.686   7.147  10.809  0.3242  0.4914 -0.9376
  771MOL0     C 3988  -0.759   7.218  10.925 -0.3268 -0.4740  0.0335
  771MOL0     C 3989  -0.866   7.127  10.985  0.6316  0.6258 -0.2538
  771MOL0     C 3990  -0.962   7.191  11.093  0.2231  0.4428 -0.9024
  771MOL0     C 3991  -1.027   7.325  11.052  0.5579  0.3655 -0.4323
  771MOL0     C 3992  -1.138   7.322  10.949 -0.6027  0.5500 -0.1357
  771MOL0     C 3993  -1.211   7.456  10.931  0.5104 -0.3874  0.6884
  771MOL0    Cl 3994  -1.105   7.566  10.841 -0.3624  0.0336  0.3953
  771MOL0     C 3995  -0.561   7.559  10.749  1.2963 -0.2879 -0.4872
  771MOL0     C 3996  -0.472   7.675  10.762  1.1515  0.4087 -0.6634
  771MOL0     O 3997  -0.267   7.727  10.964  0.4844  0.0288  0.3454
  771MOL0     C 3998  -0.056   7.933  10.757  0.6455 -0.0195  0.1391
  771MOL0     C 3999   0.012   8.056  10.760 -0.8031  0.7743 -0.3118
  771MOL0     N 4000   0.621   8.458  11.020  0.2100 -0.8463 -0.3716
  771MOL0     N 4001   0.724   8.446  10.937  0.2249 -0.2162  0.1949
  771MOL0     C 4002   0.470   9.604  10.526 -0.2762  0.7453 -0.0180
  771MOL0     C 4003   0.452   9.695  10.423 -0.2902 -0.2719 -0.0119
  771MOL0     C 4004   0.500   9.876  10.014  0.5632  0.8061 -0.4581
  771MOL0     C 4005   0.616   9.932   9.956 -0.9474  0.2130  0.0269
  771MOL0     C 4006   0.617  10.002   9.840 -0.2194 -0.6707  1.3078
  771MOL0     C 4007   0.494  10.023   9.769 -0.6245 -0.8042 -0.2926
  771MOL0     O 4008   0.489  10.082   9.642  0.4375  0.3984  0.9635
  771MOL0     C 4009   0.609  10.133   9.587  0.0034  0.4970 -0.3695
  771MOL0     C 4010   0.576  10.211   9.463  0.0829 -0.0624 -0.2558
  771MOL0     C 4011   0.560  10.365   9.495  0.1357 -0.1059 -0.0946
  771MOL0     C 4012   0.700  10.434   9.511  0.3266 -0.5208  0.9675
  771MOL0     C 4013   0.693  10.582   9.509  0.3379  0.0724 -0.2000
  771MOL0     C 4014   0.709  10.708   9.506 -0.8798  0.0756 -0.0867
  771MOL0     C 4015   0.385   9.958   9.816  0.3327 -0.3022 -0.3060
  771MOL0     C 4016   0.384   9.888   9.936  0.6512  0.6571  0.7514
  771MOL0     C 4017   0.254   9.809   9.965 -1.0612  0.5636 -0.2415
  771MOL0     H 4018   0.332   9.471  10.199 -1.0861  1.6252 -0.5308
  771MOL0     H 4019   0.362   9.317  10.401  0.3735  0.5683 -1.0324
  771MOL0     H 4020   0.658   9.404  10.594 -0.7783  0.6196  0.4002
  771MOL0     H 4021   0.608   9.403  10.764  1.7303 -1.4845  0.4808
  771MOL0     H 4022   0.547   9.146  10.583  1.9145 -1.3298  0.7073
  771MOL0     H 4023   0.553   9.161  10.755 -3.6105 -1.2493 -0.7544
  771MOL0     H 4024   0.810   9.203  10.724 -3.2466  2.2847  1.6040
  771MOL0     H 4025   0.785   9.178  10.548  0.5059 -2.6443  0.5422
  771MOL0     H 4026   0.705   8.983  10.769 -1.0564  0.6658  0.1010
  771MOL0     H 4027   0.688   8.957  10.592  1.8471  0.8316 -1.2408
  771MOL0     H 4028   0.931   8.916  10.594 -2.0380 -2.9290 -0.7437
  771MOL0     H 4029   0.955   9.006  10.744 -0.2065  0.5297 -1.9151
  771MOL0     H 4030   0.973   8.767  10.794  0.7330  1.9921  0.8401
  771MOL0     H 4031   0.815   8.823  10.863 -1.4173  4.0572 -1.3723
  771MOL0     H 4032   0.881   8.708  10.594 -0.1545 -0.9727 -0.3119
  771MOL0     H 4033   0.712   8.717  10.657 -1.8583 -1.7378  3.1684
  771MOL0     H 4034   0.790   8.488  10.649 -0.3103 -1.0281  0.4095
  771MOL0     H 4035   0.909   8.531  10.789  0.7884  4.9986 -1.0983
  771MOL0     H 4036   0.525   8.650  10.765  1.4109  1.0034  0.4678
  771MOL0     H 4037   0.433   8.646  11.095  0.6347  1.1532 -1.2409
  771MOL0     H 4038   0.367   8.647  10.932 -0.2020 -0.7921  0.1383
  771MOL0     H 4039   0.341   8.420  11.128  0.1041  1.3907  1.1438
  771MOL0     H 4040   0.220   8.555  11.110 -0.9838 -2.8720  1.2892
  771MOL0     H 4041   0.299   8.367  10.890  0.9229 -1.1583  0.8739
  771MOL0     H 4042   0.189   8.506  10.875  3.0185  0.5879  0.2321
  771MOL0     H 4043   0.032   8.388  11.010 -2.3078 -2.0015  0.9941
  771MOL0     H 4044   0.156   8.276  11.075 -1.1819  0.9785  0.3758
  771MOL0     H 4045   0.002   8.099  11.101  1.7139 -1.3837  0.6071
  771MOL0     H 4046  -0.099   7.875  11.088 -1.2160  1.2722  1.9224
  771MOL0     H 4047  -0.199   7.542  10.607  0.8805  0.7154 -0.3246
  771MOL0     H 4048  -0.347   7.340  10.591 -0.6770 -0.6081 -0.0426
  771MOL0     H 4049  -0.479   7.180  10.730 -1.1903 -1.5772 -1.5061
  771MOL0     H 4050  -0.518   7.266  10.876  3.5848  0.6270 -1.2179
  771MOL0     H 4051  -0.750   7.150  10.720 -0.0979  0.3992 -0.6408
  771MOL0     H 4052  -0.662   7.045  10.837 -1.5721 -0.0468 -1.0993
  771MOL0     H 4053  -0.692   7.249  11.005  1.0474 -2.5205 -0.2257
  771MOL0     H 4054  -0.790   7.316  10.889 -0.4277 -0.8512 -0.9341
  771MOL0     H 4055  -0.816   7.039  11.027 -1.1174 -0.4616 -0.3511
  771MOL0     H 4056  -0.925   7.089  10.901  1.5570  0.9868 -1.0961
  771MOL0     H 4057  -0.911   7.208  11.188 -1.1810 -0.1377 -0.0079
  771MOL0     H 4058  -1.048   7.123  11.106 -0.7696  1.6716 -0.8896
  771MOL0     H 4059  -1.084   7.351  11.142 -0.4111 -0.8092 -0.6778
  771MOL0     H 4060  -0.952   7.404  11.045  0.6839  0.2324 -0.5730
  771MOL0     H 4061  -1.220   7.259  10.982 -0.8754  1.3763  0.8042
  771MOL0     H 4062  -1.099   7.292  10.851  2.1935  3.0054  0.0455
  771MOL0     H 4063  -1.301   7.431  10.874 -0.8017 -1.7430  3.1565
  771MOL0     H 4064  -1.258   7.496  11.022 -0.0943  0.0272  0.2037
  771MOL0     H 4065  -0.665   7.566  10.777  2.2374  0.4016  3.4676
  771MOL0     H 4066  -0.508   7.761  10.818  0.3045 -1.0734  1.1961
  771MOL0     H 4067  -0.080   7.883  10.663  0.0420 -1.1329  0.8579
  771MOL0     H 4068   0.042   8.096  10.664 -0.1556 -1.9441 -1.3162
  771MOL0     H 4069   0.492   9.632  10.629 -0.1651 -1.5620  0.6382
  771MOL0     H 4070   0.470   9.800  10.447  0.2896 -1.0804  3.7107
  771MOL0     H 4071   0.719   9.918   9.987 -0.7647  2.9913  0.9901
  771MOL0     H 4072   0.714  10.038   9.807 -0.6984  1.1635  1.8191
  771MOL0     H 4073   0.667  10.044   9.563  1.8081  0.4305  3.4380
  771MOL0     H 4074   0.664  10.191   9.662 -0.3777  0.5603 -0.1387
  771MOL0     H 4075   0.499  10.161   9.404 -2.9562  2.1615  1.5456
  771MOL0     H 4076   0.664  10.203   9.399 -0.5751 -1.3269 -1.0341
  771MOL0     H 4077   0.503  10.384   9.587  2.1349 -1.1129  1.4146
  771MOL0     H 4078   0.507  10.400   9.406 -0.9513 -1.7414 -0.1444
  771MOL0     H 4079   0.751  10.399   9.601 -0.4088 -0.2799  1.4868
  771MOL0     H 4080   0.773  10.420   9.431  1.6898  1.3194  1.8119
  771MOL0     H 4081   0.718  10.814   9.511  0.6078 -0.0287  0.0342
  771MOL0     H 4082   0.292   9.962   9.760  0.3551  2.1489 -0.2744
  771MOL0     H 4083   0.274   9.702   9.975 -0.8589  0.4224 -1.9871
  771MOL0     H 4084   0.209   9.840  10.060 -2.2522 -0.7944 -0.3216
  771MOL0     H 4085   0.183   9.835   9.886 -0.4812  2.2158 -0.2385
  772MOL0     O 4086   1.340   7.433   8.497  0.2679 -0.0001 -0.6404
  772MOL0     C 4087   1.392   7.521   8.431 -0.4801  0.3992 -0.1597
  772MOL0     O 4088   1.360   7.544   8.299  0.4223  0.0393  0.1550
  772MOL0     C 4089   1.265   7.476   8.228 -0.4404  1.2601 -0.1123
  772MOL0     C 4090   1.279   7.477   8.087  0.6415  1.1083 -0.1178
  772MOL0     C 4091   1.223   7.369   8.014 -0.0727  0.0824  0.1588
  772MOL0     C 4092   1.125   7.288   8.068  0.0905 -0.1171  0.2292
  772MOL0     O 4093   1.050   7.201   8.000  0.2350 -0.3806  0.4835
  772MOL0     C 4094   1.119   7.150   7.886  0.9469 -0.4776 -0.3394
  772MOL0     C 4095   1.048   7.016   7.862  0.9360 -0.1481 -0.0371
  772MOL0     C 4096   1.095   6.925   7.974 -0.5922  0.3306 -0.1515
  772MOL0     C 4097   0.993   6.811   8.013 -0.6387 -0.3109  0.2020
  772MOL0     C 4098   0.859   6.843   8.086  0.1454 -0.2959  0.2213
  772MOL0     C 4099   0.892   6.886   8.225 -0.1710 -0.4796 -0.3762
  772MOL0     C 4100   0.784   6.920   8.333  0.3670  0.3404  0.3171
  772MOL0     C 4101   0.745   7.062   8.311 -0.0288 -0.0157  0.2832
  772MOL0     N 4102   0.673   7.126   8.427  0.0726 -0.4124 -0.7778
  772MOL0     C 4103   0.749   7.171   8.534 -0.0708  0.1071  0.5368
  772MOL0     C 4104   0.660   7.245   8.611  0.1193 -0.0901 -0.6822
  772MOL0     C 4105   0.705   7.320   8.732 -0.6313  0.4197  0.0766
  772MOL0     C 4106   0.826   7.418   8.684  0.3885 -0.4368  0.4180
  772MOL0     C 4107   0.875   7.510   8.793 -0.3809  0.5309 -0.2866
  772MOL0     C 4108   0.911   7.450   8.936  0.2446 -0.3778  0.5990
  772MOL0     O 4109   1.030   7.373   8.940  0.0055 -0.5425  0.4716
  772MOL0     C 4110   1.133   7.442   9.005 -0.7684  0.3156 -0.0022
  772MOL0     C 4111   1.227   7.529   8.945  0.3096 -0.8241  0.4245
  772MOL0     C 4112   1.333   7.588   9.015 -0.2095  1.1652 -1.1928
  772MOL0     C 4113   1.338   7.568   9.157 -0.6532  0.4432  0.2552
  772MOL0     C 4114   1.439   7.634   9.227 -0.5144  0.3323  0.2962
  772MOL0     O 4115   1.540   7.689   9.146 -0.3869  0.2880 -0.9833
  772MOL0     C 4116   1.663   7.717   9.206  0.4025 -0.8385  0.2174
  772MOL0     C 4117   1.728   7.618   9.273 -0.4202  0.3314  0.4451
  772MOL0     C 4118   1.838   7.644   9.360 -0.5970  0.2847  0.3152
  772MOL0     C 4119   1.879   7.780   9.373  0.6966  0.6291  0.8379
  772MOL0     O 4120   1.996   7.822   9.423  0.7241 -0.4003  0.3036
  772MOL0     C 4121   2.097   7.751   9.493  0.1569 -0.1427  0.7416
  772MOL0     C 4122   2.227   7.838   9.525  0.8000  0.7425  0.2874
  772MOL0     C 4123   2.270   7.806   9.669 -0.4025 -0.4894  0.3174
  772MOL0     C 4124   2.384   7.904   9.711 -0.3338 -0.0374  0.0987
  772MOL0     C 4125   2.424   7.867   9.854  0.4402  0.1979 -1.0763
  772MOL0     C 4126   2.525   7.748   9.855 -0.1916 -0.2780  0.2593
  772MOL0     C 4127   2.573   7.715   9.997  0.3596 -0.4406 -0.1777
  772MOL0     C 4128   2.471   7.634  10.079  1.3201 -0.6366  0.1145
  772MOL0    Cl 4129   2.542   7.566  10.222  0.1553  0.5276 -0.7851
  772MOL0     C 4130   1.811   7.872   9.297  0.4964  0.4199  0.1010
  772MOL0     C 4131   1.701   7.853   9.210  0.3393  0.3777  0.1719
  772MOL0     O 4132   1.444   7.630   9.349 -0.1004  0.5361  0.0506
  772MOL0     C 4133   1.237   7.493   9.211 -0.6786  0.0086  0.6239
  772MOL0     C 4134   1.149   7.417   9.135 -0.1996 -0.5541 -0.7143
  772MOL0     N 4135   0.541   7.234   8.548  1.1390 -0.6784  0.7906
  772MOL0     N 4136   0.541   7.171   8.436 -0.0947 -0.2076  0.2038
  772MOL0     C 4137   1.084   7.315   8.201 -0.1740  1.2215  0.0721
  772MOL0     C 4138   1.158   7.403   8.281 -0.3914  1.0537 -0.6727
  772MOL0     C 4139   1.499   7.596   8.509  0.2413 -0.2739  0.2802
  772MOL0     C 4140   1.490   7.602   8.643  0.1814 -0.2492 -0.0257
  772MOL0     C 4141   1.586   7.680   8.722  0.1691 -0.2495 -0.9886
  772MOL0     C 4142   1.692   7.740   8.660  1.1710  0.3972 -0.7547
  772MOL0     O 4143   1.776   7.807   8.739  0.8078  0.1026 -0.1645
  772MOL0     C 4144   1.790   7.943   8.705 -0.4576  0.1709  0.5584
  772MOL0     C 4145   1.876   7.997   8.825  0.0061 -0.7098  0.9792
  772MOL0     C 4146   1.883   8.143   8.801 -0.4574 -0.4862  0.0545
  772MOL0     C 4147   1.953   8.209   8.925  1.1219  0.1975 -0.0984
  772MOL0     C 4148   1.858   8.223   9.036  0.6609  0.2775 -0.0740
  772MOL0     C 4149   1.776   8.250   9.123 -0.0094  0.6709 -0.2734
  772MOL0     C 4150   1.695   7.732   8.518  0.6273 -0.1812  0.1701
  772MOL0     C 4151   1.602   7.662   8.438 -0.5399  0.4735 -0.5112
  772MOL0     C 4152   1.635   7.640   8.287 -0.0663 -0.1599  0.2940
  772MOL0     H 4153   1.359   7.530   8.037 -0.8718  1.6255 -2.1646
  772MOL0     H 4154   1.238   7.369   7.907  1.8381  0.6475  0.3856
  772MOL0     H 4155   1.096   7.208   7.796 -0.8262 -1.9723 -0.9128
  772MOL0     H 4156   1.227   7.144   7.902  0.6491  2.2434  4.3798
  772MOL0     H 4157   1.081   6.976   7.766  1.7769 -0.7821  0.5035
  772MOL0     H 4158   0.940   7.033   7.860  0.8949 -0.2883  0.7475
  772MOL0     H 4159   1.123   6.984   8.061  0.9428  0.0268 -0.4046
  772MOL0     H 4160   1.190   6.879   7.945 -0.5144 -1.4695  2.5411
  772MOL0     H 4161   0.975   6.755   7.920  0.6955  0.3991 -0.5250
  772MOL0     H 4162   1.042   6.739   8.080  0.6870  1.5866  1.3734
  772MOL0     H 4163   0.786   6.909   8.039  0.4755 -0.7764 -1.0021
  772MOL0     H 4164   0.793   6.757   8.103 -0.4900 -0.3153 -2.0265
  772MOL0     H 4165   0.943   6.796   8.261 -2.1234 -1.3040  0.4868
  772MOL0     H 4166   0.959   6.972   8.232 -1.3188  0.3636  0.6375
  772MOL0     H 4167   0.828   6.903   8.432 -0.4033 -1.0430  0.4495
  772MOL0     H 4168   0.697   6.854   8.329 -0.1826  0.8736  2.2672
  772MOL0     H 4169   0.831   7.122   8.279  2.1144 -2.3161  1.3872
  772MOL0     H 4170   0.676   7.054   8.226 -2.0248 -2.1041  1.9596
  772MOL0     H 4171   0.855   7.161   8.552  0.6982  0.9583 -2.8227
  772MOL0     H 4172   0.634   7.381   8.789  0.6805 -2.1427  5.1346
  772MOL0     H 4173   0.739   7.248   8.808 -3.1039  0.6076  1.4934
  772MOL0     H 4174   0.917   7.365   8.655  0.5371 -0.5994  1.1533
  772MOL0     H 4175   0.800   7.476   8.595  0.3747  0.8188  1.2109
  772MOL0     H 4176   0.800   7.589   8.804 -1.2959  0.0241 -2.3034
  772MOL0     H 4177   0.974   7.550   8.770 -0.6793  1.7963  0.5687
  772MOL0     H 4178   0.831   7.380   8.960  1.0645 -2.3660 -1.9772
  772MOL0     H 4179   0.902   7.537   9.002 -0.4760 -0.3897  0.5292
  772MOL0     H 4180   1.223   7.547   8.838  5.3534 -1.1072 -0.0911
  772MOL0     H 4181   1.396   7.658   8.960 -0.1573  2.2038  0.1626
  772MOL0     H 4182   1.691   7.517   9.256  2.0872 -0.8068  1.3041
  772MOL0     H 4183   1.879   7.568   9.425  0.3808  1.9608  1.7680
  772MOL0     H 4184   2.051   7.717   9.586  1.2777  3.0434  2.6079
  772MOL0     H 4185   2.129   7.671   9.425 -0.4502  1.2802 -1.3189
  772MOL0     H 4186   2.310   7.812   9.459 -1.0235 -0.7998 -1.5571
  772MOL0     H 4187   2.204   7.944   9.509  3.4267  1.1764 -1.1917
  772MOL0     H 4188   2.191   7.824   9.743 -0.1500 -1.3899  0.8381
  772MOL0     H 4189   2.301   7.701   9.680  0.2942 -0.1961  1.2416
  772MOL0     H 4190   2.340   8.004   9.706 -0.0911  0.0155 -1.2059
  772MOL0     H 4191   2.472   7.904   9.646  0.8757  2.9434  1.5362
  772MOL0     H 4192   2.335   7.839   9.911  1.6401 -1.7182 -0.0241
  772MOL0     H 4193   2.470   7.953   9.903 -1.4450  0.3885  0.4604
  772MOL0     H 4194   2.473   7.665   9.807 -1.7786  0.5348  0.5311
  772MOL0     H 4195   2.614   7.770   9.795 -1.1923  0.5703 -0.9312
  772MOL0     H 4196   2.583   7.812  10.047 -0.0721 -1.0623  1.1428
  772MOL0     H 4197   2.668   7.659   9.998 -0.1433 -1.3415 -0.9345
  772MOL0     H 4198   2.379   7.690  10.096  0.8298 -1.9971  2.3096
  772MOL0     H 4199   2.422   7.556  10.019 -0.8185  1.7530 -1.4618
  772MOL0     H 4200   1.842   7.976   9.299  1.8466  0.0520 -0.4104
  772MOL0     H 4201   1.636   7.928   9.166 -2.0181 -0.7722  1.5055
  772MOL0     H 4202   1.240   7.483   9.319 -2.7728  0.0283  0.7118
  772MOL0     H 4203   1.091   7.347   9.194  2.1498 -2.2356 -0.2600
  772MOL0     H 4204   1.010   7.255   8.253 -0.8837  0.9276 -1.2178
  772MOL0     H 4205   1.132   7.391   8.386  1.4740 -1.7095 -0.4115
  772MOL0     H 4206   1.402   7.559   8.689 -1.0659  2.6606  0.5207
  772MOL0     H 4207   1.583   7.684   8.831  0.5734  1.2396 -1.0211
  772MOL0     H 4208   1.696   7.999   8.706  0.1777  1.3067 -0.4924
  772MOL0     H 4209   1.846   7.942   8.611 -0.9355  0.1979  0.2640
  772MOL0     H 4210   1.980   7.967   8.807  0.9581  1.8419  1.8801
  772MOL0     H 4211   1.828   7.970   8.919 -1.7781  0.4356  0.4338
  772MOL0     H 4212   1.779   8.177   8.793 -0.7628 -0.7437  2.4139
  772MOL0     H 4213   1.940   8.182   8.716  0.8858  1.2688  1.6805
  772MOL0     H 4214   2.036   8.146   8.958  0.6411 -2.1055 -2.9081
  772MOL0     H 4215   2.001   8.306   8.909  4.0905 -1.3042 -1.0395
  772MOL0     H 4216   1.700   8.280   9.192 -0.2482  2.1342 -1.1206
  772MOL0     H 4217   1.787   7.764   8.470  3.1955 -0.0531  4.6113
  772MOL0     H 4218   1.591   7.719   8.225  2.1442  0.2087 -0.9275
  772MOL0     H 4219   1.744   7.640   8.277  0.1254 -0.7442  1.9793
  772MOL0     H 4220   1.602   7.540   8.260  0.8687  0.0742 -1.9690
  773MOL0     O 4221   9.484  10.267   7.456 -0.0664 -0.0374  0.5570
  773MOL0     C 4222   9.596  10.278   7.517  0.5834 -0.6342 -0.0198
  773MOL0     O 4223   9.682  10.381   7.508 -0.2385  0.4107 -0.0421
  773MOL0     C 4224   9.665  10.474   7.415  0.3997 -0.3707  1.1087
  773MOL0     C 4225   9.580  10.589   7.432 -0.3201  0.6022 -0.5473
  773MOL0     C 4226   9.579  10.699   7.345  0.9933 -0.0568  0.3100
  773MOL0     C 4227   9.663  10.698   7.235 -0.2062  0.3342  0.3138
  773MOL0     O 4228   9.674  10.795   7.143  0.1316  1.0049  0.1039
  773MOL0     C 4229   9.629  10.922   7.194  0.2029 -0.2171 -0.5525
  773MOL0     C 4230   9.644  11.035   7.089  0.3202  0.7562 -0.7509
  773MOL0     C 4231   9.625  11.178   7.147  0.7411 -0.4239 -0.9597
  773MOL0     C 4232   9.683  11.298   7.060  0.3539  0.2851  0.4313
  773MOL0     C 4233   9.661  11.436   7.134 -0.1659  1.1679  0.1503
  773MOL0     C 4234   9.528  11.501   7.090 -0.3089  0.8854  0.1354
  773MOL0     C 4235   9.501  11.635   7.159 -0.2278 -0.4217 -0.0360
  773MOL0     C 4236   9.356  11.676   7.116  0.7827 -0.0405 -0.6183
  773MOL0     N 4237   9.285  11.766   7.212 -0.6430  0.0088  0.7386
  773MOL0     C 4238   9.346  11.876   7.271  0.0119 -0.0844  0.1153
  773MOL0     C 4239   9.246  11.955   7.299  0.4064  0.2928 -0.7630
  773MOL0     C 4240   9.273  12.101   7.361 -0.3551  0.3425  0.9607
  773MOL0     C 4241   9.196  12.119   7.487 -0.2108 -0.7199  0.7411
  773MOL0     C 4242   9.071  12.209   7.458 -0.5606 -0.1746 -0.5378
  773MOL0     C 4243   8.977  12.205   7.579 -0.0677 -0.1619  0.9230
  773MOL0     O 4244   9.015  12.283   7.694  0.1952 -0.7290 -0.2963
  773MOL0     C 4245   9.068  12.415   7.667 -0.1053  0.1829  0.2039
  773MOL0     C 4246   9.002  12.499   7.573 -0.8109 -0.3727  0.1273
  773MOL0     C 4247   9.049  12.631   7.548 -0.0103 -0.4997 -0.5061
  773MOL0     C 4248   9.159  12.685   7.622 -0.2106 -0.2641  0.4749
  773MOL0     C 4249   9.216  12.825   7.613 -0.5784 -0.4302  0.3500
  773MOL0     O 4250   9.134  12.910   7.540 -0.4022  0.0103  0.6976
  773MOL0     C 4251   9.144  13.043   7.568  0.5555 -0.4687  0.2537
  773MOL0     C 4252   9.108  13.132   7.467  0.6353 -0.3683 -0.5173
  773MOL0     C 4253   9.112  13.268   7.490 -0.0698  0.2302  0.5185
  773MOL0     C 4254   9.142  13.314   7.618  1.0017 -0.9002  0.4183
  773MOL0     O 4255   9.145  13.451   7.632  0.1897 -0.6091 -0.6289
  773MOL0     C 4256   9.241  13.507   7.721  0.4080  1.1111  0.4536
  773MOL0     C 4257   9.240  13.654   7.702 -0.4959  0.4686  0.3141
  773MOL0     C 4258   9.344  13.725   7.788 -0.6128 -0.3543  0.0931
  773MOL0     C 4259   9.469  13.760   7.715  0.1539 -0.6764  0.1436
  773MOL0     C 4260   9.563  13.840   7.810 -0.3275 -0.0336 -1.3505
  773MOL0     C 4261   9.692  13.880   7.738 -0.3738  0.0273  0.7028
  773MOL0     C 4262   9.799  13.962   7.819 -0.4212 -0.9912  0.6479
  773MOL0     C 4263   9.872  13.879   7.921  0.7402  0.2119 -0.6121
  773MOL0    Cl 4264   9.982  13.992   8.012 -0.3348 -0.0408  0.2202
  773MOL0     C 4265   9.173  13.226   7.721 -0.2402 -0.3375 -0.8751
  773MOL0     C 4266   9.183  13.094   7.695  0.7444 -0.1848 -0.0596
  773MOL0     O 4267   9.327  12.851   7.660  0.1751  0.9058 -0.4408
  773MOL0     C 4268   9.234  12.596   7.699  0.5107 -0.0619  0.2430
  773MOL0     C 4269   9.194  12.465   7.719 -0.6955  0.7786  0.2079
  773MOL0     N 4270   9.126  11.895   7.261  0.0008  0.2614  0.9997
  773MOL0     N 4271   9.151  11.778   7.205  0.7495  0.0581  0.2938
  773MOL0     C 4272   9.759  10.600   7.214  0.6301 -0.0834 -0.8113
  773MOL0     C 4273   9.755  10.486   7.301 -0.7473  0.1022 -0.0683
  773MOL0     C 4274   9.632  10.182   7.620 -0.0517  0.8782 -0.2076
  773MOL0     C 4275   9.721  10.224   7.723  0.1070  1.6273 -0.2807
  773MOL0     C 4276   9.786  10.138   7.810  1.2746 -0.0789  0.6103
  773MOL0     C 4277   9.754  10.004   7.808 -0.0785  0.9620 -1.4953
  773MOL0     O 4278   9.817   9.907   7.881 -0.2581  0.6247 -0.7702
  773MOL0     C 4279   9.940   9.859   7.828  0.3149  0.0013 -0.4091
  773MOL0     C 4280  10.020   9.805   7.943 -0.7390 -0.1653 -0.4048
  773MOL0     C 4281  10.170   9.777   7.917 -0.2741 -0.6710  0.3368
  773MOL0     C 4282  10.247   9.681   8.012  0.4929 -0.9099 -0.5977
  773MOL0     C 4283  10.388   9.691   7.995 -1.0378 -0.0097 -0.4568
  773MOL0     C 4284  10.503   9.699   7.953 -0.6953  0.9150 -0.6829
  773MOL0     C 4285   9.660   9.960   7.715  0.2976  0.5581 -0.5124
  773MOL0     C 4286   9.596  10.041   7.613 -0.5519 -0.1303 -0.4041
  773MOL0     C 4287   9.506   9.981   7.509  0.6116 -0.5926  0.9840
  773MOL0     H 4288   9.499  10.590   7.504 -1.2283 -2.8026 -1.3496
  773MOL0     H 4289   9.507  10.779   7.360 -1.5374 -2.2203  0.4100
  773MOL0     H 4290   9.522  10.926   7.217  0.9659  1.6743  3.6975
  773MOL0     H 4291   9.671  10.947   7.292  0.5564  2.3534 -1.2638
  773MOL0     H 4292   9.568  11.019   7.011  3.2786  0.7516 -3.8886
  773MOL0     H 4293   9.748  11.024   7.057  1.3163  0.2706  2.3968
  773MOL0     H 4294   9.666  11.175   7.248 -1.3635  0.7146 -0.0280
  773MOL0     H 4295   9.521  11.197   7.172  1.0753 -0.5363  0.6401
  773MOL0     H 4296   9.790  11.285   7.040  0.6820 -1.7517  2.9319
  773MOL0     H 4297   9.629  11.292   6.966 -3.1192 -5.4200  2.3057
  773MOL0     H 4298   9.687  11.418   7.239  4.7051 -1.8436 -1.2261
  773MOL0     H 4299   9.741  11.507   7.110 -0.5813  0.6398 -3.3218
  773MOL0     H 4300   9.525  11.520   6.982 -1.7051  2.2249  0.3721
  773MOL0     H 4301   9.453  11.423   7.105 -0.8498  1.4899  0.6313
  773MOL0     H 4302   9.559  11.716   7.114 -1.4433  0.2743 -0.4190
  773MOL0     H 4303   9.516  11.622   7.266  1.9312  1.4980 -0.0199
  773MOL0     H 4304   9.360  11.729   7.020  1.1749  1.9632  0.4499
  773MOL0     H 4305   9.296  11.589   7.086 -0.0665  1.0772 -2.3561
  773MOL0     H 4306   9.454  11.887   7.280  0.0959  1.6959 -2.2786
  773MOL0     H 4307   9.380  12.110   7.381 -0.3448  0.9881  0.6542
  773MOL0     H 4308   9.239  12.177   7.290 -0.7956  0.3945  1.2236
  773MOL0     H 4309   9.155  12.022   7.518  2.3913 -2.6645 -1.3928
  773MOL0     H 4310   9.255  12.167   7.565 -1.4010  1.5745  0.3006
  773MOL0     H 4311   9.016  12.171   7.372 -2.7033  1.3033  0.0856
  773MOL0     H 4312   9.105  12.307   7.423  1.2004 -1.7211 -3.4819
  773MOL0     H 4313   8.985  12.102   7.615  4.2577 -0.5331 -0.6133
  773MOL0     H 4314   8.874  12.224   7.547 -0.0880  1.7755  2.0019
  773MOL0     H 4315   8.909  12.466   7.528 -2.1909  2.7120  0.4897
  773MOL0     H 4316   8.990  12.695   7.484 -0.3893 -0.5049 -0.1669
  773MOL0     H 4317   9.084  13.080   7.374 -3.4789  2.5707 -1.3574
  773MOL0     H 4318   9.105  13.337   7.406 -3.7107 -0.5247  0.0535
  773MOL0     H 4319   9.224  13.457   7.817 -3.9841 -1.5491 -1.3804
  773MOL0     H 4320   9.339  13.468   7.694 -0.9641 -1.2161 -1.5763
  773MOL0     H 4321   9.260  13.682   7.599  2.6545  1.5321  1.0865
  773MOL0     H 4322   9.145  13.708   7.711  0.2196  2.9833 -4.1380
  773MOL0     H 4323   9.298  13.814   7.834 -0.1724 -0.3507  0.5310
  773MOL0     H 4324   9.369  13.659   7.871 -0.1326 -0.2494  0.0378
  773MOL0     H 4325   9.456  13.820   7.624  0.2708 -0.8266  0.0281
  773MOL0     H 4326   9.520  13.674   7.672 -1.9561 -0.4144 -3.2778
  773MOL0     H 4327   9.576  13.769   7.892 -1.5719  1.8941  0.6393
  773MOL0     H 4328   9.514  13.926   7.857  0.3780 -0.9968  1.3171
  773MOL0     H 4329   9.745  13.789   7.710  1.6415  0.4772  2.7444
  773MOL0     H 4330   9.667  13.938   7.649  1.6183 -0.8379 -0.4817
  773MOL0     H 4331   9.760  14.046   7.877  0.2910 -2.1323  2.8777
  773MOL0     H 4332   9.875  14.008   7.755 -0.4151  0.0786  1.4068
  773MOL0     H 4333   9.804  13.826   7.988 -2.7334  2.9898 -1.6423
  773MOL0     H 4334   9.935  13.804   7.873  3.4754 -0.8674  4.0103
  773MOL0     H 4335   9.192  13.258   7.823 -0.3003  1.2549 -1.3350
  773MOL0     H 4336   9.196  13.022   7.775 -1.6834 -1.1270 -0.4106
  773MOL0     H 4337   9.316  12.624   7.765 -1.2635  0.6007  2.2722
  773MOL0     H 4338   9.251  12.391   7.774  1.0731  1.3873 -0.7343
  773MOL0     H 4339   9.841  10.619   7.145  5.1814 -0.1201  3.9504
  773MOL0     H 4340   9.835  10.417   7.275 -2.1929 -0.8783 -2.2639
  773MOL0     H 4341   9.754  10.328   7.725  1.4182  1.2380 -0.5733
  773MOL0     H 4342   9.848  10.190   7.883  0.8140  3.3516 -1.2349
  773MOL0     H 4343   9.977   9.947   7.776  0.3849  1.2621  1.6575
  773MOL0     H 4344   9.940   9.776   7.756  2.3293 -2.0318  1.7223
  773MOL0     H 4345   9.974   9.708   7.957 -2.3242  0.3837 -1.5005
  773MOL0     H 4346  10.001   9.869   8.030  0.3032 -0.2748 -0.0729
  773MOL0     H 4347  10.226   9.871   7.911  0.3258 -1.0894 -1.0294
  773MOL0     H 4348  10.195   9.737   7.819  1.8216  1.7089 -0.2110
  773MOL0     H 4349  10.204   9.708   8.109 -3.0989  4.6407 -3.2080
  773MOL0     H 4350  10.213   9.579   7.992 -0.4133 -1.0114  1.2732
  773MOL0     H 4351  10.600   9.707   7.910  0.3714  0.9761  1.5970
  773MOL0     H 4352   9.641   9.853   7.719 -1.0015  0.7508 -0.7607
  773MOL0     H 4353   9.405  10.016   7.529  0.0188 -0.6743 -1.5067
  773MOL0     H 4354   9.548  10.004   7.411 -0.3235 -2.1605  0.1656
  773MOL0     H 4355   9.510   9.872   7.520  1.5301 -0.8830 -1.4794
  774MOL0     O 4356   8.356   8.636   2.601 -0.2848  0.0363 -0.2445
  774MOL0     C 4357   8.282   8.645   2.698  0.0192 -0.1654 -0.1808
  774MOL0     O 4358   8.291   8.562   2.800  0.9168 -0.3766 -0.6963
  774MOL0     C 4359   8.384   8.461   2.798 -0.8491 -0.6944  0.4516
  774MOL0     C 4360   8.514   8.487   2.840  0.6828 -0.8443  0.0727
  774MOL0     C 4361   8.617   8.386   2.825 -0.6097  0.4706 -0.4604
  774MOL0     C 4362   8.586   8.260   2.782  1.7038  0.7072 -0.2484
  774MOL0     O 4363   8.675   8.151   2.800  0.1247 -0.5214  0.0287
  774MOL0     C 4364   8.674   8.037   2.709 -0.4072 -0.8472  0.2019
  774MOL0     C 4365   8.724   8.078   2.567 -0.7320  0.3168 -0.2521
  774MOL0     C 4366   8.869   8.117   2.575 -1.0904  0.3512  0.8529
  774MOL0     C 4367   8.967   7.996   2.595 -0.8276 -0.3148  0.2360
  774MOL0     C 4368   8.996   7.928   2.461 -1.2979  0.2888 -1.0222
  774MOL0     C 4369   9.106   7.818   2.493 -1.0451 -0.3107  0.4903
  774MOL0     C 4370   9.166   7.773   2.362 -0.5056 -0.7875 -0.0901
  774MOL0     C 4371   9.278   7.666   2.373  1.0761  0.1139 -0.0252
  774MOL0     N 4372   9.264   7.554   2.279  0.9238 -0.6118 -0.6649
  774MOL0     C 4373   9.156   7.471   2.279  0.6419  0.4168  0.2706
  774MOL0     C 4374   9.183   7.388   2.178  0.5357  0.1916  0.0999
  774MOL0     C 4375   9.091   7.280   2.122 -0.8205  0.3778  0.7463
  774MOL0     C 4376   9.174   7.193   2.019 -0.3421  0.3566  0.2082
  774MOL0     C 4377   9.157   7.226   1.869  0.5728 -0.2059  0.1718
  774MOL0     C 4378   9.255   7.151   1.780 -0.4286  0.0608  0.2719
  774MOL0     O 4379   9.218   7.214   1.651  0.0985  0.2776  0.0983
  774MOL0     C 4380   9.277   7.166   1.537  0.2689 -0.0038 -0.2245
  774MOL0     C 4381   9.352   7.053   1.527 -0.8135 -0.4220 -0.2276
  774MOL0     C 4382   9.409   7.016   1.408 -0.8998  1.1048  0.4817
  774MOL0     C 4383   9.408   7.104   1.288  0.0732 -0.6891 -0.3358
  774MOL0     C 4384   9.466   7.059   1.157  1.0004 -0.1183 -0.4010
  774MOL0     O 4385   9.443   7.128   1.044  0.5879 -1.3723 -0.1072
  774MOL0     C 4386   9.494   7.094   0.920  0.6086  0.3685  1.3174
  774MOL0     C 4387   9.508   7.187   0.819 -0.3897 -0.5658  0.2060
  774MOL0     C 4388   9.550   7.151   0.695 -0.9509 -1.8838 -0.0656
  774MOL0     C 4389   9.579   7.025   0.649  0.5394 -0.8926 -0.3206
  774MOL0     O 4390   9.622   7.005   0.523 -0.1498  0.3760 -0.1632
  774MOL0     C 4391   9.674   6.874   0.483 -0.7364 -0.4409 -0.1706
  774MOL0     C 4392   9.766   6.889   0.364 -0.5797  0.4256 -0.2571
  774MOL0     C 4393   9.906   6.943   0.384  0.4671 -1.6545  0.7168
  774MOL0     C 4394   9.893   7.092   0.410  0.9600 -0.4712  0.3787
  774MOL0     C 4395  10.031   7.162   0.407 -0.2331 -0.3236 -0.7817
  774MOL0     C 4396  10.004   7.316   0.429 -0.1326  0.6299 -0.4879
  774MOL0     C 4397   9.995   7.328   0.584 -0.4706 -0.6826  0.5575
  774MOL0     C 4398  10.010   7.465   0.639 -0.6606  0.4230 -0.3884
  774MOL0    Cl 4399  10.140   7.475   0.757  0.1371 -0.1183 -0.3052
  774MOL0     C 4400   9.553   6.926   0.743  0.9782 -0.2125  0.4066
  774MOL0     C 4401   9.509   6.962   0.871 -0.3067 -0.4539 -0.4303
  774MOL0     O 4402   9.525   6.954   1.164 -0.2408 -0.0331 -0.7318
  774MOL0     C 4403   9.314   7.211   1.298 -0.4187 -0.0545 -0.1449
  774MOL0     C 4404   9.249   7.234   1.422  0.3913 -0.0039  0.4784
  774MOL0     N 4405   9.301   7.429   2.122  0.4269  0.6097 -0.3982
  774MOL0     N 4406   9.349   7.532   2.187 -0.2384  0.5599  0.0403
  774MOL0     C 4407   8.450   8.239   2.745 -0.5726 -0.6910 -0.7830
  774MOL0     C 4408   8.351   8.340   2.747 -0.1522  0.0015  0.0807
  774MOL0     C 4409   8.175   8.744   2.685  0.0805  0.2342 -0.0380
  774MOL0     C 4410   8.057   8.732   2.761  0.3850  0.3457  0.4477
  774MOL0     C 4411   7.955   8.824   2.760 -0.4381 -1.2982  0.4092
  774MOL0     C 4412   7.980   8.946   2.697 -0.6051 -0.6061  0.2001
  774MOL0     O 4413   7.881   9.041   2.702  0.5369 -0.4230  0.3195
  774MOL0     C 4414   7.757   9.017   2.769 -0.6930 -0.6537 -0.4494
  774MOL0     C 4415   7.678   9.148   2.783  0.8880 -0.3963  1.0477
  774MOL0     C 4416   7.561   9.138   2.883  0.6358 -0.0264 -0.6171
  774MOL0     C 4417   7.419   9.130   2.817 -0.2121  1.0206 -0.1470
  774MOL0     C 4418   7.391   9.254   2.742  0.6595 -0.6328  0.1347
  774MOL0     C 4419   7.354   9.337   2.660 -0.3598  1.1041 -0.4369
  774MOL0     C 4420   8.094   8.968   2.624 -0.7799  0.4263 -0.4211
  774MOL0     C 4421   8.186   8.864   2.600 -0.2706  0.1167 -1.2462
  774MOL0     C 4422   8.284   8.902   2.491 -0.0887  0.3803  0.2906
  774MOL0     H 4423   8.545   8.579   2.887 -3.1102 -0.2773  1.8893
  774MOL0     H 4424   8.719   8.405   2.856 -1.1193  0.4136  1.4142
  774MOL0     H 4425   8.741   7.962   2.750  1.3448 -0.1620 -1.2866
  774MOL0     H 4426   8.578   7.987   2.692  0.0088 -1.4311 -0.4766
  774MOL0     H 4427   8.659   8.155   2.524  0.2200  0.5286 -1.3595
  774MOL0     H 4428   8.724   7.993   2.498  1.4877  0.3967 -0.4082
  774MOL0     H 4429   8.876   8.175   2.667 -2.0991 -0.6304  1.5771
  774MOL0     H 4430   8.890   8.180   2.488  0.1823 -1.1161  0.0490
  774MOL0     H 4431   9.055   8.048   2.635 -1.8286  0.8335  1.0242
  774MOL0     H 4432   8.936   7.929   2.674 -0.6641  0.1900  0.7363
  774MOL0     H 4433   8.898   7.893   2.428 -1.8103  0.3213  0.3833
  774MOL0     H 4434   9.029   7.994   2.380  0.7665 -1.1425 -1.4319
  774MOL0     H 4435   9.184   7.871   2.549  0.9568  0.6272 -2.8731
  774MOL0     H 4436   9.075   7.733   2.554  0.4980 -0.2975  1.3497
  774MOL0     H 4437   9.202   7.855   2.299 -2.2117  1.1799  1.3423
  774MOL0     H 4438   9.074   7.745   2.311 -1.1889  1.4223 -0.1510
  774MOL0     H 4439   9.372   7.722   2.368  0.6075  0.9429  0.2255
  774MOL0     H 4440   9.275   7.620   2.473 -1.0434 -0.6223 -0.3739
  774MOL0     H 4441   9.073   7.472   2.349  2.8588  1.2292  3.0728
  774MOL0     H 4442   9.054   7.211   2.198 -0.5649  1.5697  1.9888
  774MOL0     H 4443   9.006   7.330   2.075  0.2142  2.3344  0.8590
  774MOL0     H 4444   9.279   7.169   2.037 -0.2558  1.0209  0.6190
  774MOL0     H 4445   9.132   7.096   2.046  0.4023  0.3083  1.2358
  774MOL0     H 4446   9.171   7.334   1.855 -0.8678  0.0557  0.6101
  774MOL0     H 4447   9.051   7.204   1.852  0.7927 -0.0311 -1.5959
  774MOL0     H 4448   9.228   7.045   1.785 -0.4591  0.1098  1.2490
  774MOL0     H 4449   9.362   7.165   1.796 -0.5956  3.8071 -0.9348
  774MOL0     H 4450   9.356   6.980   1.607 -1.3487 -5.2333 -4.1774
  774MOL0     H 4451   9.463   6.923   1.394  2.2045  2.7530  0.4883
  774MOL0     H 4452   9.516   7.292   0.845  1.0428 -0.6781  0.2748
  774MOL0     H 4453   9.554   7.233   0.624 -1.2371 -0.3487  1.6198
  774MOL0     H 4454   9.745   6.835   0.558  1.6547 -0.7094 -2.4278
  774MOL0     H 4455   9.603   6.791   0.477  1.8471 -3.0258  1.4921
  774MOL0     H 4456   9.771   6.786   0.327  3.6130 -1.0169  3.4107
  774MOL0     H 4457   9.714   6.946   0.287 -0.7907  2.2390  1.1650
  774MOL0     H 4458   9.949   6.897   0.474  1.1912 -1.5470  0.4356
  774MOL0     H 4459   9.971   6.916   0.300  1.7184 -0.4423  1.2579
  774MOL0     H 4460   9.854   7.096   0.512  1.5532  3.3670  0.6081
  774MOL0     H 4461   9.824   7.135   0.338  0.8489 -0.1479  0.6725
  774MOL0     H 4462  10.076   7.143   0.309 -0.2034 -0.6678 -0.7023
  774MOL0     H 4463  10.105   7.109   0.468 -0.0048 -1.2959 -1.8627
  774MOL0     H 4464  10.086   7.371   0.382  1.3948 -0.4321  0.8288
  774MOL0     H 4465   9.907   7.351   0.391  0.6336  1.1835 -1.9828
  774MOL0     H 4466  10.071   7.263   0.628 -1.3034 -1.9685  0.1354
  774MOL0     H 4467   9.896   7.296   0.618 -1.5453  1.0776 -0.7839
  774MOL0     H 4468  10.037   7.536   0.560 -0.9465  1.8697  0.7658
  774MOL0     H 4469   9.912   7.499   0.674 -0.8874  0.0976 -0.6964
  774MOL0     H 4470   9.578   6.822   0.726 -3.7210 -2.1038  3.1636
  774MOL0     H 4471   9.477   6.870   0.918 -3.4665 -0.5167 -2.4106
  774MOL0     H 4472   9.298   7.277   1.213  1.8052  2.8249  1.4780
  774MOL0     H 4473   9.173   7.309   1.443 -0.3676 -1.3246  2.8505
  774MOL0     H 4474   8.431   8.143   2.698 -1.2965 -0.1369 -1.6346
  774MOL0     H 4475   8.261   8.312   2.694 -1.1357  2.6469  0.2442
  774MOL0     H 4476   8.053   8.644   2.825 -0.3200 -1.4723 -1.9664
  774MOL0     H 4477   7.870   8.783   2.813  1.4202 -4.3354  1.3252
  774MOL0     H 4478   7.774   8.976   2.869 -0.5395 -1.3660 -0.7626
  774MOL0     H 4479   7.693   8.953   2.707  1.7253 -1.0118 -2.7580
  774MOL0     H 4480   7.655   9.170   2.678  0.3786  1.3318  1.4879
  774MOL0     H 4481   7.727   9.241   2.810 -0.3200  1.7941 -3.3709
  774MOL0     H 4482   7.572   9.224   2.949  3.9769 -1.0144  0.2895
  774MOL0     H 4483   7.589   9.051   2.943 -2.5933 -0.6793  0.1184
  774MOL0     H 4484   7.415   9.040   2.755 -3.0636  0.8025  0.2178
  774MOL0     H 4485   7.335   9.119   2.885 -1.5550  0.6754 -1.7967
  774MOL0     H 4486   7.324   9.415   2.593  1.1371 -0.1111 -2.6472
  774MOL0     H 4487   8.100   9.069   2.585 -1.2648  1.4373  1.9684
  774MOL0     H 4488   8.279   9.009   2.466  1.4915  0.1916 -0.9575
  774MOL0     H 4489   8.388   8.885   2.522 -0.1214  0.3234  0.3682
  774MOL0     H 4490   8.272   8.856   2.393 -0.6149  0.0733  0.4987
  775MOL0     O 4491   2.246   6.782   3.020 -0.6370  0.0529 -0.4425
  775MOL0     C 4492   2.356   6.795   2.968 -0.3313 -0.2049 -0.3130
  775MOL0     O 4493   2.431   6.908   2.970  0.1260 -0.3262  1.3725
  775MOL0     C 4494   2.405   7.005   3.060  0.9571 -0.4486 -0.4147
  775MOL0     C 4495   2.357   6.979   3.196 -0.0979 -0.3644 -0.2609
  775MOL0     C 4496   2.340   7.093   3.277  0.1452  0.5272 -0.0019
  775MOL0     C 4497   2.379   7.225   3.237 -0.4844 -0.0826  0.2628
  775MOL0     O 4498   2.376   7.337   3.318  0.2625  0.4034  0.7741
  775MOL0     C 4499   2.262   7.348   3.411  0.3028 -0.1123  0.4587
  775MOL0     C 4500   2.194   7.482   3.417 -0.2326 -0.1553  0.7404
  775MOL0     C 4501   2.147   7.537   3.281 -0.2163  0.5777  0.8304
  775MOL0     C 4502   2.119   7.689   3.293  0.1079  0.0919 -0.2135
  775MOL0     C 4503   2.074   7.752   3.160  0.4071  0.4344  0.0820
  775MOL0     C 4504   1.999   7.883   3.178 -0.5345 -1.1041 -0.4501
  775MOL0     C 4505   2.073   7.999   3.251  0.3672  0.1428 -0.4167
  775MOL0     C 4506   2.194   8.041   3.165  0.2539 -0.4778  0.0451
  775MOL0     N 4507   2.259   8.164   3.211  0.1880  0.2666 -0.5943
  775MOL0     C 4508   2.211   8.300   3.186 -0.4966  0.7404 -0.4191
  775MOL0     C 4509   2.287   8.375   3.268  0.0885  0.4556 -0.4818
  775MOL0     C 4510   2.290   8.526   3.271 -0.3413  0.7251  0.7881
  775MOL0     C 4511   2.308   8.587   3.130  0.9642 -0.5318  0.2089
  775MOL0     C 4512   2.335   8.738   3.129  0.4086  0.0561 -0.2133
  775MOL0     C 4513   2.230   8.826   3.185  0.4222 -0.3893 -1.3191
  775MOL0     O 4514   2.099   8.793   3.114  0.0385  0.0658  0.7458
  775MOL0     C 4515   2.008   8.893   3.092 -0.0482  0.9737  0.7515
  775MOL0     C 4516   2.019   9.032   3.104 -0.5411  0.4738 -0.0691
  775MOL0     C 4517   1.924   9.115   3.067 -0.0592  0.4983  0.5917
  775MOL0     C 4518   1.807   9.071   3.016  0.4734 -0.4185 -0.2359
  775MOL0     C 4519   1.703   9.172   2.968 -0.3675  0.8651 -1.3729
  775MOL0     O 4520   1.579   9.122   2.940  1.0981  0.6004  0.4618
  775MOL0     C 4521   1.474   9.204   2.953 -0.0010 -0.2890  0.5305
  775MOL0     C 4522   1.353   9.141   2.916 -0.3312  0.2423 -0.9731
  775MOL0     C 4523   1.230   9.206   2.928  0.4333 -0.2516 -0.4959
  775MOL0     C 4524   1.216   9.323   3.001 -0.2212  1.2332  0.6705
  775MOL0     O 4525   1.097   9.371   3.037 -0.4851  0.7907 -0.0710
  775MOL0     C 4526   1.075   9.501   2.969  0.6889  0.4529  0.4750
  775MOL0     C 4527   0.943   9.491   2.888 -0.6023 -0.1629  0.2990
  775MOL0     C 4528   0.954   9.387   2.774 -0.1237 -0.7882 -0.4926
  775MOL0     C 4529   1.066   9.412   2.668 -0.1045 -0.3402 -0.2663
  775MOL0     C 4530   1.020   9.507   2.556 -0.4424  0.0795 -0.1504
  775MOL0     C 4531   1.101   9.490   2.421 -0.6750  0.1891 -1.1318
  775MOL0     C 4532   1.050   9.369   2.333  0.5833 -0.7601 -0.3082
  775MOL0     C 4533   1.001   9.414   2.199  1.0490 -0.4957  0.2451
  775MOL0    Cl 4534   0.866   9.517   2.208  0.0356 -0.2015  0.2612
  775MOL0     C 4535   1.331   9.378   3.042  0.1601 -0.6232 -0.6285
  775MOL0     C 4536   1.458   9.328   3.021 -0.6780 -0.0370 -0.7188
  775MOL0     O 4537   1.736   9.287   2.977  0.3232 -0.5541 -0.1271
  775MOL0     C 4538   1.782   8.932   3.013 -0.1053  0.1680  0.5338
  775MOL0     C 4539   1.877   8.846   3.051 -0.6109  0.7801  0.4297
  775MOL0     N 4540   2.376   8.300   3.343  0.0267  0.2753 -0.4995
  775MOL0     N 4541   2.350   8.171   3.314 -0.7420 -0.1309  0.4562
  775MOL0     C 4542   2.433   7.243   3.109  0.5524 -0.2419  0.1370
  775MOL0     C 4543   2.428   7.136   3.022  1.1494 -0.2068  0.2631
  775MOL0     C 4544   2.418   6.684   2.888 -0.4424 -0.0051  0.4224
  775MOL0     C 4545   2.559   6.670   2.900  0.2019 -0.2081  0.1191
  775MOL0     C 4546   2.608   6.548   2.868 -0.3778 -0.0047  0.3309
  775MOL0     C 4547   2.533   6.449   2.813  0.0859 -0.8558  0.4004
  775MOL0     O 4548   2.593   6.333   2.764 -0.3531  0.1840 -0.3626
  775MOL0     C 4549   2.731   6.312   2.811  0.6937  0.5024 -0.9853
  775MOL0     C 4550   2.781   6.173   2.776 -0.3604  0.9179  0.3069
  775MOL0     C 4551   2.899   6.145   2.872 -0.3282 -1.1582 -0.0200
  775MOL0     C 4552   2.974   6.013   2.848 -0.0904 -1.2227  0.3899
  775MOL0     C 4553   3.047   5.969   2.962  0.4802  0.1668  0.7599
  775MOL0     C 4554   3.121   5.933   3.051  0.2026  0.6657  0.0399
  775MOL0     C 4555   2.401   6.473   2.779  1.0823 -0.6532 -0.2934
  775MOL0     C 4556   2.335   6.580   2.827 -0.8843 -0.1579  1.2982
  775MOL0     C 4557   2.183   6.579   2.798 -0.1491 -0.8593 -0.8089
  775MOL0     H 4558   2.332   6.884   3.242  2.4177 -0.1480  1.8089
  775MOL0     H 4559   2.295   7.074   3.374 -0.2081 -2.1110 -0.5971
  775MOL0     H 4560   2.178   7.281   3.389  0.9384 -1.6485  2.4205
  775MOL0     H 4561   2.279   7.314   3.513 -3.0946 -0.7706  0.9304
  775MOL0     H 4562   2.254   7.565   3.454 -0.7203  0.7020 -0.3290
  775MOL0     H 4563   2.107   7.468   3.481  1.2300 -0.2426  2.7954
  775MOL0     H 4564   2.054   7.493   3.243 -2.1515  2.8831  2.5589
  775MOL0     H 4565   2.220   7.508   3.205 -1.0250 -3.2498  1.3390
  775MOL0     H 4566   2.040   7.699   3.368 -0.1487  0.7658 -0.5683
  775MOL0     H 4567   2.207   7.738   3.336  0.1721 -0.2802  0.0888
  775MOL0     H 4568   2.158   7.769   3.092  0.1877  0.4972 -0.1709
  775MOL0     H 4569   2.000   7.693   3.105 -2.3497  0.6994  3.2175
  775MOL0     H 4570   1.955   7.925   3.087  0.6311  2.0750  0.3047
  775MOL0     H 4571   1.914   7.866   3.245  0.0879  1.4197  1.1655
  775MOL0     H 4572   2.086   7.963   3.353 -1.7510  0.2602 -0.0603
  775MOL0     H 4573   2.005   8.084   3.264  0.1241 -0.3702  2.2000
  775MOL0     H 4574   2.270   7.963   3.155  0.1889 -0.4650 -0.6624
  775MOL0     H 4575   2.163   8.066   3.063  0.5376 -1.6036 -0.3268
  775MOL0     H 4576   2.128   8.331   3.123  1.3947 -0.0575 -3.5239
  775MOL0     H 4577   2.200   8.559   3.323 -0.9787  0.1611  0.0737
  775MOL0     H 4578   2.379   8.549   3.330 -0.9500  2.4346  1.0800
  775MOL0     H 4579   2.393   8.541   3.078  0.0208 -0.4990 -1.4187
  775MOL0     H 4580   2.212   8.560   3.084  0.6753  1.2369 -0.3179
  775MOL0     H 4581   2.342   8.768   3.025 -0.6127  2.1977  0.2913
  775MOL0     H 4582   2.434   8.762   3.169 -0.2160  0.6030  1.0646
  775MOL0     H 4583   2.259   8.931   3.195  0.0718 -0.2921 -1.3081
  775MOL0     H 4584   2.208   8.792   3.287  1.0384 -0.7442 -1.3004
  775MOL0     H 4585   2.109   9.082   3.138 -2.0311  3.4438 -0.2295
  775MOL0     H 4586   1.944   9.222   3.066 -0.5541  0.5975  0.8912
  775MOL0     H 4587   1.356   9.043   2.870  1.3026 -0.0044 -0.4144
  775MOL0     H 4588   1.140   9.161   2.886  1.5093 -0.5919 -2.6081
  775MOL0     H 4589   1.068   9.578   3.047  0.3033  2.0863 -1.1136
  775MOL0     H 4590   1.155   9.533   2.901 -0.1793 -0.9815 -1.2979
  775MOL0     H 4591   0.867   9.468   2.963  1.4072 -0.3305  2.4058
  775MOL0     H 4592   0.915   9.583   2.836 -1.3049 -0.4074  0.2411
  775MOL0     H 4593   0.970   9.285   2.809 -0.6759 -2.1735 -3.8401
  775MOL0     H 4594   0.862   9.384   2.715 -1.3835 -0.2368  1.3633
  775MOL0     H 4595   1.104   9.315   2.635  1.6238  0.4525 -0.7248
  775MOL0     H 4596   1.154   9.460   2.711 -1.2180  0.0002  1.7403
  775MOL0     H 4597   1.047   9.606   2.594  1.3355 -0.6031  0.4667
  775MOL0     H 4598   0.915   9.494   2.529  0.1826  0.5560 -3.2243
  775MOL0     H 4599   1.084   9.580   2.362 -0.2267  2.2342  1.6567
  775MOL0     H 4600   1.209   9.484   2.431 -0.0218 -3.3012 -6.4516
  775MOL0     H 4601   0.970   9.301   2.365 -1.3967 -0.6482 -4.4678
  775MOL0     H 4602   1.124   9.291   2.311 -0.6559 -2.3588  0.8880
  775MOL0     H 4603   1.080   9.453   2.134  0.1973  3.0651  1.0837
  775MOL0     H 4604   0.963   9.329   2.141  1.6790  1.0356 -2.6250
  775MOL0     H 4605   1.320   9.471   3.097 -0.7933 -2.0096  1.6840
  775MOL0     H 4606   1.545   9.379   3.061  1.5538 -1.7087 -3.1127
  775MOL0     H 4607   1.687   8.889   2.983  1.2241 -3.1548  0.6793
  775MOL0     H 4608   1.854   8.743   3.027 -0.3910  1.1969 -1.8623
  775MOL0     H 4609   2.473   7.338   3.073  0.8989  0.3712  2.0198
  775MOL0     H 4610   2.467   7.139   2.921  0.5110 -0.3436  0.0104
  775MOL0     H 4611   2.619   6.745   2.951 -2.2176  1.6473  0.4589
  775MOL0     H 4612   2.715   6.552   2.882 -0.5818  1.0103  1.9742
  775MOL0     H 4613   2.735   6.325   2.919  3.0257  0.1142 -0.9709
  775MOL0     H 4614   2.796   6.390   2.772  0.0020  1.4107 -0.3525
  775MOL0     H 4615   2.800   6.169   2.669  0.3885  1.3248  0.4178
  775MOL0     H 4616   2.702   6.099   2.796  0.8951 -0.0739  1.8562
  775MOL0     H 4617   2.861   6.138   2.974  1.4471 -0.3339  0.7332
  775MOL0     H 4618   2.959   6.236   2.867 -1.9038 -0.1312 -1.3476
  775MOL0     H 4619   2.898   5.940   2.819 -0.8199 -0.1991 -0.3128
  775MOL0     H 4620   3.045   6.034   2.768 -1.7379 -0.3267 -0.9096
  775MOL0     H 4621   3.178   5.879   3.124  2.0941  2.8705  0.3048
  775MOL0     H 4622   2.341   6.404   2.720  1.1950 -3.4862  2.5762
  775MOL0     H 4623   2.136   6.513   2.872 -0.1147 -0.8466 -0.7753
  775MOL0     H 4624   2.134   6.672   2.828 -1.8707 -1.6995 -0.9320
  775MOL0     H 4625   2.162   6.561   2.693 -0.6895  0.7193 -0.9950
  776MOL0     O 4626   5.025   8.865  10.087 -0.9736 -0.6678  0.9610
  776MOL0     C 4627   5.032   8.894   9.966  0.4888  0.7750 -0.5065
  776MOL0     O 4628   5.006   9.015   9.917  0.2325 -0.0031 -0.3009
  776MOL0     C 4629   4.959   9.124   9.988 -0.0587 -0.1973 -0.5253
  776MOL0     C 4630   5.002   9.161  10.114 -1.2243 -0.3601 -0.1147
  776MOL0     C 4631   4.969   9.281  10.171  0.7362 -0.5730  0.0610
  776MOL0     C 4632   4.874   9.365  10.103  0.0462  0.5310 -0.1114
  776MOL0     O 4633   4.841   9.496  10.133 -0.0843 -0.0879 -0.8118
  776MOL0     C 4634   4.879   9.544  10.263  0.9871  0.3891  0.5002
  776MOL0     C 4635   4.781   9.472  10.364  0.2334  0.0711 -0.4990
  776MOL0     C 4636   4.636   9.507  10.337 -1.2548 -0.0035  0.1074
  776MOL0     C 4637   4.562   9.456  10.455 -0.8194 -0.0645 -0.2188
  776MOL0     C 4638   4.407   9.492  10.447  0.2662 -0.0752  0.6451
  776MOL0     C 4639   4.343   9.464  10.581 -0.2894 -0.1253  0.0824
  776MOL0     C 4640   4.306   9.597  10.663  0.2122 -0.8693 -0.0194
  776MOL0     C 4641   4.220   9.586  10.784  0.1120  0.0324  0.1367
  776MOL0     N 4642   4.273   9.505  10.894 -0.8707 -0.3358  0.0405
  776MOL0     C 4643   4.198   9.420  10.975 -1.2962 -1.2633  0.0545
  776MOL0     C 4644   4.288   9.352  11.050  0.1161  0.4713 -0.0742
  776MOL0     C 4645   4.267   9.241  11.146 -0.0549 -0.7131 -0.1668
  776MOL0     C 4646   4.224   9.288  11.288  0.0107 -0.1553 -0.6301
  776MOL0     C 4647   4.180   9.175  11.379  0.4740  0.3948  0.4698
  776MOL0     C 4648   4.137   9.223  11.524 -0.6107 -0.0112 -0.2229
  776MOL0     O 4649   4.123   9.098  11.595 -0.6914 -1.0982 -0.6999
  776MOL0     C 4650   4.000   9.042  11.594 -0.5802  0.2931 -0.5029
  776MOL0     C 4651   3.981   8.935  11.683  0.3740 -0.1041 -0.1876
  776MOL0     C 4652   3.865   8.854  11.680  0.6478  0.4012 -0.2701
  776MOL0     C 4653   3.757   8.885  11.597 -0.1970 -0.6416 -0.5190
  776MOL0     C 4654   3.633   8.819  11.610  1.6297 -1.1877 -0.1075
  776MOL0     O 4655   3.615   8.748  11.726 -0.5397 -0.2737  0.4811
  776MOL0     C 4656   3.487   8.718  11.772 -0.6586 -0.3987 -0.3800
  776MOL0     C 4657   3.383   8.815  11.765 -0.6556 -0.6247  0.3589
  776MOL0     C 4658   3.255   8.786  11.806 -0.4708 -0.0095  0.0821
  776MOL0     C 4659   3.220   8.663  11.868 -0.2077  0.3838  0.4469
  776MOL0     O 4660   3.105   8.632  11.938  0.1346  0.4098  0.0915
  776MOL0     C 4661   3.007   8.740  11.951  0.3169 -0.6195 -0.5474
  776MOL0     C 4662   2.900   8.739  11.842 -0.1544 -0.2451  0.6196
  776MOL0     C 4663   2.777   8.830  11.857  0.8096  0.0136  0.4137
  776MOL0     C 4664   2.689   8.789  11.973  0.6796  0.7773 -0.8476
  776MOL0     C 4665   2.545   8.846  11.971 -0.0304  0.3888 -0.5896
  776MOL0     C 4666   2.456   8.812  12.086  0.4510  0.0608 -0.7583
  776MOL0     C 4667   2.448   8.657  12.115 -0.8497  0.0347  0.1655
  776MOL0     C 4668   2.339   8.616  12.206 -0.6657  0.4759  0.2998
  776MOL0    Cl 4669   2.293   8.722  12.335 -0.5333  0.1121 -0.4023
  776MOL0     C 4670   3.325   8.575  11.888  1.1932 -0.7755 -1.1410
  776MOL0     C 4671   3.444   8.605  11.841 -1.2707  0.7544  0.3622
  776MOL0     O 4672   3.546   8.828  11.522 -0.4309  0.1195 -0.0037
  776MOL0     C 4673   3.773   8.998  11.515  0.7340 -0.1536 -0.0537
  776MOL0     C 4674   3.896   9.073  11.507  0.4498  0.2619  0.5318
  776MOL0     N 4675   4.411   9.404  11.021  1.0237  0.7371 -0.0286
  776MOL0     N 4676   4.408   9.503  10.929 -0.3492  0.4275 -0.3330
  776MOL0     C 4677   4.817   9.313   9.980  0.4006  0.2733 -1.0682
  776MOL0     C 4678   4.853   9.188   9.929  0.3088 -0.2526 -0.9371
  776MOL0     C 4679   5.060   8.781   9.875 -1.4592  0.4444  0.7196
  776MOL0     C 4680   5.066   8.650   9.929 -0.3698  0.2443 -0.4438
  776MOL0     C 4681   5.097   8.535   9.857 -0.1559  0.7919  0.0061
  776MOL0     C 4682   5.126   8.537   9.721  0.5077  0.6837  0.2630
  776MOL0     O 4683   5.167   8.429   9.641  0.0029 -0.1990  0.4599
  776MOL0     C 4684   5.172   8.297   9.685  0.0502  0.2695 -0.8869
  776MOL0     C 4685   5.059   8.208   9.643 -0.1315 -0.4570  0.2365
  776MOL0     C 4686   5.059   8.175   9.493 -0.1992 -0.1034 -0.5577
  776MOL0     C 4687   5.167   8.066   9.457 -0.1363 -0.9588  1.1120
  776MOL0     C 4688   5.120   7.939   9.506 -0.2470  0.5397  0.3126
  776MOL0     C 4689   5.068   7.845   9.570 -0.8308  0.0648  0.1808
  776MOL0     C 4690   5.112   8.662   9.658 -0.1274  0.2238  0.6147
  776MOL0     C 4691   5.093   8.785   9.729  0.2747  0.1778 -0.4942
  776MOL0     C 4692   5.073   8.919   9.653 -0.7715 -0.2792 -0.4859
  776MOL0     H 4693   5.073   9.106  10.176 -2.3520  0.2703  1.8369
  776MOL0     H 4694   5.012   9.325  10.261 -0.2133  3.3346 -1.2230
  776MOL0     H 4695   4.980   9.522  10.296  1.2601  2.6881  1.3270
  776MOL0     H 4696   4.868   9.653  10.263 -1.2279  0.2682  2.8356
  776MOL0     H 4697   4.819   9.501  10.462  2.4602 -2.3220 -0.5436
  776MOL0     H 4698   4.789   9.363  10.359  0.7135  0.0827 -0.0198
  776MOL0     H 4699   4.601   9.445  10.254 -0.7932 -1.4625  0.9606
  776MOL0     H 4700   4.615   9.612  10.316 -1.0942 -0.0026 -0.0571
  776MOL0     H 4701   4.584   9.352  10.482 -0.8575  0.9874  4.7145
  776MOL0     H 4702   4.595   9.512  10.542 -0.9954  0.8205 -0.7114
  776MOL0     H 4703   4.395   9.599  10.427 -1.0817 -0.6368 -1.9762
  776MOL0     H 4704   4.369   9.438  10.360  2.0361 -4.7089  2.4169
  776MOL0     H 4705   4.261   9.394  10.565  0.4606 -1.8573  3.0674
  776MOL0     H 4706   4.403   9.405  10.651 -1.0586 -1.0176  0.0102
  776MOL0     H 4707   4.265   9.667  10.589 -0.2116 -1.8454 -0.7391
  776MOL0     H 4708   4.402   9.643  10.688 -1.9624  4.4836 -0.1830
  776MOL0     H 4709   4.214   9.689  10.821  1.0541 -0.1178  0.7246
  776MOL0     H 4710   4.116   9.561  10.759 -0.5428 -0.0032  2.6803
  776MOL0     H 4711   4.091   9.406  10.958 -1.3188 -1.2605  0.1893
  776MOL0     H 4712   4.182   9.179  11.114  1.3022 -3.1527  0.6945
  776MOL0     H 4713   4.363   9.194  11.169  2.1002  2.7371 -1.4193
  776MOL0     H 4714   4.305   9.341  11.339 -0.0481  2.0506 -2.6368
  776MOL0     H 4715   4.141   9.356  11.266 -0.6247 -0.4910  0.6526
  776MOL0     H 4716   4.256   9.096  11.372 -0.0304  0.0753 -3.0463
  776MOL0     H 4717   4.086   9.134  11.341  0.6224 -0.1529  0.6811
  776MOL0     H 4718   4.046   9.284  11.526 -1.5710 -1.3978  0.0713
  776MOL0     H 4719   4.217   9.286  11.563 -2.3018  1.6400  0.7375
  776MOL0     H 4720   4.069   8.905  11.738 -2.2514 -0.4113  4.3132
  776MOL0     H 4721   3.866   8.775  11.753  5.7400 -0.6438 -1.0849
  776MOL0     H 4722   3.406   8.909  11.716  0.8099  0.2098  2.4767
  776MOL0     H 4723   3.169   8.850  11.788 -0.7478 -1.1123 -3.1666
  776MOL0     H 4724   2.956   8.706  12.041 -2.6442 -2.2949 -2.6593
  776MOL0     H 4725   3.061   8.829  11.983  1.2612 -2.3760  3.3227
  776MOL0     H 4726   2.951   8.764  11.748 -2.6243  1.7339 -0.2970
  776MOL0     H 4727   2.868   8.635  11.842 -1.5639  0.1663  0.2006
  776MOL0     H 4728   2.813   8.933  11.858  1.6158 -0.2624  0.6521
  776MOL0     H 4729   2.728   8.812  11.761  0.0258 -2.2636  1.1725
  776MOL0     H 4730   2.734   8.833  12.063 -2.7861  1.3003  0.7751
  776MOL0     H 4731   2.698   8.680  11.971  1.4259  0.6892  2.1851
  776MOL0     H 4732   2.491   8.798  11.889  2.3904 -1.0390 -1.4628
  776MOL0     H 4733   2.545   8.954  11.953 -2.6131  0.5568  0.0424
  776MOL0     H 4734   2.505   8.862  12.170 -0.6485  1.0727 -0.6777
  776MOL0     H 4735   2.358   8.860  12.078  0.4138  0.0742 -0.2439
  776MOL0     H 4736   2.546   8.633  12.158 -0.3195  1.7646  0.0220
  776MOL0     H 4737   2.442   8.599  12.023 -0.8350 -0.7617  0.6559
  776MOL0     H 4738   2.247   8.596  12.152 -1.6380 -0.0597  2.0629
  776MOL0     H 4739   2.368   8.520  12.252 -0.0543  1.0567  1.1591
  776MOL0     H 4740   3.305   8.483  11.942 -1.4823  0.5804  0.4306
  776MOL0     H 4741   3.524   8.532  11.850 -1.3640  0.4170 -1.2921
  776MOL0     H 4742   3.694   9.025  11.446 -1.9728 -3.9300  1.2142
  776MOL0     H 4743   3.909   9.155  11.437  2.3135 -0.4969 -0.0896
  776MOL0     H 4744   4.749   9.380   9.929 -1.2719  1.9170  2.9440
  776MOL0     H 4745   4.809   9.153   9.836  1.2171 -1.5183 -0.9209
  776MOL0     H 4746   5.061   8.632  10.036  1.7403  1.3863 -0.1114
  776MOL0     H 4747   5.087   8.439   9.906 -0.3078  1.6884  1.8054
  776MOL0     H 4748   5.187   8.292   9.794  4.3843  3.8763 -0.9994
  776MOL0     H 4749   5.267   8.249   9.657  1.4730  1.7198  1.1335
  776MOL0     H 4750   4.974   8.276   9.656 -0.0021  0.1662 -1.7671
  776MOL0     H 4751   5.044   8.123   9.710 -1.4391 -0.6002 -0.1922
  776MOL0     H 4752   5.086   8.261   9.431  1.7418 -0.5146 -0.3687
  776MOL0     H 4753   4.961   8.138   9.461  0.6138 -0.1810 -3.3031
  776MOL0     H 4754   5.179   8.070   9.349  2.8393  0.8216  1.3885
  776MOL0     H 4755   5.266   8.083   9.503  0.9086 -5.1006  0.8007
  776MOL0     H 4756   5.029   7.755   9.614  0.5151 -0.1378  1.0318
  776MOL0     H 4757   5.127   8.662   9.551  1.3638  0.6890  0.7961
  776MOL0     H 4758   4.968   8.950   9.643 -0.3058  3.1619  3.0731
  776MOL0     H 4759   5.113   9.005   9.706 -0.1309 -1.3594  0.8401
  776MOL0     H 4760   5.120   8.930   9.555  1.4094  0.4814  0.5845
  777MOL0     O 4761   9.946   5.318   1.546  0.2478 -0.9348  0.3356
  777MOL0     C 4762  10.052   5.266   1.573  0.4546  1.0577 -0.0561
  777MOL0     O 4763  10.079   5.175   1.674  0.3365  0.2946 -0.1039
  777MOL0     C 4764   9.977   5.122   1.744  0.4964  0.2368 -0.0107
  777MOL0     C 4765   9.905   5.192   1.842 -0.3700  0.4589  0.0119
  777MOL0     C 4766   9.802   5.134   1.921 -0.2422 -0.7051  0.5607
  777MOL0     C 4767   9.764   5.002   1.893  0.3006 -0.5230 -0.1736
  777MOL0     O 4768   9.664   4.945   1.973 -0.1475 -0.0529  0.1912
  777MOL0     C 4769   9.663   4.813   2.032 -0.7269  0.4915 -0.5077
  777MOL0     C 4770   9.516   4.792   2.094 -0.1939 -0.0736 -0.2311
  777MOL0     C 4771   9.487   4.648   2.148  0.3764 -0.0824  0.0208
  777MOL0     C 4772   9.477   4.537   2.036 -0.5625 -1.6124  0.6377
  777MOL0     C 4773   9.386   4.421   2.073  0.3872  0.6023  0.4089
  777MOL0     C 4774   9.377   4.304   1.977  0.7490 -0.5751  0.4888
  777MOL0     C 4775   9.278   4.338   1.859 -0.7324  0.7141 -0.3262
  777MOL0     C 4776   9.321   4.269   1.726  0.3238 -0.5267 -0.7917
  777MOL0     N 4777   9.227   4.284   1.620  0.1061 -0.4940 -0.2588
  777MOL0     C 4778   9.181   4.184   1.541  0.2018  0.5941 -0.1668
  777MOL0     C 4779   9.074   4.234   1.476  0.5952  1.1801  0.5220
  777MOL0     C 4780   8.986   4.153   1.382  0.1704 -0.5070 -1.0442
  777MOL0     C 4781   8.978   4.001   1.419  0.0291  0.6675 -0.5225
  777MOL0     C 4782   8.900   3.911   1.317 -0.0315  0.1567 -0.4071
  777MOL0     C 4783   8.751   3.896   1.348 -0.0982  0.0821  0.2454
  777MOL0     O 4784   8.730   3.859   1.486 -0.8996  0.0447 -1.0255
  777MOL0     C 4785   8.765   3.729   1.531  0.2593 -0.9848  0.5317
  777MOL0     C 4786   8.779   3.712   1.666 -0.0180  0.5184 -0.3826
  777MOL0     C 4787   8.823   3.590   1.718 -0.2576 -1.1287 -0.6995
  777MOL0     C 4788   8.866   3.488   1.636 -0.1396  0.1775  0.6729
  777MOL0     C 4789   8.921   3.371   1.690  0.0153 -0.4791 -0.5059
  777MOL0     O 4790   8.893   3.251   1.640 -0.7243  0.1744  1.0320
  777MOL0     C 4791   8.976   3.144   1.673  1.1684 -1.1490  0.4393
  777MOL0     C 4792   8.962   3.073   1.795  0.2024 -1.2967 -0.2530
  777MOL0     C 4793   9.028   2.952   1.813 -0.3825 -0.9392 -0.1899
  777MOL0     C 4794   9.113   2.907   1.713  0.2102 -0.4749  0.4995
  777MOL0     O 4795   9.182   2.790   1.719  1.1422  0.4563 -0.5521
  777MOL0     C 4796   9.243   2.756   1.849  0.8842 -1.0871 -0.2919
  777MOL0     C 4797   9.328   2.624   1.839  0.1894 -0.5967  0.7368
  777MOL0     C 4798   9.354   2.566   1.974 -0.6623 -0.3519  0.3274
  777MOL0     C 4799   9.351   2.415   1.975 -0.1776  0.0816  0.4011
  777MOL0     C 4800   9.378   2.361   2.118  0.5719 -0.1452 -0.2216
  777MOL0     C 4801   9.306   2.446   2.231 -0.6548  0.2786  0.0985
  777MOL0     C 4802   9.273   2.366   2.357 -0.9987  0.1445 -0.1027
  777MOL0     C 4803   9.403   2.340   2.445 -0.1365  0.2796  0.2500
  777MOL0    Cl 4804   9.534   2.242   2.374 -0.5546  0.2331  0.0290
  777MOL0     C 4805   9.127   2.966   1.590  0.2051 -0.1656  0.7886
  777MOL0     C 4806   9.062   3.095   1.569 -0.5480  0.0590  0.0556
  777MOL0     O 4807   8.997   3.393   1.783  0.4965  0.3918 -0.3223
  777MOL0     C 4808   8.826   3.497   1.503  0.0634  0.3872  1.0720
  777MOL0     C 4809   8.773   3.613   1.451 -0.6509 -0.7122  0.2620
  777MOL0     N 4810   9.060   4.372   1.519  0.2908  0.2514  0.6956
  777MOL0     N 4811   9.147   4.395   1.608 -0.1831  0.0114  0.6804
  777MOL0     C 4812   9.838   4.933   1.798 -0.0451  0.3800  0.5907
  777MOL0     C 4813   9.936   4.988   1.720  0.0212  0.0917  0.5631
  777MOL0     C 4814  10.165   5.299   1.478 -0.6239  1.2599 -0.3329
  777MOL0     C 4815  10.148   5.407   1.392 -0.0783  0.2674 -0.1256
  777MOL0     C 4816  10.257   5.449   1.307  0.9087 -0.6050  0.4875
  777MOL0     C 4817  10.367   5.372   1.288 -0.3945  0.5351  0.2048
  777MOL0     O 4818  10.446   5.414   1.178  0.2882  0.5621 -0.1926
  777MOL0     C 4819  10.549   5.319   1.133  0.4731  0.6395 -0.0151
  777MOL0     C 4820  10.576   5.343   0.988  0.1260  0.2551 -0.8152
  777MOL0     C 4821  10.711   5.290   0.953 -0.5681  0.3876  0.1958
  777MOL0     C 4822  10.742   5.300   0.800  0.2860 -0.4138 -0.1360
  777MOL0     C 4823  10.845   5.223   0.736 -0.2403  0.8207 -0.4728
  777MOL0     C 4824  10.922   5.148   0.688 -0.1749 -0.7126  0.4742
  777MOL0     C 4825  10.386   5.259   1.363  0.5326  0.1028 -0.6047
  777MOL0     C 4826  10.290   5.227   1.462  0.4513  0.4245  0.0363
  777MOL0     C 4827  10.329   5.117   1.557 -0.0209 -0.1751 -0.5988
  777MOL0     H 4828   9.919   5.299   1.857 -2.4971  0.8829 -0.5818
  777MOL0     H 4829   9.754   5.184   2.005  0.4217 -0.8494  1.0324
  777MOL0     H 4830   9.683   4.729   1.965 -3.9524 -2.9912  2.4075
  777MOL0     H 4831   9.730   4.793   2.115  1.1739  1.8693 -1.6299
  777MOL0     H 4832   9.444   4.815   2.015 -1.3785 -3.3546 -0.2376
  777MOL0     H 4833   9.507   4.868   2.173  0.2743  0.1226 -0.3635
  777MOL0     H 4834   9.396   4.661   2.208  0.8378  3.8436  0.0745
  777MOL0     H 4835   9.576   4.632   2.209  0.1027 -0.2843  0.3719
  777MOL0     H 4836   9.437   4.590   1.950  1.8707 -1.1059 -0.2690
  777MOL0     H 4837   9.578   4.502   2.011 -0.8081 -1.3474 -0.8132
  777MOL0     H 4838   9.425   4.373   2.164  2.9158  0.7040 -0.5187
  777MOL0     H 4839   9.288   4.465   2.090 -0.3959 -0.0819 -2.0204
  777MOL0     H 4840   9.474   4.264   1.947 -0.2108 -3.1326  0.5436
  777MOL0     H 4841   9.339   4.213   2.023 -3.0968 -0.4410 -1.9487
  777MOL0     H 4842   9.273   4.446   1.841  2.3562  0.8403 -0.8911
  777MOL0     H 4843   9.173   4.325   1.887 -0.7881  2.0340  0.1742
  777MOL0     H 4844   9.425   4.303   1.716  0.2747 -0.3642 -0.7496
  777MOL0     H 4845   9.336   4.164   1.754 -0.9496 -0.5030  0.0468
  777MOL0     H 4846   9.228   4.087   1.529 -0.8924  0.0079  0.0854
  777MOL0     H 4847   8.883   4.189   1.396  0.4221  0.1206 -0.7464
  777MOL0     H 4848   9.015   4.168   1.278 -2.2459 -0.8971 -1.8485
  777MOL0     H 4849   9.080   3.962   1.427  0.2927  1.6818  2.7622
  777MOL0     H 4850   8.945   3.989   1.523  1.4070 -1.3227 -0.2534
  777MOL0     H 4851   8.944   3.811   1.306 -0.6478 -0.0501 -1.0574
  777MOL0     H 4852   8.905   3.958   1.218 -1.0038 -1.0380 -1.0497
  777MOL0     H 4853   8.712   3.822   1.277 -1.7992  0.8652  0.3390
  777MOL0     H 4854   8.702   3.993   1.336 -2.7806 -1.2284 -0.0576
  777MOL0     H 4855   8.772   3.796   1.736 -3.4926 -1.7874  2.3563
  777MOL0     H 4856   8.854   3.589   1.822  1.3095 -0.5241 -1.1383
  777MOL0     H 4857   8.895   3.114   1.870 -1.0237 -0.3845 -1.7836
  777MOL0     H 4858   9.018   2.912   1.914 -1.8465  4.0790  1.9424
  777MOL0     H 4859   9.315   2.830   1.886 -2.3669  0.8494  2.8916
  777MOL0     H 4860   9.154   2.739   1.911 -0.6407  1.5269 -1.5865
  777MOL0     H 4861   9.275   2.556   1.773 -0.5599  1.4925 -0.9262
  777MOL0     H 4862   9.417   2.646   1.780 -0.0859  0.2295  0.6126
  777MOL0     H 4863   9.446   2.589   2.029 -2.5991 -0.0643  3.7752
  777MOL0     H 4864   9.270   2.600   2.035 -1.8694 -2.7887  0.1381
  777MOL0     H 4865   9.422   2.385   1.897  0.4421  3.0402 -0.3308
  777MOL0     H 4866   9.253   2.371   1.957  0.0311  0.0166 -0.6802
  777MOL0     H 4867   9.487   2.371   2.128  0.8031  1.5941 -3.3854
  777MOL0     H 4868   9.340   2.259   2.133 -1.5402  0.7534  0.9638
  777MOL0     H 4869   9.358   2.539   2.256 -1.2939  1.5105 -2.6527
  777MOL0     H 4870   9.206   2.479   2.200 -1.3900  1.2529  3.1774
  777MOL0     H 4871   9.230   2.269   2.330  1.8012 -1.3033  0.2415
  777MOL0     H 4872   9.203   2.417   2.423  0.1589  3.4891 -1.2532
  777MOL0     H 4873   9.440   2.431   2.493  0.0349 -1.3929  3.5793
  777MOL0     H 4874   9.370   2.265   2.517 -1.7188 -0.8084 -1.5100
  777MOL0     H 4875   9.185   2.915   1.514 -1.4223 -2.8082  1.1934
  777MOL0     H 4876   9.080   3.153   1.479 -1.0141  0.0321 -0.0561
  777MOL0     H 4877   8.848   3.411   1.440 -0.0846 -2.1710  4.2447
  777MOL0     H 4878   8.765   3.610   1.343  0.7514 -1.1971  0.1421
  777MOL0     H 4879   9.801   4.837   1.764 -1.9212  1.4460 -0.5442
  777MOL0     H 4880   9.993   4.931   1.648  0.2896  0.8208  0.1824
  777MOL0     H 4881  10.058   5.468   1.390  0.6914  1.4356 -2.2599
  777MOL0     H 4882  10.247   5.540   1.248 -1.0731 -1.3815 -0.4786
  777MOL0     H 4883  10.525   5.213   1.147  2.5439  0.2783  1.2661
  777MOL0     H 4884  10.630   5.358   1.195 -1.1186  2.8649  0.8201
  777MOL0     H 4885  10.568   5.448   0.959 -0.8387  0.4653  0.1189
  777MOL0     H 4886  10.500   5.283   0.936 -2.0688  0.8034  1.5385
  777MOL0     H 4887  10.713   5.185   0.986  0.5182 -0.1179 -1.3455
  777MOL0     H 4888  10.786   5.349   1.006  0.1842 -1.3136  1.1209
  777MOL0     H 4889  10.651   5.280   0.742  2.9756 -4.9721 -3.4447
  777MOL0     H 4890  10.772   5.403   0.779 -0.0825 -0.8485 -3.2709
  777MOL0     H 4891  10.990   5.073   0.653  0.0456  0.6081 -2.1894
  777MOL0     H 4892  10.476   5.199   1.360  0.3640 -0.1368 -0.8395
  777MOL0     H 4893  10.341   5.156   1.658 -2.1736 -2.4050  0.6312
  777MOL0     H 4894  10.248   5.044   1.567 -0.1395  0.3156  3.5107
  777MOL0     H 4895  10.426   5.074   1.529  0.5560  0.9224 -0.3518
  778MOL0     O 4896   5.939   8.800   5.003 -0.0097 -0.4485  0.1962
  778MOL0     C 4897   5.951   8.904   4.939 -0.6816  0.1044 -0.0710
  778MOL0     O 4898   6.038   9.010   4.963  0.6150 -0.0283 -0.8875
  778MOL0     C 4899   6.146   8.998   5.045 -0.2627  0.0466  0.3600
  778MOL0     C 4900   6.209   8.872   5.062 -0.0970 -0.3746 -0.1834
  778MOL0     C 4901   6.318   8.856   5.132 -0.2128 -0.5590 -0.0096
  778MOL0     C 4902   6.372   8.965   5.208 -0.2031  1.0012 -0.9379
  778MOL0     O 4903   6.485   8.931   5.278 -0.0452  0.0681  0.9154
  778MOL0     C 4904   6.584   9.034   5.254  0.6556 -0.3110  0.4186
  778MOL0     C 4905   6.713   8.983   5.310 -1.1664 -0.0679  0.9781
  778MOL0     C 4906   6.831   9.075   5.259  0.2550 -0.0024 -1.1266
  778MOL0     C 4907   6.968   9.046   5.326 -0.7166  0.4094  0.9057
  778MOL0     C 4908   7.019   8.894   5.310  0.2299  0.8343  0.0636
  778MOL0     C 4909   7.026   8.828   5.168  0.8655 -0.0984  0.4517
  778MOL0     C 4910   7.105   8.689   5.173  0.0125 -0.3542  0.1798
  778MOL0     C 4911   7.246   8.691   5.206 -0.3310  0.3325  0.3069
  778MOL0     N 4912   7.320   8.777   5.123  0.8439  0.2520  0.1108
  778MOL0     C 4913   7.350   8.765   4.991 -0.6457 -0.2134 -0.4801
  778MOL0     C 4914   7.412   8.884   4.952 -1.0245 -0.8245 -0.0634
  778MOL0     C 4915   7.463   8.923   4.815 -1.3666  0.1926  0.8676
  778MOL0     C 4916   7.604   8.988   4.824  0.7943  0.4111 -0.3137
  778MOL0     C 4917   7.712   8.882   4.848  0.0868 -0.3482 -0.2657
  778MOL0     C 4918   7.829   8.954   4.923  0.5358  0.8857 -0.2897
  778MOL0     O 4919   7.888   9.061   4.849 -0.3143 -0.4599 -0.0137
  778MOL0     C 4920   7.987   9.030   4.752  0.0897  0.4709 -0.1423
  778MOL0     C 4921   8.048   8.912   4.715  0.1489  0.3479  0.0517
  778MOL0     C 4922   8.179   8.914   4.664 -0.5242 -0.6511 -0.2457
  778MOL0     C 4923   8.244   9.032   4.628  0.5049 -1.1765  0.0067
  778MOL0     C 4924   8.384   9.024   4.594  0.5705  0.0389  0.0029
  778MOL0     O 4925   8.456   8.934   4.663  0.0266  0.2411 -0.2502
  778MOL0     C 4926   8.590   8.940   4.662  0.0107 -0.6205  0.5094
  778MOL0     C 4927   8.659   8.855   4.574 -0.7368  1.1814  0.6287
  778MOL0     C 4928   8.796   8.846   4.582 -0.8472 -0.1072 -0.0701
  778MOL0     C 4929   8.867   8.933   4.670  0.2230  0.0042 -0.3776
  778MOL0     O 4930   9.001   8.929   4.694  0.5043  1.1219 -0.1261
  778MOL0     C 4931   9.095   8.868   4.608 -0.4575 -0.0202 -0.4654
  778MOL0     C 4932   9.228   8.943   4.609 -0.2358  0.0251 -0.6614
  778MOL0     C 4933   9.333   8.850   4.552  0.3671 -0.2678 -0.3952
  778MOL0     C 4934   9.473   8.929   4.552 -0.2269 -0.4085 -0.4323
  778MOL0     C 4935   9.473   9.032   4.431  0.2147 -0.1414  0.0993
  778MOL0     C 4936   9.580   9.132   4.434 -0.0069  0.4462 -0.4056
  778MOL0     C 4937   9.728   9.083   4.448  0.0341 -0.5460 -0.1638
  778MOL0     C 4938   9.764   9.011   4.321  0.2841  0.0963  0.3624
  778MOL0    Cl 4939   9.919   8.933   4.357  0.2461 -0.6525 -0.1569
  778MOL0     C 4940   8.794   9.022   4.750  0.8603 -0.1143 -1.0615
  778MOL0     C 4941   8.657   9.030   4.739  0.0740  0.6149  0.2633
  778MOL0     O 4942   8.426   9.105   4.505  0.0987 -0.1554 -0.6495
  778MOL0     C 4943   8.175   9.154   4.646 -0.1032  0.7548  0.5130
  778MOL0     C 4944   8.053   9.153   4.712 -0.0671  0.4180 -0.0455
  778MOL0     N 4945   7.431   8.951   5.075 -0.3742 -0.1968 -0.3971
  778MOL0     N 4946   7.369   8.891   5.167 -0.0932  0.5815 -0.0772
  778MOL0     C 4947   6.315   9.091   5.185 -0.7861  0.5574 -1.0629
  778MOL0     C 4948   6.197   9.111   5.108 -0.6089 -0.2229  1.3083
  778MOL0     C 4949   5.871   8.921   4.817  0.8806  0.3946  0.0605
  778MOL0     C 4950   5.746   8.857   4.808  0.4204 -0.1112  0.4016
  778MOL0     C 4951   5.645   8.886   4.710  0.4269  0.7261 -0.0008
  778MOL0     C 4952   5.673   8.964   4.600 -0.5306  0.3781  1.0067
  778MOL0     O 4953   5.569   8.999   4.515  0.4926 -0.3518 -0.1990
  778MOL0     C 4954   5.605   9.046   4.384  0.2241 -0.3106  0.3550
  778MOL0     C 4955   5.494   9.012   4.284  0.4033  0.7662 -0.0331
  778MOL0     C 4956   5.486   8.864   4.245  0.4982 -0.6550 -0.7824
  778MOL0     C 4957   5.374   8.828   4.154 -0.4856  0.5750 -0.2445
  778MOL0     C 4958   5.429   8.847   4.024 -0.4783 -0.2869  0.4484
  778MOL0     C 4959   5.452   8.862   3.904  0.6961  0.2541  0.2679
  778MOL0     C 4960   5.804   9.027   4.592 -0.2720 -0.3944  0.1452
  778MOL0     C 4961   5.903   9.001   4.698 -0.9378  0.2630 -0.5802
  778MOL0     C 4962   6.038   9.057   4.680 -0.3943 -0.1496 -0.3743
  778MOL0     H 4963   6.177   8.780   5.012  3.2719 -1.6831 -0.1948
  778MOL0     H 4964   6.363   8.757   5.142  1.5915  0.2336  0.1722
  778MOL0     H 4965   6.591   9.054   5.146 -0.7895  2.0575  0.6815
  778MOL0     H 4966   6.552   9.126   5.303 -1.6391 -1.2699  0.8525
  778MOL0     H 4967   6.730   8.881   5.274  1.7216  1.0003 -1.0705
  778MOL0     H 4968   6.716   8.981   5.420  0.1211 -0.4144  0.9533
  778MOL0     H 4969   6.796   9.177   5.278 -2.2785 -1.0000 -0.0059
  778MOL0     H 4970   6.841   9.072   5.151 -3.1249  2.2719 -1.6627
  778MOL0     H 4971   7.051   9.106   5.286 -1.5013  0.4853 -0.6846
  778MOL0     H 4972   6.975   9.057   5.434  0.1770 -2.3787  1.2055
  778MOL0     H 4973   7.123   8.896   5.344  0.1507  2.3761  0.2945
  778MOL0     H 4974   6.963   8.822   5.370  1.6768 -1.3320 -1.0609
  778MOL0     H 4975   6.927   8.801   5.129  0.6126  1.0104  0.3018
  778MOL0     H 4976   7.074   8.898   5.099 -0.6255 -1.2230 -1.8425
  778MOL0     H 4977   7.078   8.633   5.083 -0.3360  0.9212 -0.5328
  778MOL0     H 4978   7.056   8.642   5.259 -0.6601  2.8388  1.6859
  778MOL0     H 4979   7.249   8.726   5.310  2.0133  2.7578 -0.4754
  778MOL0     H 4980   7.289   8.590   5.207  3.0421  1.6592  1.6754
  778MOL0     H 4981   7.325   8.679   4.930 -1.1248  0.9755 -2.0230
  778MOL0     H 4982   7.474   8.824   4.771  1.4157  0.7255  0.1573
  778MOL0     H 4983   7.391   8.982   4.758  0.7226  0.6037 -1.5173
  778MOL0     H 4984   7.623   9.026   4.723  0.1803  1.7260  0.0537
  778MOL0     H 4985   7.614   9.073   4.891  1.7537  0.7779 -0.8914
  778MOL0     H 4986   7.745   8.856   4.748  2.3372  3.0916 -0.6058
  778MOL0     H 4987   7.669   8.798   4.904 -0.3343 -0.5156 -0.8345
  778MOL0     H 4988   7.907   8.880   4.943  0.0665  0.4492 -0.0543
  778MOL0     H 4989   7.788   8.996   5.015 -2.7518  0.0926 -1.2241
  778MOL0     H 4990   8.020   8.812   4.746  3.4662 -1.6396 -2.6319
  778MOL0     H 4991   8.233   8.820   4.662  0.2436 -0.2156 -1.5822
  778MOL0     H 4992   8.596   8.785   4.519 -0.9274 -0.1316  2.4317
  778MOL0     H 4993   8.850   8.763   4.538 -0.0125  1.0429 -1.3281
  778MOL0     H 4994   9.112   8.762   4.632  0.9139  0.0982 -0.7940
  778MOL0     H 4995   9.058   8.863   4.505  1.1443  1.1363 -1.1477
  778MOL0     H 4996   9.215   9.037   4.555  0.4193  0.5032 -0.0183
  778MOL0     H 4997   9.258   8.966   4.712 -0.3582 -3.3954  0.2491
  778MOL0     H 4998   9.341   8.757   4.609  2.6800 -0.6372 -1.2265
  778MOL0     H 4999   9.323   8.823   4.446  0.6831  0.2577 -0.5607
  778MOL0     H 5000   9.550   8.851   4.550  2.0067  1.6230  1.2193
  778MOL0     H 5001   9.486   8.980   4.648 -1.2124 -0.1883 -0.4000
  778MOL0     H 5002   9.384   9.095   4.433  0.6670  0.5850 -1.4834
  778MOL0     H 5003   9.479   8.969   4.342  2.2391 -0.1854  0.2218
  778MOL0     H 5004   9.572   9.200   4.348  0.8755 -1.4471 -2.0407
  778MOL0     H 5005   9.547   9.201   4.513  1.9277  0.5813  0.3273
  778MOL0     H 5006   9.732   9.022   4.540 -1.7958  0.9715  0.9876
  778MOL0     H 5007   9.794   9.169   4.457  3.5065 -2.8084 -1.7274
  778MOL0     H 5008   9.687   8.934   4.306  1.1390 -1.1087  1.9768
  778MOL0     H 5009   9.756   9.067   4.227 -0.8765 -3.5035 -1.9389
  778MOL0     H 5010   8.840   9.099   4.812 -2.1390  0.2868  0.8598
  778MOL0     H 5011   8.591   9.094   4.797 -2.4049 -1.8115  0.3248
  778MOL0     H 5012   8.224   9.242   4.605 -0.4552  0.4159 -0.6830
  778MOL0     H 5013   8.015   9.244   4.757  0.6263  0.1020  1.2034
  778MOL0     H 5014   6.367   9.178   5.223 -3.7791  1.5480  1.1498
  778MOL0     H 5015   6.162   9.210   5.082  1.1118 -0.2102 -1.3576
  778MOL0     H 5016   5.709   8.808   4.898 -1.2998  0.8917  0.2811
  778MOL0     H 5017   5.543   8.853   4.727  2.1254 -3.5243  4.4997
  778MOL0     H 5018   5.699   9.001   4.350  1.5061  0.9944  1.9402
  778MOL0     H 5019   5.620   9.155   4.387 -0.2359 -0.2284  4.0031
  778MOL0     H 5020   5.514   9.078   4.199  2.4917  1.7820  1.1459
  778MOL0     H 5021   5.395   9.044   4.318  1.4614  4.1122  0.3289
  778MOL0     H 5022   5.477   8.823   4.346  4.7993  1.3558  0.6546
  778MOL0     H 5023   5.589   8.845   4.213  0.7379  1.5564 -1.4975
  778MOL0     H 5024   5.346   8.723   4.167 -4.2332  1.4373 -0.0070
  778MOL0     H 5025   5.288   8.891   4.177 -2.1353 -1.9824  1.0831
  778MOL0     H 5026   5.480   8.892   3.805 -0.3177  1.3661  0.2986
  778MOL0     H 5027   5.826   9.107   4.523 -0.1172  1.7787  2.5431
  778MOL0     H 5028   6.044   9.164   4.702 -1.7583  0.9576 -4.5401
  778MOL0     H 5029   6.122   9.007   4.730 -1.6977 -0.6129  1.4480
  778MOL0     H 5030   6.056   9.053   4.572  1.0667  1.7581 -0.2504
  779MOL0     O 5031   7.924   4.016  10.592 -0.9185  0.1180  0.6264
  779MOL0     C 5032   7.916   3.897  10.576 -0.7057 -0.6895  0.1874
  779MOL0     O 5033   8.016   3.817  10.533 -0.5035 -0.2243  0.3117
  779MOL0     C 5034   8.148   3.863  10.519  0.1247  0.4438 -1.4133
  779MOL0     C 5035   8.229   3.830  10.630 -0.3044 -1.0861  0.9671
  779MOL0     C 5036   8.364   3.853  10.624 -0.4374 -0.6956 -0.0574
  779MOL0     C 5037   8.422   3.921  10.518 -0.3861  0.4634  0.3895
  779MOL0     O 5038   8.557   3.938  10.507 -0.5561  0.0396 -0.6363
  779MOL0     C 5039   8.640   3.823  10.519  1.5488 -0.4092 -0.1385
  779MOL0     C 5040   8.780   3.868  10.464  0.0681 -1.0801  1.0297
  779MOL0     C 5041   8.873   3.757  10.443 -0.1765  0.2138  0.2153
  779MOL0     C 5042   9.018   3.813  10.391  0.5673  0.6626 -1.0126
  779MOL0     C 5043   9.110   3.694  10.397  1.3030  0.8059 -0.7456
  779MOL0     C 5044   9.153   3.644  10.541  1.0431  0.7702 -0.5085
  779MOL0     C 5045   9.275   3.565  10.545  0.2672  0.7566  0.8047
  779MOL0     C 5046   9.259   3.433  10.467  0.0164 -0.3176 -1.1401
  779MOL0     N 5047   9.361   3.337  10.504 -0.2604  0.5949  0.8830
  779MOL0     C 5048   9.488   3.322  10.441  1.0132 -0.8142 -0.1494
  779MOL0     C 5049   9.537   3.204  10.488  1.2222 -0.5966 -1.0376
  779MOL0     C 5050   9.664   3.148  10.439 -0.8441 -0.2499 -0.3644
  779MOL0     C 5051   9.779   3.148  10.543  0.3928 -0.7628  0.0354
  779MOL0     C 5052   9.895   3.063  10.501 -0.4499  0.6251 -0.1713
  779MOL0     C 5053  10.006   3.062  10.606  0.3553  0.2486  0.3671
  779MOL0     O 5054   9.965   2.996  10.724 -0.4335 -0.1136  0.3399
  779MOL0     C 5055  10.064   2.946  10.803 -0.5152  0.0480 -0.9119
  779MOL0     C 5056  10.039   2.824  10.868 -0.0549  0.0113  0.9245
  779MOL0     C 5057  10.135   2.771  10.951  0.1606  0.6982 -0.0552
  779MOL0     C 5058  10.258   2.827  10.970 -0.6676  0.4595  0.9778
  779MOL0     C 5059  10.366   2.770  11.066  1.0220 -0.8942 -0.2253
  779MOL0     O 5060  10.343   2.651  11.121 -0.1164 -0.0143 -0.0450
  779MOL0     C 5061  10.437   2.578  11.195 -0.5504 -1.1292 -0.6736
  779MOL0     C 5062  10.575   2.582  11.185  0.6439  0.6548  0.9858
  779MOL0     C 5063  10.656   2.487  11.252 -0.3384  0.8088 -0.2007
  779MOL0     C 5064  10.601   2.384  11.326  0.3500 -0.2594  0.9386
  779MOL0     O 5065  10.664   2.280  11.382 -0.3418  0.0647  0.8060
  779MOL0     C 5066  10.661   2.149  11.316 -0.3062  0.5233 -0.5136
  779MOL0     C 5067  10.800   2.090  11.339  0.9015 -0.5941 -1.0499
  779MOL0     C 5068  10.820   1.964  11.259  1.1357  0.0311 -0.2069
  779MOL0     C 5069  10.730   1.842  11.292 -0.7492  0.2676  0.3346
  779MOL0     C 5070  10.787   1.757  11.412 -0.0742 -1.3852  0.5915
  779MOL0     C 5071  10.673   1.730  11.502 -0.1697 -0.3243 -0.5504
  779MOL0     C 5072  10.550   1.656  11.452 -0.1339  0.5957  0.6787
  779MOL0     C 5073  10.426   1.699  11.529  0.1437  0.0810 -0.4364
  779MOL0    Cl 5074  10.378   1.864  11.494 -0.4314  0.2265 -0.0059
  779MOL0     C 5075  10.458   2.379  11.337  0.7163 -0.3540  0.7725
  779MOL0     C 5076  10.377   2.476  11.269 -0.8332  0.1635  0.1498
  779MOL0     O 5077  10.467   2.845  11.076  0.2139  0.1847  0.4604
  779MOL0     C 5078  10.269   2.953  10.911 -0.4196 -0.3903  0.5296
  779MOL0     C 5079  10.181   3.020  10.832  0.1068  0.3456 -0.7531
  779MOL0     N 5080   9.449   3.151  10.581 -0.0110  0.8765  0.5748
  779MOL0     N 5081   9.349   3.233  10.591  1.3128  0.4532 -0.0299
  779MOL0     C 5082   8.345   3.964  10.413  0.0037  0.0087  0.3963
  779MOL0     C 5083   8.204   3.936  10.415 -1.2321 -0.6801 -0.2838
  779MOL0     C 5084   7.781   3.826  10.578 -1.1572 -1.1257  0.6444
  779MOL0     C 5085   7.759   3.728  10.481  0.2388 -1.0015 -0.0548
  779MOL0     C 5086   7.637   3.675  10.459  0.6302  0.6056  0.3886
  779MOL0     C 5087   7.526   3.701  10.547  0.2700  0.9456  0.3300
  779MOL0     O 5088   7.408   3.632  10.523  0.2326  0.2042 -0.2552
  779MOL0     C 5089   7.299   3.666  10.606  0.5711 -0.2555 -0.0461
  779MOL0     C 5090   7.286   3.572  10.727 -0.4839 -0.3897  0.3982
  779MOL0     C 5091   7.147   3.582  10.784  0.8018 -0.1144  0.6009
  779MOL0     C 5092   7.102   3.718  10.816 -0.2613 -0.3883 -0.1191
  779MOL0     C 5093   7.179   3.800  10.911  0.3804 -1.5645 -0.2410
  779MOL0     C 5094   7.245   3.866  10.997  0.5768  0.4290 -0.0936
  779MOL0     C 5095   7.557   3.791  10.646 -0.2000 -0.8486 -0.2032
  779MOL0     C 5096   7.676   3.859  10.664 -1.4589  0.0554  0.2151
  779MOL0     C 5097   7.690   3.959  10.771 -0.3229  0.2777 -0.4385
  779MOL0     H 5098   8.195   3.794  10.726  2.1246 -2.3994  1.4159
  779MOL0     H 5099   8.433   3.822  10.703 -1.5991 -3.4901 -0.0076
  779MOL0     H 5100   8.653   3.807  10.626  1.1402 -1.3759 -0.2273
  779MOL0     H 5101   8.603   3.729  10.477  1.3385 -2.6772  4.4678
  779MOL0     H 5102   8.814   3.942  10.537 -3.7879  1.4872  0.5435
  779MOL0     H 5103   8.766   3.921  10.370 -1.5945 -5.2795 -1.3898
  779MOL0     H 5104   8.843   3.686  10.365  2.3397  1.6427 -2.2550
  779MOL0     H 5105   8.882   3.709  10.541  2.6043 -0.8581 -0.4703
  779MOL0     H 5106   9.004   3.858  10.292 -0.2887  0.2192 -1.1070
  779MOL0     H 5107   9.051   3.887  10.464  1.4832 -1.3538  0.7114
  779MOL0     H 5108   9.063   3.612  10.342  0.1438  1.2883 -0.5014
  779MOL0     H 5109   9.199   3.707  10.334  1.1946  1.6210 -0.7514
  779MOL0     H 5110   9.182   3.736  10.593 -0.5206  1.8092 -1.3886
  779MOL0     H 5111   9.070   3.584  10.579 -2.1034  1.7410 -5.0021
  779MOL0     H 5112   9.301   3.524  10.644  0.3070 -2.3920 -0.3809
  779MOL0     H 5113   9.363   3.623  10.516  0.8049 -0.7734 -0.7674
  779MOL0     H 5114   9.163   3.385  10.488  0.1522 -0.1686 -0.0958
  779MOL0     H 5115   9.282   3.449  10.362  3.3983  2.2160 -0.1798
  779MOL0     H 5116   9.544   3.393  10.381  4.5631 -0.2488  3.3560
  779MOL0     H 5117   9.625   3.050  10.410 -3.3183  0.1248  1.3867
  779MOL0     H 5118   9.697   3.215  10.359  2.5621 -0.3590  0.7935
  779MOL0     H 5119   9.806   3.252  10.567 -0.0631 -0.6959  0.2753
  779MOL0     H 5120   9.737   3.100  10.632 -2.3478 -1.2378 -1.4015
  779MOL0     H 5121   9.948   3.117  10.421 -0.1060  0.3618 -0.1211
  779MOL0     H 5122   9.873   2.959  10.476 -1.5207  0.2756  2.0181
  779MOL0     H 5123  10.053   3.156  10.636  3.0056 -1.5266  2.2563
  779MOL0     H 5124  10.095   3.012  10.564  0.7989 -0.0353  1.6072
  779MOL0     H 5125   9.951   2.765  10.843 -0.1268  0.6396 -0.4092
  779MOL0     H 5126  10.122   2.674  10.998  1.1912  2.0722  3.3492
  779MOL0     H 5127  10.630   2.659  11.131  0.9425 -0.1161  0.1630
  779MOL0     H 5128  10.763   2.495  11.240  0.3270 -0.1942  3.7218
  779MOL0     H 5129  10.589   2.090  11.375 -1.4889  0.1006 -2.2729
  779MOL0     H 5130  10.634   2.140  11.210  0.2703 -4.2455 -0.5116
  779MOL0     H 5131  10.883   2.156  11.310  0.6784 -0.1715 -0.7419
  779MOL0     H 5132  10.802   2.055  11.442  0.0430  0.1705 -0.7615
  779MOL0     H 5133  10.811   1.985  11.152  0.0367 -3.6799 -0.9909
  779MOL0     H 5134  10.923   1.929  11.266  0.8769 -2.2457 -4.6559
  779MOL0     H 5135  10.705   1.778  11.206 -2.6695  0.9608  0.3226
  779MOL0     H 5136  10.631   1.879  11.319 -0.7862  1.4837 -1.3051
  779MOL0     H 5137  10.868   1.812  11.460  1.1271 -0.8266 -1.9013
  779MOL0     H 5138  10.836   1.667  11.374  0.8347 -0.9611  0.7258
  779MOL0     H 5139  10.719   1.676  11.585 -0.6178  3.8772  2.7930
  779MOL0     H 5140  10.646   1.831  11.534  0.1288 -0.8411  1.4855
  779MOL0     H 5141  10.555   1.547  11.454 -1.9075  0.4689 -0.1678
  779MOL0     H 5142  10.532   1.685  11.348 -1.3418 -0.0449  0.6949
  779MOL0     H 5143  10.344   1.629  11.512  2.9222 -3.3183 -0.8340
  779MOL0     H 5144  10.446   1.682  11.635  2.1429  2.0757 -0.4091
  779MOL0     H 5145  10.405   2.313  11.404 -0.8296  0.4201  0.3501
  779MOL0     H 5146  10.269   2.475  11.273 -0.8972  1.4557 -0.5918
  779MOL0     H 5147  10.353   3.015  10.940 -2.9807  2.5202  2.2111
  779MOL0     H 5148  10.188   3.123  10.796  0.3630  0.2670 -0.9336
  779MOL0     H 5149   8.397   4.017  10.334  1.1081 -1.1466  0.3262
  779MOL0     H 5150   8.128   3.963  10.342 -1.9971 -2.1184 -0.0659
  779MOL0     H 5151   7.832   3.676  10.420 -0.1425 -3.3868  1.3793
  779MOL0     H 5152   7.632   3.611  10.372 -1.1724  1.9010 -0.5465
  779MOL0     H 5153   7.206   3.658  10.548  1.1261 -2.8223 -0.6834
  779MOL0     H 5154   7.286   3.770  10.639 -1.0360 -0.9123  1.5587
  779MOL0     H 5155   7.368   3.591  10.797 -1.0545 -0.5314  1.1209
  779MOL0     H 5156   7.305   3.470  10.694 -0.1408 -0.7872  1.7850
  779MOL0     H 5157   7.132   3.530  10.879 -0.1720 -0.0823  0.4697
  779MOL0     H 5158   7.078   3.538  10.711 -0.4557 -1.5270  2.5363
  779MOL0     H 5159   7.104   3.779  10.725  3.5465 -0.0148  0.0575
  779MOL0     H 5160   6.998   3.701  10.844 -1.0162  1.0872 -1.8038
  779MOL0     H 5161   7.303   3.914  11.073  3.6300 -2.6863 -0.2116
  779MOL0     H 5162   7.486   3.810  10.726  1.0320  3.5718  0.0895
  779MOL0     H 5163   7.794   3.946  10.802  0.4067 -3.4188 -3.6216
  779MOL0     H 5164   7.672   4.062  10.739 -0.0487  0.3722 -0.2913
  779MOL0     H 5165   7.630   3.935  10.859  1.2626 -3.2959 -0.1096
  780MOL0     O 5166   3.575  10.881   8.275 -0.0988  0.2122 -0.0048
  780MOL0     C 5167   3.651  10.949   8.200  0.0557 -0.9333  1.4280
  780MOL0     O 5168   3.654  11.089   8.189 -0.5339  0.3185 -0.3878
  780MOL0     C 5169   3.552  11.161   8.255  0.3753  0.4838 -0.0756
  780MOL0     C 5170   3.589  11.286   8.296 -0.1722  0.6356  0.6636
  780MOL0     C 5171   3.498  11.372   8.337  0.1930  0.2043  0.4865
  780MOL0     C 5172   3.365  11.340   8.355 -0.3362  0.3728 -0.1157
  780MOL0     O 5173   3.281  11.429   8.421 -1.1433 -1.2289 -0.0906
  780MOL0     C 5174   3.152  11.400   8.474 -0.4967  0.3651  0.5588
  780MOL0     C 5175   3.038  11.412   8.358  0.4075  0.0655 -0.2355
  780MOL0     C 5176   2.889  11.413   8.400 -0.8569 -0.9533  0.4784
  780MOL0     C 5177   2.842  11.278   8.440 -0.7712  0.0936  0.0332
  780MOL0     C 5178   2.690  11.271   8.457 -0.3593 -1.1287 -0.3925
  780MOL0     C 5179   2.631  11.135   8.486 -0.7532 -0.6306  0.4253
  780MOL0     C 5180   2.482  11.124   8.445  0.6416  1.1780  0.9110
  780MOL0     C 5181   2.435  10.980   8.505 -0.5177 -0.6644  0.2158
  780MOL0     N 5182   2.303  10.935   8.467  0.3158 -0.1237  0.2103
  780MOL0     C 5183   2.267  10.851   8.361  0.0139 -0.3373  0.5645
  780MOL0     C 5184   2.130  10.841   8.378 -0.2000 -0.5173 -0.3928
  780MOL0     C 5185   2.046  10.764   8.283 -0.5578  0.2073  0.4061
  780MOL0     C 5186   1.937  10.686   8.360  0.1434  0.0976  0.6237
  780MOL0     C 5187   1.868  10.579   8.275  0.3430  0.0259  0.1126
  780MOL0     C 5188   1.794  10.473   8.362 -1.0691 -0.4043 -0.1362
  780MOL0     O 5189   1.889  10.379   8.412  0.1862  0.3109 -0.3600
  780MOL0     C 5190   1.843  10.254   8.456  0.5071  0.0927 -0.3629
  780MOL0     C 5191   1.937  10.184   8.523 -0.0903  0.3404 -0.3450
  780MOL0     C 5192   1.913  10.060   8.574 -0.6099  0.8629  0.4097
  780MOL0     C 5193   1.784  10.015   8.587 -0.1139 -0.6801 -0.7690
  780MOL0     C 5194   1.760   9.893   8.665 -0.0111  0.3344 -0.3854
  780MOL0     O 5195   1.865   9.845   8.744  0.1846 -0.3797 -0.0535
  780MOL0     C 5196   1.848   9.747   8.840 -0.8414  0.1616 -0.5017
  780MOL0     C 5197   1.962   9.684   8.883 -1.4406  0.1363  0.7220
  780MOL0     C 5198   1.949   9.566   8.954 -0.7847  0.5046 -0.6404
  780MOL0     C 5199   1.824   9.516   9.005  0.3172  1.0952  0.1925
  780MOL0     O 5200   1.806   9.406   9.086 -0.4774  0.3756  1.0013
  780MOL0     C 5201   1.910   9.308   9.108 -0.2337  0.6272 -0.0168
  780MOL0     C 5202   1.926   9.201   8.997 -0.5260  0.0467 -0.5132
  780MOL0     C 5203   1.794   9.154   8.943  0.1525 -0.0741 -0.4437
  780MOL0     C 5204   1.825   9.045   8.845  0.0953  0.4335  0.6766
  780MOL0     C 5205   1.700   8.999   8.768  0.2839  1.0043 -0.4497
  780MOL0     C 5206   1.757   8.896   8.672  0.0115 -0.0957  1.3610
  780MOL0     C 5207   1.653   8.816   8.587 -0.0687  0.2465  0.0931
  780MOL0     C 5208   1.703   8.747   8.460 -0.5484 -0.7835  0.9788
  780MOL0    Cl 5209   1.826   8.854   8.373 -0.0934  0.0159 -0.1247
  780MOL0     C 5210   1.724   9.596   8.978  1.3666  0.2901 -0.5992
  780MOL0     C 5211   1.731   9.719   8.896  0.0594  1.0742 -0.4784
  780MOL0     O 5212   1.652   9.840   8.644 -0.2882 -0.1695 -0.2033
  780MOL0     C 5213   1.684  10.090   8.526  0.0061 -0.5268 -0.8981
  780MOL0     C 5214   1.715  10.206   8.456  0.2056 -1.2465 -1.0206
  780MOL0     N 5215   2.088  10.921   8.485 -0.5786 -0.0694  0.3008
  780MOL0     N 5216   2.190  10.985   8.535 -0.0652 -0.2597  0.6308
  780MOL0     C 5217   3.318  11.209   8.320  0.7865 -0.4362 -0.4021
  780MOL0     C 5218   3.416  11.125   8.258  0.3738 -0.2733  0.3988
  780MOL0     C 5219   3.720  10.875   8.094  0.3122 -0.6837  0.2882
  780MOL0     C 5220   3.665  10.753   8.036  0.3653 -1.2614 -0.8363
  780MOL0     C 5221   3.736  10.680   7.939  0.3370  0.2428 -0.0117
  780MOL0     C 5222   3.858  10.727   7.901  0.1160  1.0128  0.7859
  780MOL0     O 5223   3.911  10.667   7.788  0.6058  0.6914  0.7447
  780MOL0     C 5224   3.965  10.536   7.798 -0.2814  0.5864  0.9176
  780MOL0     C 5225   3.946  10.454   7.668 -0.3782 -0.1788 -0.2401
  780MOL0     C 5226   4.054  10.513   7.571  1.0934 -0.2207  0.5418
  780MOL0     C 5227   4.182  10.435   7.583 -0.4102 -0.1347 -0.4449
  780MOL0     C 5228   4.293  10.492   7.501  0.5036 -1.6600 -0.0358
  780MOL0     C 5229   4.370  10.558   7.424 -0.5649 -0.1065 -0.4548
  780MOL0     C 5230   3.917  10.834   7.958 -0.2633 -1.1535 -0.2688
  780MOL0     C 5231   3.854  10.905   8.056  1.5740 -0.5860 -0.7544
  780MOL0     C 5232   3.934  11.016   8.122 -0.2078  0.3142 -0.1397
  780MOL0     H 5233   3.695  11.308   8.286  0.5175 -3.0883 -4.0569
  780MOL0     H 5234   3.531  11.473   8.356  0.0412  0.7104 -1.6703
  780MOL0     H 5235   3.143  11.297   8.509  2.7321 -0.5288 -0.8673
  780MOL0     H 5236   3.121  11.462   8.558 -0.2257 -0.8015  1.5547
  780MOL0     H 5237   3.041  11.338   8.278 -3.4512 -0.3896 -0.1292
  780MOL0     H 5238   3.057  11.511   8.315  0.2509  0.8614  1.4393
  780MOL0     H 5239   2.821  11.444   8.319 -0.9526  3.2887  1.9752
  780MOL0     H 5240   2.884  11.475   8.489  0.0580 -0.4374  0.1760
  780MOL0     H 5241   2.878  11.201   8.371 -0.3635  2.0364 -2.0609
  780MOL0     H 5242   2.873  11.252   8.542 -0.7888 -3.2415 -0.7122
  780MOL0     H 5243   2.652  11.337   8.536 -1.4594 -2.3280  0.1107
  780MOL0     H 5244   2.644  11.303   8.363  0.0513  0.6049 -0.0523
  780MOL0     H 5245   2.682  11.059   8.426  2.0840  0.0580  1.8087
  780MOL0     H 5246   2.652  11.113   8.591 -1.1360  1.1505  0.9107
  780MOL0     H 5247   2.468  11.134   8.337 -1.1225 -0.0980  0.9693
  780MOL0     H 5248   2.436  11.214   8.487 -0.9852 -0.7226  3.5192
  780MOL0     H 5249   2.516  10.917   8.467  0.1415 -0.2800  0.9355
  780MOL0     H 5250   2.436  10.984   8.614  1.7495 -0.3019  0.2384
  780MOL0     H 5251   2.329  10.808   8.284  0.1190 -2.1346  1.6019
  780MOL0     H 5252   2.001  10.836   8.215  1.1725  0.3582 -0.6358
  780MOL0     H 5253   2.107  10.691   8.230 -2.8373 -2.6211  1.4086
  780MOL0     H 5254   1.988  10.647   8.448  2.6638 -1.3434 -1.3078
  780MOL0     H 5255   1.868  10.766   8.385  0.1607  0.3238 -0.0219
  780MOL0     H 5256   1.940  10.543   8.200  0.4452  2.7125 -1.2288
  780MOL0     H 5257   1.796  10.636   8.215  1.7764  1.1789 -0.5905
  780MOL0     H 5258   1.728  10.425   8.288 -0.2217  1.1320 -1.9773
  780MOL0     H 5259   1.743  10.528   8.441  0.6074 -0.5624  1.1030
  780MOL0     H 5260   2.039  10.219   8.510  0.3033 -0.0801  1.4189
  780MOL0     H 5261   1.997  10.001   8.609 -1.9257 -1.5468 -0.3133
  780MOL0     H 5262   2.060   9.713   8.845 -1.5161  1.1703  1.2915
  780MOL0     H 5263   2.042   9.518   8.981  0.6673  1.2536 -3.8189
  780MOL0     H 5264   2.002   9.358   9.138 -1.5528  5.1484 -2.5530
  780MOL0     H 5265   1.883   9.247   9.195 -0.9144  0.9061 -0.0297
  780MOL0     H 5266   1.973   9.244   8.908  0.7088  0.9406  0.5437
  780MOL0     H 5267   1.984   9.114   9.027  0.0192 -0.1058 -1.9398
  780MOL0     H 5268   1.721   9.134   9.022 -0.2964  1.0604 -0.5476
  780MOL0     H 5269   1.753   9.223   8.869 -0.5804 -0.2619 -0.2205
  780MOL0     H 5270   1.886   8.971   8.898 -0.6043  0.7737  2.0085
  780MOL0     H 5271   1.885   9.090   8.766  1.1795 -0.2088  1.1112
  780MOL0     H 5272   1.653   9.073   8.702  1.4142  0.8244 -1.5011
  780MOL0     H 5273   1.630   8.958   8.840  1.4723 -0.4778 -0.0907
  780MOL0     H 5274   1.826   8.951   8.608  1.3199 -1.1230  1.8519
  780MOL0     H 5275   1.807   8.810   8.718 -0.3883 -1.6404 -0.8863
  780MOL0     H 5276   1.576   8.888   8.555 -1.0359 -1.0263 -0.5603
  780MOL0     H 5277   1.609   8.737   8.649 -1.6414  0.4663 -0.6867
  780MOL0     H 5278   1.745   8.646   8.472  0.4506 -1.2118 -3.8701
  780MOL0     H 5279   1.625   8.724   8.387 -0.0365 -1.2550  0.5637
  780MOL0     H 5280   1.629   9.571   9.024  1.4223  1.2419  0.0664
  780MOL0     H 5281   1.649   9.788   8.881  0.3119  1.7339  0.9946
  780MOL0     H 5282   1.579  10.065   8.528  0.2375 -1.8545  2.5691
  780MOL0     H 5283   1.635  10.259   8.405  0.0055 -0.2985  0.2168
  780MOL0     H 5284   3.216  11.175   8.335  0.7018 -0.2687 -0.5900
  780MOL0     H 5285   3.371  11.036   8.216  1.1069  0.4991 -2.1552
  780MOL0     H 5286   3.576  10.705   8.077  1.2943 -1.0378  1.6031
  780MOL0     H 5287   3.688  10.590   7.902 -1.2820  0.1841  2.0291
  780MOL0     H 5288   3.918  10.479   7.878 -3.3627 -1.1745 -1.9095
  780MOL0     H 5289   4.072  10.545   7.820  0.0167 -1.6905  0.6648
  780MOL0     H 5290   3.849  10.466   7.619 -0.4732  1.0628  0.2094
  780MOL0     H 5291   3.980  10.350   7.669  1.4521  0.2071 -3.7152
  780MOL0     H 5292   4.075  10.618   7.592  0.3909 -0.4909  2.7589
  780MOL0     H 5293   4.013  10.495   7.471 -2.8184 -0.1282  1.9678
  780MOL0     H 5294   4.219  10.419   7.685 -1.0101  1.4515  0.0538
  780MOL0     H 5295   4.158  10.338   7.538 -1.2820  0.1566 -0.6331
  780MOL0     H 5296   4.433  10.613   7.358  3.1391  1.9224  4.2487
  780MOL0     H 5297   4.018  10.871   7.942  0.3294 -2.0798  1.1661
  780MOL0     H 5298   3.894  11.040   8.221  1.0920  2.1521 -0.0017
  780MOL0     H 5299   4.038  10.983   8.133  0.3450  1.9691 -0.1046
  780MOL0     H 5300   3.940  11.112   8.068  2.7328  0.8872  0.9820
  781MOL0     O 5301   7.739   4.420   9.222  0.2536  0.0108  0.3999
  781MOL0     C 5302   7.737   4.534   9.176  0.3507 -0.7937  0.0437
  781MOL0     O 5303   7.748   4.656   9.250  0.1169  0.3806 -0.1768
  781MOL0     C 5304   7.757   4.643   9.387 -0.4104 -0.0276  0.5212
  781MOL0     C 5305   7.637   4.604   9.452 -0.8917  0.3985  0.3420
  781MOL0     C 5306   7.640   4.568   9.590 -0.2794 -0.2950  0.0194
  781MOL0     C 5307   7.753   4.591   9.669 -0.6978 -0.5162 -1.5276
  781MOL0     O 5308   7.758   4.554   9.801 -0.0740 -0.2177 -0.1092
  781MOL0     C 5309   7.887   4.536   9.865 -0.0870  1.5636 -0.3084
  781MOL0     C 5310   7.843   4.502  10.009  0.4844  0.0510 -0.5014
  781MOL0     C 5311   7.959   4.486  10.108  0.7396  0.4812 -0.2750
  781MOL0     C 5312   7.911   4.432  10.246 -0.1383 -0.8515  1.4853
  781MOL0     C 5313   8.031   4.423  10.343  0.0733 -0.3324 -0.9563
  781MOL0     C 5314   7.968   4.408  10.486 -0.4805 -0.4036  0.4305
  781MOL0     C 5315   8.083   4.388  10.588 -0.3453 -0.3226 -0.7272
  781MOL0     C 5316   8.036   4.326  10.712 -0.2067  0.8561 -0.8980
  781MOL0     N 5317   8.148   4.317  10.814 -0.0783 -0.3747 -0.8924
  781MOL0     C 5318   8.227   4.213  10.847  0.5239 -0.1523  0.0535
  781MOL0     C 5319   8.335   4.267  10.897  0.0711  0.6965 -0.4335
  781MOL0     C 5320   8.459   4.184  10.924  0.0378  0.3876  0.1915
  781MOL0     C 5321   8.484   4.188  11.078  0.7012 -0.1537  0.5627
  781MOL0     C 5322   8.389   4.095  11.147  0.2125 -2.0497  0.1293
  781MOL0     C 5323   8.446   3.951  11.143 -0.5630  0.5043  0.0345
  781MOL0     O 5324   8.372   3.863  11.235 -0.3032 -0.3377 -0.4730
  781MOL0     C 5325   8.238   3.849  11.204 -0.6030 -0.4459  0.2472
  781MOL0     C 5326   8.160   3.796  11.306 -0.5177  0.2229  0.1414
  781MOL0     C 5327   8.021   3.780  11.299 -0.6637 -0.2723  1.3038
  781MOL0     C 5328   7.958   3.812  11.172 -0.7460 -0.0814 -0.0443
  781MOL0     C 5329   7.813   3.799  11.168  0.6512 -0.5762 -0.1933
  781MOL0     O 5330   7.738   3.787  11.286 -0.1266  0.2000 -0.1250
  781MOL0     C 5331   7.607   3.755  11.269 -0.5369  0.5667  0.1885
  781MOL0     C 5332   7.521   3.797  11.373 -0.8728  0.2081 -0.8194
  781MOL0     C 5333   7.383   3.757  11.375  0.2175  0.7052 -0.1398
  781MOL0     C 5334   7.338   3.680  11.269  0.1387 -0.0612 -0.0179
  781MOL0     O 5335   7.209   3.637  11.282 -0.0176  0.9433  0.5241
  781MOL0     C 5336   7.204   3.499  11.230  0.2224  1.7607 -0.3714
  781MOL0     C 5337   7.094   3.419  11.302  0.0087  0.3195 -0.3552
  781MOL0     C 5338   7.134   3.351  11.437 -0.2071  0.4975  0.6953
  781MOL0     C 5339   7.012   3.306  11.512 -0.3748  0.4317 -0.1670
  781MOL0     C 5340   6.925   3.204  11.432 -0.4758  0.2881  0.4324
  781MOL0     C 5341   6.781   3.177  11.502  0.0345 -0.5412  0.8369
  781MOL0     C 5342   6.790   3.082  11.619  0.4288 -0.3845  0.8538
  781MOL0     C 5343   6.660   3.027  11.652 -0.5630  0.3642  0.5199
  781MOL0    Cl 5344   6.679   2.961  11.817  0.2070 -0.3856 -0.1486
  781MOL0     C 5345   7.415   3.647  11.161 -0.0060 -0.2598 -1.0715
  781MOL0     C 5346   7.555   3.683  11.167 -0.3975 -0.3998  0.7261
  781MOL0     O 5347   7.768   3.818  11.057 -0.3761  0.0366  0.1835
  781MOL0     C 5348   8.036   3.843  11.056 -0.6924 -0.5707 -0.4313
  781MOL0     C 5349   8.180   3.863  11.073 -0.3738  1.3128  0.2646
  781MOL0     N 5350   8.308   4.403  10.924  0.5624 -0.4629 -0.2207
  781MOL0     N 5351   8.195   4.428  10.875  0.8117  0.4965  0.7608
  781MOL0     C 5352   7.864   4.656   9.602 -0.2765  0.1314 -0.7665
  781MOL0     C 5353   7.864   4.678   9.461 -0.9084 -0.3709 -0.6542
  781MOL0     C 5354   7.750   4.548   9.030  0.2421  0.2237 -0.7133
  781MOL0     C 5355   7.856   4.486   8.961 -0.4802  0.0121 -0.9658
  781MOL0     C 5356   7.854   4.480   8.819 -0.4113  0.6682 -0.6548
  781MOL0     C 5357   7.743   4.527   8.742 -0.3722 -0.8020 -1.1338
  781MOL0     O 5358   7.735   4.509   8.605 -0.0289 -0.3406  0.1067
  781MOL0     C 5359   7.607   4.522   8.540 -0.3050 -0.6122  0.1171
  781MOL0     C 5360   7.590   4.472   8.396  0.8065  0.3011  0.4941
  781MOL0     C 5361   7.700   4.490   8.289 -0.1203 -0.5072 -0.4582
  781MOL0     C 5362   7.759   4.635   8.287  0.1424 -0.9994  0.8330
  781MOL0     C 5363   7.666   4.741   8.237  0.3441  0.7842 -0.7985
  781MOL0     C 5364   7.587   4.828   8.192  0.4808 -0.0980  0.2995
  781MOL0     C 5365   7.643   4.595   8.810 -0.3357  0.1080  0.0738
  781MOL0     C 5366   7.648   4.615   8.950 -0.3689 -0.3807  0.1196
  781MOL0     C 5367   7.542   4.697   9.006  0.1928  0.5398  1.3268
  781MOL0     H 5368   7.551   4.577   9.391 -0.6500 -0.4260  0.3448
  781MOL0     H 5369   7.549   4.521   9.628 -0.9867  1.8033  1.0825
  781MOL0     H 5370   7.951   4.456   9.827 -2.6528 -0.0284 -1.4850
  781MOL0     H 5371   7.946   4.628   9.870 -3.1271  3.8534 -2.7841
  781MOL0     H 5372   7.772   4.418  10.010 -0.3212  0.5633  3.8188
  781MOL0     H 5373   7.778   4.579  10.050  1.3477 -0.6946  2.5113
  781MOL0     H 5374   8.012   4.581  10.124 -0.1007  0.6271  1.8912
  781MOL0     H 5375   8.024   4.411  10.062 -0.1787 -1.0870  0.9063
  781MOL0     H 5376   7.839   4.501  10.292  0.1837  0.2054  0.4447
  781MOL0     H 5377   7.861   4.336  10.228 -1.9803  0.4684 -1.0171
  781MOL0     H 5378   8.083   4.329  10.320 -4.3543 -4.1466  2.5580
  781MOL0     H 5379   8.092   4.509  10.313  2.7190 -1.2473  1.3307
  781MOL0     H 5380   7.908   4.495  10.511 -0.4122 -0.6125  1.3573
  781MOL0     H 5381   7.909   4.316  10.487 -1.4452  0.0481 -2.8896
  781MOL0     H 5382   8.118   4.485  10.624 -1.4498 -1.0526  2.5649
  781MOL0     H 5383   8.152   4.313  10.548 -0.8639 -1.8962  1.2062
  781MOL0     H 5384   7.950   4.386  10.745 -1.5822 -0.3796 -2.0882
  781MOL0     H 5385   8.015   4.219  10.702  1.5081  0.4624 -0.5774
  781MOL0     H 5386   8.218   4.116  10.798  1.6030  0.8399 -2.2889
  781MOL0     H 5387   8.453   4.079  10.894  1.7425  0.8726 -2.1843
  781MOL0     H 5388   8.550   4.223  10.878 -0.6924  0.6622 -1.0912
  781MOL0     H 5389   8.589   4.169  11.098  1.3374 -0.5791 -2.5656
  781MOL0     H 5390   8.469   4.294  11.103 -0.9119 -0.1994 -0.0528
  781MOL0     H 5391   8.289   4.123  11.111  0.3670 -1.4208  0.1729
  781MOL0     H 5392   8.396   4.126  11.252  0.4732  1.1077 -0.7242
  781MOL0     H 5393   8.549   3.959  11.180 -0.6602 -1.1064  0.7469
  781MOL0     H 5394   8.453   3.901  11.046  1.3034  2.0445 -0.6798
  781MOL0     H 5395   8.207   3.760  11.397 -1.1158 -0.1970  0.2900
  781MOL0     H 5396   7.968   3.750  11.389 -0.4240 -1.3099  1.1099
  781MOL0     H 5397   7.559   3.867  11.446 -0.9205 -0.9877  0.3817
  781MOL0     H 5398   7.311   3.781  11.453 -1.6587  1.2300 -1.9423
  781MOL0     H 5399   7.174   3.517  11.127 -1.4431  0.2443 -0.1883
  781MOL0     H 5400   7.293   3.435  11.235 -2.3059 -2.2628 -1.9409
  781MOL0     H 5401   7.011   3.487  11.324  1.2991  2.6992 -2.3646
  781MOL0     H 5402   7.066   3.334  11.239  1.1691 -0.2408 -0.1334
  781MOL0     H 5403   7.199   3.266  11.417 -1.6330 -0.2752 -0.8828
  781MOL0     H 5404   7.181   3.433  11.492  0.8262 -0.2939  1.0108
  781MOL0     H 5405   6.948   3.389  11.544  1.8732  1.0469  3.2706
  781MOL0     H 5406   7.045   3.269  11.610  1.4256 -3.4306 -1.9866
  781MOL0     H 5407   6.985   3.114  11.446  1.5510  1.1538 -2.0270
  781MOL0     H 5408   6.911   3.222  11.325  0.2577 -1.5824 -0.0132
  781MOL0     H 5409   6.740   3.268  11.546 -1.1260 -1.2858  1.3429
  781MOL0     H 5410   6.708   3.153  11.425  1.6286  4.2373 -2.6673
  781MOL0     H 5411   6.843   3.129  11.702 -0.4438  4.9028 -1.1833
  781MOL0     H 5412   6.840   2.994  11.577 -0.5641  0.0758 -1.4431
  781MOL0     H 5413   6.583   3.103  11.672  2.3164  2.8163  3.2250
  781MOL0     H 5414   6.628   2.946  11.585 -0.2789 -0.4520  1.3597
  781MOL0     H 5415   7.382   3.608  11.066  3.0535 -2.2441 -1.4688
  781MOL0     H 5416   7.610   3.656  11.078  0.1125  0.9752  0.6063
  781MOL0     H 5417   7.994   3.868  10.959  2.5660  0.6045 -1.7120
  781MOL0     H 5418   8.233   3.907  10.989  0.2668  0.1488  0.0527
  781MOL0     H 5419   7.960   4.683   9.644  1.1236  0.7194 -4.0312
  781MOL0     H 5420   7.951   4.732   9.424 -0.2930  1.7812  3.2710
  781MOL0     H 5421   7.939   4.431   9.004 -2.0623 -2.9125 -1.3891
  781MOL0     H 5422   7.941   4.439   8.770  0.7764  0.7274  1.3264
  781MOL0     H 5423   7.592   4.629   8.526 -0.0887 -0.8947 -3.0392
  781MOL0     H 5424   7.526   4.476   8.597 -0.0606 -0.6935  0.3998
  781MOL0     H 5425   7.495   4.511   8.359  0.6062 -0.3853  0.2550
  781MOL0     H 5426   7.580   4.363   8.392 -0.5000  0.4076  0.0887
  781MOL0     H 5427   7.667   4.487   8.185  2.9183  2.9825 -1.7193
  781MOL0     H 5428   7.786   4.422   8.298  2.3241  1.6746 -4.4492
  781MOL0     H 5429   7.816   4.666   8.375 -0.9249 -1.3229  1.6661
  781MOL0     H 5430   7.835   4.639   8.208 -1.4044 -1.1161 -0.7262
  781MOL0     H 5431   7.515   4.890   8.144  1.4343 -1.1654 -2.7943
  781MOL0     H 5432   7.560   4.633   8.751 -2.4145 -5.0315 -0.8589
  781MOL0     H 5433   7.490   4.744   8.923  1.5913 -0.3390 -0.1001
  781MOL0     H 5434   7.467   4.641   9.063 -0.1823 -0.4167 -0.0791
  781MOL0     H 5435   7.582   4.782   9.064  1.5496  1.1704 -0.4221
  782MOL0     O 5436  10.616   4.223   4.650 -0.2653 -0.0258  0.9562
  782MOL0     C 5437  10.502   4.195   4.605 -1.3768 -0.1185  0.7671
  782MOL0     O 5438  10.488   4.138   4.477  0.8538 -0.2529  0.8424
  782MOL0     C 5439  10.584   4.153   4.378 -0.7379 -0.2813 -0.2994
  782MOL0     C 5440  10.657   4.037   4.344  0.5859 -0.0240  0.7133
  782MOL0     C 5441  10.766   4.039   4.255 -0.6271  0.7077  0.7443
  782MOL0     C 5442  10.802   4.167   4.196 -0.2164  0.6536 -0.5519
  782MOL0     O 5443  10.921   4.187   4.119  0.2085 -0.3755 -0.0568
  782MOL0     C 5444  10.957   4.095   4.013 -0.1795 -1.3203  0.3008
  782MOL0     C 5445  11.053   4.178   3.916  0.0108 -0.0626 -0.2153
  782MOL0     C 5446  10.980   4.313   3.857 -1.4193 -0.4181 -0.0268
  782MOL0     C 5447  11.068   4.392   3.760  1.2797 -0.9725 -0.3671
  782MOL0     C 5448  10.976   4.507   3.689  0.6820  0.0371 -0.2806
  782MOL0     C 5449  11.068   4.576   3.584  0.5528  0.2838 -0.8829
  782MOL0     C 5450  10.992   4.696   3.520  0.3096  0.6980  0.3432
  782MOL0     C 5451  11.068   4.743   3.393  0.2365 -0.5425  0.9772
  782MOL0     N 5452  11.004   4.848   3.321 -0.0337 -0.1291  0.9545
  782MOL0     C 5453  11.041   4.871   3.190 -0.9916 -0.1649  0.6492
  782MOL0     C 5454  10.927   4.916   3.124  0.2851 -0.2338 -0.0600
  782MOL0     C 5455  10.929   4.931   2.978  0.3801 -0.3910  0.4465
  782MOL0     C 5456  10.789   4.929   2.937 -0.2956  0.0850  0.7190
  782MOL0     C 5457  10.788   4.959   2.784 -1.0762 -0.4365  1.1716
  782MOL0     C 5458  10.654   4.925   2.724  0.6222  0.0521  0.2340
  782MOL0     O 5459  10.659   4.785   2.682 -0.0684  0.6540  0.1600
  782MOL0     C 5460  10.700   4.764   2.554 -0.2892 -0.5125  0.1240
  782MOL0     C 5461  10.804   4.669   2.535  0.4084 -0.8262  0.2663
  782MOL0     C 5462  10.847   4.637   2.409 -0.1517  0.4752  0.9532
  782MOL0     C 5463  10.798   4.693   2.296 -0.4646 -0.2532  0.2832
  782MOL0     C 5464  10.826   4.623   2.169 -0.5000 -0.9489  0.1782
  782MOL0     O 5465  10.888   4.498   2.174  0.2416  0.5760 -0.0830
  782MOL0     C 5466  10.909   4.441   2.055 -0.0031 -0.0980  0.8415
  782MOL0     C 5467  11.045   4.445   2.015 -0.1796 -0.8314 -0.1055
  782MOL0     C 5468  11.077   4.383   1.892  1.2515  0.1926 -0.1034
  782MOL0     C 5469  10.985   4.307   1.821 -0.1225 -0.6548 -0.0176
  782MOL0     O 5470  11.022   4.247   1.704 -0.2730 -0.1470 -0.6590
  782MOL0     C 5471  10.927   4.159   1.629  0.1873  0.1882 -0.1679
  782MOL0     C 5472  10.909   4.021   1.693  0.0999 -1.2245 -0.6328
  782MOL0     C 5473  10.776   3.948   1.660 -0.8680 -0.3743 -0.9560
  782MOL0     C 5474  10.751   3.830   1.761 -0.1694 -0.1133 -0.1766
  782MOL0     C 5475  10.684   3.870   1.901  0.1964 -0.2708  0.8532
  782MOL0     C 5476  10.534   3.904   1.898 -0.1864 -0.4225  0.4813
  782MOL0     C 5477  10.483   3.951   2.041  0.8317 -0.4369  0.1647
  782MOL0     C 5478  10.334   3.943   2.041 -0.7837  0.6353 -0.3559
  782MOL0    Cl 5479  10.277   4.017   1.882 -0.2780  0.3117 -0.0503
  782MOL0     C 5480  10.850   4.304   1.866  1.0495 -0.2563  0.2199
  782MOL0     C 5481  10.813   4.383   1.975  0.4519 -0.6446  0.6469
  782MOL0     O 5482  10.795   4.677   2.061 -0.5677 -0.7778 -0.9499
  782MOL0     C 5483  10.694   4.795   2.313 -0.5002  0.8901  0.0562
  782MOL0     C 5484  10.645   4.830   2.440  1.2997  0.1345 -0.0658
  782MOL0     N 5485  10.827   4.935   3.217 -0.4807  0.1846 -0.3674
  782MOL0     N 5486  10.876   4.898   3.332  0.0085  0.6747  0.5462
  782MOL0     C 5487  10.717   4.278   4.213  0.3642  0.2388  0.4188
  782MOL0     C 5488  10.612   4.271   4.313  1.0159  0.2276  0.2961
  782MOL0     C 5489  10.387   4.253   4.678 -0.1349 -0.4402 -0.6355
  782MOL0     C 5490  10.258   4.222   4.632 -0.3659 -0.1616 -0.2965
  782MOL0     C 5491  10.148   4.285   4.687 -0.1631  0.9389 -0.7306
  782MOL0     C 5492  10.153   4.351   4.806 -0.6570  1.1422 -0.6417
  782MOL0     O 5493  10.037   4.383   4.862  1.2070 -0.8841 -0.2473
  782MOL0     C 5494  10.060   4.468   4.978  0.5825  0.9245  0.4062
  782MOL0     C 5495   9.921   4.498   5.051 -0.2875  0.5765  0.0152
  782MOL0     C 5496   9.942   4.554   5.188 -0.9743  0.2591 -0.3869
  782MOL0     C 5497   9.799   4.563   5.259 -0.2737  0.6661 -0.6064
  782MOL0     C 5498   9.767   4.454   5.342 -0.0075  0.3787 -0.3785
  782MOL0     C 5499   9.756   4.350   5.408 -0.4230 -0.4524 -0.1340
  782MOL0     C 5500  10.281   4.371   4.863  0.1076 -0.1522 -0.0642
  782MOL0     C 5501  10.399   4.327   4.801 -0.3023 -0.4283 -0.3202
  782MOL0     C 5502  10.525   4.377   4.869  0.0164 -0.5261 -0.8293
  782MOL0     H 5503  10.618   3.947   4.390  2.3822 -1.6743 -0.8232
  782MOL0     H 5504  10.827   3.950   4.242 -1.2221  0.3365  0.4546
  782MOL0     H 5505  11.003   4.006   4.055  2.8231  0.6677  1.5318
  782MOL0     H 5506  10.865   4.071   3.958 -0.2370  1.4109 -0.9937
  782MOL0     H 5507  11.084   4.104   3.842  1.0521  1.2346 -1.1162
  782MOL0     H 5508  11.139   4.209   3.975 -2.2278 -0.3703  3.5971
  782MOL0     H 5509  10.941   4.366   3.943 -0.5633 -1.7148  1.2106
  782MOL0     H 5510  10.890   4.276   3.806 -0.1944 -2.9767 -0.5395
  782MOL0     H 5511  11.150   4.439   3.814 -0.9716  2.2896  0.4825
  782MOL0     H 5512  11.111   4.334   3.678 -0.9487 -0.3317 -2.1120
  782MOL0     H 5513  10.882   4.472   3.645 -0.8613  4.1616 -0.6991
  782MOL0     H 5514  10.951   4.581   3.766  1.5468  0.3904 -0.3294
  782MOL0     H 5515  11.156   4.611   3.639 -1.3902 -0.6620  3.2898
  782MOL0     H 5516  11.085   4.495   3.513 -3.2031 -2.1279  0.6833
  782MOL0     H 5517  10.985   4.778   3.593  0.5635  0.0542  1.1073
  782MOL0     H 5518  10.887   4.673   3.499  0.8057  0.9030 -2.8070
  782MOL0     H 5519  11.156   4.798   3.428 -0.9031  2.9039 -1.1288
  782MOL0     H 5520  11.091   4.660   3.326 -1.3077 -1.1320  1.1413
  782MOL0     H 5521  11.138   4.846   3.147 -0.7431 -0.8338  1.5658
  782MOL0     H 5522  10.985   5.023   2.958  0.1713  0.1926  2.3577
  782MOL0     H 5523  10.973   4.844   2.928 -2.6604 -0.7026 -2.0200
  782MOL0     H 5524  10.744   4.829   2.944 -0.3647  0.0385 -0.2213
  782MOL0     H 5525  10.730   5.004   2.990 -1.4583 -0.6281  0.4772
  782MOL0     H 5526  10.870   4.918   2.725  0.2569  1.5884  1.5141
  782MOL0     H 5527  10.803   5.068   2.789 -0.1824 -0.5957  2.5317
  782MOL0     H 5528  10.642   4.985   2.633 -1.5516 -1.0334 -0.2633
  782MOL0     H 5529  10.569   4.950   2.788 -0.9183  2.5716 -2.5447
  782MOL0     H 5530  10.849   4.625   2.624  0.9000 -1.7793 -0.4405
  782MOL0     H 5531  10.925   4.561   2.402 -1.0299 -0.4155  0.5647
  782MOL0     H 5532  11.118   4.506   2.067 -1.5313 -0.2312  1.1620
  782MOL0     H 5533  11.179   4.390   1.853  2.0432 -2.5655  1.2221
  782MOL0     H 5534  10.837   4.218   1.612 -0.9326 -1.5427 -0.4384
  782MOL0     H 5535  10.966   4.131   1.531 -1.5317 -2.2272 -0.2495
  782MOL0     H 5536  10.988   3.954   1.659  0.3915 -0.3912 -1.6338
  782MOL0     H 5537  10.903   4.023   1.803 -1.4188  0.5632 -0.6924
  782MOL0     H 5538  10.694   4.019   1.664  1.0362  1.9039  0.4880
  782MOL0     H 5539  10.781   3.906   1.559  3.9188 -0.3183 -0.9957
  782MOL0     H 5540  10.843   3.788   1.803 -0.0417  3.0276  3.1347
  782MOL0     H 5541  10.700   3.761   1.693  1.2219  0.1169 -1.5020
  782MOL0     H 5542  10.733   3.962   1.935  0.1274 -0.5213  1.6656
  782MOL0     H 5543  10.701   3.788   1.972 -1.2389 -0.9488  0.4503
  782MOL0     H 5544  10.528   3.995   1.837 -0.4047  0.5381  1.8733
  782MOL0     H 5545  10.480   3.812   1.874  1.5328 -1.8368  1.7420
  782MOL0     H 5546  10.523   4.052   2.055  0.6400 -0.3062 -0.2123
  782MOL0     H 5547  10.524   3.900   2.129 -2.0974  1.1923  2.6602
  782MOL0     H 5548  10.301   3.841   2.060  1.3294  0.2708  1.6760
  782MOL0     H 5549  10.306   4.012   2.121  1.6650  0.1551  0.9940
  782MOL0     H 5550  10.769   4.255   1.813  2.0895 -3.3130  1.2329
  782MOL0     H 5551  10.707   4.380   1.996  0.2937 -0.7190 -0.1496
  782MOL0     H 5552  10.644   4.826   2.222 -0.5078 -2.9395 -1.4643
  782MOL0     H 5553  10.558   4.895   2.447  2.0671  1.1874 -0.0547
  782MOL0     H 5554  10.744   4.363   4.151  0.5753 -0.5641 -0.6233
  782MOL0     H 5555  10.546   4.355   4.330 -1.8355 -1.7082 -0.4904
  782MOL0     H 5556  10.236   4.170   4.540 -1.7025  1.9090 -1.2302
  782MOL0     H 5557  10.057   4.286   4.628  0.4308  2.1918 -1.6699
  782MOL0     H 5558  10.096   4.565   4.944 -1.4244  0.6898 -2.9559
  782MOL0     H 5559  10.122   4.414   5.050  0.7885  1.5861  0.7303
  782MOL0     H 5560   9.867   4.403   5.056  0.5451  0.0900  0.1358
  782MOL0     H 5561   9.869   4.562   4.980 -0.3363 -0.1867 -0.6511
  782MOL0     H 5562   9.986   4.654   5.193 -2.2500  0.7863  1.1682
  782MOL0     H 5563   9.999   4.484   5.250 -4.0237 -0.6329  1.6398
  782MOL0     H 5564   9.799   4.650   5.325 -0.0828 -0.4114  0.8643
  782MOL0     H 5565   9.716   4.566   5.188 -0.4758 -1.6093 -0.5571
  782MOL0     H 5566   9.767   4.267   5.474  0.4980 -0.0094  0.2924
  782MOL0     H 5567  10.298   4.433   4.951  1.4226 -0.7625  0.1433
  782MOL0     H 5568  10.498   4.373   4.975 -2.1675  0.0764 -1.3075
  782MOL0     H 5569  10.619   4.324   4.851  0.4290  0.1971 -0.8624
  782MOL0     H 5570  10.559   4.477   4.838  1.2158 -0.0399  1.8114
  783MOL0     O 5571   2.379   0.101   4.003  0.0867 -0.5171  0.1435
  783MOL0     C 5572   2.313   0.003   4.035 -0.7105  0.5267 -0.1455
  783MOL0     O 5573   2.295  -0.110   3.959 -0.1801  0.2576 -0.1049
  783MOL0     C 5574   2.259  -0.103   3.829  0.4464  0.8614 -0.4817
  783MOL0     C 5575   2.238   0.005   3.760  0.7609 -0.4370  0.8098
  783MOL0     C 5576   2.210   0.001   3.623  1.3811  0.3960  1.1661
  783MOL0     C 5577   2.210  -0.121   3.549 -0.4472 -0.1257 -0.2102
  783MOL0     O 5578   2.180  -0.119   3.417  0.0937  0.5172 -0.2915
  783MOL0     C 5579   2.222  -0.232   3.344  0.2059 -0.9558 -0.2580
  783MOL0     C 5580   2.176  -0.211   3.197  0.4923  0.1926 -0.0757
  783MOL0     C 5581   2.280  -0.171   3.098  0.4204 -0.0074 -0.2537
  783MOL0     C 5582   2.219  -0.211   2.954  0.7872 -1.6756  0.4792
  783MOL0     C 5583   2.325  -0.172   2.843 -0.6126  0.2722 -0.2083
  783MOL0     C 5584   2.283  -0.219   2.708 -0.9274 -1.0639  0.2356
  783MOL0     C 5585   2.256  -0.369   2.692 -0.0065  0.3949  0.1646
  783MOL0     C 5586   2.200  -0.389   2.553  1.0481 -0.9242  0.0877
  783MOL0     N 5587   2.233  -0.523   2.501 -0.3688 -0.0321  0.9107
  783MOL0     C 5588   2.352  -0.589   2.476 -0.1314 -0.2411 -0.2457
  783MOL0     C 5589   2.314  -0.708   2.417 -0.9159  0.2500  0.2486
  783MOL0     C 5590   2.393  -0.818   2.352 -1.0761  1.0018  0.1118
  783MOL0     C 5591   2.509  -0.858   2.446  0.1406  0.5792 -0.4802
  783MOL0     C 5592   2.566  -1.002   2.418 -0.8034 -0.4707 -0.2658
  783MOL0     C 5593   2.614  -1.025   2.273  0.4532 -1.0654 -1.1543
  783MOL0     O 5594   2.678  -1.159   2.274  0.5486 -0.5925  0.8792
  783MOL0     C 5595   2.749  -1.182   2.164  0.0343  0.7241  0.7646
  783MOL0     C 5596   2.818  -1.309   2.163 -0.1585  0.7152 -0.5439
  783MOL0     C 5597   2.893  -1.349   2.052  0.6785  0.6289  0.1560
  783MOL0     C 5598   2.905  -1.271   1.939  0.0392 -0.6147  0.2721
  783MOL0     C 5599   2.986  -1.320   1.824 -0.1152 -0.3322 -0.2723
  783MOL0     O 5600   2.970  -1.264   1.704  0.7638 -0.4182  0.2719
  783MOL0     C 5601   3.004  -1.332   1.592 -0.9250  0.5548  0.2657
  783MOL0     C 5602   2.959  -1.459   1.560  0.6197 -0.1502  0.5182
  783MOL0     C 5603   2.993  -1.516   1.441 -0.3176  0.1008 -0.1750
  783MOL0     C 5604   3.081  -1.451   1.350  1.0422  0.2448  0.7692
  783MOL0     O 5605   3.112  -1.487   1.220 -0.8513  0.3687 -0.2417
  783MOL0     C 5606   3.063  -1.607   1.170  0.6208 -0.0227  0.6450
  783MOL0     C 5607   3.135  -1.624   1.032  0.7133 -0.5109 -0.6528
  783MOL0     C 5608   3.279  -1.670   1.058 -0.2750 -0.3745  1.1948
  783MOL0     C 5609   3.346  -1.680   0.915  0.7089  0.3153 -0.1183
  783MOL0     C 5610   3.496  -1.708   0.933  1.6166 -0.4529 -1.3085
  783MOL0     C 5611   3.576  -1.697   0.803 -0.2390  0.1891 -0.1093
  783MOL0     C 5612   3.536  -1.801   0.704  0.6734  0.0792  0.2800
  783MOL0     C 5613   3.583  -1.936   0.723 -0.5834 -1.2182  1.1943
  783MOL0    Cl 5614   3.526  -2.027   0.570  0.0217  0.0564 -0.0478
  783MOL0     C 5615   3.143  -1.345   1.386 -0.2545  0.0654  0.2687
  783MOL0     C 5616   3.100  -1.280   1.502  0.1450 -0.5657 -0.5734
  783MOL0     O 5617   3.036  -1.433   1.849 -0.0461  0.7328 -0.2169
  783MOL0     C 5618   2.832  -1.149   1.946  1.3066  0.5225  0.9745
  783MOL0     C 5619   2.758  -1.108   2.051  1.0645 -1.1122 -0.6278
  783MOL0     N 5620   2.178  -0.720   2.417 -0.3934  0.7413 -0.1854
  783MOL0     N 5621   2.131  -0.609   2.467  0.5938  0.3916 -0.2895
  783MOL0     C 5622   2.236  -0.235   3.625  0.0515  0.2956 -0.2843
  783MOL0     C 5623   2.260  -0.225   3.762 -0.0058 -0.8415 -0.9402
  783MOL0     C 5624   2.305  -0.026   4.179  0.3779  0.3143 -0.0332
  783MOL0     C 5625   2.423  -0.016   4.261  0.4154  1.0124 -0.1327
  783MOL0     C 5626   2.416  -0.019   4.406  0.2827  0.3857  0.4776
  783MOL0     C 5627   2.297  -0.056   4.460  0.0877 -0.1558 -0.3385
  783MOL0     O 5628   2.273  -0.074   4.592 -0.5589 -0.5237 -0.8937
  783MOL0     C 5629   2.282   0.048   4.677  1.2126  0.5094 -0.0328
  783MOL0     C 5630   2.246   0.001   4.820  1.1098 -0.4925  0.8406
  783MOL0     C 5631   2.104  -0.060   4.814  0.0598 -0.0206 -0.2961
  783MOL0     C 5632   2.039  -0.085   4.944  0.1871  0.4258  0.1065
  783MOL0     C 5633   2.127  -0.170   5.018  0.4610  0.8788  0.2839
  783MOL0     C 5634   2.193  -0.234   5.091  0.0920  0.5618 -0.3557
  783MOL0     C 5635   2.190  -0.083   4.383  0.0955 -0.1673 -0.0587
  783MOL0     C 5636   2.184  -0.070   4.246  0.1988 -0.1572 -0.0142
  783MOL0     C 5637   2.057  -0.100   4.161 -0.3962 -0.3658 -0.3637
  783MOL0     H 5638   2.228   0.107   3.798 -0.8114  0.8549 -2.6039
  783MOL0     H 5639   2.187   0.091   3.567 -1.9617 -0.1349  1.4874
  783MOL0     H 5640   2.332  -0.232   3.347  0.1895 -0.3506  1.8563
  783MOL0     H 5641   2.182  -0.329   3.374  2.3060 -0.7387  4.0814
  783MOL0     H 5642   2.089  -0.146   3.185 -1.6352 -2.5990 -0.9377
  783MOL0     H 5643   2.141  -0.309   3.163  1.2177 -0.4856  1.0660
  783MOL0     H 5644   2.371  -0.228   3.121  0.8172  0.9141  0.5509
  783MOL0     H 5645   2.306  -0.065   3.098  0.0231  0.0972 -1.4441
  783MOL0     H 5646   2.185  -0.315   2.945 -1.3446 -1.1572  1.8171
  783MOL0     H 5647   2.124  -0.161   2.931  1.3262 -0.7251  0.2642
  783MOL0     H 5648   2.358  -0.068   2.848  1.3737 -0.3749  1.8956
  783MOL0     H 5649   2.418  -0.230   2.847 -1.7780 -1.8201 -1.4190
  783MOL0     H 5650   2.186  -0.173   2.688 -1.5830 -2.4040  0.2180
  783MOL0     H 5651   2.350  -0.187   2.627 -1.3228  1.8899  0.9735
  783MOL0     H 5652   2.177  -0.404   2.759 -1.1300  0.5085 -1.0537
  783MOL0     H 5653   2.346  -0.431   2.694 -1.5356 -2.0047 -1.0155
  783MOL0     H 5654   2.091  -0.394   2.561  1.0254 -0.2202  0.3112
  783MOL0     H 5655   2.219  -0.308   2.482 -2.4521 -0.4760 -0.5578
  783MOL0     H 5656   2.453  -0.555   2.496 -0.5804  0.1187  1.7041
  783MOL0     H 5657   2.336  -0.908   2.328  1.1792  0.3270 -3.4807
  783MOL0     H 5658   2.429  -0.777   2.257  1.2893  0.3602  0.6665
  783MOL0     H 5659   2.589  -0.783   2.440 -1.2769  2.1762 -0.1552
  783MOL0     H 5660   2.476  -0.866   2.550 -1.2395 -2.7204 -1.0545
  783MOL0     H 5661   2.490  -1.074   2.448  0.2324  0.1523  4.7200
  783MOL0     H 5662   2.653  -1.011   2.483 -0.9743  0.3874  0.1012
  783MOL0     H 5663   2.676  -0.938   2.248 -2.1485  1.8716  1.7472
  783MOL0     H 5664   2.521  -1.012   2.218  0.1918  0.0903 -0.4621
  783MOL0     H 5665   2.809  -1.371   2.251 -0.4689  1.2011 -0.2314
  783MOL0     H 5666   2.946  -1.443   2.040 -0.4342  0.2004 -1.9217
  783MOL0     H 5667   2.893  -1.488   1.642 -0.6941  1.4863  0.0774
  783MOL0     H 5668   2.936  -1.599   1.401 -2.7679  1.6751 -0.1975
  783MOL0     H 5669   3.094  -1.697   1.223 -0.0638 -0.1140  0.8938
  783MOL0     H 5670   2.958  -1.586   1.147  0.5806  0.4597  1.2499
  783MOL0     H 5671   3.085  -1.700   0.973  1.2985  0.9852 -3.2439
  783MOL0     H 5672   3.128  -1.529   0.978 -1.2488  0.0712  0.5396
  783MOL0     H 5673   3.340  -1.605   1.121  4.5257 -2.7748 -0.4990
  783MOL0     H 5674   3.275  -1.770   1.101 -2.9024 -0.8796  0.0010
  783MOL0     H 5675   3.341  -1.581   0.869 -0.4029 -0.6191 -2.1684
  783MOL0     H 5676   3.296  -1.748   0.845 -0.5184  1.7189 -0.6443
  783MOL0     H 5677   3.499  -1.812   0.968  0.2196 -0.1727 -0.2761
  783MOL0     H 5678   3.549  -1.637   0.996  1.8860 -1.7024 -0.0772
  783MOL0     H 5679   3.561  -1.596   0.763 -2.8977  0.5536  1.5096
  783MOL0     H 5680   3.682  -1.695   0.830  0.0820  0.6280 -1.3680
  783MOL0     H 5681   3.589  -1.775   0.612  1.6642 -1.1471  0.4837
  783MOL0     H 5682   3.428  -1.792   0.688  0.4784 -0.3281  1.3249
  783MOL0     H 5683   3.692  -1.940   0.738 -0.5478 -3.3590  0.7147
  783MOL0     H 5684   3.535  -1.966   0.817 -0.7259  0.9878  1.8809
  783MOL0     H 5685   3.214  -1.290   1.325  0.8652  1.9183  3.0004
  783MOL0     H 5686   3.144  -1.187   1.538 -2.4596 -0.2855  2.3011
  783MOL0     H 5687   2.826  -1.090   1.855 -1.5549 -1.5766 -0.3561
  783MOL0     H 5688   2.698  -1.018   2.057  2.6243 -0.1063  1.1076
  783MOL0     H 5689   2.240  -0.335   3.582  2.4917  0.0331  0.3760
  783MOL0     H 5690   2.283  -0.310   3.825 -0.4878  1.7041  2.9826
  783MOL0     H 5691   2.519   0.011   4.219  0.6003  1.2151  0.4049
  783MOL0     H 5692   2.502   0.006   4.467 -0.4251  1.0019  1.2401
  783MOL0     H 5693   2.210   0.121   4.639  0.8551 -1.1458 -2.8062
  783MOL0     H 5694   2.382   0.093   4.677  1.4887 -0.0674  1.1219
  783MOL0     H 5695   2.237   0.092   4.880 -2.0876  0.5452 -0.9273
  783MOL0     H 5696   2.315  -0.074   4.859  0.5288 -0.5359  1.8115
  783MOL0     H 5697   2.114  -0.153   4.757 -2.0278  0.9431 -2.4321
  783MOL0     H 5698   2.040   0.007   4.755 -2.6833 -0.4536  1.9643
  783MOL0     H 5699   2.030   0.004   5.008  0.6069  2.8957 -2.9936
  783MOL0     H 5700   1.941  -0.130   4.931  1.1118 -1.8835  0.6355
  783MOL0     H 5701   2.243  -0.305   5.154 -0.5581 -0.0427 -0.5111
  783MOL0     H 5702   2.104  -0.126   4.432  0.6755 -0.3561  0.8220
  783MOL0     H 5703   2.072  -0.170   4.079  0.1257  1.0641 -1.5334
  783MOL0     H 5704   1.965  -0.135   4.210  0.3497 -1.7649  0.0947
  783MOL0     H 5705   2.026  -0.006   4.116  2.2468  3.2347  4.3870
  784MOL0     O 5706   6.241   1.620  11.449  0.3064  0.0528 -0.4480
  784MOL0     C 5707   6.278   1.533  11.531  0.5887  0.5779 -1.0884
  784MOL0     O 5708   6.234   1.398  11.535 -0.0829 -0.1965  0.4387
  784MOL0     C 5709   6.124   1.365  11.464 -0.1430  0.5843  0.2143
  784MOL0     C 5710   6.124   1.256  11.381 -0.8486 -0.4604  0.0417
  784MOL0     C 5711   6.008   1.225  11.299  0.3337  0.3127 -1.2781
  784MOL0     C 5712   5.891   1.308  11.293 -1.0627 -1.2244  0.3805
  784MOL0     O 5713   5.791   1.278  11.199 -0.0347  0.5775 -0.0076
  784MOL0     C 5714   5.656   1.275  11.244 -0.2880  0.2970 -0.2832
  784MOL0     C 5715   5.570   1.372  11.159 -0.0756  0.2616  1.1774
  784MOL0     C 5716   5.558   1.327  11.010  0.2525 -0.9341 -0.4464
  784MOL0     C 5717   5.439   1.394  10.939 -0.2109 -0.4697  0.7636
  784MOL0     C 5718   5.313   1.310  10.966 -0.0407 -0.0615  0.2499
  784MOL0     C 5719   5.198   1.379  10.898 -0.0317 -0.6972  0.1601
  784MOL0     C 5720   5.136   1.505  10.964  0.6086 -0.3256 -0.4323
  784MOL0     C 5721   5.058   1.584  10.861  0.7513  0.6819  0.0162
  784MOL0     N 5722   4.943   1.514  10.813 -0.9306 -1.3096  1.1745
  784MOL0     C 5723   4.815   1.535  10.871 -0.6921 -0.2284  0.3585
  784MOL0     C 5724   4.739   1.482  10.775 -0.3544  1.0681  0.2747
  784MOL0     C 5725   4.604   1.461  10.800  0.9586  0.3796  0.2133
  784MOL0     C 5726   4.522   1.588  10.812  0.6728 -0.0658 -0.0294
  784MOL0     C 5727   4.514   1.663  10.674 -0.2548 -0.2134 -0.2107
  784MOL0     C 5728   4.615   1.770  10.640 -0.0719 -0.0946  0.6453
  784MOL0     O 5729   4.550   1.897  10.629 -0.4203 -0.4149  0.8746
  784MOL0     C 5730   4.628   2.005  10.581 -0.6952  0.0060 -0.2603
  784MOL0     C 5731   4.567   2.105  10.493 -0.0115  0.5146  0.2013
  784MOL0     C 5732   4.637   2.217  10.443  0.3905 -0.1808 -0.5064
  784MOL0     C 5733   4.769   2.229  10.478  0.2982  0.2328  0.0151
  784MOL0     C 5734   4.859   2.337  10.426 -0.1957  0.1015 -0.4623
  784MOL0     O 5735   4.805   2.419  10.327  0.2575  0.0082  0.2988
  784MOL0     C 5736   4.884   2.487  10.234 -0.2621  0.0669 -0.2116
  784MOL0     C 5737   4.858   2.445  10.099 -0.7159 -1.2226  0.0334
  784MOL0     C 5738   4.942   2.491   9.991  0.9348  0.1069 -0.3729
  784MOL0     C 5739   5.046   2.581  10.019  0.8018 -1.4134 -1.1851
  784MOL0     O 5740   5.136   2.635   9.927  0.0462  0.0562  0.5551
  784MOL0     C 5741   5.130   2.576   9.801  0.4987 -0.1432 -0.2004
  784MOL0     C 5742   5.257   2.621   9.725  0.1308 -0.1419 -0.1086
  784MOL0     C 5743   5.365   2.535   9.771  0.2727  0.3636 -0.0399
  784MOL0     C 5744   5.479   2.542   9.668 -0.1237  0.3230 -1.1129
  784MOL0     C 5745   5.607   2.458   9.710 -0.0473 -0.9498 -0.3030
  784MOL0     C 5746   5.715   2.492   9.605  0.0434  1.0195  0.5829
  784MOL0     C 5747   5.795   2.365   9.562  0.1787 -0.1250  0.4334
  784MOL0     C 5748   5.905   2.377   9.448  0.6120  0.4528 -0.1684
  784MOL0    Cl 5749   6.011   2.228   9.446 -0.3505  0.5585 -0.2972
  784MOL0     C 5750   5.067   2.616  10.157 -0.1541  0.1532 -0.8818
  784MOL0     C 5751   4.996   2.556  10.264  0.0508  0.3382  0.6803
  784MOL0     O 5752   4.966   2.352  10.479 -0.0167  0.2658 -0.0256
  784MOL0     C 5753   4.830   2.142  10.565 -1.2831  0.4289 -0.3524
  784MOL0     C 5754   4.763   2.031  10.617 -0.0763  0.2614 -0.3357
  784MOL0     N 5755   4.810   1.431  10.670 -0.1160  1.2408 -0.3951
  784MOL0     N 5756   4.934   1.448  10.688  0.2696  0.4905 -0.1211
  784MOL0     C 5757   5.903   1.419  11.379 -0.3484 -0.3921 -0.0193
  784MOL0     C 5758   6.006   1.443  11.463  0.0413 -0.1413 -0.3980
  784MOL0     C 5759   6.390   1.556  11.616 -0.1184 -0.7891  0.0292
  784MOL0     C 5760   6.476   1.448  11.662 -0.3629  0.3458  0.2953
  784MOL0     C 5761   6.595   1.478  11.729  0.6849  0.1508  0.1112
  784MOL0     C 5762   6.623   1.613  11.770 -0.5446  0.3862  0.3593
  784MOL0     O 5763   6.747   1.635  11.829 -0.1553  0.1160  0.2785
  784MOL0     C 5764   6.789   1.569  11.957  0.9924  0.7986  0.9433
  784MOL0     C 5765   6.912   1.482  11.929  0.3740 -0.2356  0.4484
  784MOL0     C 5766   7.044   1.536  11.984  0.7974  0.7495 -0.0123
  784MOL0     C 5767   7.038   1.539  12.134 -0.0297 -0.4188 -0.2262
  784MOL0     C 5768   7.141   1.630  12.169 -0.2893  0.2451 -0.7274
  784MOL0     C 5769   7.231   1.695  12.209  0.4622  0.2999  0.2752
  784MOL0     C 5770   6.530   1.715  11.744 -0.9521 -0.2008  0.3988
  784MOL0     C 5771   6.419   1.693  11.661 -0.0268 -0.2841 -0.4036
  784MOL0     C 5772   6.341   1.821  11.623  0.8445  0.2109 -0.1354
  784MOL0     H 5773   6.218   1.201  11.374  0.8812  2.3081 -0.2678
  784MOL0     H 5774   5.995   1.136  11.238 -3.7611 -1.8986  2.3016
  784MOL0     H 5775   5.625   1.170  11.232 -3.4799  1.2213 -0.8404
  784MOL0     H 5776   5.637   1.301  11.349  1.2278  0.8424 -0.1132
  784MOL0     H 5777   5.615   1.471  11.166 -1.6904  1.1489 -0.1613
  784MOL0     H 5778   5.472   1.393  11.202  0.1653  0.3903  1.6757
  784MOL0     H 5779   5.567   1.218  11.002  3.4177 -0.9153  1.1067
  784MOL0     H 5780   5.650   1.365  10.963  1.0235 -2.5559 -0.3226
  784MOL0     H 5781   5.427   1.498  10.971 -0.5462  0.2529 -1.4715
  784MOL0     H 5782   5.443   1.392  10.829 -4.5282 -2.2814  0.4658
  784MOL0     H 5783   5.321   1.207  10.929 -3.4039  0.1153 -1.2963
  784MOL0     H 5784   5.293   1.311  11.074  0.8828  1.1266  0.4260
  784MOL0     H 5785   5.232   1.409  10.799  1.6741 -1.4570  0.4715
  784MOL0     H 5786   5.115   1.310  10.884 -1.9731  1.7857 -1.5467
  784MOL0     H 5787   5.217   1.577  10.976  2.9124 -1.5382 -5.7521
  784MOL0     H 5788   5.082   1.490  11.059  2.3071 -0.5322  0.5492
  784MOL0     H 5789   5.029   1.685  10.892  1.6702  0.9915 -0.0756
  784MOL0     H 5790   5.138   1.609  10.790  1.3310  1.3633  0.8838
  784MOL0     H 5791   4.780   1.572  10.966  1.0832  0.5555  0.7419
  784MOL0     H 5792   4.566   1.411  10.710 -2.0546  2.0044  0.4669
  784MOL0     H 5793   4.580   1.395  10.884 -1.5631  0.3420 -0.4498
  784MOL0     H 5794   4.421   1.563  10.846  0.4707  0.5417 -0.1751
  784MOL0     H 5795   4.564   1.649  10.892  3.2979 -0.6229 -0.8793
  784MOL0     H 5796   4.413   1.706  10.671 -0.2472  0.2040  2.6948
  784MOL0     H 5797   4.524   1.584  10.599  0.6616 -0.4344  0.1349
  784MOL0     H 5798   4.665   1.736  10.549  1.5882  0.1569  1.4295
  784MOL0     H 5799   4.701   1.776  10.707 -1.4302 -1.4693  2.6159
  784MOL0     H 5800   4.463   2.100  10.461  0.2775 -1.2492 -0.5510
  784MOL0     H 5801   4.606   2.298  10.378  3.8179  1.4576 -0.3654
  784MOL0     H 5802   4.779   2.377  10.067  0.2729 -2.0678 -0.7041
  784MOL0     H 5803   4.916   2.450   9.894 -0.3692  2.3201 -1.0292
  784MOL0     H 5804   5.117   2.468   9.800  1.1162 -0.2910  2.0387
  784MOL0     H 5805   5.043   2.620   9.751 -0.0841  0.3231  1.1616
  784MOL0     H 5806   5.247   2.604   9.617  1.9966 -0.1680 -0.3148
  784MOL0     H 5807   5.292   2.723   9.739 -0.7011  0.2601 -0.8001
  784MOL0     H 5808   5.400   2.563   9.871 -1.1912  1.6240  0.1579
  784MOL0     H 5809   5.337   2.430   9.780 -0.3692  0.6411  1.7099
  784MOL0     H 5810   5.491   2.650   9.655  3.3031  0.2836  0.4713
  784MOL0     H 5811   5.448   2.494   9.575  2.2318 -1.4785 -1.0768
  784MOL0     H 5812   5.577   2.354   9.700 -0.1993 -0.7253 -2.8035
  784MOL0     H 5813   5.640   2.490   9.809 -0.3668 -1.8688  0.1115
  784MOL0     H 5814   5.665   2.523   9.513  3.2011  1.4941 -1.1381
  784MOL0     H 5815   5.782   2.571   9.642  0.5092  1.9802 -2.0514
  784MOL0     H 5816   5.729   2.281   9.539  0.5677 -0.2609 -0.2149
  784MOL0     H 5817   5.849   2.329   9.651 -2.7311 -0.4371  2.1830
  784MOL0     H 5818   5.866   2.380   9.347  0.7989  0.5582 -0.2381
  784MOL0     H 5819   5.977   2.457   9.470  1.4737 -0.4373  0.3852
  784MOL0     H 5820   5.155   2.671  10.190  1.9486 -3.2667 -0.2778
  784MOL0     H 5821   5.009   2.589  10.366  2.0761  0.9480  0.2730
  784MOL0     H 5822   4.932   2.153  10.600 -1.4062 -1.9537  1.0050
  784MOL0     H 5823   4.814   1.953  10.673 -4.2824 -1.9139  0.8710
  784MOL0     H 5824   5.820   1.488  11.372  1.7762  2.7995  3.1986
  784MOL0     H 5825   6.012   1.523  11.536  0.1157 -2.8035  2.7474
  784MOL0     H 5826   6.462   1.348  11.622 -0.0236  0.1583  0.6422
  784MOL0     H 5827   6.668   1.402  11.752  1.4210  0.4220 -1.2554
  784MOL0     H 5828   6.715   1.498  11.995 -0.4870  0.6492 -1.9180
  784MOL0     H 5829   6.817   1.648  12.027  2.4200  1.9079 -0.8059
  784MOL0     H 5830   6.921   1.469  11.821  0.4813  2.1530  0.1220
  784MOL0     H 5831   6.893   1.386  11.977  0.0946 -1.0357 -1.1924
  784MOL0     H 5832   7.066   1.636  11.947  5.1433 -0.0510 -0.1505
  784MOL0     H 5833   7.125   1.471  11.950  0.9963  0.9333  0.1077
  784MOL0     H 5834   6.945   1.579  12.176 -1.5781 -3.8442 -0.0583
  784MOL0     H 5835   7.059   1.441  12.178  0.7369  1.0454  2.9494
  784MOL0     H 5836   7.309   1.763  12.235 -0.8530  2.6743 -1.5699
  784MOL0     H 5837   6.567   1.812  11.777 -0.4154  1.0567 -3.4584
  784MOL0     H 5838   6.336   1.825  11.514 -0.8056 -1.2734 -0.1680
  784MOL0     H 5839   6.243   1.807  11.670  0.9784 -0.9179 -0.1456
  784MOL0     H 5840   6.384   1.912  11.665  1.8992 -0.0919 -0.5283
  785MOL0     O 5841   8.973   8.661   7.150  0.2482  0.5762  0.3420
  785MOL0     C 5842   9.034   8.737   7.227 -1.1747 -0.2519 -1.0646
  785MOL0     O 5843   8.984   8.852   7.281  0.7736 -0.2863 -0.6904
  785MOL0     C 5844   8.841   8.870   7.278 -0.2842  1.1858  0.1011
  785MOL0     C 5845   8.751   8.761   7.302 -0.1106 -0.1936 -0.5289
  785MOL0     C 5846   8.614   8.790   7.306  0.1904  0.2266 -0.0435
  785MOL0     C 5847   8.564   8.917   7.291  0.1390  0.0269  0.6533
  785MOL0     O 5848   8.428   8.936   7.298 -0.0803  0.4066  0.5727
  785MOL0     C 5849   8.369   8.939   7.428  0.1239  0.1835  1.1865
  785MOL0     C 5850   8.346   9.088   7.457 -0.5720 -0.1676  0.4330
  785MOL0     C 5851   8.281   9.160   7.337 -0.1028  0.2669 -0.7828
  785MOL0     C 5852   8.177   9.258   7.380 -0.1263  0.3623  0.0241
  785MOL0     C 5853   8.037   9.179   7.416  1.1891  0.8053  0.5650
  785MOL0     C 5854   7.977   9.226   7.545 -0.3538 -0.5101 -0.8418
  785MOL0     C 5855   7.833   9.172   7.561  0.3407 -0.6655 -0.0171
  785MOL0     C 5856   7.730   9.263   7.481  1.3532 -0.3765  0.2236
  785MOL0     N 5857   7.596   9.198   7.490  0.3920  0.2131  0.4126
  785MOL0     C 5858   7.489   9.212   7.576 -0.2007  0.3483 -0.6177
  785MOL0     C 5859   7.403   9.114   7.540  0.0140 -0.0469 -1.0212
  785MOL0     C 5860   7.288   9.072   7.621  0.4117  0.7592  0.8931
  785MOL0     C 5861   7.280   8.926   7.654 -0.6647 -0.0378  0.3734
  785MOL0     C 5862   7.390   8.887   7.753  0.1308 -0.6441  0.7278
  785MOL0     C 5863   7.411   8.741   7.784  0.2560  0.1449  0.2099
  785MOL0     O 5864   7.282   8.680   7.805  0.6034  0.6765 -0.0332
  785MOL0     C 5865   7.203   8.704   7.917 -0.2115 -0.0735 -0.8050
  785MOL0     C 5866   7.064   8.726   7.904 -0.6295  0.8082 -0.9567
  785MOL0     C 5867   6.982   8.773   8.007 -0.2484  1.3333 -0.3140
  785MOL0     C 5868   7.035   8.806   8.133  0.3158 -0.0310  0.7284
  785MOL0     C 5869   6.944   8.853   8.239  0.2467  0.4142  0.5003
  785MOL0     O 5870   6.809   8.878   8.208 -0.4756  0.5150 -0.0779
  785MOL0     C 5871   6.724   8.954   8.288 -0.0342  0.5678 -0.1948
  785MOL0     C 5872   6.695   9.087   8.251  0.8743 -0.5449 -0.1276
  785MOL0     C 5873   6.618   9.155   8.346 -0.8828 -1.0482 -0.6574
  785MOL0     C 5874   6.560   9.099   8.462  0.2459 -0.4567  1.1221
  785MOL0     O 5875   6.495   9.158   8.564  0.4885 -0.6219  0.0514
  785MOL0     C 5876   6.477   9.299   8.553 -0.9616  0.3405  0.9283
  785MOL0     C 5877   6.396   9.364   8.668  0.2020 -0.2271  0.2541
  785MOL0     C 5878   6.477   9.360   8.802 -0.2160 -0.4995 -0.5516
  785MOL0     C 5879   6.475   9.230   8.873  0.0571  0.4087 -0.1204
  785MOL0     C 5880   6.331   9.157   8.892 -0.3959 -0.4059  0.7660
  785MOL0     C 5881   6.220   9.243   8.948  0.6549 -0.9723  0.9495
  785MOL0     C 5882   6.128   9.171   9.042  0.0621  0.6053  0.2940
  785MOL0     C 5883   6.190   9.173   9.185 -0.4699  0.0401 -0.8219
  785MOL0    Cl 5884   6.187   9.324   9.279  0.2453 -0.0870  0.4756
  785MOL0     C 5885   6.589   8.967   8.495  0.5038  0.7913 -0.6791
  785MOL0     C 5886   6.671   8.897   8.405 -0.4501 -0.4864 -0.9169
  785MOL0     O 5887   6.987   8.860   8.357 -0.5791 -0.4616  0.0612
  785MOL0     C 5888   7.176   8.784   8.147  0.3025  0.2006  0.3267
  785MOL0     C 5889   7.259   8.731   8.038 -0.4996 -0.7529  0.3504
  785MOL0     N 5890   7.460   9.036   7.444 -0.0475 -0.6950  0.0084
  785MOL0     N 5891   7.570   9.088   7.408  0.1313 -0.0637 -0.3007
  785MOL0     C 5892   8.650   9.024   7.257  1.1358 -0.8384 -0.0840
  785MOL0     C 5893   8.788   8.998   7.255  0.7061 -0.9425 -0.4305
  785MOL0     C 5894   9.184   8.714   7.250  0.0126 -0.7573  0.3600
  785MOL0     C 5895   9.245   8.771   7.366  0.8618 -0.5889 -0.2128
  785MOL0     C 5896   9.376   8.753   7.396 -1.1921 -0.2860 -0.1150
  785MOL0     C 5897   9.460   8.669   7.314  0.3369 -1.2412  0.4843
  785MOL0     O 5898   9.602   8.665   7.343 -0.0011  0.2028 -0.1789
  785MOL0     C 5899   9.695   8.615   7.248  0.0615  0.5014  0.4218
  785MOL0     C 5900   9.777   8.488   7.281 -0.8518 -0.3766  1.2091
  785MOL0     C 5901   9.834   8.438   7.146 -0.9998 -0.8639  0.5993
  785MOL0     C 5902   9.968   8.510   7.092  0.4254 -0.5973  0.3307
  785MOL0     C 5903  10.024   8.410   6.997  0.3980 -0.2789  0.9535
  785MOL0     C 5904  10.066   8.327   6.916 -1.0254 -1.0728 -0.1297
  785MOL0     C 5905   9.396   8.610   7.202 -0.7233  0.3015 -0.3057
  785MOL0     C 5906   9.266   8.633   7.158 -0.8912 -0.8673 -1.1376
  785MOL0     C 5907   9.239   8.583   7.021  0.1447  0.9054 -0.1626
  785MOL0     H 5908   8.776   8.657   7.320  0.9963  0.1538  0.0350
  785MOL0     H 5909   8.530   8.723   7.313 -1.3540  2.1882  1.3259
  785MOL0     H 5910   8.274   8.889   7.405  1.4497 -1.3530 -1.3464
  785MOL0     H 5911   8.426   8.884   7.504 -1.1465 -0.9307  1.3691
  785MOL0     H 5912   8.445   9.133   7.475 -0.6393  1.4645 -2.5188
  785MOL0     H 5913   8.283   9.100   7.546 -0.3563  2.9755  0.2709
  785MOL0     H 5914   8.235   9.081   7.276 -0.9915 -2.0664  2.6172
  785MOL0     H 5915   8.358   9.214   7.281 -1.9060  0.9596 -2.7343
  785MOL0     H 5916   8.211   9.305   7.473 -0.8615  0.0949  0.4403
  785MOL0     H 5917   8.153   9.333   7.305 -1.9400  0.3664  0.5540
  785MOL0     H 5918   7.969   9.186   7.331 -1.2227  1.4187  2.4526
  785MOL0     H 5919   8.057   9.074   7.439 -1.2034  0.0454 -0.5752
  785MOL0     H 5920   8.031   9.194   7.634  2.7539  1.6485 -1.7931
  785MOL0     H 5921   7.980   9.335   7.536 -0.5913 -0.5063 -0.9039
  785MOL0     H 5922   7.809   9.156   7.667  0.4182 -0.9519 -0.0420
  785MOL0     H 5923   7.821   9.073   7.517 -2.3872  0.3474 -1.7981
  785MOL0     H 5924   7.718   9.360   7.530  1.9971  1.1920 -2.4922
  785MOL0     H 5925   7.773   9.285   7.383  2.1707  0.6084  0.7769
  785MOL0     H 5926   7.480   9.284   7.656  3.5544  2.6045 -1.9076
  785MOL0     H 5927   7.273   9.130   7.713 -2.7090  0.0788  0.9310
  785MOL0     H 5928   7.201   9.097   7.559 -1.0231  2.1888  3.2833
  785MOL0     H 5929   7.186   8.899   7.704  0.1660 -0.9078  1.5371
  785MOL0     H 5930   7.275   8.865   7.563 -0.2181 -0.3005  0.5215
  785MOL0     H 5931   7.378   8.934   7.851 -0.5440 -1.5435  1.0879
  785MOL0     H 5932   7.486   8.917   7.709 -1.3111  0.1971 -2.1386
  785MOL0     H 5933   7.478   8.714   7.866  0.4419 -2.0173 -0.6110
  785MOL0     H 5934   7.447   8.699   7.690 -1.7130 -3.2404  0.8333
  785MOL0     H 5935   7.028   8.703   7.804 -1.4113  0.5661 -0.6225
  785MOL0     H 5936   6.876   8.791   7.992 -0.4322 -0.5454 -1.6822
  785MOL0     H 5937   6.720   9.133   8.156  0.0346 -0.4809 -0.3277
  785MOL0     H 5938   6.600   9.259   8.319 -0.4201 -1.2835 -1.9171
  785MOL0     H 5939   6.573   9.352   8.546 -1.2210  0.6062 -2.3256
  785MOL0     H 5940   6.433   9.327   8.457  1.6683  0.3352 -0.3800
  785MOL0     H 5941   6.366   9.465   8.640 -1.2810 -0.5587  0.5959
  785MOL0     H 5942   6.296   9.323   8.681  0.0042  0.2667  0.3015
  785MOL0     H 5943   6.575   9.403   8.782 -0.2533  1.1743  2.3944
  785MOL0     H 5944   6.417   9.422   8.870  0.8840 -2.6983  2.6629
  785MOL0     H 5945   6.517   9.237   8.973 -2.3522 -1.0509  1.0944
  785MOL0     H 5946   6.540   9.157   8.823 -1.9714 -1.2455 -0.5063
  785MOL0     H 5947   6.354   9.087   8.973 -1.3196  0.4819  1.8357
  785MOL0     H 5948   6.293   9.111   8.801 -1.1766 -0.6066  1.1799
  785MOL0     H 5949   6.263   9.331   8.998 -0.3802 -0.5005  1.0411
  785MOL0     H 5950   6.170   9.281   8.859  0.2413 -0.6852  1.2998
  785MOL0     H 5951   6.108   9.067   9.013 -1.0369  1.4255 -2.0868
  785MOL0     H 5952   6.031   9.221   9.053 -0.7931 -1.3402  2.8487
  785MOL0     H 5953   6.144   9.091   9.241  0.6940 -0.1424 -0.1056
  785MOL0     H 5954   6.297   9.154   9.171  0.3273  3.5012 -0.3455
  785MOL0     H 5955   6.562   8.920   8.589 -0.0095  2.5941  0.1146
  785MOL0     H 5956   6.700   8.796   8.430  3.4081  0.1094 -2.3185
  785MOL0     H 5957   7.225   8.815   8.238 -2.7003  1.0786  1.7689
  785MOL0     H 5958   7.367   8.720   8.043 -0.5488 -2.9362 -1.5687
  785MOL0     H 5959   8.614   9.127   7.257  2.8898 -0.1714  1.3115
  785MOL0     H 5960   8.854   9.084   7.259  0.3104 -0.6873  0.7897
  785MOL0     H 5961   9.195   8.828   7.443  3.0986 -0.3515  1.1577
  785MOL0     H 5962   9.421   8.811   7.476 -1.5267  1.3802 -1.0881
  785MOL0     H 5963   9.767   8.697   7.241 -1.5657  1.9916  0.6521
  785MOL0     H 5964   9.648   8.605   7.150  3.0251 -2.6773 -0.8854
  785MOL0     H 5965   9.714   8.414   7.329 -2.7953  1.7578  2.1551
  785MOL0     H 5966   9.858   8.501   7.354  0.6801 -3.9098  0.3497
  785MOL0     H 5967   9.763   8.458   7.065 -0.5966  3.7130  1.1102
  785MOL0     H 5968   9.844   8.330   7.149 -1.7604 -1.1142 -2.3658
  785MOL0     H 5969   9.943   8.607   7.049  1.6890  0.0491  1.0062
  785MOL0     H 5970  10.028   8.526   7.182 -0.2326  0.7185  0.5493
  785MOL0     H 5971  10.105   8.251   6.852 -0.7649  2.5562 -4.8141
  785MOL0     H 5972   9.457   8.548   7.136 -0.0273  0.6646 -0.0184
  785MOL0     H 5973   9.174   8.496   7.031 -0.6173  1.2544 -1.6741
  785MOL0     H 5974   9.179   8.654   6.963 -0.8541  1.1142  1.0697
  785MOL0     H 5975   9.323   8.547   6.962  1.1857  0.4524  1.5312
  786MOL0     O 5976   3.758  10.603   4.726  0.2821  0.1552 -0.1748
  786MOL0     C 5977   3.833  10.656   4.808  0.6158 -0.6993  0.9234
  786MOL0     O 5978   3.856  10.794   4.813 -0.3725 -0.4540 -0.1672
  786MOL0     C 5979   3.776  10.867   4.724 -0.2029 -0.0637 -0.2413
  786MOL0     C 5980   3.631  10.876   4.742 -0.5386  0.4173  0.8827
  786MOL0     C 5981   3.560  10.948   4.649 -0.0934  0.0316  0.3516
  786MOL0     C 5982   3.609  10.989   4.528 -1.6366 -0.3805  0.4462
  786MOL0     O 5983   3.540  11.060   4.437 -0.4751  0.1161 -0.3037
  786MOL0     C 5984   3.570  11.199   4.405  0.6930 -0.2811 -0.9145
  786MOL0     C 5985   3.527  11.211   4.261 -0.7154  0.0366 -0.3107
  786MOL0     C 5986   3.374  11.206   4.252 -0.3874  0.4714 -0.1101
  786MOL0     C 5987   3.296  11.239   4.120 -0.2195 -0.6012  0.0845
  786MOL0     C 5988   3.140  11.208   4.121 -0.6764 -0.3304 -0.1996
  786MOL0     C 5989   3.053  11.301   4.215  0.4813 -0.0634  1.2036
  786MOL0     C 5990   2.904  11.248   4.217  0.3970 -0.0563 -0.2783
  786MOL0     C 5991   2.802  11.339   4.295  0.2949 -0.4105  0.1025
  786MOL0     N 5992   2.675  11.267   4.305  0.4693  0.0443  1.0397
  786MOL0     C 5993   2.590  11.213   4.215 -0.5678  0.3622  0.4535
  786MOL0     C 5994   2.490  11.166   4.287  0.1146  0.0693 -1.4769
  786MOL0     C 5995   2.357  11.108   4.245 -0.3689 -0.1925  0.9507
  786MOL0     C 5996   2.391  10.959   4.199 -0.3560 -0.0434 -0.3151
  786MOL0     C 5997   2.260  10.881   4.199  0.1485 -0.3884 -0.9708
  786MOL0     C 5998   2.293  10.743   4.139  0.5387  0.0313 -0.9141
  786MOL0     O 5999   2.393  10.679   4.217  0.5733  0.1330  0.1223
  786MOL0     C 6000   2.352  10.594   4.325 -0.3439 -0.4420  0.2156
  786MOL0     C 6001   2.228  10.603   4.386 -0.0052  0.4379  0.0333
  786MOL0     C 6002   2.209  10.537   4.506  0.1194  0.0427  0.3979
  786MOL0     C 6003   2.302  10.440   4.552 -0.1681  0.4640 -0.4342
  786MOL0     C 6004   2.266  10.345   4.673  0.5487 -0.1793 -0.7174
  786MOL0     O 6005   2.357  10.242   4.690 -0.5688 -0.1099 -0.5925
  786MOL0     C 6006   2.382  10.188   4.821  0.2119 -0.1811  0.8855
  786MOL0     C 6007   2.511  10.188   4.861  0.3478  0.1515 -0.6551
  786MOL0     C 6008   2.542  10.159   4.996  0.0361  0.1776  0.4951
  786MOL0     C 6009   2.447  10.123   5.084 -0.2209  0.6624  0.1599
  786MOL0     O 6010   2.486  10.094   5.216 -0.2502  0.2032  0.6327
  786MOL0     C 6011   2.463  10.200   5.312 -0.3231  0.2605 -0.4456
  786MOL0     C 6012   2.462  10.146   5.451  0.5530 -0.5789  0.3011
  786MOL0     C 6013   2.586  10.062   5.491 -0.4662 -1.0006  0.1921
  786MOL0     C 6014   2.574  10.047   5.642  0.0021  0.3473  0.5106
  786MOL0     C 6015   2.638   9.916   5.694 -0.8180  0.2122  0.0652
  786MOL0     C 6016   2.685   9.935   5.847  0.0059 -0.9078 -0.5878
  786MOL0     C 6017   2.587   9.851   5.939 -0.5663 -0.0522 -0.6373
  786MOL0     C 6018   2.660   9.717   5.971 -0.9563 -0.3768 -0.3391
  786MOL0    Cl 6019   2.558   9.609   6.071  0.0366 -0.6233  0.0306
  786MOL0     C 6020   2.313  10.121   5.043  0.1494  0.5536 -0.3815
  786MOL0     C 6021   2.280  10.157   4.915 -0.2056 -0.2585  0.4517
  786MOL0     O 6022   2.166  10.365   4.735  0.5474 -0.9399 -0.9763
  786MOL0     C 6023   2.421  10.421   4.484  0.2332 -0.0467 -0.4001
  786MOL0     C 6024   2.449  10.509   4.378 -0.2942 -0.3327 -1.1177
  786MOL0     N 6025   2.521  11.182   4.418  0.5321  1.0038  0.5324
  786MOL0     N 6026   2.636  11.237   4.432  0.0861 -0.2134  0.0271
  786MOL0     C 6027   3.747  10.962   4.514  1.1387 -1.0972 -0.4273
  786MOL0     C 6028   3.826  10.904   4.612 -0.0973  0.0648  0.4846
  786MOL0     C 6029   3.903  10.578   4.911 -0.9108  0.3940  0.7386
  786MOL0     C 6030   3.938  10.635   5.030  0.2195 -0.2263 -0.3986
  786MOL0     C 6031   4.011  10.562   5.128 -0.2026  0.5292  0.6638
  786MOL0     C 6032   4.043  10.432   5.108 -0.1895 -0.5459 -1.0479
  786MOL0     O 6033   4.089  10.352   5.213 -0.3634  1.0236  0.0642
  786MOL0     C 6034   3.985  10.257   5.254  1.1210  0.0669 -0.4065
  786MOL0     C 6035   4.002  10.240   5.408  0.1662 -0.6296 -0.5765
  786MOL0     C 6036   3.992  10.370   5.475 -0.4755  0.0032 -0.3095
  786MOL0     C 6037   3.958  10.345   5.620  0.1666  0.0661 -0.1025
  786MOL0     C 6038   3.962  10.473   5.697 -0.2139 -1.3771  0.9244
  786MOL0     C 6039   3.964  10.573   5.760 -0.1093 -0.2890 -0.3424
  786MOL0     C 6040   4.016  10.376   4.985 -0.1986 -0.5389  0.2884
  786MOL0     C 6041   3.948  10.443   4.890  0.3670 -0.7108 -0.0193
  786MOL0     C 6042   3.932  10.390   4.749  0.3702 -0.6006  0.4375
  786MOL0     H 6043   3.589  10.834   4.833 -1.0585  0.8351  0.8396
  786MOL0     H 6044   3.454  10.970   4.663  0.4999  2.5121  1.4314
  786MOL0     H 6045   3.520  11.274   4.467  0.6391 -0.4210 -0.7909
  786MOL0     H 6046   3.679  11.214   4.400  0.4683  1.3504 -1.4090
  786MOL0     H 6047   3.586  11.130   4.215  0.6860 -0.6294  2.4474
  786MOL0     H 6048   3.560  11.306   4.217  0.4780 -0.4090 -0.4357
  786MOL0     H 6049   3.328  11.279   4.320 -0.6182  3.0281 -2.8060
  786MOL0     H 6050   3.338  11.104   4.268  4.3219 -1.7095 -1.5197
  786MOL0     H 6051   3.312  11.346   4.101 -1.6231 -0.6705 -1.8045
  786MOL0     H 6052   3.340  11.186   4.035  0.2430  0.1956 -0.1863
  786MOL0     H 6053   3.095  11.222   4.023  1.6949 -2.3719 -1.6755
  786MOL0     H 6054   3.117  11.102   4.130 -3.6117  0.1019 -1.5515
  786MOL0     H 6055   3.084  11.311   4.319  2.2598  1.8932  0.5656
  786MOL0     H 6056   3.066  11.399   4.167 -1.0018  1.3096  3.4304
  786MOL0     H 6057   2.887  11.145   4.251 -3.2035  0.6196  0.4461
  786MOL0     H 6058   2.879  11.255   4.111  0.2415 -0.1008 -0.2456
  786MOL0     H 6059   2.857  11.363   4.387  1.2028  2.4710 -1.0710
  786MOL0     H 6060   2.789  11.434   4.243 -1.1188 -0.5132  0.2380
  786MOL0     H 6061   2.609  11.204   4.108  3.1094 -0.7360  1.0542
  786MOL0     H 6062   2.284  11.104   4.326  0.9106  3.6354  2.5533
  786MOL0     H 6063   2.311  11.171   4.168 -0.4208 -0.7044  0.5615
  786MOL0     H 6064   2.437  10.962   4.100  1.2396 -1.5373  0.3227
  786MOL0     H 6065   2.461  10.914   4.270 -1.3324  0.3775  0.9532
  786MOL0     H 6066   2.180  10.937   4.150 -0.0419  1.7679  1.6228
  786MOL0     H 6067   2.221  10.878   4.301  0.6685  1.8628 -0.6620
  786MOL0     H 6068   2.322  10.752   4.034 -0.2615 -1.0766 -1.2443
  786MOL0     H 6069   2.202  10.685   4.126 -1.0457  1.6871  1.7134
  786MOL0     H 6070   2.143  10.655   4.343  0.0062 -0.4948 -1.2000
  786MOL0     H 6071   2.115  10.559   4.557  0.9224 -0.6933  2.2911
  786MOL0     H 6072   2.588  10.221   4.792  1.3188 -0.8636 -0.0939
  786MOL0     H 6073   2.644  10.166   5.031  0.5628  1.8208 -1.1977
  786MOL0     H 6074   2.548  10.268   5.302  0.9698 -1.4884 -1.8838
  786MOL0     H 6075   2.369  10.255   5.295 -0.8160 -0.9048 -1.7095
  786MOL0     H 6076   2.446  10.231   5.519  1.3779 -2.1369  2.5679
  786MOL0     H 6077   2.369  10.091   5.469 -0.1395  1.0821  2.1331
  786MOL0     H 6078   2.581   9.972   5.429  2.3469 -1.4945  0.5462
  786MOL0     H 6079   2.680  10.110   5.463 -1.5122  2.8814  2.5396
  786MOL0     H 6080   2.468  10.033   5.667 -0.5724  1.7387 -0.9934
  786MOL0     H 6081   2.617  10.135   5.690  1.7880 -1.5162  2.5309
  786MOL0     H 6082   2.726   9.885   5.637 -1.8690  0.1667 -1.6033
  786MOL0     H 6083   2.557   9.842   5.686 -2.2350  1.9038 -4.0097
  786MOL0     H 6084   2.790   9.908   5.862  1.0660  1.3697 -3.0492
  786MOL0     H 6085   2.689  10.040   5.877  2.1293 -1.1904  0.2646
  786MOL0     H 6086   2.485   9.839   5.902 -0.8125 -0.7920  0.2409
  786MOL0     H 6087   2.575   9.908   6.031 -1.7843 -2.1659  0.5768
  786MOL0     H 6088   2.690   9.664   5.881 -0.3691  0.0512 -0.3990
  786MOL0     H 6089   2.742   9.745   6.037 -2.3150 -1.1484  1.8132
  786MOL0     H 6090   2.232  10.101   5.112  0.5054  2.4271  0.6589
  786MOL0     H 6091   2.176  10.167   4.886 -0.7358 -2.9901  1.1517
  786MOL0     H 6092   2.504  10.357   4.515  1.7714  0.6765 -2.8019
  786MOL0     H 6093   2.546  10.515   4.329  2.1326 -3.1907  2.7994
  786MOL0     H 6094   3.782  11.000   4.418 -0.3961  4.5678  0.8747
  786MOL0     H 6095   3.923  10.864   4.585 -0.9222 -0.3042 -2.2556
  786MOL0     H 6096   3.918  10.742   5.035  0.8231 -0.0495 -1.4802
  786MOL0     H 6097   4.048  10.586   5.226  2.0114 -2.1786  0.5928
  786MOL0     H 6098   3.981  10.164   5.197  0.4051  0.8598 -1.7274
  786MOL0     H 6099   3.890  10.305   5.229  0.8247  1.0633  2.2973
  786MOL0     H 6100   4.100  10.193   5.420  0.7396  0.5229 -0.6836
  786MOL0     H 6101   3.917  10.180   5.443 -1.0071  2.2939  1.9643
  786MOL0     H 6102   3.918  10.436   5.428 -0.7512  1.0011  1.4156
  786MOL0     H 6103   4.090  10.419   5.472 -2.6996  5.1090  0.6169
  786MOL0     H 6104   3.858  10.304   5.636  0.4548  0.4624  3.7973
  786MOL0     H 6105   4.022  10.279   5.679 -0.0927  0.8669  1.1333
  786MOL0     H 6106   3.984  10.671   5.799  1.9166 -0.2043 -1.4848
  786MOL0     H 6107   4.021  10.271   4.960 -1.2319 -1.6014  3.8201
  786MOL0     H 6108   3.827  10.359   4.743  0.4018 -0.4816 -1.8614
  786MOL0     H 6109   3.959  10.461   4.670  1.6926 -1.5871 -0.0490
  786MOL0     H 6110   3.995  10.304   4.722  1.4967  0.2898  0.1630
  787MOL0     O 6111   2.810   0.929   4.499  0.8794 -0.4623  0.7455
  787MOL0     C 6112   2.875   0.887   4.586 -0.3506 -0.4605 -0.0790
  787MOL0     O 6113   2.894   0.763   4.612 -0.6295  0.2778  0.2896
  787MOL0     C 6114   2.879   0.667   4.510  0.4217  0.1082 -0.2839
  787MOL0     C 6115   2.830   0.547   4.544  0.1814 -0.4044 -0.5683
  787MOL0     C 6116   2.821   0.440   4.462  0.2675  0.8953 -0.0821
  787MOL0     C 6117   2.849   0.454   4.325  0.4282  0.2638  1.0341
  787MOL0     O 6118   2.847   0.333   4.253  0.0230  0.6406  0.1930
  787MOL0     C 6119   2.882   0.333   4.112  0.1396  0.1865  0.2488
  787MOL0     C 6120   2.896   0.197   4.057 -0.3310 -0.3235 -0.0772
  787MOL0     C 6121   2.757   0.130   4.026  0.8219  0.2275  0.2928
  787MOL0     C 6122   2.770   0.006   3.940  0.4024 -0.5640 -0.0441
  787MOL0     C 6123   2.789   0.038   3.791 -0.1553 -0.0054 -0.5971
  787MOL0     C 6124   2.843  -0.085   3.716  0.2831 -0.9747 -0.3448
  787MOL0     C 6125   2.732  -0.202   3.710 -0.5509  0.2333 -0.4407
  787MOL0     C 6126   2.596  -0.160   3.655  0.4361 -0.3141 -0.7020
  787MOL0     N 6127   2.601  -0.121   3.513  0.6063  1.4509  0.0262
  787MOL0     C 6128   2.585  -0.001   3.455  0.2505  0.4185 -0.6194
  787MOL0     C 6129   2.583  -0.023   3.326 -0.0512 -0.5504  0.0380
  787MOL0     C 6130   2.583   0.070   3.206  0.4753 -0.4865 -0.7730
  787MOL0     C 6131   2.701   0.160   3.197 -0.1398 -0.1834  0.4053
  787MOL0     C 6132   2.757   0.170   3.060 -0.6350  0.3736  0.2941
  787MOL0     C 6133   2.802   0.029   3.008 -0.0377  0.3365  0.4588
  787MOL0     O 6134   2.860   0.067   2.885  0.5674 -0.1058  0.4774
  787MOL0     C 6135   2.794   0.024   2.771 -0.8892 -0.1068 -0.5590
  787MOL0     C 6136   2.743   0.117   2.677 -0.8981 -0.2210 -0.6807
  787MOL0     C 6137   2.687   0.071   2.559 -0.0354 -0.0958  0.8426
  787MOL0     C 6138   2.669  -0.065   2.539 -0.3278  0.2745 -1.0625
  787MOL0     C 6139   2.610  -0.116   2.409 -0.2939  0.0507 -0.5770
  787MOL0     O 6140   2.543  -0.235   2.415  1.0087  0.7119  0.2976
  787MOL0     C 6141   2.501  -0.295   2.303 -0.7073 -0.5750  0.1378
  787MOL0     C 6142   2.563  -0.405   2.252 -0.1736 -0.1901 -0.2064
  787MOL0     C 6143   2.519  -0.463   2.129 -0.0884 -0.1408  0.4189
  787MOL0     C 6144   2.404  -0.420   2.057 -1.0088 -0.2955  0.8957
  787MOL0     O 6145   2.364  -0.484   1.952 -0.3175 -0.2033 -0.3869
  787MOL0     C 6146   2.271  -0.416   1.862  0.5039 -0.2070 -0.1807
  787MOL0     C 6147   2.298  -0.475   1.722 -0.2189 -0.5322 -0.0593
  787MOL0     C 6148   2.236  -0.382   1.618 -0.2108 -0.1224 -0.4270
  787MOL0     C 6149   2.289  -0.447   1.485  0.3652  0.8105 -0.1422
  787MOL0     C 6150   2.217  -0.402   1.362  0.1737  0.1859  0.4938
  787MOL0     C 6151   2.227  -0.521   1.260 -0.3025 -0.4839 -0.8944
  787MOL0     C 6152   2.215  -0.450   1.122  0.2651 -0.9830  0.7693
  787MOL0     C 6153   2.082  -0.387   1.088 -0.0933  0.1868 -0.5931
  787MOL0    Cl 6154   2.077  -0.303   0.930  0.1336 -0.0294 -0.3519
  787MOL0     C 6155   2.349  -0.302   2.100  0.3237  0.0144  0.3840
  787MOL0     C 6156   2.394  -0.238   2.224 -0.1336 -0.2621  0.7499
  787MOL0     O 6157   2.626  -0.052   2.309 -0.1151  0.0418 -0.3081
  787MOL0     C 6158   2.715  -0.158   2.624 -0.6782  0.2494  0.1014
  787MOL0     C 6159   2.776  -0.112   2.743 -0.9976 -0.7207  0.5647
  787MOL0     N 6160   2.603  -0.163   3.304  0.0453 -0.9772 -0.8667
  787MOL0     N 6161   2.609  -0.221   3.420  0.8564 -0.0397  0.1344
  787MOL0     C 6162   2.902   0.582   4.284 -1.4619  0.5864  0.8094
  787MOL0     C 6163   2.917   0.683   4.377 -0.4935 -0.2416 -0.5314
  787MOL0     C 6164   2.924   0.985   4.684  1.4772  0.5114 -1.0585
  787MOL0     C 6165   3.046   0.964   4.742  0.4008  0.5817 -0.4302
  787MOL0     C 6166   3.106   1.058   4.829  0.1082  1.1799  0.1930
  787MOL0     C 6167   3.060   1.188   4.835  1.0491  0.0698 -0.2839
  787MOL0     O 6168   3.126   1.287   4.907 -0.1531 -0.1139  0.7120
  787MOL0     C 6169   3.087   1.428   4.917  0.4985 -0.3962  1.2655
  787MOL0     C 6170   3.160   1.495   5.033  0.4916  0.2234  0.1044
  787MOL0     C 6171   3.125   1.640   5.056 -0.7748  0.6566 -0.2553
  787MOL0     C 6172   3.235   1.728   4.984 -0.8809 -0.1674 -0.3960
  787MOL0     C 6173   3.326   1.795   5.080  0.9826 -0.3761  0.5628
  787MOL0     C 6174   3.404   1.821   5.175 -0.1134  0.5336  0.7769
  787MOL0     C 6175   2.935   1.206   4.779  0.6059 -0.6882  0.2199
  787MOL0     C 6176   2.864   1.114   4.703 -0.0488  1.4708 -0.4577
  787MOL0     C 6177   2.734   1.174   4.645 -0.0570 -0.4714 -0.4994
  787MOL0     H 6178   2.785   0.555   4.642  2.3986 -0.6739  0.5289
  787MOL0     H 6179   2.795   0.342   4.501 -1.1813  1.1608 -0.3508
  787MOL0     H 6180   2.812   0.392   4.051 -0.3987 -1.1241 -0.4248
  787MOL0     H 6181   2.970   0.394   4.091 -0.6821  0.7979 -1.6236
  787MOL0     H 6182   2.959   0.147   4.131 -1.6848  0.3060  1.5776
  787MOL0     H 6183   2.950   0.205   3.962 -0.5810 -2.4797 -0.4661
  787MOL0     H 6184   2.696   0.191   3.959  0.9651 -0.0897 -0.1261
  787MOL0     H 6185   2.703   0.118   4.121  0.3192  0.2539  0.0146
  787MOL0     H 6186   2.852  -0.052   3.985 -1.2858 -2.2188  1.0309
  787MOL0     H 6187   2.681  -0.055   3.959 -0.5117 -0.1156 -2.4709
  787MOL0     H 6188   2.702   0.086   3.746 -0.2719  1.0230  0.6379
  787MOL0     H 6189   2.875   0.106   3.797  1.2226 -1.7150  0.1467
  787MOL0     H 6190   2.866  -0.055   3.613 -0.1810 -1.7869 -0.6939
  787MOL0     H 6191   2.940  -0.114   3.759 -0.3740  0.5087  2.3557
  787MOL0     H 6192   2.700  -0.231   3.811 -0.4977  1.0800 -0.1781
  787MOL0     H 6193   2.775  -0.283   3.651  0.8490  1.4052 -1.0955
  787MOL0     H 6194   2.507  -0.222   3.671  0.8583 -1.4008 -2.3264
  787MOL0     H 6195   2.565  -0.070   3.709  0.4908 -1.8709  2.1253
  787MOL0     H 6196   2.576   0.090   3.513 -2.5367 -0.3418  0.2903
  787MOL0     H 6197   2.560   0.008   3.119 -0.7001 -3.3467  1.4121
  787MOL0     H 6198   2.497   0.135   3.224  1.0274  0.1419 -0.3664
  787MOL0     H 6199   2.682   0.255   3.249  0.7719  0.1529  0.1429
  787MOL0     H 6200   2.784   0.129   3.262  1.3755  0.7801 -1.0019
  787MOL0     H 6201   2.842   0.239   3.059 -0.0334 -0.3596 -0.0833
  787MOL0     H 6202   2.683   0.217   2.994 -1.1767  0.1323  0.7181
  787MOL0     H 6203   2.713  -0.032   2.992 -0.0559 -0.4532  3.0629
  787MOL0     H 6204   2.877  -0.014   3.075  1.6884  3.2590  0.5848
  787MOL0     H 6205   2.776   0.219   2.694  0.8604 -1.1596  2.3049
  787MOL0     H 6206   2.656   0.141   2.482  1.1787 -0.5525 -0.0991
  787MOL0     H 6207   2.649  -0.440   2.309 -0.7484  0.1020  0.8772
  787MOL0     H 6208   2.576  -0.553   2.109  0.5917 -0.3322  2.9027
  787MOL0     H 6209   2.166  -0.415   1.895  0.5205  1.3671 -0.1140
  787MOL0     H 6210   2.305  -0.313   1.851 -3.1217  1.0181 -1.4015
  787MOL0     H 6211   2.406  -0.490   1.709  0.1174  0.8282  0.9456
  787MOL0     H 6212   2.256  -0.576   1.714  0.2080 -0.9510  2.1053
  787MOL0     H 6213   2.127  -0.382   1.626 -0.0719  0.5537  2.3374
  787MOL0     H 6214   2.273  -0.279   1.628 -1.2033  0.1827  0.2462
  787MOL0     H 6215   2.275  -0.555   1.493 -1.4305  1.1383  3.1628
  787MOL0     H 6216   2.390  -0.407   1.476  1.5948 -1.7571  1.0254
  787MOL0     H 6217   2.251  -0.305   1.327 -1.1650  1.3959  2.3100
  787MOL0     H 6218   2.109  -0.390   1.378  0.1249  3.0048 -1.3303
  787MOL0     H 6219   2.328  -0.562   1.263  0.4480  1.0737 -2.6113
  787MOL0     H 6220   2.150  -0.596   1.278  1.3018 -1.9558  0.1019
  787MOL0     H 6221   2.231  -0.531   1.050 -0.4697 -1.8124  1.5118
  787MOL0     H 6222   2.300  -0.382   1.114  1.5417 -2.4018  1.6682
  787MOL0     H 6223   2.004  -0.462   1.102 -0.8392  1.3613  2.6023
  787MOL0     H 6224   2.065  -0.321   1.174  3.3193  0.6650 -0.1246
  787MOL0     H 6225   2.259  -0.260   2.057 -1.1352 -0.7214  2.5440
  787MOL0     H 6226   2.338  -0.152   2.260  0.8120 -0.1093  1.9150
  787MOL0     H 6227   2.699  -0.266   2.622  2.4800 -0.3048 -0.0016
  787MOL0     H 6228   2.803  -0.188   2.816  2.0465  0.3782  0.7407
  787MOL0     H 6229   2.935   0.592   4.181 -2.0026 -1.7335  0.3435
  787MOL0     H 6230   2.953   0.774   4.332 -1.9642  0.2184 -0.8258
  787MOL0     H 6231   3.093   0.866   4.742 -1.0353 -0.1433 -1.7209
  787MOL0     H 6232   3.199   1.040   4.883 -0.5965 -1.6571  0.6402
  787MOL0     H 6233   2.978   1.437   4.929  0.3580  1.1673 -0.6299
  787MOL0     H 6234   3.099   1.482   4.822 -3.4202  1.0628  1.3777
  787MOL0     H 6235   3.266   1.491   5.008  0.3411  0.3787 -0.5875
  787MOL0     H 6236   3.141   1.447   5.130  1.4962  2.7689  1.6603
  787MOL0     H 6237   3.110   1.660   5.162 -3.4386 -2.1274  0.0470
  787MOL0     H 6238   3.032   1.653   5.000  0.8724 -0.7714 -3.6048
  787MOL0     H 6239   3.295   1.670   4.913  1.3459  0.6207  0.7717
  787MOL0     H 6240   3.189   1.803   4.919  1.8917  0.7616 -1.4082
  787MOL0     H 6241   3.470   1.847   5.254  0.0406 -1.4939  1.3845
  787MOL0     H 6242   2.893   1.305   4.792  2.1670 -0.2491  2.3818
  787MOL0     H 6243   2.705   1.258   4.709  0.0051  1.3227 -2.7036
  787MOL0     H 6244   2.756   1.210   4.544  1.9949 -2.2758 -0.7718
  787MOL0     H 6245   2.669   1.087   4.640  1.0065 -1.3240  0.1477
  788MOL0     O 6246  11.093  11.349   7.168 -0.1805  0.4694 -0.3975
  788MOL0     C 6247  11.029  11.247   7.129  0.8225 -0.3236 -0.2721
  788MOL0     O 6248  10.974  11.149   7.207  0.3308  0.1496 -0.2668
  788MOL0     C 6249  11.012  11.149   7.338 -0.3774  0.4158  0.2609
  788MOL0     C 6250  11.152  11.122   7.381 -0.3865 -0.1572  1.0263
  788MOL0     C 6251  11.179  11.116   7.516 -0.4184  0.1363  0.2276
  788MOL0     C 6252  11.074  11.119   7.609  0.0831  0.0136  1.0526
  788MOL0     O 6253  11.110  11.102   7.742  0.3743 -0.2825  0.3960
  788MOL0     C 6254  11.023  11.036   7.839  0.6368 -0.1368  0.2037
  788MOL0     C 6255  11.097  11.009   7.966 -0.6487 -0.3886 -0.6357
  788MOL0     C 6256  11.228  10.946   7.945  0.9695 -0.3356 -0.0083
  788MOL0     C 6257  11.216  10.808   7.879  0.5751  0.4698 -0.3324
  788MOL0     C 6258  11.351  10.731   7.874 -0.8779 -0.1638 -0.5689
  788MOL0     C 6259  11.328  10.593   7.827  0.3378 -0.3185 -0.0500
  788MOL0     C 6260  11.357  10.585   7.674  0.1994  0.1913 -0.6059
  788MOL0     C 6261  11.327  10.448   7.613  0.0512 -0.2093 -0.6991
  788MOL0     N 6262  11.337  10.448   7.473 -0.5158 -0.5345  0.2403
  788MOL0     C 6263  11.451  10.478   7.399 -0.6407  0.6352 -0.2107
  788MOL0     C 6264  11.414  10.458   7.270 -0.3064  0.1385 -0.9538
  788MOL0     C 6265  11.495  10.481   7.147 -0.2796  0.3866  1.3378
  788MOL0     C 6266  11.533  10.629   7.113  0.4276  0.4529 -0.0624
  788MOL0     C 6267  11.666  10.626   7.069 -0.0435  0.2897 -0.3095
  788MOL0     C 6268  11.701  10.545   6.942  2.0381 -0.2572  0.4632
  788MOL0     O 6269  11.837  10.496   6.960 -0.9249 -0.7653  0.3199
  788MOL0     C 6270  11.927  10.544   6.868 -0.5985 -0.3319 -0.5381
  788MOL0     C 6271  12.046  10.609   6.920 -0.4403 -0.1677 -0.3336
  788MOL0     C 6272  12.142  10.660   6.829 -0.2556 -0.0903  0.1078
  788MOL0     C 6273  12.125  10.655   6.686 -0.6583  1.0045 -0.7920
  788MOL0     C 6274  12.215  10.715   6.590  0.2129 -0.4738 -0.0288
  788MOL0     O 6275  12.310  10.794   6.643  0.0757  0.5864  0.7051
  788MOL0     C 6276  12.399  10.873   6.565 -0.2690  0.2237  0.6262
  788MOL0     C 6277  12.366  10.942   6.448 -1.3705 -0.2606  0.4724
  788MOL0     C 6278  12.463  11.018   6.382 -0.3626  0.2365 -0.1788
  788MOL0     C 6279  12.593  11.026   6.427 -0.8976 -0.3071  0.2683
  788MOL0     O 6280  12.681  11.102   6.346 -0.2525 -0.2967 -0.1419
  788MOL0     C 6281  12.757  11.201   6.406 -0.1367 -0.1296 -0.4540
  788MOL0     C 6282  12.875  11.245   6.319 -0.8995  0.2041 -0.1729
  788MOL0     C 6283  12.855  11.318   6.191  0.1255  0.7188  1.0085
  788MOL0     C 6284  12.980  11.322   6.096 -0.2032 -0.6587 -0.4821
  788MOL0     C 6285  12.956  11.421   5.981 -0.2096 -1.4655 -0.2684
  788MOL0     C 6286  12.867  11.358   5.874 -0.7581 -0.2015 -0.6563
  788MOL0     C 6287  12.834  11.449   5.768 -0.3624 -0.2069  0.1064
  788MOL0     C 6288  12.772  11.361   5.656 -0.1793  0.0556  0.5187
  788MOL0    Cl 6289  12.752  11.463   5.517  0.3563 -0.1851 -0.0755
  788MOL0     C 6290  12.634  10.961   6.543  0.0736  0.7090  0.4019
  788MOL0     C 6291  12.539  10.884   6.612  0.2280  0.7299 -0.3673
  788MOL0     O 6292  12.202  10.692   6.467 -0.2809 -0.2955  0.4353
  788MOL0     C 6293  12.010  10.590   6.641  0.4581  0.7455  0.3161
  788MOL0     C 6294  11.912  10.538   6.735  0.3227 -0.1446  0.0759
  788MOL0     N 6295  11.281  10.417   7.268  0.5824  0.2719 -0.4961
  788MOL0     N 6296  11.236  10.419   7.393 -0.1618  0.0536  0.4721
  788MOL0     C 6297  10.941  11.136   7.568  0.0960  1.0476 -0.8582
  788MOL0     C 6298  10.909  11.151   7.430 -0.0682 -0.8030 -0.4617
  788MOL0     C 6299  10.993  11.244   6.993  0.1784  0.2548 -0.3914
  788MOL0     C 6300  10.988  11.119   6.927 -0.7122 -0.4837 -0.2470
  788MOL0     C 6301  10.962  11.115   6.790 -1.2551 -0.0237 -0.6687
  788MOL0     C 6302  10.914  11.228   6.723 -1.0859  0.4665 -0.8845
  788MOL0     O 6303  10.870  11.234   6.597 -0.0625  0.3962 -0.1391
  788MOL0     C 6304  10.735  11.175   6.570  0.3425 -1.7593 -0.2090
  788MOL0     C 6305  10.735  11.038   6.515  0.5037  0.7589 -0.6825
  788MOL0     C 6306  10.813  11.024   6.381  0.1377 -0.3007  0.0141
  788MOL0     C 6307  10.732  11.059   6.255 -0.2096  0.5967 -0.1260
  788MOL0     C 6308  10.817  11.107   6.142 -0.6745 -0.3579 -1.3238
  788MOL0     C 6309  10.888  11.129   6.049  0.4628  1.9100  1.0840
  788MOL0     C 6310  10.911  11.346   6.798 -0.0252  0.3582  0.1648
  788MOL0     C 6311  10.939  11.363   6.927  0.6078 -0.1102 -0.2856
  788MOL0     C 6312  10.904  11.499   6.987 -0.2039 -0.2669 -0.4973
  788MOL0     H 6313  11.228  11.106   7.305  1.2167  0.3033  2.4633
  788MOL0     H 6314  11.284  11.106   7.544 -0.7256  0.9933  1.7799
  788MOL0     H 6315  10.932  11.094   7.858  2.8282  3.4243  0.7979
  788MOL0     H 6316  10.995  10.934   7.811 -0.2456 -0.1318  1.0534
  788MOL0     H 6317  11.042  10.945   8.036  0.1901 -0.2651  0.1476
  788MOL0     H 6318  11.109  11.106   8.015  1.5825  0.3654 -2.5488
  788MOL0     H 6319  11.272  10.943   8.045  1.5373 -1.0554 -0.2736
  788MOL0     H 6320  11.298  11.004   7.884 -0.4818  0.4468 -0.9858
  788MOL0     H 6321  11.147  10.742   7.932 -0.9099  0.1600 -2.4943
  788MOL0     H 6322  11.190  10.816   7.773  1.1009  0.8183 -0.4373
  788MOL0     H 6323  11.417  10.792   7.811  1.0076 -1.9291 -0.3880
  788MOL0     H 6324  11.384  10.731   7.978 -2.3219 -1.9439 -0.0664
  788MOL0     H 6325  11.395  10.529   7.885  0.1528 -0.1672  0.3379
  788MOL0     H 6326  11.227  10.562   7.853  0.1633 -2.2101 -2.6157
  788MOL0     H 6327  11.454  10.632   7.655  0.8260  0.8621  3.3971
  788MOL0     H 6328  11.280  10.648   7.631 -0.4158  1.1207  1.7174
  788MOL0     H 6329  11.406  10.383   7.652  2.7439  1.3294 -3.1508
  788MOL0     H 6330  11.231  10.409   7.648  0.6553  0.8945  2.5706
  788MOL0     H 6331  11.544  10.525   7.428  0.6551 -0.9748 -1.6337
  788MOL0     H 6332  11.583  10.417   7.149  2.3897  3.5037 -2.5213
  788MOL0     H 6333  11.427  10.448   7.067 -2.2276 -0.9998  3.4377
  788MOL0     H 6334  11.474  10.694   7.046 -0.3329 -0.0474  0.1064
  788MOL0     H 6335  11.526  10.676   7.211  1.1978 -3.7201  2.2124
  788MOL0     H 6336  11.719  10.576   7.150  1.4039 -1.0032 -1.9624
  788MOL0     H 6337  11.701  10.728   7.051  0.8245  0.2481  0.9824
  788MOL0     H 6338  11.676  10.598   6.850  0.0001 -1.1292  0.4609
  788MOL0     H 6339  11.629  10.463   6.950 -0.6648  1.7921 -1.0563
  788MOL0     H 6340  12.062  10.616   7.027  4.5692 -3.1743 -0.5423
  788MOL0     H 6341  12.229  10.715   6.863 -0.7187 -0.0487  1.2722
  788MOL0     H 6342  12.267  10.933   6.404 -0.9825  0.1468 -0.5370
  788MOL0     H 6343  12.431  11.073   6.294  0.9888  1.4976  0.0866
  788MOL0     H 6344  12.691  11.287   6.419 -0.4916  0.0534 -2.9179
  788MOL0     H 6345  12.787  11.167   6.505 -2.2328  0.2263  0.3606
  788MOL0     H 6346  12.940  11.311   6.377 -1.4827  1.4535 -0.8972
  788MOL0     H 6347  12.941  11.159   6.302  2.5203  2.5295  0.4301
  788MOL0     H 6348  12.774  11.281   6.127  2.3808  0.3099 -1.8157
  788MOL0     H 6349  12.822  11.419   6.220  1.0919  2.3203 -2.9122
  788MOL0     H 6350  12.995  11.222   6.053  1.6296 -1.1572  1.1396
  788MOL0     H 6351  13.066  11.349   6.159 -0.3265 -3.8954  1.2918
  788MOL0     H 6352  13.054  11.433   5.933  1.0323 -2.5795  1.8489
  788MOL0     H 6353  12.920  11.517   6.020  1.4601 -0.8131 -0.2481
  788MOL0     H 6354  12.916  11.270   5.831 -0.5811  0.6610 -2.2881
  788MOL0     H 6355  12.773  11.323   5.917 -0.7835  1.9292  1.2129
  788MOL0     H 6356  12.920  11.503   5.728  1.5271 -1.2310  2.4925
  788MOL0     H 6357  12.761  11.522   5.804 -2.3178 -1.8196 -0.3878
  788MOL0     H 6358  12.841  11.278   5.638 -0.5830 -0.1102 -0.3117
  788MOL0     H 6359  12.675  11.319   5.684 -0.1788 -0.4911 -0.2596
  788MOL0     H 6360  12.734  10.973   6.583 -1.3641  2.8404  3.8185
  788MOL0     H 6361  12.557  10.830   6.705 -2.2392  2.0941  1.0123
  788MOL0     H 6362  11.980  10.596   6.537 -2.4485 -2.4135  0.7676
  788MOL0     H 6363  11.823  10.494   6.691  1.5966 -1.9974 -0.7911
  788MOL0     H 6364  10.865  11.150   7.645  2.1203  0.9746  1.2584
  788MOL0     H 6365  10.809  11.173   7.394 -0.6820 -0.3731  1.3890
  788MOL0     H 6366  11.014  11.025   6.975  0.4296 -0.8548 -1.5443
  788MOL0     H 6367  10.961  11.024   6.731  0.1286 -0.2612 -0.3458
  788MOL0     H 6368  10.689  11.240   6.495 -1.0634 -0.0286  2.0330
  788MOL0     H 6369  10.676  11.192   6.660  3.0691  1.4749  1.1566
  788MOL0     H 6370  10.632  11.005   6.497  0.7846 -0.6040  0.0569
  788MOL0     H 6371  10.770  10.978   6.600 -3.5479 -0.4110  0.3938
  788MOL0     H 6372  10.865  10.929   6.368  1.0001  0.2455 -0.7137
  788MOL0     H 6373  10.904  11.083   6.364  1.2331 -2.8689 -4.5297
  788MOL0     H 6374  10.679  10.968   6.222 -1.5451  1.1624  0.3969
  788MOL0     H 6375  10.662  11.134   6.292  0.3483  1.2457 -0.3609
  788MOL0     H 6376  10.937  11.144   5.955 -0.7087  0.1417  0.1326
  788MOL0     H 6377  10.876  11.434   6.744  0.2906 -1.0394 -2.4800
  788MOL0     H 6378  10.966  11.575   6.940 -1.6933 -1.5201 -4.9345
  788MOL0     H 6379  10.802  11.524   6.958 -0.6439  1.2309  2.0032
  788MOL0     H 6380  10.907  11.494   7.097  2.0349  0.8449 -0.4699
  789MOL0     O 6381   3.351   2.258   8.855  0.7083  0.1723  0.0040
  789MOL0     C 6382   3.309   2.373   8.852  0.1455 -0.0703 -0.1616
  789MOL0     O 6383   3.167   2.422   8.875  0.1585  0.8201  0.1519
  789MOL0     C 6384   3.122   2.522   8.802 -0.5442  0.0213 -0.3493
  789MOL0     C 6385   3.050   2.488   8.690  0.3074 -0.3731 -0.0585
  789MOL0     C 6386   2.990   2.591   8.619  0.0763  0.7610 -1.1629
  789MOL0     C 6387   3.011   2.728   8.646  0.3456 -0.1040 -0.3909
  789MOL0     O 6388   2.952   2.820   8.573  0.0499  0.0067  0.1077
  789MOL0     C 6389   2.888   2.927   8.640 -0.8322 -0.8740 -0.6259
  789MOL0     C 6390   2.752   2.894   8.696 -0.0652 -0.1688 -0.4058
  789MOL0     C 6391   2.648   2.858   8.588 -0.3514  0.1888 -0.2619
  789MOL0     C 6392   2.519   2.826   8.669  0.0655 -0.8150  1.4068
  789MOL0     C 6393   2.524   2.694   8.736  0.7867  0.2398 -0.6736
  789MOL0     C 6394   2.385   2.664   8.810  1.6090  0.4995 -0.2342
  789MOL0     C 6395   2.332   2.524   8.768 -0.6367  0.6040 -0.5326
  789MOL0     C 6396   2.275   2.495   8.631  0.1660 -0.1180 -0.6226
  789MOL0     N 6397   2.334   2.549   8.506 -0.4417 -0.7129 -0.8830
  789MOL0     C 6398   2.312   2.668   8.443 -0.3970  0.0638  0.2012
  789MOL0     C 6399   2.384   2.657   8.329 -0.3657 -0.3536  0.0315
  789MOL0     C 6400   2.428   2.777   8.238  0.3083 -0.2210  0.4521
  789MOL0     C 6401   2.345   2.787   8.104  0.0182  0.0485 -0.6366
  789MOL0     C 6402   2.410   2.867   7.991 -0.1287  0.2675 -0.9861
  789MOL0     C 6403   2.528   2.801   7.922  0.4922  0.1649 -1.3877
  789MOL0     O 6404   2.643   2.850   7.993 -0.1332  0.7437 -0.6510
  789MOL0     C 6405   2.753   2.770   7.985 -0.1193 -0.5852 -0.9034
  789MOL0     C 6406   2.809   2.691   7.880  0.0589 -0.0468 -0.3757
  789MOL0     C 6407   2.932   2.624   7.894  0.0582  0.4326  0.3561
  789MOL0     C 6408   2.998   2.633   8.019  0.1837  0.1904  0.5219
  789MOL0     C 6409   3.126   2.566   8.035 -0.0545  0.4106 -0.5824
  789MOL0     O 6410   3.198   2.594   8.152  0.2525 -0.5318 -0.0368
  789MOL0     C 6411   3.326   2.559   8.167 -0.9547  0.3151  0.2015
  789MOL0     C 6412   3.385   2.440   8.136  0.2562 -0.2708 -0.8750
  789MOL0     C 6413   3.508   2.395   8.178 -0.1257 -0.1203  0.3099
  789MOL0     C 6414   3.581   2.474   8.257 -0.7718 -0.7985 -0.0319
  789MOL0     O 6415   3.707   2.439   8.297 -0.0227 -0.5632 -0.3193
  789MOL0     C 6416   3.738   2.306   8.323 -0.6379  0.4689  0.2212
  789MOL0     C 6417   3.887   2.303   8.369  0.3416  0.2032  0.0910
  789MOL0     C 6418   3.982   2.319   8.248  0.1551  0.0389 -0.0319
  789MOL0     C 6419   3.978   2.205   8.152 -0.9735  0.8158  0.1690
  789MOL0     C 6420   4.077   2.240   8.040 -0.1993  0.4460  0.1939
  789MOL0     C 6421   4.087   2.103   7.965  0.2400  0.1524 -0.2566
  789MOL0     C 6422   4.168   2.114   7.838  0.1292  0.5987  0.6455
  789MOL0     C 6423   4.174   1.989   7.743  0.4107 -0.4525 -0.2380
  789MOL0    Cl 6424   4.268   1.999   7.593 -0.1581 -0.0924 -0.2056
  789MOL0     C 6425   3.541   2.601   8.285  0.8406 -0.7030 -0.0981
  789MOL0     C 6426   3.410   2.650   8.236 -0.4233 -0.2044  0.3269
  789MOL0     O 6427   3.157   2.495   7.945 -0.2834 -0.6332  0.0408
  789MOL0     C 6428   2.957   2.732   8.114  0.1042  0.4995 -0.0908
  789MOL0     C 6429   2.831   2.784   8.099 -0.5312 -0.3170 -0.1240
  789MOL0     N 6430   2.449   2.533   8.333 -0.4191 -0.6307  0.2756
  789MOL0     N 6431   2.414   2.469   8.435 -0.0377  0.9731  0.2340
  789MOL0     C 6432   3.105   2.757   8.752 -0.3690  0.3187 -0.1213
  789MOL0     C 6433   3.162   2.655   8.829 -0.6059 -0.1261  0.6007
  789MOL0     C 6434   3.403   2.465   8.798  0.2218 -0.1924 -0.4327
  789MOL0     C 6435   3.480   2.539   8.894  0.4359  0.1828  0.1124
  789MOL0     C 6436   3.599   2.611   8.855 -0.4946 -1.0112 -0.2853
  789MOL0     C 6437   3.642   2.616   8.725  0.5950 -0.0730  0.1570
  789MOL0     O 6438   3.757   2.679   8.690  0.8430 -0.7034 -0.8356
  789MOL0     C 6439   3.806   2.677   8.550 -0.0087  0.3688 -0.5568
  789MOL0     C 6440   3.949   2.725   8.553 -0.2134 -0.0026  0.0100
  789MOL0     C 6441   4.056   2.626   8.605  1.0020 -0.2021  0.1154
  789MOL0     C 6442   4.063   2.607   8.751 -0.1319 -0.1879 -0.1429
  789MOL0     C 6443   4.183   2.522   8.777 -0.5477 -0.6977 -0.7689
  789MOL0     C 6444   4.266   2.442   8.812  1.1067 -0.3595 -0.6359
  789MOL0     C 6445   3.567   2.548   8.631 -0.0424  0.4421  0.4437
  789MOL0     C 6446   3.449   2.474   8.665 -0.0829  0.1540  0.2423
  789MOL0     C 6447   3.380   2.398   8.559  0.1983  0.2489  0.5358
  789MOL0     H 6448   3.038   2.385   8.656  0.9657 -0.2496 -0.6878
  789MOL0     H 6449   2.919   2.555   8.545 -0.8099  0.9301 -0.4071
  789MOL0     H 6450   2.951   2.970   8.718  0.6152  1.7553 -3.0689
  789MOL0     H 6451   2.867   3.011   8.572 -1.2523 -0.6457 -0.2183
  789MOL0     H 6452   2.707   2.972   8.758  0.1666 -1.1008  0.9690
  789MOL0     H 6453   2.761   2.806   8.760  1.7035 -0.5831 -1.1766
  789MOL0     H 6454   2.682   2.780   8.520  1.2401  1.1608 -0.6326
  789MOL0     H 6455   2.631   2.944   8.523  0.8489  1.0232  0.4914
  789MOL0     H 6456   2.503   2.900   8.748 -3.3530 -1.0138  1.0345
  789MOL0     H 6457   2.428   2.833   8.608  1.2047  0.7021 -0.2340
  789MOL0     H 6458   2.544   2.612   8.666 -0.7315  1.6579 -2.9108
  789MOL0     H 6459   2.605   2.692   8.809  1.1602 -1.7658 -1.0816
  789MOL0     H 6460   2.407   2.656   8.917 -0.1496  1.1322  0.2026
  789MOL0     H 6461   2.307   2.737   8.787  1.3748  0.3055 -0.0524
  789MOL0     H 6462   2.257   2.499   8.843  3.2619 -3.9257  2.4124
  789MOL0     H 6463   2.407   2.447   8.789 -2.4359 -1.5718 -1.6437
  789MOL0     H 6464   2.251   2.390   8.613  1.9507 -0.3365 -1.9837
  789MOL0     H 6465   2.183   2.550   8.652  1.7966  1.6934  2.5281
  789MOL0     H 6466   2.262   2.754   8.487  0.2853 -0.3727  1.9284
  789MOL0     H 6467   2.415   2.866   8.300 -1.7721  1.7767 -2.5939
  789MOL0     H 6468   2.535   2.770   8.220  0.7542 -1.0830  3.0357
  789MOL0     H 6469   2.313   2.685   8.082  4.7729 -2.4304  2.1479
  789MOL0     H 6470   2.265   2.857   8.127  0.4750  0.4928 -0.3758
  789MOL0     H 6471   2.437   2.964   8.034 -2.5976 -0.1361  1.7941
  789MOL0     H 6472   2.334   2.890   7.916 -0.1588 -2.4319 -1.8860
  789MOL0     H 6473   2.527   2.824   7.815  0.5720 -0.3424 -1.4984
  789MOL0     H 6474   2.506   2.697   7.947 -2.3501  1.1624  0.7854
  789MOL0     H 6475   2.764   2.700   7.781 -0.8037 -1.8961 -0.1920
  789MOL0     H 6476   2.974   2.558   7.818 -1.2101 -0.7308  0.6153
  789MOL0     H 6477   3.325   2.373   8.075 -2.9528  2.0081 -0.4184
  789MOL0     H 6478   3.546   2.300   8.141  2.6882  0.9331  0.2730
  789MOL0     H 6479   3.678   2.272   8.408 -1.7604 -0.7541 -1.0085
  789MOL0     H 6480   3.721   2.243   8.236 -0.7904 -1.1327  1.3645
  789MOL0     H 6481   3.909   2.382   8.442  0.6253  2.0579 -1.8998
  789MOL0     H 6482   3.898   2.205   8.415  3.9014  1.6526  2.9313
  789MOL0     H 6483   3.955   2.407   8.189  4.7315  1.2180 -0.8175
  789MOL0     H 6484   4.081   2.332   8.293  0.7866 -1.2858 -0.9414
  789MOL0     H 6485   3.874   2.178   8.133 -0.7764 -2.4852  2.8547
  789MOL0     H 6486   4.019   2.122   8.210  3.6853  0.1564 -3.4296
  789MOL0     H 6487   4.173   2.272   8.082  0.4879 -0.7404 -0.4253
  789MOL0     H 6488   4.031   2.318   7.978 -1.0533  1.0007  1.4697
  789MOL0     H 6489   4.141   2.029   8.025 -1.7883 -0.5304  0.8238
  789MOL0     H 6490   3.987   2.063   7.946 -0.2342  2.1975 -2.5142
  789MOL0     H 6491   4.273   2.131   7.864  0.1741  1.2594  0.0716
  789MOL0     H 6492   4.130   2.195   7.776  1.3031  1.2093  0.6851
  789MOL0     H 6493   4.221   1.914   7.808  0.3239 -0.6361 -0.3867
  789MOL0     H 6494   4.071   1.963   7.717  0.0941  0.9406 -0.4677
  789MOL0     H 6495   3.599   2.664   8.351 -1.4362  1.8197 -0.3506
  789MOL0     H 6496   3.358   2.744   8.254 -1.5607 -0.7337 -0.0893
  789MOL0     H 6497   3.019   2.737   8.204  0.1267 -1.5734  0.0666
  789MOL0     H 6498   2.813   2.858   8.177  0.9281  1.3727 -1.3064
  789MOL0     H 6499   3.130   2.862   8.762 -1.5013  0.4755  1.4250
  789MOL0     H 6500   3.230   2.687   8.907  0.7043 -1.6942  0.1551
  789MOL0     H 6501   3.457   2.519   8.999 -0.5770 -1.9923 -0.4744
  789MOL0     H 6502   3.662   2.660   8.929 -0.7037  0.3516 -0.9800
  789MOL0     H 6503   3.754   2.746   8.483  2.4572  4.1097  1.0473
  789MOL0     H 6504   3.803   2.579   8.502 -2.0510 -0.4358  1.0958
  789MOL0     H 6505   3.948   2.819   8.609  1.0582  0.3393 -0.4937
  789MOL0     H 6506   3.973   2.752   8.450 -0.0771 -1.1733 -0.2736
  789MOL0     H 6507   4.152   2.671   8.574  0.5978 -0.4650 -1.6539
  789MOL0     H 6508   4.040   2.526   8.564  0.3109 -1.4130  3.1001
  789MOL0     H 6509   4.084   2.707   8.789  1.7950 -0.1298 -1.2609
  789MOL0     H 6510   3.977   2.559   8.799  0.5903 -2.8555 -1.3340
  789MOL0     H 6511   4.325   2.362   8.853  1.2543  0.3774  0.6535
  789MOL0     H 6512   3.598   2.526   8.529 -1.0713 -3.0098  0.7483
  789MOL0     H 6513   3.453   2.326   8.522  0.9874  0.3549  1.8425
  789MOL0     H 6514   3.289   2.348   8.593 -1.5360  2.9689  0.2052
  789MOL0     H 6515   3.339   2.456   8.475 -0.5227  0.2590  0.8852
  790MOL0     O 6516   1.081   2.186   0.019 -0.6811  0.5503  0.2782
  790MOL0     C 6517   1.116   2.192  -0.095 -0.1841 -0.3416  0.1182
  790MOL0     O 6518   1.061   2.117  -0.194 -0.4740  0.2500  0.8496
  790MOL0     C 6519   0.951   2.049  -0.158 -0.4831  0.0745  0.2469
  790MOL0     C 6520   0.947   1.909  -0.134 -0.0534  0.1223  0.0370
  790MOL0     C 6521   0.830   1.842  -0.096 -0.5064 -0.4994  0.7224
  790MOL0     C 6522   0.707   1.912  -0.095 -0.3324  0.2540 -0.1522
  790MOL0     O 6523   0.590   1.836  -0.083  0.6004 -1.2190 -0.5052
  790MOL0     C 6524   0.535   1.827   0.052  0.3873 -0.1824  0.7622
  790MOL0     C 6525   0.585   1.703   0.107 -0.0472 -1.0960  0.1549
  790MOL0     C 6526   0.524   1.669   0.241  0.7548 -0.4323 -0.2963
  790MOL0     C 6527   0.615   1.597   0.338 -0.7736  0.4798  0.5696
  790MOL0     C 6528   0.627   1.451   0.286 -0.4282  0.1761  0.0751
  790MOL0     C 6529   0.762   1.415   0.223 -0.7919  1.2461  0.6676
  790MOL0     C 6530   0.777   1.261   0.178  0.7563 -1.1120  0.0422
  790MOL0     C 6531   0.795   1.169   0.298 -0.9409  0.4380  0.0431
  790MOL0     N 6532   0.788   1.022   0.266 -0.4497 -0.2696 -0.3364
  790MOL0     C 6533   0.838   0.945   0.164  0.3189 -0.1302 -0.2856
  790MOL0     C 6534   0.793   0.822   0.186  0.3810 -0.8016  0.0933
  790MOL0     C 6535   0.808   0.695   0.100  1.1956 -0.8617 -0.3612
  790MOL0     C 6536   0.940   0.638   0.128 -0.1375 -0.0856  0.3814
  790MOL0     C 6537   0.968   0.497   0.063 -0.3680 -1.1707 -0.5624
  790MOL0     C 6538   0.919   0.383   0.154  0.5382  0.2466 -0.0244
  790MOL0     O 6539   1.001   0.364   0.271  0.5133 -0.1717  0.0342
  790MOL0     C 6540   0.945   0.316   0.385  0.5772  0.6337 -1.1270
  790MOL0     C 6541   1.036   0.298   0.487  0.1431 -0.0769  0.0156
  790MOL0     C 6542   1.007   0.243   0.612  0.7224  0.5672 -0.5735
  790MOL0     C 6543   0.864   0.208   0.628  0.1792 -0.0861 -0.3946
  790MOL0     C 6544   0.814   0.160   0.760 -1.1069 -1.3623 -0.7556
  790MOL0     O 6545   0.698   0.099   0.760 -0.2079 -0.4186  0.4360
  790MOL0     C 6546   0.673   0.005   0.860  0.4592  0.1567 -0.4669
  790MOL0     C 6547   0.665  -0.137   0.825  0.1012 -0.6498  0.3952
  790MOL0     C 6548   0.595  -0.215   0.912  0.7356  0.1680 -0.4979
  790MOL0     C 6549   0.554  -0.179   1.040 -0.4050  0.6427 -0.0818
  790MOL0     O 6550   0.492  -0.268   1.127 -0.5520  0.5482 -0.1548
  790MOL0     C 6551   0.517  -0.408   1.115  0.2920 -0.1136  0.0946
  790MOL0     C 6552   0.430  -0.464   1.238  0.0861 -0.0377  0.5640
  790MOL0     C 6553   0.277  -0.477   1.193  0.2521  0.7760  0.3129
  790MOL0     C 6554   0.205  -0.552   1.308 -0.8002  0.0727 -0.7128
  790MOL0     C 6555   0.072  -0.613   1.259 -0.0501 -0.1474 -1.1468
  790MOL0     C 6556  -0.063  -0.538   1.280 -0.1828 -0.4828 -0.0107
  790MOL0     C 6557  -0.106  -0.551   1.428  0.0281  0.0045  0.6793
  790MOL0     C 6558  -0.249  -0.540   1.448  0.4089 -0.9916  1.2481
  790MOL0    Cl 6559  -0.346  -0.651   1.349  0.4135 -0.3901  0.1972
  790MOL0     C 6560   0.589  -0.053   1.087 -0.1018 -0.7128  0.3812
  790MOL0     C 6561   0.628   0.043   0.989 -0.1123  0.1691 -0.3885
  790MOL0     O 6562   0.883   0.184   0.859 -0.0299 -0.3073 -0.6778
  790MOL0     C 6563   0.766   0.210   0.516 -1.2450  0.7884  0.1434
  790MOL0     C 6564   0.811   0.271   0.400 -0.0925 -0.6463  0.0452
  790MOL0     N 6565   0.719   0.811   0.308 -0.3273 -0.3092 -0.1392
  790MOL0     N 6566   0.717   0.934   0.344  0.3503  0.5687 -0.6972
  790MOL0     C 6567   0.706   2.052  -0.118 -0.3190 -0.1504 -0.0095
  790MOL0     C 6568   0.828   2.111  -0.155 -0.4595 -0.7254  0.9319
  790MOL0     C 6569   1.232   2.282  -0.131  0.8249  0.7565  0.5207
  790MOL0     C 6570   1.287   2.364  -0.042 -1.6664  0.1582 -0.3337
  790MOL0     C 6571   1.382   2.462  -0.076  0.3028  0.6381 -0.3600
  790MOL0     C 6572   1.412   2.495  -0.202  0.0356  0.4009  0.0308
  790MOL0     O 6573   1.496   2.607  -0.222  0.0802  0.3679  0.3453
  790MOL0     C 6574   1.465   2.712  -0.313 -0.3733  0.1392  0.5523
  790MOL0     C 6575   1.500   2.852  -0.260 -0.1721  0.5517  0.4655
  790MOL0     C 6576   1.470   2.968  -0.355  0.4041  0.4741 -0.3288
  790MOL0     C 6577   1.455   3.109  -0.277  0.4383  0.4635  0.0879
  790MOL0     C 6578   1.475   3.219  -0.371 -0.0616  0.0415 -0.4678
  790MOL0     C 6579   1.490   3.295  -0.458 -0.3431 -0.1123  0.2569
  790MOL0     C 6580   1.365   2.409  -0.299 -0.2152  0.2007 -1.2114
  790MOL0     C 6581   1.269   2.312  -0.265  0.0349  0.1369  0.5907
  790MOL0     C 6582   1.225   2.237  -0.389 -0.0790 -0.2736  0.4026
  790MOL0     H 6583   1.033   1.843  -0.145  0.5455  1.0386 -0.9253
  790MOL0     H 6584   0.831   1.734  -0.095  0.2685 -0.5150 -0.3624
  790MOL0     H 6585   0.556   1.922   0.103 -2.4648  1.2075 -0.4316
  790MOL0     H 6586   0.427   1.827   0.041  0.3692 -0.7892  0.9060
  790MOL0     H 6587   0.693   1.708   0.124 -0.1726 -0.3350  0.8010
  790MOL0     H 6588   0.566   1.622   0.036  2.3735  0.4179 -2.4367
  790MOL0     H 6589   0.435   1.606   0.226  0.1046  0.4606 -0.2478
  790MOL0     H 6590   0.494   1.762   0.290 -0.7251 -1.1660  0.2586
  790MOL0     H 6591   0.716   1.639   0.346 -0.5083  1.3233 -4.2016
  790MOL0     H 6592   0.562   1.587   0.434  0.3685 -1.0181  1.0807
  790MOL0     H 6593   0.593   1.386   0.367 -0.9823 -4.4185 -3.4256
  790MOL0     H 6594   0.546   1.436   0.213 -0.6293 -4.0464  0.9224
  790MOL0     H 6595   0.802   1.475   0.141  3.2927 -1.3673  0.4806
  790MOL0     H 6596   0.823   1.427   0.313 -0.3405 -1.4516  0.8098
  790MOL0     H 6597   0.866   1.253   0.114  1.6995  0.2072  1.1134
  790MOL0     H 6598   0.689   1.230   0.121  0.0732  0.1798  0.3744
  790MOL0     H 6599   0.894   1.186   0.341 -0.4835 -1.2418 -0.2534
  790MOL0     H 6600   0.710   1.184   0.365  0.3034 -3.5225  2.8706
  790MOL0     H 6601   0.883   0.964   0.066  0.9618 -3.1252 -0.6998
  790MOL0     H 6602   0.730   0.623   0.127  4.7534 -3.7362  3.4597
  790MOL0     H 6603   0.801   0.719  -0.007 -1.5312 -1.0231 -0.2948
  790MOL0     H 6604   1.019   0.697   0.080  1.7922 -1.0009  2.2970
  790MOL0     H 6605   0.955   0.631   0.236 -5.1360  1.7882  1.4683
  790MOL0     H 6606   1.074   0.479   0.044 -0.7183 -4.6588  0.1166
  790MOL0     H 6607   0.920   0.491  -0.036 -4.3292  1.7976  0.9333
  790MOL0     H 6608   0.936   0.290   0.100 -1.2680 -0.0671 -0.0880
  790MOL0     H 6609   0.813   0.394   0.176  0.0954 -0.9537 -1.4083
  790MOL0     H 6610   1.138   0.329   0.466 -0.5319  1.3982 -1.2725
  790MOL0     H 6611   1.086   0.231   0.685 -0.1305 -0.3981  0.2130
  790MOL0     H 6612   0.697  -0.176   0.729 -0.0347  1.2225 -0.4679
  790MOL0     H 6613   0.587  -0.316   0.874 -0.0368  0.8118 -2.1601
  790MOL0     H 6614   0.479  -0.456   1.025 -0.1405  2.5637 -1.2594
  790MOL0     H 6615   0.619  -0.445   1.132 -0.0108 -0.7928  0.4710
  790MOL0     H 6616   0.468  -0.555   1.285  1.1938  1.4331  2.6873
  790MOL0     H 6617   0.443  -0.390   1.318  2.7425  1.8275 -1.4090
  790MOL0     H 6618   0.231  -0.380   1.170 -1.1858 -0.1625 -1.0488
  790MOL0     H 6619   0.274  -0.528   1.096  0.3702  2.4951 -0.6400
  790MOL0     H 6620   0.189  -0.488   1.395 -1.2195 -3.1336  1.7521
  790MOL0     H 6621   0.265  -0.639   1.336  3.7297  2.7635 -1.0986
  790MOL0     H 6622   0.066  -0.717   1.293 -0.6656  0.2122 -0.0982
  790MOL0     H 6623   0.080  -0.625   1.151 -0.0859 -1.3466 -1.0259
  790MOL0     H 6624  -0.042  -0.434   1.257  1.4218 -0.8854 -0.4373
  790MOL0     H 6625  -0.141  -0.587   1.220 -1.4782 -0.5274  1.6147
  790MOL0     H 6626  -0.062  -0.469   1.486  2.8285 -1.2641  0.4967
  790MOL0     H 6627  -0.077  -0.647   1.471 -3.6107 -1.0336  1.1820
  790MOL0     H 6628  -0.280  -0.550   1.553 -2.6061  0.0764  0.5552
  790MOL0     H 6629  -0.268  -0.436   1.423  3.7395 -0.1659  1.6893
  790MOL0     H 6630   0.561  -0.016   1.185 -0.0847  1.0862 -0.2418
  790MOL0     H 6631   0.624   0.148   1.018 -0.4764  0.1520 -0.3655
  790MOL0     H 6632   0.664   0.174   0.515 -0.5413 -1.5158  1.9348
  790MOL0     H 6633   0.743   0.285   0.317  0.1888  0.0743 -0.0742
  790MOL0     H 6634   0.615   2.110  -0.112 -0.1748  0.0152  0.6976
  790MOL0     H 6635   0.834   2.215  -0.186 -1.0370 -1.6395 -2.7773
  790MOL0     H 6636   1.263   2.363   0.064 -0.4224 -0.7840 -0.0422
  790MOL0     H 6637   1.437   2.516   0.000  2.0765 -1.4649 -0.0385
  790MOL0     H 6638   1.361   2.713  -0.348 -0.7669 -0.1034  1.6949
  790MOL0     H 6639   1.520   2.690  -0.405  1.2202 -3.4682  2.1651
  790MOL0     H 6640   1.603   2.838  -0.228  0.6788  1.9653 -1.4190
  790MOL0     H 6641   1.437   2.856  -0.171 -0.1721 -0.0944  0.5012
  790MOL0     H 6642   1.390   2.946  -0.425  1.2691 -0.7678 -0.9485
  790MOL0     H 6643   1.549   2.967  -0.430 -0.5705 -3.3782 -1.4968
  790MOL0     H 6644   1.359   3.112  -0.224  1.2696 -1.0916  1.8101
  790MOL0     H 6645   1.537   3.093  -0.206  0.2241  0.2771  0.2963
  790MOL0     H 6646   1.507   3.365  -0.537  1.4824  0.5914  1.2243
  790MOL0     H 6647   1.401   2.427  -0.400  3.9786 -1.5563 -0.2653
  790MOL0     H 6648   1.151   2.289  -0.449  1.9777  0.2933 -1.7998
  790MOL0     H 6649   1.298   2.246  -0.470 -2.4465 -0.0230 -1.8334
  790MOL0     H 6650   1.212   2.130  -0.367 -3.6270 -0.0307 -0.0086
  791MOL0     O 6651   4.997   9.410   6.688 -0.3960  0.6601 -0.0838
  791MOL0     C 6652   5.105   9.403   6.625  0.8604 -0.4690  0.5071
  791MOL0     O 6653   5.143   9.309   6.538  0.3483  0.2201 -0.4548
  791MOL0     C 6654   5.055   9.229   6.468  0.6424 -0.4435 -0.1073
  791MOL0     C 6655   5.083   9.093   6.454 -0.1385  0.0638  0.4086
  791MOL0     C 6656   4.983   9.010   6.397 -1.5447 -0.3531  0.4153
  791MOL0     C 6657   4.870   9.074   6.333 -0.0089  0.2022  0.7808
  791MOL0     O 6658   4.789   8.996   6.253  0.8612 -0.0279 -0.4093
  791MOL0     C 6659   4.795   9.016   6.111 -0.6343 -0.0345 -0.2607
  791MOL0     C 6660   4.705   8.919   6.031  1.0320 -0.4986 -0.0190
  791MOL0     C 6661   4.718   8.954   5.885 -0.5172  0.5235  0.7337
  791MOL0     C 6662   4.656   9.079   5.835  1.2574 -1.3805 -0.1763
  791MOL0     C 6663   4.659   9.101   5.682 -0.6295  0.5152  1.3290
  791MOL0     C 6664   4.798   9.102   5.626  0.7401 -1.0116  1.3648
  791MOL0     C 6665   4.781   9.138   5.476 -0.4301  0.1206 -0.6107
  791MOL0     C 6666   4.915   9.111   5.398 -0.1609 -0.1080 -0.7514
  791MOL0     N 6667   4.946   8.968   5.371  0.2506  0.6166  0.6859
  791MOL0     C 6668   5.029   8.894   5.455  1.0188  0.6957  0.0195
  791MOL0     C 6669   5.070   8.789   5.383 -0.3935  0.4206  0.1619
  791MOL0     C 6670   5.171   8.688   5.422 -0.0461  0.4164  0.2219
  791MOL0     C 6671   5.322   8.716   5.422  0.2370 -0.7513 -0.0424
  791MOL0     C 6672   5.351   8.832   5.528  0.2412 -0.2111 -0.4201
  791MOL0     C 6673   5.491   8.871   5.540 -0.3185  0.4199  0.0291
  791MOL0     O 6674   5.535   8.978   5.627  0.3682  0.0386 -0.2741
  791MOL0     C 6675   5.621   8.937   5.724 -1.1807  0.3442 -0.6769
  791MOL0     C 6676   5.581   8.966   5.851 -0.2598  1.3247 -1.2253
  791MOL0     C 6677   5.662   8.926   5.956  0.4173 -0.1153 -0.5067
  791MOL0     C 6678   5.784   8.850   5.930  1.2216 -0.1323  0.1155
  791MOL0     C 6679   5.875   8.805   6.046  1.2238 -0.2450  0.9374
  791MOL0     O 6680   5.999   8.751   6.008 -0.1342  0.4454 -0.4737
  791MOL0     C 6681   6.084   8.702   6.107 -0.1680  0.1622 -0.0684
  791MOL0     C 6682   6.192   8.636   6.054  0.5435  0.0450 -0.5874
  791MOL0     C 6683   6.297   8.586   6.132 -0.0913  0.8948  0.3516
  791MOL0     C 6684   6.289   8.597   6.270  0.1309  0.8223 -0.6622
  791MOL0     O 6685   6.395   8.570   6.352  0.1233 -0.2888 -0.3375
  791MOL0     C 6686   6.456   8.681   6.413 -0.2593  0.2442  0.7223
  791MOL0     C 6687   6.598   8.639   6.446 -0.9207  0.1444 -0.9312
  791MOL0     C 6688   6.608   8.550   6.573 -0.3013 -0.9981 -0.0670
  791MOL0     C 6689   6.675   8.626   6.686 -0.6544 -0.1123 -0.7774
  791MOL0     C 6690   6.680   8.548   6.814 -0.6893 -0.8242 -0.8570
  791MOL0     C 6691   6.736   8.418   6.810 -0.5743 -0.5025  0.6137
  791MOL0     C 6692   6.879   8.418   6.763  0.2515 -0.1096  0.2849
  791MOL0     C 6693   6.951   8.298   6.795 -0.9807 -0.2030  0.6497
  791MOL0    Cl 6694   7.112   8.332   6.721  0.7142  0.2092  0.1431
  791MOL0     C 6695   6.176   8.637   6.333 -0.0359  0.0759  0.4436
  791MOL0     C 6696   6.069   8.687   6.250  0.1464  0.2251  0.1129
  791MOL0     O 6697   5.838   8.822   6.159 -0.1169 -0.0966  0.0689
  791MOL0     C 6698   5.813   8.809   5.800 -0.3163 -0.3106  0.1302
  791MOL0     C 6699   5.735   8.860   5.695  0.7136  0.3217 -0.3909
  791MOL0     N 6700   5.011   8.801   5.254 -0.1354  0.1084  0.7604
  791MOL0     N 6701   4.933   8.898   5.253 -0.2174  0.4856  0.3469
  791MOL0     C 6702   4.845   9.208   6.347 -0.0422  0.2936 -0.7842
  791MOL0     C 6703   4.934   9.282   6.417 -0.2093  0.7724 -0.5306
  791MOL0     C 6704   5.206   9.505   6.650 -0.2710 -0.5941 -0.4023
  791MOL0     C 6705   5.163   9.641   6.666  0.1900  0.7822  0.3847
  791MOL0     C 6706   5.261   9.747   6.680  0.2707 -0.6361 -0.8800
  791MOL0     C 6707   5.402   9.708   6.698 -0.3603 -0.1847  0.2203
  791MOL0     O 6708   5.505   9.798   6.709 -0.2458 -0.5882 -0.2494
  791MOL0     C 6709   5.482   9.941   6.672  0.2511  0.4494  0.0378
  791MOL0     C 6710   5.461   9.956   6.513 -0.3861  0.2950  0.3897
  791MOL0     C 6711   5.585   9.913   6.429 -0.1987 -0.0499  0.1214
  791MOL0     C 6712   5.712   9.996   6.452  0.1769  0.0293  0.0346
  791MOL0     C 6713   5.685  10.129   6.401 -1.2427 -0.0056 -0.4021
  791MOL0     C 6714   5.659  10.229   6.338 -0.5683  0.3476  0.4914
  791MOL0     C 6715   5.433   9.573   6.710 -0.5988  0.0241  0.1915
  791MOL0     C 6716   5.337   9.472   6.681 -0.6631 -0.0304 -0.0558
  791MOL0     C 6717   5.390   9.334   6.685  0.2271 -0.5279  0.4462
  791MOL0     H 6718   5.167   9.044   6.502  0.7104  1.2704  0.2123
  791MOL0     H 6719   4.988   8.901   6.400  0.7655 -0.3388 -0.4422
  791MOL0     H 6720   4.772   9.121   6.087  0.1847  0.5743  1.4339
  791MOL0     H 6721   4.896   8.984   6.083 -0.3702  2.0208 -1.9363
  791MOL0     H 6722   4.599   8.925   6.055  0.3842  0.5969 -2.8933
  791MOL0     H 6723   4.742   8.818   6.055  2.7403  0.3791  1.3129
  791MOL0     H 6724   4.660   8.889   5.819  0.7201  1.0250 -0.9118
  791MOL0     H 6725   4.825   8.955   5.862 -0.7175 -1.9934 -0.6019
  791MOL0     H 6726   4.548   9.087   5.851  0.9775 -3.2031 -0.8624
  791MOL0     H 6727   4.698   9.167   5.884 -0.1811  0.4174 -2.0114
  791MOL0     H 6728   4.608   9.021   5.628  1.0427  1.8307 -2.6139
  791MOL0     H 6729   4.611   9.197   5.662  1.2165  0.9880 -1.4896
  791MOL0     H 6730   4.857   9.186   5.665 -3.3756  1.7215  2.2734
  791MOL0     H 6731   4.849   9.013   5.662  0.5833 -0.1804  3.7977
  791MOL0     H 6732   4.751   9.243   5.471 -2.2460 -0.2700  0.8606
  791MOL0     H 6733   4.714   9.060   5.440  0.4124 -1.4373  1.0331
  791MOL0     H 6734   4.901   9.160   5.301  2.0606 -0.3559 -1.2406
  791MOL0     H 6735   5.002   9.164   5.438 -1.5134  1.1306  0.7290
  791MOL0     H 6736   5.063   8.907   5.557 -0.7000  0.9814  0.6043
  791MOL0     H 6737   5.150   8.668   5.527  2.1926 -1.7782  0.3528
  791MOL0     H 6738   5.158   8.596   5.365 -1.0979  0.3839  0.5021
  791MOL0     H 6739   5.378   8.625   5.447  1.5757  0.1380  0.3060
  791MOL0     H 6740   5.341   8.742   5.318  2.6117  2.7849  1.0934
  791MOL0     H 6741   5.326   8.788   5.625  2.8311 -0.2749  0.2899
  791MOL0     H 6742   5.302   8.928   5.508  0.3734  0.6208  2.6587
  791MOL0     H 6743   5.513   8.914   5.441  1.6387 -1.0580 -0.2335
  791MOL0     H 6744   5.548   8.778   5.553 -0.1101  0.1422 -2.4021
  791MOL0     H 6745   5.489   9.020   5.870 -2.3357 -1.6891 -1.9784
  791MOL0     H 6746   5.645   8.951   6.061 -0.4423 -0.7715 -0.4754
  791MOL0     H 6747   6.192   8.615   5.948  1.3354 -0.1249 -0.5622
  791MOL0     H 6748   6.381   8.535   6.085 -2.3381 -2.6907 -0.1304
  791MOL0     H 6749   6.475   8.762   6.343 -3.2955 -0.0360 -0.6078
  791MOL0     H 6750   6.406   8.712   6.505 -0.6971 -2.4130  1.4782
  791MOL0     H 6751   6.627   8.578   6.359 -0.5267  3.5330 -3.3529
  791MOL0     H 6752   6.660   8.729   6.451 -0.9717  0.1258  0.2856
  791MOL0     H 6753   6.510   8.515   6.606 -0.4880 -1.0885 -0.6952
  791MOL0     H 6754   6.685   8.473   6.560  0.4365 -0.1391 -0.9966
  791MOL0     H 6755   6.624   8.721   6.706 -1.5802 -0.6597 -0.4860
  791MOL0     H 6756   6.774   8.656   6.650  0.3814  0.3368  2.1737
  791MOL0     H 6757   6.575   8.537   6.845 -0.2981  0.7304  1.2045
  791MOL0     H 6758   6.727   8.609   6.892 -1.8763  2.7572 -2.7184
  791MOL0     H 6759   6.708   8.377   6.908 -3.3002 -1.3885 -0.4457
  791MOL0     H 6760   6.694   8.345   6.741  2.3806 -1.6928 -0.0968
  791MOL0     H 6761   6.933   8.499   6.811  3.0178 -1.7097  0.0605
  791MOL0     H 6762   6.881   8.441   6.656 -1.7255  2.1335  0.6547
  791MOL0     H 6763   6.951   8.290   6.904 -2.0769  2.2172  0.8891
  791MOL0     H 6764   6.900   8.213   6.747 -1.0674 -0.8108  1.7808
  791MOL0     H 6765   6.180   8.632   6.441 -0.3731  1.0011  0.5138
  791MOL0     H 6766   5.979   8.708   6.307 -1.1928 -0.5974 -1.5913
  791MOL0     H 6767   5.902   8.749   5.787 -0.8806 -1.1956  0.2659
  791MOL0     H 6768   5.764   8.843   5.592  3.5391 -1.5119  0.5786
  791MOL0     H 6769   4.764   9.248   6.287  1.0384  1.8120 -1.2926
  791MOL0     H 6770   4.918   9.389   6.425  3.0054  1.4786 -2.0790
  791MOL0     H 6771   5.062   9.663   6.633 -0.4272  0.0805  1.7212
  791MOL0     H 6772   5.225   9.848   6.663 -2.6423 -1.3696  0.3321
  791MOL0     H 6773   5.576   9.990   6.700  1.6470 -2.6949  1.3395
  791MOL0     H 6774   5.401   9.996   6.721  1.0242  0.6222  1.1496
  791MOL0     H 6775   5.428  10.060   6.503 -3.4904 -0.4846  1.2386
  791MOL0     H 6776   5.372   9.900   6.484  0.0684  0.5211 -1.5504
  791MOL0     H 6777   5.565   9.911   6.322  1.3851 -6.0720 -0.4102
  791MOL0     H 6778   5.600   9.809   6.458 -0.6055 -0.0464  0.3436
  791MOL0     H 6779   5.746  10.006   6.556  1.3392 -0.1179 -0.3139
  791MOL0     H 6780   5.802   9.951   6.408  0.8574 -0.4328  1.8040
  791MOL0     H 6781   5.642  10.310   6.271 -0.4525 -0.5713 -0.6828
  791MOL0     H 6782   5.534   9.541   6.736  1.2271  2.5250 -2.9912
  791MOL0     H 6783   5.395   9.307   6.579  2.2708  4.1478 -0.9030
  791MOL0     H 6784   5.496   9.335   6.713  0.5351 -2.0821 -0.5077
  791MOL0     H 6785   5.336   9.257   6.741  0.9905 -2.0823 -0.8595
  792MOL0     O 6786  11.153   6.396   3.220 -0.0012 -0.4947 -0.2441
  792MOL0     C 6787  11.210   6.399   3.108  0.7410  0.5773 -0.7270
  792MOL0     O 6788  11.176   6.319   3.002  0.5823 -0.6222  0.7125
  792MOL0     C 6789  11.049   6.257   3.001  0.3103 -0.3789 -0.6571
  792MOL0     C 6790  11.020   6.150   2.924  0.0394 -0.0384  0.8672
  792MOL0     C 6791  10.894   6.097   2.914 -0.5244  0.6418  0.6991
  792MOL0     C 6792  10.788   6.145   2.985 -0.0966  0.4631 -0.2654
  792MOL0     O 6793  10.660   6.097   2.950 -0.5855 -0.6916 -0.0813
  792MOL0     C 6794  10.559   6.126   3.038  0.1877 -0.2885  0.8462
  792MOL0     C 6795  10.445   6.020   2.992  0.4343 -0.6112 -1.3251
  792MOL0     C 6796  10.304   6.043   3.049  0.5547 -0.6530 -0.5403
  792MOL0     C 6797  10.293   5.973   3.187 -0.3755  0.5284 -0.6871
  792MOL0     C 6798  10.157   5.962   3.256  0.3783 -0.9424  0.2268
  792MOL0     C 6799  10.141   5.852   3.359 -0.1197 -0.4700 -0.4385
  792MOL0     C 6800  10.241   5.864   3.486  0.2302 -0.2163  0.4384
  792MOL0     C 6801  10.208   5.951   3.608  0.0961 -0.1766 -0.4559
  792MOL0     N 6802  10.296   6.062   3.638  0.3356  0.2498 -0.1598
  792MOL0     C 6803  10.392   6.053   3.733 -0.2135  0.3178  0.1202
  792MOL0     C 6804  10.457   6.169   3.733 -0.3061  0.1563 -0.0973
  792MOL0     C 6805  10.541   6.205   3.851 -0.6304  0.5529  0.2218
  792MOL0     C 6806  10.665   6.284   3.806 -0.7032 -0.1363 -0.1645
  792MOL0     C 6807  10.773   6.195   3.746  0.0682  0.1245  0.2184
  792MOL0     C 6808  10.905   6.263   3.718  0.2552  0.0948 -0.8553
  792MOL0     O 6809  10.998   6.274   3.826  0.5651 -0.2974  0.0834
  792MOL0     C 6810  11.124   6.306   3.786 -0.3527 -0.2365 -0.1651
  792MOL0     C 6811  11.230   6.301   3.880  1.0461 -0.5485  0.3053
  792MOL0     C 6812  11.359   6.338   3.854  0.2055  0.7745  0.2717
  792MOL0     C 6813  11.396   6.369   3.718 -0.2137 -0.1290  0.8222
  792MOL0     C 6814  11.533   6.416   3.691 -0.2127  0.8590  0.2071
  792MOL0     O 6815  11.629   6.409   3.791  0.1299 -0.2589 -0.8973
  792MOL0     C 6816  11.756   6.436   3.757 -0.5841 -0.7015 -1.3136
  792MOL0     C 6817  11.813   6.567   3.756  0.2559  0.2701 -1.0951
  792MOL0     C 6818  11.948   6.573   3.743 -0.9101 -0.4125  0.9651
  792MOL0     C 6819  12.038   6.468   3.717 -0.2920 -0.7774  0.3687
  792MOL0     O 6820  12.173   6.482   3.719  0.0898  0.6902  0.3113
  792MOL0     C 6821  12.249   6.547   3.611  0.5299 -0.1837  0.3080
  792MOL0     C 6822  12.352   6.639   3.680 -0.5651  0.2892  0.4109
  792MOL0     C 6823  12.289   6.772   3.737 -0.3313  0.7269 -0.1925
  792MOL0     C 6824  12.256   6.871   3.622  0.2604 -0.8797  0.9054
  792MOL0     C 6825  12.219   7.015   3.678  0.1267 -0.0378  0.0333
  792MOL0     C 6826  12.192   7.108   3.558 -0.2093  0.8735  0.0614
  792MOL0     C 6827  12.144   7.252   3.597  0.7276 -0.6300  0.0233
  792MOL0     C 6828  12.128   7.336   3.466  0.1814 -0.2874 -0.5843
  792MOL0    Cl 6829  12.253   7.321   3.340 -0.2582  0.2275  0.1653
  792MOL0     C 6830  11.985   6.351   3.711 -0.6204 -0.1400 -1.0531
  792MOL0     C 6831  11.846   6.333   3.719  0.0759  0.5669 -0.5210
  792MOL0     O 6832  11.553   6.459   3.579 -0.1266  0.2133  0.0457
  792MOL0     C 6833  11.296   6.366   3.621  0.3805  0.1790  1.3621
  792MOL0     C 6834  11.163   6.330   3.656  0.6557  0.1960  0.3879
  792MOL0     N 6835  10.397   6.248   3.644 -0.4212 -0.3538  0.5475
  792MOL0     N 6836  10.308   6.179   3.579  0.5249 -0.2669  0.0520
  792MOL0     C 6837  10.809   6.268   3.055  0.4250  0.8468  0.1037
  792MOL0     C 6838  10.935   6.323   3.066  0.0477 -0.7404  0.2312
  792MOL0     C 6839  11.319   6.498   3.088  0.0867  0.8003 -0.5424
  792MOL0     C 6840  11.439   6.450   3.123  0.2972 -0.6826 -0.1324
  792MOL0     C 6841  11.556   6.530   3.115  0.4851  0.1529  0.2145
  792MOL0     C 6842  11.552   6.660   3.074  0.6256  0.5749 -0.5492
  792MOL0     O 6843  11.664   6.732   3.050  0.0633 -0.2080  0.0284
  792MOL0     C 6844  11.717   6.810   3.157 -0.0175 -0.2415  0.7903
  792MOL0     C 6845  11.744   6.746   3.289  0.8544 -0.6669  0.0098
  792MOL0     C 6846  11.869   6.660   3.285  0.6083  0.7196  0.2103
  792MOL0     C 6847  11.849   6.554   3.394 -0.4411  0.0044 -0.8682
  792MOL0     C 6848  11.961   6.459   3.381 -0.6583 -0.3770  0.1652
  792MOL0     C 6849  12.050   6.380   3.385 -0.0347  0.8408 -0.0865
  792MOL0     C 6850  11.421   6.716   3.064 -0.5497 -0.1333  0.1353
  792MOL0     C 6851  11.301   6.638   3.074 -0.4439  0.0097  0.1244
  792MOL0     C 6852  11.152   6.683   3.073 -0.3351 -0.5856  0.2585
  792MOL0     H 6853  11.098   6.100   2.867 -0.5991 -0.5878  0.4563
  792MOL0     H 6854  10.874   6.016   2.844  1.8022  0.0479  0.6287
  792MOL0     H 6855  10.576   6.098   3.143 -0.4631  1.0149  1.3196
  792MOL0     H 6856  10.529   6.231   3.038  0.8323 -0.0807  1.8537
  792MOL0     H 6857  10.480   5.917   2.997 -2.5404 -2.0577 -5.1657
  792MOL0     H 6858  10.444   6.043   2.885 -0.2901  1.8933 -0.8575
  792MOL0     H 6859  10.226   6.025   2.975 -2.0218  1.0224  1.5817
  792MOL0     H 6860  10.304   6.150   3.073  3.0135 -0.8603  0.8400
  792MOL0     H 6861  10.322   5.870   3.164 -1.6813 -0.1229  0.4268
  792MOL0     H 6862  10.360   6.014   3.263 -0.9765 -2.2442  1.5346
  792MOL0     H 6863  10.127   6.059   3.297  0.7833 -1.0863  0.8843
  792MOL0     H 6864  10.081   5.933   3.183  0.6747 -1.8546  0.2784
  792MOL0     H 6865  10.036   5.855   3.390  0.1403 -0.9916  0.5183
  792MOL0     H 6866  10.161   5.754   3.316 -0.4025 -0.4925 -0.5182
  792MOL0     H 6867  10.330   5.894   3.430 -1.7282  3.2984 -1.1170
  792MOL0     H 6868  10.265   5.764   3.523  0.3845  0.4309  2.1728
  792MOL0     H 6869  10.110   5.997   3.593  0.2193  0.5682  0.8789
  792MOL0     H 6870  10.208   5.891   3.700  1.3474  2.5418  1.4574
  792MOL0     H 6871  10.402   5.975   3.808 -4.0679  1.4900  2.1345
  792MOL0     H 6872  10.489   6.269   3.923 -1.5238  1.8150 -1.4672
  792MOL0     H 6873  10.569   6.122   3.917 -2.8518  0.1786  0.7797
  792MOL0     H 6874  10.632   6.363   3.739  0.3331 -0.4598 -1.0697
  792MOL0     H 6875  10.703   6.338   3.894  1.0830 -2.0484  0.3148
  792MOL0     H 6876  10.738   6.162   3.648 -2.2202 -1.5581  1.5212
  792MOL0     H 6877  10.795   6.100   3.795  1.0056 -0.6629 -1.6443
  792MOL0     H 6878  10.879   6.355   3.665 -1.7718  0.2366  0.2877
  792MOL0     H 6879  10.954   6.185   3.659 -0.2179 -1.0794  0.2636
  792MOL0     H 6880  11.220   6.284   3.986  2.6795  0.0319  0.5790
  792MOL0     H 6881  11.428   6.333   3.937 -0.9294  0.2801  1.2238
  792MOL0     H 6882  11.765   6.662   3.778  2.5093  1.0111  1.2879
  792MOL0     H 6883  11.992   6.672   3.756 -0.9826  0.3116 -3.0842
  792MOL0     H 6884  12.306   6.481   3.545  1.8780 -2.7705  3.7508
  792MOL0     H 6885  12.186   6.612   3.549  0.5593  1.5431  1.9952
  792MOL0     H 6886  12.411   6.586   3.756 -2.0080  0.5010  1.7389
  792MOL0     H 6887  12.431   6.673   3.612  1.5640  2.4074  3.6662
  792MOL0     H 6888  12.205   6.753   3.806  1.3607  1.0922  2.0859
  792MOL0     H 6889  12.357   6.828   3.802  1.0752  1.9176 -2.5692
  792MOL0     H 6890  12.175   6.829   3.562  1.6538 -2.3423 -0.0515
  792MOL0     H 6891  12.337   6.883   3.550 -0.1007  5.2511  0.9879
  792MOL0     H 6892  12.301   7.060   3.734  1.2199  0.4300 -1.8633
  792MOL0     H 6893  12.133   7.000   3.744 -1.3989  0.9252 -1.6409
  792MOL0     H 6894  12.286   7.110   3.501  0.3708 -3.3324  0.5633
  792MOL0     H 6895  12.119   7.052   3.500  0.5424  0.6857 -0.7206
  792MOL0     H 6896  12.229   7.300   3.648 -0.2348  2.0475 -0.7350
  792MOL0     H 6897  12.061   7.261   3.667  3.3009  0.8803  3.1868
  792MOL0     H 6898  12.029   7.307   3.428 -1.3766  1.3651  1.8910
  792MOL0     H 6899  12.119   7.442   3.492 -0.1189 -0.2812 -0.7071
  792MOL0     H 6900  12.041   6.259   3.700 -2.4461 -1.5214  0.6166
  792MOL0     H 6901  11.813   6.230   3.708 -1.7356  1.1534 -0.8415
  792MOL0     H 6902  11.308   6.409   3.522 -0.0792  2.0823  2.0771
  792MOL0     H 6903  11.091   6.344   3.576  0.0475 -1.1381  0.6690
  792MOL0     H 6904  10.723   6.320   3.095 -0.4740  0.4718 -1.2474
  792MOL0     H 6905  10.945   6.424   3.103  1.1429 -0.6501 -0.2450
  792MOL0     H 6906  11.459   6.351   3.163  3.7631 -0.6869 -1.5117
  792MOL0     H 6907  11.654   6.491   3.138  0.1911  1.2098  3.7361
  792MOL0     H 6908  11.642   6.886   3.183  1.0017  1.0845  0.0134
  792MOL0     H 6909  11.813   6.848   3.121  0.2977  0.0055  1.8588
  792MOL0     H 6910  11.653   6.693   3.320  0.4703  0.4935  0.9402
  792MOL0     H 6911  11.754   6.826   3.362 -1.8340  0.0365 -0.2946
  792MOL0     H 6912  11.962   6.718   3.286  1.0496  0.2748 -3.2101
  792MOL0     H 6913  11.861   6.606   3.190 -0.3743 -0.5404  0.9851
  792MOL0     H 6914  11.867   6.601   3.491  0.9638 -5.1364  1.7241
  792MOL0     H 6915  11.755   6.499   3.391  1.1337 -2.8887 -1.4527
  792MOL0     H 6916  12.132   6.311   3.393  0.8943  2.0475  1.4587
  792MOL0     H 6917  11.421   6.824   3.052  2.3061  0.1285  1.5549
  792MOL0     H 6918  11.100   6.641   2.987 -0.7770  2.4895 -1.1297
  792MOL0     H 6919  11.092   6.658   3.160  1.3424  1.1386  2.0149
  792MOL0     H 6920  11.150   6.793   3.068 -1.0010 -0.4567  2.4524
  793MOL0     O 6921   6.455   2.024   0.420 -0.0910  0.3067  1.0986
  793MOL0     C 6922   6.407   2.131   0.461  0.1333  0.4568 -0.7942
  793MOL0     O 6923   6.298   2.202   0.406  0.3135  0.0274  0.9409
  793MOL0     C 6924   6.252   2.163   0.281  0.6526  0.4258  0.8491
  793MOL0     C 6925   6.138   2.078   0.269 -1.0855 -0.3687 -0.0683
  793MOL0     C 6926   6.093   2.038   0.145 -0.4144 -1.0034  0.2612
  793MOL0     C 6927   6.147   2.100   0.024 -1.0488 -0.3117 -0.3018
  793MOL0     O 6928   6.071   2.088  -0.085 -0.8600 -0.0477  0.4360
  793MOL0     C 6929   6.090   1.958  -0.160 -0.8512 -0.8752 -1.0134
  793MOL0     C 6930   5.988   1.955  -0.284 -0.2384  0.1571  0.1018
  793MOL0     C 6931   6.024   2.046  -0.412  0.5473 -0.4776  0.0903
  793MOL0     C 6932   6.060   2.185  -0.364  0.2451  0.8830 -0.0954
  793MOL0     C 6933   6.062   2.286  -0.480  0.5978 -0.1322  0.7084
  793MOL0     C 6934   6.146   2.406  -0.440 -1.0162 -0.8686  0.1811
  793MOL0     C 6935   6.111   2.514  -0.337 -0.6431 -0.3694  0.6172
  793MOL0     C 6936   6.024   2.613  -0.396  0.2648 -0.5343  0.6458
  793MOL0     N 6937   5.962   2.682  -0.281  0.5899 -0.5255 -0.7225
  793MOL0     C 6938   5.822   2.703  -0.275 -0.7245 -0.1702  0.4243
  793MOL0     C 6939   5.809   2.792  -0.175 -0.7138  0.1761  0.5801
  793MOL0     C 6940   5.690   2.868  -0.133  1.0488  0.9066  0.7017
  793MOL0     C 6941   5.644   2.955  -0.244  0.0739  0.7485  0.5684
  793MOL0     C 6942   5.646   3.112  -0.211 -0.0562  0.0656 -0.2825
  793MOL0     C 6943   5.634   3.210  -0.322  0.5389  0.3560  1.1692
  793MOL0     O 6944   5.645   3.354  -0.277 -0.4721 -0.1973 -0.0200
  793MOL0     C 6945   5.545   3.426  -0.221  0.9568  0.4857 -0.4359
  793MOL0     C 6946   5.413   3.383  -0.193 -0.1546  0.1774 -0.4180
  793MOL0     C 6947   5.323   3.464  -0.129 -0.1465 -0.4359  0.0718
  793MOL0     C 6948   5.368   3.596  -0.082 -0.8457 -0.4033  0.2717
  793MOL0     C 6949   5.276   3.687  -0.005 -0.2105 -0.8302 -0.5412
  793MOL0     O 6950   5.337   3.781   0.080 -0.0952  0.4075 -0.1345
  793MOL0     C 6951   5.257   3.861   0.159  0.4181 -0.4309  0.2218
  793MOL0     C 6952   5.138   3.917   0.115  0.0542 -0.3105 -0.9700
  793MOL0     C 6953   5.076   4.014   0.194 -0.3112 -0.8269 -0.2659
  793MOL0     C 6954   5.121   4.036   0.327 -1.1324  0.5648  0.3281
  793MOL0     O 6955   5.074   4.137   0.407  0.2318  1.0843 -0.5479
  793MOL0     C 6956   4.970   4.229   0.365  0.6507  0.9679  0.0473
  793MOL0     C 6957   4.885   4.292   0.475 -0.1434  0.7661  0.2550
  793MOL0     C 6958   4.800   4.411   0.421 -0.0517  0.7471 -0.3365
  793MOL0     C 6959   4.764   4.507   0.527 -0.1863  0.3821  0.1056
  793MOL0     C 6960   4.664   4.616   0.482  0.2415 -0.6434 -0.6492
  793MOL0     C 6961   4.640   4.714   0.604  0.5916  0.6054  0.0706
  793MOL0     C 6962   4.535   4.663   0.696 -0.4048  0.1865  0.5229
  793MOL0     C 6963   4.524   4.744   0.819  0.6125  0.1003 -0.2857
  793MOL0    Cl 6964   4.469   4.901   0.780  0.1584  0.0090  0.5473
  793MOL0     C 6965   5.244   3.972   0.367 -0.4779 -0.4283 -0.4718
  793MOL0     C 6966   5.309   3.890   0.283  0.7781 -0.0502  0.0121
  793MOL0     O 6967   5.157   3.663  -0.009  0.3562  0.0727 -0.5568
  793MOL0     C 6968   5.506   3.634  -0.100  0.4216 -0.4477  0.9348
  793MOL0     C 6969   5.587   3.551  -0.174  0.2486 -0.1335  0.3866
  793MOL0     N 6970   5.942   2.826  -0.131  0.0970  0.1717  0.1893
  793MOL0     N 6971   6.031   2.763  -0.195 -0.7276  0.3432 -0.4157
  793MOL0     C 6972   6.258   2.181   0.036 -1.1045 -0.3915  0.2144
  793MOL0     C 6973   6.307   2.217   0.156 -0.2693  0.5752 -0.7248
  793MOL0     C 6974   6.465   2.174   0.590  0.0391 -0.2432  0.6641
  793MOL0     C 6975   6.426   2.302   0.632 -0.5225  0.2284  0.6196
  793MOL0     C 6976   6.452   2.345   0.763 -1.0842 -0.0604  1.0685
  793MOL0     C 6977   6.513   2.264   0.856  0.3938  1.5642  0.1083
  793MOL0     O 6978   6.531   2.305   0.986  0.5766 -0.5953  0.8247
  793MOL0     C 6979   6.403   2.309   1.053 -0.0910  0.4631 -0.4238
  793MOL0     C 6980   6.411   2.401   1.178 -0.1983  0.1132 -0.2083
  793MOL0     C 6981   6.423   2.539   1.123 -0.1806  1.3437  0.4965
  793MOL0     C 6982   6.437   2.643   1.231 -0.1451 -0.6806  0.2866
  793MOL0     C 6983   6.573   2.658   1.279  0.5336 -0.3656  0.4110
  793MOL0     C 6984   6.688   2.675   1.313 -0.5737 -1.2560 -0.9266
  793MOL0     C 6985   6.557   2.140   0.812 -0.0299  0.6990  0.0131
  793MOL0     C 6986   6.545   2.100   0.682 -0.3892  0.3952 -0.5251
  793MOL0     C 6987   6.633   1.982   0.657 -0.5838 -1.2785  0.1219
  793MOL0     H 6988   6.095   2.030   0.356 -0.0294 -1.1541  0.0322
  793MOL0     H 6989   6.001   1.980   0.138 -1.0718 -0.2204  1.7834
  793MOL0     H 6990   6.197   1.955  -0.183  0.6319  0.8599  4.2514
  793MOL0     H 6991   6.070   1.870  -0.098  0.5391  0.0855  0.8783
  793MOL0     H 6992   5.891   1.994  -0.252 -0.8607  1.3042 -2.8152
  793MOL0     H 6993   5.995   1.848  -0.306  0.4144 -0.5045  3.1246
  793MOL0     H 6994   5.938   2.046  -0.479 -0.3938 -0.9552  1.2634
  793MOL0     H 6995   6.111   1.999  -0.458 -0.3925 -1.6188 -0.5586
  793MOL0     H 6996   5.982   2.224  -0.299  1.8425  0.8368  1.9599
  793MOL0     H 6997   6.159   2.183  -0.318  0.5662 -0.1068 -0.7867
  793MOL0     H 6998   6.102   2.233  -0.567 -1.8534 -1.5237  0.3243
  793MOL0     H 6999   5.960   2.307  -0.515  0.6716 -1.0049 -0.0675
  793MOL0     H 7000   6.241   2.374  -0.397 -0.2077  3.0762  1.7425
  793MOL0     H 7001   6.175   2.450  -0.536  2.2955 -2.8219  0.1559
  793MOL0     H 7002   6.203   2.554  -0.294 -0.5794 -1.2876  1.3744
  793MOL0     H 7003   6.047   2.461  -0.266 -0.7810 -1.9845 -0.6518
  793MOL0     H 7004   6.080   2.683  -0.459  1.3667 -0.8461  1.2511
  793MOL0     H 7005   5.947   2.567  -0.459  1.3261 -1.6299  0.1077
  793MOL0     H 7006   5.748   2.662  -0.343  0.8523 -0.1000 -1.4418
  793MOL0     H 7007   5.616   2.791  -0.108  0.4816  0.6712 -1.5016
  793MOL0     H 7008   5.713   2.921  -0.040  1.8361  0.8237  0.5635
  793MOL0     H 7009   5.711   2.936  -0.329 -0.1083 -4.1800  1.2464
  793MOL0     H 7010   5.548   2.921  -0.284  0.0021 -0.6760  1.8662
  793MOL0     H 7011   5.742   3.139  -0.168  1.0034 -4.7211  0.9856
  793MOL0     H 7012   5.568   3.146  -0.142  0.3952  1.7116 -0.5561
  793MOL0     H 7013   5.537   3.189  -0.369  2.3406 -1.7313 -2.0271
  793MOL0     H 7014   5.714   3.196  -0.395  1.8460  0.4579  2.5469
  793MOL0     H 7015   5.388   3.281  -0.222  0.5459 -1.0964  2.9776
  793MOL0     H 7016   5.222   3.427  -0.115 -0.3590  0.0035 -0.2422
  793MOL0     H 7017   5.103   3.898   0.014 -0.4751  1.1545 -1.1015
  793MOL0     H 7018   4.991   4.069   0.156 -1.3474 -0.7218  2.0375
  793MOL0     H 7019   5.031   4.312   0.326 -0.8580  1.5393 -1.2217
  793MOL0     H 7020   4.893   4.197   0.294 -1.9230  1.2624  2.5342
  793MOL0     H 7021   4.812   4.228   0.525  1.1796 -2.4307 -1.6018
  793MOL0     H 7022   4.951   4.330   0.554  0.0454  1.1974 -0.1034
  793MOL0     H 7023   4.867   4.474   0.361  2.1397 -0.8519  0.3020
  793MOL0     H 7024   4.713   4.383   0.361 -1.0663  0.2163  1.3220
  793MOL0     H 7025   4.856   4.560   0.555  0.0093  0.6045 -0.9321
  793MOL0     H 7026   4.722   4.454   0.613  0.0065  0.5530  0.3065
  793MOL0     H 7027   4.568   4.577   0.446 -0.4874  0.3600  0.1427
  793MOL0     H 7028   4.713   4.675   0.404 -1.8176  2.1819  0.0329
  793MOL0     H 7029   4.732   4.727   0.661 -0.1167  0.2617  1.3554
  793MOL0     H 7030   4.600   4.812   0.574  1.6601  2.1724  3.2394
  793MOL0     H 7031   4.560   4.564   0.736  2.4788  1.0760  1.1154
  793MOL0     H 7032   4.443   4.654   0.637 -0.2434  2.3007 -0.1248
  793MOL0     H 7033   4.458   4.700   0.895  1.9522  0.5684  1.1983
  793MOL0     H 7034   4.624   4.744   0.862  0.5930 -1.1449 -0.2282
  793MOL0     H 7035   5.292   3.987   0.463 -1.3389  1.0767 -0.2461
  793MOL0     H 7036   5.397   3.838   0.319  0.2144 -0.6339  0.5737
  793MOL0     H 7037   5.552   3.714  -0.042  0.8831 -0.7012  0.9254
  793MOL0     H 7038   5.693   3.569  -0.185  0.3705 -1.5144 -1.0695
  793MOL0     H 7039   6.296   2.237  -0.048 -1.4854 -0.7464 -0.2010
  793MOL0     H 7040   6.394   2.283   0.163 -1.1822  1.6581  1.5420
  793MOL0     H 7041   6.381   2.369   0.560  1.6430  1.7464  0.6111
  793MOL0     H 7042   6.432   2.450   0.785 -0.3534  0.1248  0.8866
  793MOL0     H 7043   6.363   2.211   1.078  2.9143 -0.6275  0.4982
  793MOL0     H 7044   6.331   2.365   0.992 -1.5680  1.1193  1.8039
  793MOL0     H 7045   6.496   2.401   1.247 -0.3915  2.7016  0.1260
  793MOL0     H 7046   6.324   2.392   1.243  1.5051  0.3447  2.2210
  793MOL0     H 7047   6.333   2.560   1.063  0.3430  0.6965 -0.5482
  793MOL0     H 7048   6.506   2.540   1.052 -1.2720  0.4101 -0.8505
  793MOL0     H 7049   6.397   2.732   1.182  1.3321 -0.7155 -1.0542
  793MOL0     H 7050   6.379   2.607   1.316 -2.1689  1.4380 -0.0956
  793MOL0     H 7051   6.790   2.677   1.346 -0.2579  1.5080 -1.8275
  793MOL0     H 7052   6.608   2.085   0.890  0.6779  0.9780 -0.2499
  793MOL0     H 7053   6.660   1.982   0.551 -1.3704 -1.1508 -0.0837
  793MOL0     H 7054   6.729   1.985   0.710 -1.1200 -3.1847  1.3081
  793MOL0     H 7055   6.581   1.889   0.683 -0.5693 -0.5253  3.3568
  794MOL0     O 7056   8.906   4.114   3.884 -0.1282  0.7732  0.1321
  794MOL0     C 7057   8.885   4.034   3.972 -0.6959  0.3432  0.4649
  794MOL0     O 7058   8.771   3.960   3.991 -0.3012 -0.4303 -0.5184
  794MOL0     C 7059   8.682   3.940   3.881  0.0593  0.6798  0.5996
  794MOL0     C 7060   8.633   4.034   3.789  0.2178  0.2705  0.8088
  794MOL0     C 7061   8.533   3.996   3.698  0.3555  0.3787 -0.2394
  794MOL0     C 7062   8.497   3.865   3.679  0.2929  0.2978 -0.3867
  794MOL0     O 7063   8.435   3.826   3.559  1.1098 -0.9590  0.1685
  794MOL0     C 7064   8.344   3.714   3.556 -0.4040  0.4493  0.7467
  794MOL0     C 7065   8.332   3.639   3.415  0.0110 -0.2589 -0.6497
  794MOL0     C 7066   8.326   3.728   3.292  0.9986 -0.7657 -0.6531
  794MOL0     C 7067   8.204   3.807   3.274  0.2099  0.0437  0.1308
  794MOL0     C 7068   8.073   3.732   3.269 -0.2827 -0.1282  0.5314
  794MOL0     C 7069   8.069   3.625   3.160 -0.2543 -0.2404  0.7775
  794MOL0     C 7070   7.933   3.564   3.131  0.3597 -0.3724  1.1502
  794MOL0     C 7071   7.832   3.658   3.053  0.4764  0.7537 -0.5024
  794MOL0     N 7072   7.843   3.654   2.906  0.0174  0.4637  0.1425
  794MOL0     C 7073   7.855   3.771   2.841  0.1541 -0.9812 -0.1136
  794MOL0     C 7074   7.833   3.733   2.712  0.3366 -0.5340  0.0640
  794MOL0     C 7075   7.849   3.826   2.589 -0.0478  0.3199 -1.1308
  794MOL0     C 7076   7.875   3.971   2.632 -0.6239  0.7293  0.5945
  794MOL0     C 7077   7.888   4.078   2.523 -0.3598  0.3734  0.5108
  794MOL0     C 7078   7.968   4.202   2.572  0.3493  0.0435  0.5048
  794MOL0     O 7079   7.968   4.304   2.470  0.5082  0.0544 -0.4311
  794MOL0     C 7080   7.962   4.433   2.517 -1.2078  0.6663  0.4568
  794MOL0     C 7081   8.063   4.488   2.601  0.9621  0.0874 -0.5891
  794MOL0     C 7082   8.049   4.623   2.645 -0.1009 -0.2465  1.1011
  794MOL0     C 7083   7.942   4.699   2.590  0.0583  0.7352 -0.8580
  794MOL0     C 7084   7.930   4.847   2.619 -0.1021  0.4048  0.1607
  794MOL0     O 7085   8.036   4.915   2.670 -0.5034  0.0452 -0.8016
  794MOL0     C 7086   8.027   5.049   2.687  0.3095  0.2998 -0.9222
  794MOL0     C 7087   7.947   5.104   2.790 -0.9317  0.6005 -0.4955
  794MOL0     C 7088   7.949   5.238   2.806  0.3007 -0.0630 -0.4431
  794MOL0     C 7089   8.018   5.330   2.721  0.8218  0.4185 -0.3672
  794MOL0     O 7090   8.034   5.465   2.737 -0.6744 -0.0220  0.0425
  794MOL0     C 7091   8.003   5.534   2.856  0.1142  1.0891  0.2009
  794MOL0     C 7092   8.055   5.676   2.854  0.0648  0.6924 -0.3851
  794MOL0     C 7093   7.977   5.761   2.743  0.8954 -0.1806 -0.1540
  794MOL0     C 7094   8.055   5.899   2.747  0.4304  0.5814  0.0526
  794MOL0     C 7095   7.996   5.993   2.640 -0.9136 -0.0584 -0.3173
  794MOL0     C 7096   7.871   6.074   2.695 -0.0655 -0.3333  0.2189
  794MOL0     C 7097   7.791   6.122   2.565  0.0299  0.2237 -0.1356
  794MOL0     C 7098   7.645   6.160   2.596 -0.1353 -0.5923  0.5689
  794MOL0    Cl 7099   7.558   6.011   2.625  0.0882  0.1520 -0.3603
  794MOL0     C 7100   8.093   5.269   2.624  0.1363 -0.2703 -0.0300
  794MOL0     C 7101   8.087   5.135   2.596 -0.3652  0.0979  0.2552
  794MOL0     O 7102   7.826   4.897   2.589 -0.1736 -1.4443 -0.1132
  794MOL0     C 7103   7.850   4.641   2.500 -0.1165 -0.6644 -0.8721
  794MOL0     C 7104   7.866   4.511   2.465 -0.2420  0.3297  0.6861
  794MOL0     N 7105   7.813   3.603   2.705  0.0011 -0.2537  0.8648
  794MOL0     N 7106   7.820   3.546   2.821 -0.9668  0.2437 -0.0854
  794MOL0     C 7107   8.541   3.772   3.773  0.6201  0.6051 -0.6653
  794MOL0     C 7108   8.626   3.810   3.874  0.5347 -0.0902 -0.2215
  794MOL0     C 7109   8.989   4.035   4.087  0.0656  0.5509  0.7239
  794MOL0     C 7110   8.998   3.917   4.177 -0.5756 -1.2615 -0.1765
  794MOL0     C 7111   9.100   3.902   4.276  0.2193  0.5410  1.0769
  794MOL0     C 7112   9.180   4.005   4.298 -0.0308 -0.0022 -0.5988
  794MOL0     O 7113   9.285   3.996   4.395  0.0944 -0.1399  0.5073
  794MOL0     C 7114   9.278   3.901   4.504  0.3914 -0.2313  0.5424
  794MOL0     C 7115   9.373   3.938   4.623 -0.4473  1.0402  1.1754
  794MOL0     C 7116   9.326   3.878   4.753 -0.4095 -0.4684 -0.2988
  794MOL0     C 7117   9.328   3.724   4.742 -0.0239 -0.2941  0.5083
  794MOL0     C 7118   9.248   3.656   4.851  0.8659  0.2667 -0.0573
  794MOL0     C 7119   9.172   3.592   4.922  0.2180 -0.6433 -0.2917
  794MOL0     C 7120   9.171   4.118   4.225 -0.8183 -0.1965 -0.9078
  794MOL0     C 7121   9.084   4.136   4.125  0.3122 -0.8162 -1.1414
  794MOL0     C 7122   9.101   4.272   4.053 -0.6993  0.9360  0.7507
  794MOL0     H 7123   8.670   4.136   3.791  0.8041  0.0774  3.0086
  794MOL0     H 7124   8.502   4.070   3.625 -0.9944 -1.1137 -1.2463
  794MOL0     H 7125   8.386   3.640   3.625 -1.6180 -0.3087  0.7103
  794MOL0     H 7126   8.240   3.744   3.574  0.1671  2.5949  0.7107
  794MOL0     H 7127   8.243   3.575   3.409  0.9802 -1.5502 -1.6044
  794MOL0     H 7128   8.422   3.579   3.397 -0.3346 -1.6658  1.7859
  794MOL0     H 7129   8.340   3.665   3.203  2.4199 -1.9047  0.3347
  794MOL0     H 7130   8.416   3.789   3.303 -0.8206  1.5440  4.2493
  794MOL0     H 7131   8.189   3.888   3.345 -3.0398  0.8921 -1.3551
  794MOL0     H 7132   8.217   3.862   3.180 -0.9970 -0.7194 -0.5119
  794MOL0     H 7133   8.037   3.678   3.357 -1.5252  0.2530  0.2720
  794MOL0     H 7134   8.002   3.811   3.244 -2.8380 -1.7367  2.2450
  794MOL0     H 7135   8.107   3.668   3.067 -3.9128  0.7879 -0.4367
  794MOL0     H 7136   8.133   3.539   3.181  1.3880  0.4250 -1.1915
  794MOL0     H 7137   7.885   3.524   3.220  0.4900 -0.7029  1.0748
  794MOL0     H 7138   7.954   3.491   3.052  0.5328 -0.4814  1.2966
  794MOL0     H 7139   7.726   3.639   3.072  0.5617 -0.3776 -1.0822
  794MOL0     H 7140   7.844   3.765   3.071 -2.8430  1.7099 -2.9284
  794MOL0     H 7141   7.890   3.864   2.885 -0.4707 -0.7689 -0.0512
  794MOL0     H 7142   7.943   3.798   2.542 -0.4901  0.5211 -2.1841
  794MOL0     H 7143   7.765   3.815   2.518 -1.1532 -1.0626  0.3213
  794MOL0     H 7144   7.796   3.997   2.703  1.5832 -3.2592  5.0910
  794MOL0     H 7145   7.976   3.979   2.674  0.4844 -1.9557 -1.3053
  794MOL0     H 7146   7.790   4.099   2.478  0.2629 -0.6499 -1.4105
  794MOL0     H 7147   7.947   4.048   2.436 -0.4088 -0.0351  0.6168
  794MOL0     H 7148   8.071   4.183   2.604  0.7553  2.2653  0.6968
  794MOL0     H 7149   7.919   4.236   2.664  0.6918  1.6032  0.1427
  794MOL0     H 7150   8.149   4.429   2.630 -2.0991 -3.4699  2.2714
  794MOL0     H 7151   8.120   4.675   2.708  1.0418  0.4863 -0.7276
  794MOL0     H 7152   7.889   5.033   2.848 -0.8100  0.8101 -0.1114
  794MOL0     H 7153   7.902   5.279   2.895 -1.1972 -0.3174 -1.0768
  794MOL0     H 7154   7.896   5.537   2.879 -0.7742  1.6381 -3.3705
  794MOL0     H 7155   8.059   5.494   2.941  3.3913  1.1816 -1.7477
  794MOL0     H 7156   8.042   5.704   2.959 -1.0590 -0.9540 -0.0383
  794MOL0     H 7157   8.160   5.671   2.823 -0.0759  2.0810 -1.1490
  794MOL0     H 7158   7.983   5.709   2.647 -2.2494 -2.3981  0.6816
  794MOL0     H 7159   7.871   5.764   2.770  1.7159 -0.0615  3.5394
  794MOL0     H 7160   8.156   5.871   2.717 -0.9048 -1.3788 -3.0639
  794MOL0     H 7161   8.059   5.936   2.850  1.8095  0.0138  0.2262
  794MOL0     H 7162   7.972   5.948   2.543 -1.2070 -1.8523  0.5518
  794MOL0     H 7163   8.071   6.070   2.620 -4.6921  3.4609 -2.4797
  794MOL0     H 7164   7.807   6.010   2.755 -0.1139 -0.1541  0.3581
  794MOL0     H 7165   7.900   6.160   2.756  0.5660 -1.9928  2.3883
  794MOL0     H 7166   7.794   6.042   2.491 -4.1004 -0.8281  0.5726
  794MOL0     H 7167   7.847   6.210   2.530  1.4809  0.9688  3.4821
  794MOL0     H 7168   7.639   6.222   2.686  0.1065  0.3489 -0.0384
  794MOL0     H 7169   7.593   6.213   2.516  0.4777 -0.9305 -0.0640
  794MOL0     H 7170   8.148   5.329   2.552  0.9266 -0.8937  0.0490
  794MOL0     H 7171   8.152   5.091   2.521  1.8395 -1.8256  3.0991
  794MOL0     H 7172   7.762   4.688   2.456 -0.3730  0.4046  0.6844
  794MOL0     H 7173   7.784   4.470   2.407 -0.0299  0.9387 -0.0548
  794MOL0     H 7174   8.512   3.667   3.776 -2.2169  1.3052 -0.2410
  794MOL0     H 7175   8.650   3.732   3.945  2.2918  1.9669  1.6237
  794MOL0     H 7176   8.932   3.833   4.158 -0.4467 -0.8474 -2.8713
  794MOL0     H 7177   9.108   3.804   4.323  0.9445 -0.9798 -1.9355
  794MOL0     H 7178   9.296   3.802   4.460  0.3901  0.7037 -1.7032
  794MOL0     H 7179   9.180   3.887   4.550  0.1307  3.8048  1.5466
  794MOL0     H 7180   9.377   4.046   4.639  0.2801  1.0484  0.9660
  794MOL0     H 7181   9.476   3.904   4.608 -0.5216 -0.0150  2.8370
  794MOL0     H 7182   9.226   3.916   4.777  0.0666 -0.0690  1.2151
  794MOL0     H 7183   9.393   3.908   4.834  0.5722  3.0219 -2.2298
  794MOL0     H 7184   9.278   3.687   4.652  1.3435 -1.7119  0.3002
  794MOL0     H 7185   9.432   3.693   4.739  0.0682 -0.6087  3.6654
  794MOL0     H 7186   9.096   3.540   4.976 -0.0704  1.3818  1.4263
  794MOL0     H 7187   9.248   4.191   4.251 -0.5656 -0.7634 -0.0011
  794MOL0     H 7188   9.140   4.343   4.127  2.0343  0.1466  0.1805
  794MOL0     H 7189   9.169   4.266   3.967 -1.5199  1.6472  0.0204
  794MOL0     H 7190   9.003   4.318   4.034 -0.1569  3.3153  3.0838
  795MOL0     O 7191   0.759   2.613  11.219  0.4521  0.0067 -0.1027
  795MOL0     C 7192   0.815   2.584  11.322 -0.1321 -0.2675 -0.2251
  795MOL0     O 7193   0.946   2.608  11.351  0.0482  0.6604  0.1281
  795MOL0     C 7194   1.019   2.686  11.263 -0.3008  0.1697 -0.7937
  795MOL0     C 7195   1.085   2.627  11.155 -0.3525 -0.7112 -0.7347
  795MOL0     C 7196   1.127   2.688  11.036  0.5577  0.3126  0.4506
  795MOL0     C 7197   1.132   2.823  11.046  0.6342 -0.2742 -1.3876
  795MOL0     O 7198   1.167   2.890  10.933 -0.6385  0.8529 -0.7932
  795MOL0     C 7199   1.138   3.027  10.917 -0.1771  0.4234  1.3057
  795MOL0     C 7200   1.142   3.072  10.769 -0.2603 -0.3381 -0.3326
  795MOL0     C 7201   1.016   3.035  10.693  0.0894  0.3647 -1.6017
  795MOL0     C 7202   1.054   3.030  10.541  0.5943  0.7073 -0.2221
  795MOL0     C 7203   0.940   3.029  10.445  0.4195  0.9943  0.5142
  795MOL0     C 7204   0.989   2.990  10.300 -0.7405  0.3432 -1.2919
  795MOL0     C 7205   1.105   3.077  10.242  0.5175  0.1117  0.6986
  795MOL0     C 7206   1.058   3.222  10.223 -0.4300  0.1112  0.3929
  795MOL0     N 7207   0.940   3.229  10.139  0.9463  0.3945 -1.2652
  795MOL0     C 7208   0.809   3.257  10.177 -0.7595 -1.0256  0.0773
  795MOL0     C 7209   0.744   3.275  10.057 -0.8592 -0.5034  1.1930
  795MOL0     C 7210   0.602   3.321  10.045  0.3489 -0.9786  0.0406
  795MOL0     C 7211   0.548   3.344   9.900 -0.0295  0.0928  0.5663
  795MOL0     C 7212   0.404   3.373   9.893  0.6672  0.0026 -0.0426
  795MOL0     C 7213   0.359   3.385   9.737 -0.0576  0.1121 -0.2196
  795MOL0     O 7214   0.226   3.433   9.725  0.0124  0.4605 -0.0709
  795MOL0     C 7215   0.200   3.565   9.723  0.1533 -0.0674 -0.0104
  795MOL0     C 7216   0.073   3.592   9.683 -0.6968 -0.8253 -0.5583
  795MOL0     C 7217   0.024   3.720   9.664 -0.3013  0.3511 -0.1814
  795MOL0     C 7218   0.119   3.826   9.693 -0.0483  0.7782 -0.8084
  795MOL0     C 7219   0.067   3.970   9.702  0.3865 -0.2793 -0.0561
  795MOL0     O 7220  -0.038   3.996   9.616  0.2189 -0.3897  0.1486
  795MOL0     C 7221  -0.071   4.126   9.594  0.8112 -0.1482  1.0810
  795MOL0     C 7222  -0.211   4.148   9.575 -0.6008  0.1031  0.5367
  795MOL0     C 7223  -0.252   4.281   9.546  0.1423  0.9452  0.0277
  795MOL0     C 7224  -0.169   4.394   9.530 -0.9668  1.2679 -0.8347
  795MOL0     O 7225  -0.213   4.524   9.509 -0.6933 -0.0813 -0.2096
  795MOL0     C 7226  -0.332   4.539   9.434  0.0664 -0.2104  0.1908
  795MOL0     C 7227  -0.358   4.678   9.377 -1.1786  0.8411  0.3637
  795MOL0     C 7228  -0.349   4.779   9.490  0.5395 -0.3292  0.5030
  795MOL0     C 7229  -0.350   4.918   9.421  0.6877  1.0157 -0.7961
  795MOL0     C 7230  -0.372   5.024   9.532  0.1300  0.1175 -0.4101
  795MOL0     C 7231  -0.518   5.043   9.570 -0.2918 -0.5186 -0.1873
  795MOL0     C 7232  -0.530   5.163   9.661 -0.7713 -0.1065 -0.5939
  795MOL0     C 7233  -0.666   5.167   9.733 -0.6255 -0.8434 -1.0296
  795MOL0    Cl 7234  -0.807   5.127   9.632 -0.0896 -0.3438 -0.3889
  795MOL0     C 7235  -0.032   4.363   9.530  0.1683 -0.0526  1.0276
  795MOL0     C 7236   0.018   4.228   9.557  0.6640 -0.9975  0.1208
  795MOL0     O 7237   0.114   4.041   9.788 -0.5842 -0.8510 -0.2047
  795MOL0     C 7238   0.258   3.803   9.722 -0.6484  0.1861  0.4042
  795MOL0     C 7239   0.297   3.668   9.735  0.3286 -0.2296  0.4225
  795MOL0     N 7240   0.831   3.243   9.956 -0.6125  0.2532  0.1906
  795MOL0     N 7241   0.947   3.211  10.002 -0.5638 -0.7115 -0.5099
  795MOL0     C 7242   1.081   2.900  11.160  0.0679  0.8463  0.0575
  795MOL0     C 7243   1.016   2.824  11.266 -0.0637 -0.2973 -0.0087
  795MOL0     C 7244   0.738   2.522  11.433  1.4144  0.7755 -0.8052
  795MOL0     C 7245   0.776   2.537  11.567 -0.5303  0.2571  1.8053
  795MOL0     C 7246   0.720   2.480  11.675 -0.6331  0.5654 -0.6648
  795MOL0     C 7247   0.609   2.405  11.657  0.0355 -0.3994  0.1330
  795MOL0     O 7248   0.547   2.334  11.747 -0.6753  0.1262 -0.4648
  795MOL0     C 7249   0.586   2.192  11.727 -0.1259 -1.0654 -0.5337
  795MOL0     C 7250   0.522   2.120  11.842 -0.2253 -0.6394 -0.0387
  795MOL0     C 7251   0.606   2.134  11.974  0.0558  0.4887 -1.2279
  795MOL0     C 7252   0.543   2.082  12.110 -0.1835 -0.0577 -0.0597
  795MOL0     C 7253   0.513   1.930  12.104  0.4017  0.2793  0.1840
  795MOL0     C 7254   0.471   1.822  12.132 -0.1786  0.0685 -0.5413
  795MOL0     C 7255   0.558   2.384  11.528  0.5023 -0.7314  1.5000
  795MOL0     C 7256   0.622   2.438  11.418  0.2425  0.4619  0.0764
  795MOL0     C 7257   0.558   2.409  11.284  0.3623  0.5548 -0.2893
  795MOL0     H 7258   1.082   2.519  11.163  4.0534 -0.8786  2.6264
  795MOL0     H 7259   1.155   2.639  10.944 -0.4309 -1.2585  0.9421
  795MOL0     H 7260   1.041   3.048  10.962  0.1817 -1.2572  3.0043
  795MOL0     H 7261   1.209   3.086  10.976 -1.7164  1.8271  1.8132
  795MOL0     H 7262   1.231   3.035  10.717 -1.7054 -0.9492 -2.5377
  795MOL0     H 7263   1.137   3.181  10.782  3.1966 -0.0376 -0.7541
  795MOL0     H 7264   0.949   3.115  10.726 -0.4559 -1.0341  0.9499
  795MOL0     H 7265   0.976   2.941  10.733 -0.2360  0.6232 -1.3106
  795MOL0     H 7266   1.116   3.115  10.514  1.2173  1.1468  2.3691
  795MOL0     H 7267   1.121   2.945  10.525 -0.3133 -0.5747  2.2660
  795MOL0     H 7268   0.865   2.959  10.482  2.9842 -2.4440 -0.2152
  795MOL0     H 7269   0.894   3.128  10.435  0.8764  0.9981 -2.9311
  795MOL0     H 7270   1.016   2.884  10.307 -4.0695 -0.6523 -1.6949
  795MOL0     H 7271   0.902   2.988  10.234 -2.2297  2.3639  0.4860
  795MOL0     H 7272   1.137   3.033  10.148  2.7654  0.8326  1.0539
  795MOL0     H 7273   1.189   3.071  10.312  2.7169  1.1342 -1.7135
  795MOL0     H 7274   1.032   3.276  10.315  3.4905  0.9509  1.2035
  795MOL0     H 7275   1.151   3.272  10.193  1.0838 -2.6482  0.1503
  795MOL0     H 7276   0.784   3.256  10.283  2.0848 -1.9379  0.8436
  795MOL0     H 7277   0.539   3.251  10.100 -1.0359  0.5604  0.4984
  795MOL0     H 7278   0.585   3.413  10.102  0.5987 -1.8101  1.4879
  795MOL0     H 7279   0.598   3.434   9.862 -0.3831  0.9325  2.0110
  795MOL0     H 7280   0.570   3.260   9.833 -0.4933 -0.0899  0.6373
  795MOL0     H 7281   0.387   3.466   9.948  2.2904  0.4111 -0.1761
  795MOL0     H 7282   0.349   3.294   9.945  0.5080 -1.1386 -1.8408
  795MOL0     H 7283   0.355   3.285   9.691  0.1486 -0.6002  1.2668
  795MOL0     H 7284   0.419   3.452   9.674 -1.8339 -0.3639 -2.5725
  795MOL0     H 7285   0.011   3.505   9.667  0.8811 -2.4029  1.2827
  795MOL0     H 7286  -0.075   3.737   9.624  0.2016  0.4859 -1.4299
  795MOL0     H 7287  -0.268   4.060   9.600 -1.0671 -0.3144 -1.7819
  795MOL0     H 7288  -0.358   4.292   9.522 -0.1811  0.9330  1.3957
  795MOL0     H 7289  -0.318   4.478   9.344  0.7455 -0.9235  0.7594
  795MOL0     H 7290  -0.415   4.509   9.499  0.4333  1.8004  1.6533
  795MOL0     H 7291  -0.281   4.700   9.302  2.3581 -2.1173  2.7958
  795MOL0     H 7292  -0.461   4.674   9.341 -1.4348 -1.5767  1.2067
  795MOL0     H 7293  -0.440   4.765   9.550  0.7432 -1.7270  0.5257
  795MOL0     H 7294  -0.254   4.780   9.543  0.3741  0.5956  0.8034
  795MOL0     H 7295  -0.431   4.918   9.348  1.4530 -0.5335 -1.6989
  795MOL0     H 7296  -0.253   4.913   9.372  1.7424 -2.1478  1.3250
  795MOL0     H 7297  -0.343   5.121   9.491  0.8937  0.3426  0.6073
  795MOL0     H 7298  -0.298   5.029   9.613 -1.1237  2.0981  0.6784
  795MOL0     H 7299  -0.569   5.071   9.477  1.3261  0.2496 -0.8827
  795MOL0     H 7300  -0.558   4.955   9.621  0.1944  1.1499  3.4050
  795MOL0     H 7301  -0.508   5.254   9.605  0.4470 -0.0371 -0.0241
  795MOL0     H 7302  -0.454   5.156   9.739  0.2905  1.1868 -1.4691
  795MOL0     H 7303  -0.654   5.101   9.819  2.0305  1.3553  0.4649
  795MOL0     H 7304  -0.689   5.268   9.768  3.4637  0.5579 -1.8884
  795MOL0     H 7305   0.034   4.442   9.497 -0.5432 -0.3825 -1.3937
  795MOL0     H 7306   0.123   4.199   9.551  0.3175 -1.9395 -2.4137
  795MOL0     H 7307   0.319   3.890   9.743  0.2062 -0.2005 -0.3754
  795MOL0     H 7308   0.395   3.643   9.775  0.3372 -3.2348 -1.2303
  795MOL0     H 7309   1.093   3.008  11.166  1.7538  0.5950  2.7404
  795MOL0     H 7310   0.974   2.864  11.358  0.3479 -0.2951  0.1821
  795MOL0     H 7311   0.860   2.601  11.594 -0.7145  0.3428  2.1762
  795MOL0     H 7312   0.780   2.472  11.765  0.4581 -3.6825 -1.5396
  795MOL0     H 7313   0.695   2.189  11.734 -0.1638 -0.2609  0.9216
  795MOL0     H 7314   0.548   2.144  11.637 -1.8884 -0.5150 -0.1203
  795MOL0     H 7315   0.534   2.018  11.805  0.2767 -0.2549 -0.9616
  795MOL0     H 7316   0.418   2.141  11.867  0.4952  0.9311  1.9941
  795MOL0     H 7317   0.628   2.238  11.999  1.2020  0.0647 -0.3699
  795MOL0     H 7318   0.706   2.089  11.971  1.0169  2.1902  1.5386
  795MOL0     H 7319   0.616   2.106  12.187  1.6086 -0.7620 -1.4539
  795MOL0     H 7320   0.454   2.143  12.125 -0.3013 -0.8573  3.2319
  795MOL0     H 7321   0.423   1.728  12.148  0.2172 -0.0291  0.1160
  795MOL0     H 7322   0.463   2.335  11.507 -0.8516  2.2108  0.1858
  795MOL0     H 7323   0.460   2.361  11.294  0.0293  1.0568 -1.0510
  795MOL0     H 7324   0.544   2.497  11.220  2.8346 -0.8925 -3.0466
  795MOL0     H 7325   0.622   2.340  11.228 -2.6173 -2.6054 -0.1151
  796MOL0     O 7326   3.071   0.273   3.348 -0.4671  0.2415 -0.1574
  796MOL0     C 7327   3.127   0.210   3.260 -1.0823  0.2235 -0.1577
  796MOL0     O 7328   3.163   0.080   3.264 -0.4702  0.3978 -0.6769
  796MOL0     C 7329   3.196   0.033   3.388  0.2453 -0.7326 -1.0178
  796MOL0     C 7330   3.118  -0.066   3.454  0.3695 -1.2779  0.4814
  796MOL0     C 7331   3.150  -0.113   3.584  0.0231  0.3045 -0.5559
  796MOL0     C 7332   3.265  -0.053   3.645 -0.2536  0.1698 -1.2807
  796MOL0     O 7333   3.297  -0.107   3.771 -0.2914  1.2556 -0.4714
  796MOL0     C 7334   3.352  -0.008   3.870 -0.7144 -0.4833 -0.3767
  796MOL0     C 7335   3.503  -0.049   3.888 -0.5247  0.3419  0.4751
  796MOL0     C 7336   3.577   0.050   3.978 -0.2289 -0.0535  0.2637
  796MOL0     C 7337   3.728   0.029   3.962 -0.2842  0.1022 -0.0465
  796MOL0     C 7338   3.811   0.141   4.033 -0.1490 -0.7072 -0.6463
  796MOL0     C 7339   3.795   0.136   4.188  0.2919  0.1455 -0.1359
  796MOL0     C 7340   3.918   0.177   4.261  0.3575  0.7633  0.0380
  796MOL0     C 7341   3.956   0.324   4.242  0.1560 -0.0518  0.6590
  796MOL0     N 7342   3.860   0.403   4.333 -0.4763  0.6607 -0.7443
  796MOL0     C 7343   3.834   0.534   4.323  0.8071 -0.5088  0.8285
  796MOL0     C 7344   3.773   0.575   4.442  0.8517 -0.4629 -0.1896
  796MOL0     C 7345   3.723   0.719   4.473 -0.1203  1.0272  0.0647
  796MOL0     C 7346   3.820   0.772   4.583 -0.0321  0.8186 -0.0959
  796MOL0     C 7347   3.831   0.929   4.613  0.7426  0.6851  0.1035
  796MOL0     C 7348   3.690   0.979   4.656  0.0813 -0.3955  0.1573
  796MOL0     O 7349   3.724   1.085   4.752 -0.4286  0.2511 -0.2765
  796MOL0     C 7350   3.691   1.212   4.729  0.0298 -0.8206 -0.2975
  796MOL0     C 7351   3.737   1.263   4.610 -0.0955 -0.0247 -0.0029
  796MOL0     C 7352   3.711   1.402   4.579 -1.0884 -0.3149  0.2284
  796MOL0     C 7353   3.630   1.484   4.664  0.7643 -0.6258 -0.1392
  796MOL0     C 7354   3.609   1.625   4.642  0.1913  0.4741 -0.1487
  796MOL0     O 7355   3.644   1.678   4.529  0.5401  0.5414  0.6754
  796MOL0     C 7356   3.615   1.800   4.474 -0.0429  0.5920  1.6002
  796MOL0     C 7357   3.666   1.818   4.341  0.3627 -0.1127  0.8650
  796MOL0     C 7358   3.663   1.947   4.282 -0.3593  0.8101  0.3838
  796MOL0     C 7359   3.586   2.055   4.340 -0.4783 -0.2459 -0.4783
  796MOL0     O 7360   3.572   2.182   4.291  0.0827  0.3747  0.3356
  796MOL0     C 7361   3.664   2.203   4.184  0.2431 -1.0927  1.3482
  796MOL0     C 7362   3.648   2.345   4.147  0.0718  0.7403  0.2343
  796MOL0     C 7363   3.743   2.389   4.036 -0.1694  0.0803 -0.0806
  796MOL0     C 7364   3.735   2.535   4.002  0.2352 -0.0530  0.0294
  796MOL0     C 7365   3.855   2.576   3.907  0.0875  0.3895  0.1941
  796MOL0     C 7366   4.002   2.548   3.967 -0.7399 -0.0075 -0.0675
  796MOL0     C 7367   4.034   2.643   4.085  0.7244  0.3625  0.0991
  796MOL0     C 7368   4.184   2.647   4.115 -0.0198 -0.0522 -0.7049
  796MOL0    Cl 7369   4.216   2.474   4.157  0.0545  0.1992  0.1272
  796MOL0     C 7370   3.519   2.027   4.460  1.1542  0.0446  0.1770
  796MOL0     C 7371   3.539   1.903   4.526  0.0200 -0.1930 -0.3705
  796MOL0     O 7372   3.550   1.689   4.735  0.4795 -0.1344  0.9236
  796MOL0     C 7373   3.593   1.428   4.782 -0.2805  0.4112 -0.3214
  796MOL0     C 7374   3.621   1.287   4.815  1.3396 -0.6079  0.6158
  796MOL0     N 7375   3.767   0.458   4.521 -0.5220 -0.5077  0.6591
  796MOL0     N 7376   3.833   0.366   4.464  0.5813  1.0520  0.6056
  796MOL0     C 7377   3.340   0.039   3.582 -0.3324 -0.4794 -0.2251
  796MOL0     C 7378   3.307   0.088   3.459  0.1620  0.1937  0.0456
  796MOL0     C 7379   3.123   0.267   3.114 -0.5663 -0.3774  0.0058
  796MOL0     C 7380   3.124   0.182   3.010 -0.6397  0.6143 -0.4906
  796MOL0     C 7381   3.105   0.237   2.885  1.2889  0.4576 -0.1080
  796MOL0     C 7382   3.073   0.368   2.856  0.7493 -0.0202  0.7463
  796MOL0     O 7383   3.065   0.397   2.722 -0.4280 -0.1748  0.0682
  796MOL0     C 7384   3.045   0.531   2.674  0.9103 -0.2145 -0.5406
  796MOL0     C 7385   3.070   0.530   2.521  0.1126 -0.3136  0.6604
  796MOL0     C 7386   2.951   0.483   2.443  0.3367  0.7578 -0.1685
  796MOL0     C 7387   2.991   0.452   2.296  0.1329 -0.4507  0.5097
  796MOL0     C 7388   3.046   0.571   2.233  0.7283  0.7629  1.0906
  796MOL0     C 7389   3.103   0.657   2.167  0.0353  0.0830 -0.5597
  796MOL0     C 7390   3.077   0.458   2.961  0.4358 -0.5092  0.0507
  796MOL0     C 7391   3.109   0.411   3.086  0.0822  0.1946  1.1493
  796MOL0     C 7392   3.130   0.511   3.194 -0.1625  1.0802 -0.6014
  796MOL0     H 7393   3.030  -0.084   3.393 -0.9748  1.4824  1.4449
  796MOL0     H 7394   3.104  -0.194   3.639 -0.3960  0.7501 -0.2340
  796MOL0     H 7395   3.335   0.099   3.852  1.0728 -0.1314 -0.2135
  796MOL0     H 7396   3.298  -0.016   3.965 -1.7009  0.4968 -0.8270
  796MOL0     H 7397   3.558  -0.059   3.794 -0.8082  0.2830  0.3135
  796MOL0     H 7398   3.510  -0.139   3.950 -2.0000  2.2091  3.6130
  796MOL0     H 7399   3.547   0.027   4.080 -0.9554 -1.9142 -0.3218
  796MOL0     H 7400   3.552   0.154   3.951 -1.7049 -0.2857  0.6388
  796MOL0     H 7401   3.751  -0.069   4.006 -1.7564 -0.0941  0.3616
  796MOL0     H 7402   3.756   0.041   3.858 -0.2928  0.6359  0.0126
  796MOL0     H 7403   3.917   0.117   4.019  0.7204  0.8816  2.2889
  796MOL0     H 7404   3.778   0.240   4.000  2.5101  0.0679 -1.2756
  796MOL0     H 7405   3.702   0.185   4.218 -1.0722 -1.8631 -0.8328
  796MOL0     H 7406   3.772   0.031   4.210 -0.8126  0.7334  1.6946
  796MOL0     H 7407   3.992   0.109   4.217  0.0028  0.0658  0.5014
  796MOL0     H 7408   3.916   0.157   4.369  0.7333  0.0275 -0.0866
  796MOL0     H 7409   4.063   0.335   4.264  0.1977  0.3888  0.2490
  796MOL0     H 7410   3.933   0.360   4.141  2.5673  0.4446  0.2128
  796MOL0     H 7411   3.854   0.600   4.239 -2.3401 -1.7398 -1.0429
  796MOL0     H 7412   3.728   0.769   4.376  0.3232 -0.3062 -0.6262
  796MOL0     H 7413   3.620   0.708   4.507 -0.7072 -2.8479 -2.3509
  796MOL0     H 7414   3.789   0.720   4.674  2.3590  0.2496  0.4620
  796MOL0     H 7415   3.917   0.735   4.551  0.9404  3.0078  0.1397
  796MOL0     H 7416   3.867   0.978   4.522  1.6486 -0.9248 -0.4413
  796MOL0     H 7417   3.906   0.938   4.691  2.6408  0.6806 -1.6364
  796MOL0     H 7418   3.628   0.901   4.701 -0.7174  1.5226  2.5941
  796MOL0     H 7419   3.631   1.017   4.573 -1.1654  1.2001  1.7085
  796MOL0     H 7420   3.793   1.196   4.546  1.4354  0.1749  1.0553
  796MOL0     H 7421   3.745   1.443   4.484  0.5509  0.3122  1.0581
  796MOL0     H 7422   3.718   1.744   4.281  1.4184  1.6645 -0.4976
  796MOL0     H 7423   3.706   1.947   4.182  2.0631  0.0892  1.3619
  796MOL0     H 7424   3.769   2.179   4.205  1.1546  0.0485 -1.3679
  796MOL0     H 7425   3.646   2.147   4.092 -0.2852  0.6271  0.3533
  796MOL0     H 7426   3.545   2.356   4.110  0.1009  2.6191  0.6302
  796MOL0     H 7427   3.673   2.397   4.240  2.7581 -2.2534  1.3638
  796MOL0     H 7428   3.844   2.370   4.073  0.2635  0.7337 -0.8763
  796MOL0     H 7429   3.736   2.339   3.939  0.0458  1.4290 -0.8224
  796MOL0     H 7430   3.744   2.604   4.086  2.4436  2.0125 -1.7454
  796MOL0     H 7431   3.644   2.558   3.946  1.1832  1.0911 -1.1297
  796MOL0     H 7432   3.845   2.678   3.869  1.3538 -0.2800 -2.1241
  796MOL0     H 7433   3.837   2.509   3.822 -1.9997 -2.3720  2.6095
  796MOL0     H 7434   4.007   2.443   3.994 -2.9197  0.2760  1.7415
  796MOL0     H 7435   4.085   2.553   3.896 -0.7865  1.2187 -0.0642
  796MOL0     H 7436   3.965   2.611   4.163 -0.8165 -1.8687 -2.0245
  796MOL0     H 7437   4.006   2.746   4.058  2.3809  1.3764  1.9586
  796MOL0     H 7438   4.225   2.682   4.020 -0.5122 -0.4735 -1.0781
  796MOL0     H 7439   4.208   2.719   4.195  1.1663  0.4696 -1.5159
  796MOL0     H 7440   3.477   2.106   4.522  4.4617  2.7602 -0.6613
  796MOL0     H 7441   3.496   1.883   4.624 -0.3632 -1.5434 -0.7955
  796MOL0     H 7442   3.542   1.485   4.859  0.8522 -1.1518  1.6930
  796MOL0     H 7443   3.612   1.247   4.916  0.7479  1.2206  1.3320
  796MOL0     H 7444   3.435   0.070   3.622  0.5533 -1.9126 -1.1338
  796MOL0     H 7445   3.374   0.163   3.417 -1.9827  1.5775 -1.0784
  796MOL0     H 7446   3.141   0.081   3.046  3.2274  1.9842  2.2286
  796MOL0     H 7447   3.099   0.167   2.803 -0.5888  1.8857 -1.2570
  796MOL0     H 7448   3.130   0.585   2.716  0.2978 -0.1567  0.6844
  796MOL0     H 7449   2.950   0.570   2.711  2.0645  1.3121  0.9540
  796MOL0     H 7450   3.152   0.460   2.502 -0.5548 -1.7219  2.5797
  796MOL0     H 7451   3.083   0.637   2.501  1.3534 -0.5697  0.0171
  796MOL0     H 7452   2.864   0.549   2.436 -0.5357 -0.5004 -1.9614
  796MOL0     H 7453   2.913   0.391   2.488  0.5794  1.2523  1.0875
  796MOL0     H 7454   3.066   0.374   2.280  3.8207  2.8841 -0.1056
  796MOL0     H 7455   2.902   0.432   2.236  0.2722  2.9049 -1.0725
  796MOL0     H 7456   3.152   0.735   2.112  0.6056  0.5548  0.6029
  796MOL0     H 7457   3.057   0.564   2.949 -1.2984 -0.9692 -1.9549
  796MOL0     H 7458   3.217   0.491   3.257 -1.3561 -1.2537  0.4021
  796MOL0     H 7459   3.139   0.615   3.162  1.5085  1.7869  1.9073
  796MOL0     H 7460   3.045   0.504   3.262  2.2708  0.2148  2.5647
  797MOL0     O 7461   5.325   1.253   1.279 -0.2577 -0.3117 -0.1879
  797MOL0     C 7462   5.313   1.369   1.317  1.0831  0.3309  0.1639
  797MOL0     O 7463   5.197   1.423   1.377 -0.1582  0.1406  0.2069
  797MOL0     C 7464   5.092   1.336   1.391  0.2729  0.1959 -0.4265
  797MOL0     C 7465   5.101   1.256   1.508 -1.2321 -0.2928 -0.0827
  797MOL0     C 7466   5.026   1.140   1.524 -0.1143  0.0913  0.5234
  797MOL0     C 7467   4.924   1.115   1.430  0.5968  0.3761 -0.6419
  797MOL0     O 7468   4.829   1.015   1.435  0.5273 -0.5422  0.7229
  797MOL0     C 7469   4.799   0.964   1.569 -0.4770 -0.0315 -0.5786
  797MOL0     C 7470   4.679   0.867   1.561 -0.8121  0.8696  0.0693
  797MOL0     C 7471   4.557   0.947   1.553  0.7242  0.4027 -0.3454
  797MOL0     C 7472   4.504   1.018   1.682 -0.4442  0.2298  0.1899
  797MOL0     C 7473   4.496   0.907   1.797 -0.6146 -0.0984  0.3111
  797MOL0     C 7474   4.398   0.960   1.906 -0.0185  0.1016  0.3888
  797MOL0     C 7475   4.372   0.872   2.021 -0.5479  0.0522 -0.2340
  797MOL0     C 7476   4.494   0.847   2.115 -0.4652 -0.7173 -0.5340
  797MOL0     N 7477   4.468   0.756   2.229  0.3023  0.6290 -0.0857
  797MOL0     C 7478   4.408   0.635   2.216  0.3455 -0.1959  0.5229
  797MOL0     C 7479   4.384   0.595   2.339  0.0420 -0.1040  0.4076
  797MOL0     C 7480   4.336   0.468   2.380 -0.2582  0.6453 -0.5682
  797MOL0     C 7481   4.220   0.460   2.485 -0.8070 -0.3413 -0.0190
  797MOL0     C 7482   4.265   0.369   2.600 -0.0850  0.2247  0.5509
  797MOL0     C 7483   4.165   0.372   2.712  1.0496  0.4463  0.1549
  797MOL0     O 7484   4.136   0.506   2.752  0.6005  0.6773  0.2654
  797MOL0     C 7485   4.171   0.540   2.883 -0.0113  0.3639  0.3242
  797MOL0     C 7486   4.078   0.606   2.960  0.5175 -0.6613  0.2769
  797MOL0     C 7487   4.096   0.641   3.090  0.7166  0.6449 -0.5540
  797MOL0     C 7488   4.213   0.602   3.157  0.4899  0.6822 -0.5601
  797MOL0     C 7489   4.240   0.641   3.292 -0.0601  0.1959  0.5795
  797MOL0     O 7490   4.169   0.753   3.335  0.2369 -0.8438  0.4811
  797MOL0     C 7491   4.190   0.798   3.462  0.2584  0.8250 -0.1130
  797MOL0     C 7492   4.204   0.715   3.582  0.2394 -0.4237  0.8043
  797MOL0     C 7493   4.237   0.785   3.698 -0.7045 -0.0961  0.4775
  797MOL0     C 7494   4.268   0.916   3.701 -0.5877  0.4096  0.0806
  797MOL0     O 7495   4.310   0.964   3.836  0.3889  0.3727  0.8012
  797MOL0     C 7496   4.349   1.097   3.849  0.2823  0.4432  0.3985
  797MOL0     C 7497   4.357   1.152   3.994 -0.3396  0.7176  0.8501
  797MOL0     C 7498   4.503   1.157   4.058  0.4467 -1.1810  0.3192
  797MOL0     C 7499   4.583   1.030   4.070  0.9608  0.7397 -0.1639
  797MOL0     C 7500   4.563   0.966   4.207  0.3222  0.7640 -0.6788
  797MOL0     C 7501   4.631   0.825   4.217  0.6940 -0.0821  0.5862
  797MOL0     C 7502   4.650   0.772   4.355 -0.5445  0.6920  0.6285
  797MOL0     C 7503   4.750   0.649   4.343  0.2608 -1.1417 -0.3740
  797MOL0    Cl 7504   4.787   0.584   4.507 -0.1518 -0.1114 -0.5094
  797MOL0     C 7505   4.252   1.002   3.586 -0.1675 -0.6153  0.4257
  797MOL0     C 7506   4.214   0.936   3.465  0.3041 -0.7639  0.4495
  797MOL0     O 7507   4.318   0.572   3.357  0.2543  0.2038 -0.2061
  797MOL0     C 7508   4.310   0.532   3.079 -0.1097  0.1829  0.1696
  797MOL0     C 7509   4.285   0.502   2.948  0.0412  0.2564  0.5337
  797MOL0     N 7510   4.438   0.688   2.428  0.9348 -0.3632 -0.1799
  797MOL0     N 7511   4.492   0.782   2.360 -0.0445 -0.3401  0.5726
  797MOL0     C 7512   4.905   1.198   1.317 -0.0974  0.6464  0.2466
  797MOL0     C 7513   5.000   1.300   1.293 -0.6917  0.1127 -0.0713
  797MOL0     C 7514   5.429   1.464   1.312 -0.7102  0.2621  0.4332
  797MOL0     C 7515   5.426   1.570   1.407 -0.5615  0.1256 -0.2209
  797MOL0     C 7516   5.526   1.665   1.405 -0.8576 -0.1649  0.4873
  797MOL0     C 7517   5.643   1.653   1.324  0.1722  0.0045 -0.3789
  797MOL0     O 7518   5.745   1.738   1.364 -0.3236 -0.5933  0.9897
  797MOL0     C 7519   5.880   1.697   1.330  1.4997  0.7329  0.5381
  797MOL0     C 7520   5.990   1.735   1.437  0.5576 -0.1250 -0.7342
  797MOL0     C 7521   6.135   1.729   1.385 -0.7187 -0.3885 -0.3219
  797MOL0     C 7522   6.240   1.798   1.482 -0.2996  0.0892 -0.5456
  797MOL0     C 7523   6.258   1.708   1.591 -1.0165  0.0812 -0.3104
  797MOL0     C 7524   6.290   1.625   1.673 -1.2390  0.0309 -0.0338
  797MOL0     C 7525   5.652   1.547   1.233  0.2765  0.1841 -0.2356
  797MOL0     C 7526   5.554   1.445   1.232  0.7756 -0.3541 -0.1564
  797MOL0     C 7527   5.575   1.323   1.138  0.7740  1.5502 -0.3601
  797MOL0     H 7528   5.183   1.289   1.571  1.5761 -1.3612 -2.9495
  797MOL0     H 7529   5.056   1.073   1.604 -2.4053 -1.4950  0.1321
  797MOL0     H 7530   4.891   0.934   1.619 -1.4609 -0.7578  0.8634
  797MOL0     H 7531   4.765   1.051   1.625 -1.8312 -1.9882  1.7904
  797MOL0     H 7532   4.684   0.797   1.644  0.6322 -2.5061 -2.6053
  797MOL0     H 7533   4.700   0.814   1.467 -1.1232  3.5061 -1.6021
  797MOL0     H 7534   4.480   0.880   1.514  0.1031  1.6609 -1.3480
  797MOL0     H 7535   4.563   1.012   1.465 -0.4484 -0.1782 -0.8758
  797MOL0     H 7536   4.579   1.089   1.720  0.2728 -0.3594 -0.1125
  797MOL0     H 7537   4.413   1.072   1.654  1.5625  3.0906 -1.3226
  797MOL0     H 7538   4.446   0.814   1.769  0.0237 -0.5717  0.7131
  797MOL0     H 7539   4.589   0.889   1.851 -1.3156  2.1872  2.4870
  797MOL0     H 7540   4.428   1.062   1.931 -0.4247  0.2694  0.1984
  797MOL0     H 7541   4.305   0.985   1.853  1.3516  3.6007 -0.6530
  797MOL0     H 7542   4.334   0.778   1.980  1.9839 -0.2326 -2.1517
  797MOL0     H 7543   4.286   0.906   2.080 -1.3225 -1.5582 -0.3697
  797MOL0     H 7544   4.577   0.802   2.060 -2.7602 -5.4859 -0.6475
  797MOL0     H 7545   4.527   0.944   2.154  0.0216 -0.6118 -1.2040
  797MOL0     H 7546   4.385   0.577   2.127  1.5222  0.0272  0.0536
  797MOL0     H 7547   4.303   0.415   2.290  1.7786  0.6996 -1.3919
  797MOL0     H 7548   4.424   0.411   2.410  0.2156  0.6157 -1.9166
  797MOL0     H 7549   4.176   0.555   2.516 -1.8562  0.0758 -2.5386
  797MOL0     H 7550   4.146   0.401   2.430 -0.1276 -2.2845  1.0733
  797MOL0     H 7551   4.361   0.404   2.638 -0.8077  2.5397  0.3917
  797MOL0     H 7552   4.272   0.263   2.574 -0.8463 -0.1276  1.7034
  797MOL0     H 7553   4.207   0.306   2.788  1.2243 -0.0427 -0.3631
  797MOL0     H 7554   4.072   0.328   2.672  1.1056 -0.1546  0.6732
  797MOL0     H 7555   3.986   0.638   2.910  0.6630 -1.4525 -0.5199
  797MOL0     H 7556   4.016   0.699   3.136  0.7613  0.8434 -0.7271
  797MOL0     H 7557   4.184   0.609   3.581  2.0825 -0.8180 -1.3313
  797MOL0     H 7558   4.244   0.734   3.794 -1.6716  1.4063  1.3774
  797MOL0     H 7559   4.455   1.110   3.821  0.9521  2.0862  3.2639
  797MOL0     H 7560   4.278   1.158   3.793 -1.5592 -0.7806  1.2884
  797MOL0     H 7561   4.311   1.251   3.995  0.2789  1.1360 -2.0342
  797MOL0     H 7562   4.288   1.089   4.051 -1.9713 -0.1430 -1.8614
  797MOL0     H 7563   4.553   1.224   3.987 -1.0478 -1.5584 -1.1402
  797MOL0     H 7564   4.496   1.208   4.155  0.1267 -2.7737  1.1592
  797MOL0     H 7565   4.689   1.040   4.048  0.7597 -1.3666 -2.6484
  797MOL0     H 7566   4.541   0.966   3.991  0.2392  1.6684 -0.5640
  797MOL0     H 7567   4.455   0.959   4.226  0.3131  0.0311 -0.9851
  797MOL0     H 7568   4.621   1.035   4.270  0.4176 -0.2238  0.3585
  797MOL0     H 7569   4.577   0.763   4.145 -1.6090  0.9970  1.2722
  797MOL0     H 7570   4.737   0.841   4.196  0.7373 -0.0593  0.8159
  797MOL0     H 7571   4.551   0.730   4.377 -1.5114  2.0641 -0.8399
  797MOL0     H 7572   4.675   0.842   4.435  1.4827  2.6693 -1.5549
  797MOL0     H 7573   4.706   0.561   4.296 -3.0274  0.9703 -1.6310
  797MOL0     H 7574   4.839   0.671   4.284  0.7691 -0.0122  0.7555
  797MOL0     H 7575   4.288   1.105   3.584 -1.4350 -0.1269 -2.3050
  797MOL0     H 7576   4.211   0.988   3.369  4.1872 -0.8241  0.1692
  797MOL0     H 7577   4.404   0.510   3.129 -0.6994 -1.7192  0.5534
  797MOL0     H 7578   4.362   0.453   2.889 -2.4547 -1.1776 -1.8244
  797MOL0     H 7579   4.824   1.160   1.255 -0.7509  1.7023  0.4393
  797MOL0     H 7580   4.997   1.344   1.194 -1.4825 -1.2210 -0.6773
  797MOL0     H 7581   5.336   1.576   1.467 -2.4074 -3.3321 -2.2879
  797MOL0     H 7582   5.527   1.741   1.482 -2.8624 -0.3457  0.7406
  797MOL0     H 7583   5.894   1.737   1.229 -1.6759  1.9132  0.4456
  797MOL0     H 7584   5.880   1.588   1.335  0.4253  0.6952  0.0328
  797MOL0     H 7585   5.970   1.669   1.522  0.3139  0.3404 -0.4242
  797MOL0     H 7586   5.976   1.830   1.490  0.5363 -0.8192  0.5411
  797MOL0     H 7587   6.136   1.773   1.285  2.8179 -4.8182 -2.5716
  797MOL0     H 7588   6.173   1.629   1.365 -1.5052 -0.4303 -1.7392
  797MOL0     H 7589   6.334   1.794   1.426 -1.1195 -4.1607 -2.0671
  797MOL0     H 7590   6.210   1.899   1.510 -0.2020  0.3892 -1.5109
  797MOL0     H 7591   6.295   1.544   1.743 -1.6223  1.3310  1.5593
  797MOL0     H 7592   5.746   1.537   1.180  0.2853  1.7183 -0.5598
  797MOL0     H 7593   5.675   1.333   1.095  0.1244 -1.9921 -3.1446
  797MOL0     H 7594   5.570   1.239   1.209 -4.8701  0.9989 -0.9506
  797MOL0     H 7595   5.508   1.318   1.052  3.1059 -0.9841 -2.1770
  798MOL0     O 7596   1.084  11.429   6.675 -0.9735 -0.0105  0.0982
  798MOL0     C 7597   1.043  11.508   6.583 -0.7479  0.1248 -0.3107
  798MOL0     O 7598   0.923  11.502   6.519 -0.0573  0.3790 -0.6859
  798MOL0     C 7599   0.817  11.444   6.583 -0.4458 -0.2368  0.1550
  798MOL0     C 7600   0.705  11.517   6.624 -1.0464 -0.4441  0.8279
  798MOL0     C 7601   0.594  11.454   6.689  0.1089 -0.0640 -0.0922
  798MOL0     C 7602   0.598  11.311   6.721 -0.4940 -0.4406 -0.0716
  798MOL0     O 7603   0.495  11.251   6.791 -1.0085  0.2057 -0.0444
  798MOL0     C 7604   0.432  11.139   6.740 -0.4615 -0.1931  0.8577
  798MOL0     C 7605   0.367  11.078   6.856 -0.2606  0.8859  0.0761
  798MOL0     C 7606   0.473  11.004   6.957  0.9383  0.0891 -0.0061
  798MOL0     C 7607   0.457  11.086   7.090  0.4489  0.4879 -1.5804
  798MOL0     C 7608   0.547  11.014   7.186 -0.2349  1.5290 -0.5356
  798MOL0     C 7609   0.555  11.084   7.317  0.2592 -0.6716  1.0976
  798MOL0     C 7610   0.666  11.029   7.408  0.6759  0.0310 -0.0993
  798MOL0     C 7611   0.661  10.882   7.434 -0.5681  0.4641 -1.0741
  798MOL0     N 7612   0.788  10.825   7.483 -0.1207  0.3957  0.1454
  798MOL0     C 7613   0.889  10.896   7.545 -0.6530 -0.2333 -0.2764
  798MOL0     C 7614   0.988  10.802   7.573 -0.3142  0.8117 -0.1071
  798MOL0     C 7615   1.121  10.829   7.638 -0.3352 -0.3449 -0.1559
  798MOL0     C 7616   1.175  10.716   7.729 -0.2289  0.1058 -0.0473
  798MOL0     C 7617   1.259  10.780   7.853 -0.6328  0.3601 -0.4635
  798MOL0     C 7618   1.378  10.866   7.814 -0.5731 -0.6262 -1.3010
  798MOL0     O 7619   1.476  10.773   7.763  0.4063  0.0674 -0.1207
  798MOL0     C 7620   1.613  10.795   7.788  0.6420 -0.5924  0.0845
  798MOL0     C 7621   1.685  10.680   7.752  0.2352 -0.6634 -0.4888
  798MOL0     C 7622   1.829  10.694   7.768  0.8392  0.8917  0.5732
  798MOL0     C 7623   1.884  10.801   7.827 -0.9067 -0.1059  0.0669
  798MOL0     C 7624   2.033  10.805   7.855 -0.6451  0.0162 -0.5731
  798MOL0     O 7625   2.112  10.718   7.789  0.0425 -0.6330 -0.4763
  798MOL0     C 7626   2.248  10.721   7.817  0.2356 -0.0112 -0.0107
  798MOL0     C 7627   2.298  10.684   7.940  0.1144 -0.8849 -0.2412
  798MOL0     C 7628   2.438  10.667   7.965 -0.1177  0.2245  0.2347
  798MOL0     C 7629   2.525  10.692   7.860 -1.2947 -0.9928 -0.2925
  798MOL0     O 7630   2.664  10.685   7.887 -0.0593  0.1638  0.2613
  798MOL0     C 7631   2.751  10.785   7.816  0.7027 -0.0961 -1.1581
  798MOL0     C 7632   2.881  10.748   7.888  0.0439  0.1389 -0.2270
  798MOL0     C 7633   2.994  10.848   7.842  0.4319 -0.7665  0.6773
  798MOL0     C 7634   3.129  10.810   7.889  0.2121 -0.5735 -0.3858
  798MOL0     C 7635   3.236  10.899   7.828  0.3923 -0.6974  0.6218
  798MOL0     C 7636   3.384  10.862   7.870  0.2993  1.3324  0.4259
  798MOL0     C 7637   3.484  10.964   7.813  0.6216 -0.3174  0.4046
  798MOL0     C 7638   3.532  10.952   7.668  1.5660  0.4460 -0.1357
  798MOL0    Cl 7639   3.579  10.792   7.615 -0.0752 -0.3494  0.0077
  798MOL0     C 7640   2.476  10.733   7.732  0.3649  0.9044 -0.4328
  798MOL0     C 7641   2.342  10.758   7.717  0.6656  0.6287 -0.3192
  798MOL0     O 7642   2.068  10.904   7.924 -0.2539 -0.0699  0.0709
  798MOL0     C 7643   1.806  10.915   7.862  0.2803 -0.4474  0.2353
  798MOL0     C 7644   1.677  10.921   7.820 -1.1544  0.5349 -0.3497
  798MOL0     N 7645   0.953  10.682   7.509 -0.2206 -1.0233 -1.2721
  798MOL0     N 7646   0.835  10.704   7.459 -0.1251  1.0896  0.3766
  798MOL0     C 7647   0.720  11.245   6.679 -0.5347 -0.4351 -1.0685
  798MOL0     C 7648   0.814  11.308   6.603 -0.2270  0.1871 -0.5991
  798MOL0     C 7649   1.152  11.592   6.526  0.3985  0.4401  0.1952
  798MOL0     C 7650   1.146  11.610   6.389  0.1681 -0.6108  0.7941
  798MOL0     C 7651   1.245  11.680   6.317  0.1638  0.4655  1.0620
  798MOL0     C 7652   1.350  11.744   6.385  0.6341  0.3890 -0.1240
  798MOL0     O 7653   1.454  11.802   6.322  0.1980  0.4908 -0.3175
  798MOL0     C 7654   1.523  11.737   6.215 -0.1325  0.6689  0.2065
  798MOL0     C 7655   1.643  11.660   6.258 -0.2619  0.7497 -0.1697
  798MOL0     C 7656   1.738  11.619   6.142  0.2045  0.1135 -0.3636
  798MOL0     C 7657   1.869  11.549   6.198  0.3372 -0.2451  0.1736
  798MOL0     C 7658   1.965  11.552   6.088 -0.3411 -1.0266 -0.3666
  798MOL0     C 7659   2.052  11.557   6.004 -0.6527  0.5915  0.0004
  798MOL0     C 7660   1.361  11.722   6.519 -0.7020 -0.3410 -0.1120
  798MOL0     C 7661   1.269  11.642   6.594  0.4340 -0.9496 -0.1445
  798MOL0     C 7662   1.295  11.631   6.744  0.3518  0.3205 -0.3468
  798MOL0     H 7663   0.703  11.622   6.598  1.9453 -0.6630 -0.7132
  798MOL0     H 7664   0.513  11.514   6.730 -0.0212  0.2308 -0.7626
  798MOL0     H 7665   0.358  11.177   6.668  0.1871  1.8281  1.2120
  798MOL0     H 7666   0.496  11.068   6.686  3.1768  1.1321  3.0744
  798MOL0     H 7667   0.292  11.004   6.827  0.6601 -0.9486  2.0573
  798MOL0     H 7668   0.307  11.152   6.910  0.7218  2.4641 -0.9294
  798MOL0     H 7669   0.573  11.016   6.913  0.0452  2.6558 -1.5312
  798MOL0     H 7670   0.453  10.898   6.975 -0.7834  0.3214 -0.3897
  798MOL0     H 7671   0.481  11.191   7.072  5.5563 -0.6021 -2.7626
  798MOL0     H 7672   0.359  11.069   7.136  0.8959  2.8853  0.4737
  798MOL0     H 7673   0.508  10.915   7.212  3.1811 -0.3326 -1.7853
  798MOL0     H 7674   0.642  10.986   7.140 -1.2734 -5.1309  0.3460
  798MOL0     H 7675   0.568  11.191   7.304  2.0829 -1.2458 -4.4101
  798MOL0     H 7676   0.457  11.078   7.366 -1.4741  2.8680 -1.4771
  798MOL0     H 7677   0.666  11.091   7.499 -1.3233 -1.2649  0.8639
  798MOL0     H 7678   0.756  11.046   7.349  0.9023 -3.7026 -1.0723
  798MOL0     H 7679   0.589  10.873   7.515 -1.0551  0.7727 -1.4684
  798MOL0     H 7680   0.629  10.822   7.348  1.2826 -2.7045  0.2942
  798MOL0     H 7681   0.885  11.001   7.571 -0.9834  0.1738 -1.8452
  798MOL0     H 7682   1.178  10.837   7.545  0.6079  1.6851  0.5326
  798MOL0     H 7683   1.121  10.931   7.678  0.7447 -0.6626  0.7046
  798MOL0     H 7684   1.097  10.656   7.777  1.7056 -0.9850  1.9241
  798MOL0     H 7685   1.232  10.643   7.671  0.0560  0.2875  0.0010
  798MOL0     H 7686   1.289  10.698   7.919  0.2497 -1.0889 -2.5437
  798MOL0     H 7687   1.186  10.837   7.912  1.4957  1.5358  1.1915
  798MOL0     H 7688   1.423  10.916   7.900  0.8663 -0.8139 -1.9138
  798MOL0     H 7689   1.345  10.937   7.738 -0.3503  2.7724  1.5555
  798MOL0     H 7690   1.629  10.594   7.717 -0.6734 -0.0172 -0.6398
  798MOL0     H 7691   1.899  10.615   7.744  0.3327  0.3787  0.7753
  798MOL0     H 7692   2.227  10.635   8.006 -0.6915 -1.1972 -1.3150
  798MOL0     H 7693   2.483  10.628   8.056 -1.7069 -1.4062  0.3754
  798MOL0     H 7694   2.757  10.778   7.707 -0.8365  2.6315 -1.5094
  798MOL0     H 7695   2.718  10.886   7.843 -0.7433 -0.8392  0.0138
  798MOL0     H 7696   2.873  10.735   7.996 -1.7250 -2.5092 -0.5796
  798MOL0     H 7697   2.914  10.650   7.851 -3.0194 -1.0399 -0.0979
  798MOL0     H 7698   2.997  10.830   7.734 -0.7870  1.9484  0.0910
  798MOL0     H 7699   2.982  10.955   7.864 -2.3166 -1.2587  2.1658
  798MOL0     H 7700   3.146  10.703   7.869  0.2486 -1.3632  3.0965
  798MOL0     H 7701   3.146  10.835   7.995  3.2512  0.9774 -1.1240
  798MOL0     H 7702   3.219  10.999   7.869  1.5970 -1.1099  2.2442
  798MOL0     H 7703   3.235  10.905   7.719 -4.1996  3.3646  0.5731
  798MOL0     H 7704   3.399  10.848   7.977 -0.7351 -2.4823  0.2177
  798MOL0     H 7705   3.410  10.765   7.826 -2.7452  0.1385  1.0396
  798MOL0     H 7706   3.564  10.970   7.887 -0.7857 -0.8986  2.0187
  798MOL0     H 7707   3.442  11.063   7.832  0.3523 -0.5987  1.3139
  798MOL0     H 7708   3.451  10.985   7.604 -1.8705 -1.0147  3.0743
  798MOL0     H 7709   3.624  11.008   7.651  3.0210 -1.2077  1.7057
  798MOL0     H 7710   2.549  10.758   7.656 -0.5292  1.0735 -1.2559
  798MOL0     H 7711   2.294  10.783   7.623 -1.2515 -1.1478  0.1146
  798MOL0     H 7712   1.847  11.009   7.896 -1.2774  1.1716 -2.0594
  798MOL0     H 7713   1.630  11.018   7.832  3.4295  2.9541  0.2652
  798MOL0     H 7714   0.728  11.138   6.699  1.7091  0.0145  0.9159
  798MOL0     H 7715   0.904  11.251   6.581 -0.6318 -1.5471  1.7424
  798MOL0     H 7716   1.067  11.561   6.334  0.7732 -1.1890  0.4275
  798MOL0     H 7717   1.243  11.686   6.209  1.3005 -1.2619  0.9105
  798MOL0     H 7718   1.553  11.803   6.133  0.4370 -3.1114 -2.9192
  798MOL0     H 7719   1.458  11.670   6.157  0.6509  0.2137 -0.1724
  798MOL0     H 7720   1.601  11.576   6.313 -0.0250  0.9964  0.3943
  798MOL0     H 7721   1.698  11.717   6.333 -1.5862  0.0025  1.4245
  798MOL0     H 7722   1.760  11.710   6.086 -1.4937  2.1968  2.1215
  798MOL0     H 7723   1.693  11.553   6.067 -0.8425 -0.0532  0.3864
  798MOL0     H 7724   1.915  11.595   6.286  0.2044  0.1323  0.0481
  798MOL0     H 7725   1.832  11.450   6.226 -1.4005 -0.1277 -1.4471
  798MOL0     H 7726   2.121  11.545   5.923 -0.4375  2.8967 -0.2072
  798MOL0     H 7727   1.435  11.777   6.576 -3.3441  2.6460  0.7143
  798MOL0     H 7728   1.354  11.543   6.772 -1.5026 -0.8998 -0.1003
  798MOL0     H 7729   1.353  11.716   6.781  1.4109 -1.3887  2.2388
  798MOL0     H 7730   1.200  11.645   6.796 -0.1224  0.5270 -1.2359
  799MOL0     O 7731   5.235   2.480   8.334  0.9540 -0.1493 -0.9745
  799MOL0     C 7732   5.349   2.502   8.372  0.8894 -0.2715 -0.2455
  799MOL0     O 7733   5.408   2.626   8.382 -0.1174  1.0856  0.0751
  799MOL0     C 7734   5.373   2.740   8.312 -0.3664 -0.4240 -0.5725
  799MOL0     C 7735   5.302   2.745   8.186 -0.6410  1.1687  0.0731
  799MOL0     C 7736   5.268   2.866   8.126 -1.0281 -0.2533 -0.1706
  799MOL0     C 7737   5.325   2.980   8.172  0.4595 -1.1795  1.6626
  799MOL0     O 7738   5.305   3.106   8.102 -0.3606  0.2209 -0.2991
  799MOL0     C 7739   5.333   3.115   7.963  0.3339 -0.4032 -0.7614
  799MOL0     C 7740   5.386   3.256   7.923  0.7423 -0.6737 -0.0867
  799MOL0     C 7741   5.503   3.294   8.025 -0.9260  0.1938 -0.0397
  799MOL0     C 7742   5.568   3.420   7.976 -0.2586  0.0282  0.6015
  799MOL0     C 7743   5.464   3.546   7.970 -0.6776  0.3752  0.3961
  799MOL0     C 7744   5.393   3.579   8.107 -0.0289  0.5815 -0.4056
  799MOL0     C 7745   5.361   3.724   8.112  0.1455 -0.0769 -0.5077
  799MOL0     C 7746   5.247   3.758   8.008 -0.2218  0.7308  0.5026
  799MOL0     N 7747   5.172   3.873   8.071 -0.5231  0.5342  0.2812
  799MOL0     C 7748   5.064   3.844   8.161  0.4977 -0.4399 -0.1581
  799MOL0     C 7749   5.044   3.970   8.217 -0.1877 -0.0350 -0.3251
  799MOL0     C 7750   4.937   4.008   8.319 -0.2406  0.4721 -0.1965
  799MOL0     C 7751   4.800   4.059   8.265 -0.2339  0.3014 -0.6280
  799MOL0     C 7752   4.798   4.089   8.116 -0.1154  0.1302  0.0379
  799MOL0     C 7753   4.663   4.127   8.066 -1.3371  0.0968  0.6723
  799MOL0     O 7754   4.600   4.211   8.157  0.1541  0.0676 -0.1630
  799MOL0     C 7755   4.571   4.343   8.122 -0.4576  0.2378  0.2322
  799MOL0     C 7756   4.450   4.395   8.170 -0.0115 -0.3642  0.4297
  799MOL0     C 7757   4.419   4.531   8.155  0.2971  0.2790 -0.7050
  799MOL0     C 7758   4.503   4.609   8.077  1.0785 -0.5090  0.3453
  799MOL0     C 7759   4.462   4.745   8.021  0.3617  0.2044  0.6074
  799MOL0     O 7760   4.556   4.811   7.952 -0.2904 -0.3116 -0.1249
  799MOL0     C 7761   4.533   4.946   7.938  0.4639 -0.7823 -0.8708
  799MOL0     C 7762   4.538   5.037   8.046  0.2047 -0.6374 -0.5532
  799MOL0     C 7763   4.528   5.179   8.028 -1.0247 -0.0472  0.6714
  799MOL0     C 7764   4.484   5.230   7.901  0.5385  0.0645 -0.4559
  799MOL0     O 7765   4.458   5.366   7.874  0.4570 -0.0853 -0.9275
  799MOL0     C 7766   4.477   5.472   7.971 -0.4952 -0.3777 -0.1860
  799MOL0     C 7767   4.412   5.599   7.907 -0.6111  0.4939 -0.0258
  799MOL0     C 7768   4.256   5.593   7.915  0.7468  1.3922 -0.6709
  799MOL0     C 7769   4.193   5.688   7.824  0.2466 -1.0261 -0.2719
  799MOL0     C 7770   4.041   5.679   7.838  0.4628 -0.1133 -0.8079
  799MOL0     C 7771   3.962   5.772   7.746 -0.7766 -0.4042 -0.1273
  799MOL0     C 7772   3.811   5.754   7.727  0.0347  0.4832 -0.2335
  799MOL0     C 7773   3.746   5.825   7.604 -1.8517  0.2618 -0.4281
  799MOL0    Cl 7774   3.781   6.006   7.624  0.5309 -0.2043  0.2913
  799MOL0     C 7775   4.462   5.138   7.792  0.1182  1.0512 -0.2998
  799MOL0     C 7776   4.494   4.999   7.816 -1.2004 -0.3268  0.3379
  799MOL0     O 7777   4.350   4.797   8.048  0.5143  0.6166 -1.0715
  799MOL0     C 7778   4.629   4.559   8.039 -0.5485 -0.6367  0.0437
  799MOL0     C 7779   4.657   4.420   8.046 -0.0898 -0.7194  0.2074
  799MOL0     N 7780   5.139   4.053   8.170  0.6562 -0.5795  0.7829
  799MOL0     N 7781   5.223   3.991   8.089  0.4317  0.2399  0.0139
  799MOL0     C 7782   5.393   2.978   8.292 -0.0825 -0.3906  0.6746
  799MOL0     C 7783   5.418   2.861   8.355 -0.3150 -0.8737  0.5937
  799MOL0     C 7784   5.439   2.373   8.404 -0.7274 -0.3213 -0.8455
  799MOL0     C 7785   5.565   2.400   8.472 -0.6003  0.2462  0.3757
  799MOL0     C 7786   5.659   2.294   8.482  1.2240 -0.2072  0.3622
  799MOL0     C 7787   5.616   2.158   8.450 -0.1220  0.7291 -0.6265
  799MOL0     O 7788   5.695   2.046   8.438 -0.4409 -0.4684  0.3787
  799MOL0     C 7789   5.841   2.056   8.429 -0.8448  0.5467  1.5229
  799MOL0     C 7790   5.908   2.033   8.567  0.0211  0.1011 -0.1145
  799MOL0     C 7791   5.896   1.891   8.610  0.5640 -0.4130  0.4657
  799MOL0     C 7792   5.948   1.860   8.757  0.6740 -0.1712 -0.6410
  799MOL0     C 7793   5.967   1.717   8.783  0.4240 -0.2301 -0.3771
  799MOL0     C 7794   5.990   1.599   8.801 -0.8368  0.5010 -0.1051
  799MOL0     C 7795   5.485   2.138   8.402  1.2024 -0.2791 -0.2803
  799MOL0     C 7796   5.400   2.239   8.369 -0.2020 -0.4931 -0.1012
  799MOL0     C 7797   5.266   2.201   8.296  0.4657 -1.0354 -0.6319
  799MOL0     H 7798   5.265   2.656   8.134  0.7090 -1.8510  3.8124
  799MOL0     H 7799   5.210   2.865   8.034 -0.2797 -1.1441 -0.6438
  799MOL0     H 7800   5.406   3.043   7.927 -0.3080  0.1499 -3.4003
  799MOL0     H 7801   5.246   3.085   7.905 -1.0604 -0.0007  1.0303
  799MOL0     H 7802   5.305   3.329   7.935  2.0224  1.0290 -1.2739
  799MOL0     H 7803   5.410   3.237   7.818  0.4537 -0.7726 -0.1357
  799MOL0     H 7804   5.581   3.218   8.033 -0.2378  0.4759 -2.9782
  799MOL0     H 7805   5.457   3.313   8.123 -1.8925  4.0540 -1.0687
  799MOL0     H 7806   5.649   3.431   8.049 -0.7651 -2.4339  1.6718
  799MOL0     H 7807   5.614   3.417   7.878 -1.4042 -3.1652  0.0358
  799MOL0     H 7808   5.525   3.633   7.944  0.1479  0.3244  1.9957
  799MOL0     H 7809   5.391   3.542   7.888 -1.1128 -0.7341  0.8120
  799MOL0     H 7810   5.304   3.516   8.112  0.5379 -0.1786  0.4315
  799MOL0     H 7811   5.458   3.542   8.186  0.2211  1.9188  0.0361
  799MOL0     H 7812   5.447   3.785   8.085  0.7389 -0.6761 -0.0153
  799MOL0     H 7813   5.334   3.741   8.217 -2.1864 -0.1401 -1.0563
  799MOL0     H 7814   5.294   3.780   7.912 -0.1656 -1.4633 -0.0169
  799MOL0     H 7815   5.170   3.681   7.993  0.1515  0.8004 -2.3182
  799MOL0     H 7816   5.012   3.759   8.202  0.5796  0.5020  2.0203
  799MOL0     H 7817   4.913   3.920   8.379 -1.9098 -1.7860 -3.7916
  799MOL0     H 7818   4.987   4.074   8.390 -1.7410 -0.1755  1.5483
  799MOL0     H 7819   4.727   3.987   8.304 -0.5184  1.4774  1.1000
  799MOL0     H 7820   4.781   4.150   8.322  0.1141  1.2595 -1.9924
  799MOL0     H 7821   4.846   4.013   8.053 -2.7260 -1.8876  0.3171
  799MOL0     H 7822   4.856   4.182   8.120  3.1543 -1.8066  2.5909
  799MOL0     H 7823   4.596   4.041   8.055 -1.1412  0.2531 -2.9011
  799MOL0     H 7824   4.686   4.168   7.967  0.2385  2.2667  1.8618
  799MOL0     H 7825   4.383   4.327   8.223  0.8983 -0.9326  0.8858
  799MOL0     H 7826   4.331   4.569   8.204  0.1342 -3.0382  1.9523
  799MOL0     H 7827   4.575   4.987   8.135 -2.1606 -4.5407 -1.5560
  799MOL0     H 7828   4.540   5.240   8.118 -1.5283  0.6022  0.3086
  799MOL0     H 7829   4.418   5.439   8.057 -0.0895 -0.7963 -0.0694
  799MOL0     H 7830   4.583   5.474   7.996 -0.6577 -0.4439  0.5377
  799MOL0     H 7831   4.454   5.683   7.963  1.0546  0.6896 -1.5025
  799MOL0     H 7832   4.450   5.606   7.805  2.2739 -1.7682  0.7621
  799MOL0     H 7833   4.228   5.492   7.884 -1.9415  2.1512 -0.9248
  799MOL0     H 7834   4.219   5.601   8.018 -1.4536 -0.1354 -1.2654
  799MOL0     H 7835   4.216   5.681   7.717 -0.2036  1.1751 -0.5728
  799MOL0     H 7836   4.222   5.789   7.855 -0.1180 -0.2091 -2.3455
  799MOL0     H 7837   4.009   5.703   7.940 -0.3708 -2.8967 -0.3172
  799MOL0     H 7838   4.003   5.579   7.814 -1.3773 -0.4953  2.9672
  799MOL0     H 7839   3.974   5.875   7.779 -1.2732  0.9657 -3.7791
  799MOL0     H 7840   4.006   5.764   7.647 -2.0928  1.3488 -0.9077
  799MOL0     H 7841   3.763   5.790   7.818 -2.7866 -1.4236 -0.8252
  799MOL0     H 7842   3.778   5.649   7.732 -2.9207  1.3599  0.9108
  799MOL0     H 7843   3.785   5.789   7.508 -0.0854  0.2884  0.2360
  799MOL0     H 7844   3.638   5.810   7.596 -1.4548 -4.0589  0.0656
  799MOL0     H 7845   4.421   5.160   7.695  1.9944 -1.0505 -1.6629
  799MOL0     H 7846   4.496   4.920   7.741  1.9967 -1.9409  1.9031
  799MOL0     H 7847   4.698   4.617   7.979 -1.8053  2.1066  1.0594
  799MOL0     H 7848   4.753   4.388   8.007 -0.4709  1.1001 -2.4730
  799MOL0     H 7849   5.415   3.070   8.345 -0.0567 -0.1511  0.2499
  799MOL0     H 7850   5.462   2.861   8.454  2.2364 -2.1334 -0.4587
  799MOL0     H 7851   5.606   2.498   8.495  1.7173 -0.1995 -1.4351
  799MOL0     H 7852   5.762   2.317   8.507  1.5720 -2.2009  0.9768
  799MOL0     H 7853   5.884   2.150   8.392 -3.0734  0.7074 -0.8965
  799MOL0     H 7854   5.881   1.972   8.372  1.8920  1.3716  2.0796
  799MOL0     H 7855   5.867   2.110   8.633 -0.8960 -0.2416 -0.2772
  799MOL0     H 7856   6.015   2.050   8.553 -0.0881  0.1246 -0.9934
  799MOL0     H 7857   5.959   1.828   8.547  3.2756  0.4486  2.1498
  799MOL0     H 7858   5.789   1.868   8.615  0.3812  0.6186  3.2008
  799MOL0     H 7859   6.048   1.905   8.764  1.8638 -2.7094 -0.5245
  799MOL0     H 7860   5.880   1.891   8.837  0.7066 -1.4417 -0.1027
  799MOL0     H 7861   6.024   1.497   8.796 -0.5278  0.6305 -0.5908
  799MOL0     H 7862   5.446   2.038   8.391 -1.2304  0.5151  0.5965
  799MOL0     H 7863   5.257   2.092   8.297  1.5630 -1.1986  2.6829
  799MOL0     H 7864   5.181   2.248   8.347  1.9482  2.0998 -0.7989
  799MOL0     H 7865   5.261   2.236   8.192 -1.9433  0.7598 -0.0039
  800MOL0     O 7866   6.877   4.269   1.267  0.8479  0.3851  0.0329
  800MOL0     C 7867   6.836   4.174   1.334 -0.3153  0.3457 -0.5024
  800MOL0     O 7868   6.707   4.134   1.339 -0.2580  0.1242  0.2720
  800MOL0     C 7869   6.621   4.186   1.247 -0.3846 -0.7244  0.4049
  800MOL0     C 7870   6.628   4.143   1.117 -0.1459  0.5963  0.0205
  800MOL0     C 7871   6.536   4.192   1.017 -0.3045  0.7495 -0.0617
  800MOL0     C 7872   6.444   4.280   1.042 -1.0345 -1.0450  0.3099
  800MOL0     O 7873   6.365   4.317   0.938  0.1622 -0.9897 -0.6654
  800MOL0     C 7874   6.386   4.440   0.874  0.5877  0.2701  0.4143
  800MOL0     C 7875   6.303   4.543   0.945  0.9996 -0.8173  0.4690
  800MOL0     C 7876   6.302   4.673   0.861  0.9146 -0.6675 -1.1058
  800MOL0     C 7877   6.235   4.777   0.949 -0.1559 -0.7916  0.6114
  800MOL0     C 7878   6.076   4.745   0.976  0.0501 -0.2344  1.4150
  800MOL0     C 7879   6.025   4.856   1.068  0.4030 -0.3315 -0.8173
  800MOL0     C 7880   6.003   4.980   0.980 -0.0949 -0.4049 -0.8405
  800MOL0     C 7881   5.953   5.096   1.079  0.3092 -0.3149  0.0319
  800MOL0     N 7882   5.808   5.086   1.078  0.0301 -0.5128  0.1731
  800MOL0     C 7883   5.721   5.007   1.162 -0.5557  0.4820 -0.3546
  800MOL0     C 7884   5.606   5.054   1.132  0.4544  0.4400 -0.3507
  800MOL0     C 7885   5.488   5.005   1.200  0.2770 -0.1115 -0.2259
  800MOL0     C 7886   5.462   5.083   1.335  1.5210  0.5781  0.2037
  800MOL0     C 7887   5.415   5.232   1.309  0.0423 -1.1077 -1.0371
  800MOL0     C 7888   5.355   5.288   1.439 -0.5008 -0.2423 -1.2761
  800MOL0     O 7889   5.219   5.231   1.449  0.6355 -0.0536 -0.6240
  800MOL0     C 7890   5.123   5.294   1.518  0.4374  0.2063 -0.5769
  800MOL0     C 7891   4.994   5.268   1.469  0.5572  0.0706 -0.6348
  800MOL0     C 7892   4.885   5.319   1.546  1.0131  0.5037  0.9048
  800MOL0     C 7893   4.904   5.388   1.664 -0.1367  0.3335  0.7838
  800MOL0     C 7894   4.780   5.414   1.741 -0.0683 -0.9166  0.1044
  800MOL0     O 7895   4.813   5.498   1.851 -0.0113  0.1385 -0.2303
  800MOL0     C 7896   4.708   5.544   1.927 -0.3009 -0.2960  0.2243
  800MOL0     C 7897   4.689   5.483   2.054 -0.5491  0.7718  0.1960
  800MOL0     C 7898   4.587   5.512   2.138  0.1191 -0.6248 -0.0326
  800MOL0     C 7899   4.503   5.612   2.103  0.7951 -0.5261 -0.4065
  800MOL0     O 7900   4.420   5.652   2.194  0.7842  0.2181 -0.3754
  800MOL0     C 7901   4.282   5.631   2.172 -0.1713  0.0272  0.2646
  800MOL0     C 7902   4.193   5.710   2.266 -1.0547  0.1174 -1.0253
  800MOL0     C 7903   4.067   5.639   2.283  0.5973  0.0316  0.5028
  800MOL0     C 7904   3.970   5.730   2.367 -0.2786 -0.5804  0.6390
  800MOL0     C 7905   4.019   5.772   2.500 -1.6298  0.4884  0.4702
  800MOL0     C 7906   4.030   5.658   2.609  0.7930 -0.1196  0.3903
  800MOL0     C 7907   4.061   5.705   2.749 -0.3138  0.0054 -0.4243
  800MOL0     C 7908   3.936   5.723   2.833 -0.5774 -0.5158  0.2314
  800MOL0    Cl 7909   3.980   5.762   3.000 -0.2650  0.1930 -0.1542
  800MOL0     C 7910   4.528   5.682   1.986  0.2582 -0.4907  0.1280
  800MOL0     C 7911   4.618   5.647   1.887 -0.3004  0.5394 -0.0776
  800MOL0     O 7912   4.663   5.374   1.714 -1.0012  0.2937  0.2714
  800MOL0     C 7913   5.036   5.414   1.705  0.6330  0.0775 -0.9763
  800MOL0     C 7914   5.139   5.383   1.624  0.0413  0.1818 -1.0163
  800MOL0     N 7915   5.608   5.160   1.041  0.4741  0.1410  1.4955
  800MOL0     N 7916   5.733   5.181   1.013  0.3755 -0.0583 -0.1419
  800MOL0     C 7917   6.424   4.313   1.183 -0.4951  0.2388 -0.6853
  800MOL0     C 7918   6.517   4.266   1.287 -0.0766 -0.4566  0.2284
  800MOL0     C 7919   6.928   4.102   1.430 -0.3666  0.4025 -0.9805
  800MOL0     C 7920   6.859   4.037   1.541 -0.3387  0.5485  0.1929
  800MOL0     C 7921   6.939   3.973   1.640  0.0357 -0.3736 -0.5477
  800MOL0     C 7922   7.078   3.992   1.632  0.2699 -0.7541 -0.1711
  800MOL0     O 7923   7.149   3.933   1.729 -0.4500  0.7290  0.8489
  800MOL0     C 7924   7.176   4.021   1.835  0.0849  0.7245 -0.6088
  800MOL0     C 7925   7.257   3.942   1.942 -0.2979  0.3628  1.0673
  800MOL0     C 7926   7.366   3.841   1.893  0.0386  0.5886  0.5797
  800MOL0     C 7927   7.430   3.778   2.014  0.6143 -1.2498  0.4503
  800MOL0     C 7928   7.532   3.692   1.971 -1.2829 -0.3847 -0.3218
  800MOL0     C 7929   7.627   3.630   1.940 -0.7525  0.7616  0.0108
  800MOL0     C 7930   7.139   4.044   1.522 -0.4559 -0.0557  0.1928
  800MOL0     C 7931   7.065   4.105   1.418 -0.6875  0.3485 -1.3583
  800MOL0     C 7932   7.131   4.159   1.288  0.0039 -0.7726 -1.1287
  800MOL0     H 7933   6.701   4.067   1.091 -0.4147  0.6404 -0.9296
  800MOL0     H 7934   6.546   4.173   0.910  0.1805  1.5590 -0.1715
  800MOL0     H 7935   6.490   4.475   0.870  0.7695 -0.2791  0.2211
  800MOL0     H 7936   6.350   4.423   0.772  0.7301  2.9021 -0.1512
  800MOL0     H 7937   6.356   4.566   1.038  0.6792  0.2749  0.3983
  800MOL0     H 7938   6.205   4.502   0.974  0.6519  0.4076  1.1073
  800MOL0     H 7939   6.255   4.677   0.762  0.4494  4.4871 -0.9753
  800MOL0     H 7940   6.400   4.720   0.844 -0.0366  2.3766  0.9068
  800MOL0     H 7941   6.296   4.775   1.040  3.0319 -2.2171 -1.3582
  800MOL0     H 7942   6.259   4.873   0.901  0.7509 -2.6498 -2.9956
  800MOL0     H 7943   6.019   4.738   0.883  1.1468  0.1207  0.6980
  800MOL0     H 7944   6.078   4.648   1.027  0.9677 -1.1378 -0.2667
  800MOL0     H 7945   5.929   4.818   1.106 -0.3275  0.5328 -1.7262
  800MOL0     H 7946   6.093   4.882   1.149 -1.3400  4.5948 -0.5352
  800MOL0     H 7947   5.922   4.971   0.907 -0.2642  3.2485 -1.2923
  800MOL0     H 7948   6.091   5.013   0.923 -2.2855  1.9783 -3.1115
  800MOL0     H 7949   5.999   5.075   1.176 -1.1187 -3.7225  0.1068
  800MOL0     H 7950   5.984   5.191   1.034  2.1133 -0.0615  1.6660
  800MOL0     H 7951   5.758   4.926   1.224 -0.3161  1.0804  0.2920
  800MOL0     H 7952   5.401   5.021   1.135 -0.1160  2.2980  0.7759
  800MOL0     H 7953   5.502   4.900   1.226 -1.5109 -0.1543  0.7404
  800MOL0     H 7954   5.394   5.036   1.406  3.1572 -1.2791  0.6309
  800MOL0     H 7955   5.558   5.097   1.386  0.1795 -0.7138  3.3443
  800MOL0     H 7956   5.338   5.243   1.232 -1.4705  0.8282  0.6324
  800MOL0     H 7957   5.509   5.280   1.279 -1.0993  1.6473 -0.4920
  800MOL0     H 7958   5.361   5.396   1.453 -0.4495 -0.0374 -2.7273
  800MOL0     H 7959   5.411   5.245   1.523 -1.0334 -0.7037 -1.1496
  800MOL0     H 7960   4.978   5.208   1.380 -1.8030  0.1606 -0.3241
  800MOL0     H 7961   4.785   5.307   1.507  1.3265  0.4028  0.1035
  800MOL0     H 7962   4.766   5.421   2.098  0.2448  3.4421  3.0026
  800MOL0     H 7963   4.562   5.461   2.230 -3.5236  1.6213  0.4137
  800MOL0     H 7964   4.245   5.643   2.069 -2.1624  4.3886  1.2506
  800MOL0     H 7965   4.256   5.526   2.189  1.1091 -0.4190 -0.3899
  800MOL0     H 7966   4.249   5.725   2.359  2.6265 -2.6258 -2.5329
  800MOL0     H 7967   4.171   5.812   2.235 -0.0884  0.8999  0.6692
  800MOL0     H 7968   4.014   5.621   2.189  1.5126  2.9246 -0.6801
  800MOL0     H 7969   4.076   5.543   2.336 -0.5363 -0.2533  0.2008
  800MOL0     H 7970   3.878   5.672   2.378  0.3083 -1.4446  1.0522
  800MOL0     H 7971   3.942   5.814   2.302 -0.4129 -2.5726 -2.0292
  800MOL0     H 7972   3.953   5.850   2.538 -2.7077  1.5311 -3.1506
  800MOL0     H 7973   4.117   5.820   2.503 -1.7116  0.6035  1.9474
  800MOL0     H 7974   3.938   5.600   2.614  0.5181  0.1697 -0.8419
  800MOL0     H 7975   4.107   5.588   2.574  0.6194  0.1010 -0.4536
  800MOL0     H 7976   4.119   5.797   2.742 -0.3873  0.2594  1.6658
  800MOL0     H 7977   4.108   5.624   2.806 -3.2226 -0.0324  2.1946
  800MOL0     H 7978   3.866   5.794   2.789  2.7220  2.0522 -1.2299
  800MOL0     H 7979   3.870   5.635   2.834 -3.2686  1.1400 -4.0152
  800MOL0     H 7980   4.467   5.768   1.961  1.2265  0.9535  2.3170
  800MOL0     H 7981   4.630   5.698   1.791  3.8165 -0.9372 -0.5204
  800MOL0     H 7982   5.046   5.466   1.800 -0.4154 -0.2089 -0.6959
  800MOL0     H 7983   5.239   5.395   1.665 -0.5434 -1.3343  0.9728
  800MOL0     H 7984   6.346   4.385   1.206 -0.3658 -0.0039  0.5423
  800MOL0     H 7985   6.500   4.299   1.389 -3.1369 -0.9672 -0.0437
  800MOL0     H 7986   6.751   4.035   1.551 -1.1527 -0.3554 -5.4821
  800MOL0     H 7987   6.893   3.923   1.725 -1.0686  0.6929 -0.4872
  800MOL0     H 7988   7.084   4.066   1.875 -0.4432  1.0368 -2.1188
  800MOL0     H 7989   7.237   4.102   1.794  0.6252 -0.6208 -2.5641
  800MOL0     H 7990   7.193   3.885   2.010  1.7217 -0.5641  2.2828
  800MOL0     H 7991   7.297   4.019   2.009 -0.9397  1.3487  0.3444
  800MOL0     H 7992   7.443   3.908   1.852  0.3169  0.2548  0.5546
  800MOL0     H 7993   7.335   3.760   1.827  1.6631  0.5868 -0.2292
  800MOL0     H 7994   7.473   3.859   2.073 -2.2173  0.2375  0.6505
  800MOL0     H 7995   7.347   3.732   2.069  0.4730 -1.0006  0.4468
  800MOL0     H 7996   7.708   3.568   1.905 -1.4981  0.4876 -1.3080
  800MOL0     H 7997   7.247   4.039   1.525 -0.5059 -3.3755 -0.2667
  800MOL0     H 7998   7.119   4.267   1.280  0.6814 -0.5603  0.3718
  800MOL0     H 7999   7.239   4.143   1.282  0.0758 -0.6725 -0.2481
  800MOL0     H 8000   7.076   4.122   1.201 -0.0423 -2.4178 -0.4278
  801MOL0     O 8001   6.096   5.871   1.417 -0.9804  0.6648  0.6241
  801MOL0     C 8002   6.003   5.921   1.478 -1.0537  0.2820  0.1343
  801MOL0     O 8003   5.876   5.915   1.447 -0.2897 -0.0687  0.3826
  801MOL0     C 8004   5.841   5.844   1.329  0.2840  0.3170 -0.0378
  801MOL0     C 8005   5.793   5.917   1.218 -0.2715 -0.8009  0.5803
  801MOL0     C 8006   5.774   5.854   1.103  0.2218 -0.0583 -0.0278
  801MOL0     C 8007   5.788   5.718   1.083  0.7858 -0.2161 -0.5741
  801MOL0     O 8008   5.779   5.656   0.953 -0.0626  0.1933 -0.4327
  801MOL0     C 8009   5.778   5.509   0.939  0.1910 -0.3886  0.8773
  801MOL0     C 8010   5.819   5.482   0.792  0.0449 -0.2526  0.2893
  801MOL0     C 8011   5.817   5.328   0.756 -0.7169  0.1117  0.1501
  801MOL0     C 8012   5.875   5.297   0.614 -0.2791 -0.2938 -0.2979
  801MOL0     C 8013   5.871   5.151   0.588 -0.1880  1.2330  0.2584
  801MOL0     C 8014   5.917   5.132   0.443 -0.4802  0.3457 -0.0618
  801MOL0     C 8015   5.946   4.981   0.400  0.3186  0.0081 -1.2615
  801MOL0     C 8016   6.027   4.900   0.505 -0.6796 -0.6479 -0.0653
  801MOL0     N 8017   6.128   4.810   0.444  0.4935 -1.0741  0.2952
  801MOL0     C 8018   6.102   4.730   0.338  0.2655 -0.3023  0.6246
  801MOL0     C 8019   6.201   4.630   0.346 -0.4856 -1.5860 -0.6941
  801MOL0     C 8020   6.217   4.509   0.257  0.3493  0.3651 -0.3229
  801MOL0     C 8021   6.364   4.464   0.256  0.0804 -0.3707 -0.3658
  801MOL0     C 8022   6.378   4.378   0.132  1.0038 -0.4096  0.4634
  801MOL0     C 8023   6.521   4.352   0.107 -0.0049 -0.4763  0.4565
  801MOL0     O 8024   6.560   4.281   0.222 -0.0330 -0.1666 -0.2022
  801MOL0     C 8025   6.666   4.206   0.231  0.0108  0.4301  0.2907
  801MOL0     C 8026   6.682   4.121   0.331  1.0321 -0.3614  0.0195
  801MOL0     C 8027   6.795   4.049   0.355  0.3576 -0.5558 -0.1301
  801MOL0     C 8028   6.901   4.067   0.271 -0.2064 -0.2349 -0.9881
  801MOL0     C 8029   7.031   3.996   0.301 -0.0969 -0.1679 -0.4099
  801MOL0     O 8030   7.133   4.044   0.218 -0.7850 -0.4325 -0.4509
  801MOL0     C 8031   7.255   3.987   0.233 -1.4089 -0.4614  0.7338
  801MOL0     C 8032   7.355   4.088   0.238  0.0530  0.1232 -0.3474
  801MOL0     C 8033   7.487   4.043   0.265 -0.5629 -0.3152  0.6325
  801MOL0     C 8034   7.522   3.916   0.283  0.2065  0.7404  0.5016
  801MOL0     O 8035   7.653   3.864   0.301  0.3608  0.3907 -0.9100
  801MOL0     C 8036   7.765   3.920   0.232  0.3477  0.8604  0.7645
  801MOL0     C 8037   7.887   3.829   0.247  0.1780  0.5465  0.6940
  801MOL0     C 8038   7.877   3.687   0.199  0.5995 -0.3067  0.4132
  801MOL0     C 8039   8.006   3.611   0.222 -0.7769 -1.2874 -1.0548
  801MOL0     C 8040   7.996   3.466   0.190  1.4066  0.5627 -0.2422
  801MOL0     C 8041   8.113   3.382   0.237  0.3901  1.0732  0.6975
  801MOL0     C 8042   8.248   3.415   0.169  0.6997  0.0945  0.0112
  801MOL0     C 8043   8.239   3.413   0.013  0.9727 -1.5237  0.2140
  801MOL0    Cl 8044   8.402   3.412  -0.048 -0.0443 -0.2477  0.2892
  801MOL0     C 8045   7.422   3.814   0.259  0.4154  0.0626 -0.4919
  801MOL0     C 8046   7.279   3.852   0.240 -0.9028  0.8298 -0.4752
  801MOL0     O 8047   7.045   3.922   0.395  0.1455  0.2241  0.5508
  801MOL0     C 8048   6.893   4.157   0.167 -0.0781 -0.7497 -0.2026
  801MOL0     C 8049   6.773   4.231   0.144 -0.1460  0.6765 -0.5740
  801MOL0     N 8050   6.275   4.655   0.464 -0.3511 -0.6419 -0.3193
  801MOL0     N 8051   6.229   4.762   0.523  0.6680 -0.1548  0.2750
  801MOL0     C 8052   5.827   5.643   1.198  0.7096  0.1137  1.6836
  801MOL0     C 8053   5.859   5.710   1.313 -0.5182  0.8487  0.1017
  801MOL0     C 8054   6.034   5.990   1.608  0.7134 -0.9573 -0.5756
  801MOL0     C 8055   6.133   5.948   1.687 -0.5230  0.3626 -0.9402
  801MOL0     C 8056   6.184   6.024   1.791 -0.3248  0.1319  0.0587
  801MOL0     C 8057   6.123   6.146   1.819 -0.5271  0.0132  0.7163
  801MOL0     O 8058   6.168   6.233   1.923 -0.2502  0.8732 -0.0534
  801MOL0     C 8059   6.262   6.335   1.904  0.0311 -0.0001  0.4606
  801MOL0     C 8060   6.412   6.282   1.895  1.0519 -0.1693 -0.2090
  801MOL0     C 8061   6.501   6.397   1.859 -0.3469  0.1331 -0.9996
  801MOL0     C 8062   6.651   6.376   1.887 -0.2921 -0.0721 -0.7423
  801MOL0     C 8063   6.704   6.250   1.833 -0.3764  1.1629  0.4806
  801MOL0     C 8064   6.732   6.134   1.803 -0.7601 -0.3726  0.2465
  801MOL0     C 8065   6.013   6.184   1.750 -0.2977 -1.4822  0.8665
  801MOL0     C 8066   5.966   6.111   1.645  0.0176 -0.5930  0.5754
  801MOL0     C 8067   5.844   6.169   1.572  0.3824  0.7476 -0.2737
  801MOL0     H 8068   5.774   6.024   1.218 -4.9192 -1.2778  4.4317
  801MOL0     H 8069   5.748   5.916   1.018 -0.6971 -0.1866  0.1492
  801MOL0     H 8070   5.859   5.468   1.001 -1.5712 -2.5062  1.9300
  801MOL0     H 8071   5.681   5.479   0.980  0.0411 -0.4904  0.4470
  801MOL0     H 8072   5.919   5.525   0.787 -0.9049  2.0652 -0.6090
  801MOL0     H 8073   5.745   5.534   0.729  0.0946 -0.0205  0.4232
  801MOL0     H 8074   5.711   5.300   0.750 -1.0249  0.6088  2.1997
  801MOL0     H 8075   5.869   5.264   0.828 -1.7665 -1.5546 -0.5236
  801MOL0     H 8076   5.807   5.355   0.551  0.3426  1.1007  0.2546
  801MOL0     H 8077   5.977   5.338   0.608  0.0615 -0.7747  1.4927
  801MOL0     H 8078   5.933   5.102   0.664 -0.5834  1.4861  0.7457
  801MOL0     H 8079   5.771   5.109   0.594  0.4579 -0.1826  2.4759
  801MOL0     H 8080   5.826   5.167   0.393 -0.4228 -1.1111 -1.2612
  801MOL0     H 8081   6.007   5.186   0.415  3.5796 -5.4127  0.2076
  801MOL0     H 8082   6.005   4.971   0.309 -1.3184 -2.7565 -2.1396
  801MOL0     H 8083   5.852   4.927   0.385 -0.7453  0.3579  2.9888
  801MOL0     H 8084   6.087   4.971   0.563 -2.3303  1.4656 -0.8158
  801MOL0     H 8085   5.957   4.846   0.569 -3.6554 -0.6270 -3.0428
  801MOL0     H 8086   6.020   4.738   0.268  1.9647 -0.8407 -1.5277
  801MOL0     H 8087   6.150   4.430   0.293 -0.1276  2.0181  2.6430
  801MOL0     H 8088   6.186   4.546   0.159  0.0849  0.2716 -0.2742
  801MOL0     H 8089   6.431   4.549   0.239 -0.0430  0.1991  1.7350
  801MOL0     H 8090   6.400   4.421   0.349 -0.7681  5.0383  2.9255
  801MOL0     H 8091   6.337   4.435   0.049  0.4742 -0.7834  0.4621
  801MOL0     H 8092   6.324   4.284   0.140  0.8504 -0.3024  0.7196
  801MOL0     H 8093   6.572   4.449   0.094 -3.5913  1.4863 -0.1441
  801MOL0     H 8094   6.543   4.292   0.018 -1.1659 -0.4702  0.1505
  801MOL0     H 8095   6.596   4.098   0.394  0.2406 -0.0746 -0.9170
  801MOL0     H 8096   6.811   3.979   0.436 -1.9496  1.1822  1.9577
  801MOL0     H 8097   7.323   4.192   0.245 -2.4033 -0.6834  2.4663
  801MOL0     H 8098   7.561   4.121   0.283 -0.3196 -0.5503  0.6428
  801MOL0     H 8099   7.743   3.934   0.126  5.7029  1.6318 -0.5039
  801MOL0     H 8100   7.797   4.022   0.255 -2.1850  3.1114 -4.2586
  801MOL0     H 8101   7.977   3.864   0.195 -0.7012 -1.2758 -2.3196
  801MOL0     H 8102   7.916   3.852   0.350  0.6050  2.0760  0.2726
  801MOL0     H 8103   7.791   3.637   0.244  0.0800  1.5382  1.5882
  801MOL0     H 8104   7.853   3.669   0.094 -1.4951 -0.5187  0.8851
  801MOL0     H 8105   8.046   3.619   0.323 -1.2587  1.7835 -1.0082
  801MOL0     H 8106   8.079   3.649   0.150 -1.1668  1.0564 -0.3130
  801MOL0     H 8107   7.984   3.442   0.084  2.1951  0.3212 -0.2815
  801MOL0     H 8108   7.910   3.435   0.250  2.1139 -1.8892 -0.3952
  801MOL0     H 8109   8.122   3.395   0.345  1.6523  0.6681  0.6582
  801MOL0     H 8110   8.095   3.275   0.220  4.0342  0.0772  2.0561
  801MOL0     H 8111   8.315   3.337   0.205 -1.2740 -1.8955 -0.3717
  801MOL0     H 8112   8.278   3.518   0.187 -0.7246  0.9508 -2.0866
  801MOL0     H 8113   8.186   3.327  -0.028 -1.3127 -0.2309  0.2997
  801MOL0     H 8114   8.188   3.498  -0.034 -1.0558 -1.6169  2.1095
  801MOL0     H 8115   7.454   3.710   0.260 -4.3276 -1.6252  0.0233
  801MOL0     H 8116   7.209   3.769   0.240  1.7277 -1.6201 -2.1620
  801MOL0     H 8117   6.969   4.168   0.090 -1.4570  1.1144 -1.3984
  801MOL0     H 8118   6.760   4.300   0.061  2.3104  3.0122  0.8048
  801MOL0     H 8119   5.831   5.536   1.181  1.3046  0.6737 -2.8892
  801MOL0     H 8120   5.901   5.669   1.404 -0.9636  2.2351  0.9475
  801MOL0     H 8121   6.186   5.856   1.669 -1.4172 -0.1475 -1.0549
  801MOL0     H 8122   6.261   5.979   1.852 -0.0531  0.8669  0.2627
  801MOL0     H 8123   6.250   6.403   1.989  0.9406  2.8515 -1.5506
  801MOL0     H 8124   6.239   6.385   1.810  0.6035 -2.6589 -1.1809
  801MOL0     H 8125   6.426   6.198   1.826 -1.2668  1.0660 -2.3585
  801MOL0     H 8126   6.444   6.246   1.993  1.4629  1.3926  0.2571
  801MOL0     H 8127   6.484   6.480   1.928  4.5520  1.9347 -1.5463
  801MOL0     H 8128   6.480   6.435   1.759  4.9487  2.7180 -1.4858
  801MOL0     H 8129   6.701   6.466   1.852  1.8672 -0.6499  0.6156
  801MOL0     H 8130   6.669   6.374   1.995 -0.7303 -1.2256 -0.6786
  801MOL0     H 8131   6.751   6.030   1.785 -2.2415 -0.5601 -0.3785
  801MOL0     H 8132   5.977   6.282   1.779  1.1121 -1.8098  4.1376
  801MOL0     H 8133   5.823   6.266   1.618  0.6191  1.6185 -1.9165
  801MOL0     H 8134   5.862   6.188   1.466 -1.1837 -2.5743 -1.2480
  801MOL0     H 8135   5.762   6.098   1.584 -1.6065  2.9559  0.1150
  802MOL0     O 8136   3.938   9.910   1.511 -0.0230  0.1099 -0.2715
  802MOL0     C 8137   3.823   9.917   1.501  1.2045 -0.2684  0.3847
  802MOL0     O 8138   3.753   9.831   1.426  0.5409  0.9220  0.0401
  802MOL0     C 8139   3.808   9.719   1.375 -0.2739  1.0120  0.0243
  802MOL0     C 8140   3.848   9.607   1.460 -0.1989 -0.1307  0.4989
  802MOL0     C 8141   3.917   9.504   1.404  0.4049  0.5267  0.9026
  802MOL0     C 8142   3.936   9.489   1.262  0.8839 -0.6509  0.0682
  802MOL0     O 8143   3.989   9.374   1.223  0.0298  0.2129  0.0264
  802MOL0     C 8144   4.052   9.356   1.090  0.4102 -0.1460  0.1698
  802MOL0     C 8145   4.095   9.216   1.075 -0.9234  0.0256  1.1173
  802MOL0     C 8146   4.158   9.203   0.931 -0.2727  0.3366 -0.7883
  802MOL0     C 8147   4.130   9.050   0.880 -0.1501  1.1963 -0.1553
  802MOL0     C 8148   4.203   9.023   0.754 -0.1180  0.2284  0.3506
  802MOL0     C 8149   4.197   8.887   0.702  0.5850  1.2999  0.1403
  802MOL0     C 8150   4.282   8.874   0.577 -0.3705 -0.1311  0.7045
  802MOL0     C 8151   4.293   8.734   0.516  0.2771  0.3588  0.4059
  802MOL0     N 8152   4.394   8.740   0.402 -0.3920  0.3075  0.5201
  802MOL0     C 8153   4.380   8.780   0.268  0.7508 -0.0249 -0.2834
  802MOL0     C 8154   4.498   8.767   0.219 -1.4806  0.1655  0.2812
  802MOL0     C 8155   4.545   8.778   0.079 -0.5138  0.2249 -0.1817
  802MOL0     C 8156   4.442   8.794  -0.036  0.4049  0.0366 -0.6220
  802MOL0     C 8157   4.354   8.668  -0.062 -0.1475 -0.6671  0.3418
  802MOL0     C 8158   4.265   8.694  -0.183 -0.5125  0.3666  0.6193
  802MOL0     O 8159   4.319   8.741  -0.310 -0.0590 -0.4000  0.5759
  802MOL0     C 8160   4.388   8.653  -0.392 -0.5055  0.4835 -0.3751
  802MOL0     C 8161   4.421   8.523  -0.353  0.2946  0.0332  0.3278
  802MOL0     C 8162   4.482   8.431  -0.442  0.2408  0.2058 -0.4290
  802MOL0     C 8163   4.502   8.463  -0.573 -0.3132  0.2744 -0.4089
  802MOL0     C 8164   4.562   8.359  -0.657 -0.2538 -0.3089  0.3020
  802MOL0     O 8165   4.635   8.258  -0.591 -0.1082  0.8559  0.1167
  802MOL0     C 8166   4.707   8.170  -0.670  0.6043  0.4820 -0.2509
  802MOL0     C 8167   4.843   8.159  -0.644  0.5187  0.1905 -0.8934
  802MOL0     C 8168   4.936   8.085  -0.725  0.6373  0.6303  0.0163
  802MOL0     C 8169   4.880   8.011  -0.837  0.4288 -0.0006  0.1077
  802MOL0     O 8170   4.964   7.971  -0.937 -0.4526  0.1159 -0.3221
  802MOL0     C 8171   4.912   7.903  -1.053  0.5158  0.3843  0.1856
  802MOL0     C 8172   5.033   7.842  -1.125  0.6372 -0.4683  0.2307
  802MOL0     C 8173   4.997   7.735  -1.225  0.1620  0.2567  0.3084
  802MOL0     C 8174   5.070   7.749  -1.361  0.9423 -0.4760  0.1571
  802MOL0     C 8175   5.040   7.881  -1.442  0.2129  0.0755  0.0972
  802MOL0     C 8176   4.890   7.915  -1.465 -0.2306  0.3059  0.6891
  802MOL0     C 8177   4.797   7.820  -1.533 -0.1418  0.2710 -0.4978
  802MOL0     C 8178   4.830   7.792  -1.679 -0.1503 -0.6861  0.0859
  802MOL0    Cl 8179   4.736   7.649  -1.737 -0.2135 -0.1825  0.8325
  802MOL0     C 8180   4.739   8.012  -0.857 -0.1811 -0.1160  0.7087
  802MOL0     C 8181   4.656   8.091  -0.775 -0.2227  0.4105  0.7820
  802MOL0     O 8182   4.539   8.365  -0.773  0.2180 -0.3449  0.9075
  802MOL0     C 8183   4.454   8.590  -0.624 -0.2888  0.5145 -0.7841
  802MOL0     C 8184   4.404   8.690  -0.529 -0.0620  0.0011 -0.2080
  802MOL0     N 8185   4.585   8.719   0.317  0.2606 -0.7242  0.4215
  802MOL0     N 8186   4.521   8.706   0.426 -0.3963 -0.2845 -0.0454
  802MOL0     C 8187   3.898   9.594   1.180  0.3985 -0.1881  0.6419
  802MOL0     C 8188   3.839   9.705   1.233 -0.3615  0.0176 -0.0356
  802MOL0     C 8189   3.750  10.021   1.588  0.1001  0.2582 -0.9254
  802MOL0     C 8190   3.609  10.026   1.570 -1.2043 -0.0426 -0.1991
  802MOL0     C 8191   3.533  10.124   1.634  0.8567 -0.6435 -0.4863
  802MOL0     C 8192   3.588  10.216   1.722  0.0519  1.0864  0.1819
  802MOL0     O 8193   3.523  10.302   1.806  0.0328  0.7514  0.0034
  802MOL0     C 8194   3.382  10.315   1.782 -0.5076  0.1328 -1.2066
  802MOL0     C 8195   3.309  10.424   1.868  0.2696 -0.4132 -0.9087
  802MOL0     C 8196   3.336  10.415   2.019  0.4965  0.4300  0.2459
  802MOL0     C 8197   3.485  10.404   2.070  0.0682 -1.0653 -0.4509
  802MOL0     C 8198   3.490  10.424   2.211 -0.4233  0.7579 -0.4734
  802MOL0     C 8199   3.508  10.455   2.324  0.0334 -0.5903  0.2940
  802MOL0     C 8200   3.724  10.222   1.726  0.2094 -0.6393 -0.1790
  802MOL0     C 8201   3.808  10.126   1.667  0.3879 -0.5660 -1.0757
  802MOL0     C 8202   3.951  10.130   1.705  0.2983  0.1151  0.4489
  802MOL0     H 8203   3.808   9.606   1.561 -1.2988 -3.0455  0.1006
  802MOL0     H 8204   3.941   9.420   1.468 -1.7769 -1.4124 -0.6219
  802MOL0     H 8205   3.980   9.390   1.016  0.6840  2.8180  1.1370
  802MOL0     H 8206   4.135   9.427   1.092 -1.2025  1.8602  2.8815
  802MOL0     H 8207   3.998   9.167   1.063 -0.5701  0.0856 -5.2115
  802MOL0     H 8208   4.160   9.178   1.154 -1.9865  1.7439  2.9138
  802MOL0     H 8209   4.266   9.217   0.945 -0.7211  3.1767  0.7128
  802MOL0     H 8210   4.126   9.272   0.852  2.4396  0.8467 -1.5541
  802MOL0     H 8211   4.167   8.985   0.960  1.9368 -1.4697 -3.0473
  802MOL0     H 8212   4.023   9.028   0.870 -0.4355  1.9125  1.1033
  802MOL0     H 8213   4.160   9.083   0.673  1.9155  0.8855 -0.2883
  802MOL0     H 8214   4.304   9.062   0.767 -0.8498  1.9933  1.1883
  802MOL0     H 8215   4.231   8.807   0.767  2.8184  1.3570 -0.8480
  802MOL0     H 8216   4.090   8.877   0.682  0.1102  2.1037  2.0204
  802MOL0     H 8217   4.383   8.901   0.609  0.8366  0.4599 -3.1095
  802MOL0     H 8218   4.246   8.946   0.503 -1.7199 -0.3927  1.0834
  802MOL0     H 8219   4.343   8.672   0.591 -0.6530  0.2199  0.9135
  802MOL0     H 8220   4.192   8.708   0.485 -0.8943  0.7512  3.5378
  802MOL0     H 8221   4.286   8.822   0.233 -0.0328  0.3161  2.0690
  802MOL0     H 8222   4.610   8.866   0.083 -0.3121  0.0478  0.8275
  802MOL0     H 8223   4.600   8.685   0.063  0.1919  0.4649  0.7168
  802MOL0     H 8224   4.376   8.872   0.004 -0.0885 -0.4530 -0.4677
  802MOL0     H 8225   4.498   8.839  -0.119 -1.7913  2.9821 -0.6888
  802MOL0     H 8226   4.297   8.645   0.028 -0.4512  2.0977  0.9324
  802MOL0     H 8227   4.427   8.587  -0.074  0.7136  0.1179  0.1911
  802MOL0     H 8228   4.195   8.772  -0.152 -0.0462  0.1961  2.1610
  802MOL0     H 8229   4.214   8.599  -0.201  2.1062 -1.0027 -0.0152
  802MOL0     H 8230   4.395   8.476  -0.258 -2.1900  1.7930  0.6218
  802MOL0     H 8231   4.507   8.338  -0.393  0.0767  1.1208  1.4779
  802MOL0     H 8232   4.889   8.234  -0.580 -1.4042  3.4117 -3.0133
  802MOL0     H 8233   5.044   8.087  -0.711  0.5179  0.1470  1.1775
  802MOL0     H 8234   4.850   7.822  -1.013 -3.3630  1.9885 -2.1087
  802MOL0     H 8235   4.854   7.972  -1.114  1.3871 -1.5313 -3.0131
  802MOL0     H 8236   5.080   7.928  -1.176 -0.7586  1.5005  2.0763
  802MOL0     H 8237   5.105   7.819  -1.046  0.5602  5.0888  2.3637
  802MOL0     H 8238   5.009   7.638  -1.174  1.8749 -0.2998 -1.0582
  802MOL0     H 8239   4.890   7.747  -1.246  0.2204  1.0911  0.4817
  802MOL0     H 8240   5.044   7.663  -1.423  1.0608  1.3103 -2.5455
  802MOL0     H 8241   5.178   7.739  -1.344  1.7259  0.6193 -3.3387
  802MOL0     H 8242   5.093   7.895  -1.537 -1.2297  0.3425 -0.6996
  802MOL0     H 8243   5.078   7.963  -1.381  0.1103  1.2659 -1.3817
  802MOL0     H 8244   4.845   7.949  -1.372  0.8992  0.1078  1.3347
  802MOL0     H 8245   4.892   8.007  -1.523  1.6118 -0.8860 -1.2756
  802MOL0     H 8246   4.700   7.870  -1.527  0.4204  1.2429  1.4405
  802MOL0     H 8247   4.775   7.726  -1.480  2.1502 -1.9890 -3.2545
  802MOL0     H 8248   4.806   7.878  -1.742 -2.2465 -1.5660 -0.3658
  802MOL0     H 8249   4.939   7.784  -1.687  0.0529  0.8820  0.8209
  802MOL0     H 8250   4.704   7.957  -0.943  1.7015 -1.6909  0.8745
  802MOL0     H 8251   4.548   8.094  -0.787 -0.5282 -4.0647  0.6541
  802MOL0     H 8252   4.465   8.614  -0.730  0.7343  1.8558 -0.4006
  802MOL0     H 8253   4.368   8.788  -0.560  0.5140  0.6463  1.0964
  802MOL0     H 8254   3.928   9.606   1.076  1.1454  2.9978  1.1402
  802MOL0     H 8255   3.816   9.791   1.171  1.2272  0.9141  0.5465
  802MOL0     H 8256   3.557   9.956   1.506  0.4796  0.0102 -1.7066
  802MOL0     H 8257   3.429  10.116   1.604  0.3758 -0.2161  0.9707
  802MOL0     H 8258   3.334  10.217   1.790  2.9209 -1.7181 -1.1268
  802MOL0     H 8259   3.362  10.350   1.680 -2.2941 -0.3930 -1.0588
  802MOL0     H 8260   3.203  10.407   1.850  0.5094 -2.6882 -0.4372
  802MOL0     H 8261   3.347  10.517   1.824  3.5737 -2.2810 -2.3608
  802MOL0     H 8262   3.275  10.331   2.053  1.6589 -0.9506 -0.9156
  802MOL0     H 8263   3.296  10.510   2.055 -2.8780  0.6143 -3.2999
  802MOL0     H 8264   3.530  10.307   2.046  1.6846 -0.6836  0.8419
  802MOL0     H 8265   3.548  10.481   2.024  0.4071 -1.4248 -0.5975
  802MOL0     H 8266   3.526  10.473   2.428  0.6779  0.7586 -0.0191
  802MOL0     H 8267   3.771  10.286   1.799 -0.3307 -1.5384  0.9868
  802MOL0     H 8268   3.953  10.177   1.804 -3.0758  5.6965 -1.6905
  802MOL0     H 8269   4.004  10.034   1.712  1.6567  0.8238  0.3593
  802MOL0     H 8270   4.006  10.195   1.636  3.0728 -2.3114  0.1542
  803MOL0     O 8271   7.313   5.494   9.659  0.0811 -0.0026  0.7137
  803MOL0     C 8272   7.225   5.548   9.728 -0.8885  1.0533  0.1508
  803MOL0     O 8273   7.209   5.672   9.758  0.2034  0.6393 -0.2474
  803MOL0     C 8274   7.300   5.756   9.721  0.0871  0.4826 -1.3865
  803MOL0     C 8275   7.371   5.823   9.820  0.5455 -0.0887  0.5701
  803MOL0     C 8276   7.446   5.939   9.795  0.2718 -0.4085  0.9042
  803MOL0     C 8277   7.450   5.998   9.665  0.1173 -0.0838 -0.1095
  803MOL0     O 8278   7.514   6.120   9.660  0.4120  0.3813  0.6022
  803MOL0     C 8279   7.541   6.175   9.530 -0.2290  0.8234  0.9446
  803MOL0     C 8280   7.640   6.289   9.538 -0.2950  0.7077 -0.3251
  803MOL0     C 8281   7.791   6.257   9.565 -0.1858  0.2147  0.0813
  803MOL0     C 8282   7.886   6.379   9.549  0.0497  0.5649  0.0280
  803MOL0     C 8283   8.031   6.330   9.577  0.4944  0.1268  0.3942
  803MOL0     C 8284   8.130   6.446   9.537 -0.9833 -0.7205 -1.1017
  803MOL0     C 8285   8.273   6.405   9.592 -0.1487  0.0906  0.2527
  803MOL0     C 8286   8.271   6.383   9.738  0.8515 -1.5554 -0.7808
  803MOL0     N 8287   8.397   6.380   9.812  0.6923  0.2496 -0.1556
  803MOL0     C 8288   8.501   6.469   9.803  0.0861  0.1110 -0.7383
  803MOL0     C 8289   8.603   6.410   9.872  0.4530  0.2336  0.3710
  803MOL0     C 8290   8.735   6.471   9.899  0.5623  0.0005  0.2183
  803MOL0     C 8291   8.855   6.384   9.834 -0.7557 -0.1908  0.0687
  803MOL0     C 8292   8.987   6.464   9.876 -0.7803  0.1814 -0.8267
  803MOL0     C 8293   9.105   6.421   9.794 -0.3468  0.3834  0.4534
  803MOL0     O 8294   9.086   6.450   9.650  0.3798 -0.0930 -0.0987
  803MOL0     C 8295   9.077   6.575   9.598 -0.6594 -0.4217 -0.0432
  803MOL0     C 8296   9.104   6.698   9.659  0.7020 -0.8820 -0.5700
  803MOL0     C 8297   9.081   6.821   9.598  0.3094 -0.3630  0.1875
  803MOL0     C 8298   9.027   6.826   9.472 -0.4314  0.6521  1.9496
  803MOL0     C 8299   8.996   6.959   9.406 -0.4827  0.4483 -0.4237
  803MOL0     O 8300   8.967   6.954   9.274  0.3008 -0.1385  0.1973
  803MOL0     C 8301   8.933   7.064   9.209 -0.7982 -0.3189 -0.1211
  803MOL0     C 8302   8.988   7.090   9.076  0.2148 -1.3399 -0.0448
  803MOL0     C 8303   8.965   7.211   9.003  0.5415  0.1966  0.6019
  803MOL0     C 8304   8.886   7.314   9.060 -1.2946 -1.1267  0.7130
  803MOL0     O 8305   8.865   7.432   8.992  0.5781 -0.1541 -0.1804
  803MOL0     C 8306   8.748   7.506   9.020  0.4092  1.4726 -0.8118
  803MOL0     C 8307   8.719   7.592   8.903 -0.5380  0.3821  1.2541
  803MOL0     C 8308   8.569   7.621   8.871  0.1521  0.2604 -1.4546
  803MOL0     C 8309   8.489   7.502   8.820  0.3236 -0.1228 -0.4151
  803MOL0     C 8310   8.362   7.528   8.743  1.2641  0.1182  0.1319
  803MOL0     C 8311   8.269   7.627   8.806  0.1435 -0.4322 -0.8228
  803MOL0     C 8312   8.131   7.650   8.734 -0.1222  0.0064  0.2680
  803MOL0     C 8313   8.073   7.785   8.782 -0.5735  0.7506  0.1837
  803MOL0    Cl 8314   8.015   7.771   8.952 -0.1112 -0.1130 -0.0592
  803MOL0     C 8315   8.828   7.285   9.182 -0.2284  0.6037 -0.5595
  803MOL0     C 8316   8.850   7.168   9.258 -1.2319 -0.2596  0.6676
  803MOL0     O 8317   9.006   7.060   9.483 -0.6945 -0.1062 -0.6340
  803MOL0     C 8318   9.021   6.703   9.402  0.2565 -0.1787  0.5649
  803MOL0     C 8319   9.027   6.579   9.465 -0.4033  0.0169 -0.7220
  803MOL0     N 8320   8.569   6.281   9.920  0.2008  0.3500  0.1498
  803MOL0     N 8321   8.443   6.274   9.893  0.3549  0.6406  0.1597
  803MOL0     C 8322   7.384   5.936   9.566 -0.5166  0.2262  0.0652
  803MOL0     C 8323   7.300   5.826   9.597  0.4910  0.1958 -0.1096
  803MOL0     C 8324   7.123   5.452   9.768  0.6932  0.0106  0.6143
  803MOL0     C 8325   7.009   5.494   9.832 -0.0818 -0.0026 -0.5850
  803MOL0     C 8326   6.898   5.414   9.864 -0.2185 -0.6189  0.2989
  803MOL0     C 8327   6.892   5.286   9.825  0.9258  0.8219 -0.3781
  803MOL0     O 8328   6.777   5.218   9.854  0.7297  0.3119  0.2781
  803MOL0     C 8329   6.771   5.089   9.795  0.2197 -0.4683 -0.0595
  803MOL0     C 8330   6.635   5.085   9.727  0.8354 -0.0358 -0.3991
  803MOL0     C 8331   6.602   4.945   9.660  0.0014 -0.3211  0.4046
  803MOL0     C 8332   6.462   4.949   9.588  0.3329  0.6781 -0.1041
  803MOL0     C 8333   6.432   4.812   9.543  0.3638 -0.6234 -0.0064
  803MOL0     C 8334   6.376   4.712   9.502 -0.1521  0.7161 -0.0012
  803MOL0     C 8335   7.005   5.235   9.768 -0.6126  0.0927  0.5105
  803MOL0     C 8336   7.119   5.310   9.744  0.7119  0.9063 -0.2345
  803MOL0     C 8337   7.238   5.234   9.695 -0.5036  0.8457  0.7486
  803MOL0     H 8338   7.374   5.779   9.919  0.5794 -2.4672 -0.3929
  803MOL0     H 8339   7.515   5.977   9.869  5.0441 -2.4903 -1.9521
  803MOL0     H 8340   7.567   6.098   9.456 -0.6776  1.8965 -0.3688
  803MOL0     H 8341   7.452   6.216   9.483  0.1439 -2.7787 -3.7002
  803MOL0     H 8342   7.616   6.350   9.626  1.9893  0.1207  0.7818
  803MOL0     H 8343   7.633   6.357   9.453 -0.0522  2.6746  1.1497
  803MOL0     H 8344   7.823   6.188   9.487  1.1885 -0.5797  1.2919
  803MOL0     H 8345   7.799   6.222   9.668 -0.6959  2.5812  1.0045
  803MOL0     H 8346   7.881   6.421   9.448 -0.2190  1.4877  0.4165
  803MOL0     H 8347   7.845   6.457   9.613 -1.0495  0.3926 -0.4293
  803MOL0     H 8348   8.037   6.309   9.684 -0.5057  0.3725  0.5003
  803MOL0     H 8349   8.053   6.241   9.517  1.5657  0.1656  0.6907
  803MOL0     H 8350   8.139   6.469   9.430 -0.8156  1.5449 -0.6441
  803MOL0     H 8351   8.091   6.540   9.577  3.7811  1.7181 -1.4460
  803MOL0     H 8352   8.343   6.481   9.556  0.8739 -0.8678  0.1490
  803MOL0     H 8353   8.317   6.315   9.547  1.7314  1.7296 -1.3680
  803MOL0     H 8354   8.201   6.456   9.780  2.5502  1.6772 -3.0909
  803MOL0     H 8355   8.226   6.284   9.746  1.2902 -1.6324  1.0344
  803MOL0     H 8356   8.493   6.570   9.763 -2.0542 -0.9785 -3.4129
  803MOL0     H 8357   8.733   6.574   9.862 -0.6468 -0.2701 -0.5099
  803MOL0     H 8358   8.746   6.477  10.008  0.2823 -1.8622  0.3731
  803MOL0     H 8359   8.858   6.281   9.871 -0.0016 -1.5635 -3.4273
  803MOL0     H 8360   8.839   6.380   9.726 -0.7147  2.6701 -0.1307
  803MOL0     H 8361   9.005   6.449   9.983 -0.7645 -0.2199 -0.8854
  803MOL0     H 8362   8.980   6.572   9.859  1.1453  0.1806 -1.9774
  803MOL0     H 8363   9.130   6.319   9.826 -0.9218  0.9568  2.9826
  803MOL0     H 8364   9.196   6.473   9.826  0.3288 -0.1633 -0.5352
  803MOL0     H 8365   9.126   6.711   9.765 -0.8463  2.2609 -0.4903
  803MOL0     H 8366   9.101   6.911   9.656 -0.1941  0.7776 -1.3405
  803MOL0     H 8367   9.042   7.012   9.025 -1.1874 -2.3013 -0.1175
  803MOL0     H 8368   9.014   7.225   8.908 -0.5477 -0.6667 -0.1110
  803MOL0     H 8369   8.665   7.435   9.027  2.5822 -1.0793  1.0242
  803MOL0     H 8370   8.740   7.568   9.110 -1.6145  3.2486 -2.1065
  803MOL0     H 8371   8.751   7.696   8.915 -0.6660  0.4375  1.1167
  803MOL0     H 8372   8.766   7.555   8.811  2.9164 -0.4413  3.1564
  803MOL0     H 8373   8.520   7.647   8.966 -1.4347 -0.7862 -1.9578
  803MOL0     H 8374   8.557   7.708   8.806  0.3690 -0.6090 -2.6840
  803MOL0     H 8375   8.458   7.449   8.912  1.4133  0.0638  0.0746
  803MOL0     H 8376   8.550   7.436   8.758  1.9402  0.2875  0.6488
  803MOL0     H 8377   8.316   7.429   8.737 -0.7105  1.0678 -1.3348
  803MOL0     H 8378   8.385   7.577   8.647 -3.7170  1.4913 -0.6243
  803MOL0     H 8379   8.249   7.594   8.908  0.6876  0.5471 -0.3866
  803MOL0     H 8380   8.311   7.728   8.808 -1.0453  0.1172 -1.8889
  803MOL0     H 8381   8.058   7.573   8.762 -2.8301  1.4446 -2.2685
  803MOL0     H 8382   8.146   7.649   8.626  1.5853 -4.2917  0.3883
  803MOL0     H 8383   8.150   7.863   8.788  1.8492 -1.4988  6.3557
  803MOL0     H 8384   7.994   7.816   8.713  2.0914  0.0096 -3.5437
  803MOL0     H 8385   8.762   7.362   9.220 -1.6119 -0.6116 -0.4284
  803MOL0     H 8386   8.806   7.157   9.357 -0.2102 -0.0766  1.1523
  803MOL0     H 8387   8.990   6.709   9.298  1.5479 -0.6067  0.1260
  803MOL0     H 8388   9.016   6.490   9.405  1.3676 -0.8632  0.1611
  803MOL0     H 8389   7.368   5.984   9.470 -3.4812 -0.6471  0.0226
  803MOL0     H 8390   7.223   5.784   9.533 -0.0359  1.0030 -0.0268
  803MOL0     H 8391   7.004   5.596   9.868  0.1187 -0.1965  0.0061
  803MOL0     H 8392   6.815   5.450   9.924  0.1666 -4.6085  3.6723
  803MOL0     H 8393   6.788   5.012   9.870  2.0466  1.4009  1.6021
  803MOL0     H 8394   6.836   5.083   9.707 -0.0382 -1.2945 -0.1942
  803MOL0     H 8395   6.630   5.168   9.655  1.7216  3.2857  3.0054
  803MOL0     H 8396   6.560   5.112   9.802  0.7213 -2.1416  0.2977
  803MOL0     H 8397   6.597   4.871   9.741 -1.2690  0.9067  1.5114
  803MOL0     H 8398   6.678   4.924   9.585  1.9413 -0.0595  2.2009
  803MOL0     H 8399   6.389   4.991   9.657 -3.4384 -2.7784 -1.6038
  803MOL0     H 8400   6.473   5.017   9.503  2.8538  3.1427  1.9941
  803MOL0     H 8401   6.341   4.614   9.476  0.1933  1.1132 -2.1103
  803MOL0     H 8402   7.011   5.132   9.733 -1.8488  0.6396 -1.5161
  803MOL0     H 8403   7.323   5.267   9.756 -0.5634  0.3599  1.1023
  803MOL0     H 8404   7.239   5.126   9.715 -0.2115  1.0677  2.0103
  803MOL0     H 8405   7.256   5.250   9.589 -1.2544 -1.7000  0.1637
  804MOL0     O 8406   1.893   6.249   5.004 -0.2735  0.0751 -0.2554
  804MOL0     C 8407   1.813   6.258   4.912 -0.2881  0.3290 -0.0032
  804MOL0     O 8408   1.681   6.228   4.923 -0.3255  0.0890  0.5668
  804MOL0     C 8409   1.612   6.215   5.041 -0.1692  0.2592  0.0186
  804MOL0     C 8410   1.488   6.149   5.022  0.0365  0.3567  0.7635
  804MOL0     C 8411   1.419   6.104   5.130  0.2893  0.5065  1.0872
  804MOL0     C 8412   1.466   6.114   5.263  0.8327  0.0067 -0.5810
  804MOL0     O 8413   1.413   6.044   5.363 -0.1323 -0.2723  0.3590
  804MOL0     C 8414   1.351   5.929   5.332  1.2852 -0.0504  0.1896
  804MOL0     C 8415   1.323   5.859   5.465 -0.4284  1.1086 -0.9330
  804MOL0     C 8416   1.226   5.744   5.448  0.2514  0.6580  0.3399
  804MOL0     C 8417   1.180   5.703   5.586  1.3518  0.0639 -0.3853
  804MOL0     C 8418   1.075   5.585   5.568  0.3162 -0.4894  0.0956
  804MOL0     C 8419   1.020   5.537   5.707 -0.7826  0.9714 -0.8148
  804MOL0     C 8420   0.882   5.461   5.682  0.0120  0.3298 -0.4935
  804MOL0     C 8421   0.891   5.337   5.598 -0.7215  0.3268  0.3884
  804MOL0     N 8422   0.766   5.272   5.573 -0.4758  0.6195  0.4579
  804MOL0     C 8423   0.671   5.233   5.663 -0.7201 -0.1178 -0.0154
  804MOL0     C 8424   0.584   5.153   5.593  0.0051 -0.5479  0.1367
  804MOL0     C 8425   0.472   5.080   5.657 -0.2288 -0.8022 -0.5448
  804MOL0     C 8426   0.339   5.166   5.643 -0.0279  0.6567  0.2466
  804MOL0     C 8427   0.224   5.119   5.740 -0.8340  0.2894 -0.1704
  804MOL0     C 8428   0.113   5.046   5.668  0.1145 -0.0445 -0.2032
  804MOL0     O 8429   0.034   5.141   5.591  0.4487  0.6084  0.4216
  804MOL0     C 8430  -0.036   5.091   5.483 -0.1513 -0.6516 -0.6582
  804MOL0     C 8431  -0.033   4.952   5.442 -0.2963  0.0096 -0.0640
  804MOL0     C 8432  -0.092   4.915   5.318  0.2455 -1.1268  0.2939
  804MOL0     C 8433  -0.168   5.007   5.247  0.2950  0.6779  0.4261
  804MOL0     C 8434  -0.214   4.960   5.114  0.0568  0.4034 -1.4236
  804MOL0     O 8435  -0.163   4.841   5.073  0.1242  0.3179 -0.9381
  804MOL0     C 8436  -0.194   4.802   4.944  0.0867  0.4129 -0.6717
  804MOL0     C 8437  -0.105   4.822   4.834  0.0676 -0.2829  0.3393
  804MOL0     C 8438  -0.143   4.778   4.709 -0.5633  0.0977  0.1651
  804MOL0     C 8439  -0.249   4.697   4.691  0.1553 -0.0825  0.4263
  804MOL0     O 8440  -0.286   4.631   4.577 -0.4706 -0.5872  0.5899
  804MOL0     C 8441  -0.277   4.715   4.460 -0.2739  0.1634  0.2743
  804MOL0     C 8442  -0.392   4.681   4.364 -0.0173 -0.0835 -0.3519
  804MOL0     C 8443  -0.388   4.778   4.247 -0.6777  0.7780  0.2609
  804MOL0     C 8444  -0.433   4.691   4.124 -0.1989 -0.3649 -0.1459
  804MOL0     C 8445  -0.452   4.783   4.000  0.2328  0.0120  0.7656
  804MOL0     C 8446  -0.588   4.839   3.991  0.4423 -0.5336 -1.6847
  804MOL0     C 8447  -0.616   4.948   3.880 -0.0020  0.3204  0.0799
  804MOL0     C 8448  -0.518   5.071   3.884 -0.1815  0.3100  0.8258
  804MOL0    Cl 8449  -0.541   5.164   4.041 -0.3960  0.6271 -0.3643
  804MOL0     C 8450  -0.333   4.661   4.792 -0.8499 -1.0155  0.3305
  804MOL0     C 8451  -0.303   4.715   4.926 -0.5302 -0.6586  0.8229
  804MOL0     O 8452  -0.289   5.035   5.053  0.4987 -0.1023  0.7099
  804MOL0     C 8453  -0.176   5.136   5.300  0.4015 -0.0577  0.3339
  804MOL0     C 8454  -0.109   5.173   5.416 -0.2849 -0.8306 -0.4609
  804MOL0     N 8455   0.625   5.148   5.463  0.7117 -0.3192  0.4902
  804MOL0     N 8456   0.732   5.224   5.447 -0.4031  0.5343  0.2087
  804MOL0     C 8457   1.577   6.199   5.282 -0.1706 -0.3651 -0.7146
  804MOL0     C 8458   1.653   6.241   5.169  0.0428  0.3388 -0.2527
  804MOL0     C 8459   1.860   6.312   4.775 -0.4021 -0.1194 -0.6561
  804MOL0     C 8460   1.981   6.385   4.771  0.0895 -0.0044  0.4495
  804MOL0     C 8461   2.024   6.446   4.648 -0.1419  0.1375 -0.4044
  804MOL0     C 8462   1.942   6.442   4.539 -0.2284  0.6715  0.5822
  804MOL0     O 8463   1.961   6.502   4.417  0.7383 -0.6958 -0.4675
  804MOL0     C 8464   2.092   6.571   4.406  0.6010  0.1889 -0.4557
  804MOL0     C 8465   2.086   6.653   4.280 -0.7461 -0.1269 -0.2064
  804MOL0     C 8466   2.222   6.731   4.254 -0.6078  0.4219  0.0625
  804MOL0     C 8467   2.218   6.798   4.107 -0.7190  0.5621 -0.0031
  804MOL0     C 8468   2.242   6.690   4.004  0.0134 -0.0926  0.0768
  804MOL0     C 8469   2.255   6.596   3.927 -0.2493  0.4570 -0.4133
  804MOL0     C 8470   1.819   6.377   4.541  0.4736  0.7198  0.1483
  804MOL0     C 8471   1.773   6.313   4.661  0.6144 -0.1227  0.8726
  804MOL0     C 8472   1.646   6.231   4.635 -0.0113 -0.6691  0.1958
  804MOL0     H 8473   1.446   6.132   4.923  0.8076  0.3492  0.4315
  804MOL0     H 8474   1.319   6.077   5.097  0.2441  1.0546  0.7601
  804MOL0     H 8475   1.252   5.946   5.289  1.2516  2.0972  0.9792
  804MOL0     H 8476   1.404   5.856   5.270  2.5302 -1.0748  2.3242
  804MOL0     H 8477   1.297   5.934   5.540  0.9372  0.5046  0.1893
  804MOL0     H 8478   1.418   5.812   5.492  0.1041  2.1378 -0.9607
  804MOL0     H 8479   1.268   5.659   5.393  2.4126  1.7528  0.1903
  804MOL0     H 8480   1.138   5.782   5.395  0.8002  0.6818 -0.5710
  804MOL0     H 8481   1.262   5.675   5.652  1.5274  4.0640  1.4093
  804MOL0     H 8482   1.124   5.786   5.631  1.1967 -0.6444  0.7664
  804MOL0     H 8483   0.983   5.621   5.521 -0.7075 -3.1002 -0.0724
  804MOL0     H 8484   1.101   5.500   5.505  1.7187  0.3883 -0.5498
  804MOL0     H 8485   1.095   5.471   5.750  1.2409  1.8084 -2.8541
  804MOL0     H 8486   1.006   5.619   5.779  0.6960 -1.0790  1.9963
  804MOL0     H 8487   0.799   5.520   5.641  0.4892 -0.5645 -2.8975
  804MOL0     H 8488   0.856   5.418   5.780  1.8763 -2.6461 -1.1876
  804MOL0     H 8489   0.918   5.366   5.496 -2.3889 -0.2381 -0.2548
  804MOL0     H 8490   0.965   5.271   5.645  1.2896  0.6290 -2.1561
  804MOL0     H 8491   0.686   5.255   5.769  2.8373  0.6556 -0.5491
  804MOL0     H 8492   0.460   4.978   5.619 -0.1750 -0.6656 -0.9284
  804MOL0     H 8493   0.500   5.078   5.763  2.8603 -3.5985 -1.2608
  804MOL0     H 8494   0.354   5.274   5.658  1.7522  0.3790  0.7085
  804MOL0     H 8495   0.309   5.157   5.539 -0.1996  1.8284  0.1754
  804MOL0     H 8496   0.181   5.206   5.791  2.9281  1.4437  1.4196
  804MOL0     H 8497   0.266   5.057   5.820  1.6676 -1.5494 -2.7148
  804MOL0     H 8498   0.043   4.992   5.733  2.0701 -1.2707  0.9770
  804MOL0     H 8499   0.167   4.963   5.622  1.5058 -1.8226  4.1358
  804MOL0     H 8500   0.009   4.875   5.506  2.2507  1.2805 -0.0669
  804MOL0     H 8501  -0.076   4.815   5.280 -2.2572 -0.3883 -3.2919
  804MOL0     H 8502  -0.027   4.895   4.853  1.7243 -1.3160 -1.9206
  804MOL0     H 8503  -0.071   4.797   4.631 -1.7964 -0.2054 -1.0722
  804MOL0     H 8504  -0.275   4.821   4.486  1.2013  0.5652 -1.3313
  804MOL0     H 8505  -0.184   4.686   4.412  1.4753  0.5914  3.1467
  804MOL0     H 8506  -0.359   4.584   4.325  1.7942  0.2838  0.1739
  804MOL0     H 8507  -0.485   4.680   4.421  0.0737  0.2864 -0.1919
  804MOL0     H 8508  -0.449   4.867   4.263  1.5333  2.4958 -0.2137
  804MOL0     H 8509  -0.287   4.820   4.238  0.4955 -0.0030  5.9813
  804MOL0     H 8510  -0.521   4.633   4.155 -0.5776  0.2826 -0.0067
  804MOL0     H 8511  -0.354   4.619   4.097  0.9436  1.0281 -0.6068
  804MOL0     H 8512  -0.434   4.727   3.907 -1.4222 -0.4234  0.6833
  804MOL0     H 8513  -0.376   4.861   4.009  1.9978 -1.6193  0.7551
  804MOL0     H 8514  -0.658   4.755   3.988 -0.9875  0.3180  1.9230
  804MOL0     H 8515  -0.610   4.893   4.084  0.3111 -0.7474 -1.5927
  804MOL0     H 8516  -0.709   4.996   3.913  0.4864  1.6330 -0.3856
  804MOL0     H 8517  -0.630   4.900   3.783  0.7129  0.5791 -0.1640
  804MOL0     H 8518  -0.415   5.045   3.857 -0.0373  1.2730  0.4222
  804MOL0     H 8519  -0.549   5.127   3.795  0.5768 -0.7763 -0.1513
  804MOL0     H 8520  -0.424   4.604   4.787 -1.1505 -0.6502  1.2634
  804MOL0     H 8521  -0.362   4.691   5.014 -0.1265 -4.4801  0.2038
  804MOL0     H 8522  -0.248   5.204   5.256 -0.3893 -1.8741 -1.3406
  804MOL0     H 8523  -0.120   5.276   5.449  3.9504 -0.6423  0.9652
  804MOL0     H 8524   1.628   6.221   5.375  0.8799 -0.1328 -1.3170
  804MOL0     H 8525   1.750   6.281   5.198  0.6273 -2.6562  2.5044
  804MOL0     H 8526   2.045   6.398   4.858  0.5560  4.2127 -0.3230
  804MOL0     H 8527   2.124   6.488   4.652 -0.7265  1.5067  1.1168
  804MOL0     H 8528   2.170   6.495   4.402 -2.1346 -2.8215 -0.8677
  804MOL0     H 8529   2.119   6.633   4.492  1.9435 -2.3370  1.0427
  804MOL0     H 8530   2.000   6.720   4.275 -2.3485 -1.9761  0.9990
  804MOL0     H 8531   2.070   6.579   4.201 -0.5024  1.0208 -1.3478
  804MOL0     H 8532   2.311   6.669   4.268  1.4236  2.3316 -3.2352
  804MOL0     H 8533   2.235   6.808   4.332 -2.4626  0.6835  0.1485
  804MOL0     H 8534   2.114   6.832   4.095 -1.3676 -0.1341  2.7614
  804MOL0     H 8535   2.282   6.887   4.098  1.7645 -1.2606 -1.5815
  804MOL0     H 8536   2.280   6.517   3.859 -2.9470 -1.9480  1.1662
  804MOL0     H 8537   1.777   6.370   4.441  0.4387  2.0697  0.0497
  804MOL0     H 8538   1.556   6.283   4.670 -2.9812 -1.5572 -5.0051
  804MOL0     H 8539   1.622   6.199   4.533 -0.5626 -2.8718  0.9631
  804MOL0     H 8540   1.667   6.137   4.687  0.7684 -0.8781 -0.4807
  805MOL0     O 8541   9.125  11.088   5.237 -0.5875 -0.6086 -0.0332
  805MOL0     C 8542   9.200  10.989   5.252  0.3529 -0.7521  1.3740
  805MOL0     O 8543   9.258  10.922   5.148  0.2539  0.1483 -0.5907
  805MOL0     C 8544   9.240  10.979   5.023  0.3401  0.8560 -0.5478
  805MOL0     C 8545   9.343  11.057   4.968  0.5917 -0.1285  0.0541
  805MOL0     C 8546   9.329  11.146   4.861  0.2690 -1.0750  0.2179
  805MOL0     C 8547   9.203  11.147   4.790  0.4082  0.4384  0.2381
  805MOL0     O 8548   9.189  11.227   4.684  0.5524 -0.6500  0.0222
  805MOL0     C 8549   9.087  11.331   4.701 -0.9627 -0.3836  0.4959
  805MOL0     C 8550   9.104  11.466   4.626  0.1830  0.2278 -0.1986
  805MOL0     C 8551   9.078  11.461   4.476  0.2323 -0.1637  0.0171
  805MOL0     C 8552   8.931  11.465   4.450  0.3228 -0.0296  0.7478
  805MOL0     C 8553   8.911  11.445   4.303  0.2520  0.0995  0.0625
  805MOL0     C 8554   8.760  11.416   4.271 -0.6294  0.8568 -1.0657
  805MOL0     C 8555   8.713  11.453   4.138 -0.1972 -0.0589 -0.0788
  805MOL0     C 8556   8.724  11.596   4.107  0.3801  0.6128 -0.2970
  805MOL0     N 8557   8.668  11.628   3.982  0.6264  0.2645 -0.6642
  805MOL0     C 8558   8.720  11.594   3.859  0.1395 -0.7170  0.4281
  805MOL0     C 8559   8.644  11.666   3.767  0.1859  0.4487 -1.0105
  805MOL0     C 8560   8.672  11.663   3.618 -0.5257 -0.2603  0.1223
  805MOL0     C 8561   8.543  11.664   3.538 -0.3305  0.3643  0.9872
  805MOL0     C 8562   8.446  11.560   3.583  0.3471  0.1859  0.7331
  805MOL0     C 8563   8.474  11.416   3.559 -0.5788  0.3818 -0.4264
  805MOL0     O 8564   8.600  11.367   3.601  0.3838  0.5421 -0.2128
  805MOL0     C 8565   8.630  11.304   3.720 -0.7646  0.5040 -0.0600
  805MOL0     C 8566   8.535  11.279   3.826  0.5992  0.5611  0.6472
  805MOL0     C 8567   8.562  11.193   3.929 -2.1159 -0.6978 -0.9977
  805MOL0     C 8568   8.696  11.149   3.941 -0.0579 -0.5257 -0.8500
  805MOL0     C 8569   8.735  11.065   4.054 -0.6609 -0.1229 -0.7543
  805MOL0     O 8570   8.866  11.044   4.069  0.4565  0.0902 -0.2892
  805MOL0     C 8571   8.910  10.951   4.163 -0.0931  0.2100 -0.4194
  805MOL0     C 8572   8.980  10.992   4.274  0.2340  0.1931  0.5629
  805MOL0     C 8573   9.044  10.898   4.360 -0.1960  0.2903  0.3915
  805MOL0     C 8574   9.036  10.761   4.341  0.3194  0.3032  0.6778
  805MOL0     O 8575   9.095  10.671   4.426  0.2490  1.3012  0.1911
  805MOL0     C 8576   9.155  10.549   4.364  0.1288 -1.1844 -1.1744
  805MOL0     C 8577   9.228  10.481   4.478  0.3636 -0.5298  0.4136
  805MOL0     C 8578   9.240  10.322   4.463 -0.9986 -0.1177 -0.8172
  805MOL0     C 8579   9.334  10.272   4.572 -0.6581 -0.5366  0.1481
  805MOL0     C 8580   9.339  10.123   4.591 -0.7165  1.3508 -1.4279
  805MOL0     C 8581   9.456  10.099   4.698 -0.3815  0.1812  0.0972
  805MOL0     C 8582   9.455   9.968   4.774  1.0649 -0.2117 -0.8115
  805MOL0     C 8583   9.565   9.950   4.868 -0.1715  0.3389 -0.6179
  805MOL0    Cl 8584   9.538  10.067   5.000 -0.3226 -0.1482  0.0753
  805MOL0     C 8585   8.964  10.715   4.229 -0.1690 -0.3554  0.3768
  805MOL0     C 8586   8.904  10.812   4.136  0.5361  0.6009 -0.0427
  805MOL0     O 8587   8.643  11.017   4.117 -0.1604  1.0200  0.5862
  805MOL0     C 8588   8.794  11.187   3.852  0.0833  0.4610  0.2577
  805MOL0     C 8589   8.764  11.267   3.743 -0.0231 -0.4235 -0.5084
  805MOL0     N 8590   8.560  11.744   3.838  0.1980 -0.7311  0.0298
  805MOL0     N 8591   8.569  11.718   3.962 -0.0656 -0.1791 -0.3030
  805MOL0     C 8592   9.102  11.068   4.839  0.2496  0.0175 -0.2126
  805MOL0     C 8593   9.121  10.990   4.954 -0.1964  0.2117 -0.0844
  805MOL0     C 8594   9.225  10.942   5.396 -0.8668 -0.3917  0.6087
  805MOL0     C 8595   9.134  10.982   5.494 -0.0876  1.2437  0.3640
  805MOL0     C 8596   9.153  10.944   5.630  0.3634  0.5678 -0.2391
  805MOL0     C 8597   9.249  10.847   5.659  0.4297  0.1699 -0.2345
  805MOL0     O 8598   9.241  10.782   5.782  0.4046 -0.0318 -0.4998
  805MOL0     C 8599   9.143  10.680   5.801  0.3288  0.8107 -0.4311
  805MOL0     C 8600   9.109  10.668   5.944 -0.2492 -0.3801 -1.1100
  805MOL0     C 8601   9.102  10.802   6.017 -0.4685  0.6213 -0.2801
  805MOL0     C 8602   8.991  10.898   5.981 -0.2425 -0.5355  0.2616
  805MOL0     C 8603   8.947  10.984   6.090  0.1838 -0.0730  0.6294
  805MOL0     C 8604   8.903  11.044   6.185 -0.2141 -0.0675  0.1729
  805MOL0     C 8605   9.345  10.811   5.567  0.0252  0.4527  0.0623
  805MOL0     C 8606   9.342  10.867   5.431  0.4593 -0.4989 -0.0538
  805MOL0     C 8607   9.459  10.854   5.340  0.2192 -1.0370  0.3407
  805MOL0     H 8608   9.443  11.039   5.007  2.1885  0.8340 -3.2085
  805MOL0     H 8609   9.421  11.191   4.825 -0.8041 -1.2405 -3.1570
  805MOL0     H 8610   8.991  11.285   4.674 -1.1908  0.5837 -0.4088
  805MOL0     H 8611   9.077  11.362   4.805 -2.0466  1.5848 -0.1577
  805MOL0     H 8612   9.205  11.505   4.638  0.0280  0.6473 -0.2509
  805MOL0     H 8613   9.037  11.537   4.674  0.6434 -0.4757  1.5537
  805MOL0     H 8614   9.130  11.375   4.431 -3.1129 -0.7285 -3.2608
  805MOL0     H 8615   9.125  11.554   4.443  1.1818  1.0849  4.3225
  805MOL0     H 8616   8.878  11.392   4.511 -1.6591 -0.0219 -0.8677
  805MOL0     H 8617   8.902  11.567   4.479 -2.2852 -0.7263  0.7680
  805MOL0     H 8618   8.956  11.528   4.247 -1.6537  1.2390  0.0980
  805MOL0     H 8619   8.968  11.355   4.284 -2.6662 -2.2163  1.4486
  805MOL0     H 8620   8.741  11.311   4.296 -0.7409  1.2035  0.4008
  805MOL0     H 8621   8.688  11.463   4.340 -2.0027 -0.3704 -1.6014
  805MOL0     H 8622   8.613  11.412   4.124 -0.0444 -0.2105 -0.7759
  805MOL0     H 8623   8.767  11.395   4.062 -1.7397 -0.2919 -1.0355
  805MOL0     H 8624   8.656  11.652   4.173 -0.3636 -0.6037  0.0158
  805MOL0     H 8625   8.828  11.624   4.126  1.1940 -1.5514 -1.2985
  805MOL0     H 8626   8.810  11.536   3.840 -0.1805 -2.6393  3.8892
  805MOL0     H 8627   8.735  11.748   3.588  0.8544 -0.6165  1.8783
  805MOL0     H 8628   8.732  11.578   3.585 -0.0345  1.0304 -2.6368
  805MOL0     H 8629   8.505  11.766   3.548 -2.9485 -0.3392 -0.6302
  805MOL0     H 8630   8.561  11.644   3.432 -2.3052 -2.3067  1.0440
  805MOL0     H 8631   8.352  11.571   3.528  0.1080 -2.4265  0.4979
  805MOL0     H 8632   8.419  11.575   3.688 -1.0853  0.7652  0.3078
  805MOL0     H 8633   8.488  11.391   3.454  3.8377 -1.4604  0.3688
  805MOL0     H 8634   8.392  11.357   3.601  2.0613 -1.3488  2.8398
  805MOL0     H 8635   8.435  11.322   3.832 -1.8256 -4.1277 -0.4494
  805MOL0     H 8636   8.494  11.178   4.013  0.9033  2.5801  2.4250
  805MOL0     H 8637   8.984  11.100   4.286 -3.1580  0.5515 -0.4795
  805MOL0     H 8638   9.099  10.926   4.448 -3.1471  0.2406  2.4052
  805MOL0     H 8639   9.086  10.484   4.308 -1.5738 -0.7893  0.3662
  805MOL0     H 8640   9.221  10.582   4.283  0.0597 -2.2729 -1.7014
  805MOL0     H 8641   9.326  10.529   4.490  0.1737  0.0178 -0.1824
  805MOL0     H 8642   9.171  10.500   4.570  0.1997 -1.2262  0.4571
  805MOL0     H 8643   9.142  10.273   4.461 -0.2618 -1.5974 -1.4799
  805MOL0     H 8644   9.273  10.307   4.360 -0.4246  0.8826 -0.7905
  805MOL0     H 8645   9.311  10.308   4.673 -0.5117 -3.3742  1.3033
  805MOL0     H 8646   9.432  10.308   4.541 -0.6121 -0.0856  0.7953
  805MOL0     H 8647   9.349  10.071   4.496  1.4514  0.0601 -0.5478
  805MOL0     H 8648   9.244  10.102   4.642  2.0355 -0.3214  3.7055
  805MOL0     H 8649   9.543  10.104   4.631 -0.5393  2.4201 -0.0276
  805MOL0     H 8650   9.472  10.181   4.770 -1.4820  1.0315 -0.5844
  805MOL0     H 8651   9.463   9.891   4.697  3.5450  1.7599 -2.6738
  805MOL0     H 8652   9.361   9.942   4.825  0.0983  0.3439 -2.2344
  805MOL0     H 8653   9.582   9.852   4.914  1.7981  2.8228  4.7805
  805MOL0     H 8654   9.658   9.978   4.818  0.7153 -0.1253  0.6956
  805MOL0     H 8655   8.944  10.612   4.200 -1.1725  0.7966 -3.7982
  805MOL0     H 8656   8.862  10.776   4.042 -0.0870 -2.8516  1.4042
  805MOL0     H 8657   8.898  11.157   3.856  0.7041  2.6024  2.7830
  805MOL0     H 8658   8.848  11.285   3.675  2.4362  1.2222  2.6852
  805MOL0     H 8659   9.007  11.078   4.787  0.6298  3.7812 -0.5015
  805MOL0     H 8660   9.039  10.945   5.010  0.5963  0.6436  1.4911
  805MOL0     H 8661   9.048  11.043   5.472 -0.6486  2.0490  4.1442
  805MOL0     H 8662   9.079  10.985   5.697 -1.9624  0.9485 -2.8687
  805MOL0     H 8663   9.173  10.581   5.766  1.5496  0.1625  2.1926
  805MOL0     H 8664   9.042  10.692   5.762 -0.5698 -3.8645 -0.1640
  805MOL0     H 8665   9.189  10.608   5.989  2.7344  3.8995  0.0306
  805MOL0     H 8666   9.021  10.604   5.952  0.2063 -0.7908  2.3754
  805MOL0     H 8667   9.198  10.854   6.010  1.8787 -3.3644 -0.8455
  805MOL0     H 8668   9.086  10.777   6.122 -0.1339  2.3686  0.2147
  805MOL0     H 8669   9.017  10.970   5.903  0.6160 -0.0680  0.9662
  805MOL0     H 8670   8.910  10.832   5.947 -0.6205 -0.5238  1.1056
  805MOL0     H 8671   8.860  11.089   6.273  0.4255 -2.0020  1.5405
  805MOL0     H 8672   9.423  10.740   5.592 -0.7182 -0.0178  1.1406
  805MOL0     H 8673   9.448  10.779   5.262  2.0599 -1.8300  0.7877
  805MOL0     H 8674   9.486  10.951   5.296 -1.6785 -0.1444  1.0470
  805MOL0     H 8675   9.540  10.807   5.397  0.5755 -2.2867 -1.1325
  806MOL0     O 8676   3.003   1.402   8.919  0.5832  0.4851 -0.4927
  806MOL0     C 8677   3.079   1.314   8.953 -0.0678 -0.4975 -0.8363
  806MOL0     O 8678   3.112   1.205   8.881  0.7730 -0.0447 -0.3181
  806MOL0     C 8679   3.048   1.177   8.767  0.1559 -0.5373  0.2478
  806MOL0     C 8680   2.921   1.213   8.723 -0.6980  0.2263  0.5130
  806MOL0     C 8681   2.877   1.179   8.593  1.2130 -0.6434 -0.5365
  806MOL0     C 8682   2.932   1.072   8.526  1.2276  0.6339  0.2035
  806MOL0     O 8683   2.891   1.024   8.399 -0.8120  0.1953 -0.6930
  806MOL0     C 8684   2.762   1.078   8.347  0.0581 -0.2090  0.4672
  806MOL0     C 8685   2.715   0.997   8.217  0.2544 -1.0371 -0.9414
  806MOL0     C 8686   2.628   1.073   8.124 -0.2016 -0.1096 -0.3643
  806MOL0     C 8687   2.559   0.972   8.034  0.4542 -0.0039 -0.0689
  806MOL0     C 8688   2.449   1.041   7.934 -0.6761  0.5618 -0.1804
  806MOL0     C 8689   2.508   1.157   7.860  0.7235 -0.9484  1.1363
  806MOL0     C 8690   2.404   1.235   7.764 -0.6195  0.4289 -1.0083
  806MOL0     C 8691   2.258   1.237   7.807  0.3676  1.0249 -0.0225
  806MOL0     N 8692   2.229   1.318   7.932  0.0972 -0.1089  0.3765
  806MOL0     C 8693   2.119   1.393   7.943 -0.5513 -0.7949 -0.1195
  806MOL0     C 8694   2.127   1.459   8.060 -0.2362  0.0488 -0.1365
  806MOL0     C 8695   2.009   1.546   8.111  0.2795 -0.1749 -0.8154
  806MOL0     C 8696   1.973   1.496   8.246 -0.1477 -0.5963  0.1798
  806MOL0     C 8697   1.888   1.595   8.323  0.2738  0.2061 -1.0105
  806MOL0     C 8698   1.947   1.727   8.363 -0.1388 -0.9295 -0.5371
  806MOL0     O 8699   1.895   1.826   8.266 -0.4140  0.6691 -0.2143
  806MOL0     C 8700   1.770   1.881   8.282 -0.2111 -0.5337  0.3024
  806MOL0     C 8701   1.720   1.955   8.167 -0.0849  0.3379  0.2177
  806MOL0     C 8702   1.593   2.015   8.167  0.4634 -0.7964 -0.3490
  806MOL0     C 8703   1.507   1.991   8.272  1.1739  0.7417  0.7326
  806MOL0     C 8704   1.369   2.058   8.272  0.1034 -0.3543 -0.9481
  806MOL0     O 8705   1.327   2.088   8.403  0.2258 -0.2598 -0.2423
  806MOL0     C 8706   1.212   2.160   8.424  0.5532  0.5463  0.2158
  806MOL0     C 8707   1.100   2.183   8.332 -1.1856 -0.3163 -0.4598
  806MOL0     C 8708   0.990   2.250   8.381 -0.5643 -0.7101  0.1551
  806MOL0     C 8709   0.975   2.294   8.509  0.5791  0.0102  0.3697
  806MOL0     O 8710   0.853   2.345   8.538  0.5934  0.5161 -0.4175
  806MOL0     C 8711   0.819   2.351   8.672  0.0337 -0.3044  0.8225
  806MOL0     C 8712   0.706   2.446   8.710  0.1971 -0.1049  0.7399
  806MOL0     C 8713   0.573   2.383   8.675 -0.0974 -0.1224 -1.1410
  806MOL0     C 8714   0.455   2.481   8.714 -0.0772 -0.2016  0.4057
  806MOL0     C 8715   0.347   2.405   8.798  0.2049 -0.8700 -0.3554
  806MOL0     C 8716   0.216   2.482   8.799  0.0255 -0.3799 -0.3631
  806MOL0     C 8717   0.123   2.429   8.911 -0.3415  0.5053 -0.3729
  806MOL0     C 8718   0.002   2.504   8.940 -0.5869  0.6214 -0.1798
  806MOL0    Cl 8719  -0.119   2.497   8.811  0.2660 -0.4872 -0.0150
  806MOL0     C 8720   1.089   2.284   8.594 -0.2171 -0.3731 -0.6123
  806MOL0     C 8721   1.208   2.219   8.551  0.7262  0.6475 -0.3696
  806MOL0     O 8722   1.318   2.095   8.167  0.2250  0.2082 -0.3617
  806MOL0     C 8723   1.550   1.914   8.378 -0.5436  0.5685  0.2247
  806MOL0     C 8724   1.685   1.876   8.382  1.3255  0.6216  0.3628
  806MOL0     N 8725   2.254   1.424   8.106 -0.0810 -0.5714 -0.6392
  806MOL0     N 8726   2.315   1.336   8.032 -0.8589 -0.2432 -0.1427
  806MOL0     C 8727   3.047   1.012   8.575 -0.0840  0.1300 -0.8005
  806MOL0     C 8728   3.103   1.073   8.692  0.4921 -0.5239 -0.5893
  806MOL0     C 8729   3.137   1.317   9.089  0.7566 -0.5077 -0.1205
  806MOL0     C 8730   3.229   1.220   9.118 -0.1992 -0.2011 -0.0017
  806MOL0     C 8731   3.293   1.202   9.245  0.6891  0.2164 -0.1077
  806MOL0     C 8732   3.246   1.283   9.349  0.0754  0.2114 -0.6549
  806MOL0     O 8733   3.310   1.282   9.470 -0.3522 -0.0163 -0.2374
  806MOL0     C 8734   3.269   1.163   9.542 -0.0935  0.0752  0.0117
  806MOL0     C 8735   3.302   1.180   9.687  1.5762  0.5433  0.1354
  806MOL0     C 8736   3.201   1.099   9.767 -0.8272 -0.0808 -0.0717
  806MOL0     C 8737   3.225   1.144   9.914 -0.6045  0.0164  0.5807
  806MOL0     C 8738   3.148   1.061  10.011  0.0336  0.4211 -0.6634
  806MOL0     C 8739   3.081   1.011  10.095  0.0412 -0.0162  0.1533
  806MOL0     C 8740   3.162   1.394   9.308  0.4198  0.9193  0.4391
  806MOL0     C 8741   3.114   1.421   9.185  0.0060  0.6256 -0.1583
  806MOL0     C 8742   3.040   1.557   9.174 -0.4900  0.7805 -0.2360
  806MOL0     H 8743   2.866   1.286   8.782  1.2994  1.6638  0.7234
  806MOL0     H 8744   2.790   1.237   8.562  2.7013  1.8853 -0.3151
  806MOL0     H 8745   2.683   1.059   8.420  0.1130  1.0432  0.8806
  806MOL0     H 8746   2.766   1.185   8.325  0.4131 -1.0042 -4.3535
  806MOL0     H 8747   2.668   0.902   8.247  0.0470 -0.1323  1.8826
  806MOL0     H 8748   2.811   0.967   8.174  0.3400 -3.5308  0.7698
  806MOL0     H 8749   2.678   1.141   8.055 -1.4671 -0.1659 -1.3579
  806MOL0     H 8750   2.559   1.139   8.178  1.0585 -0.2779  1.5494
  806MOL0     H 8751   2.626   0.909   7.975 -2.3212 -3.4593  0.0690
  806MOL0     H 8752   2.499   0.907   8.100  1.6054 -0.4599  0.5496
  806MOL0     H 8753   2.411   0.966   7.863  1.8559 -1.6516  0.6471
  806MOL0     H 8754   2.360   1.078   7.985 -3.1447 -0.5138 -3.3455
  806MOL0     H 8755   2.567   1.227   7.920  3.5800 -2.7411  0.6292
  806MOL0     H 8756   2.572   1.103   7.789 -0.6398 -1.9912  0.6463
  806MOL0     H 8757   2.411   1.174   7.673  0.9111 -2.3341  0.8240
  806MOL0     H 8758   2.436   1.337   7.740 -0.6312  0.4863 -0.7811
  806MOL0     H 8759   2.207   1.299   7.733  0.5394  2.4750  1.0307
  806MOL0     H 8760   2.225   1.133   7.816  0.6510  0.9880  0.7081
  806MOL0     H 8761   2.038   1.391   7.872  0.0369  2.6090 -1.0713
  806MOL0     H 8762   2.044   1.649   8.120 -1.7183  0.5232 -0.5503
  806MOL0     H 8763   1.921   1.555   8.046 -2.8770  1.8205  3.2498
  806MOL0     H 8764   1.925   1.399   8.232 -1.4118 -0.1967  1.5181
  806MOL0     H 8765   2.062   1.459   8.299 -0.5023 -0.8258  0.6165
  806MOL0     H 8766   1.863   1.543   8.415  2.0667  0.9078 -0.0826
  806MOL0     H 8767   1.788   1.610   8.280 -0.4010  1.3524  0.8751
  806MOL0     H 8768   2.055   1.733   8.349  0.1196 -1.7551  0.9357
  806MOL0     H 8769   1.928   1.751   8.467  2.2435 -3.0425  0.5153
  806MOL0     H 8770   1.779   1.961   8.075  0.6898 -2.8456  0.3872
  806MOL0     H 8771   1.547   2.073   8.087  0.4589  0.8563  0.7972
  806MOL0     H 8772   1.100   2.144   8.231 -1.3128 -0.8317 -0.2653
  806MOL0     H 8773   0.896   2.272   8.331 -0.9805 -4.4256 -1.0187
  806MOL0     H 8774   0.812   2.244   8.689 -1.5641 -0.6571 -1.5504
  806MOL0     H 8775   0.901   2.388   8.734  1.4599  0.6213 -1.4794
  806MOL0     H 8776   0.711   2.467   8.817 -0.0968  2.4149  0.3376
  806MOL0     H 8777   0.726   2.540   8.657  2.1192 -1.6770 -1.5904
  806MOL0     H 8778   0.571   2.369   8.567  0.8223  2.7797 -1.6193
  806MOL0     H 8779   0.563   2.282   8.716 -0.0916 -0.0066 -0.8496
  806MOL0     H 8780   0.400   2.514   8.626 -3.5437 -3.2397  1.2213
  806MOL0     H 8781   0.501   2.558   8.776  0.7599 -0.8862  0.6511
  806MOL0     H 8782   0.393   2.398   8.897  0.0765  0.6219 -0.1654
  806MOL0     H 8783   0.340   2.304   8.755  0.8150 -0.0457 -2.5053
  806MOL0     H 8784   0.242   2.588   8.808 -1.3841 -0.0704  0.3567
  806MOL0     H 8785   0.165   2.474   8.703 -1.3211  1.9785  0.0831
  806MOL0     H 8786   0.168   2.426   9.010 -1.0154 -2.1664 -0.0695
  806MOL0     H 8787   0.100   2.327   8.878 -0.9196 -0.0320  1.5998
  806MOL0     H 8788  -0.045   2.463   9.030  1.3901  0.0991  0.6458
  806MOL0     H 8789   0.034   2.605   8.967  0.5980 -0.0962  1.2536
  806MOL0     H 8790   1.099   2.339   8.688  2.8645 -2.2224  0.2940
  806MOL0     H 8791   1.301   2.218   8.606  0.4398  2.2818  0.2377
  806MOL0     H 8792   1.494   1.874   8.462  0.0281  0.7067  0.6765
  806MOL0     H 8793   1.723   1.817   8.466  0.4103  1.2089  1.2109
  806MOL0     H 8794   3.098   0.929   8.526  4.4927  0.6148  2.4741
  806MOL0     H 8795   3.183   1.010   8.730  0.4459 -0.1182  0.1868
  806MOL0     H 8796   3.263   1.151   9.041 -1.4235  0.7606 -1.4465
  806MOL0     H 8797   3.375   1.134   9.263 -0.7356 -0.8862  2.9755
  806MOL0     H 8798   3.306   1.067   9.505  1.1343  0.0349  1.2863
  806MOL0     H 8799   3.162   1.158   9.518  0.4674  1.3605 -3.2778
  806MOL0     H 8800   3.293   1.286   9.712 -3.5284  0.7720 -1.4559
  806MOL0     H 8801   3.405   1.153   9.710  1.6423  1.1124  0.5346
  806MOL0     H 8802   3.223   0.994   9.745 -1.1572 -0.3069  0.6565
  806MOL0     H 8803   3.096   1.110   9.738 -0.8973  0.8168  0.4822
  806MOL0     H 8804   3.329   1.138   9.950 -1.8596 -3.8445  4.4605
  806MOL0     H 8805   3.190   1.247   9.917  2.1157  1.0140  1.6824
  806MOL0     H 8806   3.025   0.954  10.166 -3.1710  0.8707 -1.4653
  806MOL0     H 8807   3.152   1.467   9.387 -2.6639 -0.7520  1.7672
  806MOL0     H 8808   3.069   1.622   9.091  1.7189  0.0819 -0.0840
  806MOL0     H 8809   2.931   1.546   9.175 -0.6236  1.7687  1.4918
  806MOL0     H 8810   3.053   1.616   9.266 -0.7364  1.2828 -0.5227
  807MOL0     O 8811   4.993   5.214   6.976 -0.3145 -0.1939 -0.0585
  807MOL0     C 8812   4.980   5.193   7.095 -1.1313 -0.6928 -0.4369
  807MOL0     O 8813   4.929   5.073   7.150 -0.6352 -0.0845 -0.4848
  807MOL0     C 8814   4.908   4.980   7.055  0.9521  1.0531 -0.2020
  807MOL0     C 8815   4.784   4.976   7.000  0.3633  1.1744 -0.0226
  807MOL0     C 8816   4.745   4.874   6.914 -0.6669 -0.0058 -0.0666
  807MOL0     C 8817   4.833   4.771   6.885 -0.6852  0.1214  0.4212
  807MOL0     O 8818   4.793   4.656   6.819  0.0802  0.6190 -0.4628
  807MOL0     C 8819   4.656   4.603   6.843 -0.8431 -0.7028 -0.2065
  807MOL0     C 8820   4.617   4.506   6.727  0.1363 -0.0744 -0.6590
  807MOL0     C 8821   4.484   4.428   6.745 -0.4960  0.4600 -0.1716
  807MOL0     C 8822   4.331   4.475   6.744 -0.3751  0.6776  1.1031
  807MOL0     C 8823   4.298   4.560   6.868  1.1313 -1.1472 -0.2368
  807MOL0     C 8824   4.154   4.624   6.846  0.9180  0.9417  0.0984
  807MOL0     C 8825   4.103   4.680   6.978 -0.1023 -0.5204 -0.5237
  807MOL0     C 8826   4.020   4.799   6.944 -0.2894 -1.4203 -0.2226
  807MOL0     N 8827   3.977   4.867   7.071  1.4226 -0.5893 -0.8146
  807MOL0     C 8828   3.948   4.806   7.189  0.7700 -0.4415  0.4051
  807MOL0     C 8829   3.892   4.900   7.273 -0.1081 -0.7332 -0.1458
  807MOL0     C 8830   3.845   4.895   7.405 -0.1247  0.1757  0.8209
  807MOL0     C 8831   3.963   4.908   7.507 -0.7577  0.4848  0.4043
  807MOL0     C 8832   3.908   4.933   7.653 -0.0298 -0.2864 -0.2659
  807MOL0     C 8833   4.029   4.970   7.729 -0.3068 -0.8038 -0.6879
  807MOL0     O 8834   3.982   4.992   7.863 -0.3685  1.0431 -0.1850
  807MOL0     C 8835   3.977   5.116   7.912 -0.0019 -0.9693 -0.5167
  807MOL0     C 8836   3.857   5.180   7.894  0.4055 -0.0561 -0.7706
  807MOL0     C 8837   3.841   5.310   7.949  0.0535 -0.1510 -0.5336
  807MOL0     C 8838   3.949   5.366   8.016  0.6859  0.2177 -0.9644
  807MOL0     C 8839   3.933   5.490   8.095  0.0790 -0.9849  0.2595
  807MOL0     O 8840   4.036   5.543   8.160 -0.2270  0.5655  1.6436
  807MOL0     C 8841   4.014   5.645   8.244 -1.0107 -0.0385 -0.5997
  807MOL0     C 8842   3.966   5.629   8.375  0.5486  0.7273 -0.6149
  807MOL0     C 8843   3.954   5.736   8.464 -0.1893 -0.3580 -0.5984
  807MOL0     C 8844   3.989   5.868   8.432 -0.0635 -0.0548 -0.9819
  807MOL0     O 8845   3.989   5.975   8.520  0.7291 -0.9769  0.3475
  807MOL0     C 8846   3.853   6.014   8.552  0.6375  0.2028 -0.0877
  807MOL0     C 8847   3.867   6.144   8.638 -0.0831  0.0074  0.1106
  807MOL0     C 8848   3.746   6.182   8.721 -0.3599 -0.7158  0.8004
  807MOL0     C 8849   3.649   6.269   8.639  0.3369  0.5305  0.7957
  807MOL0     C 8850   3.507   6.255   8.706  0.4464  0.2017 -0.5850
  807MOL0     C 8851   3.403   6.333   8.620 -0.1432  0.5088  0.5939
  807MOL0     C 8852   3.388   6.281   8.473 -0.5083 -0.7927  0.2338
  807MOL0     C 8853   3.258   6.341   8.422  0.6080 -0.1672  0.1468
  807MOL0    Cl 8854   3.256   6.287   8.256  0.0287  0.0818 -0.4965
  807MOL0     C 8855   4.030   5.890   8.302  0.5475  0.5691 -0.2153
  807MOL0     C 8856   4.036   5.783   8.204  0.0743  0.0318 -0.0887
  807MOL0     O 8857   3.822   5.543   8.091  0.3880  0.2469  0.0580
  807MOL0     C 8858   4.071   5.308   8.034  0.3502  1.0394  0.8754
  807MOL0     C 8859   4.082   5.175   7.981  0.8706 -0.0574  0.0476
  807MOL0     N 8860   3.906   5.026   7.202  0.8279 -0.7165  0.3183
  807MOL0     N 8861   3.957   5.002   7.092 -0.8919  0.1093 -0.4100
  807MOL0     C 8862   4.970   4.793   6.916 -0.1294 -0.4511 -0.0360
  807MOL0     C 8863   5.009   4.894   7.008 -0.1912  0.2430 -0.2940
  807MOL0     C 8864   4.984   5.308   7.198  0.2729  0.6395  0.5324
  807MOL0     C 8865   5.071   5.415   7.169  0.7328  0.6068 -0.2767
  807MOL0     C 8866   5.087   5.517   7.254  0.7556 -0.4496  0.3428
  807MOL0     C 8867   5.006   5.530   7.372 -0.0608  0.8926 -0.4625
  807MOL0     O 8868   5.007   5.636   7.458 -0.4381  0.2658 -0.2558
  807MOL0     C 8869   5.026   5.599   7.592  0.8443  0.2061 -0.6587
  807MOL0     C 8870   5.037   5.728   7.682 -0.0027  0.2362 -0.2246
  807MOL0     C 8871   4.931   5.828   7.643  0.1146 -0.3981  0.2659
  807MOL0     C 8872   4.784   5.786   7.682 -0.5169 -0.6364 -0.5373
  807MOL0     C 8873   4.765   5.782   7.826  0.3416 -0.9422 -0.0796
  807MOL0     C 8874   4.765   5.787   7.944  0.3413 -0.0375  0.0737
  807MOL0     C 8875   4.909   5.431   7.390  0.4806 -0.2805 -0.1638
  807MOL0     C 8876   4.893   5.323   7.307 -0.7451 -1.3347 -0.1596
  807MOL0     C 8877   4.770   5.238   7.320  0.8364 -0.0008 -0.1855
  807MOL0     H 8878   4.708   5.051   7.019 -1.2752  0.0652 -1.8349
  807MOL0     H 8879   4.644   4.876   6.876 -0.1355  1.8853 -1.5280
  807MOL0     H 8880   4.664   4.544   6.935 -0.5632 -0.2756  0.0497
  807MOL0     H 8881   4.583   4.684   6.841  1.4836  1.5758  1.2189
  807MOL0     H 8882   4.696   4.432   6.714  0.2253 -0.4196  1.4721
  807MOL0     H 8883   4.619   4.572   6.639 -1.7788 -1.6253 -1.9643
  807MOL0     H 8884   4.498   4.376   6.840  2.1878  0.4280 -0.5068
  807MOL0     H 8885   4.486   4.350   6.669 -2.2483  0.5692 -0.3740
  807MOL0     H 8886   4.315   4.548   6.664 -1.8402  1.4337  2.0390
  807MOL0     H 8887   4.258   4.394   6.732  1.5519 -1.0761  0.7284
  807MOL0     H 8888   4.300   4.495   6.957  1.1930  2.1274  2.3557
  807MOL0     H 8889   4.369   4.640   6.892 -0.2425 -0.1962  0.8532
  807MOL0     H 8890   4.165   4.702   6.769 -1.5241 -0.3350 -1.6720
  807MOL0     H 8891   4.082   4.551   6.808  1.7389 -0.0442  0.4007
  807MOL0     H 8892   4.189   4.708   7.039 -0.1676  1.5757 -1.3233
  807MOL0     H 8893   4.043   4.598   7.019 -2.2856 -0.2050 -2.8135
  807MOL0     H 8894   4.094   4.863   6.895 -1.1339  1.5343  2.0480
  807MOL0     H 8895   3.939   4.790   6.871 -0.0546 -0.7451 -0.5737
  807MOL0     H 8896   3.962   4.705   7.227 -0.6905 -0.8405 -0.0294
  807MOL0     H 8897   3.769   4.973   7.418 -1.6830 -1.3006  0.8418
  807MOL0     H 8898   3.792   4.802   7.423 -1.9853  1.4253  2.2313
  807MOL0     H 8899   4.033   4.824   7.507 -3.2636 -1.7266  0.6073
  807MOL0     H 8900   4.011   5.000   7.473 -2.1021  0.5072 -1.6704
  807MOL0     H 8901   3.858   4.841   7.682  0.0685 -0.4114 -0.4960
  807MOL0     H 8902   3.834   5.014   7.657 -1.7629 -1.8703  1.3022
  807MOL0     H 8903   4.061   5.067   7.689 -0.7386 -0.1293  0.5325
  807MOL0     H 8904   4.116   4.904   7.730  0.2381 -0.1057 -1.0293
  807MOL0     H 8905   3.783   5.134   7.829  0.4239 -0.3814 -0.5638
  807MOL0     H 8906   3.748   5.365   7.941  0.6188  0.8473 -0.4251
  807MOL0     H 8907   3.943   5.526   8.401 -1.6240  1.4123  0.3957
  807MOL0     H 8908   3.923   5.708   8.564 -1.9820 -2.0854 -1.5748
  807MOL0     H 8909   3.783   6.023   8.468 -1.2036 -0.9808  1.2148
  807MOL0     H 8910   3.813   5.932   8.613 -0.7765  1.6932  1.0866
  807MOL0     H 8911   3.943   6.117   8.712  1.1648 -0.7324 -1.3892
  807MOL0     H 8912   3.889   6.225   8.567 -1.7541 -1.2852 -1.9765
  807MOL0     H 8913   3.695   6.090   8.752 -0.2610 -0.3586  2.1032
  807MOL0     H 8914   3.767   6.242   8.810  0.1053 -2.0442  1.6150
  807MOL0     H 8915   3.639   6.229   8.538  2.5256  1.2606  0.2263
  807MOL0     H 8916   3.673   6.374   8.616 -1.9341  0.8826 -0.2465
  807MOL0     H 8917   3.504   6.292   8.809 -2.7679 -1.4420  0.0444
  807MOL0     H 8918   3.467   6.154   8.711  1.0645 -0.0131  0.0798
  807MOL0     H 8919   3.306   6.321   8.670  1.0463 -0.3068  2.8618
  807MOL0     H 8920   3.421   6.440   8.614  0.2866  0.4379  0.6325
  807MOL0     H 8921   3.376   6.174   8.488  1.3238 -1.0161  0.2991
  807MOL0     H 8922   3.476   6.296   8.410 -1.1794 -2.7593 -1.2656
  807MOL0     H 8923   3.166   6.318   8.476  0.8682  0.5260  0.9063
  807MOL0     H 8924   3.268   6.450   8.424  0.5061 -0.1258 -1.1936
  807MOL0     H 8925   4.042   5.994   8.275 -1.8479  0.9305 -0.1044
  807MOL0     H 8926   4.064   5.797   8.100 -0.9306 -0.2332 -0.4011
  807MOL0     H 8927   4.154   5.342   8.095  1.0246  0.7456  0.1270
  807MOL0     H 8928   4.176   5.125   7.999  1.9928  1.3877 -1.5747
  807MOL0     H 8929   5.053   4.731   6.882  2.3331  2.1568  0.9168
  807MOL0     H 8930   5.105   4.905   7.057 -1.5123 -0.5241  2.7467
  807MOL0     H 8931   5.141   5.403   7.086  1.2417 -4.9423  0.5786
  807MOL0     H 8932   5.164   5.592   7.236 -0.2575  0.4106 -0.5579
  807MOL0     H 8933   5.117   5.538   7.591 -0.9175 -2.6053 -1.5331
  807MOL0     H 8934   4.945   5.537   7.632  0.0027  2.7360  1.9132
  807MOL0     H 8935   5.137   5.763   7.655  0.2757  0.3341  0.8844
  807MOL0     H 8936   5.042   5.708   7.790  2.1799  3.7884  0.5036
  807MOL0     H 8937   4.935   5.848   7.536 -1.7066  0.2566  0.2957
  807MOL0     H 8938   4.951   5.922   7.695 -2.9520  1.3042 -1.3816
  807MOL0     H 8939   4.710   5.858   7.647  1.0661  0.4877 -1.6752
  807MOL0     H 8940   4.771   5.689   7.632  1.6454 -1.7603  0.8916
  807MOL0     H 8941   4.791   5.795   8.048  0.7186 -3.1099  0.2912
  807MOL0     H 8942   4.845   5.447   7.476  3.9338 -1.2661  2.8765
  807MOL0     H 8943   4.737   5.197   7.224  2.8902 -1.8463 -0.1835
  807MOL0     H 8944   4.794   5.152   7.383  0.4573 -1.4865 -1.9727
  807MOL0     H 8945   4.686   5.291   7.364  2.1654  1.5907  0.5353
  808MOL0     O 8946   9.860   2.704   5.515  0.3544 -0.0588 -0.3172
  808MOL0     C 8947   9.786   2.603   5.518  0.6318 -0.1046 -0.5029
  808MOL0     O 8948   9.673   2.587   5.442  0.0615 -0.1485 -0.0085
  808MOL0     C 8949   9.659   2.660   5.324  1.4748  0.3445 -1.3351
  808MOL0     C 8950   9.568   2.773   5.316  0.6755 -0.2630 -0.4973
  808MOL0     C 8951   9.559   2.855   5.204 -0.8941  0.2739  0.4753
  808MOL0     C 8952   9.640   2.815   5.095 -0.0913  0.0207 -0.0496
  808MOL0     O 8953   9.642   2.892   4.981 -0.1699 -0.3757  0.0686
  808MOL0     C 8954   9.678   2.843   4.860  0.4782  0.5876 -0.0603
  808MOL0     C 8955   9.592   2.903   4.749  0.0357 -0.6317 -0.0555
  808MOL0     C 8956   9.603   3.056   4.758 -0.3461  0.0541 -0.3711
  808MOL0     C 8957   9.536   3.126   4.638  0.9342 -0.4440 -0.1876
  808MOL0     C 8958   9.643   3.180   4.537 -0.2220  0.0465  0.1842
  808MOL0     C 8959   9.741   3.074   4.482  0.0804  0.1237  0.9111
  808MOL0     C 8960   9.826   3.123   4.361  0.3768 -0.4817  0.2475
  808MOL0     C 8961   9.777   3.052   4.232 -0.5270  0.0881 -0.1508
  808MOL0     N 8962   9.653   3.101   4.183  0.0903 -0.5432 -0.2750
  808MOL0     C 8963   9.650   3.205   4.096  0.0204 -0.8347 -0.3435
  808MOL0     C 8964   9.522   3.251   4.097  0.8569 -0.0076 -0.5253
  808MOL0     C 8965   9.476   3.367   4.007  1.1224 -0.0688 -0.8752
  808MOL0     C 8966   9.396   3.315   3.886  0.4293 -0.2778 -0.2423
  808MOL0     C 8967   9.261   3.241   3.944 -0.4647  0.9003 -0.7609
  808MOL0     C 8968   9.139   3.235   3.858 -1.1429  0.3091  0.2865
  808MOL0     O 8969   9.121   3.356   3.777 -0.0235 -0.2277 -0.0204
  808MOL0     C 8970   9.050   3.337   3.656  0.4840 -0.0203  0.1166
  808MOL0     C 8971   9.076   3.400   3.540 -0.4204  0.1310  0.6727
  808MOL0     C 8972   9.016   3.379   3.415  0.2355 -0.6992 -0.4287
  808MOL0     C 8973   8.908   3.281   3.409  0.8063  0.0985  0.3805
  808MOL0     C 8974   8.840   3.257   3.284  0.7236  1.0967  0.1887
  808MOL0     O 8975   8.712   3.214   3.305 -0.2868  0.1306  0.2238
  808MOL0     C 8976   8.614   3.244   3.213 -0.5435 -0.1372 -0.0300
  808MOL0     C 8977   8.618   3.190   3.077 -0.2548  0.0333  0.9199
  808MOL0     C 8978   8.514   3.214   2.987  0.1093  0.3035  0.3097
  808MOL0     C 8979   8.399   3.286   3.026 -0.6723  1.1566  0.4814
  808MOL0     O 8980   8.308   3.331   2.936 -0.8580  0.2198  0.6368
  808MOL0     C 8981   8.265   3.213   2.859 -0.0707 -1.2070  0.1512
  808MOL0     C 8982   8.196   3.270   2.738 -1.0177 -0.0742 -0.8255
  808MOL0     C 8983   8.110   3.172   2.669  0.6545 -0.7144 -0.3291
  808MOL0     C 8984   8.004   3.244   2.571 -0.5715  0.1393 -0.0759
  808MOL0     C 8985   7.902   3.142   2.517  0.4989  0.4790  0.7087
  808MOL0     C 8986   7.807   3.204   2.403  0.6128 -0.6100 -0.3561
  808MOL0     C 8987   7.734   3.337   2.458  0.2359 -0.3665 -0.2058
  808MOL0     C 8988   7.622   3.385   2.376 -0.2342 -0.5761 -0.6680
  808MOL0    Cl 8989   7.676   3.384   2.210  0.1336 -0.0773  0.3660
  808MOL0     C 8990   8.391   3.341   3.153 -1.4306 -0.3591 -0.4581
  808MOL0     C 8991   8.494   3.320   3.247 -0.0012 -1.1357  0.0847
  808MOL0     O 8992   8.896   3.269   3.177  0.2013  1.0052  0.6629
  808MOL0     C 8993   8.867   3.224   3.532 -0.0932 -0.7227 -0.0194
  808MOL0     C 8994   8.937   3.256   3.658 -0.1235  0.4399  1.0039
  808MOL0     N 8995   9.446   3.173   4.187 -0.8646  0.5192 -0.1816
  808MOL0     N 8996   9.526   3.077   4.234 -1.1191 -0.3854 -0.5740
  808MOL0     C 8997   9.727   2.707   5.107 -0.5782  0.1413  0.0901
  808MOL0     C 8998   9.735   2.629   5.220 -0.3171 -0.0633  0.0275
  808MOL0     C 8999   9.802   2.493   5.630 -0.3595 -0.9341 -0.0561
  808MOL0     C 9000   9.712   2.393   5.638  0.8006  0.1414 -0.7553
  808MOL0     C 9001   9.730   2.283   5.721  0.9343  0.9293 -1.4851
  808MOL0     C 9002   9.826   2.271   5.818  1.1860  0.6295  0.7563
  808MOL0     O 9003   9.834   2.161   5.901 -0.1669 -0.2175  0.0862
  808MOL0     C 9004   9.727   2.162   5.996  0.4662 -0.5086 -0.4931
  808MOL0     C 9005   9.723   2.047   6.096 -0.4303 -1.0704  0.6817
  808MOL0     C 9006   9.855   2.004   6.132 -0.0533  0.1015  0.5456
  808MOL0     C 9007   9.843   1.887   6.236  0.0507 -0.6205  0.1875
  808MOL0     C 9008   9.787   1.942   6.360  0.0261 -0.9044 -0.2265
  808MOL0     C 9009   9.774   1.979   6.475 -0.2418 -0.8512  0.4649
  808MOL0     C 9010   9.927   2.368   5.800 -0.1544  0.6861 -0.1639
  808MOL0     C 9011   9.922   2.470   5.705 -0.4687 -0.6502  0.5544
  808MOL0     C 9012  10.053   2.550   5.681  0.9827 -0.3985  0.1914
  808MOL0     H 9013   9.508   2.799   5.403 -0.0139  1.4394 -1.4148
  808MOL0     H 9014   9.490   2.939   5.195 -0.5181  0.6085  0.6930
  808MOL0     H 9015   9.782   2.862   4.833  1.1838 -2.1043  0.5054
  808MOL0     H 9016   9.658   2.736   4.851 -1.7561  1.0571 -1.4876
  808MOL0     H 9017   9.487   2.875   4.767  0.0661 -1.3000 -0.8370
  808MOL0     H 9018   9.627   2.868   4.651 -0.8982 -1.8840  0.0188
  808MOL0     H 9019   9.707   3.086   4.769  0.4072 -2.8089  1.3359
  808MOL0     H 9020   9.563   3.088   4.854 -0.6432 -0.4640 -0.3144
  808MOL0     H 9021   9.474   3.063   4.574 -1.6941  1.7893  0.0249
  808MOL0     H 9022   9.477   3.211   4.672  2.0221  0.3838 -0.3005
  808MOL0     H 9023   9.592   3.214   4.446 -1.1074  4.0030  1.9467
  808MOL0     H 9024   9.703   3.258   4.585 -1.3866  0.0782  1.6695
  808MOL0     H 9025   9.814   3.046   4.559  0.3531  0.8787  0.9279
  808MOL0     H 9026   9.682   2.984   4.463 -0.7469  0.1394  3.0788
  808MOL0     H 9027   9.927   3.095   4.391 -0.7802 -2.5024  2.7185
  808MOL0     H 9028   9.825   3.232   4.353  3.2637  0.1306  4.5335
  808MOL0     H 9029   9.856   3.065   4.157  0.0685  1.5641  0.6871
  808MOL0     H 9030   9.773   2.950   4.270  0.8235 -0.2607 -0.8691
  808MOL0     H 9031   9.724   3.242   4.026 -0.8852  1.9331  0.0235
  808MOL0     H 9032   9.422   3.431   4.077  0.3597 -1.7858  0.1899
  808MOL0     H 9033   9.555   3.433   3.970  1.2434 -0.6249 -1.6371
  808MOL0     H 9034   9.375   3.398   3.818  0.1686 -1.7632 -2.0590
  808MOL0     H 9035   9.458   3.243   3.833  0.9177 -2.2253  2.7435
  808MOL0     H 9036   9.243   3.286   4.043 -0.2559 -0.5801 -0.0225
  808MOL0     H 9037   9.277   3.135   3.967 -1.3347  0.7120 -1.0014
  808MOL0     H 9038   9.046   3.216   3.911 -0.4103 -2.1757  0.8385
  808MOL0     H 9039   9.155   3.152   3.788  1.7050  1.6655 -0.8616
  808MOL0     H 9040   9.151   3.478   3.535  0.6765 -0.9393 -0.2810
  808MOL0     H 9041   9.030   3.451   3.334  0.3210 -0.6943 -0.4097
  808MOL0     H 9042   8.697   3.124   3.042 -0.1495 -1.3242  3.4315
  808MOL0     H 9043   8.531   3.185   2.884  1.6093  1.9018  0.0517
  808MOL0     H 9044   8.344   3.145   2.825  1.0107  0.5906 -1.1385
  808MOL0     H 9045   8.203   3.151   2.925  1.0431 -0.9396  1.5078
  808MOL0     H 9046   8.127   3.346   2.775 -0.5127 -0.7654  1.7271
  808MOL0     H 9047   8.262   3.319   2.665 -2.4889  3.1951 -0.1242
  808MOL0     H 9048   8.174   3.120   2.598 -2.5110  0.2113 -4.2224
  808MOL0     H 9049   8.054   3.109   2.738  2.6914 -1.2366  0.9506
  808MOL0     H 9050   8.064   3.286   2.490 -0.1928 -1.8159 -0.8676
  808MOL0     H 9051   7.947   3.315   2.632 -1.1718 -0.8965  0.5839
  808MOL0     H 9052   7.842   3.097   2.597 -1.9284  1.3395 -0.5234
  808MOL0     H 9053   7.955   3.058   2.472 -2.1442 -0.7414 -0.3758
  808MOL0     H 9054   7.871   3.222   2.316  2.5485 -4.8829 -0.0520
  808MOL0     H 9055   7.728   3.131   2.383  0.3288 -0.1034 -1.1406
  808MOL0     H 9056   7.801   3.423   2.464 -1.2068  0.8270 -0.6340
  808MOL0     H 9057   7.705   3.319   2.562  0.2023 -1.8163 -0.4410
  808MOL0     H 9058   7.535   3.320   2.383 -1.1255  0.6621  0.1846
  808MOL0     H 9059   7.605   3.490   2.400 -0.0385  0.3203 -3.9131
  808MOL0     H 9060   8.314   3.412   3.180 -0.3890  0.7350 -0.2721
  808MOL0     H 9061   8.506   3.353   3.350  1.0377 -2.9448  0.5868
  808MOL0     H 9062   8.785   3.154   3.522 -1.5843  1.2808 -3.9925
  808MOL0     H 9063   8.895   3.213   3.748 -1.5850 -0.3462 -0.0258
  808MOL0     H 9064   9.794   2.700   5.022 -2.0190 -0.3778 -1.0441
  808MOL0     H 9065   9.811   2.551   5.224  0.8597  0.9596 -1.2065
  808MOL0     H 9066   9.613   2.387   5.594 -0.9489 -2.5808  2.9562
  808MOL0     H 9067   9.651   2.211   5.742 -0.7689  3.0960 -0.0989
  808MOL0     H 9068   9.630   2.188   5.953  1.3230  2.6863 -0.7933
  808MOL0     H 9069   9.740   2.250   6.060 -0.4407 -0.5889 -0.1743
  808MOL0     H 9070   9.674   1.963   6.045  0.5604 -0.1457 -1.9487
  808MOL0     H 9071   9.662   2.078   6.181  0.8380 -0.3061  1.3353
  808MOL0     H 9072   9.914   2.089   6.170  0.2885  0.4719 -0.7733
  808MOL0     H 9073   9.901   1.951   6.048 -2.2710 -0.9403 -0.0842
  808MOL0     H 9074   9.785   1.813   6.181  0.8595 -0.7717 -0.4661
  808MOL0     H 9075   9.945   1.850   6.248 -0.4763 -1.7934  1.2478
  808MOL0     H 9076   9.762   2.021   6.573  1.1041 -1.1365  0.7787
  808MOL0     H 9077  10.007   2.337   5.866 -1.5724 -1.5368  0.6032
  808MOL0     H 9078  10.053   2.653   5.717  0.4142 -0.2909 -0.1049
  808MOL0     H 9079  10.138   2.497   5.724  0.0699 -0.6133  1.7842
  808MOL0     H 9080  10.064   2.561   5.572  0.6877 -0.5768  0.1423
  809MOL0     O 9081   3.596   1.825   6.566 -0.6363 -0.2776 -0.4335
  809MOL0     C 9082   3.487   1.820   6.611 -0.3221  0.3030 -0.3078
  809MOL0     O 9083   3.460   1.802   6.747  0.8373 -0.1649  1.0863
  809MOL0     C 9084   3.572   1.777   6.822 -0.2430  0.8141 -0.2792
  809MOL0     C 9085   3.642   1.885   6.887  0.8247  0.4073  0.1590
  809MOL0     C 9086   3.762   1.858   6.947 -0.3520 -0.6313  0.1212
  809MOL0     C 9087   3.835   1.740   6.928  0.4152  0.5358 -0.1227
  809MOL0     O 9088   3.958   1.739   6.990 -0.6548  0.3801 -0.2833
  809MOL0     C 9089   4.048   1.627   6.954 -0.6709 -0.6870  0.1037
  809MOL0     C 9090   4.173   1.617   7.035  0.2288  0.5463  0.2222
  809MOL0     C 9091   4.255   1.493   7.013 -1.0195 -0.2564 -0.3892
  809MOL0     C 9092   4.182   1.363   6.967  0.0494  0.1351  0.4800
  809MOL0     C 9093   4.257   1.239   6.932 -0.4379 -0.1657 -0.0494
  809MOL0     C 9094   4.394   1.279   6.884 -0.4828 -0.8659  0.2317
  809MOL0     C 9095   4.457   1.152   6.828  0.1300 -0.2366 -0.6562
  809MOL0     C 9096   4.554   1.180   6.711 -0.0642 -0.1984  0.3765
  809MOL0     N 9097   4.491   1.225   6.587 -0.0246 -0.4406 -0.2763
  809MOL0     C 9098   4.412   1.157   6.492  1.3542 -0.1001  0.4566
  809MOL0     C 9099   4.375   1.256   6.410 -1.2569 -0.5996  0.9915
  809MOL0     C 9100   4.268   1.229   6.305 -0.1362 -0.4035  0.0264
  809MOL0     C 9101   4.335   1.132   6.204 -0.2593 -0.2148  0.6540
  809MOL0     C 9102   4.279   1.144   6.060 -0.0479  0.0986 -0.1497
  809MOL0     C 9103   4.133   1.112   6.041  0.6298 -0.6922 -0.1386
  809MOL0     O 9104   4.093   1.113   5.903 -0.1981  0.3200  0.1787
  809MOL0     C 9105   4.088   1.243   5.849  0.5561 -0.4750  0.3554
  809MOL0     C 9106   4.197   1.312   5.801  0.3267  0.0289  0.2898
  809MOL0     C 9107   4.191   1.447   5.753 -0.0964 -0.5941 -0.4044
  809MOL0     C 9108   4.070   1.514   5.747 -0.2672 -0.2825 -0.9220
  809MOL0     C 9109   4.071   1.657   5.741 -0.1402  0.6134 -0.4417
  809MOL0     O 9110   3.953   1.724   5.754  0.5282  0.7200  0.6955
  809MOL0     C 9111   3.941   1.856   5.759  0.1081  0.4767  0.2357
  809MOL0     C 9112   3.955   1.942   5.651  0.3307 -0.2436  0.2123
  809MOL0     C 9113   3.936   2.081   5.661  0.3732 -0.9505 -0.0407
  809MOL0     C 9114   3.921   2.132   5.786 -0.3038 -0.5493  0.5782
  809MOL0     O 9115   3.944   2.266   5.796  0.3117  0.3309  0.6744
  809MOL0     C 9116   4.071   2.311   5.838  0.6037 -1.2131  0.2121
  809MOL0     C 9117   4.054   2.458   5.889  0.4460  0.0879  0.4124
  809MOL0     C 9118   4.150   2.506   5.987 -0.1769 -0.2933 -0.2305
  809MOL0     C 9119   4.278   2.553   5.912  0.1929 -1.0648 -0.0370
  809MOL0     C 9120   4.395   2.599   5.991  0.9842 -1.2562  0.5429
  809MOL0     C 9121   4.503   2.665   5.914  0.3072  0.3986  0.2798
  809MOL0     C 9122   4.465   2.794   5.822 -0.1683 -0.0154  1.4568
  809MOL0     C 9123   4.379   2.896   5.896  0.4140 -0.0998 -0.8351
  809MOL0    Cl 9124   4.438   2.953   6.053 -0.2610  0.6426 -0.2890
  809MOL0     C 9125   3.913   2.052   5.895  0.3611 -0.2822  0.8528
  809MOL0     C 9126   3.920   1.918   5.882  0.6343  0.8775  0.7163
  809MOL0     O 9127   4.180   1.709   5.717  0.2416  0.0632 -0.6062
  809MOL0     C 9128   3.958   1.448   5.789 -0.2112 -0.3905  0.0283
  809MOL0     C 9129   3.968   1.308   5.831 -0.3454 -0.5306 -0.2995
  809MOL0     N 9130   4.439   1.377   6.438  0.2349 -1.2992 -0.3676
  809MOL0     N 9131   4.503   1.356   6.549  0.3326 -0.2543  0.1049
  809MOL0     C 9132   3.766   1.633   6.866  0.2018 -0.1324 -0.2356
  809MOL0     C 9133   3.631   1.651   6.814  0.5827  0.6241 -0.3799
  809MOL0     C 9134   3.383   1.824   6.498 -0.1178  0.1028 -0.2959
  809MOL0     C 9135   3.402   1.913   6.399  0.0385 -0.0707  0.2954
  809MOL0     C 9136   3.304   1.937   6.297 -0.3038  0.0881  0.1463
  809MOL0     C 9137   3.189   1.861   6.294  0.4084  0.1621 -0.2312
  809MOL0     O 9138   3.091   1.888   6.201  1.3727  0.0106 -0.9474
  809MOL0     C 9139   3.115   1.844   6.061  0.3439 -0.6129  0.0032
  809MOL0     C 9140   3.134   1.970   5.968  0.4104  0.7637 -0.3667
  809MOL0     C 9141   3.100   1.941   5.811  0.6677  0.7899 -1.1348
  809MOL0     C 9142   3.137   2.066   5.726  0.2722 -0.0474  1.2296
  809MOL0     C 9143   3.144   2.039   5.583 -0.6422 -0.6319 -1.1127
  809MOL0     C 9144   3.126   2.020   5.467  0.1140  0.7397 -0.8278
  809MOL0     C 9145   3.156   1.768   6.394 -0.6647  0.2719 -0.3804
  809MOL0     C 9146   3.257   1.749   6.498  0.3231  0.1246 -0.4301
  809MOL0     C 9147   3.243   1.634   6.595 -0.4424 -0.7887 -0.2381
  809MOL0     H 9148   3.593   1.982   6.878  0.4402  0.0737 -2.0109
  809MOL0     H 9149   3.808   1.944   6.995 -0.4648  1.1101 -2.6449
  809MOL0     H 9150   3.994   1.538   6.988  0.0039 -0.4882  1.8282
  809MOL0     H 9151   4.072   1.631   6.848 -0.9786 -3.1715 -0.1139
  809MOL0     H 9152   4.137   1.617   7.138  0.3129 -1.5069  0.3011
  809MOL0     H 9153   4.243   1.700   7.029 -1.6743  2.3265  1.4651
  809MOL0     H 9154   4.315   1.460   7.098  1.7872 -1.0925 -2.5270
  809MOL0     H 9155   4.341   1.526   6.953 -1.2775  0.1048 -0.5668
  809MOL0     H 9156   4.109   1.342   7.046 -0.7660  1.4131  0.0979
  809MOL0     H 9157   4.128   1.395   6.877 -2.0973  2.6728  2.4951
  809MOL0     H 9158   4.266   1.187   7.028  0.2500 -0.1663 -0.1149
  809MOL0     H 9159   4.197   1.183   6.859 -1.1922 -0.6712  0.9221
  809MOL0     H 9160   4.400   1.360   6.811  2.0075  0.4416  1.7164
  809MOL0     H 9161   4.469   1.322   6.952 -0.3739 -0.0635 -0.3830
  809MOL0     H 9162   4.385   1.077   6.796  1.4084 -1.0624 -1.7293
  809MOL0     H 9163   4.516   1.113   6.912  1.8160  0.4217 -1.4833
  809MOL0     H 9164   4.630   1.256   6.736  0.5558 -0.1835 -1.3878
  809MOL0     H 9165   4.609   1.087   6.696  1.3925 -0.0266  3.7857
  809MOL0     H 9166   4.387   1.052   6.490 -0.6857  0.3574 -0.1858
  809MOL0     H 9167   4.183   1.178   6.352  1.7483 -0.9530  3.1673
  809MOL0     H 9168   4.224   1.320   6.262 -0.5889 -1.6953 -2.4154
  809MOL0     H 9169   4.440   1.157   6.188 -0.5546 -0.1091 -1.4315
  809MOL0     H 9170   4.334   1.029   6.242  1.1370  0.2676  2.0974
  809MOL0     H 9171   4.332   1.077   5.991 -1.5344 -0.6346 -0.6290
  809MOL0     H 9172   4.289   1.246   6.022  1.4927  0.0968  0.2092
  809MOL0     H 9173   4.067   1.190   6.080 -1.7243 -2.3006 -0.6891
  809MOL0     H 9174   4.107   1.023   6.099 -0.6170  0.1590  0.6632
  809MOL0     H 9175   4.301   1.282   5.812  0.1169 -1.0800 -0.5226
  809MOL0     H 9176   4.284   1.500   5.740 -0.2934  2.7959  6.9397
  809MOL0     H 9177   3.970   1.914   5.547  0.7147  1.0369 -0.0982
  809MOL0     H 9178   3.944   2.145   5.574 -3.0511 -0.8912 -0.4339
  809MOL0     H 9179   4.096   2.251   5.926  0.4789 -0.6158  0.6659
  809MOL0     H 9180   4.151   2.303   5.764 -0.5604  0.8742 -1.4002
  809MOL0     H 9181   4.037   2.529   5.808 -0.7001  0.1688  0.6999
  809MOL0     H 9182   3.957   2.451   5.939 -1.4806 -0.9819 -3.1159
  809MOL0     H 9183   4.104   2.590   6.041 -2.8856 -0.2719 -2.3546
  809MOL0     H 9184   4.178   2.437   6.066  0.1113 -0.1411 -0.1999
  809MOL0     H 9185   4.243   2.629   5.841  1.6807 -2.1159 -1.9762
  809MOL0     H 9186   4.315   2.472   5.849  0.2578 -1.1619  0.1258
  809MOL0     H 9187   4.433   2.505   6.034  2.4020 -0.9978 -0.0980
  809MOL0     H 9188   4.356   2.670   6.064 -1.8182  2.2841 -3.8802
  809MOL0     H 9189   4.589   2.681   5.980  0.9363  0.1117 -0.4490
  809MOL0     H 9190   4.540   2.586   5.848 -0.3450 -2.0441  2.6338
  809MOL0     H 9191   4.416   2.764   5.729 -0.1976  2.6155  0.5223
  809MOL0     H 9192   4.555   2.845   5.789 -2.0233  0.9617 -2.7536
  809MOL0     H 9193   4.356   2.982   5.833  0.0938  1.7617  1.6346
  809MOL0     H 9194   4.279   2.854   5.912  1.8941 -3.6532  0.0828
  809MOL0     H 9195   3.902   2.105   5.989 -1.0724 -0.0115  0.5540
  809MOL0     H 9196   3.916   1.856   5.972  0.7430 -1.4220 -0.7772
  809MOL0     H 9197   3.863   1.501   5.797 -0.4778 -0.6299 -1.2797
  809MOL0     H 9198   3.870   1.264   5.846 -1.4016  1.4357 -1.1125
  809MOL0     H 9199   3.819   1.541   6.846  0.8782 -0.1047  1.2811
  809MOL0     H 9200   3.583   1.573   6.757  3.0012 -1.5258  0.3189
  809MOL0     H 9201   3.497   1.965   6.396 -1.1883  2.2796 -2.1744
  809MOL0     H 9202   3.328   2.007   6.218 -1.1072  2.0097  1.5074
  809MOL0     H 9203   3.031   1.785   6.023 -1.5558 -0.0063  2.9587
  809MOL0     H 9204   3.207   1.785   6.054 -1.4557 -4.0243  2.1966
  809MOL0     H 9205   3.239   2.001   5.963 -0.2015  2.9754 -0.5300
  809MOL0     H 9206   3.082   2.057   6.010 -0.6949  0.6691 -1.4826
  809MOL0     H 9207   2.991   1.932   5.805 -0.2005  5.7372  1.5866
  809MOL0     H 9208   3.156   1.852   5.782  2.1835  0.8545  1.3759
  809MOL0     H 9209   3.060   2.139   5.754 -0.3709 -0.1733 -0.1041
  809MOL0     H 9210   3.226   2.114   5.767  0.9103  2.2215 -2.3154
  809MOL0     H 9211   3.122   1.994   5.364 -1.5711  0.0896 -0.6290
  809MOL0     H 9212   3.068   1.707   6.378 -1.7636  0.2813  4.2684
  809MOL0     H 9213   3.273   1.656   6.698  0.2310 -1.9015 -0.1829
  809MOL0     H 9214   3.142   1.591   6.587 -2.2505  3.3278 -3.4196
  809MOL0     H 9215   3.308   1.553   6.564 -1.1878 -0.5339 -2.6165
  810MOL0     O 9216   4.907  10.130   6.069 -0.3492  0.3363 -0.2615
  810MOL0     C 9217   4.972  10.029   6.045 -0.4588  0.6315  0.0682
  810MOL0     O 9218   5.086   9.987   6.109  0.2993 -0.2877 -0.6348
  810MOL0     C 9219   5.129  10.059   6.217  0.3160 -0.3188  0.7124
  810MOL0     C 9220   5.069  10.042   6.341 -0.0166  0.3750 -0.5006
  810MOL0     C 9221   5.114  10.101   6.456  0.6073 -0.1782  0.2552
  810MOL0     C 9222   5.217  10.206   6.437  1.0085 -0.1432 -0.1779
  810MOL0     O 9223   5.238  10.268   6.560  0.8020  0.4664 -0.1407
  810MOL0     C 9224   5.325  10.383   6.552 -0.3294  0.0255  0.5711
  810MOL0     C 9225   5.311  10.464   6.674 -0.2439  0.4008 -0.8778
  810MOL0     C 9226   5.217  10.581   6.675  0.3023 -0.2361  0.2355
  810MOL0     C 9227   5.197  10.633   6.826  0.1442  0.3228 -0.4039
  810MOL0     C 9228   5.097  10.757   6.841 -0.3846 -0.1389 -1.2673
  810MOL0     C 9229   5.082  10.790   6.985 -0.3923 -0.1508 -0.0696
  810MOL0     C 9230   4.982  10.902   7.000 -0.3223  0.1086  0.5306
  810MOL0     C 9231   5.007  11.051   7.021 -0.0024  0.4542  0.4327
  810MOL0     N 9232   4.895  11.145   6.975  0.5803 -0.7806 -0.1798
  810MOL0     C 9233   4.793  11.188   7.056 -0.0493  0.4890  0.5711
  810MOL0     C 9234   4.714  11.252   6.968  0.7412  0.2579 -0.1222
  810MOL0     C 9235   4.589  11.324   7.010 -0.7834 -0.7138 -0.0821
  810MOL0     C 9236   4.469  11.251   7.069 -0.9777  0.0733 -0.8088
  810MOL0     C 9237   4.374  11.338   7.141  0.7346  0.0177  1.3590
  810MOL0     C 9238   4.365  11.306   7.280  0.0004  0.4859  0.0697
  810MOL0     O 9239   4.276  11.398   7.350  0.2017 -0.4074  0.4483
  810MOL0     C 9240   4.140  11.368   7.346 -0.6282 -0.2207  0.0435
  810MOL0     C 9241   4.086  11.257   7.280 -0.5244 -0.6223  1.1732
  810MOL0     C 9242   3.949  11.242   7.266 -0.6805  0.3560  0.1582
  810MOL0     C 9243   3.864  11.334   7.322  0.7741  0.1828  0.4075
  810MOL0     C 9244   3.713  11.320   7.322 -0.2912 -0.4067  0.3768
  810MOL0     O 9245   3.657  11.202   7.300  0.5979  0.4652 -0.5536
  810MOL0     C 9246   3.520  11.185   7.290  0.3740 -1.1747  1.2232
  810MOL0     C 9247   3.447  11.265   7.198  0.4768  0.9873  0.4363
  810MOL0     C 9248   3.312  11.252   7.188 -0.2415  0.0684  0.8531
  810MOL0     C 9249   3.242  11.159   7.266 -0.0042 -0.3644 -0.2795
  810MOL0     O 9250   3.107  11.137   7.265  0.1310  1.5313  0.1991
  810MOL0     C 9251   3.011  11.221   7.201 -0.1018  0.6524  0.0099
  810MOL0     C 9252   2.998  11.188   7.044 -0.1506 -0.5220 -0.6634
  810MOL0     C 9253   2.855  11.179   7.012 -0.5997 -0.5203 -0.3924
  810MOL0     C 9254   2.830  11.211   6.868 -0.2111 -0.5414 -0.4658
  810MOL0     C 9255   2.677  11.209   6.824 -0.8615  0.2341  0.0126
  810MOL0     C 9256   2.593  11.104   6.877  0.7023  0.7579  0.2257
  810MOL0     C 9257   2.464  11.102   6.815  0.2591 -0.9463  0.2776
  810MOL0     C 9258   2.365  11.010   6.874 -0.2554  0.6441  0.1432
  810MOL0    Cl 9259   2.222  10.983   6.778  0.3690  0.0707  0.1607
  810MOL0     C 9260   3.315  11.071   7.350 -0.0291  0.4995  0.0391
  810MOL0     C 9261   3.455  11.077   7.355 -0.3581  0.3205  0.7690
  810MOL0     O 9262   3.649  11.420   7.351 -0.2803 -0.4543  0.6503
  810MOL0     C 9263   3.919  11.441   7.399 -0.1773  0.5521  0.0292
  810MOL0     C 9264   4.054  11.454   7.407  0.5626 -0.7566  0.6527
  810MOL0     N 9265   4.777  11.245   6.837  0.2160  0.6340 -0.4998
  810MOL0     N 9266   4.888  11.181   6.854  0.7031  0.3912  0.6353
  810MOL0     C 9267   5.278  10.222   6.316 -0.8000  0.1494 -0.1786
  810MOL0     C 9268   5.232  10.153   6.206 -0.4784 -0.3399 -0.1136
  810MOL0     C 9269   4.924   9.946   5.928  0.9054  0.4830  0.2403
  810MOL0     C 9270   4.993   9.826   5.902 -0.3563  1.4160 -0.3656
  810MOL0     C 9271   4.964   9.738   5.804  0.9019  0.7326 -0.4309
  810MOL0     C 9272   4.866   9.766   5.718  0.2866 -0.1768  0.7789
  810MOL0     O 9273   4.851   9.669   5.622  0.8840  0.5983 -0.1339
  810MOL0     C 9274   4.739   9.685   5.534 -0.0818 -0.5187 -0.1148
  810MOL0     C 9275   4.593   9.672   5.585 -0.1495  0.2003  1.1934
  810MOL0     C 9276   4.590   9.584   5.711 -0.7451  0.6223  0.1349
  810MOL0     C 9277   4.456   9.539   5.750  0.8875  0.2631 -0.2270
  810MOL0     C 9278   4.463   9.447   5.865  0.2164 -0.5661  0.7464
  810MOL0     C 9279   4.456   9.382   5.965  0.1565  0.5269 -0.7286
  810MOL0     C 9280   4.796   9.892   5.731 -0.6434 -0.4034 -0.8057
  810MOL0     C 9281   4.815   9.972   5.841 -1.0995 -0.4454  0.6595
  810MOL0     C 9282   4.701  10.078   5.857 -0.5080  0.1072  0.6262
  810MOL0     H 9283   4.989   9.968   6.340 -0.4025  0.6382  2.4636
  810MOL0     H 9284   5.067  10.074   6.550 -2.2681 -3.1493 -1.8028
  810MOL0     H 9285   5.428  10.347   6.549 -1.1492 -2.5722  1.1462
  810MOL0     H 9286   5.309  10.453   6.469  1.6000 -0.0573  0.0744
  810MOL0     H 9287   5.405  10.495   6.719 -1.6816 -0.7711  3.5135
  810MOL0     H 9288   5.274  10.397   6.753  1.9452  0.6005  0.3996
  810MOL0     H 9289   5.127  10.563   6.616 -0.1004  1.4334  0.3005
  810MOL0     H 9290   5.264  10.660   6.616 -0.9824 -1.6697 -2.9692
  810MOL0     H 9291   5.162  10.546   6.883 -0.8372  1.5748  0.9603
  810MOL0     H 9292   5.293  10.665   6.867  1.5213  1.1788 -3.9243
  810MOL0     H 9293   5.146  10.843   6.794  1.0642 -0.2896 -0.0736
  810MOL0     H 9294   5.000  10.740   6.792 -0.3645  1.3891 -1.8896
  810MOL0     H 9295   5.035  10.701   7.029 -1.0877 -0.1548 -0.7789
  810MOL0     H 9296   5.182  10.811   7.024  0.2626  1.2075 -2.2701
  810MOL0     H 9297   4.929  10.872   7.091  1.2574 -0.3304  1.3484
  810MOL0     H 9298   4.905  10.905   6.923  0.4134  0.7387 -0.1999
  810MOL0     H 9299   5.035  11.066   7.125  1.6446 -2.4443  0.5193
  810MOL0     H 9300   5.100  11.083   6.972  1.0982  0.8452  2.6608
  810MOL0     H 9301   4.779  11.165   7.161 -1.7695 -1.1671  0.0398
  810MOL0     H 9302   4.619  11.399   7.083 -0.0697 -1.2982  0.2328
  810MOL0     H 9303   4.566  11.375   6.917  1.2143  0.6841  0.1383
  810MOL0     H 9304   4.411  11.200   6.992  0.5423 -0.0104 -1.9341
  810MOL0     H 9305   4.510  11.174   7.135 -1.8014 -0.4253 -0.8696
  810MOL0     H 9306   4.280  11.321   7.088  0.3772 -2.5360  2.6602
  810MOL0     H 9307   4.389  11.444   7.117 -1.4017 -0.5281 -3.7347
  810MOL0     H 9308   4.456  11.334   7.334 -0.6667 -0.9983  2.0702
  810MOL0     H 9309   4.359  11.199   7.298  2.9517  0.3830  1.0190
  810MOL0     H 9310   4.145  11.182   7.227  0.3878 -0.9926  2.6712
  810MOL0     H 9311   3.914  11.149   7.223 -1.1780 -0.3888  2.0489
  810MOL0     H 9312   3.503  11.328   7.129  0.3341 -0.7590 -1.3878
  810MOL0     H 9313   3.264  11.315   7.113 -0.4978 -0.3985  0.6155
  810MOL0     H 9314   2.913  11.199   7.244 -0.2932  1.3590 -0.0581
  810MOL0     H 9315   3.026  11.329   7.212 -0.3618  0.7174 -0.2593
  810MOL0     H 9316   3.035  11.276   6.992  1.9992 -1.9290 -1.6494
  810MOL0     H 9317   3.062  11.103   7.019  4.7572  2.3937  0.8274
  810MOL0     H 9318   2.814  11.079   7.027 -2.4628 -0.0860 -2.0927
  810MOL0     H 9319   2.796  11.244   7.078 -2.6169 -4.2435  1.8314
  810MOL0     H 9320   2.878  11.140   6.800 -0.9974 -1.9589  0.4143
  810MOL0     H 9321   2.867  11.310   6.841 -1.6024  0.1886  0.2269
  810MOL0     H 9322   2.675  11.204   6.714 -0.4228  0.3453 -0.0029
  810MOL0     H 9323   2.633  11.307   6.845 -0.3931  0.8306 -1.5980
  810MOL0     H 9324   2.646  11.009   6.880 -1.1033 -0.3079  0.0185
  810MOL0     H 9325   2.578  11.124   6.984  2.0487 -1.5822  0.9197
  810MOL0     H 9326   2.477  11.072   6.710 -0.6203 -1.5086  0.3142
  810MOL0     H 9327   2.416  11.201   6.809  1.0755 -0.6135 -2.8193
  810MOL0     H 9328   2.417  10.915   6.887  1.8645  1.4965 -1.4720
  810MOL0     H 9329   2.335  11.025   6.978  2.4455  1.2185  0.9396
  810MOL0     H 9330   3.259  11.011   7.421 -0.7562  0.5426 -0.4946
  810MOL0     H 9331   3.510  11.006   7.416 -1.7782 -2.6377 -1.1863
  810MOL0     H 9332   3.857  11.511   7.453 -1.6564 -0.0991 -0.7873
  810MOL0     H 9333   4.097  11.548   7.441  0.4657 -1.0663  1.6720
  810MOL0     H 9334   5.348  10.305   6.313  0.3318 -0.7953 -0.2319
  810MOL0     H 9335   5.280  10.178   6.112  0.7691 -3.6340 -0.5038
  810MOL0     H 9336   5.072   9.799   5.972 -1.4047  0.2718  0.3988
  810MOL0     H 9337   5.018   9.644   5.813  0.7042  0.6273 -0.3526
  810MOL0     H 9338   4.762   9.601   5.468  1.2694  0.4985 -0.9907
  810MOL0     H 9339   4.752   9.778   5.477  0.7623 -0.8883 -0.5379
  810MOL0     H 9340   4.536   9.629   5.502 -0.2081  2.2080  0.1284
  810MOL0     H 9341   4.561   9.775   5.599  4.1599  1.4836  3.0255
  810MOL0     H 9342   4.643   9.636   5.791  5.0679  0.5472 -3.0922
  810MOL0     H 9343   4.656   9.498   5.693 -0.0436  1.3370 -0.8283
  810MOL0     H 9344   4.390   9.620   5.783 -1.7872 -1.1745 -1.6745
  810MOL0     H 9345   4.404   9.478   5.676 -0.9799 -1.5588  2.4261
  810MOL0     H 9346   4.438   9.327   6.055 -0.3018  1.7190 -0.0640
  810MOL0     H 9347   4.706   9.917   5.676 -2.4268  0.9337  2.4576
  810MOL0     H 9348   4.666  10.071   5.960 -0.0748  1.2185  0.8682
  810MOL0     H 9349   4.756  10.171   5.839  0.6114 -0.5762  0.3779
  810MOL0     H 9350   4.616  10.074   5.789 -1.0493  0.3389  1.2879
  811MOL0     O 9351  11.345   9.065   7.071 -0.2886  0.3680 -0.5894
  811MOL0     C 9352  11.255   8.984   7.075  0.4542 -0.5249 -0.0731
  811MOL0     O 9353  11.231   8.908   7.175 -0.2057  0.1512 -0.0939
  811MOL0     C 9354  11.317   8.892   7.284 -0.4734  0.0781 -0.3789
  811MOL0     C 9355  11.396   8.784   7.285  0.0503  1.4272  0.1916
  811MOL0     C 9356  11.469   8.771   7.400  0.6388  0.2674 -0.3052
  811MOL0     C 9357  11.472   8.855   7.505  0.3655  0.4063  0.0534
  811MOL0     O 9358  11.551   8.833   7.620  0.8869  0.1698  0.3288
  811MOL0     C 9359  11.591   8.948   7.684  0.0871 -0.5920  0.0678
  811MOL0     C 9360  11.722   8.928   7.764 -0.6924  0.0262  0.9123
  811MOL0     C 9361  11.767   9.044   7.843  0.5399 -0.1954  0.2588
  811MOL0     C 9362  11.768   9.188   7.778 -0.0838  0.2371  0.1831
  811MOL0     C 9363  11.838   9.284   7.876  0.1184  0.0056 -0.4108
  811MOL0     C 9364  11.854   9.419   7.811  0.8463 -0.4055 -0.7632
  811MOL0     C 9365  11.904   9.531   7.905 -0.2426 -0.8417 -0.2743
  811MOL0     C 9366  12.022   9.619   7.859 -0.2943 -1.2369 -1.1041
  811MOL0     N 9367  12.151   9.548   7.849 -0.3950  0.5716 -0.1397
  811MOL0     C 9368  12.176   9.413   7.824  0.7111 -0.2513  0.6915
  811MOL0     C 9369  12.307   9.405   7.806 -0.1403 -0.3762 -0.1837
  811MOL0     C 9370  12.391   9.277   7.779 -1.8692  0.8254 -0.8718
  811MOL0     C 9371  12.401   9.172   7.899 -0.2174 -0.7665 -0.5891
  811MOL0     C 9372  12.277   9.086   7.923 -1.2622 -0.6414 -0.4115
  811MOL0     C 9373  12.260   8.967   7.833  0.3155 -0.3561  0.7136
  811MOL0     O 9374  12.167   8.993   7.724  0.8032 -0.0673  0.0432
  811MOL0     C 9375  12.218   8.993   7.598  0.1185  0.0734  0.4814
  811MOL0     C 9376  12.201   9.104   7.522  0.6036  0.0269  0.6021
  811MOL0     C 9377  12.233   9.107   7.388 -0.2735 -0.2591  0.6534
  811MOL0     C 9378  12.292   8.990   7.324 -0.6954  0.0707 -0.0022
  811MOL0     C 9379  12.328   8.981   7.185  0.4901  0.6145  0.2380
  811MOL0     O 9380  12.306   9.095   7.116 -0.2386 -0.1020 -0.1606
  811MOL0     C 9381  12.309   9.108   6.977 -0.1632 -0.5762  0.5300
  811MOL0     C 9382  12.311   9.236   6.920  0.3257 -0.6414 -0.1697
  811MOL0     C 9383  12.313   9.262   6.785 -0.4204 -0.2041 -0.4033
  811MOL0     C 9384  12.311   9.164   6.698 -0.1648  0.4431  0.0058
  811MOL0     O 9385  12.321   9.207   6.569  0.0357  0.0563 -0.0812
  811MOL0     C 9386  12.409   9.126   6.493  0.2752 -0.2963  0.2042
  811MOL0     C 9387  12.502   9.221   6.423 -0.7847  0.0197  0.0764
  811MOL0     C 9388  12.436   9.309   6.321  0.1131 -0.4790  0.3143
  811MOL0     C 9389  12.532   9.417   6.269 -0.8205  0.6975 -0.6485
  811MOL0     C 9390  12.551   9.528   6.378  0.4686 -0.4545 -0.0134
  811MOL0     C 9391  12.576   9.672   6.318  0.0555  1.3944 -0.1036
  811MOL0     C 9392  12.616   9.788   6.424  0.2872 -0.5776  0.2047
  811MOL0     C 9393  12.498   9.886   6.467  0.6567 -0.9405 -0.6241
  811MOL0    Cl 9394  12.386   9.791   6.571  0.2577  0.2043  0.2013
  811MOL0     C 9395  12.307   9.035   6.746  0.4412  0.8835 -0.8139
  811MOL0     C 9396  12.307   9.009   6.883 -0.3916  0.6753  0.3753
  811MOL0     O 9397  12.372   8.879   7.137  0.4493 -0.0270  0.2679
  811MOL0     C 9398  12.302   8.868   7.411  0.4171  0.1000  0.5593
  811MOL0     C 9399  12.262   8.881   7.546 -0.9019  0.7763  0.5046
  811MOL0     N 9400  12.367   9.529   7.814 -0.0561 -0.9476 -0.1294
  811MOL0     N 9401  12.275   9.609   7.849  0.4132  0.3780  0.4642
  811MOL0     C 9402  11.373   8.963   7.507  2.1170  0.2025  0.3331
  811MOL0     C 9403  11.296   8.982   7.393 -1.1129  0.2361  0.0291
  811MOL0     C 9404  11.186   8.963   6.943 -0.4473 -0.1474 -0.4602
  811MOL0     C 9405  11.208   9.049   6.839  0.4663  0.2498  0.5777
  811MOL0     C 9406  11.150   9.035   6.707 -0.2445 -0.8037 -0.2760
  811MOL0     C 9407  11.058   8.937   6.684  0.3848  0.9984 -0.2490
  811MOL0     O 9408  11.016   8.913   6.554 -0.0853 -0.2865 -0.3510
  811MOL0     C 9409  10.911   8.818   6.530 -0.2239  0.4314  0.4286
  811MOL0     C 9410  10.869   8.806   6.387  0.2820 -0.2900 -0.0837
  811MOL0     C 9411  10.761   8.695   6.364 -1.1108  0.2643 -0.1362
  811MOL0     C 9412  10.654   8.730   6.254 -0.5723  0.0855 -0.6654
  811MOL0     C 9413  10.681   8.688   6.118 -0.0883  0.3977 -0.3489
  811MOL0     C 9414  10.713   8.643   6.005  1.0674  1.2543  0.1363
  811MOL0     C 9415  11.023   8.848   6.784  0.6647 -0.4602 -0.2972
  811MOL0     C 9416  11.099   8.847   6.906 -0.3139 -0.4448 -0.7664
  811MOL0     C 9417  11.086   8.733   6.997  0.5214 -0.1805  0.4983
  811MOL0     H 9418  11.380   8.708   7.208 -1.3535 -0.1175  1.9139
  811MOL0     H 9419  11.539   8.688   7.410  0.9111  0.2654 -1.9901
  811MOL0     H 9420  11.605   9.028   7.611 -4.2031 -1.0732 -1.5600
  811MOL0     H 9421  11.511   8.981   7.751 -2.6252 -2.6531 -1.9259
  811MOL0     H 9422  11.801   8.912   7.690 -0.7234  2.0833  0.3712
  811MOL0     H 9423  11.702   8.844   7.831 -2.2138 -0.9331 -0.6690
  811MOL0     H 9424  11.862   9.035   7.896  0.6532 -0.3127  0.0388
  811MOL0     H 9425  11.693   9.062   7.921 -0.8852  1.3115 -1.3477
  811MOL0     H 9426  11.830   9.178   7.689 -2.1141  0.6430 -1.3427
  811MOL0     H 9427  11.664   9.219   7.768  0.3656  2.6427  2.0208
  811MOL0     H 9428  11.793   9.293   7.975  0.7687  1.3669 -0.2095
  811MOL0     H 9429  11.938   9.241   7.889  0.9435  1.7936 -0.6099
  811MOL0     H 9430  11.931   9.413   7.734  1.8439 -0.8301  0.2317
  811MOL0     H 9431  11.761   9.457   7.768  0.5918  0.7590  0.6934
  811MOL0     H 9432  11.938   9.483   7.997 -0.9924  2.2875  1.8045
  811MOL0     H 9433  11.821   9.596   7.933 -0.7156 -0.6875 -1.9020
  811MOL0     H 9434  11.997   9.668   7.764 -1.0564  1.3351  0.3248
  811MOL0     H 9435  12.034   9.702   7.929  2.9919 -1.6090 -1.0745
  811MOL0     H 9436  12.106   9.330   7.819  2.5265 -1.7756 -0.5943
  811MOL0     H 9437  12.342   9.228   7.695  1.5204  1.1400 -3.2616
  811MOL0     H 9438  12.492   9.303   7.746  0.0629  0.7764  4.1081
  811MOL0     H 9439  12.484   9.102   7.886  0.6761 -0.5788  2.9670
  811MOL0     H 9440  12.443   9.233   7.980 -0.1158 -3.0076  1.1340
  811MOL0     H 9441  12.194   9.157   7.921 -0.7421  0.0027  0.2828
  811MOL0     H 9442  12.278   9.040   8.023  0.2106 -0.7128 -0.4346
  811MOL0     H 9443  12.210   8.897   7.900  0.1176 -1.5511 -0.6441
  811MOL0     H 9444  12.355   8.930   7.792  0.3986 -2.0199  2.3048
  811MOL0     H 9445  12.161   9.192   7.572  0.9678 -1.1960  3.2020
  811MOL0     H 9446  12.215   9.193   7.324  0.4076  1.8995  3.1800
  811MOL0     H 9447  12.333   9.316   6.990 -1.5577 -0.3129  0.0945
  811MOL0     H 9448  12.326   9.366   6.757 -0.8427 -0.7419 -2.8410
  811MOL0     H 9449  12.471   9.062   6.556 -0.1279 -0.8747  0.0184
  811MOL0     H 9450  12.357   9.066   6.417  0.0105  2.7726 -2.2414
  811MOL0     H 9451  12.563   9.268   6.501 -0.5465 -0.1294 -0.0205
  811MOL0     H 9452  12.567   9.161   6.359  1.3897  1.0827  1.1782
  811MOL0     H 9453  12.403   9.241   6.242  3.6651 -0.0916 -1.7280
  811MOL0     H 9454  12.351   9.358   6.369  1.1570  1.2980  0.4514
  811MOL0     H 9455  12.489   9.466   6.182  3.5851  2.1308 -2.2850
  811MOL0     H 9456  12.632   9.382   6.241 -0.8740 -0.3332  0.3558
  811MOL0     H 9457  12.633   9.509   6.448  1.8557  0.9962 -1.1625
  811MOL0     H 9458  12.450   9.535   6.418  0.3537 -1.3755 -0.1081
  811MOL0     H 9459  12.653   9.661   6.242  2.0869 -0.8165  2.1054
  811MOL0     H 9460  12.486   9.708   6.268  1.3073  2.9921 -1.3341
  811MOL0     H 9461  12.705   9.839   6.387 -0.7959 -0.1724 -2.0083
  811MOL0     H 9462  12.647   9.747   6.520  2.8310 -1.1445 -0.7931
  811MOL0     H 9463  12.532   9.979   6.513 -1.8065  0.5443 -1.5800
  811MOL0     H 9464  12.449   9.920   6.375  0.1725  1.7797  0.5617
  811MOL0     H 9465  12.312   8.948   6.681  3.3168  0.6617 -0.4175
  811MOL0     H 9466  12.300   8.903   6.909  0.0117  0.2577 -1.1070
  811MOL0     H 9467  12.337   8.770   7.378 -0.7518  0.0637 -0.6257
  811MOL0     H 9468  12.262   8.791   7.606 -1.6257  1.7336  1.9842
  811MOL0     H 9469  11.362   9.030   7.592 -0.1261 -0.9762  1.0383
  811MOL0     H 9470  11.226   9.064   7.387 -0.6272  0.6534  0.0329
  811MOL0     H 9471  11.273   9.134   6.859 -0.2352  0.5333  1.7008
  811MOL0     H 9472  11.157   9.119   6.640 -1.8602 -0.0206  0.4630
  811MOL0     H 9473  10.821   8.836   6.590 -1.0338  0.4222 -0.7529
  811MOL0     H 9474  10.946   8.716   6.549 -1.6462 -0.4398 -1.3668
  811MOL0     H 9475  10.948   8.770   6.320  1.6635  1.2298  0.6551
  811MOL0     H 9476  10.830   8.903   6.353  3.2959  1.1881  0.2953
  811MOL0     H 9477  10.711   8.685   6.460 -0.1291  2.9482  0.7431
  811MOL0     H 9478  10.808   8.604   6.327 -2.1018  0.7167 -2.7365
  811MOL0     H 9479  10.555   8.707   6.293 -0.6820  2.3977  0.5770
  811MOL0     H 9480  10.642   8.837   6.235  0.3503  0.1264 -1.0987
  811MOL0     H 9481  10.751   8.604   5.913  2.6879 -0.1467  1.3189
  811MOL0     H 9482  10.949   8.771   6.769  0.1544  0.3663 -2.2723
  811MOL0     H 9483  11.187   8.729   7.041  0.4957 -0.6540  0.5161
  811MOL0     H 9484  11.014   8.742   7.078 -1.4458  1.8385 -1.3461
  811MOL0     H 9485  11.067   8.636   6.950  4.1564 -1.6244  1.6648
  812MOL0     O 9486   6.926   7.686   6.302 -0.6987 -0.4820 -0.4944
  812MOL0     C 9487   6.959   7.801   6.290  0.7294 -0.5335 -0.2954
  812MOL0     O 9488   7.064   7.847   6.222 -0.5886 -0.0716  1.2800
  812MOL0     C 9489   7.158   7.745   6.203 -0.5644 -0.2821  0.2267
  812MOL0     C 9490   7.245   7.707   6.306  0.4163 -1.0388 -0.0722
  812MOL0     C 9491   7.341   7.611   6.266  0.1158 -0.3420 -0.3062
  812MOL0     C 9492   7.352   7.556   6.134  0.0681 -0.1550 -0.6870
  812MOL0     O 9493   7.427   7.440   6.119 -0.5981 -0.1362 -0.5343
  812MOL0     C 9494   7.363   7.314   6.072  0.2974  0.4476 -0.0572
  812MOL0     C 9495   7.306   7.235   6.201  0.5172 -0.4815  0.7142
  812MOL0     C 9496   7.426   7.227   6.295  0.2667  0.1439 -0.0124
  812MOL0     C 9497   7.413   7.128   6.407 -0.2474 -0.0061 -0.4894
  812MOL0     C 9498   7.544   7.117   6.495  0.5370 -0.6367 -0.2782
  812MOL0     C 9499   7.510   7.022   6.619  0.2956 -0.1074  0.4141
  812MOL0     C 9500   7.635   6.988   6.706 -0.0503 -0.6670  1.1229
  812MOL0     C 9501   7.606   6.860   6.777 -0.5116  0.9992  0.2945
  812MOL0     N 9502   7.697   6.837   6.888 -0.1426 -0.1346 -0.1232
  812MOL0     C 9503   7.809   6.768   6.882 -0.8393 -0.9546  0.4757
  812MOL0     C 9504   7.848   6.771   7.009  0.7075  0.2049 -1.4061
  812MOL0     C 9505   7.970   6.697   7.047  0.5679 -0.0680  0.1788
  812MOL0     C 9506   7.962   6.549   7.058 -0.2055 -0.1783  0.0358
  812MOL0     C 9507   8.101   6.484   7.080 -0.0805  0.4779  0.3123
  812MOL0     C 9508   8.091   6.336   7.107  0.6905  0.2000 -0.3898
  812MOL0     O 9509   8.012   6.332   7.233 -0.1202  0.1388  1.0095
  812MOL0     C 9510   8.001   6.207   7.293  0.3508  0.1167  0.5440
  812MOL0     C 9511   8.070   6.091   7.262 -0.2644 -0.1775  0.4054
  812MOL0     C 9512   8.053   5.968   7.336  0.9784 -0.0556  0.3511
  812MOL0     C 9513   7.968   5.970   7.450  0.1460 -0.1167  1.0993
  812MOL0     C 9514   7.949   5.846   7.523 -0.2606  0.6335 -0.1816
  812MOL0     O 9515   7.862   5.843   7.628  0.0574 -0.6966 -0.1002
  812MOL0     C 9516   7.875   5.743   7.716  0.4276  0.4207  0.1126
  812MOL0     C 9517   7.936   5.749   7.843  0.2456  0.6365  0.7347
  812MOL0     C 9518   7.929   5.636   7.929 -0.1625 -0.3355  0.0339
  812MOL0     C 9519   7.855   5.526   7.893 -0.4608 -0.1896 -0.6591
  812MOL0     O 9520   7.823   5.420   7.980 -1.0037 -0.2598  0.6879
  812MOL0     C 9521   7.880   5.422   8.115 -0.5451 -0.0469 -0.1758
  812MOL0     C 9522   7.867   5.275   8.162  0.2607 -0.6258 -0.7163
  812MOL0     C 9523   7.871   5.269   8.319 -0.2200 -0.6558  0.0067
  812MOL0     C 9524   7.809   5.138   8.364  0.4532  0.2574  0.2788
  812MOL0     C 9525   7.773   5.139   8.508 -0.7155  0.6165  0.0138
  812MOL0     C 9526   7.730   4.993   8.544  0.5091 -0.5371 -0.2750
  812MOL0     C 9527   7.736   4.971   8.700  0.4977  0.0192  0.2698
  812MOL0     C 9528   7.615   5.022   8.769  1.1143  0.6919 -0.2446
  812MOL0    Cl 9529   7.635   5.186   8.773  0.0718 -0.0506  0.5853
  812MOL0     C 9530   7.798   5.520   7.766  0.2289 -0.9521 -0.8692
  812MOL0     C 9531   7.806   5.630   7.682  0.6627 -0.6582  0.1190
  812MOL0     O 9532   8.015   5.747   7.489  0.5627  0.6522 -0.1666
  812MOL0     C 9533   7.905   6.091   7.485 -0.4140  0.0752  0.3778
  812MOL0     C 9534   7.922   6.209   7.405 -0.3761 -0.2880 -0.3101
  812MOL0     N 9535   7.755   6.829   7.101 -0.0513  0.1106  0.8759
  812MOL0     N 9536   7.660   6.874   7.016 -0.2714  0.2939 -0.1830
  812MOL0     C 9537   7.275   7.603   6.031 -0.4296 -0.8877 -0.1763
  812MOL0     C 9538   7.192   7.703   6.069  0.4630 -0.1610 -0.0631
  812MOL0     C 9539   6.855   7.902   6.349 -0.1448  0.4557  0.2292
  812MOL0     C 9540   6.715   7.869   6.330  0.4083  0.3023 -0.7160
  812MOL0     C 9541   6.620   7.946   6.387  0.7118 -0.0900  0.2665
  812MOL0     C 9542   6.656   8.067   6.450  0.1584  0.3281 -0.4853
  812MOL0     O 9543   6.560   8.153   6.501 -0.5406 -0.2731  0.9506
  812MOL0     C 9544   6.425   8.137   6.468  0.1193  0.7388  0.5578
  812MOL0     C 9545   6.332   8.208   6.556  0.3510  0.7584  0.4909
  812MOL0     C 9546   6.374   8.180   6.702 -0.3637  0.0161  0.2591
  812MOL0     C 9547   6.313   8.281   6.798 -0.1911  0.4203  0.1176
  812MOL0     C 9548   6.168   8.283   6.787  0.3318 -0.5449 -0.3320
  812MOL0     C 9549   6.047   8.286   6.762 -0.7013  0.1691 -0.5992
  812MOL0     C 9550   6.793   8.102   6.472 -0.4641  0.4611  0.1136
  812MOL0     C 9551   6.892   8.015   6.425  0.6500 -0.3258 -0.0761
  812MOL0     C 9552   7.033   8.029   6.456  0.8503  0.2075 -0.1368
  812MOL0     H 9553   7.238   7.752   6.404 -0.4514  3.0400 -1.7961
  812MOL0     H 9554   7.416   7.580   6.338  1.0810 -4.2413 -2.6352
  812MOL0     H 9555   7.281   7.340   6.004  1.0146  0.4371 -0.9407
  812MOL0     H 9556   7.429   7.247   6.017 -1.5443 -1.1932 -0.3723
  812MOL0     H 9557   7.255   7.145   6.167 -2.7237  0.9881  1.3235
  812MOL0     H 9558   7.222   7.294   6.237  2.0665  3.7369 -1.7915
  812MOL0     H 9559   7.453   7.321   6.343  2.3190 -0.8189  0.8343
  812MOL0     H 9560   7.505   7.187   6.231 -2.2298 -0.6486 -2.8297
  812MOL0     H 9561   7.334   7.157   6.477  0.1543  2.1383 -0.8548
  812MOL0     H 9562   7.390   7.029   6.366 -0.9343 -0.1018  0.0974
  812MOL0     H 9563   7.623   7.070   6.435  1.4455  0.3393  0.1168
  812MOL0     H 9564   7.588   7.212   6.525 -1.0913 -0.7839  2.9551
  812MOL0     H 9565   7.428   7.068   6.676 -1.9189 -1.6665 -1.3009
  812MOL0     H 9566   7.455   6.937   6.578 -2.7189  0.8849  2.0481
  812MOL0     H 9567   7.649   7.070   6.777  1.1238  0.7825 -0.6846
  812MOL0     H 9568   7.730   6.988   6.652  1.7282 -0.2752  4.0492
  812MOL0     H 9569   7.505   6.854   6.820  0.1295 -2.2709  1.7121
  812MOL0     H 9570   7.626   6.782   6.703 -1.1853  1.8825 -0.8446
  812MOL0     H 9571   7.853   6.715   6.799 -2.6865  0.5986 -1.6190
  812MOL0     H 9572   8.053   6.716   6.977  1.7820 -1.1044  1.2774
  812MOL0     H 9573   8.002   6.720   7.149 -1.7302  3.7512  0.2370
  812MOL0     H 9574   7.903   6.528   7.148 -1.2561 -0.0343 -0.6127
  812MOL0     H 9575   7.914   6.507   6.970 -0.5922 -0.2332  0.2724
  812MOL0     H 9576   8.146   6.530   7.168 -1.6167 -0.3796  1.6083
  812MOL0     H 9577   8.156   6.501   6.987 -3.3824  1.7393 -1.6192
  812MOL0     H 9578   8.182   6.276   7.121 -0.3933 -1.0253  1.8743
  812MOL0     H 9579   8.029   6.296   7.026 -0.6175  1.6823 -0.1612
  812MOL0     H 9580   8.132   6.088   7.173  0.1434  2.0889  0.5465
  812MOL0     H 9581   8.107   5.876   7.313  2.7333  0.7070  1.2883
  812MOL0     H 9582   7.979   5.842   7.879  0.4951  0.5155  0.7523
  812MOL0     H 9583   7.971   5.660   8.026  0.5780  1.1761 -0.6342
  812MOL0     H 9584   7.982   5.457   8.134 -1.4167  2.9363 -0.4927
  812MOL0     H 9585   7.808   5.475   8.178 -1.7957 -3.2324  1.3169
  812MOL0     H 9586   7.768   5.240   8.133 -0.1291  2.0154 -2.9944
  812MOL0     H 9587   7.939   5.212   8.109  0.5216 -0.3653 -0.6746
  812MOL0     H 9588   7.975   5.266   8.352 -0.2656  1.2956  0.4401
  812MOL0     H 9589   7.820   5.359   8.355  1.9049  1.4814 -1.9689
  812MOL0     H 9590   7.875   5.058   8.330 -0.9707 -1.6239  1.7246
  812MOL0     H 9591   7.721   5.120   8.301 -1.1662  0.8583  2.2333
  812MOL0     H 9592   7.689   5.210   8.515  0.3263  2.9169 -5.7355
  812MOL0     H 9593   7.859   5.177   8.565 -0.9082  2.4792 -0.8583
  812MOL0     H 9594   7.633   4.964   8.501  0.2719  0.5026 -0.4697
  812MOL0     H 9595   7.799   4.924   8.494  1.0177  0.8467 -1.5499
  812MOL0     H 9596   7.823   5.011   8.753 -0.1412 -0.7653  1.9888
  812MOL0     H 9597   7.751   4.865   8.724 -1.4797  0.0729  2.0341
  812MOL0     H 9598   7.522   5.003   8.713 -2.3811  2.5296  4.2743
  812MOL0     H 9599   7.592   4.985   8.870  0.2817  0.7683 -0.3968
  812MOL0     H 9600   7.743   5.430   7.741 -2.6016 -0.0412  1.6142
  812MOL0     H 9601   7.757   5.637   7.585 -3.4196  2.4814  2.0884
  812MOL0     H 9602   7.842   6.086   7.574  2.5320 -0.1572  2.5854
  812MOL0     H 9603   7.874   6.303   7.427 -2.0663 -1.4834  1.4181
  812MOL0     H 9604   7.281   7.572   5.928 -1.6391 -2.0605  0.0802
  812MOL0     H 9605   7.144   7.744   5.981  1.5752 -4.5533 -3.0233
  812MOL0     H 9606   6.693   7.772   6.286 -1.8289  0.4090  0.0340
  812MOL0     H 9607   6.517   7.913   6.375 -2.1636  5.8022  4.0137
  812MOL0     H 9608   6.392   8.032   6.465  3.3794 -0.4375 -3.5070
  812MOL0     H 9609   6.408   8.168   6.365  0.0106  0.7559  0.5802
  812MOL0     H 9610   6.236   8.167   6.522 -0.9066  3.9155 -0.1597
  812MOL0     H 9611   6.333   8.315   6.537  0.6500  0.6042 -0.3970
  812MOL0     H 9612   6.482   8.192   6.713 -0.2949 -1.5044  1.6128
  812MOL0     H 9613   6.352   8.076   6.726 -1.2570 -0.7237 -3.3106
  812MOL0     H 9614   6.340   8.245   6.898  0.7600 -1.7596 -0.8434
  812MOL0     H 9615   6.348   8.383   6.780 -1.3827  0.9155  0.5298
  812MOL0     H 9616   5.943   8.308   6.746 -0.5514  0.0038 -1.9442
  812MOL0     H 9617   6.821   8.189   6.531  2.1188  0.1464 -0.5030
  812MOL0     H 9618   7.062   7.934   6.501  0.3639  0.3080  0.3922
  812MOL0     H 9619   7.097   8.066   6.375  1.0237  1.5344  0.5708
  812MOL0     H 9620   7.041   8.094   6.544  1.1930 -1.2536  0.9547
  813MOL0     O 9621  10.099   7.733  11.427  0.0179  0.0754  1.2352
  813MOL0     C 9622  10.177   7.704  11.341  0.8088  0.3713  0.5101
  813MOL0     O 9623  10.292   7.622  11.351  0.3101 -0.1653  0.3170
  813MOL0     C 9624  10.301   7.496  11.395 -0.3055  0.1674  0.3195
  813MOL0     C 9625  10.185   7.425  11.431  1.0576  0.5051 -0.4338
  813MOL0     C 9626  10.183   7.292  11.473 -0.7100  0.1902 -0.0010
  813MOL0     C 9627  10.306   7.222  11.487 -0.5118  0.2044 -0.7030
  813MOL0     O 9628  10.281   7.090  11.525 -0.0751  0.3039  0.5786
  813MOL0     C 9629  10.391   7.005  11.530 -0.3994 -0.5306 -0.4654
  813MOL0     C 9630  10.362   6.883  11.617  0.2785  0.9854 -0.1579
  813MOL0     C 9631  10.408   6.911  11.761  0.1929 -0.4133 -0.0981
  813MOL0     C 9632  10.340   6.817  11.857  1.0325 -0.0536 -0.0136
  813MOL0     C 9633  10.411   6.810  11.989  0.4829 -0.0262 -0.0597
  813MOL0     C 9634  10.387   6.929  12.077  0.8666  0.2161  0.0248
  813MOL0     C 9635  10.400   6.886  12.222 -0.6611 -0.5117  0.2706
  813MOL0     C 9636  10.363   6.986  12.333  0.5145  0.2946  0.3211
  813MOL0     N 9637  10.447   7.094  12.362 -0.3651 -1.1499 -0.2760
  813MOL0     C 9638  10.424   7.230  12.341 -0.5636  0.0562  1.8003
  813MOL0     C 9639  10.542   7.284  12.370 -0.3060  0.5390  0.0057
  813MOL0     C 9640  10.575   7.429  12.365  0.1940  0.8111 -0.4380
  813MOL0     C 9641  10.509   7.522  12.471 -0.2528  0.3296 -0.4758
  813MOL0     C 9642  10.540   7.667  12.433  0.1347 -0.5580 -0.1616
  813MOL0     C 9643  10.483   7.771  12.527 -0.1321 -0.1968  0.0132
  813MOL0     O 9644  10.507   7.897  12.463  0.0797  1.1504 -0.3077
  813MOL0     C 9645  10.454   8.002  12.536 -0.1229  0.1211 -0.2627
  813MOL0     C 9646  10.344   7.991  12.617 -0.0935  0.3495 -0.8262
  813MOL0     C 9647  10.283   8.099  12.677  0.0975  0.3632 -0.2553
  813MOL0     C 9648  10.325   8.227  12.660  0.1519 -1.2269 -0.1202
  813MOL0     C 9649  10.267   8.354  12.710  0.0443 -0.4601 -0.0529
  813MOL0     O 9650  10.267   8.462  12.623 -1.7759  0.8995  0.5932
  813MOL0     C 9651  10.241   8.587  12.678  0.1159  0.3286  0.0851
  813MOL0     C 9652  10.341   8.660  12.737 -0.2013 -0.5375  0.0777
  813MOL0     C 9653  10.317   8.785  12.803  0.3771 -0.6326  2.1665
  813MOL0     C 9654  10.188   8.831  12.794  0.2117 -0.4001 -0.5775
  813MOL0     O 9655  10.168   8.946  12.869 -0.0373  0.1886  0.7486
  813MOL0     C 9656  10.040   8.954  12.932  0.0905 -0.8784  0.2275
  813MOL0     C 9657  10.019   9.088  12.985  0.9083  0.2898  0.1430
  813MOL0     C 9658  10.098   9.120  13.111  0.4127  0.3930  0.1169
  813MOL0     C 9659  10.105   9.275  13.132  0.1887  0.7510  0.5583
  813MOL0     C 9660  10.230   9.317  13.218 -0.0697 -0.5714  0.4260
  813MOL0     C 9661  10.200   9.267  13.363  0.0391  0.0556 -0.1350
  813MOL0     C 9662  10.309   9.317  13.455  0.7598  0.3289 -0.5323
  813MOL0     C 9663  10.273   9.284  13.601 -0.1286 -0.0554  0.1588
  813MOL0    Cl 9664  10.399   9.358  13.715 -0.1109 -0.6096 -0.1307
  813MOL0     C 9665  10.091   8.764  12.715 -0.5091 -0.2911 -0.3739
  813MOL0     C 9666  10.113   8.643  12.662 -0.4302 -0.4954  0.5980
  813MOL0     O 9667  10.225   8.356  12.823 -0.3327 -0.7713 -0.0373
  813MOL0     C 9668  10.430   8.238  12.569  0.2490 -0.0078  1.0866
  813MOL0     C 9669  10.496   8.137  12.510  0.1300  0.3960  0.6344
  813MOL0     N 9670  10.629   7.184  12.428  0.3169 -0.5225 -0.1641
  813MOL0     N 9671  10.568   7.069  12.414 -1.1140 -0.6194  0.4961
  813MOL0     C 9672  10.423   7.295  11.457  0.2114 -0.4198 -0.2324
  813MOL0     C 9673  10.419   7.422  11.411  0.2400 -0.4738  0.9549
  813MOL0     C 9674  10.150   7.773  11.209 -0.1022  0.1320 -0.4678
  813MOL0     C 9675  10.255   7.756  11.112 -0.7691 -0.9574  0.7466
  813MOL0     C 9676  10.237   7.806  10.982  0.7261 -0.5565 -0.3574
  813MOL0     C 9677  10.127   7.886  10.939 -0.9246  0.4214 -1.1575
  813MOL0     O 9678  10.115   7.944  10.819  0.0989 -0.4763  0.4543
  813MOL0     C 9679  10.200   7.901  10.706  0.2961  0.0843  0.0005
  813MOL0     C 9680  10.139   7.955  10.574  0.6860  0.9654  0.4879
  813MOL0     C 9681  10.129   8.117  10.566 -0.1150 -0.5311 -0.4814
  813MOL0     C 9682  10.035   8.184  10.665  0.2008  0.1872  0.3396
  813MOL0     C 9683   9.955   8.292  10.598  0.4913  0.6358 -0.4006
  813MOL0     C 9684   9.878   8.376  10.548 -0.3272  1.0646  0.3693
  813MOL0     C 9685  10.024   7.899  11.031 -0.5844 -1.0590  0.2101
  813MOL0     C 9686  10.039   7.857  11.165 -0.1975  0.2043 -0.0371
  813MOL0     C 9687   9.938   7.916  11.261  0.1469  0.4344  0.2220
  813MOL0     H 9688  10.093   7.482  11.445  0.4949 -0.0664 -1.6374
  813MOL0     H 9689  10.086   7.257  11.507 -1.1130  1.4428  0.2059
  813MOL0     H 9690  10.406   6.967  11.428  1.3980 -0.1606 -0.3865
  813MOL0     H 9691  10.487   7.050  11.558  0.6321 -2.9157  0.1282
  813MOL0     H 9692  10.408   6.790  11.583  1.4668 -0.7214  5.1530
  813MOL0     H 9693  10.255   6.861  11.624  0.3910 -0.4466 -1.9805
  813MOL0     H 9694  10.389   7.012  11.797 -0.7191 -0.2627 -0.9552
  813MOL0     H 9695  10.516   6.897  11.762  0.3014  0.2265 -1.1848
  813MOL0     H 9696  10.236   6.848  11.869  1.3172  1.3061 -0.8669
  813MOL0     H 9697  10.337   6.715  11.819 -0.9698 -0.0913  0.1403
  813MOL0     H 9698  10.385   6.717  12.041  1.4961 -0.8528 -1.0032
  813MOL0     H 9699  10.516   6.799  11.963  0.8495  3.1320 -0.3148
  813MOL0     H 9700  10.444   7.017  12.045 -0.7309  0.7707 -1.4115
  813MOL0     H 9701  10.284   6.963  12.064  1.5176  2.8507  1.0981
  813MOL0     H 9702  10.502   6.851  12.241 -0.5432 -0.1825  0.2650
  813MOL0     H 9703  10.338   6.797  12.237 -1.8651  0.6603  2.7826
  813MOL0     H 9704  10.260   7.019  12.319  0.1106  0.5740  3.3919
  813MOL0     H 9705  10.359   6.934  12.429  0.4243  0.6214  0.4977
  813MOL0     H 9706  10.333   7.271  12.298 -1.5838 -1.6162  2.2946
  813MOL0     H 9707  10.684   7.435  12.362  0.4168 -2.1547 -2.7379
  813MOL0     H 9708  10.553   7.475  12.269 -2.6366  0.0522 -0.2362
  813MOL0     H 9709  10.401   7.505  12.460 -0.0656 -0.7322 -0.7734
  813MOL0     H 9710  10.544   7.506  12.574 -2.6130  2.7640  0.8249
  813MOL0     H 9711  10.506   7.691  12.332 -1.7505 -1.0431  0.3320
  813MOL0     H 9712  10.646   7.694  12.428 -0.5954  3.2458  1.5856
  813MOL0     H 9713  10.528   7.753  12.625 -0.7192  1.0366  0.5207
  813MOL0     H 9714  10.379   7.737  12.525 -0.7258  1.1773  2.9801
  813MOL0     H 9715  10.305   7.892  12.638 -2.3201  0.9801 -1.7615
  813MOL0     H 9716  10.193   8.088  12.737  0.8942  1.9483  1.2993
  813MOL0     H 9717  10.440   8.620  12.753  1.6322  2.4106 -2.6415
  813MOL0     H 9718  10.390   8.850  12.850 -0.2350  1.6992  0.1077
  813MOL0     H 9719   9.959   8.944  12.860  0.3367  1.5196 -0.4467
  813MOL0     H 9720  10.026   8.884  13.015  0.7510 -0.5339  0.6410
  813MOL0     H 9721  10.052   9.157  12.907  0.8175  0.5474  0.3324
  813MOL0     H 9722   9.912   9.099  13.003  0.9926 -0.9309  1.6276
  813MOL0     H 9723  10.075   9.067  13.204  1.1580  0.8132  0.5564
  813MOL0     H 9724  10.203   9.093  13.097  1.6004  3.5339  1.9561
  813MOL0     H 9725  10.010   9.321  13.162  0.1264  0.3735  0.9566
  813MOL0     H 9726  10.104   9.322  13.034 -1.6959 -2.3127 -1.0635
  813MOL0     H 9727  10.235   9.426  13.205 -2.0684 -0.4429  0.3563
  813MOL0     H 9728  10.327   9.278  13.188  0.6182 -0.9581  2.9299
  813MOL0     H 9729  10.097   9.299  13.380  0.3032  1.3144 -0.7267
  813MOL0     H 9730  10.202   9.158  13.364 -0.9509  0.0338  0.7921
  813MOL0     H 9731  10.321   9.425  13.443  2.7049  0.4478  1.6953
  813MOL0     H 9732  10.402   9.264  13.434 -0.4430 -1.8198 -0.6854
  813MOL0     H 9733  10.177   9.333  13.621 -0.3598  0.3852 -1.7676
  813MOL0     H 9734  10.263   9.176  13.611  1.0121 -0.1289  0.7255
  813MOL0     H 9735   9.997   8.818  12.702  0.6376  1.4240 -2.0820
  813MOL0     H 9736  10.036   8.592  12.606 -2.6347 -0.9925  3.8296
  813MOL0     H 9737  10.477   8.335  12.553 -2.1827  0.6691 -3.8027
  813MOL0     H 9738  10.575   8.151  12.437 -1.4504 -0.9569 -1.4340
  813MOL0     H 9739  10.524   7.268  11.484  0.3154  0.9207  0.8581
  813MOL0     H 9740  10.512   7.476  11.394  0.4870 -1.6131 -1.9152
  813MOL0     H 9741  10.348   7.706  11.135 -1.2599 -2.9187 -1.1573
  813MOL0     H 9742  10.321   7.802  10.914 -0.3890 -0.2086 -1.7914
  813MOL0     H 9743  10.206   7.792  10.707 -1.1248 -0.0062 -0.2919
  813MOL0     H 9744  10.303   7.935  10.721  0.1074 -0.6555  3.8203
  813MOL0     H 9745  10.037   7.915  10.574  1.7622 -2.0788 -0.1085
  813MOL0     H 9746  10.191   7.915  10.486 -1.3726  2.0409 -1.3096
  813MOL0     H 9747  10.106   8.148  10.463 -0.9948  0.0047 -0.1378
  813MOL0     H 9748  10.227   8.162  10.584 -0.6689  0.8858 -0.8527
  813MOL0     H 9749   9.965   8.107  10.698  0.3440 -0.1544 -0.1359
  813MOL0     H 9750  10.077   8.226  10.757  3.0940  1.9334 -1.6217
  813MOL0     H 9751   9.821   8.458  10.509  0.5656  1.0996 -0.9102
  813MOL0     H 9752   9.941   7.960  10.996 -0.8534 -0.2904  2.0462
  813MOL0     H 9753   9.985   7.999  11.315 -1.0709  1.7678 -0.6683
  813MOL0     H 9754   9.847   7.947  11.209  0.0584  1.8461  1.1627
  813MOL0     H 9755   9.894   7.845  11.331 -1.3750  1.4456  0.3302
  814MOL0     O 9756   9.262   7.235   4.524 -0.2196 -0.4933  0.9911
  814MOL0     C 9757   9.324   7.262   4.418 -0.1457 -0.5010 -0.7444
  814MOL0     O 9758   9.347   7.173   4.325 -0.4035 -0.8207  0.6170
  814MOL0     C 9759   9.325   7.042   4.333 -0.3711  0.2882 -0.2987
  814MOL0     C 9760   9.362   6.973   4.213  0.4103 -1.6740 -1.0631
  814MOL0     C 9761   9.330   6.837   4.195  0.3068 -0.2199  0.2032
  814MOL0     C 9762   9.272   6.762   4.300 -0.8225  0.2450  0.1845
  814MOL0     O 9763   9.239   6.629   4.298  0.3528 -0.1492  0.3758
  814MOL0     C 9764   9.283   6.548   4.196  0.1871  0.4561 -0.2033
  814MOL0     C 9765   9.433   6.519   4.192 -0.7307 -0.9442  0.3800
  814MOL0     C 9766   9.453   6.379   4.121  0.1851  0.4713  0.7038
  814MOL0     C 9767   9.599   6.342   4.104 -0.9877  0.3879  0.1814
  814MOL0     C 9768   9.607   6.202   4.047 -1.4447 -1.0756 -0.2197
  814MOL0     C 9769   9.628   6.199   3.897 -0.5287 -0.2571 -0.2195
  814MOL0     C 9770   9.498   6.241   3.809  0.6442  0.2057  0.4851
  814MOL0     C 9771   9.523   6.198   3.659 -0.3429  0.0346  0.3318
  814MOL0     N 9772   9.416   6.242   3.571 -0.1544 -0.2362 -0.6009
  814MOL0     C 9773   9.412   6.363   3.502  0.6147  0.2495  0.5381
  814MOL0     C 9774   9.310   6.347   3.413  0.7976 -0.2374  0.0117
  814MOL0     C 9775   9.266   6.464   3.327  0.0915 -0.0826  1.5019
  814MOL0     C 9776   9.124   6.436   3.257 -0.3666 -0.4803  0.2791
  814MOL0     C 9777   9.041   6.570   3.266 -0.3655  0.3603 -0.3190
  814MOL0     C 9778   8.969   6.576   3.136  0.5026 -0.5346 -0.5037
  814MOL0     O 9779   8.892   6.454   3.134 -0.2888 -0.5828  0.2067
  814MOL0     C 9780   8.838   6.431   3.010 -0.4607 -0.3391 -0.0601
  814MOL0     C 9781   8.813   6.301   2.979 -0.2955  0.1047  0.4730
  814MOL0     C 9782   8.763   6.261   2.857  0.8901  0.1474 -0.3513
  814MOL0     C 9783   8.751   6.350   2.755 -0.3229 -0.4986 -0.1084
  814MOL0     C 9784   8.691   6.298   2.627 -0.1146 -0.2880 -0.0245
  814MOL0     O 9785   8.594   6.382   2.576 -0.3308  0.4709 -0.3523
  814MOL0     C 9786   8.531   6.352   2.459  0.4377  1.6616 -0.3072
  814MOL0     C 9787   8.594   6.289   2.344 -0.5483 -0.2358 -0.0605
  814MOL0     C 9788   8.514   6.265   2.224 -0.2745 -0.1262 -0.2915
  814MOL0     C 9789   8.375   6.302   2.227 -0.9501  0.1907 -0.5132
  814MOL0     O 9790   8.308   6.285   2.109  0.8274 -0.4217  0.2832
  814MOL0     C 9791   8.175   6.335   2.092 -0.4725  0.2590 -0.3203
  814MOL0     C 9792   8.107   6.293   1.962  0.0065 -0.2570  0.3297
  814MOL0     C 9793   8.159   6.391   1.851 -0.7668  0.7534 -0.2248
  814MOL0     C 9794   8.068   6.372   1.718 -1.0750  0.6111 -1.5992
  814MOL0     C 9795   8.126   6.253   1.653 -1.0437  0.8669  0.5038
  814MOL0     C 9796   8.040   6.202   1.550 -0.2022  0.0988  0.3282
  814MOL0     C 9797   8.091   6.202   1.411  0.3195 -0.1107 -0.8447
  814MOL0     C 9798   7.997   6.140   1.321  0.7467 -0.3794  0.2254
  814MOL0    Cl 9799   7.845   6.220   1.292  0.1602  0.3166  0.1748
  814MOL0     C 9800   8.323   6.370   2.343 -0.1346 -0.0331  0.0088
  814MOL0     C 9801   8.396   6.385   2.458  0.8399  0.0368 -0.4979
  814MOL0     O 9802   8.719   6.185   2.583 -0.5044 -0.1970  0.1912
  814MOL0     C 9803   8.787   6.485   2.782 -0.3278 -0.4856 -0.1848
  814MOL0     C 9804   8.818   6.524   2.912  1.2022 -0.6809  0.2935
  814MOL0     N 9805   9.256   6.219   3.421  0.3036  0.2271 -0.0708
  814MOL0     N 9806   9.327   6.159   3.519  0.4829  0.9913 -0.2779
  814MOL0     C 9807   9.248   6.827   4.418  0.2373  1.2710 -0.0760
  814MOL0     C 9808   9.273   6.961   4.439 -0.9237  0.1475 -0.0159
  814MOL0     C 9809   9.384   7.397   4.409  0.6393  0.1015 -0.1114
  814MOL0     C 9810   9.344   7.472   4.293 -0.8970  0.1064  0.3807
  814MOL0     C 9811   9.396   7.605   4.281 -0.4267  0.4739 -0.1492
  814MOL0     C 9812   9.493   7.655   4.367 -0.5448  0.1660 -0.3417
  814MOL0     O 9813   9.551   7.776   4.346  0.9898 -1.0975 -0.0003
  814MOL0     C 9814   9.690   7.817   4.374  0.0562 -0.1700 -0.9975
  814MOL0     C 9815   9.679   7.901   4.499 -0.4368 -0.7856 -0.1187
  814MOL0     C 9816   9.606   7.859   4.623  0.2258  0.1133 -0.1770
  814MOL0     C 9817   9.630   7.955   4.744  0.3206 -0.5310  0.7397
  814MOL0     C 9818   9.763   7.952   4.803  0.7883 -1.1787 -0.8668
  814MOL0     C 9819   9.874   7.947   4.857  0.3702  0.3532  0.0547
  814MOL0     C 9820   9.527   7.573   4.476 -0.1665 -0.7662 -0.5065
  814MOL0     C 9821   9.468   7.450   4.507  1.0366  0.1857 -0.2868
  814MOL0     C 9822   9.514   7.363   4.624 -0.1363  0.4063  0.7717
  814MOL0     H 9823   9.399   7.027   4.127  0.4634 -3.4685 -2.2218
  814MOL0     H 9824   9.367   6.789   4.105 -0.5613  1.4658 -1.0885
  814MOL0     H 9825   9.221   6.459   4.212  1.9772 -0.6851  0.6859
  814MOL0     H 9826   9.249   6.596   4.104  0.0787  1.2058  0.2210
  814MOL0     H 9827   9.475   6.516   4.293 -1.1283 -0.8537  0.5486
  814MOL0     H 9828   9.486   6.602   4.144 -2.5154 -0.2105 -0.3888
  814MOL0     H 9829   9.394   6.369   4.029 -1.0035  0.2559  1.4652
  814MOL0     H 9830   9.412   6.305   4.191 -0.1487  0.4333  0.4760
  814MOL0     H 9831   9.643   6.417   4.038 -1.6383 -0.2788 -1.0512
  814MOL0     H 9832   9.653   6.343   4.199 -2.3011 -0.9254  0.9830
  814MOL0     H 9833   9.700   6.157   4.082  0.4004 -1.0869 -4.4729
  814MOL0     H 9834   9.523   6.141   4.080 -0.1857 -1.6837  2.0700
  814MOL0     H 9835   9.708   6.272   3.878 -0.2437 -0.7457 -0.9569
  814MOL0     H 9836   9.664   6.100   3.867  1.6041  0.4943 -0.3195
  814MOL0     H 9837   9.484   6.349   3.819 -2.5871 -0.2305  1.7721
  814MOL0     H 9838   9.410   6.186   3.844  1.3703 -1.9132 -0.8521
  814MOL0     H 9839   9.620   6.240   3.632 -0.0775  0.3611  1.6862
  814MOL0     H 9840   9.535   6.090   3.654  0.0679  0.1125 -0.6027
  814MOL0     H 9841   9.491   6.437   3.504  1.5109 -0.6951  0.9477
  814MOL0     H 9842   9.245   6.547   3.395 -1.0145  1.6374 -0.7859
  814MOL0     H 9843   9.342   6.481   3.250 -0.3709 -0.7881  0.8722
  814MOL0     H 9844   9.150   6.411   3.154  2.0694 -0.9002  0.9436
  814MOL0     H 9845   9.057   6.363   3.304  0.6962 -2.2531 -0.8568
  814MOL0     H 9846   9.098   6.660   3.293  1.4244 -1.1552  1.1655
  814MOL0     H 9847   8.977   6.563   3.354  1.9337  1.1924  1.5095
  814MOL0     H 9848   9.044   6.573   3.056  0.6539  0.4195 -0.3994
  814MOL0     H 9849   8.911   6.668   3.127 -0.3710 -1.0483 -0.2819
  814MOL0     H 9850   8.847   6.224   3.048  0.8091  1.5656  1.6269
  814MOL0     H 9851   8.746   6.155   2.843  1.1786 -0.0542  0.7376
  814MOL0     H 9852   8.697   6.258   2.334 -0.5018  0.5728 -3.0342
  814MOL0     H 9853   8.562   6.222   2.137  0.1687  0.5204 -0.3743
  814MOL0     H 9854   8.107   6.291   2.165 -0.8108  2.1040  0.5348
  814MOL0     H 9855   8.167   6.443   2.107 -0.4233  0.1268  0.7113
  814MOL0     H 9856   8.125   6.188   1.940 -0.7960 -0.9348  2.6224
  814MOL0     H 9857   7.999   6.306   1.977 -0.1793 -2.1538  0.8333
  814MOL0     H 9858   8.154   6.494   1.885  0.4433  0.4500  0.9381
  814MOL0     H 9859   8.258   6.352   1.829 -1.9865 -2.4537 -0.6825
  814MOL0     H 9860   8.088   6.461   1.657 -0.6563  0.9652 -0.9700
  814MOL0     H 9861   7.960   6.365   1.733 -1.1634 -0.2815 -2.5705
  814MOL0     H 9862   8.133   6.173   1.727  0.3171 -1.6683 -2.1408
  814MOL0     H 9863   8.224   6.280   1.613 -0.4557 -0.4882  0.9527
  814MOL0     H 9864   7.993   6.106   1.574  2.0552 -0.8552  1.1670
  814MOL0     H 9865   7.954   6.270   1.543 -0.7250 -0.4526  1.2268
  814MOL0     H 9866   8.191   6.159   1.411  0.6627  0.6628  0.0097
  814MOL0     H 9867   8.113   6.307   1.389  0.8373  0.9156  3.5631
  814MOL0     H 9868   8.052   6.140   1.226  1.9066 -2.4452  0.8363
  814MOL0     H 9869   7.972   6.040   1.356 -0.9106 -0.0129  0.1604
  814MOL0     H 9870   8.229   6.424   2.338 -0.3494 -0.2994  0.9504
  814MOL0     H 9871   8.349   6.435   2.542 -0.9643 -5.9211  2.5751
  814MOL0     H 9872   8.773   6.563   2.707 -0.6047  1.2691  1.6040
  814MOL0     H 9873   8.837   6.629   2.933  1.3195 -0.6259 -0.0919
  814MOL0     H 9874   9.206   6.769   4.499  0.3528 -0.1298 -0.9804
  814MOL0     H 9875   9.246   7.007   4.533 -1.1047 -1.3445  0.6874
  814MOL0     H 9876   9.267   7.431   4.228  0.2382 -1.8149  0.1838
  814MOL0     H 9877   9.362   7.664   4.196 -0.4541 -0.6681 -0.9495
  814MOL0     H 9878   9.735   7.885   4.301 -0.8264  0.9440 -0.5373
  814MOL0     H 9879   9.756   7.731   4.389 -1.2081 -0.7893  1.7439
  814MOL0     H 9880   9.634   7.993   4.460 -0.0159  0.4713  2.1891
  814MOL0     H 9881   9.780   7.933   4.528  0.1177 -3.4246  1.1134
  814MOL0     H 9882   9.620   7.755   4.652  1.6755  0.1989 -0.5027
  814MOL0     H 9883   9.500   7.869   4.595  0.0132 -0.8847  0.2242
  814MOL0     H 9884   9.609   8.055   4.705 -1.2170 -0.7964  0.8332
  814MOL0     H 9885   9.559   7.934   4.825 -0.0724  1.5551  0.9999
  814MOL0     H 9886   9.978   7.945   4.885  1.6909 -0.2237 -4.2140
  814MOL0     H 9887   9.609   7.606   4.539 -1.7376 -0.4017  1.4499
  814MOL0     H 9888   9.455   7.274   4.647 -1.6861  1.5016  1.2400
  814MOL0     H 9889   9.621   7.341   4.624  0.4158  2.7723 -0.8493
  814MOL0     H 9890   9.498   7.425   4.712 -0.9725 -0.4231  1.2211
  815MOL0     O 9891   3.197  10.204   3.140 -0.5522 -0.5248  0.1339
  815MOL0     C 9892   3.117  10.154   3.230 -0.9437  0.4665 -0.4326
  815MOL0     O 9893   2.989  10.119   3.222  0.4022 -0.1936  0.0970
  815MOL0     C 9894   2.938  10.151   3.104  0.5596  0.4962 -0.1906
  815MOL0     C 9895   2.858  10.261   3.091  0.0820  0.0866 -0.1955
  815MOL0     C 9896   2.801  10.284   2.960 -0.6796  0.1608  0.1782
  815MOL0     C 9897   2.838  10.206   2.852  0.2808  0.5980  0.3512
  815MOL0     O 9898   2.786  10.224   2.721 -0.7518  0.1822  0.1365
  815MOL0     C 9899   2.642  10.225   2.700 -0.0443  0.2886 -0.1132
  815MOL0     C 9900   2.612  10.178   2.562  0.3926  0.9413 -0.0774
  815MOL0     C 9901   2.464  10.150   2.540  0.2448  0.2132 -0.5081
  815MOL0     C 9902   2.429  10.105   2.391  0.7045 -0.4843  0.3397
  815MOL0     C 9903   2.352   9.969   2.401  0.0037 -0.3862 -0.1168
  815MOL0     C 9904   2.232   9.967   2.486  0.9144  0.2507 -0.3219
  815MOL0     C 9905   2.117  10.061   2.445 -0.1059  0.0301  0.9993
  815MOL0     C 9906   2.007  10.086   2.542 -1.4260  0.4929  0.3048
  815MOL0     N 9907   1.923  10.189   2.507 -0.7856 -0.3992  0.0606
  815MOL0     C 9908   1.820  10.186   2.407 -0.1834  0.7179  0.0157
  815MOL0     C 9909   1.759  10.307   2.429  0.7110  0.6942  0.9808
  815MOL0     C 9910   1.647  10.357   2.345  0.0953 -0.7489 -0.6384
  815MOL0     C 9911   1.509  10.328   2.412 -0.0990 -0.6872 -0.2681
  815MOL0     C 9912   1.479  10.188   2.449 -0.0176 -0.3576  1.2817
  815MOL0     C 9913   1.334  10.177   2.498  0.6239 -0.1289 -0.9813
  815MOL0     O 9914   1.236  10.191   2.395 -0.1479 -0.0891  0.9286
  815MOL0     C 9915   1.115  10.138   2.425  0.2890  0.2003  0.1264
  815MOL0     C 9916   1.086  10.025   2.356 -0.1647  0.7440  0.4551
  815MOL0     C 9917   0.972   9.958   2.395  0.2569 -0.9359 -0.0134
  815MOL0     C 9918   0.884  10.000   2.498 -0.1278  0.5262 -1.1181
  815MOL0     C 9919   0.754   9.930   2.529 -0.8211  0.2279 -1.1463
  815MOL0     O 9920   0.688   9.944   2.656  1.3584 -0.0949 -0.1614
  815MOL0     C 9921   0.569   9.880   2.660  0.2985  0.5791  0.2882
  815MOL0     C 9922   0.445   9.941   2.674 -0.1176  0.2187  0.2373
  815MOL0     C 9923   0.340   9.861   2.684  0.8459  1.0255 -0.0495
  815MOL0     C 9924   0.352   9.724   2.697  0.4780  0.3437  0.5516
  815MOL0     O 9925   0.241   9.645   2.724 -0.3907 -0.2739  0.4381
  815MOL0     C 9926   0.242   9.499   2.737 -1.1371 -0.0419  0.6032
  815MOL0     C 9927   0.115   9.453   2.801 -0.7737 -1.3805 -0.2749
  815MOL0     C 9928  -0.016   9.494   2.725  0.2183  0.0998  0.0713
  815MOL0     C 9929  -0.139   9.476   2.808  0.4784 -0.5821 -1.0790
  815MOL0     C 9930  -0.252   9.571   2.753 -0.4152  0.4466 -0.5250
  815MOL0     C 9931  -0.382   9.516   2.810  0.3552  0.2255 -0.0789
  815MOL0     C 9932  -0.509   9.597   2.762 -0.3488  0.3198 -0.2412
  815MOL0     C 9933  -0.554   9.705   2.867 -0.9770 -0.6683  0.1498
  815MOL0    Cl 9934  -0.731   9.746   2.857 -0.0591  0.3339 -0.9893
  815MOL0     C 9935   0.482   9.666   2.712  1.0952  1.0917  0.2761
  815MOL0     C 9936   0.583   9.752   2.701 -0.7347 -1.0009  0.4309
  815MOL0     O 9937   0.723   9.857   2.436 -0.2724 -0.1482 -0.3582
  815MOL0     C 9938   0.914  10.124   2.557 -0.1078  0.6439  0.6775
  815MOL0     C 9939   1.033  10.195   2.526  1.2751 -0.0771  0.2239
  815MOL0     N 9940   1.808  10.371   2.540 -0.6774  0.2212  0.0178
  815MOL0     N 9941   1.903  10.299   2.582 -0.6627 -0.8154 -0.2397
  815MOL0     C 9942   2.895  10.087   2.877 -0.4820  0.1343  0.6263
  815MOL0     C 9943   2.952  10.061   2.998  0.3310  0.3921 -1.6837
  815MOL0     C 9944   3.184  10.112   3.360 -0.7226 -0.9025  0.3893
  815MOL0     C 9945   3.308  10.053   3.352 -1.3467 -0.2303  0.3310
  815MOL0     C 9946   3.378  10.014   3.463 -0.0115  0.2159 -0.9161
  815MOL0     C 9947   3.325  10.014   3.594  0.4447 -0.0872  0.0300
  815MOL0     O 9948   3.397   9.958   3.687 -0.3180 -0.1095  0.0704
  815MOL0     C 9949   3.368   9.973   3.823  0.6003 -0.9053  0.4128
  815MOL0     C 9950   3.435  10.101   3.888 -0.0677  1.4375 -0.2891
  815MOL0     C 9951   3.450  10.083   4.044  0.2158  0.1109  0.6954
  815MOL0     C 9952   3.501  10.200   4.128 -0.2647  0.0286  0.2339
  815MOL0     C 9953   3.627  10.239   4.083 -0.6997  0.7033 -0.2577
  815MOL0     C 9954   3.731  10.279   4.040  0.4178  0.1345  0.7057
  815MOL0     C 9955   3.193  10.068   3.608  0.4698  0.9720  0.4704
  815MOL0     C 9956   3.124  10.114   3.488 -0.5653 -0.4325 -0.0201
  815MOL0     C 9957   2.980  10.187   3.510 -0.3046  0.0006  0.2450
  815MOL0     H 9958   2.840  10.331   3.171  1.4171 -1.8315  1.9020
  815MOL0     H 9959   2.744  10.374   2.940  0.4519  1.0711  0.9120
  815MOL0     H 9960   2.602  10.159   2.779  0.6673  3.0860  2.7906
  815MOL0     H 9961   2.604  10.325   2.722  1.3624  0.7064  0.5270
  815MOL0     H 9962   2.685  10.098   2.547  1.6825  2.4435 -2.5090
  815MOL0     H 9963   2.629  10.252   2.483 -2.3374  1.3503 -0.3835
  815MOL0     H 9964   2.411  10.243   2.562  0.7903  0.6961 -1.1703
  815MOL0     H 9965   2.438  10.080   2.620 -1.4732  1.3850  0.0084
  815MOL0     H 9966   2.364  10.179   2.343 -0.8991 -0.6405  2.1443
  815MOL0     H 9967   2.518  10.096   2.329  0.6071 -1.9345  0.3748
  815MOL0     H 9968   2.320   9.937   2.301  1.0473 -0.6257 -0.3892
  815MOL0     H 9969   2.415   9.891   2.445 -1.0430 -0.9433  0.4329
  815MOL0     H 9970   2.196   9.868   2.456  0.6274  0.8055 -1.9216
  815MOL0     H 9971   2.261   9.982   2.590 -0.5065 -0.0038  0.1342
  815MOL0     H 9972   2.068  10.025   2.354 -2.5948 -1.0262  2.6474
  815MOL0     H 9973   2.152  10.163   2.432 -2.2519  0.9271  1.8185
  815MOL0     H 9974   1.959   9.991   2.568  0.2492 -0.0270  1.7327
  815MOL0     H 9975   2.044  10.119   2.640 -0.1962 -0.5099  0.2085
  815MOL0     H 9976   1.804  10.098   2.345  4.3234 -1.6180  1.7684
  815MOL0     H 9977   1.656  10.466   2.339  1.1139 -0.5352  2.6098
  815MOL0     H 9978   1.653  10.308   2.247  0.6379 -0.1891 -0.8934
  815MOL0     H 9979   1.509  10.381   2.507 -1.1642  1.0043 -1.1681
  815MOL0     H 9980   1.435  10.369   2.342 -1.2498 -1.5792  0.4016
  815MOL0     H 9981   1.535  10.160   2.539  4.0113 -0.0635 -0.9027
  815MOL0     H 9982   1.485  10.115   2.368  2.3002  0.2309  0.8504
  815MOL0     H 9983   1.316  10.249   2.578 -0.3703 -2.3130  0.9035
  815MOL0     H 9984   1.323  10.081   2.551  1.1078  1.4326  2.1457
  815MOL0     H 9985   1.154  10.002   2.275  0.1610  0.6178  0.7654
  815MOL0     H 9986   0.943   9.875   2.331 -0.9054  0.4525 -1.3653
  815MOL0     H 9987   0.433  10.048   2.663  1.4210  0.2687 -1.3013
  815MOL0     H 9988   0.235   9.887   2.683  1.1530  3.2350  3.7960
  815MOL0     H 9989   0.248   9.440   2.645 -1.0449  1.3026 -0.2823
  815MOL0     H 9990   0.329   9.463   2.793 -0.8542 -0.6770 -0.2369
  815MOL0     H 9991   0.128   9.344   2.800  0.0366 -1.3887 -4.0385
  815MOL0     H 9992   0.105   9.494   2.902 -2.2840  1.9605 -1.6395
  815MOL0     H 9993  -0.002   9.600   2.702  1.4589 -0.0377  0.1444
  815MOL0     H 9994  -0.024   9.440   2.630 -1.3429 -2.0038  1.3183
  815MOL0     H 9995  -0.127   9.498   2.914  0.8584 -2.1920 -0.7586
  815MOL0     H 9996  -0.175   9.373   2.802  0.7353 -0.6613 -1.3588
  815MOL0     H 9997  -0.259   9.577   2.644 -0.9079  1.2814 -0.4600
  815MOL0     H 9998  -0.230   9.671   2.793  1.5303 -1.1296  2.7137
  815MOL0     H 9999  -0.403   9.413   2.780 -0.1246 -0.8708  3.4714
  815MOL0     H10000  -0.387   9.510   2.919 -2.4743  0.9028 -0.1117
  815MOL0     H10001  -0.591   9.527   2.739 -1.6229  1.7261 -0.1618
  815MOL0     H10002  -0.488   9.651   2.670 -4.0892  1.9494 -0.3114
  815MOL0     H10003  -0.536   9.674   2.970  0.9157  3.4251  1.2470
  815MOL0     H10004  -0.493   9.792   2.843  1.9021 -2.8950 -1.1945
  815MOL0     H10005   0.503   9.564   2.742 -0.1097  0.0106 -2.2904
  815MOL0     H10006   0.684   9.724   2.730  0.0915  0.8541 -0.4864
  815MOL0     H10007   0.843  10.167   2.627  1.6446  0.7271  2.4723
  815MOL0     H10008   1.040  10.296   2.565 -2.7671 -1.1718  4.7214
  815MOL0     H10009   2.908  10.026   2.789  0.5895  3.6411 -1.8610
  815MOL0     H10010   3.002   9.965   3.011  0.3654  0.7464  1.8266
  815MOL0     H10011   3.377  10.053   3.269 -2.0513  0.9086 -0.2774
  815MOL0     H10012   3.482   9.986   3.450  0.8105  2.8715 -0.8280
  815MOL0     H10013   3.415   9.885   3.867  2.8982 -0.9153 -1.7830
  815MOL0     H10014   3.261   9.967   3.845  0.1416  1.0625 -0.9903
  815MOL0     H10015   3.376  10.191   3.872  1.2129  2.0134 -2.1300
  815MOL0     H10016   3.531  10.116   3.837 -0.0948 -3.1146 -2.2212
  815MOL0     H10017   3.515   9.995   4.050 -1.1219 -1.1433 -1.6478
  815MOL0     H10018   3.347  10.057   4.070 -0.5866  2.5459  0.2254
  815MOL0     H10019   3.437  10.287   4.113 -0.5357 -0.2124 -0.0380
  815MOL0     H10020   3.513  10.169   4.233  1.4811 -1.0166 -0.2277
  815MOL0     H10021   3.822  10.317   4.000 -1.1370  3.2282 -0.2030
  815MOL0     H10022   3.143  10.053   3.703 -0.0253  0.0588  0.0741
  815MOL0     H10023   2.997  10.290   3.479 -1.1347  0.4686  1.2732
  815MOL0     H10024   2.905  10.153   3.438  1.2574  0.6620 -1.7854
  815MOL0     H10025   2.951  10.181   3.616  1.9522  1.8125  1.0467
  816MOL0     O10026  10.984   8.434   4.548  0.2502 -0.3178  1.0331
  816MOL0     C10027  11.071   8.357   4.513  0.5094 -0.1054  1.0309
  816MOL0     O10028  11.163   8.383   4.417 -0.6295  0.5894 -0.0150
  816MOL0     C10029  11.125   8.473   4.318  0.9159 -0.0501  0.3799
  816MOL0     C10030  11.000   8.482   4.270 -0.0787  1.0955  0.8110
  816MOL0     C10031  10.980   8.556   4.158  1.0842 -0.2559 -0.5680
  816MOL0     C10032  11.074   8.634   4.104 -0.5908 -0.1763  0.0473
  816MOL0     O10033  11.029   8.706   3.988  0.5151 -0.0018  0.6046
  816MOL0     C10034  11.109   8.817   3.936  0.7656  0.1058 -0.7213
  816MOL0     C10035  11.022   8.879   3.826 -0.2931 -0.7615  0.5451
  816MOL0     C10036  11.098   9.014   3.793  0.8825  0.5511  1.0997
  816MOL0     C10037  11.052   9.128   3.885  0.1903 -0.4185  0.2299
  816MOL0     C10038  11.121   9.269   3.894 -0.1255 -0.2415  0.6259
  816MOL0     C10039  11.268   9.264   3.931 -0.7679  0.0341 -0.7787
  816MOL0     C10040  11.329   9.392   3.999 -0.4120 -0.3159  0.4340
  816MOL0     C10041  11.478   9.373   4.038  0.5351 -0.0257 -0.9419
  816MOL0     N10042  11.493   9.264   4.142 -0.2181 -0.5968  0.7515
  816MOL0     C10043  11.404   9.241   4.246  0.6571  0.7574 -0.3428
  816MOL0     C10044  11.453   9.133   4.308  0.2348 -0.4871 -0.3080
  816MOL0     C10045  11.383   9.063   4.432 -0.2405 -0.2163  0.1294
  816MOL0     C10046  11.404   9.149   4.555  0.4945  0.0395 -0.2595
  816MOL0     C10047  11.265   9.205   4.604 -0.5636 -0.8769 -0.3840
  816MOL0     C10048  11.288   9.271   4.745 -0.4241  0.1587 -0.0818
  816MOL0     O10049  11.295   9.166   4.842 -0.0038  0.4687 -0.1526
  816MOL0     C10050  11.227   9.174   4.956  0.3518  0.4111 -0.7783
  816MOL0     C10051  11.242   9.062   5.039  0.2750 -0.2518 -0.5734
  816MOL0     C10052  11.178   9.042   5.160 -0.7755 -0.8678 -0.1523
  816MOL0     C10053  11.115   9.149   5.215  0.3633 -0.1643  0.2942
  816MOL0     C10054  11.037   9.139   5.344  0.7740  0.3404  1.1508
  816MOL0     O10055  11.015   9.007   5.388  0.4922 -0.6243 -0.1412
  816MOL0     C10056  10.922   8.990   5.489 -0.0218 -0.0341  0.3174
  816MOL0     C10057  10.793   9.045   5.489  0.2230  0.1250  0.1184
  816MOL0     C10058  10.703   9.008   5.590 -0.0860  0.0822 -0.6578
  816MOL0     C10059  10.745   8.921   5.687 -0.2291  0.1721 -0.2476
  816MOL0     O10060  10.668   8.892   5.795 -0.1590 -0.5730  0.2580
  816MOL0     C10061  10.542   8.838   5.766  0.3965  0.4361  0.1779
  816MOL0     C10062  10.440   8.897   5.862  0.6758  0.0722  0.1370
  816MOL0     C10063  10.324   8.797   5.883 -0.0260 -0.6536  0.7227
  816MOL0     C10064  10.225   8.875   5.972  0.2451 -0.8423 -0.0501
  816MOL0     C10065  10.096   8.787   5.986  0.5865 -0.5785  0.0194
  816MOL0     C10066  10.004   8.890   6.064  0.0684  0.2384 -1.1841
  816MOL0     C10067   9.896   8.803   6.136  0.7823  0.2037 -0.8167
  816MOL0     C10068   9.754   8.862   6.119 -0.0286  0.1564 -0.1416
  816MOL0    Cl10069   9.738   9.027   6.168  0.2561  0.2989  0.0113
  816MOL0     C10070  10.877   8.868   5.696  0.1060 -0.8101  0.0872
  816MOL0     C10071  10.961   8.906   5.594 -0.4160  0.8702 -0.2621
  816MOL0     O10072  11.002   9.238   5.402  0.1392  0.1190 -0.0106
  816MOL0     C10073  11.097   9.272   5.139  0.6895  0.7016  0.1950
  816MOL0     C10074  11.150   9.279   5.014 -0.5394  0.0346 -0.5093
  816MOL0     N10075  11.572   9.100   4.243 -0.3393 -0.4425 -0.2166
  816MOL0     N10076  11.602   9.179   4.140  0.2559  0.2357  0.3380
  816MOL0     C10077  11.198   8.639   4.162  0.8177 -0.5832 -0.0023
  816MOL0     C10078  11.226   8.560   4.274  0.4157  0.6970 -0.4459
  816MOL0     C10079  11.104   8.245   4.607 -0.3686 -1.1632 -0.6349
  816MOL0     C10080  11.230   8.268   4.669  1.2278 -0.2930 -0.0821
  816MOL0     C10081  11.285   8.173   4.760  0.0614  0.3476  1.0943
  816MOL0     C10082  11.215   8.067   4.801 -0.9001 -0.6168 -0.2467
  816MOL0     O10083  11.280   7.979   4.883 -0.2096 -0.0260 -0.2233
  816MOL0     C10084  11.263   7.994   5.024 -0.4676  0.1536  0.3130
  816MOL0     C10085  11.375   7.923   5.100  1.0625  0.1653 -0.1411
  816MOL0     C10086  11.505   8.011   5.079 -1.0304 -0.8522  0.0442
  816MOL0     C10087  11.639   7.939   5.120  0.4036  0.7455 -0.7732
  816MOL0     C10088  11.661   7.832   5.027  0.2190  0.1699 -0.6579
  816MOL0     C10089  11.668   7.730   4.964  0.8139 -0.3710  0.7775
  816MOL0     C10090  11.086   8.047   4.748  0.0874 -0.0025 -0.2256
  816MOL0     C10091  11.031   8.125   4.642 -0.3297 -0.6339  0.7911
  816MOL0     C10092  10.905   8.091   4.573  0.3119  0.4761 -0.4662
  816MOL0     H10093  10.916   8.430   4.315 -1.4588  2.4564 -0.0664
  816MOL0     H10094  10.876   8.566   4.129  0.6533 -4.0436 -0.8961
  816MOL0     H10095  11.129   8.882   4.021 -0.9327  0.6268 -0.6670
  816MOL0     H10096  11.203   8.781   3.894  0.4062  0.2221 -1.6710
  816MOL0     H10097  10.921   8.903   3.861 -0.2318 -0.1503  0.3159
  816MOL0     H10098  11.024   8.823   3.732  2.5847  0.9542 -0.5379
  816MOL0     H10099  11.074   9.040   3.689 -2.2022  1.7563  1.9926
  816MOL0     H10100  11.207   9.012   3.806  1.1219 -3.2057 -0.2712
  816MOL0     H10101  10.947   9.155   3.868  0.4498  2.4002  2.2910
  816MOL0     H10102  11.052   9.097   3.990 -1.0436 -1.0533  0.0595
  816MOL0     H10103  11.126   9.322   3.798  0.5868  3.2796  2.4136
  816MOL0     H10104  11.074   9.323   3.976  2.2595  1.1062  1.1947
  816MOL0     H10105  11.280   9.178   3.999 -0.3518  0.7651  0.0987
  816MOL0     H10106  11.312   9.250   3.832  0.2123 -1.2224 -0.1945
  816MOL0     H10107  11.278   9.435   4.086  2.9260  1.6626  1.6170
  816MOL0     H10108  11.326   9.474   3.927 -1.9827 -1.1582 -0.5098
  816MOL0     H10109  11.539   9.359   3.948  0.3392 -0.7563 -0.9651
  816MOL0     H10110  11.524   9.460   4.086  3.9915 -2.1614 -0.0953
  816MOL0     H10111  11.313   9.293   4.273  0.8553 -0.1291  2.3410
  816MOL0     H10112  11.276   9.052   4.414  0.0662 -1.9352 -0.9122
  816MOL0     H10113  11.402   8.957   4.452 -0.1692  0.4432  4.2638
  816MOL0     H10114  11.451   9.082   4.628 -2.4474 -1.0058  0.8253
  816MOL0     H10115  11.465   9.237   4.533  1.4411 -1.0080 -2.0936
  816MOL0     H10116  11.186   9.129   4.604  0.7440 -2.3790 -3.6212
  816MOL0     H10117  11.238   9.290   4.540  1.3042  2.2112  2.5711
  816MOL0     H10118  11.211   9.348   4.757  2.2437  3.2088 -1.1239
  816MOL0     H10119  11.383   9.321   4.764  0.1621 -0.8935 -0.1626
  816MOL0     H10120  11.309   8.986   5.000  2.0085  0.4029  0.9962
  816MOL0     H10121  11.181   8.950   5.218  1.1634 -1.0350 -0.4622
  816MOL0     H10122  10.753   9.105   5.407 -0.6228 -2.6555 -1.6177
  816MOL0     H10123  10.606   9.056   5.595  0.6245  1.4743  0.6957
  816MOL0     H10124  10.509   8.854   5.663 -1.5386  0.5685  0.7705
  816MOL0     H10125  10.549   8.729   5.774 -2.2670 -0.3761 -4.3623
  816MOL0     H10126  10.494   8.917   5.955  0.1407  1.2851  0.2086
  816MOL0     H10127  10.399   8.991   5.823  1.3582  0.8193  1.1785
  816MOL0     H10128  10.273   8.765   5.792 -1.0275 -2.2267  1.7801
  816MOL0     H10129  10.346   8.707   5.941  2.2201  0.7382  2.1867
  816MOL0     H10130  10.207   8.967   5.916  0.2643 -0.2349  0.9190
  816MOL0     H10131  10.262   8.905   6.071  1.3890 -1.5355 -0.2427
  816MOL0     H10132  10.117   8.696   6.041 -1.1572  0.2336  2.1745
  816MOL0     H10133  10.062   8.756   5.887  0.5780  0.7206 -0.4049
  816MOL0     H10134  10.062   8.939   6.143  1.1759 -0.6269 -1.4302
  816MOL0     H10135   9.954   8.961   5.997 -3.6290 -2.5785 -1.7428
  816MOL0     H10136   9.908   8.795   6.244 -1.6705  2.7944 -0.2175
  816MOL0     H10137   9.877   8.705   6.092 -3.9514  0.6177 -0.2633
  816MOL0     H10138   9.730   8.861   6.013 -3.8383  1.6181  0.5446
  816MOL0     H10139   9.683   8.788   6.157  0.4243 -0.7466 -1.0080
  816MOL0     H10140  10.921   8.826   5.786 -2.3074 -1.5964  0.9613
  816MOL0     H10141  11.056   8.855   5.585 -0.5826 -0.6289  4.0848
  816MOL0     H10142  11.037   9.350   5.185 -1.0460 -1.1101  1.1110
  816MOL0     H10143  11.149   9.378   4.970 -0.4611  1.4148  2.3998
  816MOL0     H10144  11.266   8.713   4.121  0.4951  1.0613  2.2229
  816MOL0     H10145  11.324   8.555   4.319  0.2672 -1.1267 -0.2828
  816MOL0     H10146  11.293   8.356   4.664 -0.6868  1.2575  1.5914
  816MOL0     H10147  11.387   8.196   4.789  0.3177  0.0109  0.4942
  816MOL0     H10148  11.164   7.953   5.047  0.1727 -1.7640 -0.1532
  816MOL0     H10149  11.258   8.101   5.050 -2.5334 -0.2789  1.9789
  816MOL0     H10150  11.381   7.817   5.072  0.2080  0.7362 -2.7520
  816MOL0     H10151  11.360   7.925   5.208  0.3753 -2.0748 -0.1280
  816MOL0     H10152  11.484   8.098   5.141  0.1513 -0.7098  0.2607
  816MOL0     H10153  11.515   8.035   4.973 -1.0610  1.8165  0.5791
  816MOL0     H10154  11.707   8.024   5.109 -0.1128  1.0132 -2.0718
  816MOL0     H10155  11.633   7.908   5.225  1.3290  2.6000 -0.1191
  816MOL0     H10156  11.663   7.641   4.905 -1.7319  0.6914 -0.7372
  816MOL0     H10157  11.034   7.959   4.785  1.3372 -0.3524  0.7864
  816MOL0     H10158  10.908   7.988   4.537  2.5022 -0.6098  2.4063
  816MOL0     H10159  10.825   8.088   4.648  3.6167  2.4460  3.6046
  816MOL0     H10160  10.873   8.170   4.505  2.0595  3.6962  2.0867
  817MOL0     O10161   0.268   2.101   4.924 -0.2585  0.0664  0.3005
  817MOL0     C10162   0.253   2.049   5.033  0.6242  0.1704  0.2902
  817MOL0     O10163   0.341   1.968   5.094 -0.0492  0.3923  0.0180
  817MOL0     C10164   0.475   1.964   5.068 -0.5466 -0.1322 -0.2591
  817MOL0     C10165   0.535   1.943   4.940 -0.9882 -0.0782 -0.2504
  817MOL0     C10166   0.679   1.917   4.931  0.0276 -0.0552 -1.2990
  817MOL0     C10167   0.764   1.921   5.051 -0.0505  0.7349 -0.7630
  817MOL0     O10168   0.898   1.911   5.053  0.1796  0.2192  0.6944
  817MOL0     C10169   0.947   1.870   4.921  0.5998 -0.1373 -0.1364
  817MOL0     C10170   1.094   1.879   4.896 -0.7803  0.6685 -0.2067
  817MOL0     C10171   1.116   1.844   4.755  0.1568  0.1698  0.2609
  817MOL0     C10172   1.269   1.850   4.722  0.3440  0.1742 -1.0051
  817MOL0     C10173   1.329   1.990   4.740 -0.9717 -0.8758  0.0834
  817MOL0     C10174   1.481   1.999   4.708  0.4127 -0.8544 -0.4090
  817MOL0     C10175   1.540   2.149   4.717  0.9013 -0.2541 -0.1441
  817MOL0     C10176   1.695   2.165   4.683 -0.8495 -1.2105  0.4219
  817MOL0     N10177   1.754   2.297   4.636 -0.0291 -0.3246  0.5052
  817MOL0     C10178   1.703   2.370   4.530 -0.7311  0.6934 -0.1821
  817MOL0     C10179   1.782   2.466   4.517  0.1546  0.8919 -0.1401
  817MOL0     C10180   1.783   2.572   4.408  0.0304 -0.0770 -0.1914
  817MOL0     C10181   1.706   2.689   4.468  0.3600  0.1792  0.7464
  817MOL0     C10182   1.715   2.818   4.387  0.1018 -0.4194  0.5551
  817MOL0     C10183   1.649   2.932   4.454 -0.2357  0.7903 -0.2768
  817MOL0     O10184   1.731   2.959   4.568 -0.3297  0.2105 -0.1804
  817MOL0     C10185   1.710   3.070   4.643 -0.7249  0.5897  0.2709
  817MOL0     C10186   1.608   3.158   4.633  0.5693 -0.3315  0.2278
  817MOL0     C10187   1.592   3.262   4.722 -0.1276 -0.1421  0.3104
  817MOL0     C10188   1.678   3.271   4.834 -0.9384  0.2395  0.4341
  817MOL0     C10189   1.657   3.378   4.935  0.2672  0.0455  0.0868
  817MOL0     O10190   1.712   3.369   5.061  0.9175  0.1210  0.0922
  817MOL0     C10191   1.694   3.471   5.151  1.0765 -0.7394 -0.6307
  817MOL0     C10192   1.570   3.484   5.227  0.3410  1.0172  0.5659
  817MOL0     C10193   1.546   3.594   5.309  0.3263  0.5105  0.1569
  817MOL0     C10194   1.652   3.686   5.317  0.3985 -0.6757 -0.7117
  817MOL0     O10195   1.638   3.782   5.419  0.5491 -0.2660  0.5638
  817MOL0     C10196   1.737   3.765   5.521 -0.1864  0.6431  0.3559
  817MOL0     C10197   1.761   3.890   5.608 -0.0628  0.5182 -0.1009
  817MOL0     C10198   1.807   4.016   5.521 -0.3177 -0.5692  0.0527
  817MOL0     C10199   1.838   4.144   5.612 -0.2309 -0.4416 -0.8897
  817MOL0     C10200   1.745   4.252   5.570  0.3773  0.7899  0.6562
  817MOL0     C10201   1.768   4.378   5.649  0.4978 -0.9558  0.6415
  817MOL0     C10202   1.669   4.405   5.757  0.4002 -0.6352 -0.1530
  817MOL0     C10203   1.708   4.544   5.815  0.0101 -0.4891 -0.0850
  817MOL0    Cl10204   1.857   4.545   5.897  0.0609  0.4144 -0.6694
  817MOL0     C10205   1.765   3.681   5.243  0.2829 -0.6506  0.9213
  817MOL0     C10206   1.788   3.577   5.159  0.0802  0.3118 -0.5063
  817MOL0     O10207   1.586   3.472   4.893 -0.8632  0.1853  0.6868
  817MOL0     C10208   1.785   3.191   4.839  0.4768  0.2724 -1.1130
  817MOL0     C10209   1.792   3.084   4.752 -0.0265  0.8837  0.7557
  817MOL0     N10210   1.871   2.469   4.622  1.3710 -0.5858  0.3211
  817MOL0     N10211   1.860   2.358   4.698  0.3143 -0.3743  0.5170
  817MOL0     C10212   0.697   1.951   5.170  0.0409  0.4391  0.0680
  817MOL0     C10213   0.559   1.959   5.180 -0.1086 -0.0821 -0.0047
  817MOL0     C10214   0.113   2.054   5.094 -0.0037 -0.1967  0.8820
  817MOL0     C10215   0.013   2.120   5.016 -0.5796 -0.3627 -0.3330
  817MOL0     C10216  -0.127   2.120   5.052  0.1716 -0.0084 -0.2547
  817MOL0     C10217  -0.161   2.060   5.172  0.8417  0.0220 -0.5842
  817MOL0     O10218  -0.290   2.071   5.233 -0.3850 -0.4696  0.4645
  817MOL0     C10219  -0.384   2.169   5.174  0.0697  0.1598  0.6086
  817MOL0     C10220  -0.529   2.148   5.242  0.1351  0.0079  0.4116
  817MOL0     C10221  -0.546   2.223   5.382 -0.1626 -0.3856  0.2170
  817MOL0     C10222  -0.657   2.157   5.457 -0.9664 -0.3791 -0.6804
  817MOL0     C10223  -0.784   2.178   5.390 -0.2405  0.2710  0.2053
  817MOL0     C10224  -0.891   2.197   5.336 -0.4578  0.0097 -0.6947
  817MOL0     C10225  -0.070   1.997   5.252 -0.7145  0.0278  0.3265
  817MOL0     C10226   0.067   2.001   5.223 -0.0306 -0.9266  0.3599
  817MOL0     C10227   0.159   1.949   5.323 -0.2544 -0.2211 -0.4816
  817MOL0     H10228   0.487   1.927   4.844  1.0515 -0.1521 -1.3289
  817MOL0     H10229   0.713   1.882   4.834  1.0605 -3.7933  0.2329
  817MOL0     H10230   0.914   1.770   4.890  3.5913  0.0844 -5.0792
  817MOL0     H10231   0.899   1.934   4.846 -0.7489 -0.3495  0.5070
  817MOL0     H10232   1.143   1.798   4.951  0.9724  1.6191 -0.3261
  817MOL0     H10233   1.134   1.973   4.935  0.5023  0.1759 -0.3050
  817MOL0     H10234   1.067   1.916   4.689 -1.1736  0.9374  1.9940
  817MOL0     H10235   1.080   1.741   4.743 -2.5477  0.8469  1.7709
  817MOL0     H10236   1.324   1.772   4.774 -1.3534  0.7543  1.9322
  817MOL0     H10237   1.279   1.829   4.616  0.1146  1.6902 -1.3527
  817MOL0     H10238   1.282   2.065   4.676 -1.1638  1.4848  2.7675
  817MOL0     H10239   1.310   2.027   4.841 -0.9011 -2.2969  0.6405
  817MOL0     H10240   1.533   1.922   4.765  0.6148 -2.8528 -3.1112
  817MOL0     H10241   1.482   1.965   4.604  4.0764 -0.5405 -0.5861
  817MOL0     H10242   1.524   2.182   4.820 -2.2441  1.6101 -1.0891
  817MOL0     H10243   1.480   2.214   4.651  1.1832 -0.5078 -0.6564
  817MOL0     H10244   1.747   2.135   4.774 -1.1285  0.2436  1.0976
  817MOL0     H10245   1.715   2.099   4.598 -0.9803  0.2252 -0.7656
  817MOL0     H10246   1.622   2.336   4.467  0.4039 -1.6903 -0.4724
  817MOL0     H10247   1.889   2.600   4.403  0.2485 -0.2138  2.4069
  817MOL0     H10248   1.737   2.541   4.313  0.8848  2.1271 -1.4001
  817MOL0     H10249   1.600   2.666   4.482  0.6525  0.2606  3.5204
  817MOL0     H10250   1.754   2.709   4.563 -0.0510 -2.1516  1.5221
  817MOL0     H10251   1.675   2.803   4.286  0.1676  2.5067  0.0090
  817MOL0     H10252   1.819   2.851   4.373  0.9487 -2.5133  1.5252
  817MOL0     H10253   1.546   2.907   4.482 -0.7246  1.9518 -0.9849
  817MOL0     H10254   1.655   3.021   4.391  0.3918  0.5231 -0.6062
  817MOL0     H10255   1.532   3.160   4.556 -2.6107 -0.9876  3.1018
  817MOL0     H10256   1.513   3.335   4.714 -1.3683 -1.6093 -2.3161
  817MOL0     H10257   1.496   3.404   5.220  2.7708 -1.4467  1.2948
  817MOL0     H10258   1.451   3.603   5.361  0.6660  0.9647  0.7144
  817MOL0     H10259   1.684   3.696   5.587 -0.4200 -2.0861 -2.4739
  817MOL0     H10260   1.834   3.732   5.481  0.6681  3.9427 -0.6020
  817MOL0     H10261   1.663   3.921   5.646 -1.2422 -0.6650 -1.9981
  817MOL0     H10262   1.831   3.874   5.692 -1.4032  1.4938  1.2536
  817MOL0     H10263   1.903   3.982   5.481  0.9808  3.2133 -0.4235
  817MOL0     H10264   1.741   4.046   5.440  1.1537  0.1144 -0.9367
  817MOL0     H10265   1.942   4.173   5.594 -0.3722  0.3489 -0.4715
  817MOL0     H10266   1.826   4.119   5.718  1.9510 -0.9095 -0.6961
  817MOL0     H10267   1.646   4.218   5.603  2.2606 -2.9836  3.1202
  817MOL0     H10268   1.753   4.271   5.463  2.3818  1.3651  0.8742
  817MOL0     H10269   1.864   4.360   5.697  0.8182 -1.7478 -0.2612
  817MOL0     H10270   1.759   4.473   5.597  2.1103 -0.3709  1.3633
  817MOL0     H10271   1.671   4.326   5.833 -1.7210 -0.1147  0.5133
  817MOL0     H10272   1.565   4.421   5.727  1.0385 -0.0976 -2.2364
  817MOL0     H10273   1.727   4.613   5.732  0.0577 -2.3747 -1.7345
  817MOL0     H10274   1.634   4.568   5.891  2.1496 -0.0593  2.0043
  817MOL0     H10275   1.825   3.772   5.233  0.1444 -0.5960  0.5668
  817MOL0     H10276   1.882   3.576   5.104 -0.8013 -0.7348 -2.0784
  817MOL0     H10277   1.845   3.208   4.927 -1.6074  3.1564 -0.0984
  817MOL0     H10278   1.884   3.029   4.761 -0.8973 -0.5832  1.0610
  817MOL0     H10279   0.766   1.966   5.253  1.3759  1.6844 -1.2052
  817MOL0     H10280   0.513   1.967   5.278 -0.5443 -0.1809 -0.1995
  817MOL0     H10281   0.047   2.144   4.916  0.8326 -0.8064  0.0134
  817MOL0     H10282  -0.197   2.161   4.980  2.1749  0.7651 -1.8552
  817MOL0     H10283  -0.407   2.145   5.070  0.7380 -0.3720  0.5748
  817MOL0     H10284  -0.345   2.271   5.167 -2.4932  1.1174 -1.7765
  817MOL0     H10285  -0.563   2.046   5.259 -0.9918  0.8855  4.7394
  817MOL0     H10286  -0.602   2.192   5.173  0.0361 -0.8758 -0.0651
  817MOL0     H10287  -0.578   2.327   5.368 -1.8060 -0.6125  1.8865
  817MOL0     H10288  -0.457   2.227   5.445 -0.2422  2.3447  0.2796
  817MOL0     H10289  -0.635   2.055   5.490 -1.4298 -0.2621  0.0167
  817MOL0     H10290  -0.668   2.210   5.552 -1.7669 -0.3034 -0.8081
  817MOL0     H10291  -0.983   2.226   5.290 -0.1621  0.1403 -1.2081
  817MOL0     H10292  -0.113   1.945   5.336  0.0362  1.0665  1.3893
  817MOL0     H10293   0.205   1.853   5.297 -3.0165 -1.3605 -1.5203
  817MOL0     H10294   0.232   2.031   5.322 -2.4726  1.8626 -1.3588
  817MOL0     H10295   0.112   1.942   5.422 -2.0143  0.9487 -1.1922
  818MOL0     O10296   3.516   3.847   1.263  0.5836 -0.1592 -0.0304
  818MOL0     C10297   3.627   3.905   1.270  0.1548  0.2734  0.4920
  818MOL0     O10298   3.720   3.866   1.358  0.6855  0.1307 -0.0566
  818MOL0     C10299   3.707   3.745   1.421 -0.0091  0.3881  0.1543
  818MOL0     C10300   3.781   3.641   1.369 -0.4611  0.2755  0.0955
  818MOL0     C10301   3.771   3.512   1.424 -0.3903 -0.2742  0.0270
  818MOL0     C10302   3.691   3.487   1.536 -0.1270  0.6807 -0.4463
  818MOL0     O10303   3.677   3.360   1.590 -0.3159 -0.3270 -0.3917
  818MOL0     C10304   3.692   3.244   1.508 -0.4140 -1.0065  0.3307
  818MOL0     C10305   3.619   3.120   1.565 -0.3141  0.9366  0.1948
  818MOL0     C10306   3.626   3.006   1.463  0.0104 -0.0445  0.4864
  818MOL0     C10307   3.591   2.868   1.508  0.0516 -0.2079 -0.8012
  818MOL0     C10308   3.633   2.766   1.404  0.0586  0.4023 -0.1717
  818MOL0     C10309   3.617   2.621   1.460 -0.0254 -0.1641 -0.1281
  818MOL0     C10310   3.685   2.515   1.358 -0.0483 -0.1793  0.7131
  818MOL0     C10311   3.688   2.374   1.410  0.4911  0.3260 -0.2881
  818MOL0     N10312   3.733   2.274   1.308 -0.4159  0.0001  0.4494
  818MOL0     C10313   3.649   2.215   1.215 -0.6396  1.0382  0.0667
  818MOL0     C10314   3.728   2.130   1.137 -0.0832 -0.7137 -0.1952
  818MOL0     C10315   3.686   2.048   1.022 -0.0787 -0.3538  0.5374
  818MOL0     C10316   3.663   1.907   1.069  0.3294 -0.2150 -1.3348
  818MOL0     C10317   3.669   1.810   0.952  0.4236  0.5160 -0.8011
  818MOL0     C10318   3.642   1.664   0.981  0.2680  0.6754 -0.9814
  818MOL0     O10319   3.701   1.631   1.105 -0.4424 -0.4608  0.3168
  818MOL0     C10320   3.714   1.503   1.148  1.0625  1.0691  0.1235
  818MOL0     C10321   3.805   1.480   1.254  0.7189  0.0389 -0.6546
  818MOL0     C10322   3.821   1.356   1.318 -0.3916 -0.3070 -0.2681
  818MOL0     C10323   3.757   1.239   1.265  0.1499 -0.3969 -0.0817
  818MOL0     C10324   3.759   1.114   1.337  0.4789 -0.1751  0.1449
  818MOL0     O10325   3.700   1.000   1.276  0.4454 -0.3049  0.4904
  818MOL0     C10326   3.686   0.885   1.349  0.5016  0.0058  0.2244
  818MOL0     C10327   3.596   0.880   1.455 -0.0767 -0.8046  0.5202
  818MOL0     C10328   3.570   0.759   1.526 -0.2016 -0.8744  0.0843
  818MOL0     C10329   3.635   0.646   1.485 -0.0824  1.0114  1.4946
  818MOL0     O10330   3.597   0.520   1.523 -0.0099 -0.3346  0.1795
  818MOL0     C10331   3.502   0.512   1.627 -0.4665 -0.4931  0.8798
  818MOL0     C10332   3.489   0.383   1.706 -0.7190  0.8193 -0.0576
  818MOL0     C10333   3.429   0.276   1.605  0.5913  0.3594  0.2769
  818MOL0     C10334   3.354   0.165   1.679 -0.4908  0.9319 -0.7046
  818MOL0     C10335   3.274   0.073   1.588  0.7440 -0.4483  0.4304
  818MOL0     C10336   3.135   0.121   1.561  1.0772 -0.6385 -0.1787
  818MOL0     C10337   3.047   0.013   1.486 -0.3725 -0.2095 -0.2655
  818MOL0     C10338   2.921   0.077   1.427 -0.8573 -0.1938  1.2306
  818MOL0    Cl10339   2.951   0.135   1.250  0.0671 -0.0274  0.0190
  818MOL0     C10340   3.730   0.643   1.379  0.0638  0.1333  0.7826
  818MOL0     C10341   3.753   0.768   1.316  0.6965 -0.6443 -1.0031
  818MOL0     O10342   3.813   1.110   1.453 -0.1066 -0.2199  0.2215
  818MOL0     C10343   3.678   1.258   1.151  0.1200  0.9678 -0.1347
  818MOL0     C10344   3.642   1.389   1.109 -0.7692  0.0953  0.3398
  818MOL0     N10345   3.852   2.132   1.197 -0.8472 -1.5034  0.3038
  818MOL0     N10346   3.855   2.209   1.300 -0.2684  0.1492  0.1829
  818MOL0     C10347   3.604   3.589   1.580  0.5652  0.8936 -0.1990
  818MOL0     C10348   3.621   3.716   1.518  1.1484 -0.2814  0.0043
  818MOL0     C10349   3.657   4.022   1.177 -0.0512  0.3696 -0.4123
  818MOL0     C10350   3.567   4.046   1.073 -0.1837 -0.0638  1.1101
  818MOL0     C10351   3.586   4.146   0.972 -0.9120 -0.3985  0.1812
  818MOL0     C10352   3.704   4.229   0.972  0.0301  0.4432 -0.2381
  818MOL0     O10353   3.736   4.338   0.891  0.0396  0.2941 -0.2399
  818MOL0     C10354   3.648   4.379   0.784  0.2642  1.0371  0.0339
  818MOL0     C10355   3.678   4.295   0.661 -0.1824 -1.0147 -1.2069
  818MOL0     C10356   3.600   4.338   0.538  0.5224  0.6547 -0.1676
  818MOL0     C10357   3.634   4.252   0.418  0.2340  0.8740  0.6019
  818MOL0     C10358   3.557   4.127   0.417  0.8646 -0.0715 -0.1326
  818MOL0     C10359   3.471   4.032   0.418 -0.8091 -0.7902  0.7752
  818MOL0     C10360   3.790   4.204   1.073  0.6791  0.0945 -0.8675
  818MOL0     C10361   3.775   4.107   1.171  0.6809  0.7548 -0.1694
  818MOL0     C10362   3.886   4.082   1.274  1.1059 -0.0934  0.7258
  818MOL0     H10363   3.840   3.668   1.282  2.7307 -0.5696  1.8651
  818MOL0     H10364   3.837   3.440   1.377 -4.4161 -2.2683 -3.1832
  818MOL0     H10365   3.649   3.264   1.409  1.8529  1.3980 -0.2879
  818MOL0     H10366   3.799   3.225   1.511 -0.6967 -2.8571 -0.2591
  818MOL0     H10367   3.514   3.147   1.580 -1.2149 -0.3738 -2.8418
  818MOL0     H10368   3.654   3.086   1.663 -0.6408 -0.1777 -0.0605
  818MOL0     H10369   3.729   3.000   1.428  1.2639  0.3390  3.8073
  818MOL0     H10370   3.548   3.019   1.387 -1.9500  1.8955  2.6730
  818MOL0     H10371   3.631   2.841   1.606 -0.8410 -0.2159 -0.4261
  818MOL0     H10372   3.482   2.855   1.509 -0.0680  0.6793 -1.2160
  818MOL0     H10373   3.589   2.779   1.305 -3.9841 -0.8518  1.2628
  818MOL0     H10374   3.741   2.766   1.383 -0.2575 -1.1658 -2.1282
  818MOL0     H10375   3.677   2.614   1.551 -0.6804  0.7399  0.3982
  818MOL0     H10376   3.513   2.589   1.467 -0.7494  0.8606 -3.8183
  818MOL0     H10377   3.789   2.542   1.337 -0.4152  2.2082  1.5664
  818MOL0     H10378   3.636   2.511   1.261  1.7922 -0.2657 -0.2599
  818MOL0     H10379   3.735   2.363   1.508  1.6981  0.4152 -0.8358
  818MOL0     H10380   3.582   2.353   1.423 -0.0302  1.3136 -2.5010
  818MOL0     H10381   3.544   2.240   1.200 -0.9833 -0.5379 -0.3531
  818MOL0     H10382   3.590   2.082   0.983 -0.0878 -1.0257 -0.0429
  818MOL0     H10383   3.757   2.059   0.939  1.3664  3.0483  2.0389
  818MOL0     H10384   3.743   1.871   1.134  0.2737 -1.0673 -1.7173
  818MOL0     H10385   3.576   1.899   1.135  1.8030  0.0074  0.7167
  818MOL0     H10386   3.766   1.802   0.903  0.1261 -4.6735 -1.0565
  818MOL0     H10387   3.588   1.829   0.881  0.6833 -3.0227 -2.2409
  818MOL0     H10388   3.676   1.593   0.904  0.5094 -1.7689  1.2214
  818MOL0     H10389   3.538   1.632   0.990  1.3433 -3.5427 -1.1624
  818MOL0     H10390   3.864   1.555   1.306 -1.1261 -0.1756  1.9211
  818MOL0     H10391   3.881   1.363   1.408 -0.5455 -0.3918 -0.1614
  818MOL0     H10392   3.530   0.966   1.461  3.1785  1.9265 -0.1978
  818MOL0     H10393   3.500   0.765   1.610 -0.6581  0.5387 -0.3631
  818MOL0     H10394   3.507   0.594   1.699 -1.6738 -1.3257  1.9478
  818MOL0     H10395   3.410   0.547   1.579  0.7281  3.4620  1.0462
  818MOL0     H10396   3.585   0.352   1.748 -1.4742 -2.7993 -0.6434
  818MOL0     H10397   3.429   0.394   1.797  1.9091  0.5821  1.7948
  818MOL0     H10398   3.361   0.331   1.539 -0.1937 -1.3146 -0.3568
  818MOL0     H10399   3.502   0.230   1.538 -0.2754 -1.3846  0.4696
  818MOL0     H10400   3.308   0.197   1.773 -2.3343  0.4479 -1.4068
  818MOL0     H10401   3.427   0.094   1.719 -0.6662  1.3336  0.3776
  818MOL0     H10402   3.279  -0.032   1.618  3.2742 -0.4814  0.1035
  818MOL0     H10403   3.323   0.071   1.491 -0.1706 -0.9701 -0.0351
  818MOL0     H10404   3.102   0.154   1.660 -0.4149 -0.1900 -0.7890
  818MOL0     H10405   3.135   0.210   1.496 -0.9360 -0.3864  0.1113
  818MOL0     H10406   3.028  -0.071   1.554 -1.0563 -1.8658 -2.3965
  818MOL0     H10407   3.102  -0.036   1.405  0.6254 -2.4791  1.6501
  818MOL0     H10408   2.846  -0.003   1.431  0.5877 -1.5583  2.7441
  818MOL0     H10409   2.887   0.166   1.482  0.0579  2.1447 -1.7398
  818MOL0     H10410   3.773   0.551   1.341 -3.3537 -1.3392  0.1016
  818MOL0     H10411   3.825   0.774   1.235 -0.5311  1.4563 -2.0014
  818MOL0     H10412   3.619   1.185   1.096 -0.4317  0.7806  0.6919
  818MOL0     H10413   3.567   1.390   1.030  1.0524 -4.8235 -1.8539
  818MOL0     H10414   3.524   3.566   1.650  2.5779  0.4481  2.0700
  818MOL0     H10415   3.565   3.805   1.545  1.0987 -0.7305  1.4764
  818MOL0     H10416   3.476   3.991   1.050  2.4831 -4.4312 -0.2472
  818MOL0     H10417   3.513   4.162   0.893 -1.3547 -0.5408  0.5578
  818MOL0     H10418   3.675   4.480   0.751 -0.4625  1.0190 -0.6560
  818MOL0     H10419   3.543   4.378   0.816  0.1718 -0.4122 -0.2451
  818MOL0     H10420   3.653   4.189   0.671  0.7958 -1.1431  0.1171
  818MOL0     H10421   3.786   4.300   0.647 -0.1699 -0.0634 -0.7866
  818MOL0     H10422   3.643   4.436   0.516 -0.5339  1.1560 -0.0556
  818MOL0     H10423   3.492   4.340   0.558  0.3445 -0.9567 -0.8138
  818MOL0     H10424   3.611   4.304   0.325  1.0546 -0.3620 -0.3240
  818MOL0     H10425   3.735   4.214   0.433  1.4592  3.5826 -0.1938
  818MOL0     H10426   3.392   3.960   0.420  0.5998 -2.3972  0.6962
  818MOL0     H10427   3.870   4.277   1.075 -1.3471  2.4214 -0.2587
  818MOL0     H10428   3.971   4.148   1.254 -1.2882  3.1951  0.5291
  818MOL0     H10429   3.857   4.108   1.376  1.5784  2.7919  0.2215
  818MOL0     H10430   3.915   3.977   1.267 -1.6039 -0.9099  0.6239
  819MOL0     O10431   3.809   6.509   8.389 -0.3593  0.4096 -0.0379
  819MOL0     C10432   3.850   6.617   8.351  0.2411  0.2702 -0.9925
  819MOL0     O10433   3.983   6.638   8.305 -0.3364 -0.0060 -0.4526
  819MOL0     C10434   4.056   6.526   8.301 -0.9574  0.6063  0.8898
  819MOL0     C10435   4.086   6.446   8.415 -0.0775  0.0213  0.1425
  819MOL0     C10436   4.157   6.327   8.407  0.2029  0.2107  0.6440
  819MOL0     C10437   4.218   6.288   8.287 -0.3172 -0.2605  0.9461
  819MOL0     O10438   4.296   6.169   8.293  0.2059  0.5051  0.5716
  819MOL0     C10439   4.336   6.119   8.162  0.2806  0.9976  0.4685
  819MOL0     C10440   4.435   6.003   8.192 -0.0622 -0.5857  0.3802
  819MOL0     C10441   4.365   5.887   8.262 -0.1331  0.2261 -0.0298
  819MOL0     C10442   4.467   5.776   8.308 -0.2182 -0.2120 -0.3846
  819MOL0     C10443   4.376   5.659   8.347  0.6509 -0.2400 -1.2538
  819MOL0     C10444   4.464   5.565   8.432  0.0813  0.0178  0.1658
  819MOL0     C10445   4.387   5.440   8.483  0.5530  0.0148 -0.0828
  819MOL0     C10446   4.361   5.331   8.381  0.5543 -0.1242  0.3029
  819MOL0     N10447   4.301   5.203   8.421  0.4601  0.5863  0.1264
  819MOL0     C10448   4.287   5.090   8.331 -0.2092  1.1140  0.1814
  819MOL0     C10449   4.224   5.002   8.409 -0.5560  0.1147 -0.2813
  819MOL0     C10450   4.182   4.861   8.360  0.0497 -0.9850  0.1435
  819MOL0     C10451   4.034   4.860   8.310  0.2802 -0.2961 -0.6979
  819MOL0     C10452   3.991   4.719   8.268  0.2413  0.3455 -0.4063
  819MOL0     C10453   4.042   4.667   8.138 -0.6755  0.6957  0.8197
  819MOL0     O10454   3.976   4.547   8.115 -0.3346  0.5006 -0.3925
  819MOL0     C10455   3.940   4.491   7.997  0.6405 -0.7632  0.5356
  819MOL0     C10456   3.839   4.393   7.984  0.4266  0.2601 -0.0067
  819MOL0     C10457   3.782   4.356   7.863  0.5415 -0.5103 -0.7623
  819MOL0     C10458   3.838   4.408   7.738 -0.4299 -0.4139 -0.8073
  819MOL0     C10459   3.784   4.364   7.613  0.8357  0.2702  0.5044
  819MOL0     O10460   3.709   4.259   7.631  0.5163  0.1771 -0.1312
  819MOL0     C10461   3.632   4.211   7.522  0.0421 -0.2948  0.6121
  819MOL0     C10462   3.687   4.152   7.406 -0.2265  1.0804 -0.8443
  819MOL0     C10463   3.612   4.082   7.316  0.1704 -1.1273  0.1221
  819MOL0     C10464   3.473   4.067   7.327 -0.2894  0.8149  0.0114
  819MOL0     O10465   3.401   4.005   7.229 -0.2656  0.0645 -0.7098
  819MOL0     C10466   3.269   4.039   7.208  0.9825 -0.4338  0.2828
  819MOL0     C10467   3.227   3.990   7.067 -0.7684  0.8141 -0.1796
  819MOL0     C10468   3.078   4.005   7.032  0.3734  0.3323 -0.0899
  819MOL0     C10469   3.052   3.929   6.900  0.3696  0.4194 -0.3692
  819MOL0     C10470   2.912   3.977   6.856 -1.0530  0.2458 -0.9006
  819MOL0     C10471   2.853   3.916   6.722  0.3972  0.0526 -0.4347
  819MOL0     C10472   2.859   3.760   6.732 -0.5517 -0.0099 -0.4407
  819MOL0     C10473   2.772   3.693   6.630 -0.5943  0.2962 -0.7287
  819MOL0    Cl10474   2.859   3.723   6.480 -0.1404 -0.2362  0.0511
  819MOL0     C10475   3.417   4.127   7.440 -0.6560  0.7773 -0.0789
  819MOL0     C10476   3.494   4.193   7.537 -0.3741  0.8861 -0.0682
  819MOL0     O10477   3.780   4.433   7.509  0.1884 -0.3037  0.1325
  819MOL0     C10478   3.930   4.508   7.748  0.2415 -0.6164 -0.5702
  819MOL0     C10479   3.976   4.556   7.876 -0.9203 -0.8896  0.1036
  819MOL0     N10480   4.189   5.052   8.535 -0.4862 -0.5608  0.2991
  819MOL0     N10481   4.239   5.171   8.545 -0.0924 -1.1664 -0.2061
  819MOL0     C10482   4.190   6.369   8.172 -0.2654  0.8184  0.9624
  819MOL0     C10483   4.101   6.480   8.174  0.0777 -0.1332 -0.0563
  819MOL0     C10484   3.765   6.731   8.372  0.7034 -0.1614  0.3270
  819MOL0     C10485   3.828   6.853   8.357 -0.0418 -0.7373  0.6242
  819MOL0     C10486   3.756   6.980   8.385  2.1308  0.6363 -0.5519
  819MOL0     C10487   3.623   6.975   8.430  0.0899  0.4055  0.0285
  819MOL0     O10488   3.574   7.097   8.475 -0.4329 -0.1949  0.4692
  819MOL0     C10489   3.445   7.106   8.549 -0.8201 -0.1452 -0.8793
  819MOL0     C10490   3.359   7.215   8.480  0.6673 -0.7420  0.3129
  819MOL0     C10491   3.202   7.204   8.494  1.6175 -0.2100  0.6351
  819MOL0     C10492   3.153   7.113   8.381  0.0088  0.1986  0.9849
  819MOL0     C10493   3.029   7.048   8.422 -1.4812  0.1663 -0.5040
  819MOL0     C10494   2.917   7.015   8.465  0.8238  0.8322  0.1816
  819MOL0     C10495   3.560   6.850   8.425  0.0723 -0.2784  0.3568
  819MOL0     C10496   3.626   6.729   8.403 -0.1294 -0.3272  0.1234
  819MOL0     C10497   3.543   6.609   8.400 -0.9254 -0.3287 -0.2404
  819MOL0     H10498   4.054   6.480   8.513  0.7787 -0.5121  0.6167
  819MOL0     H10499   4.162   6.253   8.487 -1.9894 -0.2944  0.3964
  819MOL0     H10500   4.253   6.066   8.115  0.2878 -1.0879  2.6102
  819MOL0     H10501   4.380   6.189   8.090  1.6374  0.6231  0.8993
  819MOL0     H10502   4.520   6.037   8.252  1.4688  0.0055 -1.9783
  819MOL0     H10503   4.477   5.962   8.099 -1.2386  0.0473 -0.4510
  819MOL0     H10504   4.298   5.837   8.191  2.3922 -1.0355 -1.6522
  819MOL0     H10505   4.316   5.924   8.353 -0.7859  1.4695 -0.8600
  819MOL0     H10506   4.540   5.748   8.231  1.6666  0.2645  1.1403
  819MOL0     H10507   4.521   5.815   8.395 -1.4449 -0.9044  0.7331
  819MOL0     H10508   4.280   5.691   8.390  1.3385 -0.2959  0.4128
  819MOL0     H10509   4.348   5.611   8.253  0.1762  0.9802 -1.7561
  819MOL0     H10510   4.547   5.528   8.371  2.4521  0.2287  3.0562
  819MOL0     H10511   4.516   5.609   8.517  1.0516  0.9619 -0.8749
  819MOL0     H10512   4.291   5.476   8.521  1.2673 -0.0301  1.8990
  819MOL0     H10513   4.430   5.387   8.569 -2.9213 -3.2829 -0.1269
  819MOL0     H10514   4.290   5.386   8.319  0.3865 -1.2848 -0.5557
  819MOL0     H10515   4.448   5.322   8.315  0.4234 -0.3669  0.1650
  819MOL0     H10516   4.333   5.091   8.232 -1.6513  1.6348 -0.5037
  819MOL0     H10517   4.256   4.827   8.287 -0.2788 -1.2078 -0.0873
  819MOL0     H10518   4.190   4.797   8.448 -0.7739 -0.2302  0.7818
  819MOL0     H10519   3.971   4.892   8.392  2.7570  0.7154  0.9219
  819MOL0     H10520   4.030   4.930   8.226 -0.9322  1.0778  0.4717
  819MOL0     H10521   3.882   4.727   8.264  0.2170  1.2730  1.3743
  819MOL0     H10522   3.997   4.643   8.346 -2.0699  2.0670  1.6021
  819MOL0     H10523   4.147   4.640   8.126 -1.6797 -2.2942 -3.1511
  819MOL0     H10524   4.022   4.743   8.062  1.9193 -0.2882 -0.9799
  819MOL0     H10525   3.805   4.358   8.081  0.0823 -1.6263 -0.7743
  819MOL0     H10526   3.697   4.290   7.873  0.0158  0.3885  1.1206
  819MOL0     H10527   3.793   4.160   7.384 -0.0710 -1.0919 -1.0566
  819MOL0     H10528   3.663   4.028   7.237 -0.4244 -1.8031  0.1918
  819MOL0     H10529   3.203   3.998   7.284 -0.4535  1.3995  0.0878
  819MOL0     H10530   3.248   4.147   7.207  0.9174 -0.4373 -1.6629
  819MOL0     H10531   3.295   4.024   6.989  1.5705 -0.3284  1.2569
  819MOL0     H10532   3.246   3.882   7.068 -0.4660  0.8589 -0.6228
  819MOL0     H10533   3.016   3.970   7.116  0.1835  1.6022  0.3155
  819MOL0     H10534   3.057   4.111   7.014 -0.5076  0.4588  1.4951
  819MOL0     H10535   3.066   3.821   6.911 -1.2149  0.4260  2.5009
  819MOL0     H10536   3.119   3.972   6.824  0.1047  0.1595 -0.7499
  819MOL0     H10537   2.908   4.087   6.854 -3.8717  0.3126  1.3930
  819MOL0     H10538   2.839   3.952   6.934  0.4178 -1.5471 -0.0392
  819MOL0     H10539   2.748   3.945   6.717  0.8563  1.9196  0.1386
  819MOL0     H10540   2.904   3.939   6.628 -0.7111  1.3571 -0.7450
  819MOL0     H10541   2.846   3.729   6.837  3.6677  0.1416  0.2946
  819MOL0     H10542   2.957   3.720   6.707  0.0935  1.0141  0.4007
  819MOL0     H10543   2.768   3.587   6.657  2.4249 -0.1578 -1.6765
  819MOL0     H10544   2.675   3.743   6.633 -1.7814 -1.7676 -2.1290
  819MOL0     H10545   3.314   4.113   7.471 -0.9092  0.2997 -1.0823
  819MOL0     H10546   3.449   4.231   7.628  2.0937  1.6641  0.9171
  819MOL0     H10547   3.955   4.563   7.658 -2.4414 -1.8537 -2.1945
  819MOL0     H10548   4.043   4.642   7.876  0.4602 -1.9388  0.7552
  819MOL0     H10549   4.229   6.331   8.078  1.3981  3.3905  0.5194
  819MOL0     H10550   4.071   6.543   8.091 -2.8186 -0.6682  0.4744
  819MOL0     H10551   3.936   6.861   8.346 -0.2655  1.0169 -0.8023
  819MOL0     H10552   3.806   7.076   8.387 -2.1455  3.1309 -1.4063
  819MOL0     H10553   3.469   7.143   8.649 -2.8033 -0.5860 -0.1853
  819MOL0     H10554   3.383   7.018   8.568  0.2489 -0.2385  3.1677
  819MOL0     H10555   3.382   7.223   8.373  0.7260  2.0354  0.4490
  819MOL0     H10556   3.385   7.305   8.536 -0.4272  1.4515 -2.4419
  819MOL0     H10557   3.148   7.297   8.477  0.9614 -0.9821 -1.9580
  819MOL0     H10558   3.177   7.169   8.594  0.3629 -0.5251  0.2273
  819MOL0     H10559   3.130   7.166   8.289  0.9414 -0.4395  0.3556
  819MOL0     H10560   3.233   7.041   8.360  1.8349  2.8001 -1.6854
  819MOL0     H10561   2.823   6.988   8.507  0.2007 -0.7735 -2.0987
  819MOL0     H10562   3.455   6.840   8.448 -0.4662  0.2329 -1.6826
  819MOL0     H10563   3.579   6.554   8.313  2.0709 -1.4147  1.5359
  819MOL0     H10564   3.550   6.551   8.493 -1.6156  2.0552  1.4022
  819MOL0     H10565   3.436   6.633   8.390 -0.5522  4.8253  3.7829
  820MOL0     O10566   8.199  11.175   6.189 -0.0778  0.3744  0.1849
  820MOL0     C10567   8.256  11.106   6.279 -0.7521 -0.1431 -0.2578
  820MOL0     O10568   8.287  10.971   6.281  0.0941 -0.3611  1.0994
  820MOL0     C10569   8.197  10.885   6.226  0.9397  1.0682  0.3831
  820MOL0     C10570   8.241  10.771   6.156 -0.0898  0.1271 -0.0975
  820MOL0     C10571   8.147  10.675   6.114  0.7572 -0.1114  0.4321
  820MOL0     C10572   8.011  10.699   6.120 -1.4747  0.5651 -0.3057
  820MOL0     O10573   7.916  10.612   6.075 -0.1176 -0.2249  0.0207
  820MOL0     C10574   7.938  10.469   6.079 -0.1852  0.6257  0.7549
  820MOL0     C10575   7.835  10.392   5.993 -0.0300  0.5847 -0.5619
  820MOL0     C10576   7.689  10.425   6.000 -0.0598 -0.9727 -0.4345
  820MOL0     C10577   7.626  10.402   6.133  0.2562  0.3889 -1.2690
  820MOL0     C10578   7.499  10.499   6.156  0.2730  0.0263  0.5093
  820MOL0     C10579   7.395  10.500   6.046 -0.6901 -0.1345  0.9374
  820MOL0     C10580   7.280  10.599   6.075 -0.0006 -0.4238 -0.9884
  820MOL0     C10581   7.150  10.568   5.994 -0.2672  0.2911  0.2758
  820MOL0     N10582   7.054  10.674   6.013 -0.4912  0.4922  0.2891
  820MOL0     C10583   7.069  10.799   5.957 -0.0555  0.4482 -0.7748
  820MOL0     C10584   6.959  10.864   5.991 -0.4648 -1.1046 -0.3868
  820MOL0     C10585   6.923  11.013   5.969  0.0234  0.8648  0.1893
  820MOL0     C10586   6.772  11.036   5.949  0.3818  0.3807 -0.1869
  820MOL0     C10587   6.748  11.158   5.860 -0.4762  0.2555  0.0905
  820MOL0     C10588   6.779  11.164   5.708 -0.0550  0.1097  0.0907
  820MOL0     O10589   6.723  11.060   5.639 -0.1330  0.7570  0.5546
  820MOL0     C10590   6.646  11.090   5.536 -0.2231 -0.3207 -0.6791
  820MOL0     C10591   6.555  11.202   5.530 -0.2081  0.7861  0.5313
  820MOL0     C10592   6.485  11.224   5.407  0.2054  0.6687  0.2641
  820MOL0     C10593   6.519  11.137   5.291  0.4727  1.0391 -0.0096
  820MOL0     C10594   6.460  11.161   5.158  0.0908  0.0175  0.3918
  820MOL0     O10595   6.495  11.076   5.063  0.0689  0.2950  0.1937
  820MOL0     C10596   6.435  11.061   4.946 -0.2185  0.3872  0.3011
  820MOL0     C10597   6.497  11.009   4.828 -0.2205 -0.0466 -0.2974
  820MOL0     C10598   6.427  10.988   4.709 -0.0496 -0.5206  0.6850
  820MOL0     C10599   6.289  10.996   4.704  1.0083 -0.2567 -0.3493
  820MOL0     O10600   6.225  10.958   4.591 -0.2057 -0.9999  0.4478
  820MOL0     C10601   6.184  11.080   4.522 -0.3427 -0.4682  0.1120
  820MOL0     C10602   6.297  11.160   4.464  0.6243  1.2342 -0.1186
  820MOL0     C10603   6.389  11.081   4.373  0.4280 -0.3681 -0.2615
  820MOL0     C10604   6.521  11.154   4.334  0.8162  0.0367  0.5044
  820MOL0     C10605   6.625  11.185   4.443 -1.2019 -0.2517 -0.2407
  820MOL0     C10606   6.733  11.271   4.388  0.6256 -0.8991 -0.5330
  820MOL0     C10607   6.841  11.307   4.486  1.0596  0.8228  0.0141
  820MOL0     C10608   6.933  11.424   4.442  0.8677 -0.2507 -0.2033
  820MOL0    Cl10609   6.983  11.414   4.261  0.1045 -0.0871  0.0134
  820MOL0     C10610   6.216  11.044   4.821 -0.8280  0.0326 -0.0969
  820MOL0     C10611   6.296  11.090   4.933  0.4964 -0.1648  0.5942
  820MOL0     O10612   6.381  11.257   5.152 -0.1151 -0.1886 -0.2371
  820MOL0     C10613   6.605  11.027   5.312  0.0180 -0.0938  0.1939
  820MOL0     C10614   6.675  11.010   5.424  0.6411 -0.3889  0.6742
  820MOL0     N10615   6.883  10.772   6.055 -0.5927 -1.2452  0.3008
  820MOL0     N10616   6.931  10.657   6.061 -0.0035  0.2805  0.0079
  820MOL0     C10617   7.972  10.821   6.178 -0.7331 -0.2373 -0.3623
  820MOL0     C10618   8.058  10.907   6.233 -1.0212 -0.5168  0.0249
  820MOL0     C10619   8.313  11.190   6.386 -0.3971 -0.2298  0.5400
  820MOL0     C10620   8.397  11.125   6.484 -1.0451 -0.8724  0.8369
  820MOL0     C10621   8.455  11.200   6.590 -0.3260  0.0728  0.5651
  820MOL0     C10622   8.426  11.335   6.606 -0.0920 -0.0938 -0.4858
  820MOL0     O10623   8.482  11.418   6.708 -0.1424 -0.2678 -0.2941
  820MOL0     C10624   8.571  11.372   6.803 -0.9136  0.4548 -0.5758
  820MOL0     C10625   8.638  11.475   6.886 -0.2018  0.0682 -0.4240
  820MOL0     C10626   8.725  11.554   6.788  0.3281 -1.0602  1.0941
  820MOL0     C10627   8.798  11.673   6.860  0.4375  0.0323 -0.8452
  820MOL0     C10628   8.705  11.789   6.878  0.5946 -0.5896 -0.4681
  820MOL0     C10629   8.653  11.901   6.878 -0.4414 -0.6479 -0.3764
  820MOL0     C10630   8.346  11.394   6.508  0.6195  0.1306 -0.2695
  820MOL0     C10631   8.279  11.327   6.404 -0.3824  0.4020 -0.8631
  820MOL0     C10632   8.186  11.411   6.323 -0.0383  0.4384 -0.8409
  820MOL0     H10633   8.345  10.739   6.160 -0.9569 -2.8823  0.7098
  820MOL0     H10634   8.177  10.581   6.069 -1.2107 -0.0076 -1.2429
  820MOL0     H10635   8.039  10.458   6.039 -0.6429 -0.2078 -0.2056
  820MOL0     H10636   7.925  10.431   6.180 -2.3767  2.9121  1.4357
  820MOL0     H10637   7.840  10.286   6.017  1.9392  0.8431  0.4187
  820MOL0     H10638   7.865  10.415   5.890 -3.4121  0.4061 -1.6959
  820MOL0     H10639   7.629  10.376   5.922 -0.4512 -1.6326  0.2686
  820MOL0     H10640   7.678  10.531   5.978 -0.9418 -0.5214  1.9628
  820MOL0     H10641   7.605  10.295   6.139  1.9389  0.1026  3.1543
  820MOL0     H10642   7.694  10.425   6.216  1.0053  0.6948 -1.9447
  820MOL0     H10643   7.448  10.467   6.247 -0.8487 -2.9357 -1.0236
  820MOL0     H10644   7.553  10.594   6.170  1.2883 -0.2927 -0.9836
  820MOL0     H10645   7.447  10.540   5.959  1.4541 -1.8313  1.3198
  820MOL0     H10646   7.358  10.400   6.020  0.8563 -0.2268 -1.1048
  820MOL0     H10647   7.313  10.697   6.040 -0.0920  0.4281  1.1858
  820MOL0     H10648   7.259  10.606   6.182  1.0590 -1.6477 -0.6708
  820MOL0     H10649   7.176  10.544   5.891 -0.9197  0.9480 -0.0489
  820MOL0     H10650   7.111  10.477   6.040 -1.2785  0.6339  0.1105
  820MOL0     H10651   7.159  10.838   5.911  0.2184 -0.7818 -1.3216
  820MOL0     H10652   6.965  11.070   6.053  0.7525 -0.9987  1.1390
  820MOL0     H10653   6.979  11.042   5.880  0.5186 -2.4281 -0.7159
  820MOL0     H10654   6.724  10.946   5.909 -1.1820 -0.2864  2.9297
  820MOL0     H10655   6.730  11.065   6.046  0.4400  1.0474 -0.3540
  820MOL0     H10656   6.803  11.241   5.907  2.6514 -1.8043  0.3247
  820MOL0     H10657   6.639  11.162   5.871 -0.7848 -3.3471 -0.4926
  820MOL0     H10658   6.887  11.154   5.693 -0.4139 -1.3522 -1.8886
  820MOL0     H10659   6.740  11.264   5.683 -2.4561  0.3450  3.9677
  820MOL0     H10660   6.537  11.254   5.623  1.3973  5.0400 -1.2689
  820MOL0     H10661   6.408  11.298   5.384  0.2048 -0.2042 -3.1177
  820MOL0     H10662   6.602  10.983   4.831 -0.8082 -2.7417  3.1454
  820MOL0     H10663   6.491  10.961   4.626  0.3639 -4.2502  2.0457
  820MOL0     H10664   6.113  11.058   4.442  0.0023 -1.8010  0.1400
  820MOL0     H10665   6.118  11.135   4.590 -0.3145 -1.3840  0.9228
  820MOL0     H10666   6.257  11.242   4.404  0.9338  0.9460 -0.7310
  820MOL0     H10667   6.357  11.208   4.541  2.3711  1.3962 -1.5159
  820MOL0     H10668   6.415  10.984   4.418 -0.1315 -1.0035 -1.2649
  820MOL0     H10669   6.330  11.045   4.288 -0.2740 -2.0847  0.8900
  820MOL0     H10670   6.498  11.242   4.273  1.3037 -0.7089 -0.8132
  820MOL0     H10671   6.572  11.091   4.261 -0.5184 -2.3720  1.5439
  820MOL0     H10672   6.677  11.096   4.481 -1.2377  0.1132  0.6730
  820MOL0     H10673   6.578  11.231   4.530 -0.9905 -1.2837  0.4445
  820MOL0     H10674   6.772  11.223   4.298 -0.4956 -0.9179 -1.0303
  820MOL0     H10675   6.684  11.364   4.356  2.8570 -0.2796 -2.4642
  820MOL0     H10676   6.908  11.221   4.501  1.9800  2.0013  3.9027
  820MOL0     H10677   6.788  11.325   4.580  1.0973 -0.7640  0.3582
  820MOL0     H10678   6.872  11.514   4.447 -2.0710 -2.0293 -1.0104
  820MOL0     H10679   7.022  11.425   4.505  1.3766 -2.9520 -0.7121
  820MOL0     H10680   6.111  11.069   4.812 -0.3350  1.7610 -1.6001
  820MOL0     H10681   6.235  11.126   5.015 -0.5329 -0.8797  0.1675
  820MOL0     H10682   6.627  10.965   5.225  1.1803  2.0792 -1.1324
  820MOL0     H10683   6.745  10.927   5.431 -1.2432 -2.0315  1.0824
  820MOL0     H10684   7.875  10.870   6.174 -1.1750 -0.9327  1.1598
  820MOL0     H10685   8.016  10.987   6.293  2.2913  1.4882 -0.0289
  820MOL0     H10686   8.405  11.017   6.476 -0.8115 -0.7350 -1.8126
  820MOL0     H10687   8.509  11.155   6.672 -0.1703 -0.3572  0.2285
  820MOL0     H10688   8.649  11.309   6.758  0.9044  2.2644 -0.1174
  820MOL0     H10689   8.511  11.308   6.868 -1.9664 -1.5493 -3.2985
  820MOL0     H10690   8.700  11.427   6.962 -2.0348  3.0392  3.2455
  820MOL0     H10691   8.560  11.534   6.935 -1.7341 -1.6276 -0.6962
  820MOL0     H10692   8.666  11.598   6.706 -1.6807 -1.7385  2.0978
  820MOL0     H10693   8.809  11.498   6.746 -0.1922 -0.4938 -0.8399
  820MOL0     H10694   8.818  11.638   6.962 -2.1353 -2.2489 -0.9996
  820MOL0     H10695   8.900  11.694   6.828  0.4164  3.5488  0.9364
  820MOL0     H10696   8.622  12.004   6.874  0.7443 -0.2833 -1.1271
  820MOL0     H10697   8.315  11.497   6.512 -1.9949 -0.6093  2.4760
  820MOL0     H10698   8.229  11.441   6.227  2.4251 -2.7337 -0.9244
  820MOL0     H10699   8.089  11.360   6.317 -0.7893  1.6870  0.2173
  820MOL0     H10700   8.167  11.500   6.383  2.0265  0.5803 -0.2985
  821MOL0     O10701   7.348   0.667  10.678 -0.6123  0.5867 -0.3351
  821MOL0     C10702   7.242   0.704  10.735  0.2619  0.5067 -0.4865
  821MOL0     O10703   7.210   0.832  10.768 -0.2194 -0.8844 -0.5025
  821MOL0     C10704   7.309   0.924  10.774  0.2038 -0.3787  0.3161
  821MOL0     C10705   7.328   0.989  10.902 -0.5185  0.0044  0.7945
  821MOL0     C10706   7.422   1.094  10.907 -1.0061 -0.5670  0.9021
  821MOL0     C10707   7.511   1.126  10.797 -0.5961  0.3361  0.8821
  821MOL0     O10708   7.608   1.221  10.798 -0.2201 -0.0826  0.5041
  821MOL0     C10709   7.688   1.228  10.922  0.4034 -0.6145 -0.0759
  821MOL0     C10710   7.752   1.100  10.956 -0.0283  0.5414 -0.0228
  821MOL0     C10711   7.879   1.056  10.872 -0.7958 -0.2443 -0.6330
  821MOL0     C10712   7.844   0.989  10.739 -0.2150  0.3421  0.3757
  821MOL0     C10713   7.790   0.844  10.745  0.5143 -0.3577  0.2801
  821MOL0     C10714   7.897   0.746  10.787 -0.5741  0.0811  0.9692
  821MOL0     C10715   7.842   0.608  10.750  0.1551 -0.3401 -0.4947
  821MOL0     C10716   7.937   0.492  10.796  0.7901  0.2091  0.2546
  821MOL0     N10717   7.905   0.360  10.733 -0.7284 -0.0118  1.3173
  821MOL0     C10718   7.825   0.255  10.774  0.3362  0.9965 -0.1092
  821MOL0     C10719   7.817   0.168  10.677 -0.0144  0.5497 -0.0973
  821MOL0     C10720   7.757   0.032  10.684 -0.7809  0.0329 -0.3769
  821MOL0     C10721   7.604   0.040  10.671  0.1918 -0.4930  0.0652
  821MOL0     C10722   7.563   0.107  10.543 -0.0311  0.4058 -0.6152
  821MOL0     C10723   7.420   0.124  10.512  0.1052  0.6749  0.1146
  821MOL0     O10724   7.396   0.146  10.368 -0.1230 -0.2868  0.2490
  821MOL0     C10725   7.452   0.273  10.346  0.0056  0.1570 -1.3935
  821MOL0     C10726   7.369   0.381  10.393 -0.5404  0.1925  0.1226
  821MOL0     C10727   7.418   0.508  10.399 -0.0609  0.7975 -0.4812
  821MOL0     C10728   7.550   0.532  10.354  0.4764 -0.1260 -0.3313
  821MOL0     C10729   7.604   0.667  10.376 -0.3699 -0.6906  0.1398
  821MOL0     O10730   7.733   0.681  10.348 -0.7964  0.9026 -0.1238
  821MOL0     C10731   7.786   0.799  10.337 -1.1528 -0.6507 -0.7259
  821MOL0     C10732   7.908   0.821  10.406 -0.0234  0.4680 -0.3860
  821MOL0     C10733   7.979   0.944  10.399  1.0338 -0.7703  0.5616
  821MOL0     C10734   7.922   1.048  10.323  0.2212 -0.0616  0.1408
  821MOL0     O10735   7.987   1.170  10.327 -0.2122  0.0648  0.2622
  821MOL0     C10736   7.903   1.282  10.321 -0.3482 -0.2360 -0.1826
  821MOL0     C10737   7.995   1.405  10.346  0.4332  0.5558  0.0854
  821MOL0     C10738   8.039   1.418  10.499 -0.4720  0.2551  0.0807
  821MOL0     C10739   8.146   1.533  10.513 -0.6247  0.2094 -0.0318
  821MOL0     C10740   8.197   1.545  10.660 -0.2028  0.4232 -0.2372
  821MOL0     C10741   8.299   1.651  10.675  0.4399  0.2962  0.2895
  821MOL0     C10742   8.337   1.662  10.820  0.4811 -0.8660 -0.7765
  821MOL0     C10743   8.461   1.733  10.835  0.0643 -0.6393 -0.0572
  821MOL0    Cl10744   8.599   1.654  10.764  0.1273 -0.5085 -0.4459
  821MOL0     C10745   7.801   1.030  10.254  0.4047 -0.2773  0.7277
  821MOL0     C10746   7.738   0.906  10.258 -0.1580  0.6989 -0.0271
  821MOL0     O10747   7.536   0.756  10.431 -0.3348  1.0056  1.0866
  821MOL0     C10748   7.629   0.421  10.311  0.4493 -0.7288 -0.2462
  821MOL0     C10749   7.584   0.290  10.299 -0.4024  0.7156 -0.0726
  821MOL0     N10750   7.874   0.229  10.567 -0.1206  0.7785  0.0627
  821MOL0     N10751   7.917   0.339  10.601 -0.7049  0.3331 -0.5378
  821MOL0     C10752   7.495   1.055  10.679  0.3338  0.4869  0.8006
  821MOL0     C10753   7.396   0.954  10.671  0.1648 -0.1896  0.5916
  821MOL0     C10754   7.136   0.603  10.766  0.2735  0.1030  0.3062
  821MOL0     C10755   6.999   0.647  10.765  0.6090  1.0243 -1.3700
  821MOL0     C10756   6.887   0.563  10.780 -0.2595 -0.0060 -0.1469
  821MOL0     C10757   6.904   0.422  10.782 -0.7756 -0.1080  0.1255
  821MOL0     O10758   6.808   0.322  10.774  0.1349 -0.0692 -0.0954
  821MOL0     C10759   6.671   0.350  10.801  0.4807 -0.2878  0.6925
  821MOL0     C10760   6.598   0.234  10.856  0.3720  0.3616 -1.3517
  821MOL0     C10761   6.550   0.141  10.750  0.3335  0.3710  0.1549
  821MOL0     C10762   6.490   0.021  10.823  0.2407  1.0304  0.2596
  821MOL0     C10763   6.432  -0.083  10.729  0.4400  0.7985  0.5793
  821MOL0     C10764   6.358  -0.151  10.654 -0.4620  0.5629  0.1412
  821MOL0     C10765   7.040   0.374  10.779 -0.0492 -0.8847 -0.6291
  821MOL0     C10766   7.153   0.465  10.777  0.7134  0.5560 -0.2967
  821MOL0     C10767   7.287   0.402  10.763 -0.2396 -0.0402  0.2350
  821MOL0     H10768   7.268   0.950  10.983  1.6662 -2.9458  1.1734
  821MOL0     H10769   7.439   1.146  11.001  2.8861  0.3961 -0.1716
  821MOL0     H10770   7.767   1.303  10.910  0.2785 -0.5217 -0.3325
  821MOL0     H10771   7.635   1.273  11.006  1.9314 -1.7956  1.5875
  821MOL0     H10772   7.679   1.018  10.955  2.3541 -1.7141 -2.0133
  821MOL0     H10773   7.783   1.113  11.060  1.9996  0.3729 -0.5733
  821MOL0     H10774   7.953   1.000  10.931  1.0533 -0.5627 -3.0948
  821MOL0     H10775   7.935   1.148  10.851 -1.0730  0.1284  0.2116
  821MOL0     H10776   7.779   1.053  10.678 -0.5342  1.0338  1.4140
  821MOL0     H10777   7.940   0.986  10.685 -1.1785  1.8440 -1.5494
  821MOL0     H10778   7.702   0.828  10.808 -0.4149  2.0946 -0.2928
  821MOL0     H10779   7.751   0.817  10.646  0.9577 -0.4032  0.1165
  821MOL0     H10780   7.989   0.757  10.729  0.2256 -0.8315  2.0206
  821MOL0     H10781   7.913   0.771  10.892 -2.6172  1.5403  0.9975
  821MOL0     H10782   7.836   0.620  10.641 -2.2340  1.1391 -0.2708
  821MOL0     H10783   7.743   0.584  10.790  0.2542 -1.1014 -0.6872
  821MOL0     H10784   8.041   0.521  10.779  2.3135 -2.6421  3.4200
  821MOL0     H10785   7.917   0.487  10.904  0.8396  2.3407  0.4110
  821MOL0     H10786   7.777   0.229  10.868 -1.0126 -0.6409 -1.1982
  821MOL0     H10787   7.797  -0.036  10.609 -2.6427  1.6317 -2.9946
  821MOL0     H10788   7.788  -0.012  10.779  1.0490  0.1625 -0.8735
  821MOL0     H10789   7.566  -0.062  10.680 -0.5249 -0.6864 -3.7037
  821MOL0     H10790   7.566   0.094  10.759 -2.3531 -1.4034 -0.3970
  821MOL0     H10791   7.605   0.035  10.472 -0.8702 -0.3625 -0.3559
  821MOL0     H10792   7.597   0.210  10.533  0.1254  0.3233 -0.9672
  821MOL0     H10793   7.371   0.194  10.580  1.3220  0.2432  1.4748
  821MOL0     H10794   7.378   0.026  10.536  1.0662  0.9709  3.5191
  821MOL0     H10795   7.272   0.359  10.436 -0.7608  0.6997 -0.1122
  821MOL0     H10796   7.352   0.581  10.444 -4.0100 -2.0672 -1.1167
  821MOL0     H10797   7.958   0.743  10.462  1.0905  1.4565  0.0468
  821MOL0     H10798   8.074   0.968  10.446  1.4684  1.0302 -1.1014
  821MOL0     H10799   7.852   1.302  10.226  0.2757 -1.9999 -0.9166
  821MOL0     H10800   7.834   1.275  10.405  3.4201 -1.2608  3.1180
  821MOL0     H10801   8.084   1.404  10.282  0.3412 -1.2300 -0.0717
  821MOL0     H10802   7.929   1.488  10.317 -1.0915  0.2594  2.4222
  821MOL0     H10803   7.955   1.445  10.563 -0.6608  2.3762 -0.9726
  821MOL0     H10804   8.080   1.323  10.535 -0.2756  0.4611  0.4037
  821MOL0     H10805   8.100   1.630  10.491  1.7830  1.2888 -0.7008
  821MOL0     H10806   8.238   1.520  10.456  0.3839 -2.2051  1.9913
  821MOL0     H10807   8.224   1.444  10.692  1.8110  0.5869 -1.3132
  821MOL0     H10808   8.115   1.574  10.727 -1.4681 -1.5893 -0.8240
  821MOL0     H10809   8.392   1.631  10.621  0.5938  1.5125  0.0897
  821MOL0     H10810   8.263   1.746  10.636  1.5555  1.1800  1.3264
  821MOL0     H10811   8.351   1.557  10.849 -2.3237 -1.0910  0.0429
  821MOL0     H10812   8.260   1.701  10.887 -0.1897 -0.0372 -1.9784
  821MOL0     H10813   8.449   1.832  10.790 -2.4182 -0.3494  1.1038
  821MOL0     H10814   8.486   1.749  10.941 -3.4344  2.2033  0.5395
  821MOL0     H10815   7.753   1.108  10.196 -1.0753 -1.2985  0.4872
  821MOL0     H10816   7.657   0.878  10.190  0.8892  1.6852 -1.7738
  821MOL0     H10817   7.732   0.446  10.287  0.3080  0.5523  0.3940
  821MOL0     H10818   7.636   0.204  10.259  0.8351  0.6091  1.6500
  821MOL0     H10819   7.551   1.081  10.590 -0.0545  0.8998  0.6706
  821MOL0     H10820   7.398   0.895  10.580 -0.0784  1.3360 -0.4337
  821MOL0     H10821   6.964   0.750  10.758 -0.1372  0.7487 -1.6933
  821MOL0     H10822   6.793   0.615  10.795 -1.0786 -1.3380 -0.4582
  821MOL0     H10823   6.623   0.375  10.706  0.6381  1.3911  1.0151
  821MOL0     H10824   6.650   0.434  10.867  0.1857 -0.1119  0.3786
  821MOL0     H10825   6.508   0.267  10.909 -0.9930 -1.1823 -2.5972
  821MOL0     H10826   6.662   0.176  10.923 -0.3265  2.2407  1.0948
  821MOL0     H10827   6.628   0.106  10.682  1.5010 -1.6417  2.3834
  821MOL0     H10828   6.471   0.183  10.688  0.0526 -0.2368  0.0953
  821MOL0     H10829   6.561  -0.037  10.883 -2.2047 -2.5694 -0.0495
  821MOL0     H10830   6.412   0.052  10.892 -1.1133  1.8929 -1.5902
  821MOL0     H10831   6.299  -0.193  10.574  4.3948 -1.3466 -2.9255
  821MOL0     H10832   7.063   0.269  10.789  3.3420 -0.0166  2.7318
  821MOL0     H10833   7.286   0.296  10.789  3.1792 -0.8178 -2.0806
  821MOL0     H10834   7.328   0.417  10.662 -1.5208  3.0660  0.0693
  821MOL0     H10835   7.364   0.438  10.832  0.4068  0.4957 -0.7294
  822MOL0     O10836   4.418   5.865   4.336 -1.0621  0.1077  0.4397
  822MOL0     C10837   4.427   5.835   4.455 -0.3891  0.1332  1.0761
  822MOL0     O10838   4.359   5.737   4.513 -0.6078  0.1717 -0.1787
  822MOL0     C10839   4.272   5.655   4.439  0.1738 -0.0059  0.6044
  822MOL0     C10840   4.138   5.697   4.439  0.7045  0.1002  0.3167
  822MOL0     C10841   4.041   5.627   4.361 -0.0355  0.3707  0.5115
  822MOL0     C10842   4.081   5.517   4.292  0.0290  0.5888  0.0341
  822MOL0     O10843   4.007   5.448   4.203 -0.0865  0.0234 -0.7342
  822MOL0     C10844   3.859   5.463   4.221  0.6683 -0.0750 -0.0602
  822MOL0     C10845   3.771   5.364   4.132  0.9736  0.6794 -0.3572
  822MOL0     C10846   3.789   5.216   4.185 -0.3588 -0.3826  0.8436
  822MOL0     C10847   3.734   5.123   4.078 -0.3275 -0.5562 -0.0106
  822MOL0     C10848   3.801   4.990   4.091  0.2832  0.1982  0.0351
  822MOL0     C10849   3.750   4.897   3.978  0.1088 -1.0398  0.7217
  822MOL0     C10850   3.784   4.744   3.995 -0.7918 -0.0247  0.5346
  822MOL0     C10851   3.663   4.657   3.985 -0.2365 -0.1003  0.9373
  822MOL0     N10852   3.576   4.688   3.874 -0.0472 -0.2451 -0.1499
  822MOL0     C10853   3.449   4.636   3.876  1.0650  0.7152  0.0268
  822MOL0     C10854   3.417   4.645   3.738  0.3401 -0.4537  0.1911
  822MOL0     C10855   3.281   4.610   3.675 -0.3739  0.6059 -0.3110
  822MOL0     C10856   3.270   4.455   3.657  0.4586  0.1569 -0.9872
  822MOL0     C10857   3.161   4.413   3.564 -0.8893  0.3912  0.1673
  822MOL0     C10858   3.131   4.259   3.577  0.6438  0.1129  0.0445
  822MOL0     O10859   3.040   4.221   3.470  0.3571  0.8162  0.5317
  822MOL0     C10860   3.050   4.103   3.412 -0.4462  0.5371  0.7889
  822MOL0     C10861   2.989   4.095   3.285 -0.4454  0.2173  0.9030
  822MOL0     C10862   2.992   3.980   3.208 -0.0165 -0.1817  1.3909
  822MOL0     C10863   3.068   3.865   3.253  0.4527 -0.6355 -0.4134
  822MOL0     C10864   3.081   3.752   3.166  0.2594 -0.0128  0.4425
  822MOL0     O10865   3.005   3.761   3.049 -0.6427 -0.4070  0.1335
  822MOL0     C10866   2.974   3.662   2.962  0.1543  0.1234  0.4566
  822MOL0     C10867   3.036   3.531   2.951 -1.0877 -0.8206  0.2641
  822MOL0     C10868   2.993   3.442   2.856  0.6484  0.1522  0.0127
  822MOL0     C10869   2.879   3.480   2.780 -0.4484 -0.9451  0.3684
  822MOL0     O10870   2.830   3.406   2.667 -0.3056  0.4083  0.7900
  822MOL0     C10871   2.929   3.335   2.598  0.1831  0.3652 -0.3810
  822MOL0     C10872   2.858   3.270   2.478  0.3912  0.3422  0.1720
  822MOL0     C10873   2.929   3.146   2.425  0.3666 -0.7557  0.8075
  822MOL0     C10874   2.873   3.108   2.288 -0.3180 -0.8319 -0.2448
  822MOL0     C10875   2.946   2.991   2.226 -0.0148  0.0792  0.5321
  822MOL0     C10876   2.850   2.918   2.124  0.1279 -0.6438  1.2767
  822MOL0     C10877   2.837   2.986   1.992 -0.1674  0.4459  0.2342
  822MOL0     C10878   2.973   2.989   1.918  0.0420  0.7114 -0.8194
  822MOL0    Cl10879   2.950   3.054   1.746  0.0599  0.0780 -0.2969
  822MOL0     C10880   2.818   3.607   2.786  0.2686  0.5440  0.4661
  822MOL0     C10881   2.860   3.690   2.890  0.1341 -0.3311  0.3181
  822MOL0     O10882   3.151   3.658   3.197 -0.2494  0.0526 -0.3531
  822MOL0     C10883   3.135   3.876   3.375 -0.0983 -0.2384  0.1861
  822MOL0     C10884   3.118   3.993   3.456 -0.6140 -0.0317 -0.3130
  822MOL0     N10885   3.523   4.693   3.668  0.6754  0.7377  0.4455
  822MOL0     N10886   3.616   4.728   3.746 -0.2915 -0.3105  0.0990
  822MOL0     C10887   4.214   5.468   4.307  0.6908 -0.3108  0.5042
  822MOL0     C10888   4.313   5.541   4.381  0.2006 -0.6131  0.9483
  822MOL0     C10889   4.495   5.931   4.540  0.2512 -0.3286  0.8301
  822MOL0     C10890   4.456   5.936   4.668 -0.5796 -0.1284 -0.8643
  822MOL0     C10891   4.512   6.010   4.766  0.6940 -0.2116 -0.0263
  822MOL0     C10892   4.617   6.103   4.727  0.6806  0.1805 -0.6276
  822MOL0     O10893   4.678   6.179   4.819  0.4252 -0.3115  0.4392
  822MOL0     C10894   4.636   6.168   4.957 -0.0285  0.1496  0.2211
  822MOL0     C10895   4.742   6.204   5.054 -0.4195 -0.3187 -0.1861
  822MOL0     C10896   4.771   6.357   5.042 -0.1113  0.5252 -0.0670
  822MOL0     C10897   4.902   6.387   5.119 -0.7255 -0.3127  0.2670
  822MOL0     C10898   4.928   6.521   5.101  0.4189 -0.2699  0.5725
  822MOL0     C10899   4.966   6.632   5.073 -0.2281  0.6904 -0.4155
  822MOL0     C10900   4.663   6.100   4.602 -0.2158 -0.1787  1.4223
  822MOL0     C10901   4.611   6.007   4.509 -0.6558  0.0215 -0.7515
  822MOL0     C10902   4.657   6.016   4.369  0.2808  0.2158 -0.9594
  822MOL0     H10903   4.121   5.783   4.503  0.5268 -0.0598  0.4882
  822MOL0     H10904   3.936   5.652   4.356 -0.5068 -1.1594  1.8785
  822MOL0     H10905   3.837   5.448   4.327 -1.1878 -0.8428 -0.5252
  822MOL0     H10906   3.816   5.562   4.205 -0.7848  0.0787  3.7845
  822MOL0     H10907   3.811   5.373   4.031 -0.4293  1.2394 -0.8825
  822MOL0     H10908   3.663   5.381   4.128  0.4729 -1.9694 -0.1562
  822MOL0     H10909   3.741   5.187   4.278  1.4886 -2.6070  1.1801
  822MOL0     H10910   3.894   5.189   4.197 -0.5961 -3.7633 -2.5866
  822MOL0     H10911   3.625   5.114   4.078 -0.3843  0.0782  0.3125
  822MOL0     H10912   3.750   5.162   3.977 -2.3944  0.6174  0.0413
  822MOL0     H10913   3.909   5.004   4.092  0.2204  0.9106  2.2665
  822MOL0     H10914   3.767   4.944   4.184 -3.6417 -0.5176 -1.5315
  822MOL0     H10915   3.642   4.901   3.988 -0.0521  1.0885 -1.1771
  822MOL0     H10916   3.775   4.937   3.879  0.8473  0.1904  1.3737
  822MOL0     H10917   3.838   4.739   4.090  1.9453  1.4654 -0.8055
  822MOL0     H10918   3.858   4.713   3.920 -0.6617  0.2299  0.5563
  822MOL0     H10919   3.710   4.561   3.963 -0.6056 -0.1219  0.2022
  822MOL0     H10920   3.607   4.651   4.078 -1.8457  4.2777  0.4702
  822MOL0     H10921   3.382   4.608   3.956 -0.4025 -0.6814 -1.6112
  822MOL0     H10922   3.202   4.639   3.745  1.7026 -2.1590  3.5969
  822MOL0     H10923   3.264   4.657   3.578  2.0648  0.4648 -0.8736
  822MOL0     H10924   3.370   4.425   3.624  2.4276  3.4344  1.3291
  822MOL0     H10925   3.253   4.400   3.750  5.0392 -2.5090 -1.4213
  822MOL0     H10926   3.202   4.434   3.465 -0.8017  0.4745  0.2208
  822MOL0     H10927   3.064   4.463   3.572  0.1000  2.1556  2.1442
  822MOL0     H10928   3.079   4.247   3.673 -2.7693  3.4519 -1.1684
  822MOL0     H10929   3.224   4.201   3.576 -0.1161 -1.1474 -1.3548
  822MOL0     H10930   2.925   4.181   3.269  0.7639  0.8586 -0.7801
  822MOL0     H10931   2.938   3.992   3.115  1.4050 -0.4675  0.5096
  822MOL0     H10932   3.129   3.502   2.999 -2.0540 -1.5131  1.8215
  822MOL0     H10933   3.039   3.345   2.841  0.4351  0.0026  0.2988
  822MOL0     H10934   2.996   3.415   2.565  0.3743  0.0595 -0.7364
  822MOL0     H10935   2.975   3.259   2.661 -0.4566 -0.2826 -0.6861
  822MOL0     H10936   2.753   3.258   2.508  0.1061 -1.1744 -1.2777
  822MOL0     H10937   2.852   3.343   2.396 -2.8941 -0.4555 -0.4605
  822MOL0     H10938   3.036   3.163   2.415  0.9215 -2.7686  2.5414
  822MOL0     H10939   2.921   3.064   2.498  0.1758 -2.1145 -0.6863
  822MOL0     H10940   2.877   3.194   2.220  0.4547 -0.4889  0.2257
  822MOL0     H10941   2.771   3.070   2.304 -1.0055  0.8139 -0.5470
  822MOL0     H10942   2.970   2.912   2.298 -2.0024 -0.8555  0.2408
  822MOL0     H10943   3.044   3.017   2.185 -0.7494 -0.8683 -2.0484
  822MOL0     H10944   2.881   2.813   2.117  0.0064 -0.5905 -0.2843
  822MOL0     H10945   2.748   2.911   2.162 -1.0619  2.3171 -1.0504
  822MOL0     H10946   2.813   3.090   2.018  1.6522  0.7015  1.0327
  822MOL0     H10947   2.759   2.948   1.925  0.2342 -2.1559  1.1307
  822MOL0     H10948   3.043   3.053   1.973 -1.0498  2.1829 -1.0653
  822MOL0     H10949   3.015   2.889   1.905  3.9474  2.1054 -0.1062
  822MOL0     H10950   2.734   3.626   2.719 -0.1295  0.3463  0.9000
  822MOL0     H10951   2.803   3.782   2.900 -0.3540 -0.6754  0.7425
  822MOL0     H10952   3.187   3.788   3.414  2.9642  2.1386  1.9432
  822MOL0     H10953   3.176   3.978   3.546 -1.0790 -2.2652 -0.3211
  822MOL0     H10954   4.239   5.378   4.252 -0.9297 -0.4833 -0.0184
  822MOL0     H10955   4.418   5.513   4.379 -0.1438 -2.1155 -2.0166
  822MOL0     H10956   4.376   5.876   4.711 -1.8975  2.8892  1.2249
  822MOL0     H10957   4.485   5.974   4.865 -1.4195 -1.9055 -1.1230
  822MOL0     H10958   4.609   6.065   4.984  0.3701  0.7659  3.3776
  822MOL0     H10959   4.544   6.226   4.964 -3.0775 -4.3321  1.8931
  822MOL0     H10960   4.843   6.164   5.038  0.4404  0.5319  2.4590
  822MOL0     H10961   4.705   6.189   5.156  0.2041  2.0195  0.4358
  822MOL0     H10962   4.687   6.414   5.081  1.0526  1.5667  0.9670
  822MOL0     H10963   4.769   6.386   4.937 -0.8008  1.1562  0.1144
  822MOL0     H10964   4.880   6.363   5.224 -0.7901 -1.8096 -0.0723
  822MOL0     H10965   4.989   6.324   5.099  2.2836  2.7838  2.2898
  822MOL0     H10966   4.998   6.733   5.059 -0.8591  1.1435  1.1645
  822MOL0     H10967   4.752   6.157   4.575 -0.5264  0.8264  2.4513
  822MOL0     H10968   4.590   6.071   4.303 -1.3165 -0.8335 -0.2549
  822MOL0     H10969   4.757   6.060   4.362  0.9902 -0.8400  1.3044
  822MOL0     H10970   4.653   5.912   4.334 -0.0868 -0.6022  1.3637
  823MOL0     O10971   0.719   0.245   1.349 -0.3058 -0.2764  0.1506
  823MOL0     C10972   0.809   0.323   1.395  0.0439 -0.1231 -0.1394
  823MOL0     O10973   0.831   0.345   1.529  0.3559  0.3686  0.0768
  823MOL0     C10974   0.788   0.236   1.609 -0.3461 -0.7369 -0.0677
  823MOL0     C10975   0.888   0.147   1.645  0.1830 -0.1051  0.3814
  823MOL0     C10976   0.867   0.043   1.733  0.2556 -0.0129  0.4977
  823MOL0     C10977   0.744   0.027   1.794 -0.4212 -0.2218  0.1464
  823MOL0     O10978   0.724  -0.082   1.876 -1.1609  0.0545 -0.6653
  823MOL0     C10979   0.630  -0.062   1.982  0.7403  0.7060  0.8403
  823MOL0     C10980   0.654  -0.134   2.117  0.3440 -0.9170 -0.0682
  823MOL0     C10981   0.804  -0.143   2.158  0.7459  0.8018  0.4415
  823MOL0     C10982   0.825  -0.202   2.300 -0.0890  0.3548  0.3887
  823MOL0     C10983   0.814  -0.099   2.412 -0.1584 -0.4924  0.5293
  823MOL0     C10984   0.808  -0.143   2.557 -0.1079 -0.4298  0.1404
  823MOL0     C10985   0.706  -0.248   2.599  0.3266  0.7015  0.1037
  823MOL0     C10986   0.583  -0.245   2.520  0.1873 -0.0661 -0.4169
  823MOL0     N10987   0.477  -0.314   2.605 -0.3217  1.1284  0.3769
  823MOL0     C10988   0.492  -0.446   2.634  0.6479  0.5507  0.2511
  823MOL0     C10989   0.433  -0.479   2.753 -0.1338  1.1921  0.0887
  823MOL0     C10990   0.428  -0.605   2.831 -0.6973 -0.1361  0.0275
  823MOL0     C10991   0.344  -0.704   2.759  0.0208 -0.5461  0.2326
  823MOL0     C10992   0.343  -0.845   2.822  0.3530  1.1741 -0.5562
  823MOL0     C10993   0.275  -0.853   2.961 -0.7182 -0.5522  0.8949
  823MOL0     O10994   0.307  -0.976   3.015 -0.6229 -0.3316 -0.1361
  823MOL0     C10995   0.438  -0.986   3.066  0.5385 -0.0444 -0.5936
  823MOL0     C10996   0.501  -0.899   3.154  0.2680  0.3044  0.6355
  823MOL0     C10997   0.629  -0.925   3.204 -0.0468  0.1035  0.0590
  823MOL0     C10998   0.687  -1.052   3.198 -0.5200 -0.6708  0.2538
  823MOL0     C10999   0.794  -1.103   3.287 -0.0964 -0.4379  0.8873
  823MOL0     O11000   0.827  -1.232   3.282 -0.8833 -0.3415 -0.5373
  823MOL0     C11001   0.928  -1.279   3.367  0.2097 -0.0081 -0.3288
  823MOL0     C11002   0.922  -1.307   3.501 -1.1584 -0.0529 -0.1455
  823MOL0     C11003   1.030  -1.375   3.558  0.9616  0.3551  0.3317
  823MOL0     C11004   1.152  -1.394   3.492  0.7112 -0.4451  0.4811
  823MOL0     O11005   1.269  -1.443   3.545  0.4170 -0.2695  0.6429
  823MOL0     C11006   1.298  -1.417   3.685 -0.7173 -0.2526 -0.6812
  823MOL0     C11007   1.301  -1.271   3.728  0.4297  1.3856  0.0941
  823MOL0     C11008   1.420  -1.200   3.654  1.1287  0.7879  0.2063
  823MOL0     C11009   1.417  -1.055   3.669  0.5245  0.3062 -0.0306
  823MOL0     C11010   1.515  -0.990   3.563  0.0649  0.0536 -0.0109
  823MOL0     C11011   1.502  -0.836   3.561 -0.0929  0.7540  0.1395
  823MOL0     C11012   1.555  -0.758   3.687 -0.2762 -0.1705 -0.1608
  823MOL0     C11013   1.528  -0.609   3.664  0.7989 -0.2518 -0.4767
  823MOL0    Cl11014   1.620  -0.519   3.782 -0.1302  0.3190 -0.5687
  823MOL0     C11015   1.152  -1.355   3.361  0.3929  0.6552  1.0607
  823MOL0     C11016   1.042  -1.303   3.296 -0.0485 -0.5872 -0.1693
  823MOL0     O11017   0.843  -1.017   3.357 -0.3109  0.0986  0.1701
  823MOL0     C11018   0.614  -1.145   3.134 -0.4349  0.0208  0.2539
  823MOL0     C11019   0.499  -1.111   3.057  0.7398 -0.3092  0.4916
  823MOL0     N11020   0.384  -0.355   2.787  0.1760 -0.3963 -0.2356
  823MOL0     N11021   0.405  -0.260   2.704 -0.2041  0.0383  0.0284
  823MOL0     C11022   0.651   0.124   1.769  0.0561 -0.4643 -0.2807
  823MOL0     C11023   0.665   0.230   1.684  0.7203  0.0290  1.0405
  823MOL0     C11024   0.900   0.387   1.298  0.0183  0.3712  0.2234
  823MOL0     C11025   0.937   0.310   1.188  0.0197  0.1410  0.8493
  823MOL0     C11026   1.022   0.358   1.091  0.0027 -0.0132  0.1152
  823MOL0     C11027   1.085   0.482   1.107 -0.1790 -0.2652 -0.0811
  823MOL0     O11028   1.174   0.546   1.021 -0.5136 -0.4033  0.3626
  823MOL0     C11029   1.206   0.490   0.895  0.5622 -0.1088 -0.2246
  823MOL0     C11030   1.279   0.583   0.810  0.3155  0.3531 -0.1382
  823MOL0     C11031   1.264   0.543   0.670 -0.4306  0.2279  0.4648
  823MOL0     C11032   1.356   0.620   0.578  0.3737  0.6119 -0.7655
  823MOL0     C11033   1.343   0.596   0.442 -0.8308 -0.7778 -1.1841
  823MOL0     C11034   1.334   0.582   0.320 -0.3251  0.6643 -0.8079
  823MOL0     C11035   1.050   0.556   1.218  0.1393  0.5055 -0.7838
  823MOL0     C11036   0.955   0.517   1.307 -1.2401  0.4462 -0.2156
  823MOL0     C11037   0.917   0.601   1.426 -0.7763 -1.4080  0.3992
  823MOL0     H11038   0.981   0.151   1.590 -0.5200  0.8186 -0.7908
  823MOL0     H11039   0.953  -0.020   1.752  0.0528 -1.3635 -2.5677
  823MOL0     H11040   0.630   0.044   2.009 -2.9331  1.1515 -0.4035
  823MOL0     H11041   0.534  -0.100   1.945  1.0272 -1.2413  1.9581
  823MOL0     H11042   0.603  -0.230   2.113 -1.5038 -0.1376  2.4711
  823MOL0     H11043   0.610  -0.060   2.184  1.3663  1.8627 -2.2485
  823MOL0     H11044   0.843  -0.040   2.161 -0.2145  1.3432 -2.4706
  823MOL0     H11045   0.866  -0.196   2.085  0.2539  1.0311 -0.1476
  823MOL0     H11046   0.772  -0.294   2.324 -0.5155  1.1692  2.8872
  823MOL0     H11047   0.930  -0.235   2.293 -0.3852 -0.5819  0.2474
  823MOL0     H11048   0.908  -0.044   2.401 -0.0789 -1.0712 -2.7670
  823MOL0     H11049   0.737  -0.025   2.386  1.2433 -0.0577 -3.0391
  823MOL0     H11050   0.906  -0.190   2.566 -0.5439 -1.5266 -0.6124
  823MOL0     H11051   0.811  -0.052   2.618 -0.1580 -0.8456  0.7727
  823MOL0     H11052   0.685  -0.241   2.706 -2.5073  2.5640 -0.4731
  823MOL0     H11053   0.748  -0.348   2.585  1.7623  1.3995 -0.7899
  823MOL0     H11054   0.547  -0.144   2.501 -1.3503 -0.3150  0.9408
  823MOL0     H11055   0.599  -0.295   2.424 -0.6399  0.2070 -0.7104
  823MOL0     H11056   0.553  -0.516   2.577 -0.0877 -0.8456  1.1181
  823MOL0     H11057   0.530  -0.640   2.852 -1.1521 -0.0166  2.7794
  823MOL0     H11058   0.386  -0.587   2.930  1.8192  0.9600  0.9703
  823MOL0     H11059   0.238  -0.675   2.761 -0.2619 -1.5909  0.9552
  823MOL0     H11060   0.383  -0.713   2.657  1.5551 -1.1002  0.8378
  823MOL0     H11061   0.444  -0.884   2.830 -1.4628 -4.5261 -0.6656
  823MOL0     H11062   0.294  -0.914   2.752  0.8226 -2.6187  2.4584
  823MOL0     H11063   0.169  -0.826   2.967 -0.4525  1.0808 -0.8059
  823MOL0     H11064   0.326  -0.770   3.012 -2.5638  0.8109  0.6252
  823MOL0     H11065   0.459  -0.799   3.168 -0.7502 -0.3236  2.2944
  823MOL0     H11066   0.684  -0.850   3.259  1.1456  0.7630 -1.9142
  823MOL0     H11067   0.830  -1.282   3.552 -1.1072  2.3322 -1.1135
  823MOL0     H11068   1.024  -1.415   3.659  2.2783  0.6287  0.5324
  823MOL0     H11069   1.227  -1.469   3.750  1.2635  1.3820  3.1583
  823MOL0     H11070   1.397  -1.460   3.706 -0.8046  0.7108  2.2013
  823MOL0     H11071   1.203  -1.232   3.700  0.2926 -0.1093 -1.6727
  823MOL0     H11072   1.319  -1.260   3.836 -1.4763  1.6531  0.4071
  823MOL0     H11073   1.519  -1.227   3.690  2.0312  3.1011 -0.3446
  823MOL0     H11074   1.413  -1.221   3.547  2.6329  0.4473  0.1622
  823MOL0     H11075   1.456  -1.041   3.770  0.5058 -1.9446  0.3238
  823MOL0     H11076   1.313  -1.024   3.650 -0.8647 -2.1662  2.7641
  823MOL0     H11077   1.513  -1.033   3.462 -1.4636  0.8373 -0.3352
  823MOL0     H11078   1.619  -1.010   3.591  0.1224  0.0146 -0.2514
  823MOL0     H11079   1.565  -0.790   3.484  0.0316  0.0890 -0.1593
  823MOL0     H11080   1.407  -0.814   3.512  0.0282  1.0142  0.0173
  823MOL0     H11081   1.660  -0.787   3.692 -0.9976 -2.9199  0.3990
  823MOL0     H11082   1.507  -0.792   3.779 -1.3016 -0.5532 -0.8189
  823MOL0     H11083   1.571  -0.573   3.570  0.7062  0.1052 -0.3858
  823MOL0     H11084   1.420  -0.597   3.675  0.3408 -2.5528 -1.8367
  823MOL0     H11085   1.229  -1.366   3.286  1.3492  0.4040  2.0488
  823MOL0     H11086   1.037  -1.288   3.189 -0.0021  1.3513  0.0677
  823MOL0     H11087   0.655  -1.245   3.126 -0.2968  0.1621 -1.0310
  823MOL0     H11088   0.432  -1.188   3.021 -0.6401  0.4902  1.2663
  823MOL0     H11089   0.563   0.111   1.830 -0.5795  0.6777 -0.9161
  823MOL0     H11090   0.595   0.313   1.678  0.7328  0.0248  0.8342
  823MOL0     H11091   0.901   0.208   1.179 -5.3048  1.6916  0.6346
  823MOL0     H11092   1.066   0.292   1.018  0.2651  1.3993 -1.0520
  823MOL0     H11093   1.113   0.467   0.843 -0.9261  3.0650  0.7580
  823MOL0     H11094   1.249   0.389   0.898  2.4943  0.6413 -1.0904
  823MOL0     H11095   1.386   0.573   0.832  0.4871  1.4448 -0.3889
  823MOL0     H11096   1.249   0.686   0.834 -0.5557 -0.5603  3.3578
  823MOL0     H11097   1.161   0.565   0.640 -0.9734 -0.4549  1.7480
  823MOL0     H11098   1.281   0.435   0.661  3.1381  0.5769  1.4261
  823MOL0     H11099   1.348   0.728   0.590 -0.2257  0.5439 -0.4884
  823MOL0     H11100   1.459   0.585   0.591  0.0298 -0.0487  0.3096
  823MOL0     H11101   1.299   0.576   0.219  0.9560  0.9255 -1.2840
  823MOL0     H11102   1.107   0.648   1.228  1.5358 -0.2515 -1.4128
  823MOL0     H11103   0.923   0.563   1.528 -1.3026 -0.7839  0.6742
  823MOL0     H11104   0.991   0.681   1.429 -2.3798  0.0924  2.4837
  823MOL0     H11105   0.820   0.647   1.403 -0.4504 -2.2759 -3.4967
  824MOL0     O11106   5.336   5.914   0.632 -0.2088 -0.4497 -0.1474
  824MOL0     C11107   5.311   5.912   0.754  0.0186 -0.1933  0.3861
  824MOL0     O11108   5.413   5.893   0.846 -0.4169 -0.7723  0.4381
  824MOL0     C11109   5.529   5.958   0.809  0.9175 -0.3912 -0.0879
  824MOL0     C11110   5.549   6.098   0.824 -0.1186  0.3200 -0.5467
  824MOL0     C11111   5.664   6.166   0.796  0.4216  0.2047 -0.2758
  824MOL0     C11112   5.767   6.090   0.735  0.6712  1.2549  0.0878
  824MOL0     O11113   5.882   6.147   0.691  0.1374 -0.1916 -0.1150
  824MOL0     C11114   5.878   6.282   0.652  0.3208 -0.0946  0.5243
  824MOL0     C11115   6.019   6.310   0.612 -0.2320 -0.8467  0.1125
  824MOL0     C11116   6.028   6.459   0.564 -0.6158  0.5541 -0.3226
  824MOL0     C11117   6.171   6.495   0.512 -0.0215  0.8158 -0.3146
  824MOL0     C11118   6.185   6.638   0.463 -0.0012  0.9473 -0.1544
  824MOL0     C11119   6.345   6.667   0.453  0.9490 -0.2992  0.3021
  824MOL0     C11120   6.383   6.809   0.429 -0.0835 -0.6163  0.6276
  824MOL0     C11121   6.321   6.864   0.296  0.4597 -0.2264 -0.3931
  824MOL0     N11122   6.316   7.011   0.293 -0.9108  0.5496 -0.3429
  824MOL0     C11123   6.411   7.094   0.329  0.0519 -0.8500  0.0711
  824MOL0     C11124   6.356   7.212   0.359  0.0532  0.0643  0.4123
  824MOL0     C11125   6.430   7.329   0.407 -0.7568 -0.8841 -0.1808
  824MOL0     C11126   6.480   7.412   0.290 -0.1038  0.4475 -0.2368
  824MOL0     C11127   6.603   7.487   0.319 -0.2702 -0.0327 -0.3475
  824MOL0     C11128   6.734   7.396   0.341 -0.2817 -0.0558 -0.3118
  824MOL0     O11129   6.846   7.470   0.297 -0.5568 -0.0197 -0.0248
  824MOL0     C11130   6.973   7.422   0.321 -0.7240  0.6549 -0.4353
  824MOL0     C11131   7.076   7.499   0.261 -0.0872 -0.3019  0.5729
  824MOL0     C11132   7.211   7.448   0.260  0.2196 -0.1742 -0.7285
  824MOL0     C11133   7.248   7.330   0.327 -0.3303  0.1369 -1.2464
  824MOL0     C11134   7.393   7.305   0.336  0.4825 -0.5431 -0.0527
  824MOL0     O11135   7.481   7.399   0.287  0.4401  0.0311  0.3551
  824MOL0     C11136   7.610   7.366   0.265 -0.5365 -0.3270  0.0100
  824MOL0     C11137   7.665   7.403   0.141 -0.2433  0.4326 -0.1832
  824MOL0     C11138   7.798   7.370   0.112 -0.0261 -0.0600  0.2575
  824MOL0     C11139   7.874   7.299   0.206 -0.4285 -0.5242  0.3307
  824MOL0     O11140   8.006   7.268   0.177 -0.1713 -0.4911 -0.3516
  824MOL0     C11141   8.066   7.257   0.046 -0.3882  0.8362 -0.6162
  824MOL0     C11142   8.002   7.130  -0.019  1.0740  1.0110  0.8687
  824MOL0     C11143   8.047   6.990   0.047 -0.3100 -0.3855 -0.3224
  824MOL0     C11144   8.064   6.883  -0.062  0.2376  1.2342  0.3220
  824MOL0     C11145   8.212   6.882  -0.112  0.6322 -0.2674  0.2512
  824MOL0     C11146   8.242   6.792  -0.236 -0.2868  0.0113  0.4420
  824MOL0     C11147   8.207   6.645  -0.199  0.5649 -0.1139 -0.3935
  824MOL0     C11148   8.294   6.536  -0.271 -0.0142 -0.7268  0.0340
  824MOL0    Cl11149   8.306   6.406  -0.157  0.2176  0.2118 -0.3178
  824MOL0     C11150   7.822   7.274   0.336 -0.3667  1.0685 -0.0679
  824MOL0     C11151   7.689   7.304   0.364 -0.1477 -0.5053  0.6962
  824MOL0     O11152   7.425   7.196   0.376 -0.3357  0.1190 -0.3116
  824MOL0     C11153   7.141   7.244   0.367 -0.8420 -0.4436  0.1939
  824MOL0     C11154   7.002   7.287   0.371 -1.1770  0.2174 -0.5826
  824MOL0     N11155   6.221   7.200   0.330  0.1539 -0.4041 -0.8214
  824MOL0     N11156   6.205   7.077   0.286  1.1587 -0.5452  0.4619
  824MOL0     C11157   5.752   5.951   0.711 -0.2244 -0.2489 -1.1555
  824MOL0     C11158   5.631   5.882   0.756  0.2493 -0.3435  0.2722
  824MOL0     C11159   5.164   5.912   0.782  0.0137  0.3591  0.2496
  824MOL0     C11160   5.066   5.902   0.681 -0.2172  1.3317  0.9998
  824MOL0     C11161   4.928   5.914   0.700 -0.6787  0.3863 -0.2861
  824MOL0     C11162   4.885   5.942   0.826 -0.3025 -1.7285 -0.4594
  824MOL0     O11163   4.753   5.957   0.850  0.7830 -0.1024 -0.1544
  824MOL0     C11164   4.716   6.029   0.968  0.5576 -0.5612  0.0603
  824MOL0     C11165   4.566   6.012   0.985 -0.3614 -0.2095  0.6254
  824MOL0     C11166   4.516   6.117   1.075 -0.1620  0.0244 -0.2386
  824MOL0     C11167   4.376   6.108   1.109  0.3522  0.3177  0.6332
  824MOL0     C11168   4.340   6.235   1.182  1.2223 -1.3470  0.6828
  824MOL0     C11169   4.302   6.329   1.244 -0.4722  0.2483  0.1705
  824MOL0     C11170   4.986   5.963   0.932  0.1944 -0.1288  0.9774
  824MOL0     C11171   5.125   5.941   0.910  1.0970  0.4345 -0.2215
  824MOL0     C11172   5.208   5.931   1.036 -0.0897 -0.2243 -0.0566
  824MOL0     H11173   5.474   6.170   0.854 -0.0504 -0.8516  2.9462
  824MOL0     H11174   5.685   6.269   0.825  1.2989 -0.4429  1.4555
  824MOL0     H11175   5.801   6.307   0.579 -1.2262  0.0755  2.1483
  824MOL0     H11176   5.857   6.353   0.733 -2.1974 -0.9325  0.7047
  824MOL0     H11177   6.047   6.242   0.531 -5.3832 -0.9551 -1.9834
  824MOL0     H11178   6.094   6.289   0.689 -1.4986 -1.0125  1.3551
  824MOL0     H11179   6.005   6.524   0.649 -0.4914 -0.1169  0.2344
  824MOL0     H11180   5.956   6.491   0.488 -0.4128  1.7619 -0.0236
  824MOL0     H11181   6.252   6.473   0.582  1.1447  1.1188 -1.5288
  824MOL0     H11182   6.195   6.432   0.426 -0.7389 -0.8490  0.6547
  824MOL0     H11183   6.122   6.652   0.375 -3.8977  1.7241  2.4802
  824MOL0     H11184   6.140   6.706   0.537  0.0322 -0.1067  0.8529
  824MOL0     H11185   6.385   6.622   0.545 -2.6731 -2.0623  1.1996
  824MOL0     H11186   6.390   6.616   0.367  0.4642 -0.7264  0.2974
  824MOL0     H11187   6.492   6.816   0.424 -0.1480  0.6648  0.5528
  824MOL0     H11188   6.343   6.858   0.518  0.8397  0.2555  0.5855
  824MOL0     H11189   6.378   6.821   0.215  0.8786 -2.1340  0.8562
  824MOL0     H11190   6.216   6.835   0.287 -0.2877  2.0158  0.2612
  824MOL0     H11191   6.514   7.071   0.356  0.7873  1.3339 -0.6277
  824MOL0     H11192   6.363   7.392   0.467  1.4630  2.8569 -1.2849
  824MOL0     H11193   6.516   7.305   0.470  0.5540 -0.0314 -1.5825
  824MOL0     H11194   6.488   7.354   0.197  0.8329  1.3916 -0.7669
  824MOL0     H11195   6.407   7.486   0.256  0.0234  0.5853 -0.2106
  824MOL0     H11196   6.590   7.556   0.403  3.9833  0.9691 -0.2804
  824MOL0     H11197   6.633   7.559   0.242  1.3819  0.3154  0.5813
  824MOL0     H11198   6.724   7.306   0.280 -0.2345 -0.3381  0.0920
  824MOL0     H11199   6.743   7.372   0.448  1.5453 -0.0330 -0.4276
  824MOL0     H11200   7.061   7.598   0.221 -0.5714  0.5777  2.7624
  824MOL0     H11201   7.274   7.530   0.228 -0.5354  1.2546  1.2598
  824MOL0     H11202   7.608   7.464   0.072  0.3274  0.1513 -0.9193
  824MOL0     H11203   7.831   7.402   0.014  0.5099  0.4499  0.6035
  824MOL0     H11204   8.055   7.352  -0.007 -0.5544  2.4815  2.2059
  824MOL0     H11205   8.173   7.236   0.052 -0.4918  0.3967 -0.2689
  824MOL0     H11206   7.894   7.140  -0.006  0.6449  1.6444 -2.3955
  824MOL0     H11207   8.015   7.138  -0.127  1.1622  1.5700  0.9177
  824MOL0     H11208   8.137   6.993   0.108 -1.5257  0.2240  1.5229
  824MOL0     H11209   7.973   6.961   0.122  1.0727 -2.9821  0.1185
  824MOL0     H11210   7.997   6.898  -0.147 -0.7448 -0.5112  0.7513
  824MOL0     H11211   8.023   6.792  -0.019 -1.2848  2.0874  0.7631
  824MOL0     H11212   8.270   6.854  -0.024 -3.1382 -2.8915  2.1340
  824MOL0     H11213   8.232   6.988  -0.130 -0.1300 -0.4619 -2.1907
  824MOL0     H11214   8.194   6.830  -0.326 -1.0230 -0.2968  0.6949
  824MOL0     H11215   8.347   6.802  -0.265 -0.4715 -0.6967 -0.5235
  824MOL0     H11216   8.104   6.623  -0.230  0.4511 -0.1607  0.0107
  824MOL0     H11217   8.218   6.639  -0.090  2.4531 -1.8424 -0.6073
  824MOL0     H11218   8.254   6.509  -0.369  2.1114  3.7636 -2.3843
  824MOL0     H11219   8.395   6.577  -0.283 -0.6014  0.6471 -0.3554
  824MOL0     H11220   7.889   7.218   0.400  0.9761 -0.8608 -2.9180
  824MOL0     H11221   7.655   7.278   0.464 -1.3353  1.8946  0.9817
  824MOL0     H11222   7.154   7.147   0.415 -0.5011 -0.0889  0.8393
  824MOL0     H11223   6.927   7.224   0.418 -1.8960  0.5358 -1.2812
  824MOL0     H11224   5.833   5.898   0.661 -1.0948 -2.4031 -0.4167
  824MOL0     H11225   5.620   5.776   0.737 -0.5517 -0.3201  0.6127
  824MOL0     H11226   5.092   5.875   0.579  1.3377 -1.8889  2.1088
  824MOL0     H11227   4.852   5.897   0.625 -0.2097 -0.6131 -0.5540
  824MOL0     H11228   4.740   6.135   0.956  0.5458 -0.6759 -1.0420
  824MOL0     H11229   4.761   5.998   1.063 -0.1493  1.0862  0.9703
  824MOL0     H11230   4.534   5.911   1.012 -1.3499 -0.6127 -1.7828
  824MOL0     H11231   4.523   6.028   0.886  0.1422 -1.0015  0.2662
  824MOL0     H11232   4.529   6.214   1.027 -2.5469  1.8614  2.4568
  824MOL0     H11233   4.578   6.124   1.165 -2.6605  1.0033  1.5301
  824MOL0     H11234   4.321   6.097   1.015  1.6852 -1.6462  0.0193
  824MOL0     H11235   4.364   6.017   1.168 -0.6738  0.0478  0.0298
  824MOL0     H11236   4.275   6.418   1.297 -1.1734  0.1293  0.0200
  824MOL0     H11237   4.957   5.987   1.034 -1.3474  3.3473 -0.1428
  824MOL0     H11238   5.142   5.927   1.123  1.9907  2.2222  1.7944
  824MOL0     H11239   5.276   5.845   1.027  1.7442  0.9228  1.7875
  824MOL0     H11240   5.284   6.010   1.031  2.0805 -2.2479 -2.5674
  825MOL0     O11241   0.640   5.514  11.341 -0.4164  0.2095 -0.0580
  825MOL0     C11242   0.617   5.568  11.445 -0.8819 -0.6171 -0.0206
  825MOL0     O11243   0.499   5.618  11.479 -0.1539  0.3389 -0.7590
  825MOL0     C11244   0.406   5.650  11.385  0.1125 -0.0617  0.5067
  825MOL0     C11245   0.293   5.565  11.364 -0.8189 -0.0056 -1.1131
  825MOL0     C11246   0.204   5.604  11.259 -0.0557  0.4492 -0.1580
  825MOL0     C11247   0.225   5.716  11.171  0.3274  0.5768 -0.6869
  825MOL0     O11248   0.141   5.737  11.068  0.7535  0.2916 -0.0256
  825MOL0     C11249   0.178   5.820  10.957 -0.0663 -0.5746 -0.0857
  825MOL0     C11250   0.070   5.849  10.859 -0.1314 -1.3122 -1.0573
  825MOL0     C11251   0.010   5.716  10.809  0.3289 -0.9359  0.3114
  825MOL0     C11252   0.094   5.629  10.709  0.2848 -0.7383  0.3335
  825MOL0     C11253  -0.016   5.533  10.655 -0.1837  0.2819  0.1013
  825MOL0     C11254  -0.069   5.432  10.751  0.2346 -0.3058 -0.4316
  825MOL0     C11255   0.043   5.353  10.821 -0.3372 -0.2805 -0.3984
  825MOL0     C11256   0.059   5.414  10.969 -0.6096  0.9209  0.4578
  825MOL0     N11257   0.161   5.331  11.047  0.1170 -0.0507 -0.0083
  825MOL0     C11258   0.297   5.313  11.031 -0.2372  0.8364  0.4824
  825MOL0     C11259   0.324   5.204  11.111  0.4797 -0.2930  0.2512
  825MOL0     C11260   0.456   5.140  11.109 -0.7459  0.2542 -0.0890
  825MOL0     C11261   0.464   5.009  11.188 -0.1883  0.3656 -0.3998
  825MOL0     C11262   0.455   5.019  11.351  0.7187  0.4669  0.5202
  825MOL0     C11263   0.569   5.098  11.411 -0.2045  0.8434 -0.3363
  825MOL0     O11264   0.666   5.005  11.452 -0.7342  0.3335  0.9450
  825MOL0     C11265   0.800   5.039  11.468 -0.5071  0.5709 -0.3813
  825MOL0     C11266   0.891   4.934  11.469 -0.1496  0.0836  0.1681
  825MOL0     C11267   1.029   4.961  11.497  0.4975 -0.0287  0.4660
  825MOL0     C11268   1.067   5.091  11.529  0.0148  0.0774 -0.0311
  825MOL0     C11269   1.216   5.126  11.544 -0.0204  0.1518 -0.4985
  825MOL0     O11270   1.308   5.020  11.542  0.1320 -0.3197  0.1532
  825MOL0     C11271   1.437   5.070  11.556 -0.1765  0.1347 -0.4842
  825MOL0     C11272   1.488   5.067  11.686 -0.8895 -0.2219 -0.2058
  825MOL0     C11273   1.605   5.129  11.715 -0.9381  0.1396  0.8508
  825MOL0     C11274   1.673   5.210  11.619  0.6053 -0.2126  0.6381
  825MOL0     O11275   1.780   5.274  11.666 -0.3923 -0.4613  0.6984
  825MOL0     C11276   1.891   5.306  11.573 -0.5269  0.3147 -0.4107
  825MOL0     C11277   1.910   5.460  11.568  0.5384  0.5785 -0.5783
  825MOL0     C11278   1.808   5.530  11.490 -0.4199  0.5280 -0.0903
  825MOL0     C11279   1.826   5.681  11.488  0.2005  0.1677  0.2722
  825MOL0     C11280   1.726   5.736  11.406 -0.0271  0.1184 -0.4762
  825MOL0     C11281   1.733   5.894  11.418 -0.4936  1.2299 -0.4309
  825MOL0     C11282   1.616   5.952  11.335  0.3905 -1.0458  0.2342
  825MOL0     C11283   1.657   6.085  11.278 -0.3444 -0.0920 -0.1139
  825MOL0    Cl11284   1.503   6.161  11.213  0.1706  0.6742  0.2102
  825MOL0     C11285   1.621   5.219  11.486  0.0986  0.9624  0.3648
  825MOL0     C11286   1.500   5.149  11.454  0.2032  0.8364 -0.1757
  825MOL0     O11287   1.244   5.244  11.557 -0.4726  0.5534 -0.5264
  825MOL0     C11288   0.973   5.190  11.540  0.7618 -0.4600  0.0562
  825MOL0     C11289   0.841   5.169  11.497 -0.0102  0.2606 -0.6852
  825MOL0     N11290   0.216   5.184  11.189 -0.7395  0.3938 -0.1081
  825MOL0     N11291   0.116   5.244  11.146  1.3982 -1.0563  0.2459
  825MOL0     C11292   0.332   5.801  11.208 -0.3212  0.2250  1.0501
  825MOL0     C11293   0.425   5.770  11.311  0.4740  0.1125  0.0141
  825MOL0     C11294   0.717   5.564  11.543  0.0516  0.9385  0.3977
  825MOL0     C11295   0.677   5.563  11.675 -0.0390 -0.7968 -1.0133
  825MOL0     C11296   0.763   5.555  11.778  0.2471  1.0467  0.3460
  825MOL0     C11297   0.894   5.524  11.755 -0.4982 -0.3475 -0.6338
  825MOL0     O11298   0.977   5.490  11.863  0.5162  0.6255 -0.5733
  825MOL0     C11299   1.068   5.388  11.857  0.0673  0.2367 -0.2585
  825MOL0     C11300   1.210   5.435  11.892 -0.0098 -0.5493 -0.1298
  825MOL0     C11301   1.304   5.316  11.871 -0.3709  0.5381 -0.1478
  825MOL0     C11302   1.416   5.310  11.981  0.3392  0.3186  0.1203
  825MOL0     C11303   1.363   5.276  12.122 -1.0628  0.3785 -0.4971
  825MOL0     C11304   1.339   5.242  12.239 -0.3527  0.9490 -0.6276
  825MOL0     C11305   0.941   5.533  11.627  0.8298  0.2173  0.7859
  825MOL0     C11306   0.857   5.551  11.517 -0.2072 -0.6239  0.4462
  825MOL0     C11307   0.917   5.520  11.381 -0.3291  0.2769  0.1875
  825MOL0     H11308   0.274   5.477  11.423  0.6228 -0.6969 -1.6266
  825MOL0     H11309   0.109   5.552  11.261  0.1380  0.1004  0.0414
  825MOL0     H11310   0.214   5.919  10.988 -1.3339  0.0046 -0.3768
  825MOL0     H11311   0.260   5.769  10.906  0.6221  0.7390 -0.3400
  825MOL0     H11312   0.100   5.915  10.778 -1.6304 -0.5184 -0.9981
  825MOL0     H11313   0.001   5.905  10.923  2.5433 -1.3644  2.1633
  825MOL0     H11314  -0.075   5.752  10.750  2.5320  1.1965 -1.7208
  825MOL0     H11315  -0.030   5.668  10.899 -3.2747  1.1389  0.0344
  825MOL0     H11316   0.124   5.679  10.617 -1.4167 -3.2649 -1.7239
  825MOL0     H11317   0.181   5.585  10.760 -0.9957 -2.1505  1.3966
  825MOL0     H11318  -0.093   5.594  10.608 -0.5328 -0.4191 -0.2452
  825MOL0     H11319   0.040   5.477  10.579 -0.0649  1.3143 -0.5850
  825MOL0     H11320  -0.137   5.479  10.824  0.7369 -1.6962  1.0028
  825MOL0     H11321  -0.136   5.361  10.701  2.3586 -1.9279 -1.0923
  825MOL0     H11322   0.136   5.346  10.764 -0.8041 -0.1144 -1.2030
  825MOL0     H11323   0.014   5.248  10.828 -1.2448 -0.1777 -1.9175
  825MOL0     H11324   0.103   5.513  10.962  1.3604  0.0738  0.2540
  825MOL0     H11325  -0.038   5.409  11.019 -0.9923  0.5735 -0.2912
  825MOL0     H11326   0.361   5.350  10.952 -1.2487 -0.3315 -0.9437
  825MOL0     H11327   0.487   5.125  11.005 -2.0281  1.3918 -0.6729
  825MOL0     H11328   0.538   5.201  11.148  1.9730 -0.8548 -3.6322
  825MOL0     H11329   0.375   4.959  11.149  1.5071 -1.3663 -2.2925
  825MOL0     H11330   0.553   4.946  11.173  0.1604  0.7058  0.1970
  825MOL0     H11331   0.444   4.931  11.415 -1.7707  2.5602  3.2930
  825MOL0     H11332   0.360   5.069  11.372 -1.2485 -2.7318 -0.2080
  825MOL0     H11333   0.552   5.162  11.498 -0.0260  1.8994 -1.0530
  825MOL0     H11334   0.622   5.163  11.341 -0.5562  2.2552  0.6699
  825MOL0     H11335   0.843   4.837  11.457  0.2225 -0.4741  2.5521
  825MOL0     H11336   1.105   4.884  11.484  0.2801 -0.7604  3.0467
  825MOL0     H11337   1.434   5.014  11.764  1.8258  2.1165  3.5978
  825MOL0     H11338   1.648   5.133  11.815 -3.9970 -1.5370  2.3630
  825MOL0     H11339   1.982   5.262  11.615 -0.5842  0.5439 -0.0465
  825MOL0     H11340   1.886   5.275  11.468  2.2886  2.7464 -1.3984
  825MOL0     H11341   1.904   5.487  11.674 -2.2700 -2.6281  0.2815
  825MOL0     H11342   2.004   5.484  11.519  1.8768 -3.0058 -0.0746
  825MOL0     H11343   1.800   5.481  11.392 -3.0123 -2.4946  1.4606
  825MOL0     H11344   1.705   5.519  11.526  0.0273  0.1901  1.1267
  825MOL0     H11345   1.924   5.721  11.460  0.9873  0.4350  3.0579
  825MOL0     H11346   1.829   5.709  11.594  0.1715 -0.9639  0.5868
  825MOL0     H11347   1.628   5.703  11.441 -0.6935  0.8532 -1.5917
  825MOL0     H11348   1.730   5.715  11.299 -1.2546 -0.3217 -0.4445
  825MOL0     H11349   1.702   5.933  11.515  1.0743  0.2575  0.5234
  825MOL0     H11350   1.836   5.920  11.391  1.4498 -4.3367  0.1438
  825MOL0     H11351   1.533   5.973  11.403  2.0060  0.8135  1.7314
  825MOL0     H11352   1.599   5.887  11.248  2.1132 -0.2869 -0.7143
  825MOL0     H11353   1.687   6.155  11.357  0.3481  0.7205 -1.0673
  825MOL0     H11354   1.736   6.068  11.204 -1.6724 -3.8924 -0.9026
  825MOL0     H11355   1.655   5.288  11.410  0.8999  1.5250  1.2117
  825MOL0     H11356   1.464   5.151  11.351  1.2046 -1.4971 -0.6451
  825MOL0     H11357   1.001   5.291  11.566  0.2178  0.5848 -2.9964
  825MOL0     H11358   0.770   5.249  11.515  1.2883  0.8198  2.7355
  825MOL0     H11359   0.342   5.896  11.158 -2.7867  0.1317  0.2558
  825MOL0     H11360   0.517   5.824  11.329  1.3807 -0.5133 -2.3516
  825MOL0     H11361   0.578   5.587  11.713  0.4945 -3.7814  2.8581
  825MOL0     H11362   0.725   5.556  11.880 -1.0306  0.7229 -0.1037
  825MOL0     H11363   1.074   5.353  11.754  3.1311 -1.0528  0.2524
  825MOL0     H11364   1.030   5.302  11.915  1.1514  0.1203  0.3013
  825MOL0     H11365   1.215   5.477  11.992  0.5891  0.8655 -0.7370
  825MOL0     H11366   1.234   5.519  11.827 -0.8966 -1.2484 -1.4181
  825MOL0     H11367   1.346   5.314  11.770 -0.6581  1.4382 -0.2873
  825MOL0     H11368   1.255   5.218  11.874 -1.9998  1.3404  1.4922
  825MOL0     H11369   1.489   5.231  11.965 -0.1634  0.3651 -3.0924
  825MOL0     H11370   1.469   5.405  11.972  0.2814  0.2226 -1.3877
  825MOL0     H11371   1.317   5.222  12.342  3.3322 -0.5371  0.0091
  825MOL0     H11372   1.049   5.523  11.621  0.9635  2.0297 -0.9677
  825MOL0     H11373   1.024   5.540  11.384 -0.4565  1.6191 -1.9957
  825MOL0     H11374   0.899   5.417  11.347  0.2838 -0.8471  3.0135
  825MOL0     H11375   0.892   5.591  11.302  3.9093  3.6188  1.4900
  826MOL0     O11376   2.335   5.333   2.218  0.4965  0.4741 -0.3374
  826MOL0     C11377   2.322   5.288   2.103  0.7320  0.1372  0.2872
  826MOL0     O11378   2.420   5.287   2.006  0.6318  0.1833 -0.6589
  826MOL0     C11379   2.530   5.366   2.022  1.0373 -0.7911 -0.0180
  826MOL0     C11380   2.634   5.331   2.103 -0.1096 -0.3892 -0.6824
  826MOL0     C11381   2.730   5.431   2.135  0.3431 -0.6174  0.3790
  826MOL0     C11382   2.715   5.555   2.070 -0.0600 -0.0026 -0.2730
  826MOL0     O11383   2.807   5.651   2.109  0.8725 -0.4117  0.0559
  826MOL0     C11384   2.943   5.615   2.105  0.1845  0.3580 -0.7718
  826MOL0     C11385   3.028   5.732   2.060  1.2272  0.1885  1.1566
  826MOL0     C11386   2.985   5.790   1.918  0.7679 -0.3674 -1.4701
  826MOL0     C11387   3.086   5.750   1.816  0.3440 -0.4676  0.4916
  826MOL0     C11388   3.059   5.818   1.683  0.2038  0.3724 -0.1280
  826MOL0     C11389   3.136   5.733   1.584  0.4354 -0.0536  0.4929
  826MOL0     C11390   3.292   5.734   1.587 -0.5182  0.4260  0.7712
  826MOL0     C11391   3.369   5.868   1.579  1.0039 -0.4425 -0.2428
  826MOL0     N11392   3.311   5.960   1.487 -0.6100 -1.3745  0.8362
  826MOL0     C11393   3.236   6.071   1.522  0.5555  0.5000 -0.1868
  826MOL0     C11394   3.188   6.124   1.401 -0.1100  0.4547 -0.4478
  826MOL0     C11395   3.097   6.245   1.390 -0.1825  0.6847 -0.6598
  826MOL0     C11396   3.172   6.377   1.364 -0.2146  0.0526  0.0552
  826MOL0     C11397   3.109   6.516   1.418 -0.0690  0.6424  0.8715
  826MOL0     C11398   3.204   6.634   1.399  0.0337 -1.2483  0.4298
  826MOL0     O11399   3.228   6.650   1.258  0.7668 -0.0031  0.3705
  826MOL0     C11400   3.317   6.743   1.228 -0.3801  0.9442 -0.5627
  826MOL0     C11401   3.355   6.735   1.094  0.2333 -0.5536 -0.3874
  826MOL0     C11402   3.457   6.825   1.042 -0.6888 -0.6748  0.4691
  826MOL0     C11403   3.502   6.926   1.129  0.4136 -0.5954  0.1323
  826MOL0     C11404   3.604   7.026   1.081 -0.1521 -0.9968  1.0341
  826MOL0     O11405   3.626   7.043   0.951  0.3726 -0.2677  0.2036
  826MOL0     C11406   3.682   7.159   0.893  0.0524 -0.4977  0.5074
  826MOL0     C11407   3.599   7.225   0.792 -0.0276 -0.0735  0.3577
  826MOL0     C11408   3.647   7.339   0.729 -0.1942 -0.5359  0.1594
  826MOL0     C11409   3.771   7.392   0.755 -0.2705 -0.0143 -0.6820
  826MOL0     O11410   3.825   7.506   0.694  0.0937  0.4888 -0.3459
  826MOL0     C11411   3.826   7.498   0.551 -0.2717 -0.2184  0.5851
  826MOL0     C11412   3.835   7.634   0.486  0.0026  0.5414 -0.0702
  826MOL0     C11413   3.871   7.617   0.336 -1.0534  1.2258  0.3869
  826MOL0     C11414   4.025   7.607   0.314  0.8078  0.8614 -0.3042
  826MOL0     C11415   4.068   7.606   0.165  0.3664  0.4394  0.0002
  826MOL0     C11416   4.219   7.593   0.147 -1.2929  0.6343  0.3964
  826MOL0     C11417   4.264   7.586  -0.003  1.0587 -0.3576 -0.1256
  826MOL0     C11418   4.422   7.604  -0.016  0.0299  0.5491 -0.5517
  826MOL0    Cl11419   4.473   7.632  -0.174  0.2708 -0.2174  0.1541
  826MOL0     C11420   3.844   7.333   0.865 -0.3727  0.6450  0.2254
  826MOL0     C11421   3.800   7.220   0.935  0.3039  0.2013 -0.5163
  826MOL0     O11422   3.662   7.092   1.171 -0.0485  1.2855 -0.2856
  826MOL0     C11423   3.463   6.922   1.260  0.3236  0.2723 -0.5526
  826MOL0     C11424   3.372   6.834   1.314  0.3313  0.2475 -0.0892
  826MOL0     N11425   3.242   6.049   1.300  0.0488 -0.4444 -0.3295
  826MOL0     N11426   3.312   5.960   1.352  0.4683 -0.1729  0.4054
  826MOL0     C11427   2.613   5.584   1.992 -0.2030 -0.4500  0.1276
  826MOL0     C11428   2.522   5.484   1.959  0.1098  0.2024  0.3360
  826MOL0     C11429   2.212   5.177   2.088 -0.9559 -0.2109  0.0359
  826MOL0     C11430   2.221   5.083   2.189 -0.2260 -0.4075  0.1224
  826MOL0     C11431   2.126   4.985   2.192 -0.9941  0.0792 -0.1039
  826MOL0     C11432   2.041   4.963   2.083  0.1844  0.2777 -0.7685
  826MOL0     O11433   1.990   4.840   2.087 -0.1537  0.2360  0.7806
  826MOL0     C11434   1.922   4.798   1.958 -0.8234  0.0484 -0.0607
  826MOL0     C11435   1.840   4.669   1.989 -0.7106  0.1034  0.0909
  826MOL0     C11436   1.730   4.686   2.096  0.0011 -1.3346  0.4155
  826MOL0     C11437   1.593   4.680   2.019 -0.1597  0.4313 -0.0757
  826MOL0     C11438   1.574   4.801   1.946 -0.0184  0.0701 -0.2397
  826MOL0     C11439   1.554   4.906   1.895  0.6519  1.0505  0.6162
  826MOL0     C11440   2.047   5.057   1.972  0.2567  0.5975 -0.3535
  826MOL0     C11441   2.130   5.165   1.978 -0.3023  0.6676 -0.3345
  826MOL0     C11442   2.143   5.262   1.866  0.5373  0.0185 -0.0998
  826MOL0     H11443   2.647   5.233   2.147  2.2631  0.9651  1.9853
  826MOL0     H11444   2.802   5.414   2.214 -0.0302 -1.5265  0.5390
  826MOL0     H11445   2.971   5.577   2.204 -1.5166 -0.1228 -0.4427
  826MOL0     H11446   2.973   5.533   2.039 -0.9607  0.5917 -1.6106
  826MOL0     H11447   3.134   5.703   2.058  1.3236  0.4182 -1.5955
  826MOL0     H11448   3.022   5.810   2.137 -0.3978  2.5988 -1.1964
  826MOL0     H11449   2.982   5.899   1.918 -2.6469 -0.3332 -2.3270
  826MOL0     H11450   2.886   5.755   1.887  0.8792  0.2415 -2.5672
  826MOL0     H11451   3.188   5.771   1.849  0.3429 -0.3473  0.4159
  826MOL0     H11452   3.068   5.644   1.794  2.8882 -0.5650 -1.5632
  826MOL0     H11453   2.956   5.792   1.656  0.8399 -4.2409  1.1235
  826MOL0     H11454   3.069   5.927   1.678 -1.4892  0.5513 -0.1914
  826MOL0     H11455   3.103   5.632   1.608 -1.9833  0.9294  1.6367
  826MOL0     H11456   3.102   5.760   1.484  2.5038 -1.7406 -0.7522
  826MOL0     H11457   3.326   5.662   1.513 -2.9380 -1.9179  1.7943
  826MOL0     H11458   3.322   5.691   1.683  1.5272 -1.3005 -0.5657
  826MOL0     H11459   3.374   5.903   1.682 -0.1065 -1.0662  0.0421
  826MOL0     H11460   3.472   5.855   1.544  1.7345  1.3296  1.1469
  826MOL0     H11461   3.210   6.104   1.622 -2.1222  1.5386 -1.1295
  826MOL0     H11462   3.017   6.234   1.316  1.1806  2.4434 -2.5061
  826MOL0     H11463   3.035   6.252   1.479 -0.1498  3.8282 -0.7777
  826MOL0     H11464   3.261   6.362   1.425 -0.7183 -2.5694  0.2743
  826MOL0     H11465   3.191   6.389   1.257 -5.9765 -2.0399 -1.5522
  826MOL0     H11466   3.083   6.504   1.523 -0.4525 -3.6572  0.4772
  826MOL0     H11467   3.015   6.532   1.365  0.5268  2.1366  0.1985
  826MOL0     H11468   3.296   6.595   1.444  0.4669 -2.0755 -1.1074
  826MOL0     H11469   3.189   6.731   1.448  0.0610  2.1474 -5.3760
  826MOL0     H11470   3.316   6.643   1.050 -2.7495 -1.0485  2.8307
  826MOL0     H11471   3.479   6.803   0.938 -0.1070 -0.7393  0.6028
  826MOL0     H11472   3.510   7.172   0.760 -0.5087 -0.4354  2.1782
  826MOL0     H11473   3.585   7.402   0.665 -1.8897  0.7237  2.8322
  826MOL0     H11474   3.912   7.446   0.508 -1.3499 -0.9100 -0.8123
  826MOL0     H11475   3.736   7.443   0.519  0.4943 -0.2456 -1.7378
  826MOL0     H11476   3.738   7.685   0.493  1.2869  3.6146 -2.3218
  826MOL0     H11477   3.914   7.693   0.532  0.9620 -0.3986 -0.4565
  826MOL0     H11478   3.829   7.526   0.292  1.5755 -0.5715  1.3533
  826MOL0     H11479   3.838   7.699   0.271 -1.4504  0.1361 -0.8395
  826MOL0     H11480   4.064   7.524   0.373 -0.9273  0.2862  0.1002
  826MOL0     H11481   4.074   7.697   0.350  0.8767 -0.1379  2.3116
  826MOL0     H11482   4.051   7.708   0.127 -1.5424  1.3892  3.0355
  826MOL0     H11483   4.026   7.523   0.108  3.0392 -2.9782  2.5779
  826MOL0     H11484   4.285   7.662   0.199 -1.4175 -0.0424  1.4832
  826MOL0     H11485   4.242   7.493   0.184 -3.4482  0.5642  1.7587
  826MOL0     H11486   4.216   7.667  -0.058  2.8723  0.2544 -0.8753
  826MOL0     H11487   4.244   7.487  -0.046 -1.1481  0.2421 -0.6558
  826MOL0     H11488   4.458   7.685   0.049  2.2359 -0.6908 -0.1297
  826MOL0     H11489   4.468   7.511   0.020  0.5537  1.3937  1.1023
  826MOL0     H11490   3.931   7.385   0.904  0.4875 -1.4946  1.3431
  826MOL0     H11491   3.847   7.197   1.031  0.0208 -0.9982 -0.6521
  826MOL0     H11492   3.489   7.008   1.322 -1.0788  1.7747 -1.9509
  826MOL0     H11493   3.345   6.851   1.418 -0.5832 -0.1313 -0.2503
  826MOL0     H11494   2.599   5.682   1.949 -0.6028  1.2094  3.6991
  826MOL0     H11495   2.439   5.492   1.890  0.8220 -4.8954 -1.5526
  826MOL0     H11496   2.295   5.082   2.268  0.4957 -2.7917 -0.5155
  826MOL0     H11497   2.121   4.913   2.273 -1.9916  1.8233  1.4714
  826MOL0     H11498   2.003   4.771   1.890  0.3838 -2.6450  2.2278
  826MOL0     H11499   1.860   4.878   1.917 -0.2364  1.2082  1.2196
  826MOL0     H11500   1.916   4.599   2.026  1.6299  0.8355 -2.9687
  826MOL0     H11501   1.801   4.622   1.899  1.3677  1.7969 -1.8111
  826MOL0     H11502   1.736   4.771   2.165 -3.5258 -0.5182 -0.0588
  826MOL0     H11503   1.738   4.593   2.153  4.0945 -1.8175 -0.6439
  826MOL0     H11504   1.586   4.600   1.945 -0.3419 -0.0781  0.4854
  826MOL0     H11505   1.520   4.657   2.097  1.6249 -2.6955  0.8220
  826MOL0     H11506   1.550   4.995   1.836 -1.2519  1.2556  0.9935
  826MOL0     H11507   2.002   5.045   1.874  3.9576  0.8881 -2.2888
  826MOL0     H11508   2.061   5.255   1.793 -1.8530 -0.7550  2.4937
  826MOL0     H11509   2.155   5.363   1.907 -0.2331 -0.8093  2.3017
  826MOL0     H11510   2.233   5.231   1.812 -0.8399  0.2182 -2.6558
  827MOL0     O11511   5.876   6.841   9.066 -0.4082 -0.0216 -0.1744
  827MOL0     C11512   5.950   6.751   9.099  1.1543 -0.4542 -0.2480
  827MOL0     O11513   6.008   6.664   9.010  0.6195  0.7547 -0.1661
  827MOL0     C11514   5.999   6.690   8.873 -0.4474  0.1511  0.7362
  827MOL0     C11515   5.872   6.685   8.806  0.0963 -0.0255 -0.9454
  827MOL0     C11516   5.862   6.709   8.670  0.3723 -0.5922  0.6636
  827MOL0     C11517   5.966   6.743   8.596  0.3365 -0.9669  0.4756
  827MOL0     O11518   5.946   6.774   8.460  0.2219 -0.2317 -0.5684
  827MOL0     C11519   6.059   6.790   8.376  0.5599 -0.9015 -0.2192
  827MOL0     C11520   6.024   6.759   8.229  0.6006  0.4226  1.0115
  827MOL0     C11521   5.924   6.639   8.200 -0.0963 -0.5002 -0.1246
  827MOL0     C11522   5.937   6.607   8.049 -0.2514 -0.7349  0.7977
  827MOL0     C11523   5.848   6.483   8.017 -0.7772 -0.5733  0.0534
  827MOL0     C11524   5.811   6.472   7.876  1.0635  0.5658  1.0936
  827MOL0     C11525   5.720   6.340   7.877 -0.4111 -0.4957  0.1345
  827MOL0     C11526   5.664   6.298   7.736 -0.4356 -1.1430 -0.5126
  827MOL0     N11527   5.612   6.157   7.745 -0.1304 -0.1046 -0.1477
  827MOL0     C11528   5.617   6.058   7.641  0.2301  0.1007  0.3818
  827MOL0     C11529   5.592   5.947   7.701 -0.0961  1.4923  0.8531
  827MOL0     C11530   5.603   5.816   7.621  1.1559 -0.4012 -0.4718
  827MOL0     C11531   5.733   5.742   7.657 -0.5384  0.2736 -0.5645
  827MOL0     C11532   5.754   5.608   7.572 -0.2160 -1.4059  0.7856
  827MOL0     C11533   5.830   5.645   7.445  0.3046 -0.2980  0.0609
  827MOL0     O11534   5.823   5.541   7.340 -0.1497 -0.5726 -0.1893
  827MOL0     C11535   5.879   5.421   7.363 -0.3121  0.0504  0.2831
  827MOL0     C11536   6.017   5.407   7.338 -0.5362  0.5825 -0.1452
  827MOL0     C11537   6.068   5.268   7.334  0.6903  0.2485 -0.3342
  827MOL0     C11538   5.998   5.155   7.377 -0.0910 -0.2733 -0.7963
  827MOL0     C11539   6.064   5.021   7.367 -0.7353  0.0359 -1.0858
  827MOL0     O11540   6.167   5.010   7.281  0.0063  0.5417 -0.1329
  827MOL0     C11541   6.227   4.889   7.270 -0.4402 -0.9823 -0.5325
  827MOL0     C11542   6.185   4.800   7.171  0.2561  1.0320  1.2119
  827MOL0     C11543   6.223   4.666   7.165  1.0482 -0.7640  0.7110
  827MOL0     C11544   6.327   4.623   7.259  1.1994  0.0039  0.3864
  827MOL0     O11545   6.383   4.492   7.276  0.0799 -0.2545  0.2847
  827MOL0     C11546   6.305   4.398   7.210 -0.5376  0.2813 -0.8806
  827MOL0     C11547   6.385   4.259   7.231 -0.1612 -0.4776 -0.3451
  827MOL0     C11548   6.316   4.160   7.151 -1.0842 -0.7233 -0.4794
  827MOL0     C11549   6.367   4.021   7.182  0.2576  0.2001  0.2647
  827MOL0     C11550   6.323   3.917   7.082 -0.7409 -0.6863 -0.5210
  827MOL0     C11551   6.351   3.774   7.114  0.5482  0.3135 -0.3717
  827MOL0     C11552   6.491   3.736   7.086  0.6333  0.5516 -0.1351
  827MOL0     C11553   6.537   3.620   7.170  0.5474 -0.6822 -0.2226
  827MOL0    Cl11554   6.686   3.552   7.101  0.0358  0.3528  0.0189
  827MOL0     C11555   6.368   4.705   7.354  0.0786 -0.8095 -0.5668
  827MOL0     C11556   6.318   4.836   7.364  0.0504  0.3042  0.5355
  827MOL0     O11557   6.028   4.932   7.448  0.9313  0.2631  0.9454
  827MOL0     C11558   5.859   5.179   7.401 -0.6453  0.7333  0.1356
  827MOL0     C11559   5.797   5.309   7.396 -0.2795  1.0140 -0.3762
  827MOL0     N11560   5.532   5.971   7.827  0.2225  0.5919 -0.2015
  827MOL0     N11561   5.541   6.100   7.853 -0.8507  0.8790 -0.8435
  827MOL0     C11562   6.089   6.762   8.664 -0.2725  0.4627  0.1466
  827MOL0     C11563   6.111   6.737   8.798 -0.5766  0.2299  0.5267
  827MOL0     C11564   5.936   6.713   9.239  0.0612  0.5207  0.6351
  827MOL0     C11565   5.933   6.817   9.335  0.0861  0.1613 -0.9566
  827MOL0     C11566   5.936   6.799   9.470  0.4923 -0.0087  0.0216
  827MOL0     C11567   5.945   6.676   9.534  0.0738  0.4572  0.5047
  827MOL0     O11568   5.954   6.642   9.668 -0.4382  0.7477 -1.1815
  827MOL0     C11569   5.921   6.732   9.772 -0.8292 -0.2325  0.3532
  827MOL0     C11570   6.035   6.822   9.803  0.1475 -0.7758  0.1948
  827MOL0     C11571   5.991   6.931   9.898  0.5095 -1.3663  0.1189
  827MOL0     C11572   5.887   7.035   9.839  0.1196  0.4096  0.7621
  827MOL0     C11573   5.916   7.109   9.711  0.3009 -0.1467  0.4324
  827MOL0     C11574   5.951   7.176   9.619 -0.1649  0.1147  0.4307
  827MOL0     C11575   5.949   6.563   9.436 -0.3733 -0.8133  0.0435
  827MOL0     C11576   5.944   6.582   9.295 -0.7924 -0.0783 -0.2216
  827MOL0     C11577   5.936   6.467   9.204 -0.0959 -0.0930 -0.1994
  827MOL0     H11578   5.789   6.647   8.866  0.4275 -0.0027 -0.4686
  827MOL0     H11579   5.774   6.690   8.609 -1.4233  2.9618  1.8716
  827MOL0     H11580   6.099   6.890   8.393 -0.0264 -0.8060  0.6327
  827MOL0     H11581   6.131   6.713   8.406  0.4408 -2.3683 -3.2777
  827MOL0     H11582   6.114   6.741   8.170  0.3356  0.2807  0.6424
  827MOL0     H11583   5.973   6.851   8.197 -0.5903  0.1264  1.9979
  827MOL0     H11584   5.820   6.671   8.218 -0.2346  0.9658 -2.9347
  827MOL0     H11585   5.955   6.553   8.260  1.4734  0.7561  0.9365
  827MOL0     H11586   5.922   6.699   7.991  0.2379  1.0310  3.3114
  827MOL0     H11587   6.039   6.581   8.021  0.2244  0.6871  1.1025
  827MOL0     H11588   5.901   6.392   8.049  0.6345  0.0064 -0.5565
  827MOL0     H11589   5.761   6.494   8.083 -1.6924 -0.2253 -1.1618
  827MOL0     H11590   5.759   6.562   7.842  1.1649 -0.2137 -1.2922
  827MOL0     H11591   5.900   6.473   7.813  0.3266  0.4796  0.0302
  827MOL0     H11592   5.631   6.352   7.939 -1.3423  4.1731 -1.6819
  827MOL0     H11593   5.776   6.259   7.923  2.6157  1.6240  0.5088
  827MOL0     H11594   5.580   6.366   7.719 -0.6758 -0.3542  2.9683
  827MOL0     H11595   5.741   6.317   7.661  2.4400 -1.0430  2.2556
  827MOL0     H11596   5.647   6.080   7.539 -0.1390  1.1829  0.4913
  827MOL0     H11597   5.505   5.771   7.641  1.1874 -1.1039 -1.8065
  827MOL0     H11598   5.610   5.832   7.513 -0.8936  1.4549 -0.4025
  827MOL0     H11599   5.816   5.812   7.646 -1.6142  1.3561 -2.4313
  827MOL0     H11600   5.728   5.709   7.761 -4.1062 -2.1897 -1.3364
  827MOL0     H11601   5.662   5.551   7.554 -2.0386  1.3946  0.7533
  827MOL0     H11602   5.824   5.546   7.629 -0.5094  1.3348  4.4335
  827MOL0     H11603   5.934   5.675   7.462  0.0718  0.7505 -0.2714
  827MOL0     H11604   5.787   5.735   7.399  1.1093 -1.0274 -2.2262
  827MOL0     H11605   6.082   5.492   7.320 -0.0775  0.2122 -0.2689
  827MOL0     H11606   6.169   5.247   7.300  0.1798 -0.2415 -1.6376
  827MOL0     H11607   6.120   4.841   7.095  3.7304  0.2571 -2.5221
  827MOL0     H11608   6.180   4.599   7.092  0.5042  1.7466 -1.4175
  827MOL0     H11609   6.216   4.397   7.274  1.3735  3.8137  2.2268
  827MOL0     H11610   6.284   4.419   7.105 -1.5018 -0.5367 -0.8713
  827MOL0     H11611   6.491   4.267   7.205  1.3134 -2.4332  4.1052
  827MOL0     H11612   6.380   4.224   7.334 -0.9088 -2.0934 -0.9099
  827MOL0     H11613   6.209   4.168   7.171 -0.5998  5.2134  1.8562
  827MOL0     H11614   6.331   4.178   7.044  2.2281  1.6280  0.2071
  827MOL0     H11615   6.331   4.000   7.284 -3.5422  3.0289 -0.2417
  827MOL0     H11616   6.475   4.019   7.170  0.0548  0.3816 -2.0177
  827MOL0     H11617   6.376   3.947   6.991 -0.4864 -1.2154 -0.5522
  827MOL0     H11618   6.215   3.934   7.074 -0.6858  0.5720  0.9921
  827MOL0     H11619   6.325   3.746   7.217 -1.7296 -2.0911 -1.4755
  827MOL0     H11620   6.278   3.705   7.069 -2.5881  2.9150  0.3291
  827MOL0     H11621   6.554   3.823   7.109  1.1389 -0.2828  1.8110
  827MOL0     H11622   6.506   3.715   6.980 -0.0073 -1.1043  0.0752
  827MOL0     H11623   6.559   3.663   7.268  1.1059  0.5956 -0.8825
  827MOL0     H11624   6.457   3.547   7.186  0.1358 -0.1951 -0.0445
  827MOL0     H11625   6.437   4.673   7.431  1.5164  0.0957 -1.4349
  827MOL0     H11626   6.352   4.884   7.455 -1.3495  1.8637  0.2963
  827MOL0     H11627   5.803   5.087   7.409  4.7686 -3.0453 -0.2722
  827MOL0     H11628   5.696   5.331   7.429 -0.1503  2.2720 -0.7668
  827MOL0     H11629   6.172   6.813   8.616  0.5322 -1.4189 -0.5702
  827MOL0     H11630   6.192   6.774   8.859 -2.0351  0.7353  2.2245
  827MOL0     H11631   5.909   6.915   9.294  1.5026  1.3774  0.9560
  827MOL0     H11632   5.928   6.898   9.513  1.9137  0.3525 -0.4886
  827MOL0     H11633   5.887   6.682   9.864 -0.1683 -3.1904 -0.8792
  827MOL0     H11634   5.842   6.796   9.730 -2.5103  0.5604  4.2869
  827MOL0     H11635   6.066   6.855   9.704 -0.9875 -1.3037 -0.3541
  827MOL0     H11636   6.111   6.769   9.861  0.0592  1.2807  2.3776
  827MOL0     H11637   6.071   7.000   9.926 -1.4922  1.9458 -1.6622
  827MOL0     H11638   5.939   6.896   9.987  0.3844  3.4600  2.2249
  827MOL0     H11639   5.796   6.977   9.819  0.9585 -1.6800  2.5177
  827MOL0     H11640   5.858   7.103   9.919  0.0950  0.9431  0.3000
  827MOL0     H11641   5.989   7.223   9.531  0.6980 -1.0658  0.1523
  827MOL0     H11642   5.970   6.462   9.470  0.4631 -0.4784  0.5437
  827MOL0     H11643   5.890   6.383   9.259 -0.7791  3.1396  4.8346
  827MOL0     H11644   5.877   6.479   9.113 -2.2267 -2.6940  0.6788
  827MOL0     H11645   6.038   6.442   9.173 -0.5033  0.0882 -1.7861
  828MOL0     O11646   1.120  11.490   2.218  0.1498 -0.3396 -0.7504
  828MOL0     C11647   1.227  11.474   2.165  0.6575  0.8361  0.2875
  828MOL0     O11648   1.298  11.367   2.171 -0.5129  0.1569 -0.0935
  828MOL0     C11649   1.268  11.249   2.231 -0.7391 -0.5038  0.0764
  828MOL0     C11650   1.343  11.205   2.337 -0.1885  0.3114 -1.1812
  828MOL0     C11651   1.311  11.084   2.403  0.8069  0.0949 -0.0048
  828MOL0     C11652   1.193  11.006   2.366  0.2923  0.1335  0.8652
  828MOL0     O11653   1.160  10.889   2.432  0.3137 -0.5235 -0.8213
  828MOL0     C11654   1.240  10.839   2.537 -0.1706  0.4828 -0.7249
  828MOL0     C11655   1.183  10.709   2.602 -0.4993  0.3517  0.8525
  828MOL0     C11656   1.271  10.628   2.683 -0.0245 -0.3123 -0.5128
  828MOL0     C11657   1.372  10.691   2.788  0.4328  0.5664  0.2455
  828MOL0     C11658   1.439  10.582   2.875  0.3648 -0.7902 -0.4442
  828MOL0     C11659   1.573  10.556   2.813  0.7040  0.8113 -0.0620
  828MOL0     C11660   1.628  10.447   2.887  0.8401 -0.0908 -0.9866
  828MOL0     C11661   1.782  10.454   2.870 -0.3983 -0.5088  0.0730
  828MOL0     N11662   1.841  10.506   2.996  0.5821 -0.0948  0.2683
  828MOL0     C11663   1.902  10.414   3.089  0.8123 -1.1815  0.2272
  828MOL0     C11664   1.967  10.491   3.182 -0.0423  0.2774 -0.4676
  828MOL0     C11665   2.028  10.456   3.322  0.4275 -0.2497 -0.2547
  828MOL0     C11666   2.142  10.360   3.327 -0.3142 -0.2080 -0.2394
  828MOL0     C11667   2.271  10.413   3.259  0.1213 -0.6145 -0.0983
  828MOL0     C11668   2.354  10.289   3.228  0.6385 -0.4016  0.5591
  828MOL0     O11669   2.409  10.222   3.343 -0.1065 -0.6162  0.0209
  828MOL0     C11670   2.496  10.114   3.332 -0.8192 -0.0126  0.3029
  828MOL0     C11671   2.548  10.073   3.209  0.2489 -0.8966 -0.3011
  828MOL0     C11672   2.662   9.995   3.200  0.5903 -0.4800  0.6334
  828MOL0     C11673   2.713   9.932   3.312  0.4225 -0.2655 -0.0807
  828MOL0     C11674   2.817   9.825   3.310  0.0085 -0.0604 -0.2528
  828MOL0     O11675   2.862   9.794   3.185  0.5574 -0.4422 -0.5652
  828MOL0     C11676   2.968   9.705   3.192  0.0363  0.0388 -0.2397
  828MOL0     C11677   2.935   9.568   3.183  0.6454  0.3880 -0.1368
  828MOL0     C11678   3.034   9.473   3.159  0.2479 -0.6979  0.1619
  828MOL0     C11679   3.170   9.516   3.133  0.3643  0.3665 -0.3511
  828MOL0     O11680   3.271   9.434   3.094  0.1182 -0.3581  0.5025
  828MOL0     C11681   3.267   9.297   3.096  0.2872 -0.2710  0.5761
  828MOL0     C11682   3.406   9.230   3.063  0.8372  0.0256  0.3984
  828MOL0     C11683   3.397   9.076   3.061 -0.5718  0.0811 -0.1725
  828MOL0     C11684   3.388   9.015   3.207  0.6717 -0.7965 -0.5854
  828MOL0     C11685   3.425   8.875   3.228 -0.3227 -0.3825 -0.1295
  828MOL0     C11686   3.569   8.844   3.179 -1.0317 -0.0989  0.1586
  828MOL0     C11687   3.602   8.703   3.181 -0.9561 -0.3189 -1.0963
  828MOL0     C11688   3.532   8.628   3.073  0.1104  0.2567  0.3280
  828MOL0    Cl11689   3.610   8.461   3.064 -0.1322 -0.3779 -0.1291
  828MOL0     C11690   3.204   9.649   3.155 -0.7151 -0.0195 -0.8621
  828MOL0     C11691   3.103   9.739   3.193 -0.1973 -0.2284  0.3145
  828MOL0     O11692   2.850   9.780   3.420 -0.8877 -0.5675 -0.1236
  828MOL0     C11693   2.657   9.971   3.440 -0.2154 -0.3006 -0.2874
  828MOL0     C11694   2.554  10.064   3.448 -0.2946  0.2783  0.6238
  828MOL0     N11695   1.948  10.623   3.150  0.5396  0.9895  0.1247
  828MOL0     N11696   1.873  10.630   3.043 -0.6814  0.4633  0.3773
  828MOL0     C11697   1.116  11.056   2.254 -1.0289  0.3345  0.5542
  828MOL0     C11698   1.165  11.171   2.187  0.2128 -0.7418  0.2745
  828MOL0     C11699   1.283  11.584   2.081  0.8875 -0.3906 -0.5477
  828MOL0     C11700   1.416  11.605   2.066 -0.1108  0.3556 -0.8388
  828MOL0     C11701   1.468  11.712   1.992 -0.1506 -0.8395 -0.7738
  828MOL0     C11702   1.393  11.814   1.941  0.6415  0.0012  0.1336
  828MOL0     O11703   1.460  11.923   1.892 -0.3518 -0.4893 -0.1818
  828MOL0     C11704   1.503  11.913   1.759 -0.0513 -0.3914  1.0970
  828MOL0     C11705   1.449  12.034   1.679  0.1371  0.3781  0.5978
  828MOL0     C11706   1.296  12.031   1.657  0.5006  0.8311 -0.1082
  828MOL0     C11707   1.252  12.022   1.514  0.1716 -0.4566  0.6198
  828MOL0     C11708   1.310  12.125   1.430 -0.2383  0.4953  0.3848
  828MOL0     C11709   1.357  12.211   1.362 -0.1181 -0.8999 -0.9955
  828MOL0     C11710   1.256  11.793   1.958 -0.2020 -0.7084  0.2300
  828MOL0     C11711   1.199  11.681   2.014 -0.0874  0.1117  0.2756
  828MOL0     C11712   1.048  11.671   2.006  0.7188 -0.6358 -0.3295
  828MOL0     H11713   1.413  11.277   2.377 -2.8436  1.1321  2.5357
  828MOL0     H11714   1.362  11.044   2.490  0.3580 -0.3477  0.0638
  828MOL0     H11715   1.338  10.831   2.490 -0.8077  1.6489 -2.3130
  828MOL0     H11716   1.254  10.908   2.621  2.0057 -1.0609  0.2769
  828MOL0     H11717   1.158  10.643   2.518 -0.9744  1.5978 -0.0211
  828MOL0     H11718   1.094  10.729   2.662 -1.2350 -4.6436  1.8429
  828MOL0     H11719   1.330  10.556   2.625 -0.2066 -1.1181  0.2681
  828MOL0     H11720   1.203  10.562   2.737 -2.0987  0.5487 -1.9735
  828MOL0     H11721   1.446  10.751   2.734  0.3100 -0.6759 -1.3628
  828MOL0     H11722   1.316  10.760   2.853  3.3379  1.9843  1.4276
  828MOL0     H11723   1.449  10.619   2.978  0.0360  0.1965 -0.7513
  828MOL0     H11724   1.374  10.496   2.896 -2.7863  1.5154  0.0292
  828MOL0     H11725   1.566  10.520   2.710  2.7621 -0.2387  0.1266
  828MOL0     H11726   1.641  10.641   2.828  0.7043  1.2511 -2.1815
  828MOL0     H11727   1.580  10.354   2.855 -3.3087  0.6734  2.1983
  828MOL0     H11728   1.603  10.452   2.993 -1.0236 -2.8635 -1.1662
  828MOL0     H11729   1.817  10.351   2.861 -3.1310 -1.4561 -0.4854
  828MOL0     H11730   1.806  10.511   2.780  1.5690 -3.0644 -1.1518
  828MOL0     H11731   1.875  10.311   3.112 -0.8032 -0.7611  0.3676
  828MOL0     H11732   2.061  10.548   3.371 -2.8792  0.0825  1.6958
  828MOL0     H11733   1.940  10.425   3.379 -1.5450  0.9675 -2.4698
  828MOL0     H11734   2.145  10.336   3.434 -3.0581 -2.3499 -0.5235
  828MOL0     H11735   2.109  10.267   3.280 -0.7300  1.8035 -4.4060
  828MOL0     H11736   2.316  10.483   3.331 -0.9870  0.9556 -0.8863
  828MOL0     H11737   2.249  10.469   3.168  2.1966  0.3216 -0.0730
  828MOL0     H11738   2.429  10.315   3.153  1.4819  0.0443  1.5388
  828MOL0     H11739   2.296  10.215   3.171  0.1078  0.5000 -0.1001
  828MOL0     H11740   2.516  10.125   3.119 -4.0612 -1.9641  0.3842
  828MOL0     H11741   2.694   9.979   3.097  0.6559  5.7753 -0.7200
  828MOL0     H11742   2.834   9.534   3.204  1.0793  0.4623  2.4608
  828MOL0     H11743   3.020   9.366   3.150  1.2031 -1.0475  2.2192
  828MOL0     H11744   3.221   9.268   3.191 -1.3655  0.1241 -0.0566
  828MOL0     H11745   3.186   9.258   3.033  1.6505  0.7453 -1.9286
  828MOL0     H11746   3.451   9.271   2.973 -1.1103  0.4013 -0.4645
  828MOL0     H11747   3.474   9.261   3.143  0.0209  1.7036  0.4888
  828MOL0     H11748   3.312   9.042   3.001  0.2724 -1.0051 -0.7831
  828MOL0     H11749   3.480   9.034   3.004  0.8168 -0.3616  2.0340
  828MOL0     H11750   3.285   9.020   3.243  1.7325 -0.2853  2.6749
  828MOL0     H11751   3.455   9.072   3.272 -0.3604  0.5756 -0.6760
  828MOL0     H11752   3.353   8.817   3.169  0.6726 -0.4744 -1.2864
  828MOL0     H11753   3.413   8.840   3.331 -0.6514  0.8224  0.2607
  828MOL0     H11754   3.600   8.875   3.078  2.5954  1.0272  1.4504
  828MOL0     H11755   3.641   8.903   3.237  1.1274 -3.0782  0.7665
  828MOL0     H11756   3.576   8.671   3.282  2.0515  1.7222  0.4783
  828MOL0     H11757   3.708   8.685   3.161 -0.2827 -0.1847  1.9226
  828MOL0     H11758   3.430   8.602   3.102  1.4024 -2.8179  2.7289
  828MOL0     H11759   3.543   8.683   2.980 -1.5371  1.9412  1.0601
  828MOL0     H11760   3.306   9.687   3.155 -0.8445  0.3392 -0.8869
  828MOL0     H11761   3.129   9.843   3.209 -1.9592  0.2830  0.0426
  828MOL0     H11762   2.695   9.945   3.538 -1.4913 -0.3383  0.2142
  828MOL0     H11763   2.511  10.103   3.540  0.1586 -3.8163  2.7918
  828MOL0     H11764   1.026  11.007   2.219  0.5486 -0.9074 -2.0620
  828MOL0     H11765   1.101  11.205   2.106 -0.4403 -0.9030  0.7117
  828MOL0     H11766   1.497  11.542   2.100  1.1870  1.9851 -0.7637
  828MOL0     H11767   1.576  11.728   1.986 -0.2563  1.7915  1.9958
  828MOL0     H11768   1.467  11.818   1.717 -0.7392  1.3395 -2.6183
  828MOL0     H11769   1.612  11.914   1.754 -0.0942 -0.4114 -2.0252
  828MOL0     H11770   1.506  12.025   1.586 -2.2427 -1.3769 -0.8172
  828MOL0     H11771   1.487  12.124   1.729  2.5983 -0.6634  0.7648
  828MOL0     H11772   1.248  12.123   1.692 -1.0548  1.2697 -3.0405
  828MOL0     H11773   1.256  11.948   1.716  2.6006 -1.3247 -1.5555
  828MOL0     H11774   1.277  11.924   1.472 -0.7441 -0.4437  0.0001
  828MOL0     H11775   1.143  12.034   1.519  0.1250 -1.1290  1.4856
  828MOL0     H11776   1.413  12.286   1.309  3.0479 -0.9568  1.9344
  828MOL0     H11777   1.196  11.866   1.906 -1.4840 -2.5031 -0.9201
  828MOL0     H11778   1.001  11.594   1.944 -2.7441  2.2836 -1.7324
  828MOL0     H11779   1.007  11.671   2.107 -0.0254  1.4177 -0.5830
  828MOL0     H11780   1.004  11.765   1.971  1.8897  0.5689  1.2300
  829MOL0     O11781   1.773   3.890   1.124 -0.8014 -0.0945  0.1677
  829MOL0     C11782   1.714   3.845   1.216  0.2103  0.2215  0.7477
  829MOL0     O11783   1.735   3.730   1.277 -0.4695 -0.4267  0.4986
  829MOL0     C11784   1.852   3.664   1.248 -0.7601 -0.4319 -0.3887
  829MOL0     C11785   1.850   3.530   1.206 -0.3255  0.0292 -1.1560
  829MOL0     C11786   1.968   3.461   1.186 -0.4258  0.0351 -0.0985
  829MOL0     C11787   2.090   3.527   1.198 -0.6227  0.1009 -0.2566
  829MOL0     O11788   2.211   3.455   1.199 -0.4023  0.0601  0.3354
  829MOL0     C11789   2.225   3.314   1.228  0.0448  0.4587 -0.0542
  829MOL0     C11790   2.363   3.290   1.298 -0.2843  0.0535 -1.0640
  829MOL0     C11791   2.414   3.141   1.303  1.1072  0.0786  0.0251
  829MOL0     C11792   2.535   3.127   1.393 -0.3832 -0.2899 -0.8595
  829MOL0     C11793   2.577   2.975   1.410 -0.0426 -0.1008 -1.4400
  829MOL0     C11794   2.663   2.959   1.534  0.1133  0.0165  0.1214
  829MOL0     C11795   2.726   2.820   1.518  0.3277  0.5099 -1.1801
  829MOL0     C11796   2.633   2.720   1.594  0.3369 -0.4653 -1.2422
  829MOL0     N11797   2.667   2.577   1.584  0.2446  0.3332  0.5881
  829MOL0     C11798   2.601   2.464   1.626 -0.3062 -0.0754  0.5917
  829MOL0     C11799   2.649   2.352   1.555  0.8597 -0.2337  0.3280
  829MOL0     C11800   2.584   2.221   1.545 -0.8709 -0.2522 -0.4519
  829MOL0     C11801   2.580   2.140   1.671  0.4408  0.2000 -0.6380
  829MOL0     C11802   2.478   2.025   1.661  0.3617 -0.5713 -0.8378
  829MOL0     C11803   2.333   2.061   1.711  0.6717  0.0470 -0.0425
  829MOL0     O11804   2.333   2.100   1.849 -0.5415  0.6731  0.3389
  829MOL0     C11805   2.290   2.012   1.943 -0.1979  0.8767  0.9112
  829MOL0     C11806   2.264   1.876   1.922 -0.2733 -0.3519  0.5517
  829MOL0     C11807   2.216   1.793   2.020 -0.3726 -0.8508 -0.2039
  829MOL0     C11808   2.196   1.846   2.148  0.4645  0.2993  0.2714
  829MOL0     C11809   2.133   1.767   2.257  0.5450  0.3365  1.4215
  829MOL0     O11810   2.119   1.814   2.379  1.1487  0.5859  0.3264
  829MOL0     C11811   2.050   1.747   2.482 -0.8902  0.1884 -0.3323
  829MOL0     C11812   1.972   1.820   2.561 -0.4554  0.6390  0.6972
  829MOL0     C11813   1.922   1.765   2.675  0.1665 -0.1423 -0.0166
  829MOL0     C11814   1.938   1.627   2.711  0.1846 -0.3785 -0.6918
  829MOL0     O11815   1.904   1.562   2.823  0.5258 -0.0281 -0.4346
  829MOL0     C11816   1.801   1.619   2.909 -0.5147 -0.7181 -0.5248
  829MOL0     C11817   1.689   1.515   2.941 -0.0754 -0.2276  0.1031
  829MOL0     C11818   1.571   1.578   3.007 -0.3266  0.4447 -0.4805
  829MOL0     C11819   1.480   1.501   3.107 -0.1070  0.5971 -0.3601
  829MOL0     C11820   1.335   1.562   3.085  0.1820  0.0766 -0.9967
  829MOL0     C11821   1.248   1.550   3.217  0.4959 -0.5296  1.0827
  829MOL0     C11822   1.097   1.598   3.178  0.0598 -0.8851 -0.5590
  829MOL0     C11823   1.009   1.601   3.301 -0.3076 -0.0223 -0.5103
  829MOL0    Cl11824   0.872   1.701   3.285  0.5137 -0.4324 -0.1882
  829MOL0     C11825   2.005   1.548   2.628  0.4805  0.3857  0.5074
  829MOL0     C11826   2.063   1.611   2.510 -0.0004  0.5852 -0.2747
  829MOL0     O11827   2.099   1.653   2.223  0.5714  0.4433 -0.1039
  829MOL0     C11828   2.230   1.974   2.177 -0.1726  0.1104  0.5629
  829MOL0     C11829   2.283   2.055   2.076  0.1024 -0.0421  0.1058
  829MOL0     N11830   2.743   2.408   1.471  0.2100  0.1866  0.1540
  829MOL0     N11831   2.753   2.533   1.486 -0.0246  0.0605  0.0213
  829MOL0     C11832   2.092   3.660   1.244 -0.0629  0.1167 -0.0144
  829MOL0     C11833   1.978   3.731   1.263  0.1890 -0.4937 -0.5364
  829MOL0     C11834   1.601   3.923   1.263  0.5266  1.3713 -0.4836
  829MOL0     C11835   1.487   3.846   1.321  0.0350 -0.1630 -0.0145
  829MOL0     C11836   1.364   3.902   1.356 -0.3387  0.8591 -0.6840
  829MOL0     C11837   1.345   4.036   1.345  0.3220 -0.6289  0.6520
  829MOL0     O11838   1.233   4.110   1.373 -0.0393 -0.0473  0.2820
  829MOL0     C11839   1.109   4.046   1.393  0.2305 -0.5114  0.1580
  829MOL0     C11840   1.061   4.010   1.243 -0.0924 -0.0223 -1.2634
  829MOL0     C11841   0.921   3.946   1.256  0.2928 -0.2591  0.5552
  829MOL0     C11842   0.939   3.797   1.258  1.4235  0.7581 -0.3459
  829MOL0     C11843   0.868   3.735   1.372 -0.8228 -0.2523 -0.2282
  829MOL0     C11844   0.815   3.664   1.456 -0.2409 -0.3875 -0.1788
  829MOL0     C11845   1.447   4.110   1.289 -0.0212 -0.3442  0.2141
  829MOL0     C11846   1.572   4.062   1.248  1.0953  0.5437 -0.0970
  829MOL0     C11847   1.661   4.156   1.170  0.9166  0.4196 -0.7052
  829MOL0     H11848   1.759   3.471   1.196 -0.4788 -0.3910  1.8181
  829MOL0     H11849   1.961   3.356   1.157  0.9877  0.8481 -4.0123
  829MOL0     H11850   2.146   3.285   1.298  1.9016 -2.2582  1.0720
  829MOL0     H11851   2.216   3.262   1.132  1.8110  0.1316 -0.0789
  829MOL0     H11852   2.344   3.324   1.400  2.2226 -0.2535 -0.4268
  829MOL0     H11853   2.445   3.356   1.266  1.2644 -1.9315 -1.3831
  829MOL0     H11854   2.435   3.102   1.203 -0.7756 -0.0208 -0.3696
  829MOL0     H11855   2.341   3.065   1.334  1.3898 -0.0515  0.3778
  829MOL0     H11856   2.620   3.191   1.368  0.0532 -0.0459  1.0639
  829MOL0     H11857   2.513   3.164   1.494 -0.9917 -2.0709 -0.3007
  829MOL0     H11858   2.487   2.914   1.415  0.1537 -0.3024  0.8051
  829MOL0     H11859   2.629   2.942   1.319 -1.7462 -0.5982 -2.2786
  829MOL0     H11860   2.744   3.031   1.519 -0.9095  1.2163  0.2223
  829MOL0     H11861   2.613   2.974   1.629 -1.2850  1.8512 -0.8396
  829MOL0     H11862   2.822   2.826   1.570  1.1202 -3.7600 -1.7815
  829MOL0     H11863   2.736   2.796   1.412 -1.4104 -1.0872 -1.0324
  829MOL0     H11864   2.640   2.745   1.701 -0.8873 -0.8929 -1.0433
  829MOL0     H11865   2.526   2.733   1.577  0.0708 -2.5484 -1.3825
  829MOL0     H11866   2.531   2.466   1.709 -0.1799 -0.2335  0.7027
  829MOL0     H11867   2.480   2.235   1.512 -1.1032 -2.2800 -0.7191
  829MOL0     H11868   2.634   2.169   1.462 -1.3656 -0.2133 -0.7786
  829MOL0     H11869   2.680   2.096   1.680  1.8683  3.1583 -0.8665
  829MOL0     H11870   2.560   2.196   1.763  1.7682  3.2545 -2.0861
  829MOL0     H11871   2.519   1.937   1.711 -1.2014 -1.4053 -0.9641
  829MOL0     H11872   2.459   1.996   1.557 -0.6419 -0.9010 -0.5757
  829MOL0     H11873   2.256   1.987   1.684 -0.6604  1.1516  0.5617
  829MOL0     H11874   2.300   2.156   1.667  2.0165  0.7221  0.3923
  829MOL0     H11875   2.272   1.829   1.824  0.0207 -0.8783  0.8210
  829MOL0     H11876   2.191   1.692   1.991  0.1354 -1.2406  0.6763
  829MOL0     H11877   1.961   1.928   2.552 -0.2496  0.8304  2.3585
  829MOL0     H11878   1.883   1.837   2.745 -0.7210 -2.3514  1.8975
  829MOL0     H11879   1.835   1.669   3.000  0.1616  0.6502 -1.4872
  829MOL0     H11880   1.744   1.702   2.867 -0.2181 -0.2347  0.0229
  829MOL0     H11881   1.652   1.466   2.850 -0.9371 -3.3754  1.9917
  829MOL0     H11882   1.736   1.436   3.001  2.1539 -0.6600 -2.0371
  829MOL0     H11883   1.607   1.657   3.072  0.6024 -1.7980  1.9345
  829MOL0     H11884   1.518   1.638   2.932  0.1276  1.5370  0.0575
  829MOL0     H11885   1.517   1.525   3.207 -0.2368 -2.0942  0.4245
  829MOL0     H11886   1.471   1.395   3.082  0.9961  0.5887 -0.7873
  829MOL0     H11887   1.278   1.498   3.018 -0.7072 -0.7573  0.5117
  829MOL0     H11888   1.337   1.661   3.038 -0.8975  0.4561 -0.2791
  829MOL0     H11889   1.241   1.445   3.247 -2.2217 -0.3070  1.4513
  829MOL0     H11890   1.293   1.611   3.296  0.0055 -0.2125  1.1182
  829MOL0     H11891   1.060   1.533   3.097 -0.1435 -1.2984 -0.1370
  829MOL0     H11892   1.090   1.697   3.131  0.5449 -0.9978 -0.8830
  829MOL0     H11893   0.966   1.504   3.330 -2.6413  1.8289  2.9169
  829MOL0     H11894   1.069   1.630   3.387  1.9173  2.1768 -2.6465
  829MOL0     H11895   2.020   1.442   2.641  1.5609  0.0722 -2.4732
  829MOL0     H11896   2.118   1.550   2.439 -0.2866 -1.3246  1.0543
  829MOL0     H11897   2.212   2.019   2.274 -1.3966  0.1707  0.3210
  829MOL0     H11898   2.304   2.160   2.091  1.8260 -0.2509 -0.5897
  829MOL0     H11899   2.180   3.722   1.256  0.6844 -0.7293 -0.9877
  829MOL0     H11900   1.978   3.836   1.290  1.7888 -0.5710 -0.1600
  829MOL0     H11901   1.488   3.739   1.338  2.4504  0.0397  1.6690
  829MOL0     H11902   1.287   3.837   1.397  3.3534 -1.6265  3.1862
  829MOL0     H11903   1.044   4.117   1.443  0.1490 -0.3152 -0.2191
  829MOL0     H11904   1.114   3.961   1.461  1.7901 -1.6914 -1.3237
  829MOL0     H11905   1.134   3.944   1.196 -1.7231 -3.6506  0.9005
  829MOL0     H11906   1.052   4.104   1.187  1.5041  2.2927  2.0004
  829MOL0     H11907   0.856   3.968   1.171 -0.9873 -1.0082  1.3121
  829MOL0     H11908   0.878   3.983   1.349  2.3766  2.7733  0.4776
  829MOL0     H11909   0.882   3.766   1.170 -1.1049  0.8883  1.1382
  829MOL0     H11910   1.039   3.758   1.235  0.1890 -2.9205 -0.0773
  829MOL0     H11911   0.770   3.601   1.530  0.2484  2.1208  2.3938
  829MOL0     H11912   1.434   4.215   1.263  5.3670  0.6000  0.1709
  829MOL0     H11913   1.611   4.250   1.148  0.0115  0.4098  1.0643
  829MOL0     H11914   1.757   4.178   1.217  0.8400  1.1460 -0.8745
  829MOL0     H11915   1.677   4.099   1.078 -4.3127 -2.1934 -0.3831
  830MOL0     O11916  10.406   7.060   8.040  0.6492 -0.9991 -0.3170
  830MOL0     C11917  10.287   7.094   8.043 -0.5161  0.0831 -0.0893
  830MOL0     O11918  10.215   7.129   8.157  0.1888  0.4620 -0.2881
  830MOL0     C11919  10.293   7.161   8.267  0.2726 -0.1036 -0.5049
  830MOL0     C11920  10.288   7.088   8.380  1.0017 -0.5681 -0.5618
  830MOL0     C11921  10.354   7.133   8.495  0.6366 -0.2887 -0.0473
  830MOL0     C11922  10.416   7.255   8.500 -0.1014  0.0650 -0.5707
  830MOL0     O11923  10.490   7.295   8.606  0.2267  0.1048 -0.3329
  830MOL0     C11924  10.551   7.420   8.620 -0.8599 -0.6592 -0.1017
  830MOL0     C11925  10.639   7.434   8.750  0.4831  0.6897  0.7964
  830MOL0     C11926  10.763   7.351   8.757 -0.5533 -0.3827  0.6132
  830MOL0     C11927  10.828   7.352   8.896  0.1757  1.4384  0.0042
  830MOL0     C11928  10.977   7.296   8.894 -0.7953 -0.3146 -0.2786
  830MOL0     C11929  11.071   7.373   8.798 -1.2307 -0.2640 -0.3714
  830MOL0     C11930  11.214   7.313   8.807  0.0598 -1.0697 -0.3072
  830MOL0     C11931  11.298   7.333   8.941  0.3626 -1.0915  0.3301
  830MOL0     N11932  11.340   7.474   8.952 -0.1621  0.7017  0.0400
  830MOL0     C11933  11.280   7.588   8.994  1.0440  0.3687 -0.2524
  830MOL0     C11934  11.338   7.691   8.935 -0.0799 -0.6129 -1.1798
  830MOL0     C11935  11.299   7.834   8.969 -0.0677  0.1583  0.0652
  830MOL0     C11936  11.219   7.898   8.858 -0.2296 -0.2775  0.4436
  830MOL0     C11937  11.094   7.819   8.822  0.7745  1.4855  0.1889
  830MOL0     C11938  11.009   7.871   8.703  0.4403  0.6449  0.4535
  830MOL0     O11939  10.924   7.756   8.668 -0.2855 -0.5381  0.0465
  830MOL0     C11940  10.844   7.752   8.562 -0.3975  0.1798 -0.1141
  830MOL0     C11941  10.705   7.729   8.571  0.8045 -0.1492 -0.4287
  830MOL0     C11942  10.632   7.707   8.459  0.1059 -0.0569 -0.3419
  830MOL0     C11943  10.690   7.690   8.336  0.6955 -0.6116 -0.1110
  830MOL0     C11944  10.609   7.651   8.220  0.1675 -0.3804  0.9244
  830MOL0     O11945  10.673   7.630   8.103 -0.3517 -0.1394 -0.4424
  830MOL0     C11946  10.608   7.571   7.999  0.7406  0.3868  1.3074
  830MOL0     C11947  10.610   7.428   8.004  0.1869  0.0332  0.9469
  830MOL0     C11948  10.556   7.355   7.895 -1.3207 -0.1506  0.2722
  830MOL0     C11949  10.522   7.419   7.777  0.4158  0.8063  0.4556
  830MOL0     O11950  10.477   7.346   7.669 -0.0126 -0.2273  1.1385
  830MOL0     C11951  10.541   7.383   7.547  1.1842 -0.0601  0.1573
  830MOL0     C11952  10.439   7.419   7.434  0.3364 -0.6022 -0.4677
  830MOL0     C11953  10.503   7.480   7.311  0.2326  0.4580  0.0052
  830MOL0     C11954  10.418   7.492   7.184 -0.6000  0.1589 -0.0003
  830MOL0     C11955  10.415   7.367   7.094 -1.0877 -0.0728  0.2998
  830MOL0     C11956  10.296   7.365   6.990  0.5468 -0.1398 -0.5203
  830MOL0     C11957  10.316   7.252   6.887 -0.0349  0.3805 -0.2519
  830MOL0     C11958  10.187   7.192   6.823 -0.0263 -1.1460 -0.3326
  830MOL0    Cl11959  10.079   7.317   6.748 -0.6005  0.1098 -0.2093
  830MOL0     C11960  10.521   7.562   7.770  0.3809  0.6143  0.6444
  830MOL0     C11961  10.557   7.636   7.884  0.1577 -0.5824 -0.2185
  830MOL0     O11962  10.494   7.616   8.244  0.7270 -0.4862 -0.1482
  830MOL0     C11963  10.837   7.698   8.329  0.4370 -0.2872  0.9678
  830MOL0     C11964  10.906   7.734   8.439 -0.5448 -0.3524 -0.1168
  830MOL0     N11965  11.442   7.657   8.855 -0.0952 -0.8149  0.0686
  830MOL0     N11966  11.436   7.527   8.861 -0.3084  0.8593 -0.1403
  830MOL0     C11967  10.416   7.331   8.384 -0.4508  0.7748 -0.8249
  830MOL0     C11968  10.359   7.288   8.270  1.0188 -0.8602  0.4862
  830MOL0     C11969  10.214   7.102   7.923 -0.0537  0.0889  0.5923
  830MOL0     C11970  10.145   7.220   7.893 -0.4287  0.0526 -0.6958
  830MOL0     C11971  10.084   7.238   7.771  0.3444 -0.0909  0.4752
  830MOL0     C11972  10.094   7.135   7.681  0.0120  0.2148 -0.9159
  830MOL0     O11973  10.041   7.148   7.545 -0.6349  0.1309 -0.2243
  830MOL0     C11974   9.923   7.222   7.527  0.6120 -0.6013 -0.4328
  830MOL0     C11975   9.883   7.211   7.383 -0.0007 -0.2691  0.3910
  830MOL0     C11976   9.982   7.276   7.293  0.5535 -0.3987  0.2592
  830MOL0     C11977   9.951   7.421   7.280 -0.6175 -0.2727  0.2062
  830MOL0     C11978   9.831   7.449   7.207 -0.7876 -0.5027 -0.4125
  830MOL0     C11979   9.735   7.484   7.142  0.2363  0.4260  0.6879
  830MOL0     C11980  10.149   7.019   7.713  0.0091  0.9041 -0.5806
  830MOL0     C11981  10.218   7.005   7.827  0.1401  0.5477 -0.5936
  830MOL0     C11982  10.268   6.861   7.856  0.2944 -0.0200 -0.1215
  830MOL0     H11983  10.223   7.001   8.370  1.9567 -1.2502 -1.1234
  830MOL0     H11984  10.353   7.079   8.589  2.0389  0.9271  0.7079
  830MOL0     H11985  10.627   7.449   8.546 -1.1564 -0.4666 -0.3332
  830MOL0     H11986  10.471   7.494   8.615 -0.1954  0.0599 -0.4579
  830MOL0     H11987  10.576   7.405   8.835  3.0586 -1.3228  2.2051
  830MOL0     H11988  10.663   7.540   8.754 -0.9156  1.2879 -3.1454
  830MOL0     H11989  10.824   7.398   8.679 -2.2124 -1.2751 -1.2979
  830MOL0     H11990  10.728   7.249   8.738  0.5461 -0.6401 -0.1323
  830MOL0     H11991  10.830   7.451   8.943  0.7309  1.2248  0.4453
  830MOL0     H11992  10.764   7.284   8.953 -1.7810  4.7752  2.1852
  830MOL0     H11993  11.011   7.293   8.998 -1.7494 -1.7311  0.0330
  830MOL0     H11994  10.982   7.188   8.877  0.7687 -0.5724  1.4167
  830MOL0     H11995  11.050   7.368   8.691  0.9301  3.0447 -1.1059
  830MOL0     H11996  11.073   7.479   8.826  0.7292 -0.2999 -0.2487
  830MOL0     H11997  11.274   7.361   8.729  0.1774  0.9685  0.9751
  830MOL0     H11998  11.228   7.211   8.770 -1.5310 -0.1742 -3.8878
  830MOL0     H11999  11.248   7.302   9.033  1.0273  0.1784  1.1608
  830MOL0     H12000  11.395   7.282   8.942  2.0015  1.5533  4.8981
  830MOL0     H12001  11.187   7.591   9.049  0.3199 -1.1997 -1.3374
  830MOL0     H12002  11.247   7.823   9.065  0.5835 -0.2608  0.3716
  830MOL0     H12003  11.387   7.897   8.986  0.6666 -1.0786  1.0213
  830MOL0     H12004  11.202   8.006   8.866  3.3670  0.5821 -1.6379
  830MOL0     H12005  11.290   7.890   8.776 -0.2473  4.3293 -0.3264
  830MOL0     H12006  11.022   7.823   8.904 -3.1242 -0.6354 -2.7629
  830MOL0     H12007  11.108   7.712   8.802  1.0507  1.2695  1.4431
  830MOL0     H12008  11.072   7.901   8.619  0.2590 -1.2955 -0.4203
  830MOL0     H12009  10.948   7.948   8.751  0.1537  1.3514 -0.9896
  830MOL0     H12010  10.646   7.751   8.660  1.6361  0.6630 -0.0649
  830MOL0     H12011  10.525   7.716   8.477  0.4094  1.1810  1.1333
  830MOL0     H12012  10.651   7.379   8.092  0.8747  0.4732  0.8842
  830MOL0     H12013  10.551   7.250   7.925  0.9135 -0.3700  0.0510
  830MOL0     H12014  10.622   7.455   7.561  1.4147 -0.2153 -0.3730
  830MOL0     H12015  10.594   7.297   7.505  2.5334  0.4341  0.8075
  830MOL0     H12016  10.375   7.332   7.418  1.0832 -1.3215  0.3406
  830MOL0     H12017  10.378   7.500   7.474 -0.4523 -1.1729 -0.5031
  830MOL0     H12018  10.551   7.577   7.325  2.3103 -0.1130 -2.3983
  830MOL0     H12019  10.578   7.408   7.276  0.1164  0.4231 -0.1780
  830MOL0     H12020  10.444   7.581   7.126 -0.1586  1.5435  2.1963
  830MOL0     H12021  10.314   7.512   7.214 -0.4733 -0.9732  1.2854
  830MOL0     H12022  10.394   7.277   7.152 -0.0020 -0.2477  0.4604
  830MOL0     H12023  10.512   7.347   7.047 -1.0935 -3.3597  1.3876
  830MOL0     H12024  10.201   7.343   7.039  0.6028 -3.9866 -1.8017
  830MOL0     H12025  10.280   7.458   6.935  2.7330  0.2654 -0.5667
  830MOL0     H12026  10.378   7.173   6.930  0.4732 -0.0143 -1.6652
  830MOL0     H12027  10.370   7.300   6.804 -0.2651 -2.7178 -2.3727
  830MOL0     H12028  10.215   7.111   6.755  1.9172 -1.4308  0.7120
  830MOL0     H12029  10.135   7.154   6.912 -0.5882  0.2795 -0.0356
  830MOL0     H12030  10.484   7.620   7.686 -0.2755 -3.1997 -1.9565
  830MOL0     H12031  10.530   7.741   7.888 -0.9674 -0.8675 -0.0245
  830MOL0     H12032  10.895   7.686   8.238  0.7648 -1.3788  1.3032
  830MOL0     H12033  11.013   7.716   8.443 -0.7615 -1.5540  1.1954
  830MOL0     H12034  10.453   7.432   8.392 -1.6970  1.1075  1.9281
  830MOL0     H12035  10.365   7.358   8.188 -0.3245 -1.2625  0.0270
  830MOL0     H12036  10.168   7.313   7.945  0.5308 -1.1865  1.2220
  830MOL0     H12037  10.054   7.335   7.731  1.3419 -0.0217 -0.1393
  830MOL0     H12038   9.935   7.326   7.558  3.6112 -0.9530 -0.1343
  830MOL0     H12039   9.845   7.179   7.591  0.4249  1.2431  0.6247
  830MOL0     H12040   9.787   7.263   7.369 -0.0129  0.0676  1.6409
  830MOL0     H12041   9.876   7.107   7.351  1.0429  0.5320 -2.9306
  830MOL0     H12042   9.991   7.220   7.199  1.0214  2.4088 -1.4974
  830MOL0     H12043  10.077   7.266   7.345  1.6125 -1.6750 -1.7489
  830MOL0     H12044   9.946   7.471   7.377  0.8463 -0.6356  0.4941
  830MOL0     H12045  10.036   7.446   7.215 -1.0062 -2.8750 -1.4518
  830MOL0     H12046   9.643   7.505   7.093  0.8333  0.5463 -0.4214
  830MOL0     H12047  10.142   6.944   7.635 -0.6472  3.3275 -3.0145
  830MOL0     H12048  10.258   6.796   7.769 -0.8643 -2.7801  1.9083
  830MOL0     H12049  10.368   6.861   7.898 -0.9530  1.7747  3.2582
  830MOL0     H12050  10.212   6.820   7.941  2.7291 -1.7383  0.7664
  831MOL0     O12051   3.435   4.122   5.732  1.0267 -0.6669 -0.2682
  831MOL0     C12052   3.352   4.188   5.798  0.1549 -0.3184  0.0743
  831MOL0     O12053   3.279   4.136   5.902  0.9588  0.7698  0.0199
  831MOL0     C12054   3.335   4.017   5.953  0.1629 -0.1280 -0.6753
  831MOL0     C12055   3.428   4.023   6.052  0.6326 -0.8646 -0.5251
  831MOL0     C12056   3.479   3.910   6.115  0.4817 -0.4080  0.8828
  831MOL0     C12057   3.443   3.781   6.080  1.0097  0.0106 -0.4762
  831MOL0     O12058   3.504   3.673   6.137 -0.1375 -0.4779 -0.1711
  831MOL0     C12059   3.624   3.633   6.069 -0.0708  0.7297 -0.0644
  831MOL0     C12060   3.690   3.500   6.123  0.1282 -0.3420 -0.6236
  831MOL0     C12061   3.798   3.454   6.035 -0.3244  0.0223 -0.1729
  831MOL0     C12062   3.885   3.334   6.086  0.6363 -0.2048 -0.6960
  831MOL0     C12063   3.931   3.346   6.232 -0.1367 -0.7373  0.1315
  831MOL0     C12064   4.039   3.236   6.261  0.9210 -0.7438  0.1612
  831MOL0     C12065   3.960   3.110   6.308  0.5637  0.6009 -0.1755
  831MOL0     C12066   4.040   2.979   6.294  0.0099  0.8142 -0.4628
  831MOL0     N12067   4.021   2.950   6.153  0.2686 -0.2483 -0.7917
  831MOL0     C12068   3.917   2.879   6.105  0.4693  0.3734 -0.6743
  831MOL0     C12069   3.935   2.878   5.974  0.0078 -0.5071 -0.3170
  831MOL0     C12070   3.827   2.832   5.879  1.4843 -1.5438  0.3594
  831MOL0     C12071   3.715   2.937   5.853 -0.6985  0.9515  0.3406
  831MOL0     C12072   3.651   3.007   5.968  1.0844 -0.0464 -0.3587
  831MOL0     C12073   3.565   3.116   5.927  0.6935 -0.1102 -0.1933
  831MOL0     O12074   3.488   3.167   6.033  0.2259  0.1450 -0.1293
  831MOL0     C12075   3.375   3.101   6.074  1.4461 -0.9284  0.6874
  831MOL0     C12076   3.306   3.179   6.163  0.1604 -0.9011 -0.4000
  831MOL0     C12077   3.195   3.130   6.228 -1.2166 -0.4237  0.4542
  831MOL0     C12078   3.134   3.012   6.180  0.9521 -0.7853 -0.8900
  831MOL0     C12079   3.005   2.959   6.230 -0.5174  0.7561  0.4832
  831MOL0     O12080   2.987   2.822   6.232  0.1091 -0.0526 -0.1147
  831MOL0     C12081   2.873   2.770   6.274 -0.1174  0.4466  0.9698
  831MOL0     C12082   2.835   2.735   6.401  0.4570  0.0369 -1.0024
  831MOL0     C12083   2.721   2.653   6.422  0.4567  0.1692  0.0681
  831MOL0     C12084   2.642   2.619   6.316  0.1206 -1.4978 -0.2992
  831MOL0     O12085   2.517   2.551   6.334  0.2007 -0.1973  0.5721
  831MOL0     C12086   2.506   2.465   6.449 -0.4067  0.9515  0.2423
  831MOL0     C12087   2.419   2.351   6.411 -0.5806  0.2251  0.3220
  831MOL0     C12088   2.395   2.259   6.535  0.2537  0.1256  0.2231
  831MOL0     C12089   2.350   2.123   6.486 -0.0345 -0.1382  0.7247
  831MOL0     C12090   2.316   2.023   6.595  0.7868 -0.0181 -1.3005
  831MOL0     C12091   2.197   2.040   6.687 -0.3374  0.6608  0.2134
  831MOL0     C12092   2.068   2.045   6.600 -0.0621  0.2415 -0.3204
  831MOL0     C12093   1.946   2.032   6.691  0.3046  0.1361 -1.8711
  831MOL0    Cl12094   1.795   2.093   6.617  0.0953 -0.1044  0.3403
  831MOL0     C12095   2.686   2.656   6.189  0.2438 -0.3225 -0.5614
  831MOL0     C12096   2.793   2.733   6.167 -0.6357 -0.5524 -0.0790
  831MOL0     O12097   2.920   3.039   6.273 -0.6222  0.0916  0.3136
  831MOL0     C12098   3.187   2.941   6.068 -0.4255 -0.0162 -0.0110
  831MOL0     C12099   3.317   2.985   6.025  0.0463  0.8464 -0.7127
  831MOL0     N12100   4.050   2.946   5.948 -0.6562  0.0537  0.1639
  831MOL0     N12101   4.096   3.002   6.052 -0.5764  0.5994  0.0116
  831MOL0     C12102   3.334   3.775   5.992 -0.1376  0.7203  1.4796
  831MOL0     C12103   3.280   3.896   5.929 -0.1324  0.0706 -0.7223
  831MOL0     C12104   3.310   4.318   5.735  0.0151 -0.4006 -0.2856
  831MOL0     C12105   3.398   4.380   5.649 -0.7497 -0.2856 -0.3671
  831MOL0     C12106   3.378   4.489   5.580  0.3224 -0.2888 -0.3199
  831MOL0     C12107   3.252   4.560   5.593 -0.7591 -1.1324  0.1698
  831MOL0     O12108   3.239   4.669   5.516 -0.2252 -0.3404  0.4837
  831MOL0     C12109   3.135   4.678   5.421 -0.3702  0.1815 -1.3408
  831MOL0     C12110   3.072   4.815   5.405 -0.5045  0.0188 -0.7819
  831MOL0     C12111   3.058   4.895   5.535 -0.7015 -0.6627  0.3999
  831MOL0     C12112   3.176   4.976   5.580  0.5942  0.3418  0.9745
  831MOL0     C12113   3.136   5.079   5.668  0.2834  0.2043 -0.1445
  831MOL0     C12114   3.088   5.155   5.751 -0.2159  0.3779  0.1079
  831MOL0     C12115   3.153   4.505   5.687  0.6425 -0.6867  0.1933
  831MOL0     C12116   3.183   4.383   5.748  0.6681 -0.9366  0.4504
  831MOL0     C12117   3.068   4.329   5.824  0.8732  0.6957 -0.6809
  831MOL0     H12118   3.469   4.118   6.082  1.3597 -1.6835  1.1889
  831MOL0     H12119   3.555   3.929   6.190 -1.0690  0.6412  2.2374
  831MOL0     H12120   3.605   3.622   5.962 -2.1069 -1.7235  0.4516
  831MOL0     H12121   3.703   3.706   6.089  0.5306  0.1285 -0.1848
  831MOL0     H12122   3.618   3.419   6.129  1.5238 -1.5450  1.0834
  831MOL0     H12123   3.723   3.520   6.226 -2.7831  0.6256  0.2299
  831MOL0     H12124   3.860   3.543   6.019  0.0340 -0.5262 -2.1691
  831MOL0     H12125   3.757   3.430   5.937 -0.6800  1.1615 -0.3177
  831MOL0     H12126   3.826   3.243   6.072 -0.9411  0.7322 -0.3636
  831MOL0     H12127   3.967   3.335   6.013 -1.0316  2.4269 -2.7051
  831MOL0     H12128   3.987   3.440   6.238  0.9656 -1.4448  1.4564
  831MOL0     H12129   3.860   3.338   6.314  2.1212 -1.2947  2.1189
  831MOL0     H12130   4.110   3.224   6.179 -0.1653  2.4374 -1.3941
  831MOL0     H12131   4.090   3.275   6.349 -1.2833  5.3305 -0.7621
  831MOL0     H12132   3.875   3.091   6.243  1.0589  2.3693 -1.3893
  831MOL0     H12133   3.916   3.122   6.407 -0.6509  3.4967 -0.9681
  831MOL0     H12134   4.145   2.993   6.321  0.0818 -1.1975  0.4864
  831MOL0     H12135   4.001   2.901   6.360  0.4405  0.1671 -0.9640
  831MOL0     H12136   3.833   2.833   6.157  0.3859  0.1587 -1.0009
  831MOL0     H12137   3.864   2.803   5.781  2.1664  0.7575 -0.1254
  831MOL0     H12138   3.787   2.743   5.928 -1.9110 -0.6136 -0.4465
  831MOL0     H12139   3.747   3.020   5.790 -2.2668  2.1354  1.0507
  831MOL0     H12140   3.634   2.883   5.803  0.8425  0.6216 -1.9613
  831MOL0     H12141   3.725   3.039   6.042  1.9124  0.6577 -1.4590
  831MOL0     H12142   3.600   2.925   6.020 -0.5913  1.4933  0.5482
  831MOL0     H12143   3.508   3.083   5.840 -0.3067 -0.9796  0.7620
  831MOL0     H12144   3.628   3.205   5.917 -1.5643  1.6606  0.4901
  831MOL0     H12145   3.352   3.276   6.181 -0.0118 -0.3241 -2.7534
  831MOL0     H12146   3.145   3.196   6.298 -0.3609 -0.6809  1.3322
  831MOL0     H12147   2.892   2.769   6.488 -0.5163  2.6609 -1.2789
  831MOL0     H12148   2.708   2.637   6.529  0.1169 -0.2803 -0.0370
  831MOL0     H12149   2.599   2.419   6.482 -1.4795  0.5357  2.9706
  831MOL0     H12150   2.467   2.520   6.535 -1.3391  0.0800  0.3925
  831MOL0     H12151   2.333   2.393   6.359 -0.2785  0.5621  0.0966
  831MOL0     H12152   2.466   2.286   6.337  1.2248  1.5366  0.2430
  831MOL0     H12153   2.488   2.230   6.584 -0.1702 -2.7122 -0.4932
  831MOL0     H12154   2.320   2.304   6.601  0.6471  1.1567 -0.0077
  831MOL0     H12155   2.419   2.059   6.430 -0.8959 -2.0813  1.7882
  831MOL0     H12156   2.270   2.151   6.417  0.5583  0.6644  0.3341
  831MOL0     H12157   2.404   2.017   6.660  0.9997  1.5294 -1.4158
  831MOL0     H12158   2.303   1.922   6.553  2.1380 -0.5408 -0.5118
  831MOL0     H12159   2.186   1.969   6.770 -3.5697  3.0482  2.0701
  831MOL0     H12160   2.196   2.137   6.739  0.3132  0.9125 -0.2351
  831MOL0     H12161   2.084   1.963   6.530  1.9740 -0.2150  0.6069
  831MOL0     H12162   2.060   2.135   6.538  0.0241  1.1021  0.8832
  831MOL0     H12163   1.925   1.929   6.720 -3.6387  1.3334  0.2922
  831MOL0     H12164   1.955   2.088   6.785  0.7050 -1.9756 -0.5862
  831MOL0     H12165   2.630   2.643   6.096  3.3906  0.3426 -2.7229
  831MOL0     H12166   2.814   2.744   6.061  2.2105 -3.4879  0.0129
  831MOL0     H12167   3.148   2.851   6.022 -1.3849  0.6559 -0.5615
  831MOL0     H12168   3.373   2.924   5.955 -0.5907  1.2770 -1.6279
  831MOL0     H12169   3.302   3.674   5.966  0.9885  0.4107  1.2454
  831MOL0     H12170   3.195   3.890   5.861  0.9301 -2.2618 -1.9823
  831MOL0     H12171   3.494   4.330   5.643  0.6784  1.2019  4.7814
  831MOL0     H12172   3.462   4.509   5.513  1.1504 -3.5329 -0.4523
  831MOL0     H12173   3.057   4.612   5.462  1.6461 -0.0421  2.6413
  831MOL0     H12174   3.168   4.640   5.324  2.5077 -1.3649  0.1149
  831MOL0     H12175   2.978   4.820   5.351 -1.0180  2.6208  0.2198
  831MOL0     H12176   3.143   4.867   5.340  0.6752  0.1374  0.5510
  831MOL0     H12177   3.018   4.833   5.616 -1.2689 -2.5177 -1.2237
  831MOL0     H12178   2.995   4.978   5.502  1.1609  0.6972  0.1233
  831MOL0     H12179   3.258   4.920   5.625  2.2375  2.2049  0.4194
  831MOL0     H12180   3.209   5.031   5.491 -1.4710  0.3064  0.1156
  831MOL0     H12181   3.055   5.239   5.809  3.1529  1.8395  0.1767
  831MOL0     H12182   3.058   4.555   5.701 -0.7585 -3.0777 -0.1446
  831MOL0     H12183   3.068   4.220   5.818  0.5577  0.6816 -0.4529
  831MOL0     H12184   3.069   4.356   5.930 -0.8798 -3.2377  0.5482
  831MOL0     H12185   2.976   4.363   5.775  1.3192  2.4671 -0.3603
  832MOL0     O12186   7.668   5.515   1.459  0.6498 -0.4161 -0.2990
  832MOL0     C12187   7.671   5.568   1.569 -0.7376 -0.2182  0.7365
  832MOL0     O12188   7.786   5.619   1.621  0.2945 -0.5894 -0.8946
  832MOL0     C12189   7.920   5.602   1.596 -0.0468 -0.1544 -0.8359
  832MOL0     C12190   7.976   5.488   1.543  0.2623  0.4712  0.6217
  832MOL0     C12191   8.117   5.487   1.517  0.4278 -0.7090  0.2204
  832MOL0     C12192   8.199   5.595   1.537 -0.2311 -0.5441  0.5950
  832MOL0     O12193   8.333   5.596   1.506  0.0726 -0.0950  0.2881
  832MOL0     C12194   8.418   5.503   1.578 -0.5108  0.6811 -0.3587
  832MOL0     C12195   8.573   5.482   1.546  0.3612  0.2807  0.3971
  832MOL0     C12196   8.628   5.620   1.531 -0.0196 -0.2624  0.0927
  832MOL0     C12197   8.774   5.599   1.491  0.1488 -0.3347  0.8213
  832MOL0     C12198   8.874   5.724   1.493  0.9927  0.1421  0.2766
  832MOL0     C12199   8.822   5.852   1.434  1.7023  0.6196  0.5996
  832MOL0     C12200   8.931   5.960   1.458 -0.1011 -0.0025 -0.6762
  832MOL0     C12201   8.891   6.103   1.409 -1.0102  0.5236 -0.8328
  832MOL0     N12202   8.764   6.144   1.466  0.4721  0.0230  0.0291
  832MOL0     C12203   8.730   6.158   1.599  1.8179  0.4165  0.8315
  832MOL0     C12204   8.603   6.208   1.595  0.0227  0.1041 -1.0848
  832MOL0     C12205   8.517   6.222   1.712  0.1086  0.5032 -0.6458
  832MOL0     C12206   8.486   6.094   1.796  0.3801  0.2640  0.5737
  832MOL0     C12207   8.421   5.978   1.728  0.8468 -0.4263 -0.1588
  832MOL0     C12208   8.462   5.851   1.808 -0.5354 -0.4272 -0.8248
  832MOL0     O12209   8.426   5.873   1.946 -0.7013  0.5154 -0.3574
  832MOL0     C12210   8.295   5.872   1.995  0.5091  0.6678  0.4930
  832MOL0     C12211   8.186   5.806   1.938 -0.6476  0.0193  0.3658
  832MOL0     C12212   8.053   5.829   1.984 -0.6142 -0.1747  0.8105
  832MOL0     C12213   8.029   5.917   2.090  0.0401 -0.3855  0.8926
  832MOL0     C12214   7.894   5.954   2.135 -0.9974  0.1477  0.6414
  832MOL0     O12215   7.802   5.854   2.157 -0.2022  0.4722  0.0483
  832MOL0     C12216   7.672   5.887   2.181  0.3366  0.3167  0.2767
  832MOL0     C12217   7.623   5.874   2.315 -0.3846  0.5309  0.8886
  832MOL0     C12218   7.490   5.919   2.326 -0.2954 -0.7163 -0.2847
  832MOL0     C12219   7.406   5.972   2.223 -0.3952 -0.2024  0.1366
  832MOL0     O12220   7.282   6.022   2.238  0.4469 -0.1569  0.4216
  832MOL0     C12221   7.205   6.006   2.360 -0.7056 -0.1529  0.2100
  832MOL0     C12222   7.222   6.147   2.412 -0.6867 -0.1902  0.3892
  832MOL0     C12223   7.084   6.220   2.423 -0.1769  0.4804 -0.0256
  832MOL0     C12224   7.010   6.250   2.293  0.0242 -0.5871  0.0753
  832MOL0     C12225   6.857   6.270   2.302  0.2420 -0.3800  0.3820
  832MOL0     C12226   6.822   6.423   2.321  0.2512 -0.3945 -0.6962
  832MOL0     C12227   6.671   6.472   2.307  0.2953 -0.4439 -0.5122
  832MOL0     C12228   6.642   6.626   2.302  0.5331  0.1062 -0.2970
  832MOL0    Cl12229   6.674   6.675   2.139  0.2160 -0.3308 -0.1434
  832MOL0     C12230   7.464   5.961   2.100  1.0646  0.0208 -0.0143
  832MOL0     C12231   7.590   5.926   2.075 -0.1255  0.4231 -0.6635
  832MOL0     O12232   7.870   6.072   2.154 -0.8495 -0.8898 -0.0144
  832MOL0     C12233   8.138   5.979   2.146  0.1225 -0.8149  1.1939
  832MOL0     C12234   8.269   5.963   2.098  0.5393 -0.3539 -0.2589
  832MOL0     N12235   8.564   6.225   1.462 -0.8365  0.8296 -0.1097
  832MOL0     N12236   8.665   6.189   1.397  0.9786  0.9203 -0.2262
  832MOL0     C12237   8.139   5.707   1.585  1.1077  0.4043  0.0910
  832MOL0     C12238   8.004   5.713   1.610 -0.3934 -1.2452  0.2082
  832MOL0     C12239   7.554   5.573   1.656 -0.4255 -0.0361  0.1057
  832MOL0     C12240   7.570   5.514   1.783  0.9183  0.2342 -0.1718
  832MOL0     C12241   7.454   5.494   1.867  0.0978  0.0150  0.1492
  832MOL0     C12242   7.326   5.537   1.826 -0.2934  0.2272  0.2296
  832MOL0     O12243   7.206   5.516   1.890 -0.2700  0.3451  0.1049
  832MOL0     C12244   7.214   5.465   2.026  0.0109  0.7925 -0.4770
  832MOL0     C12245   7.213   5.573   2.138 -0.2879  0.3163  0.0598
  832MOL0     C12246   7.092   5.657   2.132  0.1498 -0.4407  0.1026
  832MOL0     C12247   7.058   5.759   2.020 -0.2794 -0.3179 -0.8294
  832MOL0     C12248   6.972   5.871   2.056  0.3602 -0.1831 -0.5270
  832MOL0     C12249   6.891   5.961   2.093  0.2860  0.3203  0.8865
  832MOL0     C12250   7.316   5.588   1.701 -0.8067 -0.6486 -0.1650
  832MOL0     C12251   7.422   5.607   1.612  0.1885 -0.0204  0.0313
  832MOL0     C12252   7.377   5.646   1.471 -0.0757  0.5581 -0.5993
  832MOL0     H12253   7.913   5.404   1.513  0.9644 -0.5541  1.8923
  832MOL0     H12254   8.165   5.402   1.469 -0.9163 -0.8407 -0.9407
  832MOL0     H12255   8.405   5.529   1.683 -2.4980 -4.5145  1.0076
  832MOL0     H12256   8.374   5.403   1.574 -2.3018  1.4581 -1.9261
  832MOL0     H12257   8.575   5.422   1.455 -1.5579  0.9212 -0.1134
  832MOL0     H12258   8.622   5.428   1.628 -1.4349 -2.9523 -0.4970
  832MOL0     H12259   8.626   5.668   1.629 -2.6538 -1.0200  0.4731
  832MOL0     H12260   8.579   5.688   1.460 -0.4992  0.0452  0.7159
  832MOL0     H12261   8.815   5.512   1.543 -0.0239 -3.3835 -3.5487
  832MOL0     H12262   8.793   5.572   1.387  1.2191  2.9592  0.0429
  832MOL0     H12263   8.919   5.738   1.592  2.5025  0.5607 -0.4493
  832MOL0     H12264   8.949   5.699   1.418  0.5502 -0.1735 -0.0652
  832MOL0     H12265   8.806   5.834   1.327  0.3602 -1.5644  1.0962
  832MOL0     H12266   8.731   5.880   1.489  1.1019 -1.2108  0.6188
  832MOL0     H12267   9.020   5.956   1.394 -1.0402 -1.4338 -1.9683
  832MOL0     H12268   8.950   5.964   1.565  0.1196  1.8634 -0.7493
  832MOL0     H12269   8.966   6.178   1.434  0.7759 -0.1183 -3.7705
  832MOL0     H12270   8.888   6.107   1.299 -0.7970 -2.0168 -0.9933
  832MOL0     H12271   8.774   6.143   1.697 -3.2619  0.4539  3.4410
  832MOL0     H12272   8.542   6.313   1.769  0.9069 -1.0183  1.5751
  832MOL0     H12273   8.420   6.245   1.668 -0.5541  0.6076  0.8076
  832MOL0     H12274   8.580   6.060   1.838 -0.1205 -1.7106  0.1763
  832MOL0     H12275   8.416   6.128   1.873 -0.3052  2.4659 -0.9203
  832MOL0     H12276   8.457   5.973   1.625 -0.7479  0.0856 -0.7742
  832MOL0     H12277   8.313   5.997   1.722  0.7277 -0.6007  1.2020
  832MOL0     H12278   8.570   5.839   1.792 -0.4625  0.9789 -1.6090
  832MOL0     H12279   8.417   5.760   1.768  0.0279 -1.3470  0.5818
  832MOL0     H12280   8.201   5.738   1.856 -1.9506 -1.7687  1.5377
  832MOL0     H12281   7.970   5.789   1.928 -0.1148 -1.1169  0.7316
  832MOL0     H12282   7.683   5.839   2.399 -1.8911 -0.2150  1.7016
  832MOL0     H12283   7.456   5.918   2.430  2.1578 -2.7778  0.6032
  832MOL0     H12284   7.099   5.981   2.348 -0.0447 -3.4722  0.4330
  832MOL0     H12285   7.252   5.934   2.426  0.1081  1.3457  1.3328
  832MOL0     H12286   7.271   6.150   2.510  2.4493 -0.7665 -1.0643
  832MOL0     H12287   7.279   6.211   2.344 -1.7454 -0.1536 -0.4855
  832MOL0     H12288   7.019   6.148   2.474 -2.0814  2.1417 -0.0132
  832MOL0     H12289   7.105   6.313   2.477 -4.7667  1.4692  0.4383
  832MOL0     H12290   7.030   6.176   2.214  1.0705  0.7136 -0.9185
  832MOL0     H12291   7.044   6.350   2.268  2.3345 -1.1595  0.6608
  832MOL0     H12292   6.815   6.219   2.390 -1.0263 -2.9775 -1.5731
  832MOL0     H12293   6.804   6.229   2.215  0.9278 -0.8890  0.1973
  832MOL0     H12294   6.862   6.457   2.417  1.7831 -1.3574 -0.9497
  832MOL0     H12295   6.868   6.478   2.238  0.4693 -3.1517 -2.5595
  832MOL0     H12296   6.637   6.439   2.405  0.8940  0.5288  0.0458
  832MOL0     H12297   6.629   6.407   2.230  0.5215 -0.9789 -0.1924
  832MOL0     H12298   6.541   6.635   2.343  1.2236 -2.4114  2.2895
  832MOL0     H12299   6.713   6.681   2.364  0.3249  1.0718 -0.9015
  832MOL0     H12300   7.427   5.972   1.998  1.9087 -0.6493 -0.4000
  832MOL0     H12301   7.631   5.920   1.974 -0.8223 -1.2166 -0.8840
  832MOL0     H12302   8.114   6.065   2.207  2.2131  1.4919 -1.0015
  832MOL0     H12303   8.350   6.031   2.123 -0.5460  0.4061  1.3587
  832MOL0     H12304   8.192   5.802   1.578 -1.8327  2.0487 -3.8379
  832MOL0     H12305   7.959   5.808   1.637  0.1344 -0.0111 -2.8705
  832MOL0     H12306   7.660   5.459   1.810 -1.8940 -5.2805 -0.5754
  832MOL0     H12307   7.487   5.433   1.950  1.6571  1.5845  0.7493
  832MOL0     H12308   7.304   5.405   2.040  0.1304  0.4994 -2.2310
  832MOL0     H12309   7.131   5.395   2.035  3.0420 -3.2823 -1.2611
  832MOL0     H12310   7.297   5.643   2.130 -2.0583  2.4098 -1.7011
  832MOL0     H12311   7.209   5.512   2.228 -0.8178 -2.0015 -1.4631
  832MOL0     H12312   7.090   5.723   2.219  4.8579  1.5201 -0.9589
  832MOL0     H12313   7.008   5.587   2.147  1.1834 -2.0139 -1.1019
  832MOL0     H12314   7.145   5.811   1.980 -0.6961  0.4790 -0.7119
  832MOL0     H12315   7.021   5.704   1.933  1.9004 -0.7856 -1.5363
  832MOL0     H12316   6.828   6.041   2.127  0.7217  0.2155  1.9835
  832MOL0     H12317   7.220   5.612   1.657 -0.0631 -1.1866 -2.2209
  832MOL0     H12318   7.293   5.714   1.491  1.7769  1.8023  4.5821
  832MOL0     H12319   7.461   5.676   1.409  1.8444 -1.2292  0.9858
  832MOL0     H12320   7.336   5.563   1.413  0.1940  2.0317 -3.0412
  833MOL0     O12321   5.748   9.844   1.444 -0.6358  0.0813  0.0724
  833MOL0     C12322   5.783   9.911   1.541  0.0642 -0.6513 -0.1382
  833MOL0     O12323   5.740   9.892   1.676 -0.1723  0.4699  0.2307
  833MOL0     C12324   5.706   9.765   1.721 -0.5553 -0.2601 -0.7197
  833MOL0     C12325   5.667   9.764   1.855  0.2656 -0.4678 -0.3662
  833MOL0     C12326   5.616   9.646   1.915  1.2150 -0.3029 -0.0968
  833MOL0     C12327   5.633   9.523   1.855  0.6337 -0.3206  0.8824
  833MOL0     O12328   5.609   9.404   1.912  0.2566  0.5733  0.7554
  833MOL0     C12329   5.578   9.402   2.052 -0.8415  0.7919  0.2790
  833MOL0     C12330   5.616   9.268   2.113 -0.6279  0.2874  0.6810
  833MOL0     C12331   5.550   9.139   2.053 -0.2672  0.1707 -0.7725
  833MOL0     C12332   5.605   9.006   2.104 -0.3543 -0.8857  0.3974
  833MOL0     C12333   5.503   8.896   2.087  0.6714  0.0095  0.8941
  833MOL0     C12334   5.531   8.756   2.150 -0.0362  0.2327  0.4576
  833MOL0     C12335   5.401   8.672   2.178 -0.9720 -0.5024  0.4691
  833MOL0     C12336   5.360   8.587   2.066  0.7759  1.7827  0.3476
  833MOL0     N12337   5.219   8.543   2.093  0.4476  0.4235 -0.2706
  833MOL0     C12338   5.195   8.406   2.097 -0.0348  0.1913  0.7174
  833MOL0     C12339   5.058   8.407   2.113 -0.8991 -0.0758  0.2200
  833MOL0     C12340   4.960   8.295   2.113  0.1497  0.2912  0.5583
  833MOL0     C12341   4.834   8.331   2.197 -0.0027 -0.3184 -0.0980
  833MOL0     C12342   4.730   8.225   2.221 -0.3534 -0.5697 -0.2004
  833MOL0     C12343   4.726   8.143   2.355  1.0527 -0.3898  0.3356
  833MOL0     O12344   4.839   8.056   2.365  1.6462 -0.0495  0.4549
  833MOL0     C12345   4.862   7.983   2.482 -0.4532 -1.1176 -0.3316
  833MOL0     C12346   4.985   7.913   2.488 -0.4271  0.3512  0.3293
  833MOL0     C12347   5.030   7.854   2.616  0.8525  0.1422 -0.1726
  833MOL0     C12348   4.939   7.846   2.729  0.4522  0.2137 -0.2455
  833MOL0     C12349   4.971   7.760   2.850 -0.2285 -0.3546  1.0811
  833MOL0     O12350   5.063   7.650   2.829  0.2001 -0.0404 -0.2730
  833MOL0     C12351   5.147   7.594   2.923  0.7970  0.1452 -0.9154
  833MOL0     C12352   5.165   7.640   3.057 -0.4116 -0.9724 -0.4010
  833MOL0     C12353   5.266   7.582   3.133  1.4834 -0.9744 -0.1277
  833MOL0     C12354   5.344   7.479   3.072 -0.0454 -0.0207 -0.5999
  833MOL0     O12355   5.446   7.432   3.159  0.5616  0.0273 -0.6382
  833MOL0     C12356   5.524   7.324   3.105 -0.1624 -0.2724 -0.2537
  833MOL0     C12357   5.648   7.293   3.192  0.8905  0.5906  0.5751
  833MOL0     C12358   5.748   7.197   3.119 -0.8967  0.4375 -0.5411
  833MOL0     C12359   5.693   7.073   3.043 -0.1837  0.0372  1.0137
  833MOL0     C12360   5.604   6.982   3.126 -0.5280 -0.2907 -0.2180
  833MOL0     C12361   5.670   6.918   3.245 -0.0634  0.6363 -0.2085
  833MOL0     C12362   5.556   6.847   3.313 -0.6400  1.0683  0.0592
  833MOL0     C12363   5.595   6.703   3.365 -0.2196 -1.0320  0.6988
  833MOL0    Cl12364   5.586   6.585   3.235  0.0010  0.0917  0.3301
  833MOL0     C12365   5.323   7.438   2.937 -0.1897 -0.5692  0.5292
  833MOL0     C12366   5.225   7.498   2.866  0.2956  0.7213 -0.8125
  833MOL0     O12367   4.912   7.789   2.955  0.3198 -0.5799  0.2817
  833MOL0     C12368   4.816   7.924   2.721  1.0706  0.4324  0.0795
  833MOL0     C12369   4.786   7.998   2.605 -0.4476  0.1943 -0.0049
  833MOL0     N12370   5.010   8.542   2.119  0.6125 -0.3734 -0.1272
  833MOL0     N12371   5.110   8.620   2.108 -0.2728  0.2091  0.3103
  833MOL0     C12372   5.665   9.521   1.719 -0.3461  0.1306  0.3062
  833MOL0     C12373   5.707   9.638   1.653  0.6037 -0.2215  0.0369
  833MOL0     C12374   5.860  10.043   1.517  1.3177 -0.0597 -0.1807
  833MOL0     C12375   5.843  10.140   1.608  0.6177 -0.8475  0.4382
  833MOL0     C12376   5.900  10.266   1.594  0.2211 -0.3048 -0.6192
  833MOL0     C12377   5.979  10.293   1.492 -0.9297  0.4385  0.2771
  833MOL0     O12378   6.042  10.414   1.481  0.1991  0.1594 -0.3937
  833MOL0     C12379   6.150  10.437   1.384 -0.2663 -0.9133 -0.1887
  833MOL0     C12380   6.085  10.463   1.250 -0.9715 -0.6621 -0.6246
  833MOL0     C12381   6.147  10.571   1.160  0.3266  0.5720  0.3510
  833MOL0     C12382   6.097  10.706   1.176 -0.3821 -0.9108 -0.1925
  833MOL0     C12383   6.151  10.801   1.083 -0.3944  0.0980  0.9879
  833MOL0     C12384   6.186  10.883   0.997  0.3683 -0.1087  0.1856
  833MOL0     C12385   5.995  10.187   1.394  0.0134 -0.2796 -0.2836
  833MOL0     C12386   5.941  10.062   1.408 -0.1489 -0.3971  0.3743
  833MOL0     C12387   5.993   9.947   1.318 -0.1349 -1.2538  0.3259
  833MOL0     H12388   5.664   9.850   1.921  4.4263 -0.5644  0.2295
  833MOL0     H12389   5.574   9.644   2.015 -2.3005 -2.8803 -1.4100
  833MOL0     H12390   5.644   9.470   2.107 -0.1363 -0.7837  1.4740
  833MOL0     H12391   5.469   9.413   2.055 -0.8866  0.2130  1.1111
  833MOL0     H12392   5.596   9.269   2.221  3.5215  1.6722  1.6059
  833MOL0     H12393   5.724   9.260   2.097 -0.9976 -1.7336 -1.1825
  833MOL0     H12394   5.568   9.140   1.945  0.9229  3.0179 -0.6435
  833MOL0     H12395   5.441   9.137   2.065 -0.3471 -5.1814 -0.1162
  833MOL0     H12396   5.696   8.987   2.046 -0.4088 -1.3032  0.4423
  833MOL0     H12397   5.643   9.002   2.207 -2.8163 -1.2700  1.3552
  833MOL0     H12398   5.419   8.942   2.141 -1.3665  2.5262 -3.8617
  833MOL0     H12399   5.461   8.881   1.987 -1.5350 -1.0225  1.8995
  833MOL0     H12400   5.597   8.709   2.078  0.1858  2.0094 -0.5626
  833MOL0     H12401   5.575   8.786   2.246 -2.7328 -0.9191  2.1907
  833MOL0     H12402   5.319   8.742   2.199 -0.9700 -0.8878  1.8764
  833MOL0     H12403   5.422   8.611   2.266 -1.1340 -1.2430  0.0007
  833MOL0     H12404   5.366   8.640   1.970 -0.8143 -1.0484 -1.4241
  833MOL0     H12405   5.421   8.497   2.062 -3.8777 -1.6564 -1.0279
  833MOL0     H12406   5.259   8.322   2.074 -0.7697 -0.5077  1.1896
  833MOL0     H12407   4.942   8.269   2.008 -0.8403 -2.5270  1.3390
  833MOL0     H12408   5.007   8.216   2.172  2.2249  1.9356  1.2118
  833MOL0     H12409   4.859   8.376   2.294  0.7057 -1.5656  0.3261
  833MOL0     H12410   4.790   8.411   2.137 -1.2742 -0.8288  0.1080
  833MOL0     H12411   4.741   8.154   2.139 -1.5851 -1.5178  0.4152
  833MOL0     H12412   4.636   8.281   2.210  1.7292  2.9433 -2.1037
  833MOL0     H12413   4.633   8.091   2.377  0.2093  1.4639  1.3687
  833MOL0     H12414   4.726   8.220   2.433  1.3766  1.7622 -1.7000
  833MOL0     H12415   5.038   7.900   2.395 -4.3124 -0.1134 -2.0431
  833MOL0     H12416   5.132   7.818   2.618  0.6657 -0.4173 -0.4942
  833MOL0     H12417   5.104   7.713   3.108  3.5798  1.1169  1.9064
  833MOL0     H12418   5.280   7.628   3.230  1.2631  0.8009 -0.9083
  833MOL0     H12419   5.470   7.230   3.087 -2.2073  1.3276 -3.3515
  833MOL0     H12420   5.565   7.355   3.009  0.9784  1.9545  0.8934
  833MOL0     H12421   5.689   7.387   3.230 -0.1233  0.1321  3.0173
  833MOL0     H12422   5.612   7.239   3.280 -1.2159  1.1990  0.1544
  833MOL0     H12423   5.799   7.263   3.049  0.1003  2.4316  1.9202
  833MOL0     H12424   5.828   7.165   3.186 -0.0278  0.8884 -1.3448
  833MOL0     H12425   5.771   7.013   2.994  1.2322  2.2570  0.4113
  833MOL0     H12426   5.638   7.106   2.954  1.7113  0.5750 -0.0122
  833MOL0     H12427   5.569   6.908   3.053 -0.5044 -1.3037  0.7716
  833MOL0     H12428   5.511   7.030   3.158 -0.6719  0.0587 -1.1162
  833MOL0     H12429   5.747   6.846   3.217  0.0553  0.1831  1.1840
  833MOL0     H12430   5.707   6.998   3.310 -1.2475  1.4641 -0.5136
  833MOL0     H12431   5.466   6.843   3.251 -1.7462  4.1325  1.2531
  833MOL0     H12432   5.527   6.902   3.403  0.1717 -1.3058  1.8562
  833MOL0     H12433   5.697   6.709   3.404 -0.1037  0.7188  0.2068
  833MOL0     H12434   5.529   6.675   3.447  1.1424  0.8178  2.5077
  833MOL0     H12435   5.387   7.366   2.888  0.5410 -0.4928  1.3393
  833MOL0     H12436   5.218   7.485   2.758 -1.4567 -1.4816 -0.5051
  833MOL0     H12437   4.754   7.939   2.809 -3.8137 -1.2716 -2.6934
  833MOL0     H12438   4.706   8.071   2.604  2.3259  3.4932  0.8687
  833MOL0     H12439   5.650   9.421   1.680 -1.0635  0.3237  0.0608
  833MOL0     H12440   5.725   9.637   1.546  1.7862 -0.6362  0.2282
  833MOL0     H12441   5.775  10.118   1.690 -1.7675  1.6605 -0.6837
  833MOL0     H12442   5.880  10.351   1.660  1.7056 -0.4262  0.0107
  833MOL0     H12443   6.224  10.358   1.369  1.8359  0.5699  1.7732
  833MOL0     H12444   6.208  10.524   1.415  1.6390 -1.5608 -1.7517
  833MOL0     H12445   5.979  10.484   1.266 -0.5012  0.9032  0.7374
  833MOL0     H12446   6.092  10.368   1.197 -0.3917 -0.8611 -0.1992
  833MOL0     H12447   6.111  10.544   1.060 -3.9565  0.1829  1.8271
  833MOL0     H12448   6.255  10.551   1.167  0.5933  0.7866 -2.2079
  833MOL0     H12449   5.988  10.703   1.180 -0.4094  0.1763  0.1161
  833MOL0     H12450   6.150  10.731   1.269 -0.4691  2.0716 -0.8623
  833MOL0     H12451   6.214  10.948   0.917  3.2234  3.0120  3.3986
  833MOL0     H12452   6.081  10.200   1.328  1.0364 -0.3607  1.0025
  833MOL0     H12453   5.913   9.902   1.257 -0.9854 -0.1168  0.5743
  833MOL0     H12454   6.060   9.995   1.246 -3.3394  1.7022 -0.9851
  833MOL0     H12455   6.037   9.867   1.378 -3.0714 -3.1229  0.1823
  834MOL0     O12456   6.695   2.343  10.654 -0.8461  0.5328 -0.1113
  834MOL0     C12457   6.704   2.237  10.600  0.0988  0.7344  0.8368
  834MOL0     O12458   6.710   2.112  10.658 -0.6536 -0.3143  0.6724
  834MOL0     C12459   6.716   2.091  10.793  0.3875  1.1353  0.3409
  834MOL0     C12460   6.749   1.958  10.839 -0.3379  0.7167 -0.3018
  834MOL0     C12461   6.755   1.917  10.969 -0.6631 -0.5483 -1.1256
  834MOL0     C12462   6.716   2.004  11.076  0.4733 -0.1257 -0.1830
  834MOL0     O12463   6.707   1.957  11.206  0.0511  0.6782 -0.4601
  834MOL0     C12464   6.623   2.017  11.307 -0.4982 -0.2978 -0.1959
  834MOL0     C12465   6.650   1.940  11.433 -0.5676 -0.0345  0.2325
  834MOL0     C12466   6.785   1.953  11.502 -0.8268  0.3267 -0.9415
  834MOL0     C12467   6.809   2.090  11.575  0.9422  0.8473  0.2326
  834MOL0     C12468   6.958   2.098  11.609 -0.1452 -0.6321 -0.6592
  834MOL0     C12469   6.999   2.002  11.725  0.2362 -0.5806  0.7673
  834MOL0     C12470   6.916   2.011  11.855  0.3867  0.5114  1.1673
  834MOL0     C12471   6.980   1.945  11.966 -0.9797  0.1522 -0.2200
  834MOL0     N12472   7.076   2.030  12.035 -0.2892  0.2407  0.0159
  834MOL0     C12473   7.084   2.041  12.172  0.0621 -0.1106 -0.6540
  834MOL0     C12474   7.181   2.136  12.186 -0.8318  1.3013 -0.0402
  834MOL0     C12475   7.231   2.173  12.323 -0.4187  0.6409  0.0329
  834MOL0     C12476   7.203   2.324  12.334  0.4879 -0.9070 -0.6284
  834MOL0     C12477   7.051   2.370  12.335 -0.4221 -0.4289  0.1011
  834MOL0     C12478   6.965   2.324  12.456 -0.6786  0.3674  0.2484
  834MOL0     O12479   6.937   2.177  12.440  0.5194 -0.0501  0.1032
  834MOL0     C12480   6.900   2.106  12.554  0.5115 -0.3971 -0.2838
  834MOL0     C12481   6.938   1.972  12.573  1.2893  0.7553 -0.0367
  834MOL0     C12482   6.908   1.908  12.694 -0.1118  0.2621  0.3412
  834MOL0     C12483   6.822   1.969  12.788 -0.0724 -0.3521 -0.3362
  834MOL0     C12484   6.792   1.903  12.912 -0.4607 -0.5582 -0.3960
  834MOL0     O12485   6.815   1.769  12.923 -1.1065  1.0619 -0.5697
  834MOL0     C12486   6.791   1.701  13.043  0.3568 -0.4042 -0.6192
  834MOL0     C12487   6.889   1.615  13.097 -0.1540  0.0930  0.5649
  834MOL0     C12488   6.872   1.553  13.215  0.7877  0.7946  0.6129
  834MOL0     C12489   6.758   1.572  13.290  0.1199  0.3647 -0.4246
  834MOL0     O12490   6.759   1.526  13.422 -0.3277  0.1150  0.2538
  834MOL0     C12491   6.678   1.410  13.446 -0.3956 -0.1260  0.0245
  834MOL0     C12492   6.735   1.288  13.392  0.2112  0.3656 -0.0860
  834MOL0     C12493   6.696   1.152  13.446 -1.0451  0.0524  0.5845
  834MOL0     C12494   6.746   1.037  13.359  1.1303 -0.3713 -0.3593
  834MOL0     C12495   6.717   0.907  13.420 -0.1532 -0.4347 -0.3969
  834MOL0     C12496   6.764   0.783  13.341 -0.1252 -0.2576  0.4284
  834MOL0     C12497   6.693   0.666  13.410  0.3660 -0.0283 -0.2123
  834MOL0     C12498   6.764   0.621  13.534  0.1536  0.0304 -0.1349
  834MOL0    Cl12499   6.938   0.632  13.515  0.0323 -0.1546 -0.2870
  834MOL0     C12500   6.654   1.635  13.232 -0.5896 -0.3160  0.0970
  834MOL0     C12501   6.665   1.701  13.109  0.1077  0.2094 -1.6214
  834MOL0     O12502   6.726   1.967  12.994  0.6744 -0.6958 -0.7457
  834MOL0     C12503   6.766   2.090  12.765 -0.2648 -0.2134  0.6541
  834MOL0     C12504   6.807   2.169  12.647  0.5379 -0.0773 -0.2047
  834MOL0     N12505   7.228   2.176  12.067 -0.1508 -0.4165  0.0717
  834MOL0     N12506   7.166   2.111  11.977 -0.3995 -0.3897  0.7203
  834MOL0     C12507   6.679   2.134  11.039 -0.6144  0.0411 -0.7287
  834MOL0     C12508   6.696   2.178  10.903 -1.0783  0.2771  0.0821
  834MOL0     C12509   6.691   2.243  10.448 -0.0862 -0.1535  0.6692
  834MOL0     C12510   6.642   2.127  10.390 -0.5284 -0.3938  0.3196
  834MOL0     C12511   6.620   2.124  10.254  0.5948 -0.1517  0.2497
  834MOL0     C12512   6.659   2.230  10.170 -0.7281 -0.5479  0.0137
  834MOL0     O12513   6.631   2.212  10.032  0.0559 -0.7641  0.3595
  834MOL0     C12514   6.677   2.315   9.952 -0.5652 -0.5765  0.5525
  834MOL0     C12515   6.620   2.296   9.808 -0.6809  1.5639  0.6674
  834MOL0     C12516   6.483   2.346   9.788 -0.1668  0.0702 -0.2462
  834MOL0     C12517   6.422   2.330   9.647 -0.0715  0.1544 -0.1950
  834MOL0     C12518   6.514   2.365   9.534  0.6687  0.2483  0.2183
  834MOL0     C12519   6.585   2.382   9.437  0.0614 -0.2153  1.2670
  834MOL0     C12520   6.712   2.344  10.230 -0.2992 -0.0946  0.1034
  834MOL0     C12521   6.725   2.358  10.372 -0.3509  0.0747  0.1213
  834MOL0     C12522   6.754   2.495  10.423  0.1700 -0.1271 -0.6374
  834MOL0     H12523   6.762   1.894  10.753 -1.0816  1.7248 -1.1934
  834MOL0     H12524   6.777   1.815  10.999 -0.8882 -0.5572 -0.9895
  834MOL0     H12525   6.649   2.122  11.322  1.4820 -1.1428  3.5761
  834MOL0     H12526   6.522   1.992  11.275 -0.4382 -0.9576  0.1218
  834MOL0     H12527   6.628   1.837  11.405 -3.1079  1.1697 -2.7752
  834MOL0     H12528   6.579   1.983  11.504  0.0671  0.3872  0.6208
  834MOL0     H12529   6.862   1.931  11.427 -0.8098 -2.0507 -0.3168
  834MOL0     H12530   6.797   1.881  11.583  2.0509  3.3087  1.5673
  834MOL0     H12531   6.790   2.186  11.525  2.1756  1.9727  1.8131
  834MOL0     H12532   6.750   2.099  11.666  1.4422 -1.8109  0.8809
  834MOL0     H12533   7.016   2.076  11.519  0.9332  1.0324 -0.4057
  834MOL0     H12534   6.983   2.200  11.639  1.9137 -0.4992 -2.6135
  834MOL0     H12535   7.035   1.909  11.680  2.3130  0.9380 -0.9009
  834MOL0     H12536   7.096   2.045  11.750  0.6036 -0.9137 -0.0303
  834MOL0     H12537   6.813   1.977  11.839 -1.0141  5.3359 -2.3693
  834MOL0     H12538   6.908   2.116  11.882 -1.6068  0.3320  1.4290
  834MOL0     H12539   6.902   1.939  12.043 -0.5321  0.4343  0.2563
  834MOL0     H12540   7.023   1.849  11.935  0.5257  0.2136  1.5228
  834MOL0     H12541   7.035   1.981  12.248 -0.4040 -0.7813 -1.4646
  834MOL0     H12542   7.178   2.132  12.410 -1.6330  4.4949  1.3317
  834MOL0     H12543   7.339   2.156  12.329 -0.6073 -0.9980 -0.6906
  834MOL0     H12544   7.238   2.345  12.436 -0.1218  1.8631 -0.9250
  834MOL0     H12545   7.269   2.388  12.275  1.4964  0.3381  1.7132
  834MOL0     H12546   7.005   2.327  12.246  1.3203 -0.1918 -0.9575
  834MOL0     H12547   7.043   2.479  12.331  1.1888 -0.0145  3.7789
  834MOL0     H12548   6.877   2.388  12.469  0.7948  2.6168 -0.1660
  834MOL0     H12549   7.026   2.353  12.542  0.5209  0.6738 -0.6850
  834MOL0     H12550   7.000   1.919  12.501 -0.9358 -3.4276  0.7875
  834MOL0     H12551   6.950   1.812  12.720  0.2824  0.2629 -0.2982
  834MOL0     H12552   6.980   1.599  13.040 -0.9465  2.8769 -1.7016
  834MOL0     H12553   6.946   1.493  13.267  1.2885  0.5324 -0.3609
  834MOL0     H12554   6.673   1.385  13.553  4.9458  1.2611  0.8944
  834MOL0     H12555   6.576   1.422  13.409 -0.3275 -0.6534 -0.3294
  834MOL0     H12556   6.724   1.287  13.283 -2.9889  0.7179  0.1567
  834MOL0     H12557   6.843   1.288  13.413  0.0371  0.3772  0.8451
  834MOL0     H12558   6.725   1.149  13.552  1.9488  1.2859 -0.0920
  834MOL0     H12559   6.587   1.150  13.447 -1.0387 -0.5814  0.5302
  834MOL0     H12560   6.855   1.034  13.373  0.8338 -1.6166  2.4490
  834MOL0     H12561   6.721   1.047  13.254  0.8655  1.2063 -0.1624
  834MOL0     H12562   6.611   0.881  13.426 -0.2387 -1.3371 -3.7887
  834MOL0     H12563   6.776   0.904  13.512 -1.0730 -0.1077  0.2119
  834MOL0     H12564   6.709   0.795  13.247 -2.7037  0.6615  1.9620
  834MOL0     H12565   6.870   0.771  13.317 -0.0380  0.9940  0.1416
  834MOL0     H12566   6.706   0.582  13.342  0.6343 -0.2950  0.1600
  834MOL0     H12567   6.587   0.674  13.439  0.9672 -1.2165  2.6817
  834MOL0     H12568   6.731   0.678  13.622 -1.1613  1.8826 -1.7450
  834MOL0     H12569   6.736   0.516  13.547 -0.8820  0.4169  0.9489
  834MOL0     H12570   6.570   1.650  13.300 -0.4951 -0.9438  0.3603
  834MOL0     H12571   6.575   1.751  13.075  0.3615  2.1850  0.3930
  834MOL0     H12572   6.693   2.130  12.835 -2.0950 -3.9311  1.1534
  834MOL0     H12573   6.778   2.273  12.637  6.4228  2.0212  0.4885
  834MOL0     H12574   6.650   2.205  11.116 -1.8235 -2.3919  1.2279
  834MOL0     H12575   6.699   2.284  10.881  0.9339 -0.0611 -1.5058
  834MOL0     H12576   6.625   2.037  10.448  2.1623  0.5692  2.8432
  834MOL0     H12577   6.583   2.035  10.205  2.5440 -1.7406  1.4744
  834MOL0     H12578   6.787   2.314   9.947 -0.3678  0.3634  3.0407
  834MOL0     H12579   6.646   2.416   9.983 -1.8184 -1.1007  1.0806
  834MOL0     H12580   6.621   2.189   9.788  2.3028  0.6884  4.3023
  834MOL0     H12581   6.693   2.340   9.740 -0.4365  4.4883  2.6331
  834MOL0     H12582   6.467   2.449   9.820 -1.7506 -0.2470  0.0250
  834MOL0     H12583   6.432   2.276   9.854  0.5995 -0.1486  0.1281
  834MOL0     H12584   6.387   2.229   9.628 -0.4259  0.2330  0.0295
  834MOL0     H12585   6.333   2.394   9.641  0.4959  0.8713 -1.2920
  834MOL0     H12586   6.666   2.385   9.367  0.4294  0.8496  1.7328
  834MOL0     H12587   6.748   2.418  10.159  0.4692 -2.7989 -2.4902
  834MOL0     H12588   6.763   2.566  10.340 -0.0037  1.3895  0.5956
  834MOL0     H12589   6.667   2.525  10.482  1.1943  0.6225  0.5229
  834MOL0     H12590   6.838   2.504  10.492  1.8410  0.8787 -2.6919
  835MOL0     O12591   9.551   5.433   7.446 -0.2650  0.3482 -0.9673
  835MOL0     C12592   9.665   5.439   7.485 -0.2782 -0.8029  0.2620
  835MOL0     O12593   9.720   5.545   7.543 -0.9698  0.4458 -0.5115
  835MOL0     C12594   9.643   5.652   7.581  0.1932 -0.6752  1.4699
  835MOL0     C12595   9.602   5.759   7.493 -0.6054  0.8530  0.1455
  835MOL0     C12596   9.516   5.856   7.532 -0.8146  0.0302  0.0800
  835MOL0     C12597   9.461   5.846   7.662  0.9288  0.8668 -0.0093
  835MOL0     O12598   9.354   5.919   7.707 -0.4380  0.2032  0.6890
  835MOL0     C12599   9.359   6.061   7.668 -0.7275 -0.4432 -0.3318
  835MOL0     C12600   9.264   6.158   7.750 -0.0745  0.5869 -0.0514
  835MOL0     C12601   9.273   6.139   7.903 -0.1058 -0.2723  0.8929
  835MOL0     C12602   9.361   6.243   7.959 -0.8042 -0.5679  0.2749
  835MOL0     C12603   9.400   6.203   8.107 -1.0534 -0.3181  0.7803
  835MOL0     C12604   9.390   6.324   8.207  0.2148  0.2570 -0.3606
  835MOL0     C12605   9.481   6.441   8.180  0.1695 -0.0194  0.5586
  835MOL0     C12606   9.628   6.411   8.147 -0.7072 -0.1792  0.5373
  835MOL0     N12607   9.694   6.334   8.250 -0.0663  0.1427 -0.2128
  835MOL0     C12608   9.731   6.203   8.252 -0.4716  0.5804  0.1911
  835MOL0     C12609   9.820   6.188   8.358  0.5654 -1.0016 -0.2671
  835MOL0     C12610   9.883   6.061   8.400  0.0599  0.1984 -0.0196
  835MOL0     C12611   9.775   5.948   8.412  0.6777  0.2304  0.4174
  835MOL0     C12612   9.820   5.821   8.491  0.0987  0.2908 -0.1079
  835MOL0     C12613   9.739   5.705   8.443  0.3462  0.0214  0.4636
  835MOL0     O12614   9.787   5.604   8.530  0.6513 -0.0714 -1.6828
  835MOL0     C12615   9.769   5.471   8.488  0.3553 -0.2902 -0.0907
  835MOL0     C12616   9.657   5.433   8.417 -0.0143  0.9977 -0.5179
  835MOL0     C12617   9.645   5.296   8.380 -0.0600 -0.4738 -0.7314
  835MOL0     C12618   9.737   5.196   8.412 -1.4563 -0.1526  0.6589
  835MOL0     C12619   9.712   5.056   8.374 -0.1794  0.9294 -0.4961
  835MOL0     O12620   9.811   4.962   8.397  0.0281  0.5675 -0.4297
  835MOL0     C12621   9.803   4.840   8.336 -0.0474 -0.4945  0.5638
  835MOL0     C12622   9.837   4.827   8.196 -0.0334  0.1496  0.0529
  835MOL0     C12623   9.831   4.702   8.120 -0.6261 -0.2279 -1.3553
  835MOL0     C12624   9.801   4.590   8.197 -0.4094 -0.1991  0.5967
  835MOL0     O12625   9.780   4.480   8.122 -0.7199 -0.5908  0.2852
  835MOL0     C12626   9.695   4.376   8.176  0.2094 -0.0309  0.5622
  835MOL0     C12627   9.594   4.329   8.062 -0.5673  0.4857  0.0594
  835MOL0     C12628   9.657   4.246   7.958  0.0601  1.1030  0.8250
  835MOL0     C12629   9.567   4.184   7.844  0.3027  0.1074 -1.1030
  835MOL0     C12630   9.633   4.136   7.709 -0.0265 -0.7637  0.0083
  835MOL0     C12631   9.697   3.995   7.716 -0.0550  0.1499  0.1796
  835MOL0     C12632   9.732   3.950   7.572 -0.5656  0.2234 -0.0032
  835MOL0     C12633   9.833   3.846   7.572  0.3776 -0.5712 -0.7154
  835MOL0    Cl12634   9.772   3.703   7.651  0.1938  0.3233  0.1271
  835MOL0     C12635   9.775   4.602   8.334  0.1536  0.8646  0.4470
  835MOL0     C12636   9.774   4.725   8.401  0.5935 -0.3110 -0.2367
  835MOL0     O12637   9.601   5.037   8.313 -0.7500 -0.1461  0.1536
  835MOL0     C12638   9.856   5.241   8.482 -0.4907  0.0803 -0.2934
  835MOL0     C12639   9.866   5.377   8.517  0.1924  0.0019 -0.2403
  835MOL0     N12640   9.834   6.310   8.421 -0.8177 -0.1792 -0.4034
  835MOL0     N12641   9.750   6.385   8.362 -1.2687 -0.2469 -0.6101
  835MOL0     C12642   9.492   5.740   7.738 -0.7793  0.2122  0.2440
  835MOL0     C12643   9.590   5.648   7.702 -0.4530 -0.5826 -0.9008
  835MOL0     C12644   9.754   5.329   7.456  0.8024 -0.3573 -0.4565
  835MOL0     C12645   9.707   5.227   7.372 -0.0468  1.3712  0.5315
  835MOL0     C12646   9.770   5.103   7.350 -0.2115 -0.6697  0.5126
  835MOL0     C12647   9.888   5.079   7.419  0.2302 -0.7994 -0.3671
  835MOL0     O12648   9.963   4.961   7.405  0.5152  0.5008  0.4180
  835MOL0     C12649   9.885   4.843   7.424 -0.7744  0.5430  0.0073
  835MOL0     C12650   9.938   4.707   7.368 -0.5410 -0.6037  0.1357
  835MOL0     C12651   9.834   4.590   7.373 -0.1276 -0.5592 -0.2933
  835MOL0     C12652   9.717   4.600   7.273  0.0890 -0.0125  0.1257
  835MOL0     C12653   9.655   4.475   7.263 -0.5498 -0.2824  0.0348
  835MOL0     C12654   9.616   4.365   7.236 -0.6722  0.8839 -0.3317
  835MOL0     C12655   9.937   5.178   7.509  0.3742  0.7161  0.2143
  835MOL0     C12656   9.885   5.310   7.514  0.5766  0.8298  0.1130
  835MOL0     C12657   9.957   5.406   7.598 -0.2473  0.3012 -0.1509
  835MOL0     H12658   9.639   5.754   7.391 -1.4962  2.4680 -0.2917
  835MOL0     H12659   9.496   5.942   7.469 -0.6898  1.7766  2.2648
  835MOL0     H12660   9.464   6.071   7.696 -1.4991 -0.0527  2.7424
  835MOL0     H12661   9.336   6.062   7.561 -2.3353 -0.9565 -0.0174
  835MOL0     H12662   9.158   6.154   7.726 -0.9489  4.8864  2.1248
  835MOL0     H12663   9.275   6.263   7.723  2.8878  0.1078 -1.0695
  835MOL0     H12664   9.300   6.037   7.930  1.0460  0.8295  4.4829
  835MOL0     H12665   9.178   6.162   7.951 -0.3146  2.2304 -0.5210
  835MOL0     H12666   9.454   6.248   7.901 -2.0915 -3.3491 -2.2979
  835MOL0     H12667   9.315   6.342   7.953  0.3661 -0.0196 -0.0594
  835MOL0     H12668   9.325   6.137   8.150  1.1127 -2.9878  0.6831
  835MOL0     H12669   9.500   6.160   8.097 -0.8444  0.1051  1.0218
  835MOL0     H12670   9.288   6.363   8.209  0.2382  0.5174 -2.2496
  835MOL0     H12671   9.407   6.282   8.306 -7.7409  0.1513  1.6361
  835MOL0     H12672   9.486   6.500   8.272 -1.6061  0.3023  0.4889
  835MOL0     H12673   9.424   6.504   8.111 -1.0632  1.2989  2.6644
  835MOL0     H12674   9.650   6.354   8.056  1.7296 -0.7230  1.3899
  835MOL0     H12675   9.686   6.502   8.130  1.2838 -1.2986  1.0606
  835MOL0     H12676   9.708   6.122   8.183  0.5211  0.3436  0.1176
  835MOL0     H12677   9.953   6.031   8.322 -1.4664 -1.9751 -0.6576
  835MOL0     H12678   9.934   6.065   8.496  1.2659 -0.8237 -0.6000
  835MOL0     H12679   9.682   5.984   8.458 -0.4792 -1.8178 -0.1557
  835MOL0     H12680   9.743   5.922   8.311  1.1061 -1.4147  0.6829
  835MOL0     H12681   9.810   5.826   8.600  4.3511 -1.7513  0.5537
  835MOL0     H12682   9.922   5.795   8.464  0.3483  0.8921  0.2453
  835MOL0     H12683   9.757   5.690   8.336  0.0329 -3.1774  0.7651
  835MOL0     H12684   9.631   5.718   8.449 -0.3094 -3.4950 -1.0007
  835MOL0     H12685   9.576   5.500   8.389  0.4158  1.2863 -1.0907
  835MOL0     H12686   9.554   5.268   8.328  0.8736  0.1107 -2.8124
  835MOL0     H12687   9.851   4.924   8.151 -3.6396  1.5349  1.5335
  835MOL0     H12688   9.840   4.686   8.013 -3.7581  1.1755 -1.9357
  835MOL0     H12689   9.742   4.289   8.224  1.0958 -0.3669 -0.8648
  835MOL0     H12690   9.640   4.418   8.261 -1.1075  1.2998 -0.8754
  835MOL0     H12691   9.513   4.273   8.110  0.5400  2.5763  4.8955
  835MOL0     H12692   9.548   4.413   8.010 -1.2053 -0.2633 -0.6263
  835MOL0     H12693   9.722   4.318   7.909 -1.8563  2.3012 -0.0675
  835MOL0     H12694   9.712   4.158   7.994  0.4133 -0.0828 -2.2955
  835MOL0     H12695   9.483   4.252   7.830 -1.0912 -0.5108  2.8129
  835MOL0     H12696   9.519   4.100   7.896  0.1821  1.8923  1.8716
  835MOL0     H12697   9.693   4.216   7.665 -3.0901  0.5545 -2.1293
  835MOL0     H12698   9.545   4.129   7.644  1.8489 -1.0900 -2.6458
  835MOL0     H12699   9.794   4.000   7.767  0.4187 -0.3729 -0.6325
  835MOL0     H12700   9.630   3.923   7.762 -0.0325  0.1729  0.2498
  835MOL0     H12701   9.781   4.031   7.516 -1.1055 -1.1868 -2.7017
  835MOL0     H12702   9.640   3.933   7.516  1.6753 -0.6995 -3.7842
  835MOL0     H12703   9.861   3.814   7.472 -0.6888 -0.9727 -0.8979
  835MOL0     H12704   9.920   3.888   7.623  1.7592 -1.5276 -2.2026
  835MOL0     H12705   9.748   4.511   8.386 -1.1671 -0.3515 -2.1712
  835MOL0     H12706   9.750   4.722   8.507 -1.8576 -1.9952 -0.7388
  835MOL0     H12707   9.938   5.182   8.520 -0.7589  0.0467  0.2382
  835MOL0     H12708   9.947   5.425   8.571  0.5651 -0.2813 -0.5480
  835MOL0     H12709   9.437   5.730   7.831 -2.9844  3.5887 -0.5528
  835MOL0     H12710   9.596   5.572   7.780 -3.0183 -0.2661 -0.3148
  835MOL0     H12711   9.605   5.239   7.336 -0.6723 -1.5912  1.0591
  835MOL0     H12712   9.731   5.029   7.281 -1.8627  1.9687 -1.5534
  835MOL0     H12713   9.790   4.853   7.370 -0.2310 -0.6990 -1.2287
  835MOL0     H12714   9.873   4.835   7.533  0.3040  2.9688  0.3720
  835MOL0     H12715  10.018   4.675   7.436 -0.6908  2.1857  1.7789
  835MOL0     H12716   9.986   4.722   7.271  1.8183  1.8256  1.5125
  835MOL0     H12717   9.799   4.583   7.476 -1.5352  0.8880 -0.6352
  835MOL0     H12718   9.883   4.493   7.358  0.4178 -0.4055  0.4652
  835MOL0     H12719   9.643   4.675   7.304  0.2266  0.4524 -0.6394
  835MOL0     H12720   9.756   4.629   7.175 -2.5762 -5.1042 -2.8375
  835MOL0     H12721   9.581   4.266   7.215  0.3220  0.6499 -0.9273
  835MOL0     H12722  10.020   5.151   7.574 -2.0696  2.2993  4.4061
  835MOL0     H12723  10.044   5.355   7.640 -0.6711 -1.3256 -1.1549
  835MOL0     H12724   9.983   5.493   7.535  3.5970 -0.7891 -0.3463
  835MOL0     H12725   9.895   5.430   7.685  1.3615 -4.6161  2.7453
  836MOL0     O12726   0.195  10.975   2.311 -0.0262 -0.1371  0.0207
  836MOL0     C12727   0.172  10.888   2.229  0.9217  0.1327 -0.3964
  836MOL0     O12728   0.046  10.872   2.162 -0.0354 -0.8048 -0.2442
  836MOL0     C12729  -0.050  10.963   2.187 -0.0301  0.5408  0.3469
  836MOL0     C12730  -0.174  10.921   2.244  0.1341  1.1315 -0.0849
  836MOL0     C12731  -0.274  11.015   2.271 -0.6717  0.3776 -0.1479
  836MOL0     C12732  -0.256  11.146   2.227 -0.9966 -0.2599  0.0256
  836MOL0     O12733  -0.349  11.240   2.239 -0.2942 -0.5484 -0.4610
  836MOL0     C12734  -0.435  11.241   2.126 -0.7693 -0.4114  0.3516
  836MOL0     C12735  -0.487  11.392   2.097 -0.6137  0.7583 -0.3004
  836MOL0     C12736  -0.383  11.476   2.014 -0.0114  0.1947 -0.8964
  836MOL0     C12737  -0.418  11.628   2.008  0.9459 -0.4103  0.5174
  836MOL0     C12738  -0.307  11.716   1.943 -0.8782  0.5835  1.0026
  836MOL0     C12739  -0.275  11.675   1.817 -0.6919  0.6394 -0.0515
  836MOL0     C12740  -0.168  11.769   1.751 -0.1802  0.4158  0.4824
  836MOL0     C12741  -0.121  11.726   1.605 -0.8002 -0.2732 -0.4556
  836MOL0     N12742  -0.229  11.738   1.502 -0.8772 -0.1592  0.2773
  836MOL0     C12743  -0.310  11.640   1.452 -0.8366  0.4033  1.1995
  836MOL0     C12744  -0.378  11.690   1.340 -0.3815  0.5029  0.0731
  836MOL0     C12745  -0.491  11.627   1.253 -0.1532  0.4936 -0.4351
  836MOL0     C12746  -0.444  11.597   1.113  0.8630 -0.6390  0.0630
  836MOL0     C12747  -0.380  11.467   1.092  0.1181  0.7595 -0.0750
  836MOL0     C12748  -0.315  11.452   0.952 -0.3688  0.3338 -0.3503
  836MOL0     O12749  -0.390  11.481   0.835  0.6795  0.1707  0.5867
  836MOL0     C12750  -0.385  11.390   0.734  0.3643  0.6569  0.4962
  836MOL0     C12751  -0.501  11.335   0.680 -0.2286  0.5485 -1.3088
  836MOL0     C12752  -0.490  11.252   0.568  0.3917  0.8960  0.2066
  836MOL0     C12753  -0.370  11.218   0.506 -0.3841  0.3521  0.1745
  836MOL0     C12754  -0.366  11.127   0.388  0.3883  0.5886  0.0054
  836MOL0     O12755  -0.484  11.054   0.377 -0.5745  0.5621  1.0857
  836MOL0     C12756  -0.470  10.934   0.317 -0.3644  0.9769 -0.0886
  836MOL0     C12757  -0.553  10.901   0.216  0.2534 -0.2734  1.1370
  836MOL0     C12758  -0.551  10.777   0.135  0.2484 -1.6152 -1.2556
  836MOL0     C12759  -0.449  10.686   0.182  0.7923 -0.5845  0.2258
  836MOL0     O12760  -0.435  10.561   0.114 -0.0399 -0.5693 -0.4725
  836MOL0     C12761  -0.401  10.571  -0.019 -1.1974 -0.5737  0.5634
  836MOL0     C12762  -0.357  10.439  -0.080  0.0373  0.3448  0.4420
  836MOL0     C12763  -0.327  10.466  -0.232 -0.1677 -0.1575  0.5154
  836MOL0     C12764  -0.454  10.472  -0.317  0.0622  1.3476 -1.2582
  836MOL0     C12765  -0.520  10.332  -0.328  0.0262 -0.2040 -0.1642
  836MOL0     C12766  -0.655  10.339  -0.410 -0.3511 -0.4825  0.2425
  836MOL0     C12767  -0.728  10.202  -0.425 -0.3980  0.3538  0.1033
  836MOL0     C12768  -0.837  10.212  -0.533  0.6609 -1.0457  0.2913
  836MOL0    Cl12769  -0.941  10.062  -0.539  0.6555 -0.0612  0.1042
  836MOL0     C12770  -0.366  10.719   0.287 -0.1644 -0.4784 -1.1504
  836MOL0     C12771  -0.379  10.838   0.357  0.2896 -0.4536  0.5024
  836MOL0     O12772  -0.262  11.112   0.319 -0.0575  0.4073  0.3592
  836MOL0     C12773  -0.259  11.270   0.563  0.9210 -0.3706 -0.2712
  836MOL0     C12774  -0.260  11.352   0.678 -0.2484 -0.2423  0.9939
  836MOL0     N12775  -0.334  11.819   1.319  0.3289  1.0694  0.0203
  836MOL0     N12776  -0.245  11.836   1.413  0.1144 -1.0678 -0.1117
  836MOL0     C12777  -0.139  11.180   2.166 -0.0679  0.5222 -0.5903
  836MOL0     C12778  -0.028  11.098   2.161 -0.7054  0.5620 -0.2336
  836MOL0     C12779   0.284  10.793   2.198 -0.4226 -0.6039 -0.0240
  836MOL0     C12780   0.393  10.785   2.288 -0.3189  0.1936 -0.5485
  836MOL0     C12781   0.482  10.674   2.278  0.5087 -0.3531  0.1746
  836MOL0     C12782   0.492  10.598   2.164  0.2887 -0.3495 -0.8156
  836MOL0     O12783   0.588  10.503   2.164 -0.3092 -0.2219 -0.2891
  836MOL0     C12784   0.641  10.478   2.031 -0.4124  0.5151 -0.4932
  836MOL0     C12785   0.584  10.332   1.987  0.9969  0.0119  0.0781
  836MOL0     C12786   0.616  10.292   1.837  0.7926  0.3914 -0.1478
  836MOL0     C12787   0.553  10.388   1.731  0.3087 -0.0272  0.2740
  836MOL0     C12788   0.408  10.371   1.750 -0.3210  0.3612  0.2495
  836MOL0     C12789   0.289  10.368   1.747  0.1787  0.5275 -1.5789
  836MOL0     C12790   0.393  10.620   2.065 -0.6636  0.1086 -0.0075
  836MOL0     C12791   0.297  10.719   2.075 -0.2295  1.1249 -0.2323
  836MOL0     C12792   0.214  10.731   1.950  0.7282 -0.0286 -0.0596
  836MOL0     H12793  -0.200  10.820   2.273 -1.3499  1.7970  1.0340
  836MOL0     H12794  -0.352  10.980   2.338  0.7612  0.3799  1.6019
  836MOL0     H12795  -0.386  11.193   2.040 -3.0015 -5.3088  1.4733
  836MOL0     H12796  -0.520  11.176   2.150 -0.9167  0.3033  1.8982
  836MOL0     H12797  -0.509  11.428   2.198  0.1397 -2.9586  1.3438
  836MOL0     H12798  -0.580  11.397   2.039 -1.3895  2.4176  0.9988
  836MOL0     H12799  -0.391  11.437   1.912 -0.0024 -2.2608 -0.0137
  836MOL0     H12800  -0.280  11.460   2.045  0.0646  4.3391  1.6590
  836MOL0     H12801  -0.516  11.648   1.964  1.4620  0.0301 -0.4823
  836MOL0     H12802  -0.416  11.662   2.112  2.5644  0.2388  0.3169
  836MOL0     H12803  -0.334  11.821   1.930 -0.8166  0.2152 -3.7681
  836MOL0     H12804  -0.219  11.709   2.008 -1.3068  1.5824  1.7048
  836MOL0     H12805  -0.250  11.569   1.812 -1.0779  0.3167  2.9572
  836MOL0     H12806  -0.367  11.682   1.758 -1.7391 -1.3319  1.2528
  836MOL0     H12807  -0.079  11.752   1.813 -0.9455 -1.5627  1.1030
  836MOL0     H12808  -0.193  11.875   1.740 -3.0286 -0.4409 -4.3041
  836MOL0     H12809  -0.040  11.796   1.579 -1.5254  0.0310 -1.9941
  836MOL0     H12810  -0.060  11.635   1.599  0.9934  0.9453 -1.8981
  836MOL0     H12811  -0.315  11.536   1.482  0.9405 -0.3235 -0.8428
  836MOL0     H12812  -0.520  11.534   1.304  4.3745  0.4198  2.6255
  836MOL0     H12813  -0.573  11.699   1.260  2.4757  3.5671  1.2611
  836MOL0     H12814  -0.530  11.599   1.045 -0.0096  1.0578  1.1598
  836MOL0     H12815  -0.374  11.679   1.097 -0.2444  0.6488  1.5781
  836MOL0     H12816  -0.454  11.390   1.111  1.1349  0.2747  2.3620
  836MOL0     H12817  -0.305  11.446   1.169 -1.6041 -0.3776  1.3644
  836MOL0     H12818  -0.290  11.346   0.940 -1.9407  0.1668 -3.0243
  836MOL0     H12819  -0.217  11.500   0.949  0.0250 -0.4857 -1.7143
  836MOL0     H12820  -0.587  11.372   0.735  2.7252  2.5670  2.4536
  836MOL0     H12821  -0.585  11.219   0.527  0.5450  2.2185 -1.3149
  836MOL0     H12822  -0.625  10.979   0.192 -1.5555 -2.3121 -0.5122
  836MOL0     H12823  -0.629  10.755   0.063 -1.5410 -0.0693  0.1014
  836MOL0     H12824  -0.487  10.605  -0.079 -0.6682  1.0468  0.6645
  836MOL0     H12825  -0.331  10.652  -0.040 -1.8238 -0.2152 -0.2189
  836MOL0     H12826  -0.257  10.421  -0.038  2.4293  6.1840 -1.6350
  836MOL0     H12827  -0.426  10.357  -0.056  0.7214 -0.9606 -1.7450
  836MOL0     H12828  -0.276  10.561  -0.246 -4.2151  1.9223 -2.0833
  836MOL0     H12829  -0.261  10.383  -0.259  0.4558  0.2225  0.8352
  836MOL0     H12830  -0.422  10.505  -0.416  1.5587 -2.2832 -2.1696
  836MOL0     H12831  -0.527  10.543  -0.279 -5.1819 -1.8481 -4.1836
  836MOL0     H12832  -0.558  10.285  -0.237 -0.7609 -3.8830 -2.1632
  836MOL0     H12833  -0.451  10.260  -0.374 -0.6472  0.7908 -2.9555
  836MOL0     H12834  -0.726  10.411  -0.369 -0.4551  0.4118 -1.4154
  836MOL0     H12835  -0.637  10.379  -0.510  0.1755  3.0744  1.6227
  836MOL0     H12836  -0.770  10.153  -0.336 -1.3439 -0.0158 -0.5226
  836MOL0     H12837  -0.646  10.134  -0.450  0.1253 -0.0587  2.6336
  836MOL0     H12838  -0.900  10.293  -0.496  2.4699 -0.9637  3.6014
  836MOL0     H12839  -0.772  10.229  -0.619  4.0288  0.7675  2.9164
  836MOL0     H12840  -0.287  10.657   0.328 -0.9569  0.2904  1.8278
  836MOL0     H12841  -0.307  10.856   0.436  2.4314  4.1621 -2.0474
  836MOL0     H12842  -0.168  11.226   0.524 -0.5440 -1.3823 -2.7709
  836MOL0     H12843  -0.169  11.397   0.717  1.4746  0.8712 -3.6584
  836MOL0     H12844  -0.112  11.281   2.136  1.7376  0.0419 -0.6855
  836MOL0     H12845   0.068  11.141   2.135 -1.0058  1.7903  0.5963
  836MOL0     H12846   0.399  10.848   2.376 -1.3350  2.0368 -1.7185
  836MOL0     H12847   0.558  10.661   2.354 -1.2957 -0.3505  2.0852
  836MOL0     H12848   0.749  10.467   2.018  0.0947  4.5346 -1.0668
  836MOL0     H12849   0.613  10.549   1.953 -3.5808  0.0473  0.0862
  836MOL0     H12850   0.480  10.324   2.020  0.6624 -2.5336 -1.3314
  836MOL0     H12851   0.634  10.256   2.047  1.3732 -3.9124 -4.5806
  836MOL0     H12852   0.587  10.188   1.821  2.8225 -0.3076  0.3867
  836MOL0     H12853   0.725  10.298   1.831  0.7520  3.3578  0.2325
  836MOL0     H12854   0.593  10.488   1.753  0.9697 -0.6502  2.0963
  836MOL0     H12855   0.581  10.359   1.629 -1.5497 -1.8492  0.2278
  836MOL0     H12856   0.185  10.382   1.766  0.1348 -1.2558 -0.2733
  836MOL0     H12857   0.396  10.568   1.970  0.7413  1.4225 -0.7300
  836MOL0     H12858   0.267  10.685   1.866  1.3690  1.9124 -0.7711
  836MOL0     H12859   0.124  10.671   1.967 -0.4615  2.1322  1.9286
  836MOL0     H12860   0.184  10.831   1.918  0.2760  0.0486  0.5882
  837MOL0     O12861   6.537   7.929   3.142 -0.5513  0.0980 -0.2326
  837MOL0     C12862   6.621   7.906   3.060  0.0051  0.3312  1.0839
  837MOL0     O12863   6.752   7.900   3.086 -0.5103  0.2929 -0.5486
  837MOL0     C12864   6.806   7.975   3.186  0.5554 -0.7136 -0.0698
  837MOL0     C12865   6.775   8.105   3.215  0.8363  0.2223 -0.3607
  837MOL0     C12866   6.826   8.190   3.309  0.6822  0.1283 -0.3957
  837MOL0     C12867   6.939   8.144   3.376 -0.0992 -0.4178  0.3333
  837MOL0     O12868   7.008   8.227   3.467 -0.9888  0.8618  0.4780
  837MOL0     C12869   7.024   8.172   3.596 -0.1627 -0.8007  0.0389
  837MOL0     C12870   6.915   8.228   3.685 -0.1803  0.3358 -0.9872
  837MOL0     C12871   6.938   8.186   3.833 -0.6674 -0.0531 -1.1944
  837MOL0     C12872   6.808   8.201   3.910  0.0552 -0.4561  0.1703
  837MOL0     C12873   6.765   8.342   3.950 -1.7061 -0.4941  0.1984
  837MOL0     C12874   6.670   8.418   3.856 -0.2109 -0.1278 -0.3010
  837MOL0     C12875   6.700   8.567   3.872  0.7540  0.3991 -0.2335
  837MOL0     C12876   6.600   8.634   3.773  0.1444 -0.8562 -0.1940
  837MOL0     N12877   6.582   8.776   3.791  0.5886  0.1897  0.5921
  837MOL0     C12878   6.680   8.874   3.777  0.2691  0.7281 -0.3626
  837MOL0     C12879   6.638   8.991   3.835 -0.0084 -0.1802  0.0879
  837MOL0     C12880   6.710   9.121   3.840 -1.3712 -0.6437 -0.5740
  837MOL0     C12881   6.758   9.175   3.694  0.1679  1.1081 -0.1970
  837MOL0     C12882   6.648   9.141   3.594  0.0714  0.3954  0.0406
  837MOL0     C12883   6.666   9.230   3.464 -0.0780  0.1065 -0.0461
  837MOL0     O12884   6.807   9.248   3.441 -0.1527 -0.6285  0.0373
  837MOL0     C12885   6.871   9.142   3.371  0.3130  0.7488  1.1693
  837MOL0     C12886   7.015   9.154   3.354  1.0594  0.2454  0.6968
  837MOL0     C12887   7.096   9.055   3.296  1.2272 -0.4969  0.5612
  837MOL0     C12888   7.031   8.946   3.237 -0.0456 -0.5098 -0.3416
  837MOL0     C12889   7.119   8.860   3.158 -0.0152  0.2878 -0.5471
  837MOL0     O12890   7.250   8.887   3.152 -0.1093 -0.0806  0.4222
  837MOL0     C12891   7.321   8.810   3.059 -0.3331 -0.2316  0.4500
  837MOL0     C12892   7.297   8.794   2.921 -0.5464 -0.1317 -0.1946
  837MOL0     C12893   7.391   8.724   2.837  0.2995 -0.5835 -0.1446
  837MOL0     C12894   7.507   8.682   2.894 -0.1874  0.1404  0.2562
  837MOL0     O12895   7.598   8.613   2.819 -0.5249  0.0272  0.8433
  837MOL0     C12896   7.547   8.540   2.710  0.1820  0.6171  0.3137
  837MOL0     C12897   7.658   8.478   2.627 -0.2633 -0.0708 -0.7920
  837MOL0     C12898   7.718   8.349   2.680  0.1931 -0.6441 -0.3446
  837MOL0     C12899   7.859   8.306   2.619 -0.2875  0.4772  0.4864
  837MOL0     C12900   7.923   8.196   2.708 -0.3900  0.0829  0.3204
  837MOL0     C12901   7.935   8.234   2.854  0.6726  0.6265 -0.0739
  837MOL0     C12902   7.984   8.378   2.870  0.0195 -0.4926  0.2505
  837MOL0     C12903   8.058   8.399   2.991 -0.7848  0.8158  0.1106
  837MOL0    Cl12904   7.961   8.337   3.132 -0.5469 -0.0414 -0.4392
  837MOL0     C12905   7.539   8.701   3.026 -0.2336 -0.3712 -0.1954
  837MOL0     C12906   7.450   8.771   3.108 -1.1588  0.5204  0.6019
  837MOL0     O12907   7.066   8.768   3.102 -0.1061  0.5117 -0.0607
  837MOL0     C12908   6.890   8.947   3.236 -0.1217  0.9141 -1.1966
  837MOL0     C12909   6.810   9.038   3.301 -0.3928  0.2466 -0.7005
  837MOL0     N12910   6.508   8.967   3.875  0.2453  0.3080 -0.2417
  837MOL0     N12911   6.478   8.841   3.860  0.0377  0.7718  0.0166
  837MOL0     C12912   6.993   8.018   3.342 -0.2181 -1.0327  0.5775
  837MOL0     C12913   6.923   7.931   3.259  0.1541  0.2775  0.0183
  837MOL0     C12914   6.571   7.893   2.916 -0.8078  0.1234  0.7118
  837MOL0     C12915   6.663   7.943   2.817 -0.9169  0.2575  0.0791
  837MOL0     C12916   6.628   7.918   2.677  0.6075  0.4354  0.0387
  837MOL0     C12917   6.498   7.867   2.637  0.1048  0.2961  0.7354
  837MOL0     O12918   6.458   7.835   2.510  0.1778  0.2242 -0.6770
  837MOL0     C12919   6.497   7.928   2.410 -0.0439  0.0238  0.1682
  837MOL0     C12920   6.398   7.900   2.290 -0.6279  1.3533 -0.2599
  837MOL0     C12921   6.380   7.759   2.225 -0.4328  0.7249  0.1794
  837MOL0     C12922   6.303   7.746   2.087 -0.3332  0.0856  0.1799
  837MOL0     C12923   6.363   7.835   1.990  0.5277  0.2607  0.1309
  837MOL0     C12924   6.424   7.912   1.918  0.9756  0.1829  0.4722
  837MOL0     C12925   6.418   7.822   2.738 -0.2421  0.0029 -0.2243
  837MOL0     C12926   6.444   7.836   2.875  0.3674  0.4346  0.0358
  837MOL0     C12927   6.347   7.768   2.973  0.1737 -0.2773  0.2569
  837MOL0     H12928   6.696   8.158   3.162 -2.2037 -1.6058  2.0432
  837MOL0     H12929   6.798   8.294   3.320  1.7011  0.4107 -0.3232
  837MOL0     H12930   7.029   8.063   3.590 -2.5879 -0.8827 -2.6351
  837MOL0     H12931   7.119   8.208   3.638 -0.3264  0.9346 -0.9785
  837MOL0     H12932   6.817   8.186   3.663 -1.0001  1.6042  0.1195
  837MOL0     H12933   6.920   8.334   3.659  1.6203  0.1930 -1.4024
  837MOL0     H12934   7.009   8.250   3.886 -1.6796 -0.6775  0.9953
  837MOL0     H12935   6.978   8.084   3.832  1.0099  0.5721 -1.3603
  837MOL0     H12936   6.726   8.146   3.863  1.6764 -1.9293 -1.0900
  837MOL0     H12937   6.816   8.143   4.003  1.6138 -2.2062 -0.9724
  837MOL0     H12938   6.726   8.342   4.052 -0.0858  1.6765  0.9106
  837MOL0     H12939   6.854   8.406   3.954 -1.9122 -0.1675 -0.3437
  837MOL0     H12940   6.687   8.383   3.754  1.4014  1.1417 -0.5185
  837MOL0     H12941   6.568   8.389   3.881 -0.8045  1.5130 -0.6828
  837MOL0     H12942   6.801   8.604   3.852  0.2553  0.7065 -2.5533
  837MOL0     H12943   6.679   8.585   3.978  1.2402 -0.6465  0.0503
  837MOL0     H12944   6.613   8.623   3.665  0.2846  2.8168 -0.6662
  837MOL0     H12945   6.494   8.608   3.785 -0.2653 -0.3798 -2.3096
  837MOL0     H12946   6.776   8.850   3.735 -0.3877 -2.6941 -0.1339
  837MOL0     H12947   6.649   9.192   3.895  0.3724 -0.1300  0.8053
  837MOL0     H12948   6.797   9.110   3.905 -2.2834  1.3208  1.0825
  837MOL0     H12949   6.767   9.284   3.700 -2.1176  1.4099 -1.1757
  837MOL0     H12950   6.845   9.122   3.655 -0.6868  0.1814 -0.9078
  837MOL0     H12951   6.551   9.154   3.642 -0.1599  0.4583 -0.4428
  837MOL0     H12952   6.639   9.035   3.569  0.1266  0.4873 -0.3808
  837MOL0     H12953   6.616   9.327   3.462 -2.9736 -1.2904 -1.8519
  837MOL0     H12954   6.613   9.192   3.376 -2.0330 -1.0768  1.5728
  837MOL0     H12955   7.041   9.243   3.409  1.6217 -0.0202  0.8669
  837MOL0     H12956   7.203   9.069   3.300  1.3944 -1.8186  3.0297
  837MOL0     H12957   7.203   8.832   2.882 -0.6023  0.7609  0.7628
  837MOL0     H12958   7.352   8.693   2.741  2.8622 -3.6807 -0.3287
  837MOL0     H12959   7.473   8.464   2.733  0.6897 -0.9458 -2.6496
  837MOL0     H12960   7.501   8.605   2.635 -0.7724  2.1477  2.1331
  837MOL0     H12961   7.615   8.449   2.530  0.9079  2.2639 -2.1072
  837MOL0     H12962   7.733   8.557   2.619 -0.0644  0.2344  2.6807
  837MOL0     H12963   7.737   8.349   2.788  0.3306  2.0479 -0.3114
  837MOL0     H12964   7.656   8.262   2.657  1.2073 -1.6988  0.7230
  837MOL0     H12965   7.927   8.391   2.608  1.9748 -0.8629  2.9062
  837MOL0     H12966   7.836   8.268   2.519  1.2605 -3.0222  1.2976
  837MOL0     H12967   8.024   8.190   2.667  0.3473 -0.2639  2.1146
  837MOL0     H12968   7.877   8.097   2.698 -0.7602  0.1603  1.1966
  837MOL0     H12969   7.840   8.216   2.905  0.2536 -0.1751 -1.1165
  837MOL0     H12970   8.006   8.168   2.905 -0.2408 -1.1113 -0.9776
  837MOL0     H12971   7.905   8.452   2.857  0.4823  0.1775  1.1903
  837MOL0     H12972   8.050   8.398   2.785  0.5389 -0.2772  0.6986
  837MOL0     H12973   8.146   8.335   2.984 -1.9071 -0.5933 -1.8137
  837MOL0     H12974   8.087   8.505   2.997 -1.3436  0.9486  0.5517
  837MOL0     H12975   7.641   8.688   3.061  0.0180  2.9371  0.7155
  837MOL0     H12976   7.489   8.793   3.207 -0.9263  1.6516  0.2780
  837MOL0     H12977   6.841   8.871   3.176  0.2653  2.2626 -3.3486
  837MOL0     H12978   6.704   9.018   3.292 -0.3970  0.2866 -0.7430
  837MOL0     H12979   7.088   7.984   3.385  1.9118  3.0351 -0.4437
  837MOL0     H12980   6.964   7.838   3.220 -1.2700 -0.9110  1.2189
  837MOL0     H12981   6.760   7.989   2.828  0.3982 -1.2307 -3.4674
  837MOL0     H12982   6.704   7.949   2.606 -1.1006  2.9039 -0.8292
  837MOL0     H12983   6.600   7.901   2.386 -0.2617  0.0375 -0.8596
  837MOL0     H12984   6.490   8.034   2.438  0.6228  0.5441 -1.4904
  837MOL0     H12985   6.423   7.957   2.199 -0.2530  1.9800  0.2278
  837MOL0     H12986   6.301   7.943   2.317  0.0730  2.3831  0.7013
  837MOL0     H12987   6.326   7.691   2.291 -0.8040  0.6745 -0.1709
  837MOL0     H12988   6.479   7.715   2.206 -1.5029 -2.4086  1.2293
  837MOL0     H12989   6.320   7.643   2.055 -2.1541 -0.0466 -0.4625
  837MOL0     H12990   6.194   7.754   2.096 -1.0885 -1.5690 -4.4970
  837MOL0     H12991   6.475   7.985   1.858 -0.9122  0.2680 -1.1395
  837MOL0     H12992   6.334   7.768   2.695 -0.6688 -0.5468  1.2711
  837MOL0     H12993   6.250   7.743   2.931  0.8001  0.4216 -1.6969
  837MOL0     H12994   6.397   7.679   3.015  2.5807  0.6513 -0.4535
  837MOL0     H12995   6.320   7.843   3.048 -1.6009  3.5007 -3.7608
  838MOL0     O12996   7.906   8.821   3.093 -0.5597  0.6312 -0.3169
  838MOL0     C12997   7.924   8.921   3.160 -0.3668 -0.1987  1.1198
  838MOL0     O12998   8.023   9.008   3.145 -0.2520 -0.8353 -0.4735
  838MOL0     C12999   8.140   8.988   3.078 -0.3941  0.5476  0.1590
  838MOL0     C13000   8.214   9.094   3.024  0.5735 -0.0921  0.5664
  838MOL0     C13001   8.352   9.075   2.993  0.1251 -0.9985 -0.7604
  838MOL0     C13002   8.417   8.951   2.998  0.2616 -0.4995  0.0673
  838MOL0     O13003   8.547   8.926   2.971 -0.6772 -0.0074  0.6996
  838MOL0     C13004   8.612   8.993   2.853  0.2845  0.3603 -0.8683
  838MOL0     C13005   8.700   8.888   2.785  0.1143 -0.1301  0.5064
  838MOL0     C13006   8.830   8.962   2.726 -0.6170 -0.6796 -0.7425
  838MOL0     C13007   8.796   9.069   2.611  0.1885 -0.6078  1.1701
  838MOL0     C13008   8.927   9.145   2.583 -0.4269 -0.5694 -0.3672
  838MOL0     C13009   9.036   9.067   2.504 -0.4687  1.0963 -0.0485
  838MOL0     C13010   8.987   9.041   2.361 -0.6696  0.5116 -0.3632
  838MOL0     C13011   9.110   8.988   2.273  0.0500 -0.2911 -0.9735
  838MOL0     N13012   9.067   8.971   2.134  0.1551  0.1102  0.1012
  838MOL0     C13013   8.955   8.911   2.103 -0.8334  0.1945  0.4242
  838MOL0     C13014   8.949   8.910   1.970 -0.5085  0.5889  0.3895
  838MOL0     C13015   8.831   8.862   1.894  0.8207  0.1911  0.4515
  838MOL0     C13016   8.826   8.709   1.894  0.3264  0.1590  0.2157
  838MOL0     C13017   8.909   8.653   1.784  0.1395  0.2464 -0.2243
  838MOL0     C13018   8.894   8.503   1.805 -0.3407  0.1285  0.1404
  838MOL0     O13019   8.973   8.450   1.697  0.6266  0.2273 -0.4465
  838MOL0     C13020   8.939   8.325   1.655  0.5142  0.6554 -0.4529
  838MOL0     C13021   8.852   8.305   1.549  0.2674 -0.3191 -0.0774
  838MOL0     C13022   8.815   8.181   1.505  0.2366  0.7332 -0.2747
  838MOL0     C13023   8.866   8.069   1.574 -1.2827  0.4121 -0.1594
  838MOL0     C13024   8.817   7.934   1.534  0.2662  0.5268  0.5767
  838MOL0     O13025   8.892   7.832   1.587  0.1687  0.3116  0.6196
  838MOL0     C13026   8.852   7.700   1.572  1.1309  2.1898  0.2811
  838MOL0     C13027   8.722   7.659   1.545 -0.4730 -0.2036  0.4838
  838MOL0     C13028   8.690   7.529   1.551  0.6668  0.4247 -0.8025
  838MOL0     C13029   8.792   7.421   1.553 -0.6856 -1.2662 -0.1046
  838MOL0     O13030   8.749   7.291   1.555  0.8417  0.5924 -0.7004
  838MOL0     C13031   8.861   7.199   1.572  0.4223  1.0158 -0.0938
  838MOL0     C13032   8.817   7.050   1.547  0.0950  0.4745  0.2873
  838MOL0     C13033   8.795   7.003   1.398 -0.5318 -0.9301 -0.5639
  838MOL0     C13034   8.931   6.958   1.332 -1.0021  0.6743 -0.3644
  838MOL0     C13035   8.913   6.927   1.188  0.2279 -0.0906  0.3087
  838MOL0     C13036   9.040   6.876   1.115  0.6521  0.2946 -0.3353
  838MOL0     C13037   9.010   6.845   0.959 -0.5151 -0.1629 -0.1047
  838MOL0     C13038   9.065   6.709   0.903 -0.3512 -0.2399 -1.2359
  838MOL0    Cl13039   9.241   6.696   0.901  0.1582 -0.2261  0.4610
  838MOL0     C13040   8.924   7.467   1.569  0.3008  0.4708  0.7836
  838MOL0     C13041   8.953   7.596   1.579  0.2309 -0.4203  0.5445
  838MOL0     O13042   8.710   7.927   1.465 -0.1767  0.8288 -0.8386
  838MOL0     C13043   8.959   8.081   1.680 -0.8262 -0.4353  0.9526
  838MOL0     C13044   8.989   8.210   1.722 -0.1153 -0.9130  0.0680
  838MOL0     N13045   9.066   8.963   1.915  0.6177  0.2406  0.5684
  838MOL0     N13046   9.142   8.997   2.019  0.0222 -0.0250 -0.9813
  838MOL0     C13047   8.339   8.849   3.040  0.1764  0.2245 -0.5013
  838MOL0     C13048   8.204   8.865   3.072 -0.2801  1.0981  0.0737
  838MOL0     C13049   7.824   8.951   3.258 -0.2693  0.5770 -0.3762
  838MOL0     C13050   7.786   9.091   3.266 -0.7154 -0.0948  0.6949
  838MOL0     C13051   7.694   9.134   3.360 -0.5062 -0.7615 -0.2145
  838MOL0     C13052   7.634   9.038   3.441  0.7093  0.4101 -0.2144
  838MOL0     O13053   7.538   9.072   3.527  0.7141 -0.6304  0.3346
  838MOL0     C13054   7.446   8.965   3.570  0.6349 -0.5040 -0.1269
  838MOL0     C13055   7.307   9.017   3.622  0.3183  0.5900  0.2958
  838MOL0     C13056   7.208   8.899   3.647  0.3769 -1.1269 -0.5367
  838MOL0     C13057   7.080   8.949   3.718 -0.2787 -0.7119 -0.3147
  838MOL0     C13058   7.116   8.986   3.856  0.4326 -0.8720  0.3175
  838MOL0     C13059   7.147   9.018   3.970  0.8922  0.3859  0.2773
  838MOL0     C13060   7.674   8.903   3.432  0.1110  0.0088 -0.4015
  838MOL0     C13061   7.765   8.851   3.340  0.1846  0.8854 -0.1302
  838MOL0     C13062   7.801   8.702   3.331 -0.4439 -0.0456 -0.2371
  838MOL0     H13063   8.181   9.197   3.032  1.9451  0.3533  0.8030
  838MOL0     H13064   8.412   9.165   2.981 -2.6002  1.6444  3.1450
  838MOL0     H13065   8.550   9.044   2.779  1.1987  0.5991 -1.4853
  838MOL0     H13066   8.671   9.077   2.890 -0.6767  0.5983  0.1744
  838MOL0     H13067   8.647   8.843   2.701  3.2287  1.1885 -2.3943
  838MOL0     H13068   8.739   8.804   2.843  1.9226  1.2143  1.3354
  838MOL0     H13069   8.891   8.883   2.683  2.0924  1.4963 -1.1898
  838MOL0     H13070   8.899   9.001   2.801  1.1108 -2.4463 -1.3299
  838MOL0     H13071   8.764   9.022   2.518 -2.2494  1.8788  0.6101
  838MOL0     H13072   8.724   9.144   2.644 -1.1324 -1.5739  0.5280
  838MOL0     H13073   8.905   9.238   2.530 -0.6583  0.7317  1.8621
  838MOL0     H13074   8.981   9.180   2.672  2.6653 -0.7658 -2.0134
  838MOL0     H13075   9.130   9.123   2.507 -0.4907  1.1834 -0.8574
  838MOL0     H13076   9.072   8.973   2.548  0.4349  2.7646  3.1297
  838MOL0     H13077   8.956   9.130   2.306  3.1395  1.3707 -1.3814
  838MOL0     H13078   8.903   8.971   2.359  0.7278 -1.2335 -1.2218
  838MOL0     H13079   9.188   9.064   2.289  0.5781 -0.4041 -2.8288
  838MOL0     H13080   9.151   8.896   2.314 -0.0199 -0.5665 -1.5227
  838MOL0     H13081   8.883   8.865   2.171 -0.2610  0.0839  0.9670
  838MOL0     H13082   8.745   8.892   1.955  0.7252 -0.5370  0.6788
  838MOL0     H13083   8.821   8.908   1.795 -1.3029 -0.7773  0.1605
  838MOL0     H13084   8.876   8.679   1.987  1.2195  3.7640  1.0245
  838MOL0     H13085   8.723   8.673   1.887 -1.5340  4.1334  3.3501
  838MOL0     H13086   9.014   8.684   1.789  0.3852 -0.3549 -1.4409
  838MOL0     H13087   8.867   8.672   1.685 -3.7395 -1.1977  0.9516
  838MOL0     H13088   8.786   8.485   1.792 -1.5214  3.5144  3.4745
  838MOL0     H13089   8.925   8.469   1.904  2.7280  3.4512  0.5202
  838MOL0     H13090   8.805   8.384   1.491 -3.0883 -1.6668  0.6140
  838MOL0     H13091   8.738   8.163   1.431  1.2746 -3.0418 -0.6588
  838MOL0     H13092   8.640   7.727   1.525 -0.7757 -0.9124 -0.8193
  838MOL0     H13093   8.587   7.493   1.560  1.6260 -2.2102  0.7679
  838MOL0     H13094   8.932   7.226   1.493  0.0775 -1.5455 -1.3968
  838MOL0     H13095   8.909   7.217   1.669 -1.1493  0.9053  0.7293
  838MOL0     H13096   8.900   6.990   1.584  0.7658 -0.0235 -1.8604
  838MOL0     H13097   8.721   7.040   1.598 -1.5710 -0.8057 -2.8311
  838MOL0     H13098   8.737   6.910   1.397  2.2834 -2.7770 -1.1033
  838MOL0     H13099   8.737   7.077   1.341 -1.5137 -2.3348 -1.4380
  838MOL0     H13100   8.969   6.867   1.379 -2.5999  0.7200  1.1249
  838MOL0     H13101   9.007   7.035   1.347 -0.6792  0.0460  1.6118
  838MOL0     H13102   8.870   7.021   1.152 -0.2244  0.5235  2.2869
  838MOL0     H13103   8.837   6.848   1.183 -0.2656  0.2592  1.6894
  838MOL0     H13104   9.124   6.946   1.124  0.4427  0.5380 -0.2488
  838MOL0     H13105   9.067   6.787   1.172 -1.1189  0.3155  0.5945
  838MOL0     H13106   9.044   6.927   0.896 -0.7917 -1.5107 -2.0885
  838MOL0     H13107   8.900   6.846   0.952 -0.4768  2.6630 -1.6897
  838MOL0     H13108   9.025   6.628   0.964  1.3454 -0.5231 -0.4247
  838MOL0     H13109   9.028   6.705   0.800  2.3027  0.1279 -2.2811
  838MOL0     H13110   9.008   7.403   1.595  0.8894  0.7171 -0.4133
  838MOL0     H13111   9.057   7.616   1.604  1.2709 -0.9015 -2.8716
  838MOL0     H13112   9.008   8.003   1.736  1.6860 -1.7001 -2.6733
  838MOL0     H13113   9.059   8.228   1.803 -0.3123 -0.3659  0.1164
  838MOL0     H13114   8.368   8.745   3.051 -2.1537 -0.6517 -1.8563
  838MOL0     H13115   8.155   8.777   3.112  0.7344  0.0029 -1.0249
  838MOL0     H13116   7.835   9.172   3.213 -0.6465  1.1444  2.5604
  838MOL0     H13117   7.661   9.238   3.362 -2.1844 -1.2754  0.4180
  838MOL0     H13118   7.484   8.906   3.654 -2.0758 -0.7921  1.0112
  838MOL0     H13119   7.421   8.897   3.488 -1.8490 -0.0546  0.1787
  838MOL0     H13120   7.258   9.074   3.542 -1.0844 -2.4456 -1.1699
  838MOL0     H13121   7.314   9.084   3.708  1.6363 -1.4900  1.8775
  838MOL0     H13122   7.267   8.824   3.700  0.1137 -0.1541  1.2121
  838MOL0     H13123   7.170   8.862   3.552 -0.5814  1.1229 -1.1053
  838MOL0     H13124   7.035   9.038   3.672  0.3348  0.4149  1.1597
  838MOL0     H13125   7.009   8.868   3.735 -0.6135 -0.0706  1.6774
  838MOL0     H13126   7.174   9.038   4.072  2.0469 -4.0348  1.0325
  838MOL0     H13127   7.640   8.821   3.495 -4.8960 -0.6975 -3.4787
  838MOL0     H13128   7.766   8.644   3.418  0.2633 -2.3894 -1.4332
  838MOL0     H13129   7.758   8.652   3.244 -0.3998 -0.1054 -0.2249
  838MOL0     H13130   7.908   8.683   3.325 -1.0487 -3.8525 -1.7385
  839MOL0     O13131  10.177   4.330   4.135 -0.4222 -0.2448 -0.0695
  839MOL0     C13132  10.241   4.283   4.038 -0.6741  0.6344 -0.0253
  839MOL0     O13133  10.334   4.349   3.965  0.3143 -0.6516 -0.6393
  839MOL0     C13134  10.368   4.485   3.991  0.6075  0.1341 -0.5228
  839MOL0     C13135  10.262   4.591   4.008 -0.7715 -0.5336  1.0579
  839MOL0     C13136  10.294   4.722   4.018 -0.0473  0.4871 -0.7680
  839MOL0     C13137  10.429   4.753   4.014 -0.4186 -0.8315  1.0302
  839MOL0     O13138  10.455   4.890   4.016 -0.5513 -0.1963 -0.1548
  839MOL0     C13139  10.546   4.937   4.123 -0.1232 -0.4975  0.3754
  839MOL0     C13140  10.475   4.986   4.236 -0.6524 -0.4798 -0.4002
  839MOL0     C13141  10.382   5.103   4.207  0.3385 -0.6393 -1.4884
  839MOL0     C13142  10.401   5.211   4.318 -0.9471 -0.8661 -1.0068
  839MOL0     C13143  10.295   5.323   4.322 -1.4512  1.0753  0.1739
  839MOL0     C13144  10.304   5.405   4.198 -0.1419 -0.5932  0.3658
  839MOL0     C13145  10.433   5.498   4.187  0.7535 -0.1760  0.0356
  839MOL0     C13146  10.391   5.632   4.127  0.4446  0.0570  0.0287
  839MOL0     N13147  10.493   5.729   4.096  0.1201  0.5009  0.6300
  839MOL0     C13148  10.611   5.748   4.161 -0.9119 -0.4925  0.5027
  839MOL0     C13149  10.661   5.859   4.105  0.0872 -1.2017  0.1940
  839MOL0     C13150  10.777   5.944   4.153  0.2034  0.8919  0.6663
  839MOL0     C13151  10.886   5.929   4.048  0.2928 -0.7411  0.1158
  839MOL0     C13152  10.945   5.782   4.050 -0.1370 -0.1313  0.6123
  839MOL0     C13153  11.084   5.756   3.988 -0.2176  0.0419  0.1644
  839MOL0     O13154  11.176   5.838   4.047  0.0785 -0.0190 -0.2892
  839MOL0     C13155  11.300   5.827   3.992  0.8511 -0.1473  0.4262
  839MOL0     C13156  11.324   5.916   3.895 -0.5940  0.4519  0.0261
  839MOL0     C13157  11.449   5.918   3.831 -0.7284  0.3182  0.8047
  839MOL0     C13158  11.548   5.833   3.871 -0.9642 -0.0799 -0.4694
  839MOL0     C13159  11.685   5.815   3.815 -0.3729  0.2968 -0.9505
  839MOL0     O13160  11.712   5.913   3.722  0.1046 -0.7194 -0.7380
  839MOL0     C13161  11.840   5.926   3.678 -0.8462 -0.2524 -0.1462
  839MOL0     C13162  11.943   5.920   3.772  0.0864 -1.1871  0.2454
  839MOL0     C13163  12.074   5.951   3.721  0.2233 -1.5624  0.0565
  839MOL0     C13164  12.093   5.980   3.586 -0.2719 -0.1113  0.0858
  839MOL0     O13165  12.226   5.988   3.544  0.3856  0.7099  0.1351
  839MOL0     C13166  12.312   5.878   3.585  0.6621  0.2244 -0.5896
  839MOL0     C13167  12.412   5.872   3.475 -0.3105  0.0865 -0.2418
  839MOL0     C13168  12.546   5.781   3.512  0.0593 -0.3550 -0.0208
  839MOL0     C13169  12.521   5.626   3.512  0.3594  0.6862 -0.3751
  839MOL0     C13170  12.498   5.571   3.369  0.2146 -0.2396  0.1867
  839MOL0     C13171  12.633   5.551   3.295  0.3092  0.2133 -0.9201
  839MOL0     C13172  12.617   5.516   3.157 -0.1730 -0.2370 -0.0368
  839MOL0     C13173  12.740   5.473   3.077 -0.6875 -0.1320  0.2291
  839MOL0    Cl13174  12.793   5.307   3.110  0.0649 -0.5497  0.2126
  839MOL0     C13175  11.985   5.987   3.489 -0.2959 -0.1439 -0.1927
  839MOL0     C13176  11.865   5.946   3.548 -0.1827  0.1735 -0.4828
  839MOL0     O13177  11.762   5.717   3.847 -0.2259  0.1232 -0.2684
  839MOL0     C13178  11.518   5.749   3.976 -0.0363  0.4249 -0.4149
  839MOL0     C13179  11.396   5.739   4.036 -0.2218 -0.5229 -0.0016
  839MOL0     N13180  10.567   5.907   4.015 -0.3797  0.6225 -0.0905
  839MOL0     N13181  10.471   5.824   4.007  0.3429 -0.1396  1.1170
  839MOL0     C13182  10.530   4.656   4.001  0.1052  0.5201 -0.2143
  839MOL0     C13183  10.505   4.522   3.989 -0.1245  0.4676 -0.0849
  839MOL0     C13184  10.199   4.144   3.997  0.4556 -0.5778 -0.4833
  839MOL0     C13185  10.147   4.129   3.876  0.8543  1.0427 -0.3662
  839MOL0     C13186  10.130   4.006   3.819  0.3410  1.0759  0.3741
  839MOL0     C13187  10.163   3.891   3.899 -0.2680  0.2066  0.3727
  839MOL0     O13188  10.163   3.760   3.859  0.1096  0.3828  1.7305
  839MOL0     C13189  10.109   3.728   3.722 -0.1209  0.3337  0.1072
  839MOL0     C13190  10.211   3.727   3.609 -0.8427  0.0294 -0.4952
  839MOL0     C13191  10.327   3.633   3.630  0.3592 -0.7732 -0.6993
  839MOL0     C13192  10.454   3.694   3.573  0.1459 -0.1894 -0.2277
  839MOL0     C13193  10.561   3.589   3.579  0.6775  0.2240 -0.3393
  839MOL0     C13194  10.650   3.509   3.580 -1.5058  0.4909 -0.0313
  839MOL0     C13195  10.215   3.910   4.024 -0.4713  0.1751  0.3474
  839MOL0     C13196  10.235   4.037   4.072  0.0905  0.2214  0.8306
  839MOL0     C13197  10.301   4.054   4.210 -0.0719  0.1140  0.4479
  839MOL0     H13198  10.158   4.559   4.007 -1.7753  2.3049 -1.8766
  839MOL0     H13199  10.211   4.791   4.022 -0.2224  0.2154  3.0609
  839MOL0     H13200  10.595   4.847   4.162  1.7744 -0.2037 -1.1844
  839MOL0     H13201  10.617   5.009   4.080 -1.1540  0.4404  0.2069
  839MOL0     H13202  10.548   5.015   4.312  0.2938 -0.5315 -1.2773
  839MOL0     H13203  10.421   4.902   4.282 -0.0040  0.2849  1.8873
  839MOL0     H13204  10.278   5.072   4.205 -0.6523  2.0277  1.0676
  839MOL0     H13205  10.405   5.133   4.104  3.9291 -0.7130 -0.8572
  839MOL0     H13206  10.389   5.154   4.410  1.6811 -1.1558 -0.7597
  839MOL0     H13207  10.505   5.244   4.316  0.1776 -3.7699  1.4500
  839MOL0     H13208  10.193   5.286   4.339 -1.8025  1.6374 -0.6537
  839MOL0     H13209  10.312   5.390   4.407  1.3059 -2.5297  2.7775
  839MOL0     H13210  10.308   5.333   4.116  1.7203  0.3473 -0.4169
  839MOL0     H13211  10.210   5.461   4.194  1.0311  1.4416  0.1420
  839MOL0     H13212  10.505   5.442   4.128 -0.8450 -2.4818  0.1383
  839MOL0     H13213  10.462   5.509   4.292 -2.0139 -3.7300  1.3712
  839MOL0     H13214  10.354   5.601   4.029  1.7578 -0.1611 -0.4187
  839MOL0     H13215  10.313   5.674   4.191  0.7883  0.3072  0.2848
  839MOL0     H13216  10.654   5.696   4.247 -0.4724  1.0036  1.2333
  839MOL0     H13217  10.743   6.048   4.152  0.0421  0.8323 -0.5712
  839MOL0     H13218  10.800   5.912   4.256 -0.7948 -3.3525 -0.2315
  839MOL0     H13219  10.842   5.954   3.951  0.6499 -2.0959 -0.4201
  839MOL0     H13220  10.958   6.008   4.075 -0.4406  0.8608 -2.2564
  839MOL0     H13221  10.873   5.719   3.997  0.2822  1.0000 -1.4292
  839MOL0     H13222  10.954   5.734   4.148 -0.0902  0.0327  0.6901
  839MOL0     H13223  11.085   5.797   3.886 -0.1182  3.0768  1.2889
  839MOL0     H13224  11.120   5.653   3.987  0.5479  0.2832  1.0555
  839MOL0     H13225  11.253   5.981   3.843  1.2247  0.2816 -2.9122
  839MOL0     H13226  11.469   5.995   3.757  0.4252 -2.2100 -1.6682
  839MOL0     H13227  11.920   5.896   3.875 -1.9207  0.0634  0.1552
  839MOL0     H13228  12.162   5.953   3.783 -1.7721 -0.9103  3.0950
  839MOL0     H13229  12.365   5.893   3.679  2.3568 -2.7581 -0.9675
  839MOL0     H13230  12.255   5.785   3.587  1.4162 -0.2486  1.8623
  839MOL0     H13231  12.373   5.859   3.374  1.1263 -0.6940 -0.7368
  839MOL0     H13232  12.434   5.979   3.467 -2.0000  0.5024  0.2929
  839MOL0     H13233  12.622   5.798   3.435  2.0623  0.1773  1.9727
  839MOL0     H13234  12.589   5.797   3.612 -3.9620 -3.8654  2.6070
  839MOL0     H13235  12.429   5.617   3.571  1.2074  0.5230  0.9656
  839MOL0     H13236  12.599   5.562   3.554  1.1969  1.5757 -0.5445
  839MOL0     H13237  12.436   5.651   3.327  2.7481  2.0690  0.5527
  839MOL0     H13238  12.447   5.474   3.366  0.1519 -0.2477  1.1564
  839MOL0     H13239  12.687   5.645   3.308 -1.1706  0.9490  0.4202
  839MOL0     H13240  12.677   5.470   3.354 -2.5331 -0.6676  0.1903
  839MOL0     H13241  12.577   5.599   3.098 -0.3774 -1.2858 -1.4168
  839MOL0     H13242  12.549   5.432   3.138 -0.4466  0.2013 -1.0851
  839MOL0     H13243  12.720   5.481   2.970  2.0056 -2.1618 -0.5497
  839MOL0     H13244  12.820   5.545   3.095 -0.4079 -0.5802  0.8325
  839MOL0     H13245  12.004   6.004   3.384  0.3627  0.9792  0.0831
  839MOL0     H13246  11.781   5.935   3.479 -1.8808 -2.2088  1.7431
  839MOL0     H13247  11.582   5.683   4.033 -3.2022  0.0243  3.0638
  839MOL0     H13248  11.377   5.667   4.116  2.7226  1.4318  2.7328
  839MOL0     H13249  10.637   4.667   4.011  0.6303 -0.6507 -3.2944
  839MOL0     H13250  10.568   4.435   3.976 -1.1150 -0.6284  1.9101
  839MOL0     H13251  10.132   4.219   3.816 -0.8029  2.1528  1.6087
  839MOL0     H13252  10.083   3.989   3.723  0.0855 -0.4294  0.7397
  839MOL0     H13253  10.014   3.778   3.702 -0.4645 -0.0107  0.8431
  839MOL0     H13254  10.093   3.621   3.730  2.5068 -0.4915 -3.2630
  839MOL0     H13255  10.242   3.829   3.586 -1.6380 -0.1258 -2.5402
  839MOL0     H13256  10.169   3.695   3.513  2.5115  0.3667 -2.2104
  839MOL0     H13257  10.302   3.543   3.572  0.0687 -1.1296 -0.0349
  839MOL0     H13258  10.341   3.603   3.734  1.4291  1.5337 -0.1428
  839MOL0     H13259  10.440   3.738   3.474 -1.3696 -1.0265 -0.4165
  839MOL0     H13260  10.492   3.764   3.647  1.5449 -0.9423 -0.1890
  839MOL0     H13261  10.732   3.440   3.575  0.2894  2.4877  0.0730
  839MOL0     H13262  10.250   3.829   4.087  4.0568  1.3439 -0.3265
  839MOL0     H13263  10.247   4.135   4.259 -0.4337 -0.0972  0.4026
  839MOL0     H13264  10.285   3.975   4.283 -0.8386  2.1882  2.6441
  839MOL0     H13265  10.406   4.077   4.193 -0.1856 -0.3745 -1.0693
  840MOL0     O13266   2.827   1.416  10.854 -0.2304 -0.3244  0.0450
  840MOL0     C13267   2.925   1.406  10.932  0.0827 -0.2298  0.5494
  840MOL0     O13268   3.039   1.478  10.921 -0.1049 -0.1553  0.7398
  840MOL0     C13269   3.074   1.558  10.814  0.0709  0.1134  0.2903
  840MOL0     C13270   3.208   1.570  10.771 -0.7388 -0.3198 -0.4819
  840MOL0     C13271   3.235   1.630  10.657 -1.1504 -0.2758  0.0034
  840MOL0     C13272   3.135   1.693  10.573  0.4905 -0.4771 -0.0782
  840MOL0     O13273   3.165   1.748  10.445  1.1565 -0.7403 -0.5244
  840MOL0     C13274   3.289   1.731  10.387 -0.5437  0.1973  0.0263
  840MOL0     C13275   3.263   1.797  10.242 -1.0181  0.3464 -0.1470
  840MOL0     C13276   3.166   1.710  10.158 -0.2072  0.4879  0.2022
  840MOL0     C13277   3.016   1.766  10.158 -0.7609 -0.5574  0.0097
  840MOL0     C13278   2.917   1.646  10.173 -0.2527 -0.9756  0.5286
  840MOL0     C13279   2.900   1.600  10.319  0.5158 -0.2162 -0.1974
  840MOL0     C13280   2.780   1.504  10.329  0.4635 -0.1076  1.2537
  840MOL0     C13281   2.760   1.466  10.481  1.3278  0.2440 -0.5354
  840MOL0     N13282   2.619   1.443  10.524  0.0362 -0.5374 -0.3001
  840MOL0     C13283   2.550   1.519  10.609 -0.0344  0.7415  0.4439
  840MOL0     C13284   2.456   1.437  10.669  0.9045 -1.4205  0.5362
  840MOL0     C13285   2.363   1.465  10.781 -0.2375 -0.0789 -0.0271
  840MOL0     C13286   2.290   1.601  10.759 -0.2127 -0.3744  0.1037
  840MOL0     C13287   2.367   1.726  10.789  0.3846  0.1483 -0.1742
  840MOL0     C13288   2.270   1.842  10.809  0.7548 -0.6080  1.2133
  840MOL0     O13289   2.344   1.962  10.835 -0.3259  0.5862  0.1660
  840MOL0     C13290   2.375   2.006  10.958 -0.6797 -0.9681 -0.3070
  840MOL0     C13291   2.433   2.135  10.952  0.0055 -0.2518 -0.2497
  840MOL0     C13292   2.460   2.198  11.073 -0.1084  0.0672 -0.1431
  840MOL0     C13293   2.431   2.141  11.197  0.4881 -0.8121  1.2506
  840MOL0     C13294   2.492   2.195  11.318  0.8589 -0.5436  0.8897
  840MOL0     O13295   2.531   2.330  11.311 -0.0433  0.7406  0.5872
  840MOL0     C13296   2.582   2.382  11.426 -0.3022  0.0518 -0.1869
  840MOL0     C13297   2.528   2.502  11.477  0.1662  0.4585 -0.6094
  840MOL0     C13298   2.569   2.556  11.606  0.2620 -0.1361  0.6195
  840MOL0     C13299   2.683   2.502  11.672 -0.4152 -0.0519 -0.2690
  840MOL0     O13300   2.722   2.548  11.799  0.1167  0.1256 -0.3410
  840MOL0     C13301   2.841   2.637  11.785  1.1213  0.5458 -0.6633
  840MOL0     C13302   2.838   2.747  11.684  0.2463 -0.3704  0.2762
  840MOL0     C13303   2.947   2.850  11.692  0.2307  0.2338  0.7628
  840MOL0     C13304   2.919   2.974  11.604 -1.0782 -0.0255 -0.9105
  840MOL0     C13305   2.870   2.933  11.463  0.2462 -0.2446  0.6249
  840MOL0     C13306   2.863   3.063  11.381 -0.6018  0.1388  0.5406
  840MOL0     C13307   2.808   3.032  11.245 -0.2087  0.5159 -0.0693
  840MOL0     C13308   2.898   2.964  11.137  0.7828  0.4450 -0.4171
  840MOL0    Cl13309   2.797   2.966  10.995 -0.0574  0.1520  0.3899
  840MOL0     C13310   2.739   2.394  11.613  0.1715  1.3786 -0.3511
  840MOL0     C13311   2.695   2.335  11.493  1.4947  0.9308  0.2822
  840MOL0     O13312   2.502   2.115  11.413 -0.7602 -0.1993 -0.3680
  840MOL0     C13313   2.390   2.005  11.199  0.6658  1.3197 -0.1908
  840MOL0     C13314   2.348   1.947  11.084 -1.8203  1.1380  0.8270
  840MOL0     N13315   2.465   1.311  10.607 -0.0677  0.4497 -0.9663
  840MOL0     N13316   2.558   1.320  10.515  0.4352  0.2425 -0.5683
  840MOL0     C13317   3.003   1.704  10.629 -1.3780  0.0631  0.9063
  840MOL0     C13318   2.981   1.637  10.744  1.0427  0.3047 -0.0972
  840MOL0     C13319   2.920   1.321  11.051  0.7718 -0.9037 -1.4566
  840MOL0     C13320   3.027   1.318  11.136  0.0633 -0.7147  0.1459
  840MOL0     C13321   3.030   1.231  11.239  0.1387  0.1834  0.1358
  840MOL0     C13322   2.924   1.147  11.261  0.2329 -0.3994 -0.7200
  840MOL0     O13323   2.935   1.062  11.360 -0.6854  0.0397 -0.4297
  840MOL0     C13324   2.831   1.068  11.460 -0.8687  0.1985 -0.4030
  840MOL0     C13325   2.729   0.958  11.443 -0.1665 -0.0873 -0.2805
  840MOL0     C13326   2.773   0.819  11.480 -0.2030  0.1331  0.6241
  840MOL0     C13327   2.821   0.750  11.352 -0.4016  0.1235  0.0046
  840MOL0     C13328   2.727   0.697  11.252 -0.8177  0.5276  0.4344
  840MOL0     C13329   2.646   0.649  11.180  0.3637 -0.0216 -0.1808
  840MOL0     C13330   2.811   1.143  11.172 -0.1004  0.2249  1.2549
  840MOL0     C13331   2.802   1.238  11.072 -0.5898  0.0533  0.3210
  840MOL0     C13332   2.677   1.226  10.983 -0.0035 -0.2819  0.0820
  840MOL0     H13333   3.282   1.513  10.825  0.6538  1.1024 -0.8412
  840MOL0     H13334   3.335   1.618  10.616 -1.3749  2.0224 -1.4014
  840MOL0     H13335   3.368   1.776  10.447 -3.0933  2.8841  1.6225
  840MOL0     H13336   3.318   1.626  10.375 -2.1303 -0.6880  3.0045
  840MOL0     H13337   3.356   1.786  10.186 -1.1026 -0.9678 -0.0563
  840MOL0     H13338   3.248   1.905  10.238  0.6372  0.5764 -3.0104
  840MOL0     H13339   3.175   1.605  10.186  2.9280  0.2615 -1.2379
  840MOL0     H13340   3.200   1.714  10.054 -0.5695 -1.1276  0.0010
  840MOL0     H13341   2.997   1.833  10.243 -3.5273 -1.1870 -0.0011
  840MOL0     H13342   3.005   1.820  10.064  0.9790 -1.5371 -0.7904
  840MOL0     H13343   2.820   1.676  10.131  0.7758  2.7573  0.4908
  840MOL0     H13344   2.957   1.567  10.108  3.6960  1.0554  0.2130
  840MOL0     H13345   2.990   1.544  10.347  1.3067  1.2921  0.3952
  840MOL0     H13346   2.899   1.681  10.392  0.3279 -1.1032  0.7950
  840MOL0     H13347   2.792   1.410  10.275 -3.2038  0.4478 -0.8793
  840MOL0     H13348   2.689   1.543  10.282  0.0987 -1.8703  0.4201
  840MOL0     H13349   2.811   1.370  10.495 -2.0929 -1.6720 -0.1066
  840MOL0     H13350   2.795   1.548  10.545 -0.3443  0.1934  0.5081
  840MOL0     H13351   2.582   1.620  10.631  1.1851  0.0807  1.9393
  840MOL0     H13352   2.281   1.393  10.780 -1.6583  1.3522 -4.3538
  840MOL0     H13353   2.405   1.455  10.882 -1.8940  1.6401  0.8927
  840MOL0     H13354   2.242   1.623  10.664 -0.7657 -0.2429  0.4068
  840MOL0     H13355   2.203   1.610  10.824 -2.8861  3.0285 -3.5136
  840MOL0     H13356   2.426   1.752  10.701 -1.8803  1.9140 -1.2899
  840MOL0     H13357   2.418   1.712  10.885 -0.1294  0.3695  0.1380
  840MOL0     H13358   2.197   1.830  10.890  1.2401  1.0029  1.9121
  840MOL0     H13359   2.210   1.857  10.719  0.3623 -0.0430  1.5607
  840MOL0     H13360   2.439   2.185  10.856 -1.3257  1.6994  0.6393
  840MOL0     H13361   2.502   2.298  11.075 -3.1672  1.4643  1.5897
  840MOL0     H13362   2.442   2.543  11.426  1.1080  0.7112 -2.0747
  840MOL0     H13363   2.523   2.647  11.644 -0.6425  0.1231 -1.0096
  840MOL0     H13364   2.846   2.684  11.884  0.8899  0.5241 -0.6418
  840MOL0     H13365   2.927   2.570  11.773  1.7166  1.1584  0.0546
  840MOL0     H13366   2.850   2.704  11.584 -1.9678  2.4822 -1.3406
  840MOL0     H13367   2.743   2.797  11.701  0.0185 -1.4363  2.4960
  840MOL0     H13368   2.961   2.876  11.797 -2.1053  1.9421  0.7307
  840MOL0     H13369   3.038   2.811  11.645 -2.0320  1.3120 -5.5289
  840MOL0     H13370   3.009   3.035  11.604  1.0218 -2.8675  0.9255
  840MOL0     H13371   2.847   3.037  11.656  1.4275  2.4812 -0.3100
  840MOL0     H13372   2.771   2.886  11.472  0.3667 -1.6282 -3.4121
  840MOL0     H13373   2.940   2.869  11.409  0.2273  0.3520 -0.1144
  840MOL0     H13374   2.812   3.143  11.436  3.0329  2.3900  1.0235
  840MOL0     H13375   2.963   3.103  11.363 -1.4457  1.4167 -1.6817
  840MOL0     H13376   2.762   3.123  11.207  1.1329  0.2565 -2.4741
  840MOL0     H13377   2.732   2.954  11.255 -2.1961  2.3702 -0.1040
  840MOL0     H13378   2.975   3.038  11.117  0.1459  0.4899 -2.9275
  840MOL0     H13379   2.929   2.862  11.164  0.6577  0.3132 -0.7771
  840MOL0     H13380   2.821   2.339  11.660  0.4437 -0.0889 -2.4452
  840MOL0     H13381   2.747   2.250  11.450  2.3162  2.4636 -1.8501
  840MOL0     H13382   2.381   1.964  11.299  1.5685  1.7159  0.0635
  840MOL0     H13383   2.289   1.856  11.084 -1.4067  0.8525  1.6917
  840MOL0     H13384   2.927   1.753  10.568  0.0985 -0.1508 -1.2085
  840MOL0     H13385   2.881   1.651  10.786  0.4879  2.2994 -1.9231
  840MOL0     H13386   3.111   1.387  11.134  0.7659 -1.5544 -0.3974
  840MOL0     H13387   3.100   1.237  11.321  0.0034  1.9226  0.1534
  840MOL0     H13388   2.798   1.171  11.473  0.4012  0.4520  1.1621
  840MOL0     H13389   2.882   1.045  11.555  0.3703 -2.6193 -1.6129
  840MOL0     H13390   2.694   0.959  11.339 -0.9651 -1.1424 -0.0302
  840MOL0     H13391   2.642   0.979  11.506  0.7487 -0.5598  1.1992
  840MOL0     H13392   2.690   0.764  11.524 -0.0259 -0.6222  0.0358
  840MOL0     H13393   2.846   0.812  11.561  0.8726 -1.4781 -0.4212
  840MOL0     H13394   2.890   0.823  11.308 -0.5518  0.9422  1.0904
  840MOL0     H13395   2.876   0.662  11.387  2.1235  0.3984 -2.7950
  840MOL0     H13396   2.570   0.592  11.130 -0.8090  2.9176 -1.9834
  840MOL0     H13397   2.746   1.057  11.164  3.1836 -2.3278 -0.6831
  840MOL0     H13398   2.603   1.148  11.002 -3.1713  1.4260 -3.8252
  840MOL0     H13399   2.616   1.315  10.997 -1.4040 -0.2288 -4.6645
  840MOL0     H13400   2.698   1.223  10.875  0.7174  0.1949  0.2065
  841MOL0     O13401   7.592   3.161   0.564  0.0333  0.0545  0.6668
  841MOL0     C13402   7.600   3.051   0.617  0.1718  0.5928 -0.0074
  841MOL0     O13403   7.495   2.986   0.680 -0.2822 -0.3484 -0.2242
  841MOL0     C13404   7.380   3.050   0.715  0.5148  0.1259  0.8692
  841MOL0     C13405   7.260   2.981   0.693 -0.7507  0.9126 -0.4001
  841MOL0     C13406   7.142   3.029   0.747  0.7190 -0.1625 -0.2775
  841MOL0     C13407   7.135   3.144   0.826 -0.5165 -0.3875 -0.3103
  841MOL0     O13408   7.029   3.184   0.891  0.4284 -0.2872  0.0747
  841MOL0     C13409   6.989   3.317   0.867 -0.0529  0.5305 -0.3413
  841MOL0     C13410   6.927   3.335   0.734 -0.0991  0.8372 -0.1033
  841MOL0     C13411   6.823   3.449   0.734  0.5525  0.6638 -0.2982
  841MOL0     C13412   6.755   3.461   0.600  1.0826  0.4231  0.4145
  841MOL0     C13413   6.652   3.569   0.613  0.1009  0.0186 -0.2401
  841MOL0     C13414   6.601   3.626   0.474  1.4945  0.6119 -0.1190
  841MOL0     C13415   6.493   3.539   0.402  0.0846 -0.5901  0.8370
  841MOL0     C13416   6.556   3.442   0.303  0.0213  0.8282  0.1880
  841MOL0     N13417   6.454   3.370   0.221 -0.0197  0.0041 -0.9130
  841MOL0     C13418   6.331   3.333   0.264  0.7385  0.2634 -1.0851
  841MOL0     C13419   6.271   3.291   0.153 -0.5856  0.1210 -0.3055
  841MOL0     C13420   6.129   3.263   0.140 -0.3733  0.4864  0.4870
  841MOL0     C13421   6.051   3.391   0.123  0.3924 -0.6938 -0.0665
  841MOL0     C13422   6.020   3.470   0.246 -0.2969 -0.0712 -0.3887
  841MOL0     C13423   5.958   3.395   0.373  0.1950  0.4412  0.4683
  841MOL0     O13424   6.050   3.353   0.470  0.1019 -0.7556 -0.7244
  841MOL0     C13425   6.091   3.446   0.568  0.1214 -0.2373  0.0784
  841MOL0     C13426   6.153   3.396   0.676  0.1515 -0.5087 -0.2696
  841MOL0     C13427   6.187   3.476   0.785 -0.2361  0.0081  0.2752
  841MOL0     C13428   6.178   3.615   0.780  0.1749 -0.0511 -0.2091
  841MOL0     C13429   6.226   3.692   0.894 -0.1168 -0.1840 -0.1385
  841MOL0     O13430   6.145   3.795   0.932 -0.1646  0.7423  1.1565
  841MOL0     C13431   6.157   3.842   1.059 -1.7727 -0.5545  0.5727
  841MOL0     C13432   6.258   3.938   1.089 -0.2234  0.4594  0.0197
  841MOL0     C13433   6.284   3.980   1.219  0.3343 -0.2772  0.8074
  841MOL0     C13434   6.203   3.941   1.326  0.3636  0.3697 -0.0241
  841MOL0     O13435   6.247   3.992   1.450  0.3562 -0.2709  0.2583
  841MOL0     C13436   6.158   3.974   1.561  0.1446 -0.2083 -0.1042
  841MOL0     C13437   6.197   4.048   1.689 -0.1051 -0.5111  0.5480
  841MOL0     C13438   6.101   4.028   1.803  0.3150  0.7343  0.9739
  841MOL0     C13439   6.128   4.111   1.930 -0.1593  0.1134 -0.0423
  841MOL0     C13440   6.001   4.191   1.972 -0.6716 -0.0267  0.3784
  841MOL0     C13441   5.890   4.093   2.011 -0.3661 -0.0717 -0.4458
  841MOL0     C13442   5.787   4.139   2.125 -0.1379  0.8974  0.3859
  841MOL0     C13443   5.750   4.010   2.209 -0.3037 -0.5495  0.6558
  841MOL0    Cl13444   5.625   4.072   2.310 -0.2656 -0.2666  0.3488
  841MOL0     C13445   6.093   3.867   1.295  0.2021  0.1267 -0.0503
  841MOL0     C13446   6.070   3.820   1.164 -0.6034 -0.2532 -1.2080
  841MOL0     O13447   6.330   3.651   0.953  0.7456 -1.0320 -0.6764
  841MOL0     C13448   6.120   3.670   0.661  0.1350 -0.2316 -0.3983
  841MOL0     C13449   6.074   3.584   0.560  0.3534 -0.1470 -0.0271
  841MOL0     N13450   6.346   3.321   0.041  0.6618 -0.2000  0.2010
  841MOL0     N13451   6.456   3.371   0.088  0.8457  0.0071  0.0016
  841MOL0     C13452   7.257   3.217   0.843 -0.4373 -0.2252  1.2035
  841MOL0     C13453   7.378   3.163   0.795  0.5080 -0.0973 -0.2679
  841MOL0     C13454   7.732   2.973   0.599  0.0985  0.2021 -0.4192
  841MOL0     C13455   7.765   2.871   0.687 -0.3857  1.2680 -0.7852
  841MOL0     C13456   7.885   2.799   0.687 -0.2925  1.2819 -0.0281
  841MOL0     C13457   7.982   2.821   0.597  0.0296  0.0992  0.1486
  841MOL0     O13458   8.090   2.747   0.609 -0.3946 -0.3788 -0.3903
  841MOL0     C13459   8.213   2.776   0.533  0.6042 -1.6065 -0.0518
  841MOL0     C13460   8.270   2.910   0.594  0.2387  0.9221 -0.5031
  841MOL0     C13461   8.422   2.919   0.564  0.2230  0.1082 -0.1733
  841MOL0     C13462   8.468   2.993   0.436  0.4810  0.1268 -0.0192
  841MOL0     C13463   8.417   2.933   0.312 -0.1624 -0.0223  0.3949
  841MOL0     C13464   8.380   2.889   0.204  0.5100  0.0338  0.7324
  841MOL0     C13465   7.954   2.925   0.502  0.3922  0.6804 -0.0686
  841MOL0     C13466   7.829   2.999   0.503 -0.4568  0.5295  0.1567
  841MOL0     C13467   7.807   3.088   0.373 -0.5661  0.2198 -0.5897
  841MOL0     H13468   7.253   2.888   0.638 -0.8912  1.2616 -0.9820
  841MOL0     H13469   7.055   2.966   0.737  0.7810 -0.1743 -0.7881
  841MOL0     H13470   6.920   3.343   0.948 -0.2456 -0.0129 -0.3256
  841MOL0     H13471   7.073   3.381   0.892 -0.0200  0.6031 -0.6396
  841MOL0     H13472   6.870   3.249   0.698 -1.1489  2.0535 -1.5296
  841MOL0     H13473   7.006   3.362   0.664  0.0042 -2.2617 -1.3484
  841MOL0     H13474   6.870   3.545   0.757 -1.4607  1.3426  1.2264
  841MOL0     H13475   6.748   3.443   0.814  2.1202  3.2078  1.5365
  841MOL0     H13476   6.824   3.482   0.517  1.1435 -3.1788 -0.6136
  841MOL0     H13477   6.706   3.364   0.588  1.4115  0.2931  0.0857
  841MOL0     H13478   6.558   3.550   0.666  1.1125 -0.4178  1.5046
  841MOL0     H13479   6.696   3.663   0.649 -0.1336  0.4682 -1.1054
  841MOL0     H13480   6.557   3.724   0.497 -2.2053 -1.1545  0.9117
  841MOL0     H13481   6.687   3.635   0.407  0.1133 -1.1450 -2.2650
  841MOL0     H13482   6.427   3.616   0.361  2.2324  0.2427 -1.3166
  841MOL0     H13483   6.449   3.480   0.483 -1.3851  0.2890  0.7149
  841MOL0     H13484   6.617   3.493   0.226  1.0177  0.1247  0.4955
  841MOL0     H13485   6.623   3.365   0.341 -0.6228  0.8771  1.4403
  841MOL0     H13486   6.286   3.335   0.363 -0.2097  0.1827 -1.5084
  841MOL0     H13487   6.127   3.191   0.058  0.1484 -2.4013  2.8566
  841MOL0     H13488   6.106   3.211   0.234  0.5082  0.7822  0.8753
  841MOL0     H13489   6.107   3.462   0.062 -2.6606  1.9711 -0.0835
  841MOL0     H13490   5.952   3.370   0.081  0.2719 -0.4833  0.1078
  841MOL0     H13491   5.959   3.552   0.207 -1.8186 -1.2110 -0.4880
  841MOL0     H13492   6.112   3.515   0.284 -0.1127 -0.0979 -0.8062
  841MOL0     H13493   5.910   3.307   0.329 -1.3419  0.9633  1.0580
  841MOL0     H13494   5.876   3.454   0.414 -1.1418  1.8175 -3.7313
  841MOL0     H13495   6.181   3.291   0.670 -1.0613 -0.8295 -0.6711
  841MOL0     H13496   6.224   3.437   0.878 -2.4423 -1.5585  0.5763
  841MOL0     H13497   6.335   3.960   1.016  2.7529 -1.0666  2.4465
  841MOL0     H13498   6.370   4.044   1.237  0.1248 -0.5429  3.0473
  841MOL0     H13499   6.063   4.021   1.533  0.8340 -0.2682 -2.8138
  841MOL0     H13500   6.141   3.868   1.578 -3.3025 -0.1396 -2.2081
  841MOL0     H13501   6.301   4.028   1.716  0.7027  2.9148  0.3568
  841MOL0     H13502   6.202   4.155   1.671 -0.1504 -0.9128 -2.5267
  841MOL0     H13503   5.997   4.043   1.774 -0.2590 -0.9972  1.9493
  841MOL0     H13504   6.109   3.922   1.828  1.5805  0.0085 -2.0567
  841MOL0     H13505   6.221   4.166   1.920 -1.1612  2.1450  1.1028
  841MOL0     H13506   6.153   4.045   2.014 -0.9476 -0.4005 -0.1937
  841MOL0     H13507   5.963   4.257   1.893 -3.2921 -0.8599  0.8679
  841MOL0     H13508   6.021   4.242   2.066  0.9078 -0.2568  0.1987
  841MOL0     H13509   5.836   4.074   1.918  0.5470  0.6615 -1.1516
  841MOL0     H13510   5.942   4.006   2.050 -2.0692 -1.1898 -0.5777
  841MOL0     H13511   5.699   4.181   2.076  0.3526  0.2977 -1.0888
  841MOL0     H13512   5.835   4.214   2.188  1.1141 -0.6599  1.3622
  841MOL0     H13513   5.707   3.930   2.147  1.1385  0.9087 -2.4844
  841MOL0     H13514   5.839   3.969   2.258  1.0620 -0.0571 -1.2838
  841MOL0     H13515   6.021   3.851   1.374 -0.4415  2.5381 -0.0806
  841MOL0     H13516   5.983   3.758   1.150  0.7148 -2.5286  0.0471
  841MOL0     H13517   6.120   3.777   0.647  4.5601 -0.2302 -2.0725
  841MOL0     H13518   6.018   3.644   0.490  0.6346  1.4320  1.0478
  841MOL0     H13519   7.255   3.297   0.916  0.2375  0.5957  0.3481
  841MOL0     H13520   7.464   3.227   0.811 -0.6977  0.7913  4.1502
  841MOL0     H13521   7.689   2.836   0.756 -0.6593  0.0298 -1.6697
  841MOL0     H13522   7.904   2.722   0.761  3.4895  1.1413 -0.9294
  841MOL0     H13523   8.202   2.792   0.425  1.7709  1.1215  0.1493
  841MOL0     H13524   8.284   2.692   0.536  1.8818 -0.5931 -0.8998
  841MOL0     H13525   8.249   2.920   0.701 -0.5157  0.4009 -0.5930
  841MOL0     H13526   8.220   3.004   0.568 -1.8429 -1.2021 -5.5675
  841MOL0     H13527   8.465   2.818   0.564  0.4671  0.0827  3.2675
  841MOL0     H13528   8.471   2.971   0.647 -0.0170  3.4284 -1.9553
  841MOL0     H13529   8.431   3.095   0.441 -3.0085 -1.0800  1.4123
  841MOL0     H13530   8.577   2.984   0.429  0.5313 -0.2446  1.0928
  841MOL0     H13531   8.353   2.839   0.113  0.3885  0.6145  0.4519
  841MOL0     H13532   8.018   2.958   0.420 -3.1972  1.6382 -2.7184
  841MOL0     H13533   7.710   3.063   0.331 -2.1822 -0.5653  3.1771
  841MOL0     H13534   7.807   3.196   0.392  2.4234  0.2301 -0.2110
  841MOL0     H13535   7.890   3.071   0.304 -0.3992 -0.9403 -0.1228
  842MOL0     O13536  10.447   4.915   5.212 -0.2298 -0.1394  0.5725
  842MOL0     C13537  10.436   4.900   5.088 -0.8892  0.4672  0.4858
  842MOL0     O13538  10.445   4.778   5.023 -0.1097  0.8097 -0.5307
  842MOL0     C13539  10.435   4.673   5.111 -0.4916 -0.1434 -0.3526
  842MOL0     C13540  10.319   4.618   5.158  0.5908 -0.0224 -0.4397
  842MOL0     C13541  10.321   4.510   5.238  0.8079 -0.0010  0.1747
  842MOL0     C13542  10.442   4.453   5.292  0.5255  0.8662  0.8291
  842MOL0     O13543  10.443   4.359   5.392  0.3281  0.1976 -0.1463
  842MOL0     C13544  10.330   4.331   5.481 -0.3048  0.2223  0.3393
  842MOL0     C13545  10.225   4.241   5.434  1.5110  0.1970 -0.6081
  842MOL0     C13546  10.105   4.248   5.532 -0.6033 -1.1131 -0.7891
  842MOL0     C13547  10.127   4.206   5.674 -0.0786  0.2078 -0.6296
  842MOL0     C13548  10.006   4.265   5.767 -0.8933 -0.2736 -0.0409
  842MOL0     C13549   9.978   4.176   5.885  0.3874  0.5379 -0.4410
  842MOL0     C13550   9.856   4.231   5.969  0.1912 -0.1649  1.2126
  842MOL0     C13551   9.832   4.157   6.106 -0.2481 -0.6806  0.0915
  842MOL0     N13552   9.732   4.058   6.113  0.2273  0.6877 -0.1789
  842MOL0     C13553   9.594   4.083   6.097 -0.2165 -0.0370  1.2070
  842MOL0     C13554   9.529   3.965   6.124  0.4593 -0.0982 -0.3489
  842MOL0     C13555   9.389   3.956   6.137  0.6880 -0.3482  0.5248
  842MOL0     C13556   9.336   3.881   6.020  0.1585  0.9907  0.1370
  842MOL0     C13557   9.186   3.898   6.000 -0.5142 -0.3893 -0.0917
  842MOL0     C13558   9.139   3.861   5.865 -1.0693 -0.5698  0.2021
  842MOL0     O13559   9.170   3.730   5.824 -0.0817  0.7975  0.2620
  842MOL0     C13560   9.235   3.719   5.703  0.0081 -0.2568 -0.4089
  842MOL0     C13561   9.362   3.666   5.701 -0.1693 -0.7546  0.2125
  842MOL0     C13562   9.435   3.632   5.590 -0.5311  0.4803 -0.0043
  842MOL0     C13563   9.389   3.672   5.466  0.0351 -0.0687  0.2647
  842MOL0     C13564   9.463   3.640   5.334  0.3009 -1.0424 -0.2586
  842MOL0     O13565   9.596   3.610   5.332  0.1055 -0.3914 -0.5556
  842MOL0     C13566   9.641   3.589   5.209  0.4366 -0.4497  0.6718
  842MOL0     C13567   9.647   3.461   5.144  0.0748  0.8621 -0.4685
  842MOL0     C13568   9.655   3.466   5.004  0.3782  0.3892 -0.0695
  842MOL0     C13569   9.682   3.572   4.932 -0.7946 -0.8756  0.6104
  842MOL0     O13570   9.685   3.548   4.797 -0.0125 -0.2384  0.4150
  842MOL0     C13571   9.752   3.629   4.698  0.0067 -0.7297  0.4207
  842MOL0     C13572   9.697   3.571   4.559  0.2592 -0.7581 -0.3393
  842MOL0     C13573   9.721   3.672   4.446  1.1177 -1.1577  0.6619
  842MOL0     C13574   9.634   3.629   4.316  0.0199  0.6702 -0.3278
  842MOL0     C13575   9.596   3.745   4.225 -0.9214  0.4421 -0.1950
  842MOL0     C13576   9.667   3.738   4.086  0.4020 -0.3154  0.5908
  842MOL0     C13577   9.824   3.715   4.094  0.6632  0.9679  0.8950
  842MOL0     C13578   9.891   3.686   3.974 -0.5187 -1.2611  0.4979
  842MOL0    Cl13579   9.842   3.535   3.901 -0.0486  0.0937 -0.7066
  842MOL0     C13580   9.686   3.695   4.984 -0.2227 -0.2345 -0.1392
  842MOL0     C13581   9.662   3.701   5.124  0.4370 -0.2525  0.2821
  842MOL0     O13582   9.387   3.649   5.232  0.2338 -0.8208 -0.9727
  842MOL0     C13583   9.262   3.731   5.464  0.8487  0.1212 -0.7319
  842MOL0     C13584   9.183   3.753   5.576  0.4850  0.5074 -1.4311
  842MOL0     N13585   9.631   3.871   6.149  0.3392  0.2130 -0.2725
  842MOL0     N13586   9.750   3.931   6.155 -0.1626 -0.5765  0.1033
  842MOL0     C13587  10.560   4.510   5.244 -0.1251  0.4633 -0.1138
  842MOL0     C13588  10.550   4.605   5.151  0.8700 -0.3290  0.7714
  842MOL0     C13589  10.457   5.018   4.996 -0.9051 -0.2135  0.0098
  842MOL0     C13590  10.513   4.995   4.872  0.6217  0.2021 -0.4683
  842MOL0     C13591  10.551   5.102   4.789 -0.0757  0.8084  0.3120
  842MOL0     C13592  10.540   5.232   4.829 -0.4528 -1.1249 -0.3451
  842MOL0     O13593  10.570   5.330   4.741  0.3610  0.5797  0.5421
  842MOL0     C13594  10.683   5.408   4.786  0.2114 -0.0149  0.0416
  842MOL0     C13595  10.723   5.488   4.667 -0.0908  0.3172 -0.3940
  842MOL0     C13596  10.782   5.404   4.560  0.2834  0.7013 -1.3396
  842MOL0     C13597  10.788   5.466   4.428  0.3835  0.2151  0.3860
  842MOL0     C13598  10.851   5.598   4.426  0.5303 -0.1962 -0.9248
  842MOL0     C13599  10.904   5.705   4.433 -0.1470  0.0711  0.0590
  842MOL0     C13600  10.485   5.262   4.953  0.0188  2.2490 -0.4260
  842MOL0     C13601  10.439   5.155   5.034  0.8016 -0.9639  1.0924
  842MOL0     C13602  10.359   5.203   5.152 -0.2509  0.1435 -0.1346
  842MOL0     H13603  10.230   4.671   5.126 -0.1535  0.2438  1.8894
  842MOL0     H13604  10.219   4.476   5.257  0.3412  1.1775 -0.1592
  842MOL0     H13605  10.377   4.270   5.559 -0.0600 -2.5305 -1.8262
  842MOL0     H13606  10.280   4.422   5.518 -0.5872  0.5970 -0.9188
  842MOL0     H13607  10.253   4.135   5.424  1.5963  0.1269  0.2854
  842MOL0     H13608  10.198   4.262   5.330 -0.3060  2.1559  0.1885
  842MOL0     H13609  10.014   4.198   5.498 -0.0058 -0.4994 -3.5329
  842MOL0     H13610  10.075   4.353   5.525 -0.0713 -0.7651  1.3023
  842MOL0     H13611  10.124   4.097   5.663  1.6151  0.0576  0.1614
  842MOL0     H13612  10.224   4.227   5.719  0.3648 -4.6002  1.2035
  842MOL0     H13613  10.034   4.365   5.805 -0.6212 -0.1531 -0.5470
  842MOL0     H13614   9.921   4.283   5.701  0.9704  2.7171 -1.8907
  842MOL0     H13615   9.938   4.083   5.845  3.2656 -1.4032  0.7888
  842MOL0     H13616  10.059   4.146   5.952 -1.1228 -3.9086 -0.2576
  842MOL0     H13617   9.765   4.233   5.908  0.0054 -0.0239  1.4937
  842MOL0     H13618   9.874   4.337   5.988  1.6909 -0.4123  1.3265
  842MOL0     H13619   9.926   4.113   6.141  0.7773  1.1325 -0.2068
  842MOL0     H13620   9.803   4.237   6.175 -2.5975 -1.3481 -0.0405
  842MOL0     H13621   9.553   4.177   6.062 -1.8390 -2.0005 -2.7549
  842MOL0     H13622   9.358   3.914   6.233 -0.2023 -1.1579 -0.0971
  842MOL0     H13623   9.352   4.059   6.126  1.6111 -0.0505  0.0697
  842MOL0     H13624   9.392   3.909   5.930  1.3000  0.2472  0.6028
  842MOL0     H13625   9.353   3.773   6.024 -1.3469  0.6937 -0.6059
  842MOL0     H13626   9.171   4.004   6.021 -0.9090 -0.9136  2.5318
  842MOL0     H13627   9.139   3.852   6.087 -3.7913 -1.1529 -2.0789
  842MOL0     H13628   9.170   3.939   5.796 -0.2924 -0.4515  0.6751
  842MOL0     H13629   9.031   3.872   5.854 -0.6473  2.3501 -2.1528
  842MOL0     H13630   9.405   3.642   5.797  3.4606  0.4130 -0.9661
  842MOL0     H13631   9.526   3.578   5.611 -1.2161 -0.3088  1.0412
  842MOL0     H13632   9.632   3.362   5.187  0.3844 -0.9252 -4.0941
  842MOL0     H13633   9.632   3.379   4.942 -1.4401 -1.0470  2.4443
  842MOL0     H13634   9.722   3.734   4.704  2.6501  0.2560 -1.8438
  842MOL0     H13635   9.860   3.621   4.712 -0.2573 -1.3676  2.4733
  842MOL0     H13636   9.768   3.490   4.541  2.7055  1.0014  0.8264
  842MOL0     H13637   9.596   3.529   4.556  0.4289 -1.1474 -0.6398
  842MOL0     H13638   9.684   3.774   4.462 -0.1119 -1.3281 -0.8331
  842MOL0     H13639   9.829   3.673   4.431  1.2103 -0.4739  1.3335
  842MOL0     H13640   9.539   3.585   4.350  0.2310  0.2432 -0.2790
  842MOL0     H13641   9.685   3.553   4.256 -2.7584 -0.3585 -1.5592
  842MOL0     H13642   9.620   3.843   4.269  2.3068 -0.9800  1.5602
  842MOL0     H13643   9.489   3.737   4.207 -1.2563  0.4771  1.6226
  842MOL0     H13644   9.625   3.676   4.006  0.7216  3.2613 -2.6309
  842MOL0     H13645   9.649   3.834   4.036 -3.3625 -0.5520  1.2154
  842MOL0     H13646   9.832   3.624   4.154 -1.5218 -0.1425 -0.3846
  842MOL0     H13647   9.868   3.808   4.132  0.3688  0.7846  1.7223
  842MOL0     H13648   9.880   3.768   3.902 -2.2074  2.3630  4.4566
  842MOL0     H13649   9.996   3.678   4.003 -0.5239  1.3374  1.5453
  842MOL0     H13650   9.691   3.782   4.921 -2.0218  1.2074  1.5858
  842MOL0     H13651   9.662   3.796   5.176 -0.9180 -1.4180  2.5989
  842MOL0     H13652   9.220   3.770   5.371  5.6007  1.7612 -2.5133
  842MOL0     H13653   9.091   3.810   5.583  0.3290  0.0688  1.1548
  842MOL0     H13654  10.662   4.479   5.263  0.5304  2.4679 -0.0827
  842MOL0     H13655  10.639   4.640   5.100  0.4262  1.7669  1.3232
  842MOL0     H13656  10.512   4.893   4.836  1.3312 -0.9800  2.5427
  842MOL0     H13657  10.588   5.088   4.688 -2.6032 -0.9650 -0.4526
  842MOL0     H13658  10.766   5.339   4.807  0.4190  0.6836  1.6660
  842MOL0     H13659  10.653   5.460   4.877 -0.2840 -1.0155  0.4701
  842MOL0     H13660  10.797   5.555   4.712  0.4991 -0.6333  0.0834
  842MOL0     H13661  10.632   5.540   4.637 -0.8521 -1.7260 -1.8370
  842MOL0     H13662  10.723   5.312   4.547 -0.1752  1.0084 -1.4338
  842MOL0     H13663  10.883   5.374   4.589 -0.3971 -2.9612 -2.2353
  842MOL0     H13664  10.829   5.409   4.344  1.3336 -2.2910  2.4134
  842MOL0     H13665  10.691   5.493   4.388  0.2115 -1.2741 -0.2534
  842MOL0     H13666  10.961   5.796   4.438  2.4997 -1.3908 -1.4375
  842MOL0     H13667  10.462   5.368   4.966 -3.3977  1.3625  1.9857
  842MOL0     H13668  10.419   5.179   5.240  1.4133 -2.2333 -1.8093
  842MOL0     H13669  10.335   5.310   5.147 -1.1885  0.0472  1.3680
  842MOL0     H13670  10.266   5.144   5.153 -0.8076  0.4797 -5.1111
  843MOL0     O13671   0.405   2.977   1.882  0.1436 -0.4959 -0.1927
  843MOL0     C13672   0.337   3.079   1.864 -0.1302 -0.9655  0.4902
  843MOL0     O13673   0.379   3.177   1.778  0.5686  0.2620  0.0847
  843MOL0     C13674   0.476   3.179   1.693 -0.8999  0.1141 -0.2031
  843MOL0     C13675   0.585   3.092   1.670  1.1985  0.7265 -0.6123
  843MOL0     C13676   0.680   3.119   1.574 -1.2328 -0.0364 -0.4121
  843MOL0     C13677   0.676   3.234   1.500 -0.9935  0.0490 -0.3476
  843MOL0     O13678   0.763   3.281   1.393  0.1575  0.1955 -0.2245
  843MOL0     C13679   0.867   3.190   1.348  0.0051 -0.0859  0.2380
  843MOL0     C13680   0.948   3.258   1.232  0.1831 -0.2542 -0.6557
  843MOL0     C13681   0.866   3.313   1.119 -0.6038  0.1851  0.3896
  843MOL0     C13682   0.947   3.321   0.987 -0.0270 -0.8484 -0.6187
  843MOL0     C13683   0.875   3.385   0.871 -0.5057  0.4515  0.1836
  843MOL0     C13684   0.757   3.304   0.827 -0.4206 -0.3250  1.1652
  843MOL0     C13685   0.679   3.381   0.718  0.6311 -1.4315  0.2949
  843MOL0     C13686   0.746   3.372   0.579  0.3017 -0.4189 -0.0948
  843MOL0     N13687   0.668   3.436   0.471 -0.3116 -0.7419 -0.6939
  843MOL0     C13688   0.536   3.452   0.450  0.5066  0.5532  0.3801
  843MOL0     C13689   0.516   3.513   0.333 -0.3547  0.4576 -0.5662
  843MOL0     C13690   0.400   3.571   0.263  0.9821 -0.0882  0.6663
  843MOL0     C13691   0.279   3.488   0.314  0.4562  0.1926 -1.2828
  843MOL0     C13692   0.140   3.519   0.253 -0.2653 -0.3860 -1.4521
  843MOL0     C13693   0.027   3.460   0.347  0.4906 -0.2284  0.3553
  843MOL0     O13694  -0.099   3.483   0.274 -0.1266  0.2464 -0.7426
  843MOL0     C13695  -0.202   3.464   0.352  0.5154  0.3089 -0.4327
  843MOL0     C13696  -0.322   3.539   0.331 -0.2165 -0.0343  0.3747
  843MOL0     C13697  -0.437   3.506   0.409  0.3914 -1.0339  0.3204
  843MOL0     C13698  -0.440   3.416   0.517 -0.1312 -0.0274  0.2789
  843MOL0     C13699  -0.560   3.395   0.598  0.0688  0.0572  0.1665
  843MOL0     O13700  -0.648   3.492   0.580  0.0555 -0.0634  0.2899
  843MOL0     C13701  -0.766   3.492   0.653  0.1325 -0.5764 -0.2497
  843MOL0     C13702  -0.891   3.528   0.605  0.0327  0.2693  0.3630
  843MOL0     C13703  -1.010   3.524   0.689  0.9716 -0.6888 -0.2257
  843MOL0     C13704  -1.004   3.488   0.823 -0.4417 -0.1855 -0.2483
  843MOL0     O13705  -1.120   3.477   0.894  0.7122  0.4546  0.1126
  843MOL0     C13706  -1.113   3.424   1.032 -0.1328 -0.0032 -0.8724
  843MOL0     C13707  -1.256   3.410   1.090 -0.3359 -0.1363  0.9750
  843MOL0     C13708  -1.270   3.265   1.159 -0.6061  0.4937 -0.2034
  843MOL0     C13709  -1.410   3.222   1.183  0.8074  0.2015  0.0018
  843MOL0     C13710  -1.415   3.085   1.255 -0.1275  0.2791 -0.2639
  843MOL0     C13711  -1.561   3.043   1.256  0.0246  0.7061 -0.0755
  843MOL0     C13712  -1.589   2.916   1.171  0.3744 -0.0963  0.1022
  843MOL0     C13713  -1.512   2.790   1.201  0.0179 -0.0668 -0.2483
  843MOL0    Cl13714  -1.549   2.675   1.072 -0.0438  0.6304  0.3654
  843MOL0     C13715  -0.874   3.464   0.882  1.0813  0.3515 -0.1714
  843MOL0     C13716  -0.762   3.466   0.793  0.1099  0.9780  0.0820
  843MOL0     O13717  -0.564   3.289   0.670 -0.5804 -0.8649 -0.4076
  843MOL0     C13718  -0.324   3.344   0.526 -1.3081 -0.4246 -0.4340
  843MOL0     C13719  -0.213   3.363   0.450 -0.2452 -0.0366 -0.0758
  843MOL0     N13720   0.637   3.539   0.284  0.2243 -0.0536 -0.0897
  843MOL0     N13721   0.730   3.497   0.370 -0.4412  0.0720  0.2178
  843MOL0     C13722   0.560   3.318   1.519 -0.5232  0.5438  0.9662
  843MOL0     C13723   0.472   3.293   1.614  0.8264 -0.2825  0.2490
  843MOL0     C13724   0.208   3.107   1.935  0.0537  0.2975  0.7141
  843MOL0     C13725   0.171   3.240   1.956 -0.3201 -0.4420 -0.1135
  843MOL0     C13726   0.052   3.276   2.018 -0.8209  0.9648 -0.2724
  843MOL0     C13727  -0.045   3.177   2.054 -0.2304 -0.0129 -0.1162
  843MOL0     O13728  -0.170   3.215   2.097 -0.0128  0.1099 -0.5344
  843MOL0     C13729  -0.205   3.361   2.093  0.0673  0.6158  0.1543
  843MOL0     C13730  -0.154   3.434   2.214 -0.8932 -0.2037 -0.0225
  843MOL0     C13731  -0.231   3.387   2.345  0.5113 -0.4024  0.2421
  843MOL0     C13732  -0.217   3.475   2.471 -0.3173 -0.5218 -0.0185
  843MOL0     C13733  -0.159   3.612   2.471  0.6603  0.2098 -0.2957
  843MOL0     C13734  -0.103   3.714   2.459 -0.2384  0.2553  0.7160
  843MOL0     C13735  -0.002   3.046   2.047 -0.1767  0.3526  0.4933
  843MOL0     C13736   0.121   3.009   1.994 -0.5863  0.1543  0.5277
  843MOL0     C13737   0.155   2.862   2.007 -0.4847  0.4089  0.1191
  843MOL0     H13738   0.594   3.004   1.732 -2.0084 -0.5086 -1.6934
  843MOL0     H13739   0.768   3.058   1.555 -0.9334  0.5655 -0.9885
  843MOL0     H13740   0.934   3.158   1.428  2.7954 -1.0071 -2.2766
  843MOL0     H13741   0.813   3.107   1.301  2.8172 -0.7037 -2.2058
  843MOL0     H13742   1.033   3.204   1.189  1.3453  1.0845 -0.1243
  843MOL0     H13743   0.998   3.346   1.272 -1.4453  0.1817  0.5344
  843MOL0     H13744   0.816   3.407   1.141  0.1168  0.2691  1.7494
  843MOL0     H13745   0.785   3.240   1.114 -1.3478  1.0805 -1.3820
  843MOL0     H13746   1.019   3.398   1.017 -1.1304  1.1646 -2.7635
  843MOL0     H13747   0.993   3.225   0.963  0.8534 -0.5763 -0.0591
  843MOL0     H13748   0.836   3.486   0.888  0.3556  0.6469  1.1294
  843MOL0     H13749   0.950   3.401   0.792  0.0344 -4.0090 -0.4365
  843MOL0     H13750   0.789   3.205   0.794 -2.6080 -1.1187  1.2663
  843MOL0     H13751   0.693   3.284   0.913 -0.0139 -5.1718  0.6109
  843MOL0     H13752   0.650   3.485   0.739 -0.4554 -1.4365 -1.0638
  843MOL0     H13753   0.580   3.335   0.704 -1.5533  2.9561 -0.5426
  843MOL0     H13754   0.841   3.426   0.579  1.0257 -1.6286 -1.6218
  843MOL0     H13755   0.757   3.267   0.549  0.1871  0.0135 -1.7019
  843MOL0     H13756   0.455   3.428   0.517  0.3711 -1.7098 -0.5054
  843MOL0     H13757   0.385   3.679   0.265 -1.5797 -0.3677  0.2397
  843MOL0     H13758   0.407   3.555   0.155  0.0670  0.6879  0.4795
  843MOL0     H13759   0.311   3.384   0.300  3.8050  0.8127  0.7703
  843MOL0     H13760   0.269   3.502   0.422  2.8823 -0.5834 -0.9020
  843MOL0     H13761   0.155   3.474   0.154  2.8302  1.3315 -1.9244
  843MOL0     H13762   0.119   3.626   0.246 -1.3442 -0.4492  0.3890
  843MOL0     H13763   0.035   3.511   0.443  1.4552  1.3733 -0.5221
  843MOL0     H13764   0.040   3.351   0.347  0.2968 -0.6431 -5.9578
  843MOL0     H13765  -0.308   3.616   0.256  0.0799  0.0253  0.4880
  843MOL0     H13766  -0.532   3.550   0.379 -1.3916 -3.0132  2.6292
  843MOL0     H13767  -0.899   3.560   0.502 -1.9820  0.3504  0.4921
  843MOL0     H13768  -1.106   3.542   0.642  0.9437 -0.2334  0.0050
  843MOL0     H13769  -1.069   3.324   1.037 -0.3277 -0.0641 -0.2622
  843MOL0     H13770  -1.069   3.497   1.101 -1.1085 -1.5443  1.5167
  843MOL0     H13771  -1.282   3.491   1.159  0.2287  0.3762  0.5913
  843MOL0     H13772  -1.332   3.424   1.013  1.1175 -1.8619 -0.8842
  843MOL0     H13773  -1.216   3.188   1.102 -0.7552  2.1475 -2.7516
  843MOL0     H13774  -1.220   3.263   1.256  1.3641  0.3056 -1.1696
  843MOL0     H13775  -1.463   3.223   1.088  3.6350  0.0627 -1.6723
  843MOL0     H13776  -1.457   3.294   1.252  1.6191 -0.0231  0.8160
  843MOL0     H13777  -1.367   3.082   1.353  0.6006 -0.5916 -0.6270
  843MOL0     H13778  -1.370   3.007   1.192 -1.9456 -0.3474 -0.8354
  843MOL0     H13779  -1.593   3.033   1.361  4.0288 -3.8801  1.0523
  843MOL0     H13780  -1.616   3.124   1.207 -0.5172  0.4338  0.0684
  843MOL0     H13781  -1.582   2.938   1.064  1.4841  1.0671  0.3946
  843MOL0     H13782  -1.694   2.887   1.184  0.6734 -0.2776  2.4478
  843MOL0     H13783  -1.404   2.806   1.207  0.3375 -2.1198  0.1605
  843MOL0     H13784  -1.544   2.756   1.300 -1.9357  0.4977 -0.6470
  843MOL0     H13785  -0.856   3.440   0.987 -2.6998 -0.0092  0.5513
  843MOL0     H13786  -0.668   3.436   0.840  1.1826 -1.9397 -3.4279
  843MOL0     H13787  -0.321   3.264   0.600 -1.8036  0.1190  0.1845
  843MOL0     H13788  -0.134   3.289   0.461  0.1101 -0.5279 -4.3196
  843MOL0     H13789   0.535   3.408   1.463  2.1481  1.4954  1.1505
  843MOL0     H13790   0.397   3.370   1.627  2.0313  0.8680  0.5271
  843MOL0     H13791   0.234   3.322   1.922  0.0075 -1.3635 -1.8479
  843MOL0     H13792   0.024   3.381   2.019  0.5069  1.3292  0.6975
  843MOL0     H13793  -0.314   3.370   2.093 -0.4971 -2.9507 -3.3772
  843MOL0     H13794  -0.182   3.416   2.002 -2.6179  1.1801 -0.2665
  843MOL0     H13795  -0.176   3.540   2.197 -3.7194 -0.2124  2.6485
  843MOL0     H13796  -0.047   3.415   2.228 -0.7691  1.4961  1.7608
  843MOL0     H13797  -0.206   3.282   2.362 -0.8784 -0.3919  2.7859
  843MOL0     H13798  -0.336   3.389   2.316  0.9802  0.7817 -1.5466
  843MOL0     H13799  -0.312   3.479   2.525  0.7272 -0.6557  1.9339
  843MOL0     H13800  -0.152   3.424   2.542 -0.4689  2.4117  2.4380
  843MOL0     H13801  -0.049   3.805   2.447 -3.4399  2.2029 -0.2165
  843MOL0     H13802  -0.073   2.978   2.094 -0.6447 -0.4424 -1.2986
  843MOL0     H13803   0.189   2.818   1.912  2.0969  1.0067  0.7212
  843MOL0     H13804   0.228   2.841   2.085 -1.9427 -4.6616  0.5396
  843MOL0     H13805   0.072   2.797   2.038 -1.9587  2.7649  1.4525
  844MOL0     O13806   9.841   0.279  11.247  0.9143  0.6823 -0.0202
  844MOL0     C13807   9.844   0.255  11.365 -0.3759 -0.9141 -0.2101
  844MOL0     O13808   9.810   0.137  11.422 -0.4409 -0.6421 -0.2025
  844MOL0     C13809   9.793   0.025  11.340  0.7765  0.6336  0.3528
  844MOL0     C13810   9.681   0.015  11.256  0.1526 -0.4189  0.0200
  844MOL0     C13811   9.657  -0.094  11.177  1.0756  0.0570 -0.4544
  844MOL0     C13812   9.751  -0.197  11.175 -0.2406  0.1563 -0.2704
  844MOL0     O13813   9.727  -0.298  11.085  0.2010 -0.4727  0.8454
  844MOL0     C13814   9.791  -0.426  11.116 -0.2712 -0.3237  0.4071
  844MOL0     C13815   9.766  -0.519  11.006  0.3757  0.5077  1.3784
  844MOL0     C13816   9.836  -0.494  10.870  0.2858 -0.0964  0.1619
  844MOL0     C13817   9.820  -0.615  10.772  0.1079 -0.2581  0.0108
  844MOL0     C13818   9.850  -0.580  10.625 -0.2407 -0.4562  1.0274
  844MOL0     C13819   9.993  -0.561  10.608 -0.0400  0.7199  0.1405
  844MOL0     C13820  10.028  -0.432  10.534 -0.0351 -0.1311  0.3344
  844MOL0     C13821   9.999  -0.395  10.381  0.6431  0.8352  0.6314
  844MOL0     N13822  10.057  -0.499  10.295 -0.0836  0.7655  0.0965
  844MOL0     C13823   9.997  -0.571  10.196 -0.3141 -0.4205  0.2860
  844MOL0     C13824  10.091  -0.646  10.132 -0.2421 -0.2125 -0.4714
  844MOL0     C13825  10.062  -0.726  10.009  0.2501  0.2149 -0.4458
  844MOL0     C13826   9.990  -0.853  10.043 -0.2207  0.4496 -0.7797
  844MOL0     C13827  10.042  -0.946  10.154  0.7061 -0.9176 -0.8897
  844MOL0     C13828   9.949  -1.065  10.171  1.0808 -1.1733 -1.3803
  844MOL0     O13829   9.833  -0.999  10.234  0.0607  0.5605 -1.0135
  844MOL0     C13830   9.722  -1.078  10.250  0.4967  0.3140 -0.0622
  844MOL0     C13831   9.670  -1.088  10.380  0.3169  0.2347  0.2131
  844MOL0     C13832   9.568  -1.176  10.405 -0.0137  0.1144  0.1505
  844MOL0     C13833   9.519  -1.249  10.299  0.1463 -0.1880 -0.0596
  844MOL0     C13834   9.398  -1.331  10.316  0.2856  0.1410  0.4836
  844MOL0     O13835   9.345  -1.321  10.444  0.2688  0.3363  0.4363
  844MOL0     C13836   9.251  -1.412  10.483  0.6524 -0.1065  0.0885
  844MOL0     C13837   9.118  -1.380  10.473  0.0101  0.3185 -0.6072
  844MOL0     C13838   9.024  -1.467  10.530  0.1467 -0.2846  0.1746
  844MOL0     C13839   9.048  -1.590  10.595 -0.3596 -0.5509 -0.1795
  844MOL0     O13840   8.950  -1.663  10.651  0.6502  0.2656  0.5669
  844MOL0     C13841   8.954  -1.807  10.622  1.1390 -0.6831 -0.4920
  844MOL0     C13842   8.821  -1.870  10.646 -0.6775 -0.1551 -0.0729
  844MOL0     C13843   8.723  -1.858  10.530 -0.3240 -0.4307  0.3542
  844MOL0     C13844   8.608  -1.957  10.530  0.4160  0.5515  0.0380
  844MOL0     C13845   8.537  -1.960  10.393  0.5810  0.2981  0.1072
  844MOL0     C13846   8.456  -1.833  10.346 -0.0383  0.6582 -0.0718
  844MOL0     C13847   8.339  -1.804  10.450 -0.1647  0.7731  0.5764
  844MOL0     C13848   8.321  -1.654  10.450 -0.0373  0.0871  0.1010
  844MOL0    Cl13849   8.195  -1.605  10.568  0.1527 -0.1558 -0.5230
  844MOL0     C13850   9.193  -1.623  10.587 -0.9467 -0.1043 -0.1978
  844MOL0     C13851   9.291  -1.534  10.541  0.1179 -0.6961 -0.1544
  844MOL0     O13852   9.340  -1.389  10.221  0.4334  0.0181  0.3260
  844MOL0     C13853   9.552  -1.230  10.165 -0.3438  0.4194 -0.5479
  844MOL0     C13854   9.663  -1.147  10.146 -0.1358  0.0667  0.4398
  844MOL0     N13855  10.216  -0.631  10.199 -0.1775 -0.3503 -0.4123
  844MOL0     N13856  10.192  -0.539  10.296  0.5505 -0.0476  0.6234
  844MOL0     C13857   9.856  -0.196  11.266 -0.8146 -0.1718 -0.4017
  844MOL0     C13858   9.871  -0.091  11.356 -0.0083 -0.0323  1.3618
  844MOL0     C13859   9.880   0.357  11.468 -0.1150  1.0098  0.3157
  844MOL0     C13860  10.001   0.344  11.520  0.1085  0.3390 -0.8642
  844MOL0     C13861  10.061   0.433  11.603  0.2228 -0.1309 -0.6056
  844MOL0     C13862   9.998   0.551  11.630 -0.0039 -0.1360  0.0974
  844MOL0     O13863  10.041   0.644  11.718  0.3874  0.1663 -0.6877
  844MOL0     C13864  10.155   0.623  11.803 -0.7477  0.0310  0.2791
  844MOL0     C13865  10.112   0.551  11.933 -0.1264 -0.4370  0.1596
  844MOL0     C13866   9.987   0.616  11.997 -0.7313  0.4353  0.2123
  844MOL0     C13867  10.007   0.756  12.062 -0.5058  0.2004 -0.0387
  844MOL0     C13868   9.876   0.806  12.105 -0.6242  0.1664  0.0794
  844MOL0     C13869   9.767   0.841  12.138 -0.3568  0.9463 -0.7381
  844MOL0     C13870   9.875   0.570  11.574  0.2471  1.3028  0.9330
  844MOL0     C13871   9.813   0.475  11.492 -0.7411  0.1666  0.0031
  844MOL0     C13872   9.689   0.506  11.421  0.4372 -0.1538 -0.4073
  844MOL0     H13873   9.615   0.101  11.249 -0.0005 -0.6011 -0.8463
  844MOL0     H13874   9.583  -0.090  11.097  0.3638  2.7456  0.2515
  844MOL0     H13875   9.898  -0.419  11.133  0.1543 -2.1674 -1.1234
  844MOL0     H13876   9.753  -0.463  11.212 -0.2804 -1.0267  0.1414
  844MOL0     H13877   9.658  -0.520  10.988  0.2389 -0.8305  2.1381
  844MOL0     H13878   9.807  -0.614  11.042  1.5772  1.5397  2.8145
  844MOL0     H13879   9.940  -0.464  10.887 -0.6614  3.0308  1.1552
  844MOL0     H13880   9.785  -0.406  10.828  0.7455  0.5779  0.9800
  844MOL0     H13881   9.888  -0.690  10.813 -2.6617 -2.7098  0.3816
  844MOL0     H13882   9.714  -0.639  10.775 -0.7601  2.7806 -1.7008
  844MOL0     H13883   9.814  -0.650  10.549  1.7150 -0.1335 -0.2858
  844MOL0     H13884   9.806  -0.484  10.596 -3.5680 -1.6409  1.7610
  844MOL0     H13885  10.049  -0.555  10.702 -0.5837  1.3049  0.4384
  844MOL0     H13886  10.036  -0.642  10.549 -1.4751 -0.4342  0.6401
  844MOL0     H13887  10.133  -0.417  10.564  0.3980  0.6229 -1.4284
  844MOL0     H13888   9.979  -0.349  10.587 -2.0020 -3.2867  3.9367
  844MOL0     H13889   9.891  -0.404  10.365  1.1413 -2.3863 -1.8619
  844MOL0     H13890  10.040  -0.300  10.346  0.6415 -0.4432 -3.3306
  844MOL0     H13891   9.891  -0.582  10.177 -0.2383 -2.0540  0.7108
  844MOL0     H13892   9.995  -0.671   9.943 -3.5925 -1.1605  1.9904
  844MOL0     H13893  10.157  -0.754   9.962 -0.3869 -1.0939 -0.9935
  844MOL0     H13894   9.890  -0.821  10.074  0.0626  0.9537 -0.3629
  844MOL0     H13895   9.973  -0.908   9.950 -3.0511 -1.0799  0.5111
  844MOL0     H13896  10.062  -0.889  10.245 -4.1385 -0.1091 -0.0677
  844MOL0     H13897  10.136  -0.977  10.108 -1.0899 -1.9732 -4.2032
  844MOL0     H13898   9.985  -1.150  10.231 -0.4415  0.5745  2.2712
  844MOL0     H13899   9.938  -1.104  10.069  0.2055 -0.5197 -1.5446
  844MOL0     H13900   9.728  -1.032  10.453  1.1652 -1.4771  0.9004
  844MOL0     H13901   9.541  -1.201  10.507 -2.7683 -2.7910 -1.1487
  844MOL0     H13902   9.089  -1.289  10.422 -0.6370  0.4893  0.0524
  844MOL0     H13903   8.921  -1.439  10.511  0.0323 -1.2060 -0.6645
  844MOL0     H13904   9.003  -1.815  10.524 -1.6690  1.6569 -2.2451
  844MOL0     H13905   9.022  -1.863  10.687 -0.7875 -0.8332  1.5280
  844MOL0     H13906   8.840  -1.975  10.669 -0.4400  0.1051  1.0069
  844MOL0     H13907   8.781  -1.821  10.735  2.7755  1.2200  0.8921
  844MOL0     H13908   8.687  -1.756  10.516 -1.0049 -0.8591 -1.2931
  844MOL0     H13909   8.782  -1.881  10.441 -0.8188  2.8975 -0.9745
  844MOL0     H13910   8.532  -1.937  10.606 -1.0936 -0.8813 -1.0012
  844MOL0     H13911   8.636  -2.062  10.542 -2.3885 -0.2421  0.6385
  844MOL0     H13912   8.465  -2.043  10.394  1.5451 -0.6111  2.5250
  844MOL0     H13913   8.619  -1.977  10.323 -0.1909 -0.4247 -0.6464
  844MOL0     H13914   8.513  -1.741  10.334 -0.1948  0.7104 -0.4387
  844MOL0     H13915   8.414  -1.843  10.245  0.5416 -1.8582 -0.1338
  844MOL0     H13916   8.358  -1.837  10.553  2.0819 -0.1218 -0.0738
  844MOL0     H13917   8.254  -1.861  10.410  1.6856 -1.7441 -0.0019
  844MOL0     H13918   8.405  -1.603  10.497  0.1178 -0.4756  0.4376
  844MOL0     H13919   8.293  -1.629  10.347  0.0273 -1.5332 -0.3390
  844MOL0     H13920   9.231  -1.724  10.601 -1.4019 -0.3379 -0.5914
  844MOL0     H13921   9.389  -1.565  10.505  0.2606 -1.7740  1.1063
  844MOL0     H13922   9.496  -1.284  10.089 -0.4742  0.5060 -0.5152
  844MOL0     H13923   9.706  -1.150  10.046  2.4183 -1.4013  1.4888
  844MOL0     H13924   9.930  -0.273  11.284 -0.2177  0.6314  0.7205
  844MOL0     H13925   9.956  -0.096  11.424  1.3810 -2.0444 -0.3733
  844MOL0     H13926  10.059   0.253  11.502 -0.1142 -0.2388  1.1008
  844MOL0     H13927  10.155   0.403  11.648  0.8960 -0.5079 -2.2012
  844MOL0     H13928  10.212   0.712  11.832 -2.4384  1.1446  0.3366
  844MOL0     H13929  10.235   0.576  11.745  0.1668  0.4717  1.1479
  844MOL0     H13930  10.199   0.569  11.996  0.3055  0.2990 -0.6252
  844MOL0     H13931  10.100   0.444  11.913 -1.4895 -0.0803 -1.1413
  844MOL0     H13932   9.942   0.542  12.065  0.8573 -1.6663 -0.9194
  844MOL0     H13933   9.921   0.629  11.911 -0.8650  0.3841  0.3068
  844MOL0     H13934  10.063   0.735  12.154 -1.7405 -2.2958  0.2475
  844MOL0     H13935  10.064   0.827  12.001  1.3436 -0.7718  0.4682
  844MOL0     H13936   9.662   0.849  12.159 -0.3535  1.3097 -0.8634
  844MOL0     H13937   9.806   0.648  11.604 -4.6327 -0.8423 -3.3340
  844MOL0     H13938   9.619   0.567  11.480 -1.3300 -1.4829 -1.0375
  844MOL0     H13939   9.732   0.569  11.342  3.6141  0.2559  1.5028
  844MOL0     H13940   9.621   0.429  11.384 -0.0487  0.4448 -0.7999
  845MOL0     O13941   0.123   7.383   1.132 -0.4508  0.1004 -0.2988
  845MOL0     C13942   0.041   7.293   1.148 -0.6910 -0.5585 -1.0582
  845MOL0     O13943  -0.026   7.230   1.049 -0.6550 -0.7082  0.0330
  845MOL0     C13944   0.014   7.258   0.920  0.0665 -0.0267 -0.4503
  845MOL0     C13945  -0.095   7.277   0.826 -0.0581  0.0837  0.8061
  845MOL0     C13946  -0.078   7.285   0.693 -1.0008 -0.3306  0.1447
  845MOL0     C13947   0.054   7.297   0.642 -0.4201  0.1334  0.6657
  845MOL0     O13948   0.101   7.320   0.507  0.3208 -0.4082 -0.7699
  845MOL0     C13949   0.000   7.350   0.414  0.2712  0.3360 -0.8632
  845MOL0     C13950   0.052   7.346   0.277 -0.9679 -0.6619  0.1737
  845MOL0     C13951   0.182   7.432   0.255  0.4393  0.6937 -1.0136
  845MOL0     C13952   0.147   7.582   0.242 -0.1807  0.5609 -0.6646
  845MOL0     C13953   0.261   7.681   0.195  0.0924  0.3393 -0.6812
  845MOL0     C13954   0.317   7.638   0.055 -1.0140  0.0701  0.1774
  845MOL0     C13955   0.424   7.739   0.001  0.6618 -0.9294 -0.8903
  845MOL0     C13956   0.497   7.678  -0.114 -0.4659 -0.6428 -0.2010
  845MOL0     N13957   0.610   7.762  -0.147 -0.8263  0.0168  0.2992
  845MOL0     C13958   0.658   7.774  -0.274  0.6709 -0.7171  0.7307
  845MOL0     C13959   0.785   7.819  -0.263  0.1567  0.7660 -0.0175
  845MOL0     C13960   0.873   7.835  -0.382 -0.1447  0.9455 -0.0875
  845MOL0     C13961   1.028   7.801  -0.358  0.6932  0.5191  0.9750
  845MOL0     C13962   1.065   7.656  -0.336  0.2776  0.0405  0.1931
  845MOL0     C13963   1.219   7.628  -0.357 -0.0115 -0.7111  0.9292
  845MOL0     O13964   1.276   7.636  -0.224  0.1840  0.0935 -0.5346
  845MOL0     C13965   1.408   7.677  -0.224  0.5899  0.7373  0.3894
  845MOL0     C13966   1.438   7.799  -0.273 -1.0985 -0.5975  0.4366
  845MOL0     C13967   1.569   7.843  -0.273  0.1484 -0.8521 -0.5328
  845MOL0     C13968   1.676   7.770  -0.204  0.3225  0.6472 -0.6165
  845MOL0     C13969   1.806   7.844  -0.177  0.2004  1.0246  0.5599
  845MOL0     O13970   1.831   7.963  -0.249  0.5202  0.3182 -0.8301
  845MOL0     C13971   1.922   8.049  -0.192  0.2031  0.2199  0.0959
  845MOL0     C13972   2.059   8.025  -0.183 -0.2949 -0.9480 -0.1716
  845MOL0     C13973   2.152   8.115  -0.115  0.6412 -0.7151 -0.5570
  845MOL0     C13974   2.095   8.234  -0.059  0.3557 -0.0490  0.6363
  845MOL0     O13975   2.178   8.328   0.003 -0.2381  0.6167 -0.2595
  845MOL0     C13976   2.197   8.306   0.141 -0.6007  0.3492  0.3967
  845MOL0     C13977   2.303   8.404   0.197 -0.8851  0.7722 -0.0554
  845MOL0     C13978   2.259   8.544   0.202 -0.0261  0.3000  0.4967
  845MOL0     C13979   2.128   8.569   0.281 -0.0919 -0.9287  0.1132
  845MOL0     C13980   2.103   8.716   0.319 -0.8006  1.3100 -0.1023
  845MOL0     C13981   1.961   8.738   0.382  0.2707 -0.3058  0.2830
  845MOL0     C13982   1.949   8.880   0.429 -0.2600 -0.1455  0.9742
  845MOL0     C13983   1.996   8.901   0.575 -0.0654 -0.0233  0.3754
  845MOL0    Cl13984   1.888   8.850   0.708  0.0407  0.2712  0.0225
  845MOL0     C13985   1.961   8.266  -0.084  0.2196 -0.4958 -0.3029
  845MOL0     C13986   1.875   8.170  -0.147 -0.5883 -0.7735 -1.1607
  845MOL0     O13987   1.890   7.778  -0.108 -0.2049  0.0495  0.2960
  845MOL0     C13988   1.639   7.645  -0.146  1.5143  0.0144  1.0910
  845MOL0     C13989   1.505   7.599  -0.153 -0.5204  0.6549 -0.2270
  845MOL0     N13990   0.808   7.838  -0.130  0.3045  0.6632  0.0643
  845MOL0     N13991   0.703   7.807  -0.059 -0.2561 -0.1440  0.3456
  845MOL0     C13992   0.165   7.267   0.729 -0.3486 -0.5171  0.0729
  845MOL0     C13993   0.148   7.249   0.867  0.6268 -0.6523 -0.4049
  845MOL0     C13994   0.005   7.249   1.292 -0.4971 -0.3503 -0.4479
  845MOL0     C13995   0.111   7.251   1.383  0.2308  0.8891  0.2926
  845MOL0     C13996   0.096   7.211   1.514  0.0613 -0.2061  0.4406
  845MOL0     C13997  -0.029   7.176   1.561  0.4790  1.4454  1.0762
  845MOL0     O13998  -0.056   7.141   1.682 -0.4903 -0.2563 -0.3010
  845MOL0     C13999   0.041   7.086   1.774 -1.1250 -0.8457 -0.3673
  845MOL0     C14000  -0.019   7.054   1.908  0.2155 -0.1170  0.2589
  845MOL0     C14001   0.085   7.035   2.016 -0.2197  0.4750  0.8775
  845MOL0     C14002   0.025   7.024   2.147 -0.3846 -0.2251 -0.0830
  845MOL0     C14003   0.133   7.003   2.246 -0.3125 -0.5830  0.7131
  845MOL0     C14004   0.218   6.988   2.335 -0.1766  0.2691  0.6975
  845MOL0     C14005  -0.138   7.179   1.469 -0.2675  1.1109  0.3751
  845MOL0     C14006  -0.124   7.210   1.334 -0.4313 -1.2601  0.4886
  845MOL0     C14007  -0.247   7.228   1.249  0.0860  0.2004  1.5472
  845MOL0     H14008  -0.196   7.282   0.864 -0.9474 -2.5482 -0.9433
  845MOL0     H14009  -0.168   7.298   0.634 -0.4351 -1.2304 -0.9755
  845MOL0     H14010  -0.082   7.278   0.419 -1.6334  2.4088  4.8835
  845MOL0     H14011  -0.040   7.449   0.435  0.0329  0.0444  0.1055
  845MOL0     H14012  -0.025   7.383   0.209  0.1699 -1.3185 -1.5220
  845MOL0     H14013   0.077   7.245   0.241 -1.2391  0.0741 -2.2019
  845MOL0     H14014   0.239   7.413   0.163  2.8192  2.7178 -0.0862
  845MOL0     H14015   0.248   7.420   0.341 -1.5249  0.4521  0.5276
  845MOL0     H14016   0.064   7.598   0.172 -0.4856  3.1540  0.1690
  845MOL0     H14017   0.107   7.601   0.342 -4.4461 -2.6934 -1.4799
  845MOL0     H14018   0.225   7.784   0.197  2.9667  1.4292  0.2988
  845MOL0     H14019   0.335   7.669   0.275 -2.6453 -0.0316  1.9901
  845MOL0     H14020   0.349   7.535   0.040 -1.9240  0.2141 -3.8187
  845MOL0     H14021   0.221   7.647   0.004 -0.2343  0.3556 -1.2726
  845MOL0     H14022   0.493   7.754   0.084 -0.5693 -1.2650  0.2325
  845MOL0     H14023   0.377   7.831  -0.035 -0.8292 -2.3762 -2.9300
  845MOL0     H14024   0.547   7.583  -0.089  0.5741 -0.0078  0.2251
  845MOL0     H14025   0.426   7.672  -0.197  0.5044  0.4484 -1.1538
  845MOL0     H14026   0.610   7.744  -0.367  1.2890  0.5792 -0.0500
  845MOL0     H14027   0.832   7.778  -0.465 -1.6115  0.0411  1.2045
  845MOL0     H14028   0.874   7.940  -0.413  0.8781  0.1531 -3.1130
  845MOL0     H14029   1.083   7.837  -0.446  1.9944  2.0842  2.3718
  845MOL0     H14030   1.047   7.848  -0.262  0.4910 -1.1902  1.8880
  845MOL0     H14031   1.012   7.577  -0.391  0.3378 -0.3671  0.7102
  845MOL0     H14032   1.027   7.628  -0.238  0.1581 -4.0382 -0.8079
  845MOL0     H14033   1.263   7.697  -0.429  0.4446  0.0503  1.9127
  845MOL0     H14034   1.234   7.530  -0.402  1.1060  1.4298 -3.9653
  845MOL0     H14035   1.362   7.864  -0.314  0.9922  0.4757 -1.9581
  845MOL0     H14036   1.586   7.940  -0.320 -1.9873  0.0745  0.4419
  845MOL0     H14037   2.116   7.950  -0.236  3.4622  0.6608  1.2101
  845MOL0     H14038   2.258   8.096  -0.097  0.6696 -0.1606 -0.1386
  845MOL0     H14039   2.105   8.308   0.200  0.5098  3.1043  2.2808
  845MOL0     H14040   2.230   8.204   0.161  1.8572  0.9498 -0.2139
  845MOL0     H14041   2.323   8.374   0.300 -3.1587  4.1630  1.5610
  845MOL0     H14042   2.398   8.401   0.143  2.1524  0.7475  4.7173
  845MOL0     H14043   2.337   8.611   0.240  0.5764  0.7549 -1.4062
  845MOL0     H14044   2.232   8.577   0.101  1.7731 -0.4253 -0.2613
  845MOL0     H14045   2.135   8.512   0.374  3.1526  0.9999  1.2109
  845MOL0     H14046   2.043   8.532   0.224 -1.5577 -0.4733  1.8909
  845MOL0     H14047   2.113   8.778   0.230  0.8432  1.6005  0.2547
  845MOL0     H14048   2.187   8.738   0.385 -0.3169  0.7849 -0.5290
  845MOL0     H14049   1.878   8.705   0.319  0.5646 -2.1340  0.8000
  845MOL0     H14050   1.935   8.681   0.472 -3.8162 -0.6523 -0.9031
  845MOL0     H14051   1.846   8.916   0.427  0.2933  1.6247  1.8423
  845MOL0     H14052   2.003   8.946   0.360  0.7010  0.1940  2.0271
  845MOL0     H14053   2.093   8.854   0.595  2.5059  3.7383 -1.7988
  845MOL0     H14054   2.024   9.004   0.601 -1.0583  0.8376 -1.7115
  845MOL0     H14055   1.924   8.354  -0.032 -0.8508 -0.1528 -1.5983
  845MOL0     H14056   1.769   8.194  -0.141  0.2450  3.2777  1.1441
  845MOL0     H14057   1.720   7.596  -0.094 -0.1135 -1.6164  2.1951
  845MOL0     H14058   1.471   7.508  -0.106 -0.2973  0.3803 -0.5821
  845MOL0     H14059   0.264   7.263   0.686 -0.4088 -0.4575 -0.0699
  845MOL0     H14060   0.238   7.238   0.927  0.1735 -0.3769  0.3355
  845MOL0     H14061   0.212   7.285   1.362  1.1993 -0.9629  1.6594
  845MOL0     H14062   0.180   7.216   1.583  1.3400 -0.3619 -1.0619
  845MOL0     H14063   0.121   7.158   1.792 -1.8832  0.2348 -1.1243
  845MOL0     H14064   0.081   6.995   1.728  0.6378  0.3600 -1.3257
  845MOL0     H14065  -0.072   6.959   1.915  1.9802 -1.0811  1.5332
  845MOL0     H14066  -0.097   7.127   1.933 -1.3333 -1.5148 -0.3502
  845MOL0     H14067   0.164   7.111   2.008 -1.3580  1.5550 -0.8317
  845MOL0     H14068   0.130   6.938   1.994 -1.3886 -0.0618  0.7904
  845MOL0     H14069  -0.023   7.121   2.164  0.2798 -0.3115  2.8940
  845MOL0     H14070  -0.044   6.939   2.150  0.3017 -0.8492 -1.2969
  845MOL0     H14071   0.273   6.962   2.423 -0.0564  0.1173  0.5764
  845MOL0     H14072  -0.236   7.138   1.491 -0.7541 -0.0812 -3.3112
  845MOL0     H14073  -0.245   7.331   1.213 -0.9683 -0.1418  0.4432
  845MOL0     H14074  -0.226   7.157   1.168  1.5174  0.6337  1.5086
  845MOL0     H14075  -0.346   7.207   1.291 -0.6319  2.9708  1.4196
  846MOL0     O14076   2.907  11.472   5.656  0.4791 -0.3482  0.2394
  846MOL0     C14077   2.876  11.547   5.563 -0.4805  0.9630  0.2798
  846MOL0     O14078   2.778  11.514   5.472 -1.0539  0.0596  0.0644
  846MOL0     C14079   2.710  11.405   5.473 -0.4402  0.6206  0.6157
  846MOL0     C14080   2.766  11.284   5.473  0.1608  0.6298 -0.7134
  846MOL0     C14081   2.680  11.167   5.463  0.2638 -0.4838  0.4357
  846MOL0     C14082   2.535  11.186   5.457 -1.0181  0.7273 -0.0022
  846MOL0     O14083   2.450  11.082   5.472  0.2142 -0.0258 -0.1991
  846MOL0     C14084   2.319  11.095   5.441  0.9222 -0.4567  0.3951
  846MOL0     C14085   2.258  10.953   5.445  0.5437 -0.6481  1.2154
  846MOL0     C14086   2.100  10.975   5.440 -1.1697 -0.0616 -0.5695
  846MOL0     C14087   2.040  11.008   5.300  0.0858  0.0451  0.0038
  846MOL0     C14088   1.909  10.943   5.293  0.3365  0.4580  0.5059
  846MOL0     C14089   1.865  10.932   5.148  0.2932  0.4109 -0.3364
  846MOL0     C14090   1.861  11.055   5.063 -0.8849  0.8223 -0.5489
  846MOL0     C14091   1.799  11.038   4.927  0.7596 -0.1730 -0.0641
  846MOL0     N14092   1.894  10.972   4.831  1.3720  0.7071  0.5901
  846MOL0     C14093   2.020  11.028   4.803  1.4201 -0.7064  0.0360
  846MOL0     C14094   2.085  10.927   4.741 -0.8234  0.0675  0.2718
  846MOL0     C14095   2.221  10.939   4.698 -0.7891 -0.1768 -0.5598
  846MOL0     C14096   2.330  10.928   4.807 -0.9606  0.1439  0.3418
  846MOL0     C14097   2.473  10.914   4.738  0.4591 -0.4880  0.8568
  846MOL0     C14098   2.531  11.054   4.729 -0.2005 -0.8964 -0.3363
  846MOL0     O14099   2.570  11.105   4.858  0.1166 -0.2374  0.1548
  846MOL0     C14100   2.593  11.240   4.877 -0.6317  0.0544 -0.6388
  846MOL0     C14101   2.612  11.294   5.000  0.5487 -0.2735 -0.2116
  846MOL0     C14102   2.643  11.430   5.019 -1.1029 -0.0766  0.4871
  846MOL0     C14103   2.632  11.523   4.917 -0.6979  0.4424  0.2261
  846MOL0     C14104   2.644  11.671   4.935  0.2971 -0.2738 -0.5137
  846MOL0     O14105   2.719  11.710   5.042  0.8585  0.7134  0.5757
  846MOL0     C14106   2.759  11.839   5.063  0.8572 -1.1973  0.2165
  846MOL0     C14107   2.868  11.891   4.992  0.5425 -0.4187 -0.2081
  846MOL0     C14108   2.911  12.021   5.020  0.5534  0.0714  0.4278
  846MOL0     C14109   2.828  12.105   5.088 -0.0922  0.2022 -0.3598
  846MOL0     O14110   2.855  12.239   5.081 -0.7863 -0.7412 -1.0252
  846MOL0     C14111   2.754  12.341   5.095 -0.0640 -0.5602  0.2608
  846MOL0     C14112   2.798  12.465   5.007  0.4518  0.4916 -1.0257
  846MOL0     C14113   2.728  12.599   5.033  0.4472 -0.2669  0.5083
  846MOL0     C14114   2.586  12.599   4.984 -0.0694 -0.6843  0.0961
  846MOL0     C14115   2.513  12.730   5.002 -0.3905 -0.3661  0.1004
  846MOL0     C14116   2.388  12.730   4.916  0.5265 -0.2253  0.4163
  846MOL0     C14117   2.292  12.848   4.938  0.0197  0.6864 -1.6578
  846MOL0     C14118   2.353  12.973   4.872  0.2265 -0.6270 -0.0243
  846MOL0    Cl14119   2.233  13.098   4.852  0.4363  0.7314 -0.2274
  846MOL0     C14120   2.732  12.052   5.173  0.2855  0.7819 -0.6982
  846MOL0     C14121   2.694  11.916   5.161  0.3085  0.3745 -0.1050
  846MOL0     O14122   2.579  11.747   4.867  0.0369  0.2386 -0.1093
  846MOL0     C14123   2.611  11.467   4.788 -0.5699 -0.9387 -0.5244
  846MOL0     C14124   2.598  11.328   4.768  0.5910  0.5100 -0.4067
  846MOL0     N14125   2.004  10.813   4.725  0.2976 -0.4728  0.3567
  846MOL0     N14126   1.885  10.851   4.755 -0.6605 -0.0418  0.1197
  846MOL0     C14127   2.488  11.309   5.455 -0.2899 -0.1188 -0.1386
  846MOL0     C14128   2.571  11.416   5.461 -0.6544 -0.5742  0.6619
  846MOL0     C14129   2.950  11.678   5.541  0.1448 -0.5516 -0.7556
  846MOL0     C14130   2.922  11.752   5.421  1.0529 -0.4948  0.1493
  846MOL0     C14131   2.979  11.878   5.391 -0.9771 -0.5879  0.7973
  846MOL0     C14132   3.086  11.928   5.474  0.5685  1.2954  0.5436
  846MOL0     O14133   3.153  12.052   5.465  0.9932  0.6432 -0.8632
  846MOL0     C14134   3.138  12.126   5.345 -0.0710  0.8391 -0.3435
  846MOL0     C14135   3.261  12.088   5.264 -0.3425 -0.4045  0.0220
  846MOL0     C14136   3.257  11.948   5.199 -0.6652  0.1951  0.1146
  846MOL0     C14137   3.384  11.923   5.108  0.3723 -0.3391  0.7819
  846MOL0     C14138   3.506  11.924   5.197 -1.4267  0.6575  0.0073
  846MOL0     C14139   3.606  11.930   5.261  0.0749 -0.4702 -0.9973
  846MOL0     C14140   3.112  11.852   5.588  0.8081  0.0369  0.6498
  846MOL0     C14141   3.051  11.734   5.624 -0.4027  0.1050  1.1750
  846MOL0     C14142   3.114  11.665   5.747  0.0072 -0.5971  0.0006
  846MOL0     H14143   2.873  11.266   5.479 -0.1374 -0.7185  1.7001
  846MOL0     H14144   2.714  11.065   5.479  0.5538 -0.5665 -0.6482
  846MOL0     H14145   2.284  11.153   5.527  3.2159 -0.9631  1.7553
  846MOL0     H14146   2.307  11.143   5.344  3.8926 -1.2656 -0.4666
  846MOL0     H14147   2.284  10.897   5.535  0.2124 -0.1801  1.6069
  846MOL0     H14148   2.272  10.900   5.350 -3.8712 -1.4599  0.8205
  846MOL0     H14149   2.071  11.053   5.511  1.0090  0.1412  0.1790
  846MOL0     H14150   2.069  10.880   5.485 -1.0548  0.8837  1.6626
  846MOL0     H14151   2.037  11.117   5.294 -2.0885  0.0796  0.6215
  846MOL0     H14152   2.113  10.973   5.227 -0.4736 -0.8588 -0.1497
  846MOL0     H14153   1.890  10.841   5.330 -5.1441  0.2069 -2.0501
  846MOL0     H14154   1.833  10.998   5.349 -0.3997 -1.8364  1.9281
  846MOL0     H14155   1.917  10.850   5.100  2.0872  0.0745  2.0031
  846MOL0     H14156   1.763  10.892   5.152  0.0387  0.9690 -0.9561
  846MOL0     H14157   1.957  11.106   5.064 -2.1290  3.2922  0.2507
  846MOL0     H14158   1.796  11.121   5.122 -1.1391  0.8265 -0.8308
  846MOL0     H14159   1.718  10.965   4.933 -0.0373  0.5974 -1.1680
  846MOL0     H14160   1.752  11.126   4.882 -1.1307 -0.2435  1.6118
  846MOL0     H14161   2.055  11.127   4.830  0.4924 -0.3424 -0.0487
  846MOL0     H14162   2.233  10.865   4.617 -3.4531 -2.3438  0.8505
  846MOL0     H14163   2.230  11.041   4.660  0.1948 -0.6355 -1.6183
  846MOL0     H14164   2.336  11.009   4.881  3.5767  3.0845 -2.7562
  846MOL0     H14165   2.304  10.832   4.852 -1.6754 -0.9095 -2.1597
  846MOL0     H14166   2.464  10.867   4.639 -1.3376  1.3796  0.0593
  846MOL0     H14167   2.530  10.843   4.798  1.5224 -1.0482 -0.7397
  846MOL0     H14168   2.459  11.127   4.691  2.6492  1.6550 -1.2208
  846MOL0     H14169   2.618  11.045   4.663 -1.4965 -0.4568 -2.2026
  846MOL0     H14170   2.615  11.237   5.093 -1.3094 -0.4403 -0.2187
  846MOL0     H14171   2.659  11.466   5.120 -1.6580  2.1492 -0.1797
  846MOL0     H14172   2.948  11.828   4.953  1.1441 -0.5662  1.2046
  846MOL0     H14173   3.001  12.061   4.974 -0.3576  0.6100 -0.9218
  846MOL0     H14174   2.656  12.301   5.068 -0.4420  0.8615 -0.5985
  846MOL0     H14175   2.740  12.359   5.202  0.3088 -1.6652  0.5073
  846MOL0     H14176   2.901  12.498   5.020 -0.5704  3.9502 -0.4762
  846MOL0     H14177   2.772  12.437   4.904 -0.1277  0.1536 -0.7944
  846MOL0     H14178   2.726  12.623   5.139 -1.5172 -1.0769  0.7047
  846MOL0     H14179   2.789  12.679   4.990 -0.4148  0.9490  1.4947
  846MOL0     H14180   2.543  12.503   5.016 -1.0902 -1.1365 -2.3708
  846MOL0     H14181   2.596  12.587   4.876  3.5955 -0.4735  0.3040
  846MOL0     H14182   2.584  12.807   4.972  0.8157 -1.3952  0.2474
  846MOL0     H14183   2.480  12.753   5.104 -1.4619  1.4888 -0.6167
  846MOL0     H14184   2.411  12.716   4.810 -0.0260  4.2414 -0.4618
  846MOL0     H14185   2.328  12.643   4.945 -2.6846  0.6138 -2.9447
  846MOL0     H14186   2.277  12.868   5.045  2.2904 -0.0924 -1.1454
  846MOL0     H14187   2.192  12.828   4.898 -1.5744  1.6999  1.4558
  846MOL0     H14188   2.441  13.003   4.928  0.1548 -0.0163 -0.2333
  846MOL0     H14189   2.385  12.949   4.770  2.1264 -4.1960  1.2456
  846MOL0     H14190   2.677  12.114   5.242 -0.2586 -1.5172  1.0706
  846MOL0     H14191   2.624  11.858   5.220 -0.1391  0.3723 -0.6331
  846MOL0     H14192   2.601  11.538   4.707  0.3406 -0.6470 -0.3844
  846MOL0     H14193   2.562  11.288   4.673 -1.1140  0.0001  0.4131
  846MOL0     H14194   2.384  11.340   5.463  0.4739  2.2858  2.9293
  846MOL0     H14195   2.542  11.518   5.437 -1.3352 -0.7801  0.5926
  846MOL0     H14196   2.852  11.711   5.348 -0.7929 -1.7634  2.4707
  846MOL0     H14197   2.957  11.931   5.298  2.6440 -1.6914 -0.8868
  846MOL0     H14198   3.134  12.234   5.364 -2.2957  0.3654  2.6286
  846MOL0     H14199   3.046  12.111   5.288 -0.4707  0.2732  0.4278
  846MOL0     H14200   3.341  12.096   5.337  1.1102  1.1048 -1.6325
  846MOL0     H14201   3.281  12.168   5.192 -0.9349  1.6315  2.0041
  846MOL0     H14202   3.167  11.931   5.140  0.5466  0.4737 -1.9337
  846MOL0     H14203   3.270  11.874   5.279 -0.2367 -2.1682 -2.0172
  846MOL0     H14204   3.378  11.824   5.061  0.4115  0.5001 -1.0910
  846MOL0     H14205   3.400  11.999   5.031 -0.8805  1.3862  2.1504
  846MOL0     H14206   3.681  11.931   5.337  1.8752  2.3718 -2.6441
  846MOL0     H14207   3.196  11.889   5.646  0.5869  0.0844  0.9391
  846MOL0     H14208   3.171  11.574   5.725  0.6281 -0.6538  1.7361
  846MOL0     H14209   3.182  11.732   5.799  1.4248 -2.4376  0.6182
  846MOL0     H14210   3.041  11.632   5.822 -0.7797 -0.4169 -0.6681
  847MOL0     O14211   8.912   5.441   4.018  0.8665  0.5529 -0.0235
  847MOL0     C14212   9.019   5.507   4.019 -1.0935  0.0012  0.2493
  847MOL0     O14213   9.083   5.560   3.909 -0.4107 -0.3159  0.3370
  847MOL0     C14214   9.062   5.516   3.781  0.1816  0.8008 -0.5882
  847MOL0     C14215   9.130   5.408   3.742 -0.7619  0.4708  0.2946
  847MOL0     C14216   9.107   5.378   3.609  0.9708  0.2055  0.5414
  847MOL0     C14217   9.017   5.441   3.522 -0.8675  0.6072 -0.3804
  847MOL0     O14218   9.011   5.397   3.392  0.3020  0.0291  0.0952
  847MOL0     C14219   8.909   5.431   3.299 -0.6397  0.1500  0.4930
  847MOL0     C14220   8.961   5.494   3.167  0.6916  0.4217 -0.1591
  847MOL0     C14221   8.845   5.517   3.066  0.2352 -0.7928 -1.1005
  847MOL0     C14222   8.900   5.548   2.921  0.0242  0.9438  1.5585
  847MOL0     C14223   8.969   5.687   2.901  0.6839 -0.1895 -0.4502
  847MOL0     C14224   8.939   5.757   2.761  0.5322  0.2420 -0.2064
  847MOL0     C14225   9.035   5.873   2.736  1.6375 -0.2309 -0.4642
  847MOL0     C14226   9.034   5.973   2.849  0.6054  0.0293  0.1301
  847MOL0     N14227   9.130   6.086   2.830  0.6045 -1.0975 -0.0611
  847MOL0     C14228   9.256   6.082   2.778  0.5186 -0.0905  0.8897
  847MOL0     C14229   9.304   6.213   2.767  0.5571  0.3388 -1.7447
  847MOL0     C14230   9.446   6.269   2.741 -0.3507 -0.3703  0.1474
  847MOL0     C14231   9.442   6.332   2.607 -0.3851 -0.1782  0.5849
  847MOL0     C14232   9.569   6.398   2.565  0.5453  0.4430 -0.9014
  847MOL0     C14233   9.683   6.428   2.669 -0.8818 -0.2883 -0.4364
  847MOL0     O14234   9.771   6.309   2.671  0.0217 -0.4167  0.0579
  847MOL0     C14235   9.907   6.317   2.678  0.2616 -0.1553 -0.2893
  847MOL0     C14236   9.967   6.435   2.725  0.1007 -0.7952  0.6694
  847MOL0     C14237  10.095   6.468   2.693  0.2767  0.3970 -0.3930
  847MOL0     C14238  10.176   6.369   2.648  0.8708 -0.2016  0.4275
  847MOL0     C14239  10.325   6.390   2.650  0.2702  0.0867 -0.5502
  847MOL0     O14240  10.370   6.495   2.722  0.1487  0.5038 -0.0067
  847MOL0     C14241  10.505   6.517   2.716  0.8234 -0.3957  0.1121
  847MOL0     C14242  10.579   6.516   2.598  0.3220 -0.8474 -0.0573
  847MOL0     C14243  10.724   6.533   2.584 -0.1187 -0.0402 -0.5650
  847MOL0     C14244  10.790   6.563   2.708  0.3994 -0.2063  0.4834
  847MOL0     O14245  10.922   6.588   2.704 -0.3264 -0.8399  0.1198
  847MOL0     C14246  10.999   6.474   2.662 -0.3447  0.7650 -0.3369
  847MOL0     C14247  11.141   6.495   2.676 -0.9735 -0.9550 -0.4708
  847MOL0     C14248  11.226   6.363   2.662 -0.6948 -0.4778  0.7898
  847MOL0     C14249  11.387   6.379   2.669  0.2625  0.2035 -0.0478
  847MOL0     C14250  11.455   6.246   2.675  0.0702  0.8126 -0.3436
  847MOL0     C14251  11.603   6.256   2.731 -0.8088  0.6083  0.9738
  847MOL0     C14252  11.701   6.345   2.650 -0.2984 -0.7276 -0.9945
  847MOL0     C14253  11.724   6.301   2.503 -0.6044 -0.0180  0.0321
  847MOL0    Cl14254  11.816   6.440   2.440  0.1182 -0.3246  0.3016
  847MOL0     C14255  10.720   6.560   2.831  1.1416  0.6638 -0.5261
  847MOL0     C14256  10.572   6.546   2.835 -0.0811  0.5599 -1.0296
  847MOL0     O14257  10.398   6.299   2.596 -0.6033  0.0056  0.3781
  847MOL0     C14258  10.123   6.250   2.598  0.8174  0.0663 -1.0634
  847MOL0     C14259   9.987   6.223   2.619 -0.8076  0.9998 -0.0787
  847MOL0     N14260   9.198   6.298   2.818  1.0830  0.0433 -0.6825
  847MOL0     N14261   9.099   6.222   2.853  0.3112 -0.1647 -0.7407
  847MOL0     C14262   8.935   5.539   3.578 -0.1757  0.5334  0.6162
  847MOL0     C14263   8.961   5.582   3.709 -1.3378 -1.0734  0.2675
  847MOL0     C14264   9.071   5.567   4.141 -0.2155  0.7112  0.2852
  847MOL0     C14265   8.985   5.627   4.228 -0.1548  0.0915 -0.6846
  847MOL0     C14266   9.013   5.690   4.351  0.6889 -0.1106  0.1757
  847MOL0     C14267   9.141   5.682   4.401 -0.0265 -0.1215 -0.5635
  847MOL0     O14268   9.147   5.723   4.535  0.4051  0.2208  0.1041
  847MOL0     C14269   9.243   5.665   4.624  0.7002 -0.1867  0.3163
  847MOL0     C14270   9.229   5.510   4.637 -0.4777 -0.0236 -0.8913
  847MOL0     C14271   9.330   5.440   4.727 -0.6596  0.3817 -0.4678
  847MOL0     C14272   9.471   5.471   4.672  0.2677  0.6800  0.1749
  847MOL0     C14273   9.479   5.412   4.542 -0.3749 -0.0305 -0.0077
  847MOL0     C14274   9.509   5.353   4.439  0.2250 -0.2977 -0.4704
  847MOL0     C14275   9.237   5.634   4.312 -0.7196 -0.0390 -0.1809
  847MOL0     C14276   9.205   5.565   4.197  0.4461 -0.6953  0.1825
  847MOL0     C14277   9.309   5.485   4.123  0.7644 -0.6225  0.4138
  847MOL0     H14278   9.213   5.367   3.798  1.9863  3.2016 -1.4388
  847MOL0     H14279   9.160   5.292   3.568 -0.2310  1.3174 -3.7888
  847MOL0     H14280   8.863   5.339   3.263  0.6295 -1.5060  2.8433
  847MOL0     H14281   8.822   5.486   3.335  0.3534  2.1463 -0.0034
  847MOL0     H14282   9.029   5.417   3.131 -0.8188 -0.7923 -0.5079
  847MOL0     H14283   9.000   5.594   3.189 -1.1259  1.4287 -1.2226
  847MOL0     H14284   8.799   5.608   3.106 -1.4622 -1.1988 -2.0076
  847MOL0     H14285   8.770   5.437   3.067  0.4505 -0.9924 -1.0238
  847MOL0     H14286   8.972   5.476   2.881 -0.0714  2.8360 -2.4452
  847MOL0     H14287   8.808   5.552   2.862  1.5419  1.2262 -0.8944
  847MOL0     H14288   8.935   5.756   2.980  0.6814 -0.8039  0.0924
  847MOL0     H14289   9.078   5.688   2.905  0.6610  0.4670  2.8280
  847MOL0     H14290   8.948   5.692   2.674 -3.5015 -0.9170 -0.0032
  847MOL0     H14291   8.833   5.783   2.752 -0.0964 -1.1161  2.3548
  847MOL0     H14292   9.008   5.925   2.644  1.1825  0.0131 -0.1957
  847MOL0     H14293   9.135   5.829   2.721  1.9133  0.6845 -1.4450
  847MOL0     H14294   8.935   6.011   2.876  0.7779  0.7705 -0.2394
  847MOL0     H14295   9.081   5.911   2.926  0.5335  0.5362  0.5808
  847MOL0     H14296   9.314   5.993   2.759 -1.0784 -1.0264  0.1351
  847MOL0     H14297   9.470   6.350   2.809 -0.5751 -0.0367 -0.1670
  847MOL0     H14298   9.518   6.186   2.743 -1.6171 -1.5040  0.0283
  847MOL0     H14299   9.427   6.249   2.538  2.6758  0.9312 -1.6426
  847MOL0     H14300   9.358   6.402   2.600 -0.3279  0.0694  2.0817
  847MOL0     H14301   9.555   6.489   2.507 -0.7024 -0.0995 -1.4996
  847MOL0     H14302   9.604   6.324   2.492  1.5860  0.6041 -0.5881
  847MOL0     H14303   9.642   6.439   2.770  1.2458  0.9635  0.3472
  847MOL0     H14304   9.736   6.520   2.645  4.0068 -2.6291  0.2540
  847MOL0     H14305   9.914   6.524   2.757  0.7275 -0.0004 -0.4662
  847MOL0     H14306  10.129   6.567   2.725  0.6100  0.0519  0.3586
  847MOL0     H14307  10.526   6.499   2.504  1.4194 -2.3513 -0.4357
  847MOL0     H14308  10.764   6.515   2.485  0.3518  1.0131 -0.5769
  847MOL0     H14309  10.970   6.391   2.727 -0.1060  1.8055  1.1352
  847MOL0     H14310  10.977   6.434   2.563 -0.2465  2.8467 -1.2540
  847MOL0     H14311  11.180   6.564   2.600  0.2979  0.3932  1.3072
  847MOL0     H14312  11.173   6.546   2.767  1.1168 -1.2422 -0.9827
  847MOL0     H14313  11.198   6.296   2.744 -0.9307  1.0354  1.9792
  847MOL0     H14314  11.206   6.314   2.566 -0.4994 -1.5450  1.2708
  847MOL0     H14315  11.408   6.438   2.759 -1.4298  1.6528 -0.5542
  847MOL0     H14316  11.432   6.436   2.587 -0.0053  0.0638 -0.2936
  847MOL0     H14317  11.451   6.201   2.575  1.0137 -0.5234  0.1869
  847MOL0     H14318  11.399   6.181   2.742  1.4403  2.1134  2.1902
  847MOL0     H14319  11.600   6.293   2.835 -0.0820 -1.4843  1.7872
  847MOL0     H14320  11.653   6.159   2.738  0.1545  1.0168  0.0362
  847MOL0     H14321  11.795   6.349   2.706  0.3137  3.2200 -1.9998
  847MOL0     H14322  11.672   6.450   2.641  0.8225 -0.4764 -1.9511
  847MOL0     H14323  11.763   6.200   2.497 -1.3808 -0.4033  1.0608
  847MOL0     H14324  11.635   6.299   2.439 -2.0535  1.2331  1.8562
  847MOL0     H14325  10.773   6.588   2.922 -1.2470  0.9435  0.8875
  847MOL0     H14326  10.524   6.565   2.931  0.9563 -1.8808  0.0558
  847MOL0     H14327  10.171   6.167   2.546  1.1719 -0.3496 -0.1013
  847MOL0     H14328   9.936   6.141   2.570 -1.0283  1.6073 -0.8728
  847MOL0     H14329   8.862   5.592   3.518  1.3577 -2.0410 -4.0900
  847MOL0     H14330   8.902   5.665   3.746  0.1572  0.5419 -0.7843
  847MOL0     H14331   8.878   5.625   4.210 -0.3452 -2.0113  0.4292
  847MOL0     H14332   8.931   5.717   4.416 -1.1491 -2.7390 -0.8633
  847MOL0     H14333   9.224   5.716   4.718  0.3773  0.1618  0.0650
  847MOL0     H14334   9.335   5.703   4.577 -0.6096  0.3691 -1.9366
  847MOL0     H14335   9.220   5.455   4.543 -4.5090 -1.0770 -0.1150
  847MOL0     H14336   9.138   5.511   4.698  1.2831  2.4670  2.0175
  847MOL0     H14337   9.324   5.331   4.721  3.2386  0.0231 -0.9651
  847MOL0     H14338   9.319   5.481   4.828  0.1849 -1.3951  0.3887
  847MOL0     H14339   9.487   5.579   4.660 -0.4259  0.8058  0.3419
  847MOL0     H14340   9.546   5.433   4.742 -2.1390 -0.4167  2.3175
  847MOL0     H14341   9.524   5.304   4.344 -2.2228 -2.8665  0.3184
  847MOL0     H14342   9.343   5.629   4.333 -0.8594 -3.6527  0.3076
  847MOL0     H14343   9.341   5.401   4.185 -0.4674 -0.7658  0.8833
  847MOL0     H14344   9.259   5.459   4.029 -0.2201  1.4101  0.3137
  847MOL0     H14345   9.399   5.545   4.109  1.9479 -2.6608 -1.4217
  848MOL0     O14346  10.884   9.734  11.118 -0.1660  0.3429  0.0288
  848MOL0     C14347  10.868   9.673  11.222  0.4959  0.6152 -0.2869
  848MOL0     O14348  10.936   9.690  11.341 -0.4684 -0.5122  1.1718
  848MOL0     C14349  11.036   9.787  11.342  0.0637  0.8418  0.5521
  848MOL0     C14350  11.018   9.910  11.387 -0.3947 -1.4157 -0.1712
  848MOL0     C14351  11.128   9.996  11.412 -0.1560 -0.6150 -0.1852
  848MOL0     C14352  11.259   9.952  11.384  0.0533 -0.0698 -0.1292
  848MOL0     O14353  11.360  10.048  11.409  0.0319  0.3985 -0.6512
  848MOL0     C14354  11.478  10.005  11.487  0.7865 -0.1517  0.3491
  848MOL0     C14355  11.516  10.122  11.569  0.0482  0.0718  0.5452
  848MOL0     C14356  11.566  10.243  11.486 -0.4078  0.2984 -0.1928
  848MOL0     C14357  11.635  10.344  11.568  0.6036 -0.2388  0.7137
  848MOL0     C14358  11.706  10.452  11.479  0.8202 -0.6164  0.3162
  848MOL0     C14359  11.778  10.559  11.559  0.1801  0.4412  0.9118
  848MOL0     C14360  11.774  10.702  11.505 -0.0395 -0.0949 -0.3793
  848MOL0     C14361  11.665  10.790  11.563 -0.4286  0.5631 -0.0182
  848MOL0     N14362  11.648  10.923  11.519 -0.0817 -0.1853 -0.5374
  848MOL0     C14363  11.521  10.972  11.490 -0.5253  0.3345 -1.3778
  848MOL0     C14364  11.526  11.106  11.481 -0.5665  0.0590 -0.4609
  848MOL0     C14365  11.404  11.190  11.461 -1.0294 -0.2812  0.6767
  848MOL0     C14366  11.437  11.343  11.482 -0.6452  0.6645 -0.5565
  848MOL0     C14367  11.320  11.442  11.499 -0.2130  0.2680 -0.2592
  848MOL0     C14368  11.241  11.408  11.626 -0.5488 -0.9809  0.5609
  848MOL0     O14369  11.121  11.489  11.649  0.1074 -0.9327 -0.0220
  848MOL0     C14370  11.142  11.625  11.666  0.0274 -0.2273 -0.0290
  848MOL0     C14371  11.206  11.670  11.780  0.2601 -0.9740 -0.1576
  848MOL0     C14372  11.226  11.807  11.810 -0.8556 -0.0268  0.4802
  848MOL0     C14373  11.185  11.899  11.711  0.0206 -0.2828 -0.1096
  848MOL0     C14374  11.185  12.044  11.736  0.0738  1.6432  0.7444
  848MOL0     O14375  11.167  12.077  11.871 -0.9997 -0.0810  0.1880
  848MOL0     C14376  11.129  12.193  11.928 -0.4837  0.1453  1.0060
  848MOL0     C14377  11.091  12.306  11.866 -0.6529  0.3025 -0.3620
  848MOL0     C14378  11.044  12.411  11.944  0.5540  1.0579 -0.0213
  848MOL0     C14379  11.040  12.406  12.087 -0.3304 -0.5234  0.0547
  848MOL0     O14380  11.007  12.512  12.166  0.5295  0.0646  0.8348
  848MOL0     C14381  10.868  12.548  12.181  0.4504 -0.1985  0.7479
  848MOL0     C14382  10.836  12.689  12.127  0.3691  0.6016  0.6210
  848MOL0     C14383  10.676  12.718  12.131 -0.2538 -0.4504 -0.4419
  848MOL0     C14384  10.637  12.752  12.280  1.0597 -0.0020  0.6619
  848MOL0     C14385  10.490  12.809  12.297  0.3351 -0.7667 -0.1490
  848MOL0     C14386  10.403  12.700  12.370 -0.6370 -0.2789 -0.4125
  848MOL0     C14387  10.260  12.741  12.347  0.5665  0.6864 -0.8600
  848MOL0     C14388  10.157  12.660  12.431 -0.1217 -0.2860 -1.3134
  848MOL0    Cl14389  10.192  12.704  12.604 -0.1097  0.1385 -0.1729
  848MOL0     C14390  11.083  12.287  12.146 -0.0449  0.2491  0.0776
  848MOL0     C14391  11.122  12.175  12.068 -0.3338 -0.5841 -0.4845
  848MOL0     O14392  11.196  12.121  11.637  0.7150  0.4873 -0.3088
  848MOL0     C14393  11.135  11.851  11.579  0.0804  0.0207  0.2488
  848MOL0     C14394  11.114  11.716  11.560  0.1416 -0.1048  0.4976
  848MOL0     N14395  11.664  11.141  11.484  0.8701 -0.5778 -0.0978
  848MOL0     N14396  11.733  11.028  11.511 -0.5009 -1.2364 -0.3400
  848MOL0     C14397  11.284   9.832  11.322  1.2908  0.5543 -0.4165
  848MOL0     C14398  11.166   9.746  11.312  0.1557 -1.0201 -0.1856
  848MOL0     C14399  10.792   9.546  11.204  0.3222 -0.3497 -0.4665
  848MOL0     C14400  10.834   9.447  11.294 -0.4117  0.0597  0.0195
  848MOL0     C14401  10.761   9.325  11.298  0.0825  0.0760 -0.2550
  848MOL0     C14402  10.654   9.302  11.218  0.2302 -0.1362  0.4030
  848MOL0     O14403  10.599   9.180  11.223 -0.3472  0.1964  0.1709
  848MOL0     C14404  10.493   9.133  11.133 -0.6830  0.3819  0.4370
  848MOL0     C14405  10.492   8.977  11.149  0.1078 -0.6326  0.0453
  848MOL0     C14406  10.495   8.921  11.293  1.4877  0.7256  1.4406
  848MOL0     C14407  10.407   8.789  11.290 -0.0499 -0.3030 -0.1555
  848MOL0     C14408  10.264   8.822  11.286  0.2107  0.2269  0.3029
  848MOL0     C14409  10.144   8.832  11.300 -0.4457 -0.2738  0.9061
  848MOL0     C14410  10.629   9.391  11.112  0.1798  0.0745  0.1908
  848MOL0     C14411  10.692   9.521  11.108 -0.1907  0.5096  0.4459
  848MOL0     C14412  10.656   9.616  10.992  0.7808 -0.6439 -0.2386
  848MOL0     H14413  10.925   9.941  11.433  0.9660  0.3276  1.6363
  848MOL0     H14414  11.099  10.095  11.447 -2.1118 -0.8206 -1.1042
  848MOL0     H14415  11.460   9.932  11.566 -1.6523  0.5073  0.4975
  848MOL0     H14416  11.563   9.973  11.427  0.1162 -1.1357 -0.1097
  848MOL0     H14417  11.592  10.092  11.642  2.3997  1.7636 -1.0439
  848MOL0     H14418  11.436  10.156  11.636  1.0064  0.7427  1.3851
  848MOL0     H14419  11.477  10.287  11.441  0.8877  2.6410 -0.6610
  848MOL0     H14420  11.629  10.193  11.411  0.3587 -0.2554  0.7974
  848MOL0     H14421  11.556  10.379  11.634  1.3825 -1.4027  2.3145
  848MOL0     H14422  11.717  10.301  11.626  0.3135 -1.9624 -0.1043
  848MOL0     H14423  11.770  10.395  11.411 -0.5647  2.9579 -4.5468
  848MOL0     H14424  11.631  10.502  11.417  1.9277  0.2490 -0.3607
  848MOL0     H14425  11.733  10.553  11.659 -0.8377 -2.9748  0.3529
  848MOL0     H14426  11.882  10.531  11.579  0.7207  0.0369 -2.1094
  848MOL0     H14427  11.758  10.697  11.397 -0.4569 -4.3969 -0.2677
  848MOL0     H14428  11.871  10.749  11.525  1.3243 -2.1993 -1.6784
  848MOL0     H14429  11.570  10.739  11.546 -0.5005 -0.1072  2.0534
  848MOL0     H14430  11.679  10.794  11.671 -0.9294  0.8998  0.0352
  848MOL0     H14431  11.426  10.919  11.483  0.5264 -1.4535 -3.1323
  848MOL0     H14432  11.373  11.171  11.358 -1.0496 -1.1290  0.8295
  848MOL0     H14433  11.325  11.165  11.532  1.0610 -1.0099  2.8996
  848MOL0     H14434  11.507  11.345  11.566 -2.0691  1.6968  0.6747
  848MOL0     H14435  11.495  11.379  11.397 -0.2784  1.8786  0.1866
  848MOL0     H14436  11.267  11.424  11.405 -1.0193 -3.9031  0.7969
  848MOL0     H14437  11.358  11.544  11.514  0.4139  0.3579 -2.2339
  848MOL0     H14438  11.314  11.415  11.706 -1.8261  1.0676  1.6367
  848MOL0     H14439  11.213  11.304  11.603 -0.1107 -0.4808 -2.8340
  848MOL0     H14440  11.215  11.587  11.850 -0.3521 -0.7106  0.2456
  848MOL0     H14441  11.272  11.839  11.903 -2.9780 -1.6854  2.2184
  848MOL0     H14442  11.096  12.317  11.758  0.7580  1.9396 -0.1701
  848MOL0     H14443  11.022  12.510  11.907  1.1884  1.2460  0.0892
  848MOL0     H14444  10.799  12.477  12.135 -0.9097  1.0148  0.8529
  848MOL0     H14445  10.849  12.556  12.288 -0.9783  2.6359  0.3632
  848MOL0     H14446  10.892  12.763  12.185  5.1044 -0.6398 -1.8273
  848MOL0     H14447  10.874  12.691  12.025 -1.9818 -1.6634 -0.4094
  848MOL0     H14448  10.660  12.809  12.074 -0.3235  0.9708  1.7369
  848MOL0     H14449  10.625  12.630  12.088 -0.8198 -0.0904 -0.5169
  848MOL0     H14450  10.701  12.833  12.317  0.9040  0.6428 -0.4431
  848MOL0     H14451  10.649  12.663  12.343 -4.0523 -1.2953  0.2730
  848MOL0     H14452  10.458  12.841  12.197  1.4005  2.8749  0.5565
  848MOL0     H14453  10.491  12.899  12.359  2.8115  2.1440 -3.9175
  848MOL0     H14454  10.417  12.598  12.334  2.5246 -0.5318  1.1821
  848MOL0     H14455  10.415  12.706  12.479 -2.5409 -0.2446 -0.1757
  848MOL0     H14456  10.237  12.712  12.244  3.0014  0.3038 -1.3582
  848MOL0     H14457  10.249  12.847  12.370  5.4454  1.8726 -2.6588
  848MOL0     H14458  10.056  12.691  12.401 -0.5455 -0.4653 -0.1513
  848MOL0     H14459  10.167  12.552  12.422 -0.1205 -0.4975  0.8022
  848MOL0     H14460  11.106  12.294  12.252  5.5163 -0.4596 -0.7851
  848MOL0     H14461  11.158  12.084  12.114  0.9248  0.3885  0.5264
  848MOL0     H14462  11.119  11.917  11.494  3.3298  0.3641 -0.2276
  848MOL0     H14463  11.059  11.674  11.476  0.1178  0.6134  0.1414
  848MOL0     H14464  11.375   9.805  11.271  0.4002 -3.3092 -0.3143
  848MOL0     H14465  11.182   9.640  11.292 -1.7012 -1.7078  1.6496
  848MOL0     H14466  10.903   9.472  11.374  0.2046  1.0643 -0.8073
  848MOL0     H14467  10.789   9.252  11.374 -0.6953  1.4616  1.4128
  848MOL0     H14468  10.521   9.136  11.028 -0.5982 -3.6380  0.1844
  848MOL0     H14469  10.395   9.172  11.161 -1.0957 -2.3564  3.5570
  848MOL0     H14470  10.571   8.931  11.089 -2.2281 -0.7437 -3.2004
  848MOL0     H14471  10.402   8.938  11.099  0.1067  0.2519 -0.6560
  848MOL0     H14472  10.456   9.000  11.358  0.2609 -1.0238  2.8990
  848MOL0     H14473  10.592   8.892  11.333  0.4724  0.7322  4.0491
  848MOL0     H14474  10.424   8.723  11.204  1.1441 -1.6298  1.0303
  848MOL0     H14475  10.431   8.729  11.379 -1.5863  0.0460  0.5416
  848MOL0     H14476  10.042   8.863  11.288 -1.0239 -3.0089 -4.1884
  848MOL0     H14477  10.550   9.376  11.040 -0.0137  1.8343 -0.0161
  848MOL0     H14478  10.560   9.579  10.953  0.9385 -1.5953  0.2343
  848MOL0     H14479  10.648   9.721  11.024  0.4364 -1.1721  1.5685
  848MOL0     H14480  10.718   9.601  10.904  1.5210 -3.2902  0.6289
  849MOL0     O14481  10.651   9.166   3.872  0.7713 -0.3844 -0.1527
  849MOL0     C14482  10.542   9.228   3.864  0.4141  0.1132  0.1892
  849MOL0     O14483  10.549   9.355   3.831 -0.4814  0.4642 -0.6665
  849MOL0     C14484  10.448   9.400   3.752 -0.3693  1.0420  0.0388
  849MOL0     C14485  10.369   9.493   3.814  0.6308 -0.2695  0.0255
  849MOL0     C14486  10.259   9.543   3.749  0.1670  0.2806  0.7265
  849MOL0     C14487  10.240   9.515   3.613 -0.0868  1.0119  0.3204
  849MOL0     O14488  10.134   9.573   3.556 -0.7536 -0.7713  0.5552
  849MOL0     C14489  10.165   9.614   3.418 -0.9251 -0.5369 -0.0702
  849MOL0     C14490  10.028   9.642   3.343  0.1111  0.3263 -0.0444
  849MOL0     C14491  10.028   9.777   3.276 -0.5943 -0.6755 -0.1223
  849MOL0     C14492   9.888   9.833   3.277 -0.2451 -0.2318  0.3392
  849MOL0     C14493   9.842   9.893   3.419  0.0106 -0.8886 -0.1317
  849MOL0     C14494   9.747  10.002   3.414  1.1256 -0.6390  0.0655
  849MOL0     C14495   9.687  10.053   3.542  0.8224 -0.8726 -0.2717
  849MOL0     C14496   9.712  10.205   3.568 -0.0100  0.2286  0.3306
  849MOL0     N14497   9.634  10.252   3.689  0.4459  0.6418  0.6812
  849MOL0     C14498   9.615  10.177   3.804  0.4000  0.2948 -0.2252
  849MOL0     C14499   9.516  10.241   3.884 -0.4854 -0.0391 -0.4981
  849MOL0     C14500   9.469  10.187   4.022  0.0819 -0.0595 -0.3091
  849MOL0     C14501   9.322  10.132   4.036 -0.2874 -0.8171 -0.4240
  849MOL0     C14502   9.221  10.231   3.987  0.1469 -0.2861  0.1635
  849MOL0     C14503   9.085  10.197   4.021  0.0214 -0.0189 -0.2679
  849MOL0     O14504   9.020  10.329   4.032  0.0402  0.5352  0.1848
  849MOL0     C14505   8.947  10.382   3.932  0.0351 -0.0092 -0.1183
  849MOL0     C14506   8.824  10.450   3.963 -0.4187 -0.7380  0.3544
  849MOL0     C14507   8.758  10.526   3.866 -1.3507  0.4053  0.8949
  849MOL0     C14508   8.802  10.535   3.731 -0.4393  1.0260 -0.4010
  849MOL0     C14509   8.730  10.602   3.623  0.3757  0.6617  0.2907
  849MOL0     O14510   8.611  10.646   3.656  0.5091 -0.1653  0.3580
  849MOL0     C14511   8.552  10.724   3.560 -0.2459  0.7562  0.3856
  849MOL0     C14512   8.558  10.870   3.568 -0.1624  0.9336  0.4630
  849MOL0     C14513   8.476  10.934   3.465 -0.4812 -0.9555 -0.2060
  849MOL0     C14514   8.394  10.872   3.372  0.3653 -0.1302 -0.0852
  849MOL0     O14515   8.329  10.932   3.273  0.2778  0.0265 -0.3210
  849MOL0     C14516   8.247  11.042   3.313 -0.5744  0.5697 -0.4672
  849MOL0     C14517   8.224  11.125   3.196  0.0185 -0.7126  0.3337
  849MOL0     C14518   8.135  11.244   3.228 -0.4494  0.3296 -0.7749
  849MOL0     C14519   7.994  11.208   3.185 -0.6225 -0.1327  0.1042
  849MOL0     C14520   7.886  11.306   3.237  0.3500  0.6972  0.3515
  849MOL0     C14521   7.900  11.441   3.175  0.0094 -0.9740  0.2504
  849MOL0     C14522   7.776  11.529   3.194 -0.2606  1.2339 -0.7026
  849MOL0     C14523   7.754  11.579   3.338 -0.6222  0.2620 -0.1325
  849MOL0    Cl14524   7.889  11.668   3.408  0.1310  0.2019  0.2074
  849MOL0     C14525   8.385  10.732   3.373 -0.3972  0.2095 -0.5428
  849MOL0     C14526   8.462  10.658   3.470  0.2980  0.5320  0.8969
  849MOL0     O14527   8.795  10.633   3.523 -0.6387 -0.3159 -0.0948
  849MOL0     C14528   8.914  10.457   3.702 -0.3254 -0.1514  0.0459
  849MOL0     C14529   8.986  10.388   3.801  0.1890  0.1613  0.4112
  849MOL0     N14530   9.480  10.356   3.814 -0.7351  0.0071 -0.6612
  849MOL0     N14531   9.555  10.358   3.703  0.2355 -0.0755 -0.2200
  849MOL0     C14532  10.325   9.415   3.554 -1.0586 -0.0882 -0.6094
  849MOL0     C14533  10.432   9.360   3.624 -0.1435  0.2370  1.0086
  849MOL0     C14534  10.415   9.153   3.893 -0.2614  0.1082  1.1642
  849MOL0     C14535  10.329   9.201   3.994  0.5409  0.0905 -0.3633
  849MOL0     C14536  10.203   9.148   4.006  0.4710  0.8257 -0.0834
  849MOL0     C14537  10.159   9.047   3.921  0.0013  0.2832  0.2562
  849MOL0     O14538  10.032   8.993   3.943 -0.0494 -0.1860 -0.0283
  849MOL0     C14539   9.985   8.904   3.849  0.1230 -0.2778  0.9905
  849MOL0     C14540   9.865   8.817   3.905  0.0918  0.9024 -0.1306
  849MOL0     C14541   9.917   8.725   4.022  0.2127  0.2770  0.0185
  849MOL0     C14542   9.813   8.608   4.071 -0.1394  0.0184  0.3122
  849MOL0     C14543   9.698   8.671   4.137 -0.6072  0.1459 -0.0353
  849MOL0     C14544   9.594   8.731   4.182 -0.2777  0.3233  0.4282
  849MOL0     C14545  10.251   8.995   3.828  0.0524 -0.1387 -1.0879
  849MOL0     C14546  10.376   9.051   3.808 -1.1144 -0.2960  0.8823
  849MOL0     C14547  10.461   9.003   3.697 -0.5556 -0.1068  0.2722
  849MOL0     H14548  10.382   9.537   3.913  0.1263  0.6860 -0.3124
  849MOL0     H14549  10.178   9.604   3.789 -0.8163  1.2467 -2.4339
  849MOL0     H14550  10.228   9.703   3.425 -3.6845  1.6429 -1.0894
  849MOL0     H14551  10.220   9.535   3.367 -0.3192 -0.1697  0.0034
  849MOL0     H14552   9.948   9.643   3.417  0.7597  1.1619  0.6637
  849MOL0     H14553  10.011   9.563   3.270 -3.3254  1.1672 -0.3695
  849MOL0     H14554  10.055   9.762   3.171 -1.6754  0.5518 -0.6020
  849MOL0     H14555  10.103   9.840   3.324 -3.2281  1.0050  2.0851
  849MOL0     H14556   9.893   9.924   3.215 -1.9339 -1.5449 -1.8846
  849MOL0     H14557   9.816   9.770   3.224 -0.4588 -0.0994  0.4723
  849MOL0     H14558   9.793   9.809   3.469  1.7276 -1.3654  0.8136
  849MOL0     H14559   9.933   9.902   3.478  0.2778 -1.1778 -0.4944
  849MOL0     H14560   9.806  10.080   3.365  1.2991 -0.3170  0.7760
  849MOL0     H14561   9.659   9.975   3.354  1.3667 -5.4949  1.4846
  849MOL0     H14562   9.736   9.998   3.623 -0.6715 -1.1929  0.4378
  849MOL0     H14563   9.580  10.036   3.551  1.1568 -2.7352  0.7494
  849MOL0     H14564   9.819  10.205   3.586 -0.1264 -1.1243  1.1793
  849MOL0     H14565   9.708  10.268   3.478 -0.2096 -1.7336 -1.1015
  849MOL0     H14566   9.665  10.088   3.840 -1.4710 -1.1873 -1.1815
  849MOL0     H14567   9.533  10.106   4.058 -0.5904 -0.6458 -0.4198
  849MOL0     H14568   9.478  10.263   4.100 -1.5872 -0.6749  0.5416
  849MOL0     H14569   9.305  10.048   3.968 -0.4864  1.0903 -2.8982
  849MOL0     H14570   9.307  10.103   4.140  1.5150 -2.3534 -0.5437
  849MOL0     H14571   9.227  10.224   3.878  0.2362  1.9451 -0.0243
  849MOL0     H14572   9.257  10.333   4.002  5.5239 -1.6658 -1.1111
  849MOL0     H14573   9.079  10.135   4.110  1.0526 -1.0699 -0.9077
  849MOL0     H14574   9.033  10.150   3.936 -3.8780 -1.0107  2.3972
  849MOL0     H14575   8.774  10.452   4.060 -0.5788  3.1080  0.3636
  849MOL0     H14576   8.671  10.581   3.900 -1.2084  1.3394 -0.2063
  849MOL0     H14577   8.630  10.930   3.622  0.1945  0.6268  0.3280
  849MOL0     H14578   8.477  11.042   3.454  1.0777 -0.7852  1.2988
  849MOL0     H14579   8.148  11.004   3.339 -0.2223 -1.3089 -1.6264
  849MOL0     H14580   8.287  11.087   3.404  1.6721 -1.9089 -0.0827
  849MOL0     H14581   8.320  11.168   3.167  0.4760 -1.4011  0.7803
  849MOL0     H14582   8.201  11.065   3.107  0.4810 -1.0655  0.4480
  849MOL0     H14583   8.151  11.272   3.332  1.3332 -0.6865 -0.7279
  849MOL0     H14584   8.171  11.327   3.166  0.3025  0.0589 -0.7066
  849MOL0     H14585   7.967  11.114   3.234 -2.5788 -0.4817 -1.5067
  849MOL0     H14586   7.974  11.195   3.078  0.1754 -2.0567  0.1631
  849MOL0     H14587   7.907  11.309   3.344  0.3411 -2.0723  0.4951
  849MOL0     H14588   7.788  11.259   3.221  1.5196 -1.5064 -0.6744
  849MOL0     H14589   7.983  11.491   3.226 -2.4684  2.4870  1.2847
  849MOL0     H14590   7.923  11.432   3.068 -0.3081  0.4000  0.0447
  849MOL0     H14591   7.680  11.489   3.161 -0.5589 -1.0133  2.3372
  849MOL0     H14592   7.789  11.619   3.134 -0.0493  2.8701  1.6724
  849MOL0     H14593   7.676  11.655   3.336  0.5835  1.5302 -1.4040
  849MOL0     H14594   7.726  11.490   3.395  1.9772 -1.1165 -0.8159
  849MOL0     H14595   8.326  10.676   3.302 -2.4239  3.5046 -1.6460
  849MOL0     H14596   8.464  10.549   3.470 -1.8290  0.4502  0.5700
  849MOL0     H14597   8.946  10.447   3.599  0.3170 -0.8403  0.3021
  849MOL0     H14598   9.074  10.338   3.761  1.7388 -0.1791  3.8521
  849MOL0     H14599  10.300   9.378   3.456 -2.2303 -2.4217  0.4926
  849MOL0     H14600  10.485   9.280   3.574  0.1556  0.7096  0.5662
  849MOL0     H14601  10.348   9.291   4.051  0.7739 -0.0572 -0.2056
  849MOL0     H14602  10.132   9.196   4.073 -0.9734  3.1708 -3.0391
  849MOL0     H14603  10.061   8.827   3.835  2.7739  1.8631  2.5723
  849MOL0     H14604   9.948   8.956   3.760  2.6097  2.3126  1.3589
  849MOL0     H14605   9.848   8.744   3.825 -0.1747 -0.9612  1.5398
  849MOL0     H14606   9.769   8.870   3.914 -1.1093 -1.3068  0.9035
  849MOL0     H14607   9.949   8.796   4.099 -0.0774  1.7299 -1.1706
  849MOL0     H14608  10.010   8.677   3.991 -2.1802 -3.5849 -2.0047
  849MOL0     H14609   9.788   8.534   3.994  0.0545 -1.1627  1.3552
  849MOL0     H14610   9.870   8.539   4.133  1.5852  1.5203  0.4600
  849MOL0     H14611   9.512   8.789   4.218  0.8461  3.5002 -1.7352
  849MOL0     H14612  10.222   8.913   3.762  0.8330 -1.8277  0.5942
  849MOL0     H14613  10.568   9.025   3.697 -0.3175 -1.1344  1.1405
  849MOL0     H14614  10.475   8.894   3.705 -0.5526  0.0235  3.5735
  849MOL0     H14615  10.406   9.041   3.611  0.0832 -2.6325 -1.3609
  850MOL0     O14616   6.818   4.823   1.495 -0.4361  0.1407  0.0639
  850MOL0     C14617   6.740   4.769   1.421  0.0235  0.4561  0.4164
  850MOL0     O14618   6.708   4.630   1.436  0.8297 -0.2831  0.0287
  850MOL0     C14619   6.730   4.579   1.559  0.3367  0.3168 -0.0124
  850MOL0     C14620   6.675   4.637   1.681 -0.3290  0.2681 -0.5157
  850MOL0     C14621   6.712   4.575   1.801  0.5226 -0.7627 -1.1441
  850MOL0     C14622   6.788   4.451   1.803  0.0417 -0.5477 -0.2285
  850MOL0     O14623   6.801   4.400   1.927  0.0569 -0.4680 -0.1302
  850MOL0     C14624   6.923   4.333   1.963  0.2316  0.6274 -0.5264
  850MOL0     C14625   6.963   4.383   2.095 -0.0249  0.5756 -0.4356
  850MOL0     C14626   6.860   4.339   2.211  0.1884  0.4716  0.2678
  850MOL0     C14627   6.902   4.375   2.353  0.5617 -0.0848 -1.1424
  850MOL0     C14628   7.029   4.303   2.408  0.7610  0.5063  1.2980
  850MOL0     C14629   6.999   4.148   2.405  1.0052 -0.6523  0.0008
  850MOL0     C14630   7.112   4.072   2.467 -0.1610  0.8093  0.0507
  850MOL0     C14631   7.093   3.915   2.435 -0.0329 -0.2821 -0.7691
  850MOL0     N14632   7.205   3.820   2.467  0.0852 -1.2947  0.2238
  850MOL0     C14633   7.258   3.799   2.587 -0.5700  0.5692 -1.2260
  850MOL0     C14634   7.383   3.743   2.564  0.3067 -0.2594  0.0600
  850MOL0     C14635   7.482   3.699   2.670  0.0354 -0.0659 -0.1499
  850MOL0     C14636   7.392   3.592   2.744  0.1628 -0.5633 -0.4594
  850MOL0     C14637   7.485   3.504   2.830 -0.6524  0.1627 -0.5922
  850MOL0     C14638   7.399   3.409   2.920  0.6276  0.0726  0.1848
  850MOL0     O14639   7.455   3.390   3.058 -0.8988 -0.2656  0.5138
  850MOL0     C14640   7.389   3.317   3.149  0.4404 -0.1751  0.3192
  850MOL0     C14641   7.305   3.211   3.123  0.0297  0.8956 -0.3968
  850MOL0     C14642   7.236   3.146   3.228 -0.7107  0.3047  0.5318
  850MOL0     C14643   7.249   3.191   3.355  0.2833 -1.1481 -0.8480
  850MOL0     C14644   7.162   3.130   3.459  0.0024  0.9515  0.0129
  850MOL0     O14645   7.052   3.059   3.421  0.5264 -0.3883 -0.7950
  850MOL0     C14646   6.978   3.013   3.532 -0.5851 -0.5797  0.7743
  850MOL0     C14647   6.927   3.103   3.616 -0.0721 -0.7811  0.2034
  850MOL0     C14648   6.856   3.060   3.723  1.0001  0.6050 -0.1963
  850MOL0     C14649   6.831   2.928   3.750  0.2291  0.2962  0.0833
  850MOL0     O14650   6.730   2.895   3.829 -0.1997 -0.0842  0.5425
  850MOL0     C14651   6.603   2.855   3.762 -0.1792 -0.1741 -0.1362
  850MOL0     C14652   6.542   2.745   3.845  0.6049  0.6441  0.9760
  850MOL0     C14653   6.395   2.708   3.828  0.4038  0.2205  0.2592
  850MOL0     C14654   6.357   2.618   3.934  0.1014 -0.7462 -0.7910
  850MOL0     C14655   6.211   2.562   3.922 -0.0289 -1.2158  0.7271
  850MOL0     C14656   6.164   2.507   4.055  0.1510  0.4748 -0.3761
  850MOL0     C14657   6.007   2.505   4.058  0.0129 -0.3769  0.5293
  850MOL0     C14658   5.949   2.509   4.202  0.1281  0.2416 -0.2544
  850MOL0    Cl14659   6.024   2.380   4.301  0.0472 -0.4578  0.2656
  850MOL0     C14660   6.882   2.839   3.659 -0.0135  0.1448  0.2103
  850MOL0     C14661   6.967   2.873   3.551  0.5831 -0.2837  0.6010
  850MOL0     O14662   7.209   3.128   3.566 -0.3430  0.1336 -0.6369
  850MOL0     C14663   7.322   3.306   3.386  0.1680 -0.2309 -0.1681
  850MOL0     C14664   7.388   3.365   3.284  1.3069  0.5980  0.2768
  850MOL0     N14665   7.406   3.741   2.429  0.3843 -0.6208  0.5992
  850MOL0     N14666   7.296   3.777   2.374  0.4354 -0.3525 -1.4000
  850MOL0     C14667   6.821   4.387   1.683 -0.1381  0.1691 -0.2996
  850MOL0     C14668   6.795   4.447   1.560  0.5730 -0.2342 -0.6949
  850MOL0     C14669   6.714   4.817   1.287 -0.7613  0.5674 -0.1443
  850MOL0     C14670   6.647   4.734   1.201 -0.7062  0.7323  1.3948
  850MOL0     C14671   6.620   4.773   1.077 -0.7388 -0.3401  0.4015
  850MOL0     C14672   6.641   4.905   1.039 -0.9248 -0.4060 -0.3177
  850MOL0     O14673   6.606   4.935   0.910 -0.3852 -0.9934  0.6120
  850MOL0     C14674   6.658   5.053   0.841 -0.9915 -0.8303 -0.3113
  850MOL0     C14675   6.789   5.036   0.768 -0.1979 -0.1276 -0.0305
  850MOL0     C14676   6.816   5.119   0.642  0.1103  0.5112 -0.9815
  850MOL0     C14677   6.705   5.144   0.548 -0.4473 -0.6979  0.1905
  850MOL0     C14678   6.629   5.021   0.525  0.6431  0.2617 -0.4731
  850MOL0     C14679   6.568   4.917   0.494  0.0580 -0.1305  0.6597
  850MOL0     C14680   6.709   4.994   1.128 -0.0976  0.3128  0.4186
  850MOL0     C14681   6.740   4.950   1.255  0.9337 -0.0664 -0.1217
  850MOL0     C14682   6.786   5.055   1.348 -0.2979 -0.4228 -0.1249
  850MOL0     H14683   6.613   4.726   1.682 -0.7587 -0.0153 -0.9862
  850MOL0     H14684   6.680   4.612   1.897  2.6596 -5.9343  1.9886
  850MOL0     H14685   6.887   4.233   1.986 -2.0578  1.8630  1.8383
  850MOL0     H14686   6.997   4.310   1.887 -1.4342 -2.5876 -1.3586
  850MOL0     H14687   6.981   4.490   2.082  1.7079  0.5013  0.9457
  850MOL0     H14688   7.058   4.331   2.113 -0.7427 -0.8609 -0.7305
  850MOL0     H14689   6.827   4.236   2.200  0.0951  0.8175 -4.2970
  850MOL0     H14690   6.773   4.403   2.193  0.2269 -0.5146 -4.7333
  850MOL0     H14691   6.913   4.484   2.354 -4.3852  0.8014  3.3757
  850MOL0     H14692   6.823   4.356   2.427  1.4282 -0.9834 -0.4229
  850MOL0     H14693   7.114   4.317   2.340 -0.3257 -2.5282 -0.9391
  850MOL0     H14694   7.059   4.334   2.508 -0.5336  2.3594  1.1506
  850MOL0     H14695   6.905   4.124   2.456  1.1864 -1.3396  0.0312
  850MOL0     H14696   6.976   4.105   2.306 -0.7572 -2.3360  1.0616
  850MOL0     H14697   7.102   4.085   2.575  0.3826  0.9914  0.0780
  850MOL0     H14698   7.214   4.106   2.447  0.9926 -1.1721  2.0705
  850MOL0     H14699   7.002   3.882   2.487 -0.4185  0.0128 -1.2552
  850MOL0     H14700   7.078   3.910   2.327 -3.0933 -0.4527 -0.4404
  850MOL0     H14701   7.212   3.823   2.682 -1.7785  1.3049 -1.9643
  850MOL0     H14702   7.576   3.655   2.637  0.0832 -0.9970  1.1652
  850MOL0     H14703   7.501   3.783   2.737 -0.3451 -0.4511  0.4547
  850MOL0     H14704   7.320   3.632   2.816 -0.9877 -0.2023 -1.7629
  850MOL0     H14705   7.351   3.510   2.683 -1.0320 -1.6132  1.6368
  850MOL0     H14706   7.529   3.577   2.899  0.9084 -0.8125 -0.5145
  850MOL0     H14707   7.553   3.446   2.767 -2.1689  0.2172 -2.3572
  850MOL0     H14708   7.401   3.314   2.866 -3.9448 -2.7261  4.1357
  850MOL0     H14709   7.293   3.438   2.923 -0.2527 -2.1272 -3.1388
  850MOL0     H14710   7.295   3.178   3.020  0.2697  2.3152 -0.8922
  850MOL0     H14711   7.182   3.052   3.220 -0.3871  0.2275 -0.9379
  850MOL0     H14712   6.934   3.209   3.594  3.7445 -0.8003  0.6031
  850MOL0     H14713   6.814   3.127   3.797 -0.1834 -2.1446  1.7956
  850MOL0     H14714   6.552   2.949   3.782  2.1572  0.6121  2.7064
  850MOL0     H14715   6.603   2.832   3.655  0.0373  0.3179 -0.2437
  850MOL0     H14716   6.597   2.659   3.808 -1.1168  0.2345 -0.8197
  850MOL0     H14717   6.566   2.769   3.949  1.4117  0.4595  0.8341
  850MOL0     H14718   6.344   2.805   3.829 -0.4176  0.3984 -6.8839
  850MOL0     H14719   6.365   2.657   3.736 -0.1393  2.3270 -0.8054
  850MOL0     H14720   6.372   2.680   4.023 -0.4471  3.3852 -3.2839
  850MOL0     H14721   6.416   2.527   3.927 -4.3926 -3.8997 -2.1823
  850MOL0     H14722   6.207   2.484   3.845  0.1179  1.3316 -2.0293
  850MOL0     H14723   6.144   2.645   3.899  2.2242  1.0841  2.0101
  850MOL0     H14724   6.193   2.403   4.071 -3.0415 -0.4322  0.1514
  850MOL0     H14725   6.189   2.573   4.139  4.0053 -2.0162  0.6762
  850MOL0     H14726   5.972   2.415   4.008 -2.9072 -0.3450  2.2648
  850MOL0     H14727   5.973   2.595   4.006 -1.1345 -1.6122 -0.9466
  850MOL0     H14728   5.993   2.601   4.243  0.1694  1.7046 -3.2782
  850MOL0     H14729   5.840   2.508   4.206 -0.1163  0.2307 -4.0129
  850MOL0     H14730   6.850   2.736   3.664 -2.2772  0.7411 -0.9410
  850MOL0     H14731   7.014   2.789   3.500  3.1790 -1.0951  4.0158
  850MOL0     H14732   7.337   3.343   3.487  0.5105 -0.4012 -0.1537
  850MOL0     H14733   7.446   3.452   3.312  0.4650  1.1240  0.4264
  850MOL0     H14734   6.866   4.288   1.684  0.6121  0.4468 -1.9853
  850MOL0     H14735   6.812   4.392   1.469 -1.0404 -0.1928 -1.0515
  850MOL0     H14736   6.610   4.633   1.212  3.0441 -0.7084  2.2423
  850MOL0     H14737   6.585   4.708   0.998  1.6430 -1.2196  0.0055
  850MOL0     H14738   6.653   5.148   0.895  1.7996  1.1865 -3.2068
  850MOL0     H14739   6.576   5.065   0.769 -1.7875 -1.6012  0.4423
  850MOL0     H14740   6.782   4.937   0.722  0.6751 -0.0354 -0.3869
  850MOL0     H14741   6.870   5.043   0.841 -1.6554  0.2507  1.6039
  850MOL0     H14742   6.906   5.080   0.594  0.7509  0.1580  0.4597
  850MOL0     H14743   6.833   5.217   0.688 -1.2952  0.3585 -0.0739
  850MOL0     H14744   6.640   5.226   0.583 -1.6835 -0.7003 -1.9071
  850MOL0     H14745   6.749   5.166   0.451 -1.4523 -1.5217 -0.4747
  850MOL0     H14746   6.507   4.832   0.475 -0.6165  0.8250 -1.8724
  850MOL0     H14747   6.730   5.096   1.099 -1.6171  0.7716  0.8423
  850MOL0     H14748   6.794   5.150   1.294 -0.0388 -0.0437  0.5723
  850MOL0     H14749   6.725   5.073   1.436  0.2142 -0.3281  0.2173
  850MOL0     H14750   6.890   5.043   1.379  0.2490 -0.7488 -1.9415
  851MOL0     O14751   0.543   6.824   3.043 -0.3275  0.4952 -0.3065
  851MOL0     C14752   0.629   6.867   3.123 -0.2141  0.1342 -0.5016
  851MOL0     O14753   0.624   6.991   3.177 -0.3454 -0.1106  0.1753
  851MOL0     C14754   0.524   7.076   3.147 -0.0856  0.1937 -0.1070
  851MOL0     C14755   0.480   7.117   3.020  0.1575  0.0192  0.1453
  851MOL0     C14756   0.372   7.197   2.993  0.0008  0.1868 -0.6094
  851MOL0     C14757   0.299   7.242   3.109  1.1737  0.7618  0.6422
  851MOL0     O14758   0.187   7.319   3.098 -0.3557 -0.9915  0.7398
  851MOL0     C14759   0.096   7.318   2.986 -0.0264 -1.1668  0.2353
  851MOL0     C14760  -0.050   7.319   3.041 -0.1001 -0.3134  1.3936
  851MOL0     C14761  -0.071   7.194   3.121  0.7426  0.3998 -0.5680
  851MOL0     C14762  -0.224   7.180   3.154 -0.3772 -0.2309  0.6431
  851MOL0     C14763  -0.250   7.043   3.212  0.0556  1.0119 -0.6192
  851MOL0     C14764  -0.388   7.028   3.278 -0.3833 -0.9521  0.2275
  851MOL0     C14765  -0.508   7.085   3.202  0.0328  0.1143 -0.5236
  851MOL0     C14766  -0.644   7.011   3.231 -0.8279  0.7322  0.2213
  851MOL0     N14767  -0.744   7.050   3.126 -0.9957  0.2026 -0.4638
  851MOL0     C14768  -0.823   6.961   3.057 -1.0212  0.5638  0.8260
  851MOL0     C14769  -0.905   7.038   2.982 -0.3227 -0.2668 -0.3653
  851MOL0     C14770  -1.022   7.002   2.892  0.4617  1.2150  0.0560
  851MOL0     C14771  -1.154   7.012   2.951 -0.0031 -0.5539 -0.6912
  851MOL0     C14772  -1.198   7.155   3.004 -0.2099 -0.5089 -0.5776
  851MOL0     C14773  -1.335   7.157   3.062 -0.2666 -0.2811 -0.3451
  851MOL0     O14774  -1.391   7.281   3.100 -0.0878  0.2576 -0.8700
  851MOL0     C14775  -1.368   7.304   3.233 -0.6762 -0.7803  0.3759
  851MOL0     C14776  -1.480   7.303   3.325  0.0370  0.2348  0.7426
  851MOL0     C14777  -1.468   7.347   3.454  0.6835  0.2660  0.4210
  851MOL0     C14778  -1.342   7.398   3.498  0.1303 -0.6548  0.1130
  851MOL0     C14779  -1.319   7.452   3.638 -0.2009 -0.7767 -0.0553
  851MOL0     O14780  -1.229   7.553   3.646  0.7486 -0.5850 -0.0601
  851MOL0     C14781  -1.174   7.570   3.762  0.7433 -1.0326  1.2011
  851MOL0     C14782  -1.252   7.621   3.870 -0.6112  0.3500 -0.5291
  851MOL0     C14783  -1.191   7.644   3.991  0.1830 -0.0819 -0.2786
  851MOL0     C14784  -1.052   7.598   4.007 -0.7188 -1.1525 -0.8330
  851MOL0     O14785  -0.980   7.607   4.123  0.5282  0.1302 -0.9411
  851MOL0     C14786  -1.063   7.645   4.237  0.3102 -0.0510 -0.0141
  851MOL0     C14787  -0.981   7.686   4.353 -0.1021  0.1187  0.5078
  851MOL0     C14788  -0.887   7.571   4.396 -0.5093  0.6073  0.1457
  851MOL0     C14789  -0.961   7.449   4.444  0.1351  0.6685 -0.0229
  851MOL0     C14790  -0.990   7.465   4.594  0.3123  0.0495  0.3449
  851MOL0     C14791  -1.064   7.350   4.672 -0.5394 -0.4870  0.1954
  851MOL0     C14792  -0.983   7.230   4.677  0.7241  0.4108 -0.0978
  851MOL0     C14793  -1.029   7.128   4.778 -0.3836 -0.3352 -1.0331
  851MOL0    Cl14794  -1.197   7.090   4.762 -0.2554 -0.5421  0.1489
  851MOL0     C14795  -0.974   7.546   3.896  0.1882 -0.5526  0.3035
  851MOL0     C14796  -1.036   7.550   3.773  0.5678  0.4923 -0.2370
  851MOL0     O14797  -1.392   7.419   3.732  0.8688 -0.1288 -0.0587
  851MOL0     C14798  -1.239   7.416   3.402  0.4024 -0.2551 -0.4614
  851MOL0     C14799  -1.246   7.356   3.279 -0.7102  0.4568 -0.1988
  851MOL0     N14800  -0.875   7.172   3.004  0.2180  0.5923  0.1931
  851MOL0     N14801  -0.762   7.176   3.083  0.6078 -0.3927 -0.1448
  851MOL0     C14802   0.335   7.199   3.238 -0.0822 -0.0383 -0.2604
  851MOL0     C14803   0.449   7.127   3.250  0.0796 -0.2375  0.2232
  851MOL0     C14804   0.742   6.774   3.159 -0.3584  0.9636  0.3786
  851MOL0     C14805   0.708   6.641   3.187 -0.5250  0.3680  0.7174
  851MOL0     C14806   0.812   6.557   3.237 -0.1014 -0.2238 -0.0183
  851MOL0     C14807   0.944   6.604   3.257 -0.7152 -0.4890 -0.1016
  851MOL0     O14808   1.034   6.515   3.312 -0.4482  0.8321 -0.7619
  851MOL0     C14809   1.173   6.546   3.300  0.4103  0.3786  0.3037
  851MOL0     C14810   1.259   6.425   3.295 -0.3280  0.3788 -0.2348
  851MOL0     C14811   1.397   6.437   3.383  0.3716 -0.3900 -0.0339
  851MOL0     C14812   1.499   6.326   3.345 -1.2546  0.4428  0.7489
  851MOL0     C14813   1.625   6.344   3.423 -1.2423 -1.6780 -0.6251
  851MOL0     C14814   1.728   6.369   3.488  0.0717  0.1858  0.5291
  851MOL0     C14815   0.965   6.740   3.245 -0.2207  1.0779 -0.2017
  851MOL0     C14816   0.867   6.823   3.194 -0.2067 -0.3561  0.6834
  851MOL0     C14817   0.905   6.972   3.179  0.4170 -0.4413 -0.3411
  851MOL0     H14818   0.534   7.089   2.930  0.4473 -2.2472  0.9536
  851MOL0     H14819   0.339   7.233   2.897 -0.5570 -2.7532 -1.6131
  851MOL0     H14820   0.123   7.407   2.930 -1.3611  1.1533  2.9976
  851MOL0     H14821   0.102   7.232   2.918 -5.0072 -1.7669  0.1329
  851MOL0     H14822  -0.120   7.322   2.957  3.1036  1.2818 -1.4769
  851MOL0     H14823  -0.069   7.405   3.105 -2.8532  0.9114 -0.8746
  851MOL0     H14824  -0.017   7.200   3.215 -1.5604 -0.2818  0.8876
  851MOL0     H14825  -0.037   7.105   3.068 -2.7956  0.4290 -3.2581
  851MOL0     H14826  -0.253   7.267   3.213 -2.1341  0.7147 -1.4732
  851MOL0     H14827  -0.269   7.192   3.054  0.5218  1.2644  0.3955
  851MOL0     H14828  -0.239   6.968   3.134 -1.0091 -0.2726  0.4292
  851MOL0     H14829  -0.177   7.005   3.284  2.7979  1.6905 -2.8516
  851MOL0     H14830  -0.395   6.920   3.291  3.3147 -1.2976  0.5298
  851MOL0     H14831  -0.386   7.075   3.377 -1.3075 -0.5547  0.0649
  851MOL0     H14832  -0.492   7.089   3.093 -0.7355  1.5428 -0.6016
  851MOL0     H14833  -0.521   7.190   3.229 -0.5951  0.1223 -0.8342
  851MOL0     H14834  -0.626   6.903   3.226 -0.5128  0.5946  2.8236
  851MOL0     H14835  -0.692   7.039   3.326 -2.7291  1.1077 -0.8006
  851MOL0     H14836  -0.832   6.853   3.060  0.2676  0.4168  0.2034
  851MOL0     H14837  -1.021   7.066   2.803 -0.0919  2.7250  1.0884
  851MOL0     H14838  -1.007   6.898   2.862 -2.0698  0.1272  2.1573
  851MOL0     H14839  -1.228   6.985   2.876  1.2220 -2.1806 -1.3730
  851MOL0     H14840  -1.161   6.944   3.037 -3.6432  0.1282 -0.2676
  851MOL0     H14841  -1.193   7.235   2.929  0.4737  1.3316  1.3091
  851MOL0     H14842  -1.117   7.176   3.074  0.9089 -1.5056 -1.5397
  851MOL0     H14843  -1.332   7.090   3.148 -0.1452 -0.5259 -0.5415
  851MOL0     H14844  -1.409   7.118   2.993 -0.8591  1.2371 -0.6128
  851MOL0     H14845  -1.570   7.252   3.295 -0.5207  2.5921 -2.1353
  851MOL0     H14846  -1.545   7.342   3.531  0.4299  0.0167  0.1510
  851MOL0     H14847  -1.360   7.632   3.871 -0.6095  0.4656  1.2881
  851MOL0     H14848  -1.251   7.671   4.077 -0.4532  1.8333 -1.2621
  851MOL0     H14849  -1.121   7.732   4.206 -1.7674 -1.2086  0.4114
  851MOL0     H14850  -1.131   7.560   4.250 -0.7737  0.5064 -1.7063
  851MOL0     H14851  -0.919   7.775   4.338 -0.3145  0.3568  1.0105
  851MOL0     H14852  -1.045   7.705   4.440  0.1606  0.9241  0.5378
  851MOL0     H14853  -0.825   7.548   4.310  1.4522 -0.5957  1.7836
  851MOL0     H14854  -0.820   7.605   4.476  1.0341 -2.2439  0.1769
  851MOL0     H14855  -0.893   7.364   4.438 -1.3701 -0.9434  3.0806
  851MOL0     H14856  -1.057   7.419   4.402 -0.5738  0.6858  1.5014
  851MOL0     H14857  -1.061   7.548   4.608 -2.0400 -2.0994  2.1717
  851MOL0     H14858  -0.900   7.491   4.650  0.8088  1.9776 -1.2168
  851MOL0     H14859  -1.092   7.396   4.767  1.7893  0.3708  0.5066
  851MOL0     H14860  -1.149   7.321   4.609 -0.2053 -0.6003 -0.2106
  851MOL0     H14861  -0.886   7.260   4.719  0.4372 -0.2683  1.0758
  851MOL0     H14862  -0.973   7.191   4.575 -1.2279  2.1094 -1.0188
  851MOL0     H14863  -0.961   7.045   4.760  0.7001  0.3771 -0.3923
  851MOL0     H14864  -1.020   7.168   4.880  1.4661 -0.4719 -1.1070
  851MOL0     H14865  -0.869   7.522   3.898  0.5786  1.0681  1.7536
  851MOL0     H14866  -0.987   7.534   3.678 -3.4557 -0.1349 -2.4463
  851MOL0     H14867  -1.150   7.472   3.430  0.1142  0.7971 -1.5378
  851MOL0     H14868  -1.157   7.356   3.217 -0.4578 -1.9547  0.1005
  851MOL0     H14869   0.283   7.209   3.333 -1.1963 -3.3429 -0.4105
  851MOL0     H14870   0.487   7.100   3.348 -0.6033  0.6853  0.7542
  851MOL0     H14871   0.610   6.600   3.161  0.6789 -1.4082 -1.4169
  851MOL0     H14872   0.782   6.454   3.257 -1.7687  0.0154 -1.0730
  851MOL0     H14873   1.201   6.606   3.387 -0.9555 -1.4924  2.0982
  851MOL0     H14874   1.197   6.609   3.214 -0.3719  0.8614  0.4302
  851MOL0     H14875   1.278   6.415   3.187 -0.4815  0.8076 -0.3054
  851MOL0     H14876   1.195   6.341   3.322  0.4986 -0.4550 -0.7999
  851MOL0     H14877   1.376   6.424   3.490  1.9123  0.8748  0.4633
  851MOL0     H14878   1.447   6.532   3.361  0.8285 -1.1573 -2.7087
  851MOL0     H14879   1.459   6.227   3.369 -0.1060 -0.7562 -1.8262
  851MOL0     H14880   1.525   6.328   3.239 -3.2334  0.8566  0.2256
  851MOL0     H14881   1.814   6.386   3.550  0.3653  0.0431  0.1625
  851MOL0     H14882   1.063   6.781   3.264 -0.4695  1.1209  1.1651
  851MOL0     H14883   0.860   7.020   3.092 -1.9999 -0.4531  0.8200
  851MOL0     H14884   0.855   7.018   3.264 -0.4732  1.3107 -1.7430
  851MOL0     H14885   1.012   6.989   3.193  0.1078  0.0615  1.6511
  852MOL0     O14886   1.600   0.788   5.309  0.2190  0.4866  0.0905
  852MOL0     C14887   1.545   0.889   5.259 -1.2552  0.0972  0.0818
  852MOL0     O14888   1.600   1.018   5.263 -0.0608  0.0790  0.0265
  852MOL0     C14889   1.712   1.053   5.336 -0.2168 -0.0360  0.5994
  852MOL0     C14890   1.731   1.006   5.464 -0.0743 -0.6404 -0.5754
  852MOL0     C14891   1.831   1.046   5.550 -0.3957 -0.2921 -0.0541
  852MOL0     C14892   1.913   1.148   5.498  0.2210  0.5533 -0.7693
  852MOL0     O14893   2.019   1.201   5.568  0.2090 -0.5205 -0.1760
  852MOL0     C14894   2.010   1.221   5.714  0.7566 -0.6191 -0.0207
  852MOL0     C14895   2.069   1.356   5.739  0.2472 -1.1998  0.3850
  852MOL0     C14896   2.215   1.373   5.716  0.2245  1.5016 -0.2283
  852MOL0     C14897   2.265   1.499   5.794 -1.0896 -0.0556  0.0613
  852MOL0     C14898   2.413   1.471   5.831 -0.1182  0.5209  0.0185
  852MOL0     C14899   2.438   1.355   5.928  0.5211 -0.2898 -0.1242
  852MOL0     C14900   2.578   1.299   5.909 -0.6773  0.3405 -0.4201
  852MOL0     C14901   2.603   1.186   6.023 -0.4535 -0.7958 -0.3953
  852MOL0     N14902   2.617   1.047   5.983 -0.4913  0.1997  0.0300
  852MOL0     C14903   2.728   0.990   5.925 -1.1220  0.3693  0.1235
  852MOL0     C14904   2.686   0.865   5.890 -0.2135  0.2318  1.5045
  852MOL0     C14905   2.774   0.759   5.824  0.0381 -0.4128  0.3271
  852MOL0     C14906   2.712   0.701   5.692  0.1386 -0.6241  0.1563
  852MOL0     C14907   2.808   0.689   5.574 -0.4614 -0.3331 -0.3791
  852MOL0     C14908   2.838   0.811   5.492  0.0948 -1.3363  0.9161
  852MOL0     O14909   2.860   0.929   5.573 -0.0325  0.2967 -0.0373
  852MOL0     C14910   2.871   1.055   5.518  0.3577 -0.8067  0.1408
  852MOL0     C14911   2.841   1.165   5.595 -0.0393  0.2262 -0.8926
  852MOL0     C14912   2.849   1.294   5.549  0.6594 -0.0917  0.7509
  852MOL0     C14913   2.893   1.322   5.418  0.1288  0.2584 -0.3014
  852MOL0     C14914   2.893   1.456   5.361  0.3519 -0.0647  1.6267
  852MOL0     O14915   2.873   1.554   5.457  0.1447  0.7629  0.1644
  852MOL0     C14916   2.822   1.672   5.419  0.0757 -0.5601  0.0311
  852MOL0     C14917   2.884   1.761   5.342 -0.7725  0.1510  0.0677
  852MOL0     C14918   2.839   1.891   5.328  0.7200 -0.2446  0.9734
  852MOL0     C14919   2.730   1.935   5.407  0.4380  0.0272 -0.3503
  852MOL0     O14920   2.688   2.067   5.416 -0.2919  0.1720  0.7942
  852MOL0     C14921   2.779   2.158   5.473  0.0410 -0.8447  0.8163
  852MOL0     C14922   2.822   2.262   5.359  0.2146 -0.7272 -1.0320
  852MOL0     C14923   2.874   2.391   5.415 -0.4829  0.0973  0.0685
  852MOL0     C14924   3.014   2.382   5.494 -0.6893  0.3204  0.5096
  852MOL0     C14925   3.085   2.517   5.534 -0.9722  0.8534  0.6747
  852MOL0     C14926   2.993   2.614   5.619 -0.4120  0.6944  0.9365
  852MOL0     C14927   2.965   2.581   5.761 -0.4452 -0.3518 -0.0045
  852MOL0     C14928   2.818   2.549   5.778  0.2656 -0.1671 -0.3645
  852MOL0    Cl14929   2.710   2.686   5.748  0.1507 -0.0002 -0.3290
  852MOL0     C14930   2.669   1.845   5.496 -0.3013 -0.4899  0.3622
  852MOL0     C14931   2.711   1.709   5.494  0.0257  0.2031 -0.8292
  852MOL0     O14932   2.897   1.470   5.236 -0.1270  0.0342 -0.2578
  852MOL0     C14933   2.930   1.213   5.339  0.1792  0.2820 -0.2313
  852MOL0     C14934   2.911   1.079   5.383 -0.1406  0.0863  1.1387
  852MOL0     N14935   2.558   0.844   5.937  0.0091  0.1145  0.4728
  852MOL0     N14936   2.512   0.953   5.986 -0.3437  0.2542 -0.3098
  852MOL0     C14937   1.913   1.189   5.361  0.1524 -0.4854  0.1910
  852MOL0     C14938   1.805   1.142   5.282 -0.2520 -0.2733 -0.7561
  852MOL0     C14939   1.420   0.855   5.180  0.0368 -0.5230  0.0929
  852MOL0     C14940   1.369   0.720   5.175  0.8906  0.1102  0.7777
  852MOL0     C14941   1.273   0.694   5.081  0.0738  0.5834 -0.2285
  852MOL0     C14942   1.212   0.783   4.996 -0.1467  0.4184  0.6903
  852MOL0     O14943   1.118   0.745   4.902  0.1166 -0.1636  0.5118
  852MOL0     C14944   1.171   0.644   4.804 -0.5418  0.6304 -0.2122
  852MOL0     C14945   1.103   0.666   4.668 -0.6630 -0.3175  0.2557
  852MOL0     C14946   1.140   0.806   4.615  0.6220  0.1757  1.1705
  852MOL0     C14947   1.085   0.821   4.470  0.0642  0.4217  0.3228
  852MOL0     C14948   1.139   0.723   4.376 -0.9644 -0.7179 -0.6123
  852MOL0     C14949   1.202   0.647   4.314 -0.5630  0.6159 -0.0290
  852MOL0     C14950   1.255   0.911   5.014  0.3022 -0.5899  0.0065
  852MOL0     C14951   1.361   0.954   5.097  0.6452 -0.1746 -0.0497
  852MOL0     C14952   1.403   1.097   5.090  0.5780 -0.6254  0.1776
  852MOL0     H14953   1.665   0.939   5.518  2.0568  0.8591  4.4860
  852MOL0     H14954   1.840   1.010   5.652  0.3489 -0.3108 -0.1236
  852MOL0     H14955   1.904   1.221   5.741  0.9751 -0.2567  0.8704
  852MOL0     H14956   2.056   1.141   5.773 -2.0801 -2.9193 -0.7170
  852MOL0     H14957   2.049   1.378   5.845 -0.4592  0.1744 -0.0168
  852MOL0     H14958   2.015   1.434   5.686  0.1436 -2.0937 -0.8558
  852MOL0     H14959   2.229   1.388   5.609  0.5067 -3.1928 -1.0811
  852MOL0     H14960   2.275   1.283   5.732  0.3207  1.5445 -0.3376
  852MOL0     H14961   2.259   1.585   5.726  1.9731  0.9664  0.9088
  852MOL0     H14962   2.216   1.523   5.889 -0.1892  2.2849  0.0028
  852MOL0     H14963   2.472   1.450   5.741  1.0236  0.6506  0.7184
  852MOL0     H14964   2.455   1.569   5.858  1.2774  0.9529 -3.2166
  852MOL0     H14965   2.428   1.394   6.030 -1.8523  0.6092 -0.6280
  852MOL0     H14966   2.360   1.278   5.931 -0.9102  1.1077  2.8595
  852MOL0     H14967   2.653   1.377   5.917 -0.7855  0.2768  2.1930
  852MOL0     H14968   2.584   1.245   5.814  0.9475 -1.0056  0.4007
  852MOL0     H14969   2.698   1.209   6.073  1.4688 -1.1313 -3.5867
  852MOL0     H14970   2.515   1.188   6.088 -1.0913  0.0933 -1.2553
  852MOL0     H14971   2.824   1.034   5.896  0.4205 -2.8158 -0.0553
  852MOL0     H14972   2.877   0.792   5.813 -0.3797  1.5943  1.8661
  852MOL0     H14973   2.770   0.674   5.893 -1.7731 -2.3677 -1.9933
  852MOL0     H14974   2.670   0.601   5.706  2.9019 -1.7002  1.5296
  852MOL0     H14975   2.635   0.766   5.650 -0.1313 -1.0896 -0.0817
  852MOL0     H14976   2.772   0.609   5.509  0.4408  0.8995 -2.4699
  852MOL0     H14977   2.894   0.640   5.621  1.8870  2.4663 -1.4332
  852MOL0     H14978   2.749   0.815   5.429  0.2311 -1.5036  0.7119
  852MOL0     H14979   2.920   0.796   5.421 -0.9679 -0.4902 -0.5457
  852MOL0     H14980   2.807   1.158   5.698  0.0118  1.0947 -0.8092
  852MOL0     H14981   2.818   1.378   5.609  0.0849  1.0160 -1.0348
  852MOL0     H14982   2.970   1.725   5.287 -1.5954  3.3237 -3.7549
  852MOL0     H14983   2.899   1.968   5.280  0.4398 -0.2928  0.5445
  852MOL0     H14984   2.735   2.209   5.560 -1.1503  0.8544 -0.7215
  852MOL0     H14985   2.875   2.116   5.505  1.2053  0.9868 -0.1357
  852MOL0     H14986   2.900   2.229   5.289  1.3663  3.5463 -2.0206
  852MOL0     H14987   2.738   2.284   5.293  0.4048  0.6386 -0.8477
  852MOL0     H14988   2.875   2.461   5.332 -2.5197 -1.5298 -1.4329
  852MOL0     H14989   2.793   2.420   5.484 -2.6224  0.2453 -2.3627
  852MOL0     H14990   3.092   2.336   5.433  2.7655  2.2059  3.1663
  852MOL0     H14991   3.003   2.324   5.587  2.8646 -0.0594  0.8488
  852MOL0     H14992   3.113   2.555   5.436  2.2806 -0.4773  0.9522
  852MOL0     H14993   3.170   2.492   5.598 -1.9172 -1.0179  1.2915
  852MOL0     H14994   3.038   2.713   5.628 -0.6136  1.0359 -1.2070
  852MOL0     H14995   2.912   2.629   5.547 -0.2526 -0.1077  0.5672
  852MOL0     H14996   2.990   2.659   5.834 -3.9483 -1.1925  2.3628
  852MOL0     H14997   3.027   2.496   5.789 -1.3051 -0.8358  0.4915
  852MOL0     H14998   2.800   2.471   5.703  1.9407 -0.7780 -0.1806
  852MOL0     H14999   2.805   2.519   5.883  2.6527  1.5898  0.5260
  852MOL0     H15000   2.599   1.883   5.570 -1.6093  0.7668 -1.4419
  852MOL0     H15001   2.681   1.642   5.575 -0.0584  1.5250  0.2725
  852MOL0     H15002   2.974   1.241   5.243  0.7457 -1.9523 -0.6795
  852MOL0     H15003   2.909   1.000   5.309 -3.0144 -0.8481  2.0552
  852MOL0     H15004   1.982   1.262   5.320  0.7869 -2.1534 -1.8841
  852MOL0     H15005   1.787   1.182   5.183  0.9044 -0.7512 -1.1784
  852MOL0     H15006   1.407   0.633   5.228 -0.8803 -1.3263 -0.2151
  852MOL0     H15007   1.232   0.594   5.071  0.7939  0.3548 -0.9782
  852MOL0     H15008   1.148   0.544   4.840  2.0079 -0.0937 -0.3914
  852MOL0     H15009   1.280   0.643   4.791 -0.3234 -4.7490 -0.0065
  852MOL0     H15010   0.996   0.645   4.657 -0.3947 -1.5336 -0.1413
  852MOL0     H15011   1.155   0.604   4.594  1.3742 -1.0081  2.1540
  852MOL0     H15012   1.250   0.813   4.615  0.8311 -2.1165  0.5169
  852MOL0     H15013   1.094   0.881   4.680  0.5357  1.5780 -0.4554
  852MOL0     H15014   0.979   0.802   4.489 -0.0388  0.3530 -0.2942
  852MOL0     H15015   1.090   0.928   4.450  3.8167  0.5194  1.1129
  852MOL0     H15016   1.253   0.575   4.252  1.6147  0.1505  2.1428
  852MOL0     H15017   1.201   0.982   4.952 -2.8953 -4.1601 -1.6921
  852MOL0     H15018   1.412   1.140   5.190 -1.1300 -1.3331  0.6794
  852MOL0     H15019   1.498   1.108   5.039 -0.6251  3.2570 -1.5752
  852MOL0     H15020   1.329   1.144   5.025 -0.4882 -0.3360  1.5434
  853MOL0     O15021   1.288   5.917   8.111  0.0993 -0.0082  0.0425
  853MOL0     C15022   1.327   5.857   8.204  0.8082  0.7999 -0.4354
  853MOL0     O15023   1.421   5.754   8.196  0.1347  0.4549 -0.3177
  853MOL0     C15024   1.511   5.759   8.087  0.8255 -0.2137  0.5111
  853MOL0     C15025   1.587   5.872   8.060 -0.1504  0.1264 -0.1972
  853MOL0     C15026   1.681   5.857   7.959  0.9385  0.0026 -0.2981
  853MOL0     C15027   1.695   5.733   7.889 -0.1237 -0.5256  0.3766
  853MOL0     O15028   1.810   5.722   7.812 -0.0323  0.4982  0.0364
  853MOL0     C15029   1.909   5.627   7.855  0.2138  0.5472  0.4493
  853MOL0     C15030   2.029   5.658   7.772  0.6679 -0.0204 -0.3838
  853MOL0     C15031   2.007   5.631   7.627 -0.3065  0.4675  0.3091
  853MOL0     C15032   2.141   5.588   7.555 -0.1272  0.0198  0.2773
  853MOL0     C15033   2.200   5.456   7.609  0.0950  0.3020  1.1199
  853MOL0     C15034   2.103   5.330   7.608  0.4541 -0.4429 -1.2058
  853MOL0     C15035   2.177   5.199   7.619 -0.6917 -0.0421 -0.5641
  853MOL0     C15036   2.219   5.181   7.757 -0.2177 -0.3120 -0.7026
  853MOL0     N15037   2.122   5.217   7.860  0.4373 -0.2303  0.5152
  853MOL0     C15038   2.026   5.125   7.898 -0.1436 -0.7567  0.4191
  853MOL0     C15039   1.947   5.193   7.982 -0.2765  0.2185 -0.1128
  853MOL0     C15040   1.801   5.170   8.022 -0.2141  0.2834  0.1403
  853MOL0     C15041   1.751   5.029   7.980  0.1913  0.2534 -0.1841
  853MOL0     C15042   1.631   5.004   8.072  0.9988  0.5190 -0.0955
  853MOL0     C15043   1.604   4.852   8.077  0.2328  0.2385  0.0193
  853MOL0     O15044   1.638   4.785   7.947  0.2168  0.0964 -1.0708
  853MOL0     C15045   1.544   4.780   7.848  1.3451  0.7642 -1.2143
  853MOL0     C15046   1.552   4.669   7.759 -1.0277  0.0983 -1.3312
  853MOL0     C15047   1.455   4.645   7.668 -0.8894  0.1604 -0.1856
  853MOL0     C15048   1.340   4.737   7.644  0.4539 -0.7401 -0.0749
  853MOL0     C15049   1.240   4.730   7.531 -0.1439 -0.0981 -0.6522
  853MOL0     O15050   1.232   4.622   7.449 -0.9940 -0.2298 -0.1549
  853MOL0     C15051   1.201   4.634   7.311  0.9332  0.4095 -0.3360
  853MOL0     C15052   1.198   4.746   7.223  0.9798 -0.1867  0.1662
  853MOL0     C15053   1.153   4.730   7.088 -0.1786 -0.3747 -0.9928
  853MOL0     C15054   1.128   4.606   7.029 -0.0008 -0.3380  0.3768
  853MOL0     O15055   1.110   4.598   6.892 -0.0883  0.1250  0.8500
  853MOL0     C15056   1.089   4.480   6.828 -0.7312 -0.1250 -0.5908
  853MOL0     C15057   1.051   4.494   6.687  0.9100 -0.3634  0.5758
  853MOL0     C15058   1.129   4.388   6.595  0.3836 -0.1841 -0.3105
  853MOL0     C15059   1.063   4.369   6.463 -0.0691 -0.4676 -0.2959
  853MOL0     C15060   1.057   4.227   6.405 -0.1868  0.9291  0.8278
  853MOL0     C15061   0.966   4.130   6.488 -0.1946  0.1409 -0.3747
  853MOL0     C15062   0.817   4.146   6.448 -0.4502 -0.3641 -0.3411
  853MOL0     C15063   0.723   4.080   6.550  0.4619  0.0913 -0.6783
  853MOL0    Cl15064   0.567   4.170   6.557 -0.1658  0.2426 -0.0305
  853MOL0     C15065   1.132   4.492   7.115  0.8977  0.0499 -0.4156
  853MOL0     C15066   1.176   4.502   7.250  1.0906 -0.3342  0.2706
  853MOL0     O15067   1.185   4.835   7.518  0.0485 -0.6738  0.3277
  853MOL0     C15068   1.347   4.850   7.729  0.9437 -0.7904  0.4946
  853MOL0     C15069   1.436   4.869   7.833  1.0624 -0.5057  0.0164
  853MOL0     N15070   1.995   5.325   7.994  0.5721 -0.5570 -0.0852
  853MOL0     N15071   2.107   5.339   7.927 -0.6658 -0.6506 -0.0714
  853MOL0     C15072   1.611   5.624   7.916 -0.1468 -0.0689 -0.6091
  853MOL0     C15073   1.526   5.634   8.022  0.4866 -0.4310 -0.2601
  853MOL0     C15074   1.246   5.878   8.330 -0.0310  0.3592  0.6302
  853MOL0     C15075   1.157   5.982   8.333 -0.3180 -0.7517  0.3777
  853MOL0     C15076   1.072   6.001   8.452  0.5316 -0.6140  0.9842
  853MOL0     C15077   1.073   5.910   8.558 -0.1773 -0.3227  0.3306
  853MOL0     O15078   0.993   5.933   8.660  0.0942 -0.3004  0.5776
  853MOL0     C15079   0.976   5.840   8.769  0.7094  0.6128 -0.4266
  853MOL0     C15080   0.903   5.916   8.874 -0.3096  0.1640 -0.1770
  853MOL0     C15081   0.834   5.822   8.980 -0.0540  1.0592 -0.6538
  853MOL0     C15082   0.749   5.902   9.078 -0.3066 -0.5861 -0.5813
  853MOL0     C15083   0.667   6.005   9.005  0.3877  0.3680 -0.2361
  853MOL0     C15084   0.613   6.097   8.942  0.5086  0.1704 -0.0198
  853MOL0     C15085   1.158   5.799   8.553  1.2663 -0.0544  0.2573
  853MOL0     C15086   1.244   5.787   8.441 -0.1396 -0.4428 -0.7716
  853MOL0     C15087   1.308   5.651   8.443 -0.1169 -0.1426  0.2337
  853MOL0     H15088   1.571   5.966   8.112  0.3399  1.3149 -2.0911
  853MOL0     H15089   1.752   5.933   7.927  0.3239  0.5485 -0.3910
  853MOL0     H15090   1.941   5.628   7.959 -1.2120 -3.6749  1.1198
  853MOL0     H15091   1.877   5.524   7.836  1.5744  0.1050  0.4857
  853MOL0     H15092   2.110   5.599   7.815 -0.9579  0.2188  3.3342
  853MOL0     H15093   2.058   5.762   7.787 -2.3071  0.4177  4.6656
  853MOL0     H15094   1.978   5.727   7.584  0.7038 -0.0461 -1.6544
  853MOL0     H15095   1.937   5.550   7.604 -2.5156  2.2851  0.3614
  853MOL0     H15096   2.128   5.582   7.447 -0.3733 -1.3020  0.3682
  853MOL0     H15097   2.218   5.663   7.575  2.1018 -2.3941  1.2662
  853MOL0     H15098   2.290   5.438   7.548  1.1074  4.3419  1.1384
  853MOL0     H15099   2.246   5.464   7.708 -0.2084  1.0603  1.2058
  853MOL0     H15100   2.015   5.340   7.673  1.7505  0.7003  0.4707
  853MOL0     H15101   2.068   5.326   7.504 -2.0894  0.4110 -0.4736
  853MOL0     H15102   2.256   5.179   7.547  0.1599 -1.5430  0.7398
  853MOL0     H15103   2.107   5.124   7.582 -2.9587  2.0067 -0.7097
  853MOL0     H15104   2.247   5.078   7.781 -1.0891 -1.1874 -3.1347
  853MOL0     H15105   2.303   5.250   7.771 -0.1256 -0.9954  3.1718
  853MOL0     H15106   2.030   5.025   7.856  4.6984  0.2753 -2.4014
  853MOL0     H15107   1.780   5.192   8.127  2.1514  0.8915  0.5381
  853MOL0     H15108   1.750   5.243   7.959 -0.9118 -0.0115  0.3482
  853MOL0     H15109   1.732   5.022   7.872 -0.4615 -1.1427  0.0020
  853MOL0     H15110   1.824   4.957   8.018  1.3312  1.2362 -0.4455
  853MOL0     H15111   1.532   5.041   8.044  1.1976  2.3746  1.4515
  853MOL0     H15112   1.642   5.037   8.175  1.4016  1.5649 -0.4564
  853MOL0     H15113   1.500   4.830   8.102  0.8212 -2.5604  0.3316
  853MOL0     H15114   1.665   4.816   8.160 -0.0313  0.9682  0.5398
  853MOL0     H15115   1.638   4.603   7.764 -3.3179 -3.0266  0.1268
  853MOL0     H15116   1.463   4.555   7.607  2.1797  0.4258 -0.3312
  853MOL0     H15117   1.232   4.845   7.252  1.1917 -0.4348  0.7693
  853MOL0     H15118   1.156   4.821   7.030 -2.3128  1.3256  1.3237
  853MOL0     H15119   1.185   4.427   6.826 -1.6085 -1.8995  0.5789
  853MOL0     H15120   1.018   4.422   6.888 -0.3834  2.0838  2.1357
  853MOL0     H15121   0.943   4.489   6.673  1.0290  0.4416 -0.8164
  853MOL0     H15122   1.082   4.595   6.657 -0.6807 -0.0366 -0.0763
  853MOL0     H15123   1.235   4.417   6.590  1.4318 -1.3489  5.9515
  853MOL0     H15124   1.123   4.291   6.646  1.0375  0.3480  0.8295
  853MOL0     H15125   1.118   4.437   6.396  1.7107  0.9463  2.4320
  853MOL0     H15126   0.958   4.397   6.474 -0.9997 -3.9445  0.9707
  853MOL0     H15127   1.156   4.182   6.393 -0.4980  0.2569  0.7511
  853MOL0     H15128   1.011   4.227   6.305 -0.4726  1.1764  0.9575
  853MOL0     H15129   0.987   4.027   6.455 -0.4340 -0.6269  1.7042
  853MOL0     H15130   0.989   4.135   6.595  1.0558  0.6166 -0.6465
  853MOL0     H15131   0.796   4.119   6.344  1.3633  0.9160 -1.1021
  853MOL0     H15132   0.792   4.252   6.457 -1.8065 -0.7230  0.3648
  853MOL0     H15133   0.718   3.972   6.530  2.1417 -1.0788  3.8721
  853MOL0     H15134   0.762   4.083   6.652  0.2272 -3.9352 -0.2975
  853MOL0     H15135   1.126   4.389   7.082 -0.0359  0.1226 -0.5081
  853MOL0     H15136   1.183   4.410   7.306 -1.4548  0.1234  1.4598
  853MOL0     H15137   1.273   4.929   7.726  1.1004 -0.1418  5.2964
  853MOL0     H15138   1.432   4.956   7.897  2.2304  2.2839 -3.3871
  853MOL0     H15139   1.645   5.532   7.870  2.7058 -0.6584  2.3705
  853MOL0     H15140   1.467   5.552   8.060  1.6783 -1.3445 -0.3266
  853MOL0     H15141   1.148   6.041   8.243 -2.3019 -0.3671  0.7818
  853MOL0     H15142   1.005   6.086   8.460  0.2950 -0.2775 -2.6706
  853MOL0     H15143   1.071   5.802   8.808  0.7862  2.9389  1.9408
  853MOL0     H15144   0.906   5.760   8.744 -0.2544  0.0258  3.5252
  853MOL0     H15145   0.832   5.978   8.820 -0.0191  0.4052 -0.2854
  853MOL0     H15146   0.952   5.999   8.925  1.3324 -1.6656  1.4338
  853MOL0     H15147   0.906   5.769   9.043 -2.2384  0.3427  1.3785
  853MOL0     H15148   0.780   5.743   8.927  3.0881 -2.6697  1.2144
  853MOL0     H15149   0.694   5.840   9.149  0.6810  0.0798  0.7970
  853MOL0     H15150   0.824   5.957   9.135 -0.3618 -0.3447 -0.7406
  853MOL0     H15151   0.567   6.181   8.894 -2.8844 -0.4412  1.8695
  853MOL0     H15152   1.154   5.725   8.632  0.4591 -0.3195 -0.0296
  853MOL0     H15153   1.292   5.588   8.531  2.8623  2.3486  2.7897
  853MOL0     H15154   1.282   5.600   8.350  1.2360 -1.6344  0.6333
  853MOL0     H15155   1.416   5.662   8.443  0.1927 -2.5128 -0.8630
  854MOL0     O15156   6.272   9.752   6.967 -0.0069 -1.1677 -0.5098
  854MOL0     C15157   6.275   9.875   6.948 -0.0489  1.0811  0.3384
  854MOL0     O15158   6.169   9.941   6.900 -0.5364  0.5393 -0.2269
  854MOL0     C15159   6.041   9.882   6.913  0.1796  0.0769  0.2275
  854MOL0     C15160   5.949   9.935   6.999  0.6514  0.1788  0.6569
  854MOL0     C15161   5.823   9.873   7.029 -0.2704 -0.2026  0.0604
  854MOL0     C15162   5.784   9.754   6.964  1.6681 -0.1645 -0.2484
  854MOL0     O15163   5.676   9.677   7.013  1.0812 -0.5708  0.1551
  854MOL0     C15164   5.569   9.758   7.072 -0.4627 -0.0710  0.7998
  854MOL0     C15165   5.438   9.679   7.064  1.0096  0.0490  0.1184
  854MOL0     C15166   5.450   9.540   7.128  0.2222  1.2765 -0.4277
  854MOL0     C15167   5.487   9.544   7.275 -0.3928  0.4603  0.5223
  854MOL0     C15168   5.528   9.409   7.334 -0.2368 -0.1829  0.8108
  854MOL0     C15169   5.587   9.415   7.475 -0.0585  0.0913 -0.4873
  854MOL0     C15170   5.614   9.278   7.537 -0.9215  0.2629 -0.2050
  854MOL0     C15171   5.626   9.291   7.690 -0.4117 -0.1777 -0.1505
  854MOL0     N15172   5.610   9.162   7.743  0.2342  0.2874  0.6243
  854MOL0     C15173   5.696   9.046   7.730  0.7593 -0.1924 -0.4888
  854MOL0     C15174   5.631   8.948   7.786  0.1287  1.1985 -0.2055
  854MOL0     C15175   5.694   8.808   7.815 -0.6962 -0.1869 -0.4169
  854MOL0     C15176   5.658   8.683   7.723 -0.0558 -0.0819 -0.9516
  854MOL0     C15177   5.761   8.658   7.622 -0.3050 -0.1507  0.1027
  854MOL0     C15178   5.707   8.563   7.513  0.5309 -0.3818  0.1272
  854MOL0     O15179   5.696   8.440   7.577 -0.2159  0.4377  0.5722
  854MOL0     C15180   5.582   8.363   7.558 -0.2755  0.1700  0.8216
  854MOL0     C15181   5.526   8.334   7.432 -0.9562  0.0132 -0.0927
  854MOL0     C15182   5.408   8.273   7.407  0.5093 -0.0408 -0.2386
  854MOL0     C15183   5.333   8.232   7.518 -0.9154  0.0360 -0.3023
  854MOL0     C15184   5.210   8.161   7.510  0.2034  0.2103  0.0992
  854MOL0     O15185   5.157   8.101   7.620 -0.1503  0.1482  0.3275
  854MOL0     C15186   5.027   8.077   7.643 -0.1909 -0.3417  0.3652
  854MOL0     C15187   4.999   7.986   7.741 -0.3097  0.0742 -0.5633
  854MOL0     C15188   4.872   7.948   7.772  0.9661  0.0611  0.2143
  854MOL0     C15189   4.762   7.998   7.704  0.6964  1.4780 -0.4387
  854MOL0     O15190   4.636   7.980   7.750 -0.1608 -0.9774 -0.1596
  854MOL0     C15191   4.549   7.894   7.674 -0.4780  1.2213  0.1807
  854MOL0     C15192   4.396   7.925   7.695 -0.1516 -0.2320  0.0489
  854MOL0     C15193   4.356   8.060   7.637 -1.0509 -0.0639 -0.9818
  854MOL0     C15194   4.253   8.131   7.729 -0.6697  0.3795  0.3980
  854MOL0     C15195   4.327   8.203   7.849 -0.6078  0.9783  0.3122
  854MOL0     C15196   4.253   8.328   7.910  0.2014  0.0634  0.4978
  854MOL0     C15197   4.113   8.293   7.951  0.3360 -0.2203  0.5598
  854MOL0     C15198   4.044   8.397   8.037  0.3031  0.0732 -0.4025
  854MOL0    Cl15199   4.054   8.568   7.980  0.0310 -0.0638  0.2741
  854MOL0     C15200   4.779   8.092   7.606 -0.3440  0.5154  0.4744
  854MOL0     C15201   4.912   8.126   7.572  0.0660  0.0341 -0.2742
  854MOL0     O15202   5.159   8.154   7.391  0.3270  0.3014 -0.6426
  854MOL0     C15203   5.386   8.259   7.647 -0.7059 -0.1819  0.6193
  854MOL0     C15204   5.507   8.329   7.663 -0.1213  0.2598 -0.5511
  854MOL0     N15205   5.513   8.995   7.835 -0.4757 -0.7851  0.3042
  854MOL0     N15206   5.501   9.118   7.804  0.3642 -0.8829 -0.1389
  854MOL0     C15207   5.862   9.719   6.858 -0.7195  0.3043  0.3976
  854MOL0     C15208   5.993   9.768   6.844 -1.2994  0.0556  0.0070
  854MOL0     C15209   6.391   9.961   6.984 -0.6946  0.3623  0.7058
  854MOL0     C15210   6.370  10.100   7.014  0.0305 -0.4250  0.0896
  854MOL0     C15211   6.479  10.184   7.051 -0.2982 -0.7935 -1.2446
  854MOL0     C15212   6.614  10.133   7.052 -0.8919 -0.2410 -0.0956
  854MOL0     O15213   6.729  10.211   7.087  0.2636  0.3225 -0.4757
  854MOL0     C15214   6.698  10.333   7.162  0.1520 -0.0121 -0.3659
  854MOL0     C15215   6.834  10.386   7.210 -0.5966 -0.1777 -0.6156
  854MOL0     C15216   6.943  10.403   7.099  0.8736  0.2749 -0.1460
  854MOL0     C15217   6.912  10.519   6.991  0.3725  0.3114  0.0199
  854MOL0     C15218   6.911  10.646   7.059 -0.3642 -0.4631 -0.5943
  854MOL0     C15219   6.926  10.746   7.127 -0.6455 -0.0990  0.6288
  854MOL0     C15220   6.638  10.000   7.026 -0.2793  0.0129  0.5877
  854MOL0     C15221   6.532   9.916   7.002  0.6681  0.2294  1.0612
  854MOL0     C15222   6.557   9.772   6.987 -0.5528  0.7803 -0.0595
  854MOL0     H15223   5.983  10.015   7.065  0.9736 -0.2983  1.0705
  854MOL0     H15224   5.767   9.919   7.110 -5.9691  1.8129 -4.3708
  854MOL0     H15225   5.603   9.776   7.175  0.2878  1.5669  0.2952
  854MOL0     H15226   5.561   9.857   7.026  3.1931 -0.0650 -0.0876
  854MOL0     H15227   5.400   9.678   6.962 -0.4861  2.4282  0.5720
  854MOL0     H15228   5.369   9.741   7.122  0.5203 -0.0164 -0.3901
  854MOL0     H15229   5.529   9.481   7.080  0.3809 -0.7995  2.1328
  854MOL0     H15230   5.353   9.490   7.119  1.2976 -1.3520  1.3819
  854MOL0     H15231   5.564   9.618   7.297  0.6504  0.0484 -1.4622
  854MOL0     H15232   5.394   9.570   7.326  0.1940 -1.9538  3.0431
  854MOL0     H15233   5.436   9.350   7.329  0.3379 -1.0446  0.0121
  854MOL0     H15234   5.603   9.360   7.271 -2.9233 -0.4542 -2.4184
  854MOL0     H15235   5.682   9.469   7.480  1.8347 -3.0779  1.5318
  854MOL0     H15236   5.516   9.474   7.535  0.3466  1.5870 -1.4363
  854MOL0     H15237   5.697   9.225   7.490 -0.9427  0.4479 -0.4518
  854MOL0     H15238   5.528   9.212   7.525 -0.4320 -0.0674 -2.1710
  854MOL0     H15239   5.721   9.343   7.703 -0.9295  0.9352 -0.6286
  854MOL0     H15240   5.537   9.347   7.722 -3.2478 -2.0641 -3.8839
  854MOL0     H15241   5.797   9.051   7.691 -0.3031  0.0473 -3.4584
  854MOL0     H15242   5.802   8.827   7.824 -1.1034  1.5168  1.7690
  854MOL0     H15243   5.653   8.774   7.910 -1.6251  1.4939 -0.1839
  854MOL0     H15244   5.664   8.609   7.804  0.9254  0.2878 -0.6734
  854MOL0     H15245   5.556   8.702   7.688 -0.0224  3.2799  0.4205
  854MOL0     H15246   5.848   8.606   7.663 -0.7285 -0.9302  0.0333
  854MOL0     H15247   5.799   8.754   7.588  0.1255  0.7503  2.8302
  854MOL0     H15248   5.780   8.562   7.431  0.1823  0.3515 -0.1979
  854MOL0     H15249   5.614   8.607   7.476  0.8571  2.1440  2.0547
  854MOL0     H15250   5.579   8.377   7.348 -0.0751  3.8001  2.2159
  854MOL0     H15251   5.371   8.262   7.305  0.4833  0.4192 -0.2832
  854MOL0     H15252   5.084   7.948   7.797  0.0406  0.6240 -0.7133
  854MOL0     H15253   4.857   7.886   7.859  0.0093  0.2465  0.1908
  854MOL0     H15254   4.570   7.897   7.567 -0.0597  1.6951  0.2719
  854MOL0     H15255   4.558   7.790   7.705 -1.0405  1.0281 -0.2947
  854MOL0     H15256   4.348   7.838   7.649 -0.0118 -0.9146  1.1570
  854MOL0     H15257   4.379   7.926   7.803  0.4834  1.4416  0.1745
  854MOL0     H15258   4.445   8.122   7.622  0.4842 -1.4399  1.7369
  854MOL0     H15259   4.317   8.043   7.537 -2.0718  0.7667 -0.7420
  854MOL0     H15260   4.154   8.093   7.755 -2.0793  0.7731 -3.6763
  854MOL0     H15261   4.226   8.213   7.662  0.0824  0.2760 -0.0317
  854MOL0     H15262   4.428   8.236   7.824 -1.7552  2.7662 -2.3585
  854MOL0     H15263   4.341   8.127   7.927 -0.2791  0.0299 -0.6376
  854MOL0     H15264   4.302   8.364   8.001  0.0056 -0.3749  0.7781
  854MOL0     H15265   4.251   8.412   7.840 -1.6446 -0.0547  0.3616
  854MOL0     H15266   4.119   8.202   8.011  0.9475  0.5820  1.7478
  854MOL0     H15267   4.045   8.290   7.864 -2.3669 -0.5418  2.5551
  854MOL0     H15268   3.939   8.366   8.045 -0.0262  1.0811 -0.6846
  854MOL0     H15269   4.088   8.397   8.137 -0.0822 -1.8581 -0.1868
  854MOL0     H15270   4.689   8.137   7.566  0.8830  1.5752 -1.2050
  854MOL0     H15271   4.924   8.201   7.495 -1.4608  0.7020  0.0969
  854MOL0     H15272   5.321   8.230   7.729 -2.4135  0.3052 -0.5050
  854MOL0     H15273   5.536   8.348   7.766 -0.9065  3.0784 -0.7563
  854MOL0     H15274   5.837   9.630   6.801  2.8985 -1.3437  1.1094
  854MOL0     H15275   6.062   9.730   6.769  0.1019 -1.5504  1.9719
  854MOL0     H15276   6.268  10.139   7.014  0.0686 -0.2933 -0.9913
  854MOL0     H15277   6.459  10.280   7.098  1.8105 -1.4129  1.0716
  854MOL0     H15278   6.635  10.303   7.245 -3.5303  0.5184 -2.7513
  854MOL0     H15279   6.649  10.410   7.103  0.5006 -0.7725 -1.6897
  854MOL0     H15280   6.883  10.320   7.282  1.3226  0.0071 -1.6898
  854MOL0     H15281   6.806  10.480   7.258 -4.2481 -0.7802 -1.2372
  854MOL0     H15282   6.946  10.306   7.048 -1.6678  0.5058 -0.9228
  854MOL0     H15283   7.044  10.421   7.134  1.3084 -0.4576 -0.9874
  854MOL0     H15284   6.992  10.521   6.917  2.1996 -0.2056  1.8748
  854MOL0     H15285   6.815  10.500   6.944  0.0163 -0.6235  1.0863
  854MOL0     H15286   6.919  10.826   7.198 -2.2608 -0.4819  0.9581
  854MOL0     H15287   6.735   9.954   7.041 -0.4653  0.2345  2.7390
  854MOL0     H15288   6.502   9.744   6.897  0.9609  0.6312 -0.9832
  854MOL0     H15289   6.661   9.745   6.966 -1.3834  0.0509 -4.0254
  854MOL0     H15290   6.520   9.709   7.069  0.2635  1.6271  0.9944
  855MOL0     O15291  10.724  10.127   0.995 -0.2277  0.4682 -0.4333
  855MOL0     C15292  10.783  10.131   1.104  0.4119 -0.8980 -0.5413
  855MOL0     O15293  10.740  10.053   1.215 -0.0572 -0.8855 -0.7349
  855MOL0     C15294  10.623   9.969   1.203 -0.0088 -0.5195 -0.1030
  855MOL0     C15295  10.513   9.979   1.107  0.6312  0.2707  1.1145
  855MOL0     C15296  10.396   9.901   1.132 -0.3495 -0.5645 -0.0250
  855MOL0     C15297  10.388   9.800   1.230  0.6274 -0.2200  0.0807
  855MOL0     O15298  10.284   9.709   1.221 -0.3272 -1.3334 -0.1283
  855MOL0     C15299  10.258   9.596   1.299  0.0856  0.4356  0.3293
  855MOL0     C15300  10.307   9.469   1.226 -0.7654  0.5653 -0.3329
  855MOL0     C15301  10.343   9.360   1.325  0.0802 -0.3807  0.0260
  855MOL0     C15302  10.331   9.216   1.260  0.0976 -0.0073 -0.1628
  855MOL0     C15303  10.448   9.160   1.183 -0.0242 -0.6766 -0.1364
  855MOL0     C15304  10.571   9.117   1.259 -0.2264  0.2569  0.4011
  855MOL0     C15305  10.678   9.065   1.152 -0.3766 -0.0653 -0.6335
  855MOL0     C15306  10.802   9.001   1.217  0.1658  0.9712 -0.1231
  855MOL0     N15307  10.902   8.980   1.118 -0.0064  0.9083  0.1269
  855MOL0     C15308  11.040   8.937   1.140 -0.2801 -0.0343 -0.1559
  855MOL0     C15309  11.084   8.924   1.010  0.4680  0.5219 -0.8293
  855MOL0     C15310  11.218   8.887   0.960 -0.0805  0.7979  0.1818
  855MOL0     C15311  11.217   8.771   0.860  0.8635  0.8053 -0.4467
  855MOL0     C15312  11.182   8.638   0.925 -0.0336  0.1584  0.3129
  855MOL0     C15313  11.309   8.578   0.982 -1.0559  0.2482 -0.5831
  855MOL0     O15314  11.286   8.508   1.103  1.2356  0.2112 -0.6197
  855MOL0     C15315  11.391   8.469   1.182  0.5499  0.4982 -0.4378
  855MOL0     C15316  11.352   8.404   1.302 -0.6913 -0.3159 -1.5370
  855MOL0     C15317  11.440   8.337   1.391 -0.2342 -0.4625 -0.2998
  855MOL0     C15318  11.572   8.355   1.372  0.3207  0.5075  1.0200
  855MOL0     C15319  11.666   8.319   1.475  0.4168 -0.2102  0.1762
  855MOL0     O15320  11.792   8.369   1.454 -0.8281 -0.7306 -0.2862
  855MOL0     C15321  11.899   8.310   1.507 -0.0210  0.0874  0.1943
  855MOL0     C15322  11.921   8.177   1.491  0.7470  1.3155  0.8969
  855MOL0     C15323  12.023   8.106   1.551  0.0051 -0.1493 -0.2910
  855MOL0     C15324  12.096   8.177   1.650 -0.3469 -0.2365  0.2847
  855MOL0     O15325  12.173   8.113   1.748 -0.3523 -0.5812  0.0033
  855MOL0     C15326  12.222   7.976   1.731  0.6311 -0.4680  0.2300
  855MOL0     C15327  12.150   7.882   1.823 -0.1425 -0.8310 -0.8177
  855MOL0     C15328  12.151   7.931   1.968 -1.1937 -0.5017  0.0303
  855MOL0     C15329  12.289   7.929   2.038 -0.3162 -0.5155  0.1180
  855MOL0     C15330  12.289   7.966   2.181 -0.1523 -0.1207 -0.4933
  855MOL0     C15331  12.429   8.018   2.221  0.4213  0.6218  0.8793
  855MOL0     C15332  12.435   8.055   2.362 -0.0219 -0.1326  0.0401
  855MOL0     C15333  12.572   8.114   2.386  0.1212  0.1191 -0.7587
  855MOL0    Cl15334  12.605   8.252   2.287 -0.1476 -0.2221  0.9764
  855MOL0     C15335  12.083   8.308   1.668 -0.2073 -0.3579 -0.1635
  855MOL0     C15336  11.988   8.383   1.593 -0.0935 -0.2358 -0.7639
  855MOL0     O15337  11.621   8.271   1.581  0.3628 -0.1475  0.4219
  855MOL0     C15338  11.616   8.412   1.252  0.0133 -0.5732 -0.3812
  855MOL0     C15339  11.529   8.471   1.157 -0.4383  0.0487  0.1842
  855MOL0     N15340  10.985   8.969   0.928 -0.4966 -0.3536 -0.4707
  855MOL0     N15341  10.879   8.992   0.986 -0.0506 -0.8865  0.0057
  855MOL0     C15342  10.496   9.792   1.319  0.0348 -0.2124  0.1246
  855MOL0     C15343  10.612   9.866   1.296 -0.6746  0.0316 -0.2157
  855MOL0     C15344  10.895  10.229   1.122  0.2193 -0.0030  0.3868
  855MOL0     C15345  10.974  10.221   1.237  0.6877 -0.7067 -0.0422
  855MOL0     C15346  11.073  10.315   1.265  0.2057  0.1580  0.2055
  855MOL0     C15347  11.093  10.425   1.180  0.7949  0.1905  0.0752
  855MOL0     O15348  11.182  10.519   1.229 -0.7437 -0.2794 -0.5574
  855MOL0     C15349  11.227  10.621   1.135 -0.9962  0.4305 -0.4659
  855MOL0     C15350  11.317  10.581   1.024  0.7307 -0.6330 -0.1475
  855MOL0     C15351  11.429  10.489   1.066 -0.7860  0.3126  0.5646
  855MOL0     C15352  11.461  10.370   0.979 -0.1388 -1.3233  0.5116
  855MOL0     C15353  11.586  10.296   0.993 -0.1481  0.0619 -0.0920
  855MOL0     C15354  11.696  10.239   0.990  0.6245 -1.0050 -0.0051
  855MOL0     C15355  11.028  10.430   1.057 -0.3738  0.9635 -0.5257
  855MOL0     C15356  10.922  10.341   1.032 -1.1842 -0.5621  0.9076
  855MOL0     C15357  10.851  10.367   0.900  0.0827 -0.2227  0.5618
  855MOL0     H15358  10.511  10.059   1.033  0.7183  0.2151  1.0514
  855MOL0     H15359  10.320   9.921   1.058 -0.3122  4.7247  0.9100
  855MOL0     H15360  10.317   9.600   1.391 -0.2086 -1.1483  0.6339
  855MOL0     H15361  10.150   9.585   1.318  0.3301  1.1106  2.3397
  855MOL0     H15362  10.382   9.495   1.151  0.4390 -1.4949  0.0973
  855MOL0     H15363  10.227   9.434   1.161  0.2554 -1.6233 -0.4865
  855MOL0     H15364  10.269   9.364   1.405 -2.0188 -0.7739 -1.7800
  855MOL0     H15365  10.441   9.381   1.369 -0.1996 -1.0575  1.0050
  855MOL0     H15366  10.326   9.152   1.348  3.0302  1.4741  1.2166
  855MOL0     H15367  10.242   9.198   1.199 -1.3549  1.0568  1.5407
  855MOL0     H15368  10.412   9.064   1.143 -1.4111  0.1712 -1.0023
  855MOL0     H15369  10.477   9.233   1.107  1.7461 -0.0421  1.1046
  855MOL0     H15370  10.617   9.194   1.322  1.2924  0.1254 -0.4970
  855MOL0     H15371  10.552   9.034   1.327  0.0696  1.0624  1.5042
  855MOL0     H15372  10.717   9.150   1.095 -2.2369  0.5189 -1.1162
  855MOL0     H15373  10.646   8.983   1.087  0.6478 -0.9640 -0.0378
  855MOL0     H15374  10.844   9.070   1.292  1.0532  1.8915 -1.4306
  855MOL0     H15375  10.791   8.908   1.274  3.5196  1.7459  2.0504
  855MOL0     H15376  11.095   8.903   1.227  1.2132 -0.2324 -1.1554
  855MOL0     H15377  11.261   8.973   0.907 -2.5742  3.6141  2.3755
  855MOL0     H15378  11.279   8.872   1.050  0.4816  4.7779  0.6527
  855MOL0     H15379  11.134   8.795   0.793 -2.3651  0.7153  3.1837
  855MOL0     H15380  11.314   8.763   0.811  0.8119 -1.2829 -0.2815
  855MOL0     H15381  11.143   8.582   0.839  0.6266  0.6358 -0.3134
  855MOL0     H15382  11.103   8.634   1.000 -0.0266 -4.3554  0.3462
  855MOL0     H15383  11.383   8.654   1.009  1.9496 -3.0439  1.5235
  855MOL0     H15384  11.357   8.502   0.918 -0.9676 -0.0048 -0.2192
  855MOL0     H15385  11.245   8.406   1.323 -0.5330  2.0328 -0.5839
  855MOL0     H15386  11.401   8.294   1.482 -0.9623  2.6074  0.9778
  855MOL0     H15387  11.853   8.128   1.423 -0.3163 -0.2631  2.9633
  855MOL0     H15388  12.040   8.003   1.522  0.1246 -0.5554  1.1569
  855MOL0     H15389  12.204   7.946   1.628 -1.1871 -0.9923  0.6684
  855MOL0     H15390  12.330   7.974   1.748  1.1076 -3.1239 -2.3110
  855MOL0     H15391  12.043   7.878   1.800 -1.2090 -1.1951  3.3831
  855MOL0     H15392  12.186   7.780   1.838 -0.0966 -0.8108 -0.7885
  855MOL0     H15393  12.109   8.032   1.973 -1.1202 -0.4379 -0.5335
  855MOL0     H15394  12.073   7.882   2.025 -2.0344  0.0597 -0.6087
  855MOL0     H15395  12.359   7.993   1.983 -1.1472 -1.3453 -2.0191
  855MOL0     H15396  12.345   7.837   2.023  1.8693  0.5275  1.3200
  855MOL0     H15397  12.266   7.879   2.242 -0.9011 -0.9289 -1.8612
  855MOL0     H15398  12.218   8.043   2.215 -0.1312 -0.5976  0.6563
  855MOL0     H15399  12.505   7.947   2.189  1.1318  2.0880 -0.8534
  855MOL0     H15400  12.445   8.108   2.160 -2.9350  1.2978  0.7994
  855MOL0     H15401  12.433   7.960   2.417 -0.1533  1.2821  2.6666
  855MOL0     H15402  12.352   8.118   2.395  0.8542 -1.4535  5.9565
  855MOL0     H15403  12.570   8.154   2.488  0.0071 -1.0938 -0.2655
  855MOL0     H15404  12.640   8.029   2.383  0.5737  0.4891 -2.9266
  855MOL0     H15405  12.118   8.355   1.759 -1.4215  0.8498 -0.2938
  855MOL0     H15406  11.971   8.485   1.625 -1.1816 -0.9893  1.1910
  855MOL0     H15407  11.721   8.411   1.225  0.3730 -2.2050  0.9137
  855MOL0     H15408  11.587   8.502   1.071  2.8905 -1.4548  1.7136
  855MOL0     H15409  10.488   9.714   1.394 -0.1658  0.4860  0.8480
  855MOL0     H15410  10.700   9.850   1.357 -0.7772 -1.1270 -0.3578
  855MOL0     H15411  10.971  10.134   1.303 -0.8171 -0.4482  0.2633
  855MOL0     H15412  11.136  10.293   1.351  0.2408 -1.5049 -0.2060
  855MOL0     H15413  11.294  10.679   1.200  0.0943  0.8219 -1.9040
  855MOL0     H15414  11.147  10.675   1.083 -0.8856  0.4922 -0.5703
  855MOL0     H15415  11.365  10.673   0.989 -0.4907  0.1993  0.3127
  855MOL0     H15416  11.275  10.544   0.930 -2.7850 -0.8528  1.3640
  855MOL0     H15417  11.420  10.464   1.172  0.7356  1.4985  1.0129
  855MOL0     H15418  11.511  10.560   1.077 -1.4630  0.7953  3.0312
  855MOL0     H15419  11.375  10.305   1.001  1.6099 -3.1870  2.3759
  855MOL0     H15420  11.467  10.404   0.876  1.4723 -0.9297  0.7218
  855MOL0     H15421  11.787  10.186   0.969 -0.9010 -2.5871 -3.3956
  855MOL0     H15422  11.047  10.514   0.991  1.2878  0.3431 -0.8840
  855MOL0     H15423  10.903  10.442   0.840  0.2760 -0.7955  0.0053
  855MOL0     H15424  10.846  10.273   0.846 -3.3085 -1.4986  2.7381
  855MOL0     H15425  10.751  10.410   0.914 -0.8651 -1.9658 -0.5569
  856MOL0     O15426   1.191   4.413   3.118  0.0461 -0.9541 -0.7574
  856MOL0     C15427   1.120   4.441   3.024  0.4727  0.5331 -1.1273
  856MOL0     O15428   1.000   4.502   3.029 -0.6720  0.1783  0.1928
  856MOL0     C15429   0.982   4.568   3.149  1.2865  0.4447 -0.9168
  856MOL0     C15430   0.868   4.552   3.223  0.1532  0.8482 -0.2875
  856MOL0     C15431   0.845   4.614   3.348  0.1334 -0.5206 -0.2897
  856MOL0     C15432   0.936   4.705   3.395 -0.4370  0.6969 -0.0665
  856MOL0     O15433   0.921   4.776   3.504  0.1496 -0.1015 -1.1302
  856MOL0     C15434   0.882   4.732   3.637 -0.7290 -0.5726 -0.1941
  856MOL0     C15435   0.916   4.836   3.742 -0.1117  0.1067 -0.7080
  856MOL0     C15436   1.057   4.907   3.738  0.7517  0.6459 -0.1564
  856MOL0     C15437   1.065   4.985   3.874  0.1593  0.5182 -0.0367
  856MOL0     C15438   1.131   4.897   3.980 -0.8169 -0.4212 -0.0185
  856MOL0     C15439   1.285   4.873   3.963 -0.0284 -0.2977  0.4070
  856MOL0     C15440   1.333   4.784   4.074  0.2240  0.2879 -0.1981
  856MOL0     C15441   1.402   4.654   4.025 -1.0538  0.3709  0.1453
  856MOL0     N15442   1.327   4.552   3.951 -0.3286 -0.8069 -0.1217
  856MOL0     C15443   1.299   4.543   3.810 -0.4433  0.9491 -0.3940
  856MOL0     C15444   1.222   4.434   3.804  1.2210 -0.5867  0.8243
  856MOL0     C15445   1.149   4.389   3.676  0.2186  1.3070 -1.0544
  856MOL0     C15446   1.235   4.402   3.541 -0.4722  0.3146 -0.7834
  856MOL0     C15447   1.344   4.296   3.527 -0.9991 -0.5655  0.2086
  856MOL0     C15448   1.381   4.281   3.381  0.0515 -0.7085  0.7164
  856MOL0     O15449   1.460   4.168   3.357  0.1040 -0.2597 -0.3281
  856MOL0     C15450   1.474   4.132   3.227  0.0354  0.6100  0.1924
  856MOL0     C15451   1.361   4.094   3.148  0.0291  0.1834  0.3778
  856MOL0     C15452   1.373   4.034   3.015 -0.0794  0.9419 -0.3032
  856MOL0     C15453   1.500   4.025   2.957 -0.0522 -0.4812 -0.5343
  856MOL0     C15454   1.526   3.964   2.819  0.4784 -0.5289 -0.1315
  856MOL0     O15455   1.422   3.907   2.764 -0.8774  0.0032  0.1668
  856MOL0     C15456   1.450   3.833   2.655 -1.0874  0.7824 -0.6870
  856MOL0     C15457   1.354   3.838   2.548  0.0771  0.2739 -1.6508
  856MOL0     C15458   1.378   3.766   2.435  0.4702 -0.3242  0.1342
  856MOL0     C15459   1.490   3.686   2.430  0.6827  0.4975 -0.7623
  856MOL0     O15460   1.509   3.609   2.319  0.4625  0.0146 -0.0532
  856MOL0     C15461   1.594   3.667   2.221  0.2562 -0.1123 -0.1423
  856MOL0     C15462   1.641   3.555   2.125 -0.1099 -0.3670 -0.2863
  856MOL0     C15463   1.527   3.518   2.020  0.7934 -0.0806  0.1515
  856MOL0     C15464   1.563   3.393   1.946  0.3252  0.4695  0.2653
  856MOL0     C15465   1.459   3.380   1.834  0.2009  0.2938 -0.0685
  856MOL0     C15466   1.474   3.255   1.746 -0.0588  0.2456 -0.1636
  856MOL0     C15467   1.527   3.123   1.819  0.1869  0.3655  0.4131
  856MOL0     C15468   1.509   3.001   1.729  0.6068  0.4581  0.2521
  856MOL0    Cl15469   1.636   2.878   1.754  0.3012  0.1297 -0.5920
  856MOL0     C15470   1.576   3.665   2.538 -0.0285 -0.1974 -0.3217
  856MOL0     C15471   1.559   3.743   2.654  0.3876 -0.3069 -0.0893
  856MOL0     O15472   1.638   3.989   2.769  0.3384 -0.3999 -0.1880
  856MOL0     C15473   1.613   4.064   3.041 -0.2157  0.5531  0.8905
  856MOL0     C15474   1.604   4.120   3.175 -0.1041  0.7998  0.9891
  856MOL0     N15475   1.211   4.363   3.925  0.2940 -0.7474 -0.0682
  856MOL0     N15476   1.273   4.441   4.011 -0.2690 -0.4057  0.0542
  856MOL0     C15477   1.061   4.725   3.329  0.8771  0.5253 -0.3706
  856MOL0     C15478   1.077   4.656   3.203 -0.2953 -0.3645 -0.1027
  856MOL0     C15479   1.161   4.414   2.885 -0.4462  0.2926 -1.3167
  856MOL0     C15480   1.056   4.395   2.791  0.0358  0.5791 -0.5797
  856MOL0     C15481   1.085   4.342   2.667  0.1524 -0.6036  0.1764
  856MOL0     C15482   1.211   4.314   2.629  1.3591 -0.8450 -0.5612
  856MOL0     O15483   1.217   4.250   2.515  0.0922  0.4128  0.1487
  856MOL0     C15484   1.341   4.216   2.451 -0.4425 -0.4814  0.3149
  856MOL0     C15485   1.296   4.192   2.307  0.3404  0.1340  0.4565
  856MOL0     C15486   1.255   4.310   2.208  0.9233  0.5659 -0.1770
  856MOL0     C15487   1.114   4.359   2.239 -0.1808  0.6124  0.2873
  856MOL0     C15488   1.067   4.461   2.154 -0.6621  0.3083  0.6514
  856MOL0     C15489   1.039   4.554   2.081 -0.2595 -0.6057 -1.0778
  856MOL0     C15490   1.312   4.334   2.712 -0.1986  0.1207 -0.4216
  856MOL0     C15491   1.299   4.385   2.842 -0.0187  0.7834 -0.2565
  856MOL0     C15492   1.422   4.381   2.921 -0.3084  0.3418 -0.0877
  856MOL0     H15493   0.788   4.498   3.173 -0.8950 -0.3645  2.5081
  856MOL0     H15494   0.752   4.601   3.403 -0.6905 -1.2893 -1.7903
  856MOL0     H15495   0.773   4.724   3.626 -0.7691  0.9416 -1.2881
  856MOL0     H15496   0.939   4.642   3.661 -0.7880  0.1383  3.0628
  856MOL0     H15497   0.903   4.773   3.830 -1.5291  0.3706 -0.7033
  856MOL0     H15498   0.832   4.906   3.742 -0.8226 -0.7256 -0.6668
  856MOL0     H15499   1.046   4.983   3.660 -2.3554  2.2845  1.6257
  856MOL0     H15500   1.139   4.841   3.709  1.2476  1.6728 -1.1708
  856MOL0     H15501   1.127   5.075   3.874 -2.2593  2.3080  1.6596
  856MOL0     H15502   0.964   5.022   3.894 -1.2546 -3.2805  0.7680
  856MOL0     H15503   1.124   4.945   4.079  0.0400 -0.5805  0.1300
  856MOL0     H15504   1.074   4.804   3.988  3.1049 -3.2960 -1.9740
  856MOL0     H15505   1.319   4.837   3.865 -0.7205  3.8438 -1.5836
  856MOL0     H15506   1.334   4.971   3.968 -1.3648  0.6990 -3.1064
  856MOL0     H15507   1.258   4.750   4.146 -0.8473 -1.7422 -2.1487
  856MOL0     H15508   1.410   4.841   4.127 -0.2561 -0.6438  1.5888
  856MOL0     H15509   1.489   4.684   3.965  0.1033  1.5346  2.2862
  856MOL0     H15510   1.448   4.601   4.109 -2.0829 -0.6397  0.0885
  856MOL0     H15511   1.339   4.608   3.734  0.3717  0.2535 -0.5725
  856MOL0     H15512   1.128   4.281   3.681 -4.5490  1.8539 -3.0677
  856MOL0     H15513   1.052   4.438   3.666  0.9165  2.5418 -2.0178
  856MOL0     H15514   1.160   4.399   3.461 -2.2852  2.4442  0.7381
  856MOL0     H15515   1.281   4.501   3.529  1.2448 -0.2854  0.4272
  856MOL0     H15516   1.303   4.200   3.562  0.9935 -1.7996 -0.6529
  856MOL0     H15517   1.428   4.316   3.593 -1.4252 -1.9744  1.2411
  856MOL0     H15518   1.427   4.375   3.349 -4.0126  1.3877  0.3130
  856MOL0     H15519   1.287   4.273   3.324  0.9376 -2.5165 -0.6120
  856MOL0     H15520   1.264   4.097   3.197 -0.3834  1.8094 -0.4714
  856MOL0     H15521   1.288   3.991   2.964 -0.3936 -1.7063  2.2111
  856MOL0     H15522   1.259   3.883   2.574  1.0605  1.3931  0.2592
  856MOL0     H15523   1.303   3.783   2.358  0.6908 -2.3906 -0.5915
  856MOL0     H15524   1.538   3.750   2.176 -2.3660 -0.0025  2.8875
  856MOL0     H15525   1.675   3.717   2.275  0.6275 -0.2965 -0.5295
  856MOL0     H15526   1.727   3.597   2.073 -0.2367 -0.7700 -0.8313
  856MOL0     H15527   1.662   3.469   2.189 -2.0895  0.0720  1.0310
  856MOL0     H15528   1.432   3.513   2.074 -0.2105  2.5230 -1.2069
  856MOL0     H15529   1.504   3.599   1.949 -1.1123  1.0358  1.9425
  856MOL0     H15530   1.564   3.308   2.015 -0.8050 -1.4873 -1.9802
  856MOL0     H15531   1.656   3.398   1.888  1.3855 -0.2044  1.8167
  856MOL0     H15532   1.481   3.466   1.771  1.9075 -0.6102 -0.7834
  856MOL0     H15533   1.357   3.390   1.871  0.5995 -2.7653  2.3889
  856MOL0     H15534   1.379   3.242   1.694 -0.7803  0.2405  1.1194
  856MOL0     H15535   1.556   3.271   1.675  1.1158 -1.4034  0.7416
  856MOL0     H15536   1.479   3.100   1.914 -0.1042  1.6342  0.5984
  856MOL0     H15537   1.636   3.129   1.829  0.3427  0.3863 -1.0987
  856MOL0     H15538   1.422   2.936   1.742  1.7527 -1.6292 -1.8295
  856MOL0     H15539   1.519   3.028   1.624  0.2753  0.1409  0.1369
  856MOL0     H15540   1.669   3.609   2.549 -0.4399 -0.9514 -0.5749
  856MOL0     H15541   1.611   3.716   2.746  1.1102 -2.2749 -1.0094
  856MOL0     H15542   1.713   4.054   2.999 -0.9004  2.6357 -1.4271
  856MOL0     H15543   1.700   4.150   3.217  0.9440  0.8125 -1.2924
  856MOL0     H15544   1.131   4.795   3.376  0.9180  1.6375 -2.0139
  856MOL0     H15545   1.158   4.677   3.135 -2.0622  2.4805 -1.5267
  856MOL0     H15546   0.952   4.418   2.816  0.3367  0.6361  0.6787
  856MOL0     H15547   1.001   4.327   2.600  0.9759 -3.8115 -0.3361
  856MOL0     H15548   1.372   4.129   2.509 -2.1483  0.7951  3.3455
  856MOL0     H15549   1.415   4.296   2.456  1.5506 -2.3169  1.8123
  856MOL0     H15550   1.224   4.109   2.310  1.0430 -0.4690  1.2718
  856MOL0     H15551   1.381   4.153   2.251 -0.4609  0.7951 -1.2822
  856MOL0     H15552   1.252   4.272   2.106  0.7133  0.4285 -0.1188
  856MOL0     H15553   1.327   4.392   2.211  0.6756  0.7764  0.0192
  856MOL0     H15554   1.049   4.274   2.216  1.5834 -0.8913  0.5986
  856MOL0     H15555   1.101   4.409   2.335  2.4841  0.2691  0.9244
  856MOL0     H15556   1.022   4.641   2.021  2.4860  1.0590  0.3555
  856MOL0     H15557   1.409   4.302   2.674  0.4911 -0.9911  2.0278
  856MOL0     H15558   1.396   4.325   3.011  2.4861 -0.2293  0.4744
  856MOL0     H15559   1.504   4.338   2.863 -0.8008  1.9993 -2.1324
  856MOL0     H15560   1.451   4.485   2.939  2.4159  0.1113 -2.4054
  857MOL0     O15561   9.046   2.985   4.000 -0.8955 -0.6255 -0.2897
  857MOL0     C15562   9.034   2.905   4.088 -1.1697 -0.7604  0.3165
  857MOL0     O15563   9.117   2.802   4.122 -0.5433  0.0981  0.7530
  857MOL0     C15564   9.225   2.789   4.030  0.7505  0.1501  0.2443
  857MOL0     C15565   9.203   2.756   3.897  0.0235 -0.4812  0.3809
  857MOL0     C15566   9.323   2.775   3.818 -1.1852  1.2274 -0.3383
  857MOL0     C15567   9.449   2.814   3.875  0.3863  0.8218  0.3046
  857MOL0     O15568   9.556   2.851   3.793 -0.0974 -0.3701 -0.4539
  857MOL0     C15569   9.586   2.758   3.688 -0.3398  0.1694  0.1422
  857MOL0     C15570   9.700   2.658   3.724 -0.5400 -0.3727  0.1940
  857MOL0     C15571   9.637   2.532   3.783 -0.6898  0.4598 -0.7676
  857MOL0     C15572   9.745   2.421   3.805 -0.0309 -0.3875  0.9526
  857MOL0     C15573   9.675   2.298   3.836 -0.8672 -0.1634  0.0153
  857MOL0     C15574   9.765   2.217   3.932  0.2911  0.3661 -0.2226
  857MOL0     C15575   9.704   2.076   3.951  0.1377 -0.5238  0.7565
  857MOL0     C15576   9.592   2.092   4.062 -0.5961 -0.0754  0.0266
  857MOL0     N15577   9.478   2.002   4.032 -0.2152 -0.9305 -0.4327
  857MOL0     C15578   9.418   1.912   4.119 -0.0376  0.3031  0.7172
  857MOL0     C15579   9.302   1.887   4.068  0.0947  0.5574  1.0406
  857MOL0     C15580   9.195   1.790   4.112 -0.6485  0.2791  0.3000
  857MOL0     C15581   9.250   1.656   4.179 -0.2840  0.2960 -0.4406
  857MOL0     C15582   9.348   1.578   4.085 -0.0548  1.0330 -0.4868
  857MOL0     C15583   9.373   1.442   4.154 -0.5680 -0.3609 -0.1389
  857MOL0     O15584   9.435   1.485   4.276 -0.3184  0.2588  0.4733
  857MOL0     C15585   9.449   1.407   4.386  1.2654 -0.0778  0.6314
  857MOL0     C15586   9.378   1.283   4.411 -0.5814 -0.1281  0.1371
  857MOL0     C15587   9.396   1.215   4.533 -0.5632 -0.8043 -0.5254
  857MOL0     C15588   9.497   1.258   4.626 -0.3740  0.6264  0.1989
  857MOL0     C15589   9.524   1.189   4.752 -0.4862 -0.3300  0.2066
  857MOL0     O15590   9.638   1.218   4.829  0.5908 -0.2339 -0.0475
  857MOL0     C15591   9.627   1.235   4.966  0.8098 -0.1960  0.6990
  857MOL0     C15592   9.518   1.305   5.024  0.2832  0.2836  1.5266
  857MOL0     C15593   9.495   1.320   5.162  0.5292 -0.0998 -0.2038
  857MOL0     C15594   9.595   1.265   5.241 -0.0175 -0.5143 -0.8959
  857MOL0     O15595   9.593   1.277   5.376  0.1409 -0.4177  0.2171
  857MOL0     C15596   9.477   1.240   5.443 -0.6655  0.4981 -0.8699
  857MOL0     C15597   9.524   1.173   5.577 -0.3089  0.0618  0.9551
  857MOL0     C15598   9.411   1.177   5.685 -0.6505 -0.4428  0.5907
  857MOL0     C15599   9.471   1.119   5.812 -0.7035  0.2070 -0.3612
  857MOL0     C15600   9.459   0.971   5.810  0.0097  1.0219  0.4660
  857MOL0     C15601   9.553   0.913   5.902 -0.7224 -0.0544  0.6564
  857MOL0     C15602   9.507   0.772   5.943  0.2326 -0.0614 -0.5844
  857MOL0     C15603   9.538   0.658   5.840  0.3369  0.1755  0.9633
  857MOL0    Cl15604   9.537   0.494   5.925  0.4754 -0.0539  0.0833
  857MOL0     C15605   9.719   1.202   5.183  0.9414  0.3264 -1.3200
  857MOL0     C15606   9.730   1.182   5.044  0.1366 -0.1435  0.6057
  857MOL0     O15607   9.456   1.092   4.778 -0.6847  0.4064  0.5520
  857MOL0     C15608   9.576   1.371   4.591 -0.4932 -0.3686  0.3811
  857MOL0     C15609   9.546   1.448   4.474  0.7599 -0.9043 -0.2511
  857MOL0     N15610   9.285   1.958   3.952 -0.4891  0.3160 -0.2102
  857MOL0     N15611   9.394   2.018   3.917  0.3025  0.0637  0.6018
  857MOL0     C15612   9.461   2.829   4.014  0.2757 -0.6345 -0.5805
  857MOL0     C15613   9.345   2.820   4.092 -0.9007  0.4775 -0.2700
  857MOL0     C15614   8.903   2.916   4.167 -0.2696  1.3890  0.1140
  857MOL0     C15615   8.878   2.829   4.278 -0.2268  0.4703  0.7854
  857MOL0     C15616   8.766   2.838   4.358 -0.3730  0.1213  0.2513
  857MOL0     C15617   8.661   2.899   4.312 -0.0054 -0.2171 -1.0812
  857MOL0     O15618   8.549   2.902   4.400 -0.2886 -0.3686 -0.4527
  857MOL0     C15619   8.492   3.031   4.439  0.3397 -0.8310  0.5930
  857MOL0     C15620   8.523   3.056   4.586  0.4773  0.5047  0.1282
  857MOL0     C15621   8.419   3.156   4.651 -0.4624  0.4157  0.7060
  857MOL0     C15622   8.432   3.300   4.607  0.1020  0.5466 -0.4268
  857MOL0     C15623   8.333   3.394   4.657  0.2108  1.1294  0.4591
  857MOL0     C15624   8.244   3.468   4.696  0.7223  1.1170  0.0219
  857MOL0     C15625   8.667   2.978   4.196 -0.4434  0.4896 -0.3155
  857MOL0     C15626   8.789   2.990   4.126  0.1235  0.4571  0.1028
  857MOL0     C15627   8.796   3.109   4.028  0.3202  1.0058 -0.4550
  857MOL0     H15628   9.104   2.729   3.862  0.6550 -2.2283 -0.1672
  857MOL0     H15629   9.319   2.762   3.710  0.4828 -0.6067 -0.2497
  857MOL0     H15630   9.496   2.715   3.643  1.3788 -1.6526 -1.7540
  857MOL0     H15631   9.631   2.806   3.600  0.8256  0.8295  1.0799
  857MOL0     H15632   9.773   2.690   3.799  1.3043  0.0545 -1.7019
  857MOL0     H15633   9.753   2.637   3.630  0.9880 -0.7893  1.1111
  857MOL0     H15634   9.568   2.492   3.707  1.7408 -1.3949 -2.1645
  857MOL0     H15635   9.585   2.545   3.878  2.9212  1.0621  1.2956
  857MOL0     H15636   9.797   2.400   3.711 -0.3402 -2.6748  1.2348
  857MOL0     H15637   9.818   2.461   3.876  1.3636 -3.2065  1.2282
  857MOL0     H15638   9.589   2.322   3.899 -1.4568  2.6259 -1.6717
  857MOL0     H15639   9.641   2.246   3.747 -3.5747 -2.0563  2.0065
  857MOL0     H15640   9.857   2.207   3.874 -0.6388  2.3392 -2.1819
  857MOL0     H15641   9.790   2.258   4.031 -0.3661 -1.3461  0.6852
  857MOL0     H15642   9.781   2.005   3.982  0.3667 -0.5774  0.0946
  857MOL0     H15643   9.665   2.042   3.854 -1.8147 -2.4552  2.1064
  857MOL0     H15644   9.628   2.063   4.161 -1.4027 -1.8146 -0.1526
  857MOL0     H15645   9.567   2.197   4.078 -1.0954  0.1280 -1.8117
  857MOL0     H15646   9.457   1.881   4.215  0.7685  2.1817  1.0355
  857MOL0     H15647   9.140   1.840   4.192 -0.6473 -1.6350  1.5724
  857MOL0     H15648   9.129   1.754   4.032 -4.7021 -0.1822  3.5262
  857MOL0     H15649   9.294   1.690   4.274 -1.2126  0.0411  0.0963
  857MOL0     H15650   9.163   1.596   4.206 -0.1560  0.9119  1.5232
  857MOL0     H15651   9.439   1.637   4.083 -0.3114  1.5185  1.0085
  857MOL0     H15652   9.316   1.557   3.982  0.5400 -0.0540 -0.4690
  857MOL0     H15653   9.437   1.382   4.089 -1.0626 -2.3677  1.1244
  857MOL0     H15654   9.284   1.381   4.169 -0.6265 -0.2826 -0.1672
  857MOL0     H15655   9.320   1.238   4.330  3.4326 -3.8565 -1.0501
  857MOL0     H15656   9.326   1.135   4.554 -1.8776  0.4155 -0.0215
  857MOL0     H15657   9.444   1.341   4.954  0.6922  0.0814  0.9866
  857MOL0     H15658   9.416   1.379   5.209 -2.0162 -3.0323 -0.4341
  857MOL0     H15659   9.416   1.325   5.475  1.7434  1.0765  2.8851
  857MOL0     H15660   9.428   1.166   5.380  0.3840 -0.4196 -0.6420
  857MOL0     H15661   9.551   1.072   5.543  1.1438  0.5587  0.5246
  857MOL0     H15662   9.621   1.210   5.614  0.0745 -0.2955  0.3257
  857MOL0     H15663   9.387   1.280   5.714 -0.8137  0.2900 -1.9375
  857MOL0     H15664   9.317   1.136   5.649  0.1460 -1.8873  0.0843
  857MOL0     H15665   9.432   1.170   5.901 -1.2969 -0.9309  0.0533
  857MOL0     H15666   9.578   1.140   5.816 -0.3514 -1.6387  2.2513
  857MOL0     H15667   9.488   0.930   5.713  0.3906  1.3891  0.4186
  857MOL0     H15668   9.353   0.949   5.819  0.5714 -2.9504 -0.6658
  857MOL0     H15669   9.654   0.905   5.861 -1.4452  1.8094 -1.7074
  857MOL0     H15670   9.573   0.973   5.992 -0.9288 -0.3832  0.9262
  857MOL0     H15671   9.400   0.760   5.963  0.4696 -4.4667 -0.8953
  857MOL0     H15672   9.560   0.743   6.035  2.4178  2.0801 -1.0669
  857MOL0     H15673   9.465   0.646   5.760  0.9255 -4.2636  0.8357
  857MOL0     H15674   9.639   0.675   5.803  0.6402 -2.7111  0.2422
  857MOL0     H15675   9.792   1.163   5.254 -1.3454 -0.7224  0.5931
  857MOL0     H15676   9.808   1.128   4.992  0.1047 -1.0264  1.4554
  857MOL0     H15677   9.655   1.401   4.660 -0.0970 -1.7996  0.5776
  857MOL0     H15678   9.592   1.544   4.451 -1.0539  0.6491  2.1445
  857MOL0     H15679   9.558   2.848   4.059 -0.0302  0.8724 -0.5230
  857MOL0     H15680   9.342   2.837   4.199  0.5123 -2.8750  0.4267
  857MOL0     H15681   8.961   2.766   4.309  1.4938  3.1380  1.9715
  857MOL0     H15682   8.767   2.795   4.458 -0.9212  0.1161  0.2597
  857MOL0     H15683   8.384   3.035   4.420  0.2639 -2.0901  0.6911
  857MOL0     H15684   8.529   3.112   4.375 -0.9447 -0.0064  0.8469
  857MOL0     H15685   8.625   3.089   4.605  1.7831 -3.3992  0.6437
  857MOL0     H15686   8.514   2.965   4.646 -0.5446  1.0390  0.8167
  857MOL0     H15687   8.436   3.157   4.759 -1.3638 -2.0522  0.9434
  857MOL0     H15688   8.320   3.108   4.650  1.1194 -3.1306  0.3032
  857MOL0     H15689   8.531   3.335   4.639 -0.2586  0.5116  0.7692
  857MOL0     H15690   8.419   3.305   4.499 -0.1713 -2.0053 -0.5820
  857MOL0     H15691   8.155   3.510   4.739 -1.0997 -2.0501 -0.3139
  857MOL0     H15692   8.577   3.027   4.160  1.0182  3.4340 -0.2706
  857MOL0     H15693   8.715   3.179   4.050  1.1509  2.0948 -0.7632
  857MOL0     H15694   8.886   3.168   4.048  0.6115  1.0108 -1.7124
  857MOL0     H15695   8.804   3.067   3.927  0.9153 -0.1728  0.0555
  858MOL0     O15696  10.838   5.477   1.759  0.2424  0.0645 -0.9225
  858MOL0     C15697  10.735   5.484   1.824  0.0280 -1.1260  0.4887
  858MOL0     O15698  10.646   5.383   1.844  0.4282  0.5621  0.2565
  858MOL0     C15699  10.674   5.261   1.784  0.5117  0.4706 -1.4024
  858MOL0     C15700  10.689   5.230   1.655 -0.1996  0.6643  0.1245
  858MOL0     C15701  10.739   5.107   1.603 -0.3175  0.1440 -0.5993
  858MOL0     C15702  10.775   5.005   1.694 -0.3287 -0.4230  0.6999
  858MOL0     O15703  10.797   4.880   1.646 -0.3339  1.0902 -0.7777
  858MOL0     C15704  10.758   4.762   1.729 -0.0642  0.4098  0.6676
  858MOL0     C15705  10.807   4.627   1.670  0.5239  1.0738  1.1480
  858MOL0     C15706  10.734   4.594   1.535  0.1861 -1.0981  0.4193
  858MOL0     C15707  10.718   4.447   1.501  0.1625 -0.0933 -0.1188
  858MOL0     C15708  10.683   4.409   1.353  0.7144  0.1689  0.2086
  858MOL0     C15709  10.539   4.445   1.324  0.9793  0.2524  0.3398
  858MOL0     C15710  10.514   4.454   1.170 -0.4520 -0.2997  0.2642
  858MOL0     C15711  10.561   4.345   1.075  0.1041  1.0012  0.7789
  858MOL0     N15712  10.679   4.364   0.987 -0.4357  0.1769  0.4668
  858MOL0     C15713  10.704   4.471   0.903  0.2218  0.6422 -0.6345
  858MOL0     C15714  10.837   4.465   0.881  0.5459  0.0997  0.1887
  858MOL0     C15715  10.919   4.562   0.798  0.0322 -0.1992 -0.2132
  858MOL0     C15716  11.004   4.653   0.888  0.1946 -0.2897 -0.2145
  858MOL0     C15717  11.074   4.767   0.809  0.0924  0.0432  1.2150
  858MOL0     C15718  11.158   4.727   0.681  1.5008  0.3970  0.7343
  858MOL0     O15719  11.226   4.848   0.644 -0.0109  0.6392  0.4078
  858MOL0     C15720  11.344   4.840   0.581  0.5481  0.1113 -0.2767
  858MOL0     C15721  11.410   4.961   0.567 -0.0172 -0.0942 -0.0264
  858MOL0     C15722  11.542   4.964   0.504  0.0247  0.2248  0.7971
  858MOL0     C15723  11.600   4.849   0.445 -0.3231  0.2279  0.3118
  858MOL0     C15724  11.736   4.855   0.375 -0.0260  0.3644  0.5202
  858MOL0     O15725  11.782   4.731   0.315  0.2415  0.7040 -0.4714
  858MOL0     C15726  11.917   4.713   0.293 -1.4274 -0.6391 -0.5838
  858MOL0     C15727  11.976   4.601   0.354  1.6135 -0.6456 -0.1690
  858MOL0     C15728  12.106   4.566   0.326  0.5357 -0.6334  0.5703
  858MOL0     C15729  12.172   4.631   0.218  0.1000  0.2975  0.9350
  858MOL0     O15730  12.297   4.597   0.173 -0.2567 -0.7973 -0.3940
  858MOL0     C15731  12.382   4.518   0.257  0.1510 -0.4560 -0.0609
  858MOL0     C15732  12.529   4.540   0.202  0.5943  0.5930 -0.3529
  858MOL0     C15733  12.591   4.684   0.206 -0.6325 -0.0518 -0.9783
  858MOL0     C15734  12.642   4.717   0.347  0.2589 -0.1295 -0.3140
  858MOL0     C15735  12.715   4.854   0.346  0.2583  1.1455 -0.3594
  858MOL0     C15736  12.743   4.919   0.489 -0.1252  0.1178  0.2893
  858MOL0     C15737  12.780   4.819   0.603 -0.5514 -0.0347 -0.8564
  858MOL0     C15738  12.805   4.887   0.736  1.3125  0.3869 -0.4236
  858MOL0    Cl15739  12.852   4.762   0.857 -0.2825  0.4477  0.2913
  858MOL0     C15740  12.104   4.724   0.142 -0.7332  0.0011  0.2617
  858MOL0     C15741  11.982   4.769   0.186  0.1098 -0.1472  1.1846
  858MOL0     O15742  11.797   4.961   0.371  0.0474 -1.0784 -0.3102
  858MOL0     C15743  11.533   4.720   0.467 -0.3299 -0.5868 -0.7175
  858MOL0     C15744  11.408   4.725   0.536 -0.0237  0.3790 -0.8609
  858MOL0     N15745  10.891   4.360   0.956  0.1166  0.3541  1.7123
  858MOL0     N15746  10.795   4.303   1.026 -0.1073  0.4449 -0.8373
  858MOL0     C15747  10.751   5.031   1.829  0.4446 -1.1704  0.6553
  858MOL0     C15748  10.702   5.158   1.872 -0.4402  0.2834  0.4521
  858MOL0     C15749  10.692   5.625   1.865  1.4177  0.0081 -1.0862
  858MOL0     C15750  10.741   5.729   1.797 -0.0062 -0.7442  1.5282
  858MOL0     C15751  10.709   5.857   1.842  1.1251  0.1507  0.0347
  858MOL0     C15752  10.625   5.889   1.948 -0.4794  0.5177  0.3374
  858MOL0     O15753  10.581   6.013   1.986  0.0660  0.5433 -0.7273
  858MOL0     C15754  10.629   6.135   1.920  1.3424  0.5423 -0.6902
  858MOL0     C15755  10.767   6.179   1.970  0.5959  0.2035  0.7241
  858MOL0     C15756  10.778   6.181   2.119 -0.1634  0.1448  0.1186
  858MOL0     C15757  10.687   6.267   2.206  0.2916  0.1776  0.7230
  858MOL0     C15758  10.723   6.403   2.176  0.2444  0.5181 -0.5985
  858MOL0     C15759  10.758   6.513   2.156  0.0211  0.5475  0.8555
  858MOL0     C15760  10.572   5.776   2.015  0.3330 -0.9083 -0.0318
  858MOL0     C15761  10.603   5.646   1.980  0.0824  0.3619 -0.0939
  858MOL0     C15762  10.541   5.528   2.055 -0.5170  0.7477 -0.1186
  858MOL0     H15763  10.654   5.312   1.592  1.3840 -0.0406 -1.7875
  858MOL0     H15764  10.751   5.095   1.496 -0.9191 -4.0221 -0.3709
  858MOL0     H15765  10.794   4.782   1.830  2.4726  2.1093 -0.4909
  858MOL0     H15766  10.648   4.765   1.732 -0.0521  1.2194  0.5617
  858MOL0     H15767  10.787   4.553   1.747  0.0027 -0.0764 -0.0569
  858MOL0     H15768  10.915   4.632   1.650  0.2959 -0.6242 -0.8283
  858MOL0     H15769  10.810   4.631   1.465  0.9711 -4.0700 -0.4439
  858MOL0     H15770  10.643   4.646   1.505  2.2261 -0.3158 -5.8679
  858MOL0     H15771  10.817   4.409   1.528 -0.8016 -0.9772  2.4871
  858MOL0     H15772  10.649   4.406   1.576 -1.6146  1.6747 -0.7067
  858MOL0     H15773  10.755   4.455   1.285  1.1920  0.3489  0.8302
  858MOL0     H15774  10.686   4.300   1.349 -1.0595  0.1233 -1.4120
  858MOL0     H15775  10.468   4.382   1.378 -0.3060  0.6608 -0.8217
  858MOL0     H15776  10.520   4.549   1.353 -5.1764  0.1290 -1.6931
  858MOL0     H15777  10.565   4.544   1.136  0.4922 -1.4700 -1.6184
  858MOL0     H15778  10.406   4.450   1.155 -0.3354 -1.9896 -0.4928
  858MOL0     H15779  10.584   4.257   1.135  1.1990 -1.4028 -2.7884
  858MOL0     H15780  10.479   4.315   1.009  0.7387  1.9550 -0.4828
  858MOL0     H15781  10.643   4.551   0.863 -2.3325 -1.3113 -0.9120
  858MOL0     H15782  10.972   4.507   0.720 -0.8707  0.9294 -1.6670
  858MOL0     H15783  10.856   4.625   0.736 -1.7515 -1.2402  0.4556
  858MOL0     H15784  10.943   4.703   0.964 -1.0527 -0.6186 -0.9715
  858MOL0     H15785  11.079   4.600   0.948  0.8993  2.1650  1.2055
  858MOL0     H15786  11.135   4.817   0.884  1.1410 -1.2939  1.2834
  858MOL0     H15787  11.012   4.847   0.768 -1.6734 -2.2019 -0.8088
  858MOL0     H15788  11.100   4.699   0.592  1.4655  1.9095  0.2466
  858MOL0     H15789  11.226   4.648   0.713  1.7858  0.2483 -0.1931
  858MOL0     H15790  11.381   5.057   0.609  3.1608  0.4915  1.1008
  858MOL0     H15791  11.596   5.057   0.491 -0.8305  0.3886 -2.4766
  858MOL0     H15792  11.920   4.550   0.432  1.6902  1.0682  1.0725
  858MOL0     H15793  12.155   4.488   0.384  1.8482 -0.6111 -0.4518
  858MOL0     H15794  12.376   4.547   0.363 -0.9148 -1.8635  0.2962
  858MOL0     H15795  12.367   4.411   0.239 -2.5443 -0.4265  1.3552
  858MOL0     H15796  12.595   4.463   0.243 -0.1613  0.4961  0.7383
  858MOL0     H15797  12.524   4.530   0.093 -0.7380 -1.5835 -0.1551
  858MOL0     H15798  12.677   4.675   0.139  1.9613 -1.9373  2.3093
  858MOL0     H15799  12.525   4.766   0.177  0.8414  2.3893  2.0469
  858MOL0     H15800  12.723   4.648   0.373  0.5883  0.6100  0.6962
  858MOL0     H15801  12.556   4.719   0.414 -0.8882  0.9773 -1.7442
  858MOL0     H15802  12.649   4.924   0.295 -1.4575  1.7782  2.5608
  858MOL0     H15803  12.799   4.846   0.276  1.2448  0.8121  0.8303
  858MOL0     H15804  12.828   4.988   0.485  0.4133 -0.1857  3.9356
  858MOL0     H15805  12.655   4.975   0.524 -1.0351 -0.0276 -1.6135
  858MOL0     H15806  12.867   4.758   0.574 -0.8859 -1.5036  1.0799
  858MOL0     H15807  12.695   4.751   0.600 -0.9160  0.3870 -3.8169
  858MOL0     H15808  12.876   4.970   0.744  2.2757 -0.5579  1.8383
  858MOL0     H15809  12.714   4.933   0.777  0.7110 -0.6197 -0.5913
  858MOL0     H15810  12.146   4.762   0.049  0.7836 -1.1849  0.4151
  858MOL0     H15811  11.935   4.848   0.128 -1.3838 -1.8591 -0.0750
  858MOL0     H15812  11.578   4.626   0.437 -1.8474 -1.3028 -0.8476
  858MOL0     H15813  11.377   4.622   0.540  3.7320 -0.9429  3.7433
  858MOL0     H15814  10.739   4.953   1.905  1.1591 -0.4993  1.4819
  858MOL0     H15815  10.692   5.179   1.978  0.6365  4.2058 -0.0648
  858MOL0     H15816  10.813   5.718   1.717 -0.1304  1.4198  1.0576
  858MOL0     H15817  10.752   5.940   1.786  0.5367  1.6287  1.6663
  858MOL0     H15818  10.564   6.222   1.935  4.1598  2.6237  0.3618
  858MOL0     H15819  10.633   6.121   1.812  1.0588  0.0360 -0.6371
  858MOL0     H15820  10.798   6.275   1.928 -0.1813  0.0961 -0.1164
  858MOL0     H15821  10.846   6.117   1.927  0.8936  0.2267  1.2257
  858MOL0     H15822  10.882   6.212   2.130 -0.1936  0.8347 -1.2357
  858MOL0     H15823  10.756   6.082   2.159  0.8757 -0.6137 -1.0756
  858MOL0     H15824  10.581   6.246   2.189  0.5635 -1.2886  0.6625
  858MOL0     H15825  10.705   6.236   2.309 -0.3576 -1.2411  0.4404
  858MOL0     H15826  10.774   6.614   2.125  1.5408  1.5764  4.4259
  858MOL0     H15827  10.497   5.797   2.091  1.1979 -3.4362  1.6599
  858MOL0     H15828  10.617   5.452   2.071  1.4846  2.7525  0.4690
  858MOL0     H15829  10.495   5.553   2.150 -1.3538 -2.4084  0.4116
  858MOL0     H15830  10.462   5.498   1.985 -0.0448  3.3364 -1.9136
  859MOL0     O15831   8.587   5.184   1.469  0.8987 -0.1557  0.5372
  859MOL0     C15832   8.655   5.104   1.393  0.0921  0.7544 -0.2126
  859MOL0     O15833   8.789   5.079   1.402 -0.1260  0.7101 -0.4539
  859MOL0     C15834   8.868   5.160   1.474  0.0479  0.1983  0.4776
  859MOL0     C15835   8.974   5.247   1.417  0.9916  0.4378 -0.1241
  859MOL0     C15836   9.047   5.324   1.503  0.6335 -1.3398  0.5743
  859MOL0     C15837   9.025   5.334   1.634 -0.5908  0.6216  0.8349
  859MOL0     O15838   9.108   5.394   1.716 -0.2093  0.1795 -0.2321
  859MOL0     C15839   9.092   5.532   1.732 -0.2731 -0.0098  0.8542
  859MOL0     C15840   9.190   5.575   1.615 -0.3051 -0.3700 -0.5191
  859MOL0     C15841   9.282   5.692   1.645 -0.2304  1.0099  0.3618
  859MOL0     C15842   9.204   5.830   1.649  0.1308 -1.2802 -0.0666
  859MOL0     C15843   9.305   5.944   1.694  0.3512 -0.2665 -0.1614
  859MOL0     C15844   9.251   6.095   1.682  0.0735 -0.3046 -0.4501
  859MOL0     C15845   9.343   6.197   1.753 -0.4830 -1.0943  1.0960
  859MOL0     C15846   9.313   6.342   1.702 -0.5669 -0.0487 -0.2454
  859MOL0     N15847   9.176   6.377   1.655 -0.1118 -1.0503  0.0630
  859MOL0     C15848   9.153   6.405   1.520 -0.1272 -0.9901 -0.3924
  859MOL0     C15849   9.034   6.473   1.525  0.0650  0.1527  0.5908
  859MOL0     C15850   8.955   6.517   1.406 -0.5352 -0.0720  0.0709
  859MOL0     C15851   8.812   6.553   1.448  0.3833  0.1292 -0.7603
  859MOL0     C15852   8.718   6.584   1.327 -0.5610 -0.4894  0.0890
  859MOL0     C15853   8.670   6.460   1.256 -0.8105 -0.0878 -0.5919
  859MOL0     O15854   8.637   6.501   1.119  0.9397  0.8567 -0.3163
  859MOL0     C15855   8.522   6.450   1.068 -0.4143  0.0552 -0.0546
  859MOL0     C15856   8.462   6.510   0.959  0.2635  0.1117  0.7418
  859MOL0     C15857   8.343   6.463   0.895  0.8121 -0.4484  0.0732
  859MOL0     C15858   8.288   6.336   0.945  0.2099 -0.6697  0.5322
  859MOL0     C15859   8.172   6.272   0.890  0.9515  0.5482 -0.0532
  859MOL0     O15860   8.101   6.195   0.977 -0.0198  0.5601 -0.0194
  859MOL0     C15861   8.008   6.104   0.924 -0.0832 -0.4104 -0.4584
  859MOL0     C15862   8.052   6.005   0.832  0.2104  0.0535 -0.8776
  859MOL0     C15863   7.958   5.918   0.783 -0.6822 -0.0565  0.8121
  859MOL0     C15864   7.823   5.908   0.818 -0.8276  0.0421  0.2804
  859MOL0     O15865   7.733   5.817   0.782  0.6125  0.7130  0.3389
  859MOL0     C15866   7.732   5.766   0.653  0.0527 -0.1910  0.2574
  859MOL0     C15867   7.601   5.687   0.635 -0.4310 -0.5363 -0.7922
  859MOL0     C15868   7.563   5.673   0.484  0.4201 -1.2044 -0.4834
  859MOL0     C15869   7.449   5.579   0.464 -0.7600  0.1343 -0.4981
  859MOL0     C15870   7.460   5.520   0.319 -0.0022 -0.2953 -0.3397
  859MOL0     C15871   7.584   5.424   0.317 -0.6098 -0.0061  0.7652
  859MOL0     C15872   7.565   5.297   0.228 -0.0790 -0.9987 -0.8673
  859MOL0     C15873   7.678   5.195   0.221 -0.1097  0.7339  0.1532
  859MOL0    Cl15874   7.840   5.277   0.177 -0.0926 -0.0263 -0.2879
  859MOL0     C15875   7.789   5.998   0.920  0.9228 -0.3248 -0.0368
  859MOL0     C15876   7.877   6.106   0.965 -0.5078 -0.1190 -0.4301
  859MOL0     O15877   8.136   6.295   0.775  0.3744 -0.0778  0.1809
  859MOL0     C15878   8.355   6.266   1.046  0.5545 -0.4740 -0.6667
  859MOL0     C15879   8.463   6.327   1.112  0.3174 -0.3266  0.6320
  859MOL0     N15880   8.988   6.469   1.654 -0.2074 -0.7947 -0.5384
  859MOL0     N15881   9.069   6.417   1.735  0.0514  0.3178 -0.9239
  859MOL0     C15882   8.926   5.247   1.690  0.3223 -1.1593  0.2697
  859MOL0     C15883   8.846   5.176   1.607 -0.8174  0.1091  0.6861
  859MOL0     C15884   8.574   5.007   1.311  0.3626  0.1155 -0.0460
  859MOL0     C15885   8.435   5.015   1.319  0.0036 -0.2709  0.0213
  859MOL0     C15886   8.353   4.935   1.240  0.4096 -0.4746  0.2543
  859MOL0     C15887   8.401   4.852   1.143  0.7874 -0.2440  0.1873
  859MOL0     O15888   8.310   4.780   1.076  0.6487  0.4587  0.3542
  859MOL0     C15889   8.293   4.639   1.110  0.0626  0.5895  0.1956
  859MOL0     C15890   8.250   4.572   0.983 -0.1892 -0.4057  0.2180
  859MOL0     C15891   8.230   4.424   1.013 -0.4150 -0.3849  0.1671
  859MOL0     C15892   8.178   4.350   0.890  0.8146  0.3792  0.3963
  859MOL0     C15893   8.030   4.362   0.857 -0.5009  0.4059 -0.1618
  859MOL0     C15894   7.911   4.354   0.824  0.2063  0.0439 -0.6253
  859MOL0     C15895   8.542   4.841   1.136  0.5602 -0.2461  0.2191
  859MOL0     C15896   8.629   4.909   1.222 -0.2938  0.0413  0.2122
  859MOL0     C15897   8.774   4.877   1.186  0.8928  0.1574 -1.2831
  859MOL0     H15898   9.002   5.256   1.312 -1.4292 -0.5706 -0.9331
  859MOL0     H15899   9.109   5.396   1.449  0.1355 -1.3433 -0.0148
  859MOL0     H15900   8.994   5.566   1.698 -0.0543 -0.3862 -0.1746
  859MOL0     H15901   9.135   5.560   1.829  0.7427 -7.1092  3.0110
  859MOL0     H15902   9.137   5.607   1.525  0.9730  0.0080 -1.1735
  859MOL0     H15903   9.263   5.495   1.600 -1.3728 -1.4151 -0.2620
  859MOL0     H15904   9.355   5.689   1.564  0.2014  1.4988  0.7281
  859MOL0     H15905   9.324   5.670   1.743 -1.0512 -0.7867  0.3489
  859MOL0     H15906   9.147   5.845   1.557 -2.1845 -0.4719  1.4310
  859MOL0     H15907   9.124   5.824   1.722  1.7876  1.0715  2.1126
  859MOL0     H15908   9.338   5.914   1.794  0.9604 -2.1217 -0.8846
  859MOL0     H15909   9.402   5.940   1.643  0.7238 -0.0795  0.5117
  859MOL0     H15910   9.250   6.127   1.577  0.6684 -1.7182 -0.9147
  859MOL0     H15911   9.149   6.101   1.719 -0.1582  0.1016 -1.1451
  859MOL0     H15912   9.449   6.182   1.732 -0.5325  2.4391 -2.6377
  859MOL0     H15913   9.338   6.185   1.862  0.5730  1.5322  1.5139
  859MOL0     H15914   9.330   6.407   1.789 -0.8059  0.0020 -0.2347
  859MOL0     H15915   9.379   6.368   1.619 -1.8780 -0.3312 -1.4042
  859MOL0     H15916   9.211   6.386   1.430 -0.1557 -0.6220 -0.4920
  859MOL0     H15917   9.004   6.607   1.370 -0.7818  2.2439  4.7442
  859MOL0     H15918   8.953   6.434   1.334 -1.3757  0.3804 -0.4426
  859MOL0     H15919   8.775   6.468   1.505  3.5689 -0.8352  0.0553
  859MOL0     H15920   8.818   6.638   1.516  2.4666  0.8376 -1.7210
  859MOL0     H15921   8.762   6.647   1.249 -1.2458  0.7940  0.7120
  859MOL0     H15922   8.633   6.641   1.365 -0.8325 -0.5428 -0.4390
  859MOL0     H15923   8.590   6.416   1.316 -1.1490 -2.0081 -2.3297
  859MOL0     H15924   8.747   6.382   1.261 -0.2352  0.5537  2.2378
  859MOL0     H15925   8.508   6.604   0.930  0.7772 -0.8759 -1.9911
  859MOL0     H15926   8.301   6.526   0.817 -1.4491  0.2964  1.7880
  859MOL0     H15927   8.153   6.006   0.793 -0.0782  1.1609 -1.6490
  859MOL0     H15928   7.981   5.841   0.710 -3.4588  0.1473 -0.4208
  859MOL0     H15929   7.733   5.848   0.581  1.0892  1.0680  1.6577
  859MOL0     H15930   7.813   5.702   0.618  0.2876  0.6037 -0.7090
  859MOL0     H15931   7.624   5.590   0.681  2.2107  1.3622  2.2772
  859MOL0     H15932   7.510   5.735   0.673  0.4492  0.7735 -0.2887
  859MOL0     H15933   7.514   5.766   0.454 -2.4342 -2.2109  0.7201
  859MOL0     H15934   7.651   5.662   0.420 -0.7068  2.6472 -3.0790
  859MOL0     H15935   7.354   5.632   0.476 -0.7506 -0.1301  0.8565
  859MOL0     H15936   7.461   5.492   0.530 -0.9627 -0.8037 -1.6552
  859MOL0     H15937   7.468   5.597   0.242  1.2543  0.7442  0.7698
  859MOL0     H15938   7.365   5.467   0.307 -1.4459  2.1459 -0.4236
  859MOL0     H15939   7.672   5.478   0.282 -1.4582 -0.2254 -1.9218
  859MOL0     H15940   7.605   5.389   0.419 -1.8223  0.6985  1.2728
  859MOL0     H15941   7.541   5.330   0.127 -1.6494  1.5747  0.2370
  859MOL0     H15942   7.473   5.257   0.272 -2.0125  3.5440 -0.2212
  859MOL0     H15943   7.683   5.136   0.313 -1.0477 -1.9526 -1.4202
  859MOL0     H15944   7.653   5.120   0.146  2.7731  0.7546 -0.9496
  859MOL0     H15945   7.688   5.992   0.960  0.0491 -1.1177 -2.2265
  859MOL0     H15946   7.831   6.175   1.035 -0.6504  0.9268 -1.5178
  859MOL0     H15947   8.336   6.164   1.076  0.4471 -0.2584  0.0262
  859MOL0     H15948   8.515   6.267   1.185  3.2554 -1.0756 -1.9010
  859MOL0     H15949   8.927   5.252   1.799 -1.3014 -1.4212  0.3187
  859MOL0     H15950   8.767   5.113   1.647  0.4516 -1.0076  1.4867
  859MOL0     H15951   8.380   5.079   1.387  2.6039 -0.9222  3.0083
  859MOL0     H15952   8.247   4.955   1.247  0.4719 -0.1499  0.3213
  859MOL0     H15953   8.215   4.623   1.184 -3.3928  1.2689 -2.9959
  859MOL0     H15954   8.389   4.603   1.149  0.6692  3.2044  1.3903
  859MOL0     H15955   8.327   4.591   0.909  0.5322 -0.7400  0.8657
  859MOL0     H15956   8.157   4.624   0.959 -0.6477 -0.5780  1.5377
  859MOL0     H15957   8.164   4.398   1.097 -0.7064  1.5341  0.5734
  859MOL0     H15958   8.331   4.387   1.033  0.8227  1.5373 -2.0674
  859MOL0     H15959   8.237   4.373   0.801 -1.4339  1.5289 -0.9028
  859MOL0     H15960   8.187   4.243   0.908 -4.6153  0.0267  3.1599
  859MOL0     H15961   7.809   4.352   0.792  0.7494  0.9712 -2.5987
  859MOL0     H15962   8.591   4.771   1.068 -2.0798  1.5943 -3.9204
  859MOL0     H15963   8.783   4.878   1.077  1.9309  0.9666 -1.2086
  859MOL0     H15964   8.849   4.946   1.227 -0.1902  0.0283  1.0884
  859MOL0     H15965   8.793   4.776   1.221 -1.1310  0.2196  0.1388
  860MOL0     O15966   9.253   3.279   3.089 -0.8247 -0.6700 -0.2767
  860MOL0     C15967   9.284   3.375   3.159 -0.1136  0.0294 -0.0740
  860MOL0     O15968   9.367   3.378   3.264  0.6288  1.0739  0.4386
  860MOL0     C15969   9.441   3.260   3.284  0.4972 -0.6565 -0.2204
  860MOL0     C15970   9.550   3.233   3.204 -0.3292 -0.4766 -0.1666
  860MOL0     C15971   9.644   3.135   3.241 -0.4894  0.1012  0.0933
  860MOL0     C15972   9.630   3.064   3.352 -0.1609  0.1375 -0.5863
  860MOL0     O15973   9.723   2.978   3.405  0.8138 -1.2303  0.4288
  860MOL0     C15974   9.820   2.917   3.325  0.6740  0.0877 -0.6443
  860MOL0     C15975   9.756   2.809   3.235 -0.4228  0.5674 -0.5341
  860MOL0     C15976   9.792   2.823   3.091  0.6981 -0.0971 -0.8833
  860MOL0     C15977   9.940   2.807   3.060 -1.1406  0.9108 -0.5549
  860MOL0     C15978   9.970   2.813   2.916  0.1237 -0.2438 -0.3160
  860MOL0     C15979  10.113   2.862   2.878 -1.0459 -1.0555  0.8230
  860MOL0     C15980  10.139   2.846   2.719 -0.8112 -0.1509 -0.4940
  860MOL0     C15981  10.029   2.941   2.659  0.2439 -0.2594  0.3218
  860MOL0     N15982  10.054   2.998   2.528  0.8905 -0.1312 -0.6087
  860MOL0     C15983  10.124   2.937   2.425 -0.2087  0.0262  0.6800
  860MOL0     C15984  10.133   3.028   2.329 -0.2940 -0.5586  0.1752
  860MOL0     C15985  10.174   3.008   2.187  0.1770  0.2826  0.7963
  860MOL0     C15986  10.326   2.967   2.195 -0.2164 -0.2199 -0.2509
  860MOL0     C15987  10.397   2.886   2.081 -0.8343  1.0000  0.9179
  860MOL0     C15988  10.304   2.805   1.989  0.1007 -0.1852 -0.0967
  860MOL0     O15989  10.393   2.717   1.928 -0.2327 -0.7511 -0.0784
  860MOL0     C15990  10.371   2.664   1.799  0.4276  0.6791 -0.5463
  860MOL0     C15991  10.255   2.663   1.730  0.1411 -0.3886  1.1441
  860MOL0     C15992  10.251   2.613   1.597  0.7502 -0.6692  0.3976
  860MOL0     C15993  10.365   2.557   1.538 -0.9081 -0.8147  0.1417
  860MOL0     C15994  10.374   2.528   1.394 -0.4500  0.2011  0.7384
  860MOL0     O15995  10.264   2.548   1.314 -0.7964  0.3821 -0.1339
  860MOL0     C15996  10.269   2.494   1.191  0.2655  0.1067 -0.3040
  860MOL0     C15997  10.151   2.437   1.148 -0.0568 -0.5661  0.1470
  860MOL0     C15998  10.145   2.362   1.031  0.1472  0.3460 -0.2477
  860MOL0     C15999  10.262   2.351   0.949  0.5035 -0.2130  0.8526
  860MOL0     O16000  10.278   2.255   0.849 -0.4844 -0.5658 -0.2055
  860MOL0     C16001  10.215   2.125   0.874  0.2715 -0.0971  0.9929
  860MOL0     C16002  10.228   2.024   0.762 -1.3981 -0.2319 -0.6003
  860MOL0     C16003  10.357   2.044   0.681  0.2278  1.0618  0.5779
  860MOL0     C16004  10.344   1.977   0.545  0.0149  0.9876 -0.6011
  860MOL0     C16005  10.455   2.008   0.448 -0.5660 -0.1062 -0.1243
  860MOL0     C16006  10.457   2.153   0.397  0.7917 -0.1164 -0.2440
  860MOL0     C16007  10.546   2.177   0.284 -0.8902  0.3506 -0.6228
  860MOL0     C16008  10.602   2.321   0.266 -0.5925  0.7924  0.3462
  860MOL0    Cl16009  10.662   2.390   0.417  0.0736 -0.6097 -0.0503
  860MOL0     C16010  10.376   2.418   0.988 -0.3056 -0.1426  1.2119
  860MOL0     C16011  10.382   2.485   1.106 -0.3963  0.0471  1.0095
  860MOL0     O16012  10.474   2.458   1.360 -0.2701  0.5706 -0.4580
  860MOL0     C16013  10.483   2.545   1.619  0.1261  0.7005  0.0934
  860MOL0     C16014  10.489   2.602   1.747 -0.7881  0.4469  0.5634
  860MOL0     N16015  10.100   3.147   2.381  0.2579  0.2031  0.0401
  860MOL0     N16016  10.049   3.130   2.497  0.2462  0.2397  0.1231
  860MOL0     C16017   9.524   3.101   3.441 -0.9452  0.5862  0.0713
  860MOL0     C16018   9.427   3.195   3.409  0.3458 -0.8180  0.3804
  860MOL0     C16019   9.202   3.505   3.128  0.2534 -0.3263 -0.2177
  860MOL0     C16020   9.095   3.489   3.042 -0.0709 -0.2212  0.6115
  860MOL0     C16021   9.012   3.590   2.993 -0.8598 -0.9309 -0.2476
  860MOL0     C16022   9.023   3.717   3.048 -0.3283  0.0409  0.8398
  860MOL0     O16023   8.925   3.802   3.019 -0.0940 -0.2574 -0.1011
  860MOL0     C16024   8.898   3.899   3.112  0.0498 -0.3330 -0.5638
  860MOL0     C16025   8.837   3.844   3.241 -0.1149  1.0205 -0.5465
  860MOL0     C16026   8.709   3.761   3.222  0.1458 -0.4019  0.4561
  860MOL0     C16027   8.731   3.624   3.276 -0.1316  0.0318 -0.8488
  860MOL0     C16028   8.742   3.618   3.412  1.0569 -0.1218  0.3340
  860MOL0     C16029   8.765   3.608   3.529 -0.1712  0.3471  0.0452
  860MOL0     C16030   9.131   3.743   3.142 -0.6226  0.8703 -0.7024
  860MOL0     C16031   9.215   3.638   3.168 -0.7765  0.6604  0.1439
  860MOL0     C16032   9.335   3.666   3.265  0.1476  0.9270  0.0844
  860MOL0     H16033   9.565   3.292   3.114  0.4411 -0.6936 -0.1933
  860MOL0     H16034   9.719   3.107   3.168 -1.4751 -1.6310 -0.2988
  860MOL0     H16035   9.872   2.994   3.267 -0.6785  0.1175 -1.8834
  860MOL0     H16036   9.870   2.868   3.409 -2.1101  0.0222  1.1328
  860MOL0     H16037   9.648   2.819   3.248 -0.3832 -0.4748  0.8156
  860MOL0     H16038   9.785   2.709   3.266 -1.6664  0.6158  0.9170
  860MOL0     H16039   9.758   2.923   3.061  0.3070  0.2653  0.6768
  860MOL0     H16040   9.739   2.740   3.044 -0.3606  0.4066 -0.6075
  860MOL0     H16041  10.008   2.878   3.107  0.7781 -0.9986 -0.3195
  860MOL0     H16042   9.975   2.709   3.093 -0.7894  0.8235 -1.1561
  860MOL0     H16043   9.950   2.718   2.864 -1.3748  0.0306 -0.3021
  860MOL0     H16044   9.904   2.887   2.870  2.1946  2.1382  0.3341
  860MOL0     H16045  10.139   2.961   2.917  0.5672 -0.1196 -2.2721
  860MOL0     H16046  10.186   2.800   2.930  2.7630  0.4704 -2.1723
  860MOL0     H16047  10.113   2.743   2.692 -0.8239 -0.8060  1.8412
  860MOL0     H16048  10.239   2.876   2.689  0.1426 -2.9573 -0.4857
  860MOL0     H16049   9.945   2.873   2.646 -0.7849  1.1544 -0.8432
  860MOL0     H16050  10.013   3.017   2.737 -1.1730 -0.5191  0.3127
  860MOL0     H16051  10.147   2.831   2.436  2.3132  0.2390 -1.3691
  860MOL0     H16052  10.117   2.932   2.134 -1.1320  1.4919  0.4222
  860MOL0     H16053  10.174   3.106   2.137  2.2563 -0.1012 -0.0725
  860MOL0     H16054  10.395   3.046   2.222  1.8043 -2.1196  0.4581
  860MOL0     H16055  10.325   2.899   2.281 -1.7585  0.6350  0.4457
  860MOL0     H16056  10.462   2.815   2.133 -0.6019 -0.2254 -0.9509
  860MOL0     H16057  10.457   2.957   2.023 -0.1203  0.9668  1.6003
  860MOL0     H16058  10.234   2.866   1.932 -1.3964  0.6583  2.5239
  860MOL0     H16059  10.234   2.751   2.053  0.6903 -0.6117  0.2033
  860MOL0     H16060  10.165   2.684   1.786 -1.2629 -1.7087 -0.5044
  860MOL0     H16061  10.161   2.617   1.535  1.3441  2.7139 -0.4465
  860MOL0     H16062  10.060   2.429   1.207 -0.8583 -0.3589 -1.0186
  860MOL0     H16063  10.058   2.300   1.012 -1.3069  1.2244  2.9561
  860MOL0     H16064  10.267   2.078   0.959  0.0761 -0.9344  0.6597
  860MOL0     H16065  10.108   2.129   0.895 -0.1604  0.4673 -1.1212
  860MOL0     H16066  10.244   1.925   0.806  3.0233  0.3222 -0.4745
  860MOL0     H16067  10.135   2.022   0.705  0.1775 -0.3244 -3.3152
  860MOL0     H16068  10.365   2.150   0.657 -0.6565  0.6659 -1.7210
  860MOL0     H16069  10.449   2.023   0.737 -0.7785 -0.1514  1.8576
  860MOL0     H16070  10.252   2.008   0.495  0.2698  1.6738 -0.6508
  860MOL0     H16071  10.333   1.871   0.570  0.3678  1.3336  1.1213
  860MOL0     H16072  10.448   1.934   0.368  2.2115 -2.6364  1.7506
  860MOL0     H16073  10.547   1.979   0.501 -1.7155  1.1918  2.7995
  860MOL0     H16074  10.354   2.174   0.368 -0.1150 -3.2726  0.2649
  860MOL0     H16075  10.477   2.232   0.470 -0.4838  0.4189 -0.4430
  860MOL0     H16076  10.509   2.120   0.199 -1.4813  0.6151 -0.5509
  860MOL0     H16077  10.639   2.124   0.307 -3.3904 -3.1217  2.6950
  860MOL0     H16078  10.683   2.315   0.193 -2.2602 -0.4361 -1.4739
  860MOL0     H16079  10.527   2.391   0.227  0.6515  1.6098 -0.6735
  860MOL0     H16080  10.471   2.405   0.938  0.6297  0.3340  2.7962
  860MOL0     H16081  10.477   2.527   1.137  1.0282 -2.1572 -0.1412
  860MOL0     H16082  10.574   2.499   1.582 -0.6667 -1.6606  0.9190
  860MOL0     H16083  10.581   2.600   1.804  0.9245  1.7425 -1.9324
  860MOL0     H16084   9.535   3.052   3.537  0.5440  3.6337  1.6007
  860MOL0     H16085   9.345   3.215   3.477 -1.6203 -2.2777 -1.4595
  860MOL0     H16086   9.066   3.394   2.999 -1.9817  1.1617 -1.3724
  860MOL0     H16087   8.925   3.552   2.940 -0.9940  0.4288 -1.0520
  860MOL0     H16088   8.822   3.964   3.068  0.2174 -0.6950 -1.4206
  860MOL0     H16089   8.979   3.971   3.129  0.1517 -0.5203 -0.2420
  860MOL0     H16090   8.823   3.929   3.308 -3.4741  1.0007 -1.0350
  860MOL0     H16091   8.914   3.780   3.285 -0.0652  1.0475 -0.5925
  860MOL0     H16092   8.681   3.754   3.117 -1.3464  2.8834  0.5168
  860MOL0     H16093   8.622   3.807   3.268  0.5985 -1.0498  2.0344
  860MOL0     H16094   8.644   3.559   3.259  1.2643 -2.2181  0.1449
  860MOL0     H16095   8.811   3.564   3.232 -0.0706  0.7421 -1.7278
  860MOL0     H16096   8.774   3.609   3.636 -0.6669 -0.1505  0.0917
  860MOL0     H16097   9.142   3.844   3.179  4.8531  0.1710  0.3356
  860MOL0     H16098   9.425   3.607   3.243  0.7827  2.1985 -0.8397
  860MOL0     H16099   9.361   3.772   3.270 -0.4929  1.0912  0.0055
  860MOL0     H16100   9.309   3.631   3.365  1.3835 -3.8099 -0.9656
  861MOL0     O16101   7.305   6.863   4.709  0.2007  1.0638  0.2227
  861MOL0     C16102   7.252   6.911   4.610 -0.6023  0.6793  0.8853
  861MOL0     O16103   7.176   6.833   4.518  0.7900 -0.8346  0.5795
  861MOL0     C16104   7.191   6.698   4.520 -0.0423  0.6746  0.8683
  861MOL0     C16105   7.089   6.616   4.566 -0.3895  0.0074  0.1390
  861MOL0     C16106   7.102   6.478   4.573 -0.7291 -0.0392  0.4409
  861MOL0     C16107   7.230   6.425   4.537 -0.4760  0.4005  0.8393
  861MOL0     O16108   7.259   6.292   4.557 -0.1119 -0.4743  0.1352
  861MOL0     C16109   7.185   6.203   4.469  0.3028  0.2127 -0.1376
  861MOL0     C16110   7.213   6.212   4.323  0.3321  0.1021 -0.4358
  861MOL0     C16111   7.144   6.102   4.244  0.0889 -0.0081  1.4072
  861MOL0     C16112   7.207   6.108   4.106 -0.1526 -0.0285  0.7191
  861MOL0     C16113   7.138   6.209   4.012 -0.5626  0.4097 -0.7782
  861MOL0     C16114   6.988   6.195   3.999 -0.1978  0.5389  0.2173
  861MOL0     C16115   6.925   6.238   3.865 -0.4312  0.7492  0.0337
  861MOL0     C16116   6.950   6.378   3.826 -0.0803 -0.5266  0.2532
  861MOL0     N16117   6.884   6.483   3.918 -0.0293  0.8692  0.9571
  861MOL0     C16118   6.940   6.510   4.036 -0.9174 -0.1929 -0.8070
  861MOL0     C16119   6.847   6.577   4.096  0.2481 -0.8102  0.1777
  861MOL0     C16120   6.862   6.663   4.217  0.7979  0.7424 -0.4853
  861MOL0     C16121   6.907   6.801   4.181  0.5859 -0.4284 -0.0776
  861MOL0     C16122   6.807   6.872   4.082  0.4756  0.2170 -0.1256
  861MOL0     C16123   6.830   7.017   4.070 -0.7289  0.3317  0.0150
  861MOL0     O16124   6.969   7.041   4.054 -0.7210  0.6328  0.0837
  861MOL0     C16125   7.006   7.173   4.073  0.3695  0.2079 -0.6096
  861MOL0     C16126   6.924   7.289   4.088  0.0022  0.3150  0.2439
  861MOL0     C16127   6.976   7.423   4.096 -0.1349  0.1711  0.6695
  861MOL0     C16128   7.109   7.437   4.106  0.3306  0.4475  0.5476
  861MOL0     C16129   7.172   7.571   4.124  0.2859  0.0829 -0.1872
  861MOL0     O16130   7.104   7.678   4.089  0.0163  0.1380  0.1646
  861MOL0     C16131   7.160   7.808   4.091  0.1743  0.2357  0.1786
  861MOL0     C16132   7.070   7.913   4.126  0.0109 -0.1399 -0.4440
  861MOL0     C16133   7.113   8.051   4.128  1.0689  0.4188 -0.5449
  861MOL0     C16134   7.246   8.080   4.102 -0.3449 -0.2128  0.7743
  861MOL0     O16135   7.295   8.208   4.113 -0.1193 -0.6403 -0.0105
  861MOL0     C16136   7.213   8.315   4.159  0.3207  0.5863  0.1022
  861MOL0     C16137   7.303   8.432   4.134  0.3618 -1.5718  1.0742
  861MOL0     C16138   7.312   8.489   3.988  0.0045 -0.5750 -0.0691
  861MOL0     C16139   7.316   8.392   3.868 -0.4565  0.3943 -0.2882
  861MOL0     C16140   7.437   8.424   3.785  0.0705 -1.2010 -1.0170
  861MOL0     C16141   7.560   8.367   3.862  0.0273  0.0799  0.2779
  861MOL0     C16142   7.691   8.372   3.788 -1.0805 -0.6432  0.7143
  861MOL0     C16143   7.761   8.513   3.796  0.1034  0.2083 -0.4799
  861MOL0    Cl16144   7.691   8.642   3.685 -0.5780 -0.1178  0.6636
  861MOL0     C16145   7.328   7.982   4.060 -0.2229 -0.0947  0.5207
  861MOL0     C16146   7.286   7.848   4.044 -0.2893  0.1897  0.3714
  861MOL0     O16147   7.281   7.569   4.165 -0.6693 -0.2362 -0.3457
  861MOL0     C16148   7.193   7.320   4.100 -0.8702 -0.0009  0.5501
  861MOL0     C16149   7.144   7.196   4.080 -0.6159  0.4496  1.1405
  861MOL0     N16150   6.732   6.580   4.010  0.0045 -0.4960  0.4198
  861MOL0     N16151   6.759   6.529   3.897  0.7249  0.0844  0.7919
  861MOL0     C16152   7.322   6.501   4.470  0.2969 -0.4762 -0.0147
  861MOL0     C16153   7.313   6.640   4.462  0.9257 -0.6230 -0.8476
  861MOL0     C16154   7.244   7.058   4.598  0.6111 -0.3252  0.4979
  861MOL0     C16155   7.156   7.121   4.501  0.1481 -0.4310  0.8498
  861MOL0     C16156   7.151   7.260   4.494  0.7456  0.0158 -0.1382
  861MOL0     C16157   7.206   7.353   4.589 -0.2890 -0.1492 -0.4882
  861MOL0     O16158   7.201   7.485   4.603 -0.0607  0.2328 -0.8843
  861MOL0     C16159   7.104   7.551   4.529  0.2208  0.0889  0.9604
  861MOL0     C16160   7.173   7.675   4.465 -0.1620 -0.2571  0.0137
  861MOL0     C16161   7.209   7.784   4.562 -0.3636  1.1167 -0.0009
  861MOL0     C16162   7.227   7.912   4.473 -0.2919 -0.3899 -0.0092
  861MOL0     C16163   7.261   8.032   4.548 -1.1715 -0.0265 -0.2050
  861MOL0     C16164   7.298   8.127   4.611  0.0181 -0.8353 -0.2683
  861MOL0     C16165   7.293   7.286   4.685 -0.6568 -0.3551  0.4164
  861MOL0     C16166   7.317   7.143   4.688  0.4573  0.4637  0.2322
  861MOL0     C16167   7.411   7.098   4.793  0.3164  0.3413 -0.3837
  861MOL0     H16168   6.987   6.645   4.588 -0.8404  0.7379 -2.5837
  861MOL0     H16169   7.031   6.409   4.619  3.5499 -4.8829  0.7480
  861MOL0     H16170   7.211   6.098   4.487  3.3579  0.2102 -3.5309
  861MOL0     H16171   7.082   6.213   4.505  1.1087  0.9791  2.1615
  861MOL0     H16172   7.321   6.199   4.314  0.1784 -1.0530 -0.7717
  861MOL0     H16173   7.180   6.311   4.291 -0.3415 -0.1969 -0.6841
  861MOL0     H16174   7.036   6.115   4.248  0.1697  0.9689  0.6855
  861MOL0     H16175   7.181   6.005   4.277  0.5505 -1.1211 -2.0665
  861MOL0     H16176   7.312   6.138   4.108 -0.8268  2.7546 -1.0547
  861MOL0     H16177   7.195   6.016   4.049 -1.1469 -0.3713  1.4551
  861MOL0     H16178   7.161   6.306   4.056  0.8356 -0.5649  0.7901
  861MOL0     H16179   7.183   6.202   3.913  1.0607  1.1385 -0.1306
  861MOL0     H16180   6.961   6.093   4.029  4.3106 -1.1843 -0.6574
  861MOL0     H16181   6.957   6.247   4.090 -0.5658 -3.9613  2.9846
  861MOL0     H16182   6.817   6.222   3.863 -0.3695  0.1985 -2.1564
  861MOL0     H16183   6.963   6.171   3.786 -0.9943 -0.2341  0.5772
  861MOL0     H16184   7.059   6.381   3.824 -0.0320 -1.7042  0.3773
  861MOL0     H16185   6.910   6.383   3.725  0.9847 -3.8999 -0.4488
  861MOL0     H16186   7.044   6.493   4.061 -1.5580 -1.9374  0.9053
  861MOL0     H16187   6.765   6.661   4.269  0.3713 -1.7941 -1.2692
  861MOL0     H16188   6.933   6.617   4.287  0.4364 -1.2993 -1.3997
  861MOL0     H16189   6.911   6.849   4.279 -1.3949 -0.6591  0.1650
  861MOL0     H16190   7.008   6.794   4.139  1.1140 -1.0657  1.2327
  861MOL0     H16191   6.704   6.861   4.116  0.8443 -1.4768  0.5303
  861MOL0     H16192   6.813   6.828   3.983  2.9448 -1.0198  0.4960
  861MOL0     H16193   6.796   7.068   4.161 -0.3158  0.2598  0.2088
  861MOL0     H16194   6.778   7.066   3.987  1.2516  3.9149  0.7082
  861MOL0     H16195   6.817   7.279   4.071  0.1286  0.0777 -0.4141
  861MOL0     H16196   6.905   7.503   4.117 -0.9200 -0.1974 -0.4531
  861MOL0     H16197   6.968   7.883   4.148 -0.2812  1.0058 -0.1950
  861MOL0     H16198   7.043   8.124   4.167  2.1230  1.8011 -1.1832
  861MOL0     H16199   7.118   8.314   4.103 -0.3965  3.1287  1.1145
  861MOL0     H16200   7.192   8.317   4.266  1.1880 -0.3144  0.3003
  861MOL0     H16201   7.272   8.512   4.202  1.6871 -2.1459  2.3964
  861MOL0     H16202   7.404   8.400   4.161  0.5209 -1.0887  1.0449
  861MOL0     H16203   7.221   8.549   3.983  0.8244  0.7971  1.0312
  861MOL0     H16204   7.399   8.555   3.978  0.0290 -0.7705 -1.3649
  861MOL0     H16205   7.236   8.408   3.795  0.8344  1.1767 -1.5945
  861MOL0     H16206   7.324   8.284   3.882  0.1205  0.5506  0.7085
  861MOL0     H16207   7.454   8.531   3.766 -1.0511 -0.5189  1.4434
  861MOL0     H16208   7.441   8.379   3.686  1.3605 -2.2915 -0.5119
  861MOL0     H16209   7.576   8.400   3.965 -2.1058  0.7145  0.4674
  861MOL0     H16210   7.535   8.262   3.879  0.1322  0.3299  2.2378
  861MOL0     H16211   7.681   8.337   3.685  1.3630 -2.8406  1.1240
  861MOL0     H16212   7.744   8.283   3.821 -3.2997 -2.1462  0.4599
  861MOL0     H16213   7.739   8.545   3.898 -2.1014  4.3337 -2.0166
  861MOL0     H16214   7.868   8.497   3.780  0.2882  0.2527  0.6278
  861MOL0     H16215   7.426   8.017   4.032 -0.1538 -1.5433 -1.2148
  861MOL0     H16216   7.356   7.772   4.010  0.4253  0.9000  0.2161
  861MOL0     H16217   7.300   7.334   4.110 -0.3025 -2.0300 -1.6281
  861MOL0     H16218   7.212   7.113   4.060 -2.5018 -1.4462  2.1348
  861MOL0     H16219   7.416   6.458   4.436  1.2855 -1.2260  3.3257
  861MOL0     H16220   7.382   6.701   4.404  0.3150 -0.8471 -1.8225
  861MOL0     H16221   7.098   7.053   4.440  0.6498 -0.7946  0.7737
  861MOL0     H16222   7.080   7.284   4.415 -0.1491 -0.2458  0.5778
  861MOL0     H16223   7.024   7.583   4.597 -2.1095 -2.3193 -0.4575
  861MOL0     H16224   7.061   7.491   4.449 -2.5371  0.1795  2.2343
  861MOL0     H16225   7.105   7.710   4.386  0.0416 -0.0284 -0.0602
  861MOL0     H16226   7.264   7.639   4.416 -1.1330 -3.0036  0.0289
  861MOL0     H16227   7.291   7.762   4.631 -1.8779 -0.1426  1.5181
  861MOL0     H16228   7.122   7.803   4.627 -0.5343  2.2252 -0.5245
  861MOL0     H16229   7.306   7.879   4.406 -0.5047 -5.4846  1.8313
  861MOL0     H16230   7.134   7.929   4.417 -1.9707 -2.8961  1.8089
  861MOL0     H16231   7.322   8.210   4.674  2.8281 -2.9356  1.7134
  861MOL0     H16232   7.341   7.353   4.755  0.3132 -2.4529  1.8968
  861MOL0     H16233   7.502   7.157   4.779  1.1627 -0.2748  2.0104
  861MOL0     H16234   7.373   7.121   4.893  0.4111 -4.8089  1.1057
  861MOL0     H16235   7.447   6.995   4.792  2.4764  0.9980  1.1951
  862MOL0     O16236   2.937   6.744  10.385  0.6752 -0.9370  0.1253
  862MOL0     C16237   2.843   6.823  10.401 -0.0467  0.4351  0.0488
  862MOL0     O16238   2.860   6.953  10.419  0.9238 -0.1404  0.0069
  862MOL0     C16239   2.994   6.984  10.417 -0.2910 -0.1356 -0.3801
  862MOL0     C16240   3.072   6.970  10.533  0.1411 -0.7684 -0.3650
  862MOL0     C16241   3.203   7.009  10.532 -0.6013 -0.0574  0.6039
  862MOL0     C16242   3.254   7.067  10.417  0.9172  0.2299  0.0022
  862MOL0     O16243   3.377   7.117  10.417 -0.6424  0.1831  0.4612
  862MOL0     C16244   3.465   7.124  10.299 -0.0125 -0.2951 -0.0621
  862MOL0     C16245   3.609   7.162  10.332  0.3078  0.4457 -0.6127
  862MOL0     C16246   3.699   7.077  10.411  0.2313 -0.3557  0.6510
  862MOL0     C16247   3.654   7.094  10.558  0.0249 -0.5279 -0.9850
  862MOL0     C16248   3.754   7.059  10.676 -0.8341  0.1086 -0.0023
  862MOL0     C16249   3.706   7.115  10.810 -0.7455  0.5272  0.6079
  862MOL0     C16250   3.563   7.074  10.850  0.5544 -0.2613  0.7887
  862MOL0     C16251   3.540   6.920  10.868 -0.1171 -0.2615  0.2729
  862MOL0     N16252   3.606   6.855  10.984  0.1202  0.1881  0.3453
  862MOL0     C16253   3.724   6.781  10.967 -0.7111 -1.6012  0.8866
  862MOL0     C16254   3.745   6.739  11.092 -0.5273 -0.7482  0.5406
  862MOL0     C16255   3.866   6.664  11.142 -0.2028 -0.8339  0.2612
  862MOL0     C16256   3.873   6.517  11.102 -0.5061  0.2978 -0.7161
  862MOL0     C16257   4.003   6.443  11.127  0.2872 -0.6960 -0.4071
  862MOL0     C16258   4.014   6.406  11.273 -1.4039 -0.1785  0.1664
  862MOL0     O16259   3.927   6.293  11.296 -0.6516 -0.4130  0.0061
  862MOL0     C16260   3.954   6.210  11.405 -0.3882 -0.3095 -0.2479
  862MOL0     C16261   4.006   6.255  11.520  0.3543  0.5583 -0.1457
  862MOL0     C16262   4.042   6.163  11.611 -0.8499  0.1632 -0.8643
  862MOL0     C16263   4.016   6.024  11.599 -1.3511  0.9744  0.1188
  862MOL0     C16264   4.058   5.922  11.693  0.7252  1.0420 -0.2388
  862MOL0     O16265   3.960   5.824  11.722 -0.2418  0.3881  0.3415
  862MOL0     C16266   4.002   5.706  11.794 -0.2999 -0.2565  0.7441
  862MOL0     C16267   4.062   5.601  11.743 -0.7370  0.3972 -1.6817
  862MOL0     C16268   4.108   5.493  11.817 -0.0203  1.1370 -1.0637
  862MOL0     C16269   4.099   5.496  11.955 -0.0421 -0.7288 -0.2854
  862MOL0     O16270   4.167   5.393  12.007  0.2418  0.2988 -0.7187
  862MOL0     C16271   4.192   5.368  12.151 -0.2408  0.1725  0.1416
  862MOL0     C16272   4.090   5.262  12.192  0.7297 -0.1938  0.0858
  862MOL0     C16273   4.116   5.210  12.334  0.7672  0.6880 -1.0769
  862MOL0     C16274   4.051   5.072  12.346  0.1988 -0.3524  0.2615
  862MOL0     C16275   3.887   5.069  12.373 -1.0191 -1.3946 -0.1928
  862MOL0     C16276   3.811   4.939  12.360  0.8357 -0.1374  0.4246
  862MOL0     C16277   3.862   4.831  12.458 -0.1520  0.6385 -0.2285
  862MOL0     C16278   3.806   4.693  12.410  0.2723  0.2514  0.0357
  862MOL0    Cl16279   3.911   4.645  12.275 -0.0659  0.1049 -0.4727
  862MOL0     C16280   4.031   5.607  12.012 -0.4148 -0.0992 -0.8607
  862MOL0     C16281   3.984   5.706  11.930 -0.8382  0.3335 -0.1027
  862MOL0     O16282   4.159   5.949  11.759 -0.2691  0.1566 -1.1001
  862MOL0     C16283   3.945   5.984  11.487  1.2195  0.4389 -0.0106
  862MOL0     C16284   3.919   6.073  11.385 -0.2519 -0.7770 -0.3481
  862MOL0     N16285   3.640   6.775  11.176  0.7791  1.0815  0.5379
  862MOL0     N16286   3.561   6.849  11.112 -0.0927 -0.1789  0.3359
  862MOL0     C16287   3.177   7.083  10.302 -1.3278 -0.3511 -1.1908
  862MOL0     C16288   3.046   7.041  10.304 -1.1119 -0.3135  0.1748
  862MOL0     C16289   2.712   6.757  10.381 -0.5134  0.5971 -0.2443
  862MOL0     C16290   2.604   6.793  10.465 -0.4385 -0.4114 -0.1480
  862MOL0     C16291   2.480   6.739  10.442  0.6083 -0.0593  0.1625
  862MOL0     C16292   2.447   6.667  10.328  0.2290 -0.3246 -0.8816
  862MOL0     O16293   2.316   6.609  10.322 -0.5411  0.6626  0.3981
  862MOL0     C16294   2.312   6.477  10.258  0.0485  0.4402  0.0129
  862MOL0     C16295   2.183   6.394  10.284 -0.2365 -0.1448 -0.8597
  862MOL0     C16296   2.068   6.468  10.227  0.5396 -0.5766  0.6112
  862MOL0     C16297   2.046   6.450  10.079  1.0512  0.0907 -1.2386
  862MOL0     C16298   1.998   6.310  10.037 -0.0217 -0.5864 -0.3749
  862MOL0     C16299   1.969   6.200   9.995 -0.3256 -0.4233  0.0403
  862MOL0     C16300   2.551   6.632  10.233  1.1729  0.6420 -0.1015
  862MOL0     C16301   2.689   6.668  10.270  0.3164  0.3279 -1.0663
  862MOL0     C16302   2.803   6.628  10.171  0.3560  0.3739  0.5512
  862MOL0     H16303   3.030   6.910  10.613 -0.4282 -0.6266 -0.5542
  862MOL0     H16304   3.275   6.986  10.610 -0.9663 -3.9327 -0.0013
  862MOL0     H16305   3.458   7.044  10.225 -1.1375 -0.2577 -0.0010
  862MOL0     H16306   3.441   7.213  10.239  4.1308 -0.2629 -2.0569
  862MOL0     H16307   3.591   7.259  10.380  0.7616 -0.4369  1.4427
  862MOL0     H16308   3.659   7.190  10.239  1.4603 -2.8571 -1.1058
  862MOL0     H16309   3.799   7.122  10.403  0.4522 -0.6264  1.7566
  862MOL0     H16310   3.710   6.975  10.373  1.1584  0.0652 -0.2877
  862MOL0     H16311   3.635   7.201  10.571 -0.4359 -0.3053 -3.1267
  862MOL0     H16312   3.572   7.025  10.580  0.5351 -0.2542  2.2595
  862MOL0     H16313   3.767   6.953  10.701 -0.6289  1.0398  4.7506
  862MOL0     H16314   3.848   7.112  10.656  0.6030 -1.8446  1.1830
  862MOL0     H16315   3.769   7.070  10.888  0.0563  0.3869 -0.1002
  862MOL0     H16316   3.711   7.224  10.810  0.2119  0.5699 -2.4510
  862MOL0     H16317   3.503   7.105  10.764 -0.7506  1.0745  2.1225
  862MOL0     H16318   3.526   7.133  10.934  0.8626  0.9364  0.1135
  862MOL0     H16319   3.433   6.905  10.883 -0.4713 -0.4414 -2.1423
  862MOL0     H16320   3.576   6.869  10.778  4.0718 -0.6168  1.9197
  862MOL0     H16321   3.788   6.766  10.881  1.4927 -0.1163  2.1707
  862MOL0     H16322   3.952   6.707  11.091 -0.8576 -0.3641 -0.4831
  862MOL0     H16323   3.895   6.680  11.246 -0.7200 -5.0783  1.2558
  862MOL0     H16324   3.798   6.467  11.163 -0.0542  2.5763  1.9416
  862MOL0     H16325   3.848   6.497  10.997 -0.7560 -3.4201 -0.0732
  862MOL0     H16326   4.091   6.505  11.108  1.5972 -1.0230  3.5485
  862MOL0     H16327   4.006   6.361  11.054 -1.7759  2.1786 -4.0143
  862MOL0     H16328   3.987   6.494  11.332  0.2183  0.3904  0.1059
  862MOL0     H16329   4.119   6.386  11.297 -0.7026 -1.5865 -3.4671
  862MOL0     H16330   4.035   6.358  11.538  1.4024  0.0359  1.3240
  862MOL0     H16331   4.101   6.194  11.697 -2.7943 -1.3569  1.1581
  862MOL0     H16332   4.076   5.610  11.636  0.7124 -2.4085 -1.7973
  862MOL0     H16333   4.158   5.413  11.764 -0.1995 -0.1264  0.5909
  862MOL0     H16334   4.294   5.336  12.176 -0.5126 -0.5505  0.3303
  862MOL0     H16335   4.161   5.454  12.211 -2.6459  1.6777 -2.9815
  862MOL0     H16336   3.987   5.295  12.173  0.2919 -1.6291 -0.1445
  862MOL0     H16337   4.099   5.179  12.121  1.7613 -0.1330  0.1337
  862MOL0     H16338   4.222   5.191  12.349 -0.1374 -3.0590  2.5095
  862MOL0     H16339   4.075   5.277  12.409 -0.6833  1.1357 -2.2106
  862MOL0     H16340   4.095   5.016  12.428 -0.3584  0.7125  1.3133
  862MOL0     H16341   4.069   5.011  12.257 -0.0098 -0.5712  0.3700
  862MOL0     H16342   3.841   5.143  12.307 -1.1683 -1.2031  0.1264
  862MOL0     H16343   3.880   5.093  12.479  2.1547 -1.4143  0.1065
  862MOL0     H16344   3.707   4.969  12.378  1.8108  4.2430 -0.0081
  862MOL0     H16345   3.813   4.900  12.258  0.0868 -1.1606  0.7849
  862MOL0     H16346   3.821   4.870  12.552  0.2032 -0.9555  0.6118
  862MOL0     H16347   3.971   4.821  12.458 -0.3065 -4.1527  3.3762
  862MOL0     H16348   3.820   4.615  12.485 -2.5112 -0.6746 -0.3059
  862MOL0     H16349   3.700   4.691  12.384 -0.3332 -0.3827  2.3059
  862MOL0     H16350   4.024   5.609  12.120  1.5387 -1.1041 -0.6626
  862MOL0     H16351   3.920   5.781  11.977 -1.0059  0.0196  0.1744
  862MOL0     H16352   3.932   5.879  11.461  0.5254  0.8103 -1.2448
  862MOL0     H16353   3.878   6.049  11.288 -0.9743 -0.0725 -0.2290
  862MOL0     H16354   3.238   7.134  10.229  3.5100 -0.6863  2.0685
  862MOL0     H16355   2.984   7.048  10.215  0.0377  1.0930 -0.5530
  862MOL0     H16356   2.623   6.852  10.554  1.3537  0.1648 -0.8815
  862MOL0     H16357   2.397   6.750  10.512  0.1633  0.2584 -0.4066
  862MOL0     H16358   2.383   6.409  10.308 -4.3378 -1.3294  4.6776
  862MOL0     H16359   2.332   6.491  10.152  0.1118  0.1008 -0.0213
  862MOL0     H16360   2.170   6.379  10.392 -2.5281 -2.8400 -1.4030
  862MOL0     H16361   2.180   6.295  10.239  1.9007  0.4002 -2.3500
  862MOL0     H16362   2.078   6.572  10.259 -0.5306  0.3604 -1.8215
  862MOL0     H16363   1.972   6.441  10.272  0.2916  0.8699  1.0284
  862MOL0     H16364   1.970   6.526  10.059 -3.0493 -3.7106 -1.9525
  862MOL0     H16365   2.137   6.475  10.023  0.9153 -0.6568 -1.8157
  862MOL0     H16366   1.933   6.106   9.960 -0.4024  0.3345 -2.0277
  862MOL0     H16367   2.542   6.582  10.137  1.6022  2.7962 -1.3210
  862MOL0     H16368   2.758   6.598  10.076 -2.0139  1.0489  1.3935
  862MOL0     H16369   2.880   6.703  10.147 -1.5112  1.1536 -4.0200
  862MOL0     H16370   2.867   6.545  10.202  1.5443  0.8335 -0.5451
  863MOL0     O16371   4.561   1.460   8.323 -0.9646 -0.1267  0.4361
  863MOL0     C16372   4.661   1.533   8.299  0.8670 -0.1986 -0.0636
  863MOL0     O16373   4.652   1.669   8.280  0.3552 -0.2022  0.2016
  863MOL0     C16374   4.527   1.723   8.306 -0.6147  0.1460 -0.3146
  863MOL0     C16375   4.462   1.703   8.419  0.4178  0.2503 -0.1143
  863MOL0     C16376   4.342   1.758   8.447  0.1351  0.1322 -0.7812
  863MOL0     C16377   4.277   1.837   8.357 -0.1543 -0.0739  0.1817
  863MOL0     O16378   4.154   1.904   8.385 -0.0436  0.1078  0.4953
  863MOL0     C16379   4.170   2.019   8.456  0.3330 -0.4168  0.0888
  863MOL0     C16380   4.065   2.004   8.577 -0.4487  0.0568  0.4728
  863MOL0     C16381   4.063   2.142   8.653 -0.4454  0.1592 -0.2508
  863MOL0     C16382   4.007   2.113   8.791  0.1494  0.8095 -0.2309
  863MOL0     C16383   3.975   2.243   8.874 -0.4035  0.6512 -0.0268
  863MOL0     C16384   3.890   2.206   8.992  1.1078 -0.1498 -0.4851
  863MOL0     C16385   3.834   2.338   9.066  0.7286 -0.4595  0.1525
  863MOL0     C16386   3.743   2.287   9.173 -0.6155  0.5467 -0.0719
  863MOL0     N16387   3.700   2.400   9.261 -0.4080  0.2144  0.4928
  863MOL0     C16388   3.701   2.400   9.400 -0.1488 -0.1004  1.2165
  863MOL0     C16389   3.675   2.532   9.439 -0.7247 -0.1930 -0.4835
  863MOL0     C16390   3.656   2.579   9.575  0.2298 -0.2333  0.3753
  863MOL0     C16391   3.785   2.569   9.644  0.3993  0.3923  0.1334
  863MOL0     C16392   3.800   2.616   9.787 -0.5913  0.5007  0.2626
  863MOL0     C16393   3.720   2.529   9.887  0.2693  1.0258  0.1628
  863MOL0     O16394   3.784   2.398   9.903 -0.4799  0.2010  0.6779
  863MOL0     C16395   3.740   2.313  10.003 -1.2195  0.5371 -0.2418
  863MOL0     C16396   3.825   2.209  10.036  0.3099 -0.6277  0.1009
  863MOL0     C16397   3.792   2.130  10.145  0.1978 -0.7323  0.3563
  863MOL0     C16398   3.668   2.138  10.211 -0.7805 -0.4717 -0.1291
  863MOL0     C16399   3.629   2.042  10.318  0.3793 -0.8710  0.9387
  863MOL0     O16400   3.713   1.940  10.337 -0.4161 -0.3468 -0.9624
  863MOL0     C16401   3.672   1.842  10.420  0.2665 -1.0024 -1.2345
  863MOL0     C16402   3.676   1.864  10.555  0.2710  0.2680  0.5405
  863MOL0     C16403   3.641   1.752  10.640  0.0302 -0.2312  0.4759
  863MOL0     C16404   3.617   1.628  10.591  1.0137 -0.6251 -0.6616
  863MOL0     O16405   3.582   1.535  10.675  0.6154  0.8675 -0.0708
  863MOL0     C16406   3.558   1.401  10.627 -0.1894 -0.4885  0.2745
  863MOL0     C16407   3.688   1.335  10.585  0.2261  0.5044  0.8426
  863MOL0     C16408   3.671   1.173  10.592  0.9665 -0.1984  0.7062
  863MOL0     C16409   3.813   1.113  10.558 -0.0775  0.2280  0.8451
  863MOL0     C16410   3.838   0.976  10.621 -0.0267  0.4624 -0.0388
  863MOL0     C16411   3.730   0.864  10.608  0.4647 -0.3448 -0.3625
  863MOL0     C16412   3.776   0.755  10.513 -0.3732  0.2974  0.7756
  863MOL0     C16413   3.778   0.802  10.373  0.3405  0.6621 -0.2734
  863MOL0    Cl16414   3.605   0.804  10.313 -0.2771  0.3162  0.0666
  863MOL0     C16415   3.626   1.611  10.452  0.3915 -0.2068 -0.0547
  863MOL0     C16416   3.648   1.716  10.367 -0.3929 -0.2857 -1.3774
  863MOL0     O16417   3.511   2.050  10.351 -0.3470 -0.5569 -0.7178
  863MOL0     C16418   3.582   2.232  10.169 -0.2272  0.0597 -0.6248
  863MOL0     C16419   3.621   2.328  10.072 -0.1511 -0.2446  1.0442
  863MOL0     N16420   3.643   2.604   9.328  0.2143  0.1126  0.3789
  863MOL0     N16421   3.671   2.530   9.216 -0.2110  0.2149  0.6348
  863MOL0     C16422   4.339   1.868   8.234 -0.8459 -0.6875 -0.4240
  863MOL0     C16423   4.462   1.802   8.209  0.9257 -0.2560  0.8827
  863MOL0     C16424   4.793   1.467   8.271  0.1554  0.2715 -0.4416
  863MOL0     C16425   4.898   1.548   8.215  0.0531 -1.0675 -0.3400
  863MOL0     C16426   5.027   1.489   8.182 -0.1560 -0.9528  0.5743
  863MOL0     C16427   5.061   1.364   8.228  0.1930 -0.0491  0.0484
  863MOL0     O16428   5.191   1.328   8.195  0.3788 -0.0821 -0.2822
  863MOL0     C16429   5.224   1.192   8.228 -0.4579 -0.2750 -0.1061
  863MOL0     C16430   5.372   1.169   8.234 -0.9469  0.3220  0.2162
  863MOL0     C16431   5.454   1.233   8.356 -0.8259 -0.5388  0.6520
  863MOL0     C16432   5.607   1.225   8.334 -0.0363  0.1366  0.8101
  863MOL0     C16433   5.669   1.090   8.330 -0.0726  0.3130 -0.4381
  863MOL0     C16434   5.728   0.983   8.330 -0.2695  0.0456 -0.0694
  863MOL0     C16435   4.957   1.285   8.279  0.6331 -0.3475  0.3637
  863MOL0     C16436   4.825   1.327   8.306  0.1764 -0.2158  1.0711
  863MOL0     C16437   4.727   1.233   8.364 -0.0332 -0.6816  0.6235
  863MOL0     H16438   4.516   1.660   8.502  1.1638  2.5922  0.6821
  863MOL0     H16439   4.295   1.751   8.544 -0.1326  0.8033 -0.8507
  863MOL0     H16440   4.268   2.049   8.496  0.3169  0.0962 -0.2368
  863MOL0     H16441   4.152   2.103   8.387  1.8000  1.0551  1.4172
  863MOL0     H16442   4.092   1.936   8.659 -3.5126 -0.6814  1.0205
  863MOL0     H16443   3.962   1.972   8.557  0.1613 -2.6220  1.1256
  863MOL0     H16444   4.009   2.219   8.596  1.6307  1.5292 -0.4988
  863MOL0     H16445   4.159   2.196   8.658 -1.7740  2.5291  2.2188
  863MOL0     H16446   3.914   2.058   8.775  0.9915 -0.3128 -1.4971
  863MOL0     H16447   4.072   2.047   8.851 -3.6136 -0.7480  2.5138
  863MOL0     H16448   4.070   2.276   8.918  1.6760 -2.9191 -1.4166
  863MOL0     H16449   3.935   2.321   8.809 -0.3344 -1.1208 -2.3137
  863MOL0     H16450   3.803   2.144   8.968  0.0520  2.0907 -2.8382
  863MOL0     H16451   3.956   2.155   9.063  1.9677  0.5205 -0.7848
  863MOL0     H16452   3.767   2.391   8.998  1.5327  0.1558 -0.1851
  863MOL0     H16453   3.915   2.405   9.099 -1.3255  0.6581  3.3413
  863MOL0     H16454   3.662   2.237   9.117  0.5938 -0.0555 -1.3609
  863MOL0     H16455   3.788   2.201   9.224 -0.4617 -0.2446 -1.4649
  863MOL0     H16456   3.701   2.309   9.458 -2.3659 -0.5130  0.6673
  863MOL0     H16457   3.629   2.684   9.573 -2.0092 -0.7523 -1.7853
  863MOL0     H16458   3.571   2.520   9.610 -2.1845  3.0722  0.5243
  863MOL0     H16459   3.799   2.460   9.646  1.3802  0.5152  1.4481
  863MOL0     H16460   3.870   2.616   9.592 -0.2625 -0.3443 -1.7244
  863MOL0     H16461   3.772   2.722   9.795 -0.0240  0.7238 -0.5016
  863MOL0     H16462   3.908   2.605   9.804 -0.3446  1.2103 -0.7215
  863MOL0     H16463   3.618   2.516   9.850 -0.6355 -0.8201  2.9898
  863MOL0     H16464   3.713   2.574   9.986 -1.3621 -0.2380  0.6725
  863MOL0     H16465   3.913   2.210   9.972 -0.2622  2.7546 -0.8098
  863MOL0     H16466   3.867   2.061  10.183  2.5476  1.1243 -0.7260
  863MOL0     H16467   3.703   1.962  10.592 -0.2221  1.9352 -3.1504
  863MOL0     H16468   3.639   1.762  10.748 -0.1735  3.6264  0.2477
  863MOL0     H16469   3.507   1.333  10.697 -0.0714 -0.2690  0.5740
  863MOL0     H16470   3.481   1.412  10.551  0.1396  1.1153  0.1482
  863MOL0     H16471   3.714   1.348  10.480  1.2966 -2.9068  0.5415
  863MOL0     H16472   3.773   1.380  10.637  0.4882  0.7786  0.1815
  863MOL0     H16473   3.630   1.141  10.689 -2.2137  1.2994 -0.0049
  863MOL0     H16474   3.602   1.144  10.513  2.1555  3.4486 -1.9062
  863MOL0     H16475   3.885   1.183  10.601 -1.6032  0.8935  2.4588
  863MOL0     H16476   3.825   1.103  10.450  0.8183 -2.1112  1.0960
  863MOL0     H16477   3.850   0.985  10.729  2.9623 -2.1187 -0.0033
  863MOL0     H16478   3.936   0.947  10.583 -0.9639 -3.3204  0.0766
  863MOL0     H16479   3.697   0.808  10.697  1.9302  0.7412  0.9267
  863MOL0     H16480   3.642   0.913  10.565  2.0484  1.3692 -1.7852
  863MOL0     H16481   3.701   0.675  10.514 -0.9226  0.5899 -2.9087
  863MOL0     H16482   3.869   0.707  10.546 -1.4150 -3.8990 -1.5870
  863MOL0     H16483   3.844   0.883  10.339  3.2716  0.0167  3.2851
  863MOL0     H16484   3.812   0.718  10.311 -1.4069 -1.0442  0.9623
  863MOL0     H16485   3.594   1.513  10.416 -3.2663  0.8482 -0.1597
  863MOL0     H16486   3.681   1.685  10.269  0.1801  3.4253 -2.4968
  863MOL0     H16487   3.480   2.225  10.207  0.9815 -0.6342  2.9502
  863MOL0     H16488   3.547   2.400  10.038  1.7996  1.7562  0.7740
  863MOL0     H16489   4.299   1.926   8.152  1.7411  1.2073 -0.4734
  863MOL0     H16490   4.512   1.817   8.114  0.4985  5.3993  1.1997
  863MOL0     H16491   4.866   1.645   8.180  1.3661 -1.0954 -1.6952
  863MOL0     H16492   5.094   1.554   8.127 -2.4910  0.9069 -0.2697
  863MOL0     H16493   5.178   1.135   8.147  0.9601 -0.9544 -0.4569
  863MOL0     H16494   5.192   1.153   8.325  2.0890 -1.9427  0.1776
  863MOL0     H16495   5.408   1.203   8.136  3.1028 -3.2878  0.1376
  863MOL0     H16496   5.401   1.064   8.231 -1.4533  0.1192 -4.5846
  863MOL0     H16497   5.429   1.187   8.452 -3.8768  0.2862  0.3859
  863MOL0     H16498   5.433   1.340   8.369 -0.2526  0.1300 -2.9601
  863MOL0     H16499   5.628   1.281   8.242 -0.2288  0.9758  1.2599
  863MOL0     H16500   5.660   1.292   8.402  0.0026  1.1560 -0.1720
  863MOL0     H16501   5.778   0.889   8.340  2.6328  1.2076 -1.9820
  863MOL0     H16502   4.984   1.183   8.303  3.3798 -0.0057 -0.8678
  863MOL0     H16503   4.774   1.139   8.393  2.4618  1.0706  2.7881
  863MOL0     H16504   4.661   1.276   8.441 -3.8601 -0.2540 -2.5467
  863MOL0     H16505   4.657   1.208   8.284 -1.2993  3.3029  0.2588
  864MOL0     O16506   4.674   9.352   8.602 -0.5989 -0.6086 -0.1779
  864MOL0     C16507   4.563   9.362   8.553 -0.5660 -0.4164 -0.3444
  864MOL0     O16508   4.499   9.487   8.531  0.4159  0.5940 -0.3057
  864MOL0     C16509   4.566   9.596   8.558 -0.0437  0.8658 -0.8849
  864MOL0     C16510   4.589   9.644   8.680 -0.3808 -0.2855 -0.7143
  864MOL0     C16511   4.665   9.756   8.705 -0.8107 -0.4467 -0.4984
  864MOL0     C16512   4.702   9.838   8.594  0.4039 -0.8305  0.5152
  864MOL0     O16513   4.734   9.970   8.604 -1.1200  0.4577 -0.5146
  864MOL0     C16514   4.740  10.031   8.740 -0.4640 -0.2492 -0.5116
  864MOL0     C16515   4.867  10.008   8.802 -0.1273 -0.6654 -0.5930
  864MOL0     C16516   4.983  10.055   8.717  0.3123 -0.4155 -0.2506
  864MOL0     C16517   5.119  10.053   8.794  0.3608  0.1661  0.5353
  864MOL0     C16518   5.224  10.086   8.701  0.0583  0.1493 -0.6409
  864MOL0     C16519   5.257  10.240   8.702  0.8510 -0.2193 -0.0622
  864MOL0     C16520   5.344  10.274   8.828  0.3354  0.4695 -0.7107
  864MOL0     C16521   5.472  10.358   8.796  0.5519  0.1288  0.5162
  864MOL0     N16522   5.561  10.360   8.906  0.1339 -0.2460 -0.4291
  864MOL0     C16523   5.689  10.307   8.924 -0.3495 -0.4184  1.0047
  864MOL0     C16524   5.725  10.322   9.054  0.4348 -0.2278 -1.5421
  864MOL0     C16525   5.832  10.244   9.121  0.0440  0.3358 -0.3484
  864MOL0     C16526   5.954  10.323   9.165  0.1124  0.0118 -0.0867
  864MOL0     C16527   5.910  10.393   9.299 -0.5474 -0.7531  0.3899
  864MOL0     C16528   6.007  10.515   9.349  0.9579  0.8453 -0.6753
  864MOL0     O16529   6.137  10.467   9.373 -0.3755  0.9983  0.0728
  864MOL0     C16530   6.222  10.527   9.463  0.3999  0.3706 -0.2426
  864MOL0     C16531   6.213  10.646   9.537  0.3082  0.6383  0.3096
  864MOL0     C16532   6.320  10.693   9.622 -0.9322 -0.0239  0.3809
  864MOL0     C16533   6.438  10.624   9.637  0.6703 -0.0263  0.3112
  864MOL0     C16534   6.552  10.668   9.719 -0.1165 -0.7942  0.2485
  864MOL0     O16535   6.511  10.767   9.812 -0.0861  0.2013 -0.5292
  864MOL0     C16536   6.608  10.803   9.908  0.0288 -0.1064  0.8406
  864MOL0     C16537   6.714  10.880   9.870 -1.2110 -0.8139 -0.6364
  864MOL0     C16538   6.810  10.922   9.971  0.1568  0.0981  0.1918
  864MOL0     C16539   6.799  10.880  10.103  0.8414 -0.4631 -0.4158
  864MOL0     O16540   6.877  10.913  10.214 -0.1852 -0.4149 -0.1252
  864MOL0     C16541   6.973  11.019  10.197  0.7218 -0.6075  0.0909
  864MOL0     C16542   6.976  11.079  10.334 -0.0756 -0.0678 -0.9542
  864MOL0     C16543   7.124  11.086  10.377 -0.4195  0.8120  0.8556
  864MOL0     C16544   7.181  11.219  10.315  0.5354 -0.4612 -0.4415
  864MOL0     C16545   7.329  11.220  10.280 -0.9441  0.4703 -0.5576
  864MOL0     C16546   7.422  11.209  10.405 -0.1561 -0.5336  0.1927
  864MOL0     C16547   7.547  11.148  10.375  0.3534  0.5316  0.7495
  864MOL0     C16548   7.538  10.997  10.366 -0.5461 -0.5464  0.2873
  864MOL0    Cl16549   7.705  10.933  10.313 -0.0871 -0.1300  0.1929
  864MOL0     C16550   6.697  10.788  10.134 -0.5312  0.1136  0.4804
  864MOL0     C16551   6.592  10.756  10.041  0.4306  0.2142  0.6634
  864MOL0     O16552   6.664  10.634   9.697  0.3610  0.3314 -0.1248
  864MOL0     C16553   6.446  10.505   9.555  0.6469 -1.3119  0.8275
  864MOL0     C16554   6.342  10.455   9.469  0.0337 -0.0652 -0.2180
  864MOL0     N16555   5.618  10.397   9.113  0.4506  0.3131 -0.8803
  864MOL0     N16556   5.524  10.420   9.018 -0.5023 -0.2203 -0.4533
  864MOL0     C16557   4.684   9.788   8.467  0.3244 -0.2518 -0.2775
  864MOL0     C16558   4.617   9.667   8.449 -0.2095 -0.0001 -0.8608
  864MOL0     C16559   4.478   9.244   8.528  0.4501  0.1049 -0.2093
  864MOL0     C16560   4.393   9.254   8.416  0.4912 -0.3258 -0.1272
  864MOL0     C16561   4.304   9.154   8.365 -0.6518 -0.3427 -0.0332
  864MOL0     C16562   4.314   9.021   8.422  0.7411 -0.4930  0.1392
  864MOL0     O16563   4.229   8.918   8.377 -0.2672 -0.2282 -0.1211
  864MOL0     C16564   4.266   8.861   8.251 -0.0390  0.1648 -0.5907
  864MOL0     C16565   4.340   8.728   8.281  0.0164 -0.1763  0.3370
  864MOL0     C16566   4.246   8.620   8.347 -0.5942  0.3553 -0.0642
  864MOL0     C16567   4.336   8.517   8.420  0.3817  0.0921 -0.1911
  864MOL0     C16568   4.401   8.430   8.319  0.0019  0.2769  0.6636
  864MOL0     C16569   4.456   8.356   8.240 -0.5892  0.1389 -0.8783
  864MOL0     C16570   4.405   9.015   8.528 -0.0158  0.2219  0.0045
  864MOL0     C16571   4.487   9.114   8.587 -0.3882 -0.1156  0.4203
  864MOL0     C16572   4.588   9.083   8.697  0.8580  0.4260  0.3955
  864MOL0     H16573   4.526   9.599   8.756  1.0673 -2.7414 -0.8726
  864MOL0     H16574   4.683   9.786   8.808  4.0012  0.5365 -1.3715
  864MOL0     H16575   4.711  10.135   8.728 -0.5154  0.0106  1.5697
  864MOL0     H16576   4.660   9.992   8.803  2.3070 -0.3546  3.2548
  864MOL0     H16577   4.879   9.903   8.830  1.9418 -0.5832 -1.0444
  864MOL0     H16578   4.861  10.064   8.896  2.2986 -2.4617  0.7613
  864MOL0     H16579   4.961  10.148   8.663  0.5634  0.1262  0.5518
  864MOL0     H16580   4.993   9.985   8.634 -1.0188  1.1548 -1.8409
  864MOL0     H16581   5.120  10.119   8.881 -0.2691 -3.8826  3.9209
  864MOL0     H16582   5.130   9.952   8.835 -1.6600 -1.1333 -1.8741
  864MOL0     H16583   5.309  10.021   8.726 -1.2090 -0.7225  1.5778
  864MOL0     H16584   5.188  10.071   8.599 -0.0990 -0.4964 -0.4944
  864MOL0     H16585   5.311  10.279   8.615 -2.0981  1.1869 -1.3997
  864MOL0     H16586   5.176  10.313   8.705  2.8039  2.0566  1.9541
  864MOL0     H16587   5.381  10.182   8.876 -0.8978 -1.7513 -3.7219
  864MOL0     H16588   5.273  10.316   8.900 -2.7519 -2.0857 -2.0078
  864MOL0     H16589   5.527  10.311   8.714 -0.3194 -0.8840  0.4896
  864MOL0     H16590   5.443  10.460   8.769  2.5201  0.0538 -2.2692
  864MOL0     H16591   5.745  10.260   8.844 -0.7504  0.3879  0.2350
  864MOL0     H16592   5.799  10.195   9.213  3.8016 -0.4098  0.8128
  864MOL0     H16593   5.866  10.158   9.062 -1.0914 -1.2912  1.2446
  864MOL0     H16594   6.037  10.255   9.187  1.5325  1.6287 -0.2513
  864MOL0     H16595   5.978  10.397   9.088  1.1635 -1.5072 -1.2838
  864MOL0     H16596   5.900  10.328   9.386 -2.6103 -1.4840 -0.3433
  864MOL0     H16597   5.809  10.430   9.279  1.2363  3.2659 -2.6870
  864MOL0     H16598   5.968  10.548   9.445  1.8536  0.0469 -0.0259
  864MOL0     H16599   6.007  10.608   9.291 -2.1727  2.4479  1.5611
  864MOL0     H16600   6.125  10.706   9.515 -0.5271 -1.2222 -1.8778
  864MOL0     H16601   6.313  10.797   9.652 -1.2077  0.1944 -0.4114
  864MOL0     H16602   6.711  10.907   9.765  0.1611  3.7675  0.2705
  864MOL0     H16603   6.900  10.969   9.933  1.3664 -1.2692  1.2444
  864MOL0     H16604   7.067  10.969  10.172  1.4641  1.1672 -0.7884
  864MOL0     H16605   6.945  11.095  10.124 -0.0816 -1.4024 -0.4556
  864MOL0     H16606   6.937  11.181  10.344  3.4566  1.2075  1.4160
  864MOL0     H16607   6.919  11.024  10.410 -0.8437  2.0502  0.0823
  864MOL0     H16608   7.134  11.073  10.485 -0.5701 -2.9017  0.5639
  864MOL0     H16609   7.180  11.001  10.337 -3.6635 -1.6080  1.0369
  864MOL0     H16610   7.157  11.300  10.385 -0.6991 -1.7652  0.7254
  864MOL0     H16611   7.134  11.244  10.219 -1.5653 -2.0948  0.0953
  864MOL0     H16612   7.341  11.314  10.225 -0.2643  0.0742 -1.0925
  864MOL0     H16613   7.347  11.131  10.220 -1.4698 -0.2919  0.3773
  864MOL0     H16614   7.427  11.313  10.439  0.9476 -0.4299 -0.2486
  864MOL0     H16615   7.372  11.146  10.478  0.1099  0.5651  1.3651
  864MOL0     H16616   7.628  11.157  10.448  2.1983 -1.9200 -0.7895
  864MOL0     H16617   7.588  11.183  10.280 -2.4811  0.6402 -0.5491
  864MOL0     H16618   7.512  10.952  10.463  0.8612  0.2617  1.0586
  864MOL0     H16619   7.456  10.966  10.300 -1.1577 -2.4314  1.8382
  864MOL0     H16620   6.700  10.740  10.232  0.9277 -1.2568 -0.1882
  864MOL0     H16621   6.507  10.694  10.069 -0.4899  1.6183  1.0689
  864MOL0     H16622   6.541  10.453   9.561  2.4582  0.8949 -3.7068
  864MOL0     H16623   6.347  10.364   9.410  1.3863  0.8334 -1.5664
  864MOL0     H16624   4.710   9.849   8.381 -3.6673  0.3763 -1.2133
  864MOL0     H16625   4.582   9.648   8.348 -1.0310  3.8066 -1.4208
  864MOL0     H16626   4.382   9.350   8.365  2.6617  2.2660  3.7915
  864MOL0     H16627   4.246   9.163   8.274  0.4145 -0.5661 -0.7611
  864MOL0     H16628   4.336   8.929   8.201  0.3180  0.5701  0.4452
  864MOL0     H16629   4.181   8.850   8.183  0.5419  1.2696 -1.5446
  864MOL0     H16630   4.425   8.741   8.349  0.8448 -0.2197 -0.6621
  864MOL0     H16631   4.393   8.680   8.198  0.8528  0.2894  0.5915
  864MOL0     H16632   4.182   8.568   8.275 -0.4344 -1.1965  0.8837
  864MOL0     H16633   4.190   8.684   8.416 -0.8154  1.1716 -0.9590
  864MOL0     H16634   4.417   8.563   8.476  1.2054 -0.6161 -0.7712
  864MOL0     H16635   4.257   8.458   8.468  0.0427 -0.0774 -0.9497
  864MOL0     H16636   4.512   8.281   8.188  1.6096 -0.0426  1.5758
  864MOL0     H16637   4.422   8.917   8.571 -0.1219 -0.9512 -2.4682
  864MOL0     H16638   4.555   9.006   8.767  0.4815  1.3512  1.2734
  864MOL0     H16639   4.673   9.030   8.654  2.3642  1.7329  1.6194
  864MOL0     H16640   4.630   9.167   8.754  3.3889  0.8280 -1.8674
  865MOL0     O16641   8.308   5.136   8.258  0.2368  0.7468 -0.5406
  865MOL0     C16642   8.207   5.095   8.204  0.6041 -0.5394  0.8665
  865MOL0     O16643   8.109   5.022   8.258  0.0530 -0.4143 -0.4251
  865MOL0     C16644   8.128   4.981   8.387 -0.1401  0.2598  0.1091
  865MOL0     C16645   8.068   4.856   8.417  0.5209 -0.7862 -0.2388
  865MOL0     C16646   8.040   4.808   8.549 -0.1348 -0.2530  0.1102
  865MOL0     C16647   8.089   4.894   8.653 -0.4390  0.3434 -0.2205
  865MOL0     O16648   8.052   4.872   8.779  0.0418 -0.1006 -0.1732
  865MOL0     C16649   8.093   4.749   8.850  0.4544 -0.0382 -0.0050
  865MOL0     C16650   8.072   4.765   9.004  0.7433  0.6464  0.1075
  865MOL0     C16651   8.169   4.872   9.071  0.0936 -0.2079  0.0421
  865MOL0     C16652   8.149   4.884   9.220  0.2185  0.1784 -0.9479
  865MOL0     C16653   8.251   4.984   9.285  0.3028  1.0009  0.2663
  865MOL0     C16654   8.253   4.964   9.441 -0.1674 -0.7150 -0.5853
  865MOL0     C16655   8.391   5.013   9.504  1.0537 -0.2240  0.2744
  865MOL0     C16656   8.413   5.166   9.481  0.7666 -0.7715  0.2112
  865MOL0     N16657   8.532   5.196   9.553 -0.3074 -0.4704  0.6665
  865MOL0     C16658   8.658   5.171   9.499 -0.3864  1.0257  0.4960
  865MOL0     C16659   8.739   5.231   9.584  0.4654  0.0192 -0.3797
  865MOL0     C16660   8.884   5.216   9.599  0.7551 -0.3311 -1.1047
  865MOL0     C16661   8.924   5.183   9.743  0.1050 -0.2091  0.8685
  865MOL0     C16662   8.849   5.075   9.823 -0.8789 -0.3048 -0.8635
  865MOL0     C16663   8.834   4.935   9.753 -0.7453 -0.6479 -0.3297
  865MOL0     O16664   8.943   4.855   9.803  0.7549 -0.5077 -0.0204
  865MOL0     C16665   8.902   4.721   9.810  0.6311  0.2459  0.0675
  865MOL0     C16666   8.944   4.642   9.920 -0.8562 -0.2531  0.0340
  865MOL0     C16667   8.902   4.503   9.923  0.6886 -0.5371  0.1796
  865MOL0     C16668   8.821   4.433   9.821 -0.2541 -0.9716 -0.7659
  865MOL0     C16669   8.781   4.295   9.828 -0.0328  0.1417 -0.5369
  865MOL0     O16670   8.785   4.231   9.704  0.1889 -0.4310  0.3107
  865MOL0     C16671   8.753   4.100   9.696  1.1450  0.0009  0.1955
  865MOL0     C16672   8.617   4.062   9.689 -0.0621 -0.0580 -0.7849
  865MOL0     C16673   8.583   3.929   9.677  0.2499 -0.7900 -0.0768
  865MOL0     C16674   8.678   3.827   9.689 -0.7504  0.0395 -0.5513
  865MOL0     O16675   8.640   3.702   9.658 -0.6170  0.3600  0.1968
  865MOL0     C16676   8.682   3.602   9.754  0.5103 -0.3790  0.7701
  865MOL0     C16677   8.596   3.475   9.752 -0.3337  0.6984 -0.1970
  865MOL0     C16678   8.452   3.506   9.713 -0.3099 -0.6750 -0.2248
  865MOL0     C16679   8.360   3.399   9.769  0.2045 -0.1919  0.4392
  865MOL0     C16680   8.209   3.428   9.774  0.0847  0.8805 -0.4280
  865MOL0     C16681   8.162   3.515   9.650 -0.6573  0.2891  0.0101
  865MOL0     C16682   8.126   3.426   9.529 -0.4456 -0.2981  0.0438
  865MOL0     C16683   8.015   3.472   9.439 -0.5100  0.7188 -1.9512
  865MOL0    Cl16684   8.039   3.381   9.298  0.4704  0.2914 -0.1045
  865MOL0     C16685   8.814   3.861   9.705 -0.7194 -0.2561  0.6354
  865MOL0     C16686   8.843   4.000   9.718 -0.3777 -0.7649  0.5230
  865MOL0     O16687   8.771   4.244   9.938  0.2047  0.7040  0.0355
  865MOL0     C16688   8.779   4.516   9.715 -0.7009 -1.2553 -0.6045
  865MOL0     C16689   8.821   4.655   9.715  0.6212  0.4818  0.2233
  865MOL0     N16690   8.666   5.295   9.682 -0.5229 -0.8517 -0.0763
  865MOL0     N16691   8.543   5.281   9.663 -0.4747  0.2992 -0.4951
  865MOL0     C16692   8.153   5.009   8.632 -0.3645  0.7208 -0.1266
  865MOL0     C16693   8.177   5.051   8.499 -0.2723  0.1242  0.5773
  865MOL0     C16694   8.192   5.128   8.050 -0.3945  0.2784  0.6688
  865MOL0     C16695   8.131   5.028   7.970 -0.7244  0.2120  0.6355
  865MOL0     C16696   8.130   5.053   7.827  1.2860 -0.0093 -0.5554
  865MOL0     C16697   8.167   5.172   7.766 -0.1835  0.0795  0.0693
  865MOL0     O16698   8.183   5.180   7.638 -0.5453  0.2607  0.6151
  865MOL0     C16699   8.120   5.298   7.575 -0.5090 -0.3165 -0.1589
  865MOL0     C16700   8.083   5.269   7.427 -0.4203  0.4690  0.1850
  865MOL0     C16701   8.013   5.125   7.417 -0.3653 -0.2340 -0.5733
  865MOL0     C16702   7.940   5.108   7.288  0.5217 -0.2887 -0.2792
  865MOL0     C16703   8.006   5.031   7.185 -0.3034  0.8101 -0.8672
  865MOL0     C16704   8.065   4.962   7.111 -0.5348  0.7733  0.2598
  865MOL0     C16705   8.222   5.262   7.859 -0.7359 -0.6113  1.0976
  865MOL0     C16706   8.240   5.251   7.990  0.0485 -0.1846  0.3873
  865MOL0     C16707   8.302   5.356   8.076 -0.4425 -0.2465  0.3493
  865MOL0     H16708   8.030   4.792   8.337 -0.4654  1.6578 -1.8230
  865MOL0     H16709   7.990   4.713   8.560  0.1474 -0.2865  1.2537
  865MOL0     H16710   8.029   4.670   8.810  0.0743  0.0770  0.3644
  865MOL0     H16711   8.199   4.737   8.825  1.9897  2.1442  4.3123
  865MOL0     H16712   8.100   4.670   9.049  1.7155  0.7094 -0.3298
  865MOL0     H16713   7.967   4.790   9.021  0.8985  2.1149 -0.8336
  865MOL0     H16714   8.140   4.969   9.031  3.1682  0.9784  0.3967
  865MOL0     H16715   8.271   4.854   9.035 -0.1312 -1.9140  0.1908
  865MOL0     H16716   8.049   4.926   9.232  0.4239 -0.2070  4.5006
  865MOL0     H16717   8.144   4.787   9.271 -2.8372  0.7306 -0.0226
  865MOL0     H16718   8.346   4.960   9.236  0.6802 -0.1632  1.5057
  865MOL0     H16719   8.230   5.087   9.254  2.4130  1.2781 -0.4405
  865MOL0     H16720   8.164   5.009   9.486  0.2128 -2.2599  1.9042
  865MOL0     H16721   8.249   4.857   9.462 -1.3977 -0.8094 -1.2364
  865MOL0     H16722   8.468   4.952   9.455 -1.2662 -1.9687 -1.4683
  865MOL0     H16723   8.386   4.994   9.611 -0.7673 -1.5130 -0.0005
  865MOL0     H16724   8.420   5.185   9.374  1.0960  0.4933  0.4369
  865MOL0     H16725   8.332   5.225   9.525  0.4925  0.8411 -2.2606
  865MOL0     H16726   8.675   5.126   9.402 -1.2289  2.0163 -0.1341
  865MOL0     H16727   8.912   5.135   9.532 -3.5261 -0.6631 -2.8009
  865MOL0     H16728   8.928   5.315   9.579 -1.1462  0.2873 -2.4997
  865MOL0     H16729   9.024   5.143   9.729 -1.3698 -3.3339 -2.3368
  865MOL0     H16730   8.919   5.270   9.808 -0.0590 -0.4342  1.1627
  865MOL0     H16731   8.748   5.110   9.847 -0.9534 -0.4948 -0.8982
  865MOL0     H16732   8.901   5.055   9.917  0.4737 -3.1036 -2.0971
  865MOL0     H16733   8.828   4.936   9.644 -2.4609 -3.6404 -0.3744
  865MOL0     H16734   8.736   4.893   9.776  0.5577 -2.9856  1.3940
  865MOL0     H16735   9.007   4.688   9.996 -0.1657  0.1741 -0.7812
  865MOL0     H16736   8.921   4.451  10.017 -2.2999 -1.6166  0.3075
  865MOL0     H16737   8.547   4.144   9.677 -1.1975 -0.7569  0.6842
  865MOL0     H16738   8.477   3.911   9.667 -0.4924  2.8535 -0.1518
  865MOL0     H16739   8.786   3.577   9.730 -0.1869 -2.3165 -0.5251
  865MOL0     H16740   8.680   3.650   9.852 -7.2192  1.7726  0.2836
  865MOL0     H16741   8.655   3.424   9.675 -1.4977  2.1251 -2.1176
  865MOL0     H16742   8.610   3.420   9.846  2.0587  2.1641  0.4120
  865MOL0     H16743   8.425   3.603   9.754 -0.5404  0.7655 -3.4729
  865MOL0     H16744   8.440   3.500   9.605 -0.9460 -3.1333 -0.0829
  865MOL0     H16745   8.393   3.375   9.871  0.1687  0.6283  0.6502
  865MOL0     H16746   8.375   3.308   9.710 -2.3990  0.3927 -1.3016
  865MOL0     H16747   8.193   3.468   9.874  0.5601  1.0172 -0.4072
  865MOL0     H16748   8.158   3.331   9.776 -0.5780  1.1217 -2.4441
  865MOL0     H16749   8.070   3.568   9.675 -0.1595  0.7518  0.9298
  865MOL0     H16750   8.236   3.588   9.615  0.6971 -0.0478  2.0209
  865MOL0     H16751   8.103   3.325   9.565  1.4654  0.0862  2.7037
  865MOL0     H16752   8.221   3.422   9.475 -0.0076  0.6993  0.7192
  865MOL0     H16753   7.916   3.446   9.479 -0.9767 -0.6848 -3.9158
  865MOL0     H16754   8.031   3.580   9.432  0.3872  0.6406 -1.3423
  865MOL0     H16755   8.898   3.794   9.685 -0.2839 -0.2040  2.1833
  865MOL0     H16756   8.942   4.036   9.746  0.1001  0.3004 -2.2651
  865MOL0     H16757   8.722   4.464   9.639  0.5966 -1.6499 -1.3297
  865MOL0     H16758   8.794   4.713   9.627  0.5779  3.0781  1.8358
  865MOL0     H16759   8.178   5.072   8.716 -2.4879 -0.9325  1.8723
  865MOL0     H16760   8.217   5.151   8.491  1.8347 -0.4065  3.0584
  865MOL0     H16761   8.087   4.936   8.008 -1.9107  1.0527  1.3832
  865MOL0     H16762   8.075   4.969   7.785 -1.0147  0.9428  0.3759
  865MOL0     H16763   8.185   5.386   7.573 -0.8074 -0.0381  1.4507
  865MOL0     H16764   8.027   5.316   7.629  0.2446 -1.9316  1.8184
  865MOL0     H16765   8.168   5.269   7.358 -0.5689  2.5719 -0.0608
  865MOL0     H16766   8.013   5.346   7.395 -1.2157  1.1638  3.2450
  865MOL0     H16767   7.949   5.112   7.505  0.3621 -1.6218 -0.2255
  865MOL0     H16768   8.074   5.036   7.435 -1.3660 -0.9429 -0.6357
  865MOL0     H16769   7.841   5.065   7.309 -1.6865  4.3443  0.0672
  865MOL0     H16770   7.917   5.206   7.245  1.5755  0.8733  1.6713
  865MOL0     H16771   8.127   4.906   7.043  0.4488 -0.5006  2.1004
  865MOL0     H16772   8.263   5.348   7.807 -0.8827 -1.5988 -0.7295
  865MOL0     H16773   8.401   5.328   8.115  1.0911 -0.2048 -3.1421
  865MOL0     H16774   8.307   5.455   8.029 -2.7494 -0.7180 -1.0215
  865MOL0     H16775   8.228   5.367   8.156 -3.5755 -1.0662 -2.2249
  866MOL0     O16776  10.651  11.323   9.402 -0.1697  0.2740 -0.1395
  866MOL0     C16777  10.721  11.380   9.321 -1.5278  0.1443 -0.0934
  866MOL0     O16778  10.829  11.334   9.244 -0.8951  0.2183  0.5330
  866MOL0     C16779  10.894  11.207   9.250 -0.1235  0.1408 -0.0535
  866MOL0     C16780  10.987  11.184   9.149  0.0305  0.9244  0.0886
  866MOL0     C16781  11.082  11.085   9.166 -0.2018  0.7351 -0.2485
  866MOL0     C16782  11.074  10.989   9.269 -0.6080 -0.9529  0.4528
  866MOL0     O16783  11.174  10.899   9.294  0.2162 -0.4603 -0.3672
  866MOL0     C16784  11.204  10.799   9.198  0.1424  0.6740 -0.0494
  866MOL0     C16785  11.347  10.746   9.229  1.3157  0.6788 -0.3102
  866MOL0     C16786  11.352  10.647   9.348 -0.5172  0.1367  0.5530
  866MOL0     C16787  11.510  10.622   9.376  0.0099 -0.5386 -0.2206
  866MOL0     C16788  11.535  10.566   9.518 -0.0973 -0.3528  0.2009
  866MOL0     C16789  11.599  10.419   9.513 -0.6395 -0.8158  0.2333
  866MOL0     C16790  11.629  10.356   9.649  0.3032 -0.8446  0.4802
  866MOL0     C16791  11.712  10.237   9.637 -0.3294 -0.0485 -1.1316
  866MOL0     N16792  11.649  10.137   9.541 -0.6047 -0.5124 -0.3417
  866MOL0     C16793  11.545  10.055   9.546  0.2339 -0.2332 -0.2675
  866MOL0     C16794  11.544   9.975   9.433  0.4928  0.3746  0.4238
  866MOL0     C16795  11.453   9.866   9.392  0.6012  0.3026 -0.7935
  866MOL0     C16796  11.346   9.931   9.292 -0.5505  0.0717  0.0734
  866MOL0     C16797  11.264   9.828   9.212 -0.7226 -0.7600 -0.2154
  866MOL0     C16798  11.156   9.891   9.119 -0.5364  0.1999  0.2910
  866MOL0     O16799  11.099  10.007   9.180  0.4166  0.7685 -0.0045
  866MOL0     C16800  11.071  10.122   9.109  0.2129 -0.8776 -0.5247
  866MOL0     C16801  11.009  10.127   8.986  0.8518 -0.1641 -0.4721
  866MOL0     C16802  10.970  10.253   8.927 -0.0976 -0.2659  0.4181
  866MOL0     C16803  10.997  10.377   8.993 -0.1089  0.4144  0.5437
  866MOL0     C16804  10.951  10.512   8.942  0.3948  0.5375  0.0279
  866MOL0     O16805  10.990  10.629   9.005 -0.3376 -0.3993  0.5241
  866MOL0     C16806  10.944  10.749   8.954  0.9359  0.3870 -0.0216
  866MOL0     C16807  10.963  10.788   8.822  0.0075  0.0788 -0.4458
  866MOL0     C16808  10.924  10.915   8.778  0.0568  0.8940 -0.7644
  866MOL0     C16809  10.845  10.997   8.857 -0.7266 -0.7580 -0.4186
  866MOL0     O16810  10.810  11.117   8.794 -0.1386 -0.2093 -0.4328
  866MOL0     C16811  10.744  11.209   8.887 -0.5204 -0.7292 -0.3917
  866MOL0     C16812  10.697  11.331   8.791 -0.1047  0.3621 -0.1801
  866MOL0     C16813  10.631  11.437   8.874 -0.8396 -0.0708 -0.3632
  866MOL0     C16814  10.680  11.565   8.828 -0.4797  0.5035 -0.0450
  866MOL0     C16815  10.605  11.616   8.701  0.5637 -0.1380  0.4648
  866MOL0     C16816  10.611  11.763   8.671 -0.4147 -0.3524 -0.2523
  866MOL0     C16817  10.759  11.814   8.652  0.7675 -0.0135 -0.0208
  866MOL0     C16818  10.756  11.967   8.625 -0.2609 -0.7838 -0.9859
  866MOL0    Cl16819  10.730  12.053   8.782  0.3809  0.2719 -0.1637
  866MOL0     C16820  10.831  10.964   8.991 -0.6240  0.3397  0.6606
  866MOL0     C16821  10.881  10.841   9.040 -0.0415  0.3906  0.4591
  866MOL0     O16822  10.880  10.503   8.846  0.6003  0.1699 -0.5486
  866MOL0     C16823  11.054  10.364   9.121  0.8223  0.3175  0.7300
  866MOL0     C16824  11.096  10.241   9.176  0.5185  1.0997  0.5069
  866MOL0     N16825  11.641  10.025   9.349 -0.9522  1.2777  0.0219
  866MOL0     N16826  11.710  10.119   9.415  0.0372  0.1130 -0.1266
  866MOL0     C16827  10.963  11.009   9.355  0.9388 -1.1738 -0.7889
  866MOL0     C16828  10.874  11.119   9.354 -0.8177 -0.2078  0.5945
  866MOL0     C16829  10.696  11.536   9.312 -0.0289  0.0896  0.1839
  866MOL0     C16830  10.735  11.603   9.194 -0.2366  1.1199  0.3844
  866MOL0     C16831  10.703  11.732   9.168  1.1667 -0.0002 -0.6298
  866MOL0     C16832  10.619  11.807   9.258  0.3054 -0.0686 -0.3926
  866MOL0     O16833  10.583  11.943   9.250 -0.6653  0.0147  1.0184
  866MOL0     C16834  10.650  12.026   9.149 -0.4576  0.0544  1.1879
  866MOL0     C16835  10.793  12.039   9.155  0.1622  0.3893  0.4879
  866MOL0     C16836  10.839  12.159   9.244 -0.1154  0.1751 -0.2605
  866MOL0     C16837  10.854  12.299   9.179  0.0637  0.0302  0.1544
  866MOL0     C16838  10.957  12.292   9.080 -0.3424  0.0748  0.3468
  866MOL0     C16839  11.030  12.280   8.985  0.3416  0.4071  0.4434
  866MOL0     C16840  10.593  11.742   9.380  0.3252 -1.0642 -0.6343
  866MOL0     C16841  10.623  11.610   9.406 -0.0906  0.0572  1.2304
  866MOL0     C16842  10.590  11.559   9.540 -0.9628 -0.6880  0.3613
  866MOL0     H16843  10.998  11.248   9.061 -0.8583 -1.3951 -1.8233
  866MOL0     H16844  11.169  11.082   9.101 -1.1296  0.7634 -1.5397
  866MOL0     H16845  11.125  10.724   9.209 -1.4836  2.1703 -1.0570
  866MOL0     H16846  11.215  10.837   9.097 -1.5446 -0.7986 -0.8515
  866MOL0     H16847  11.399  10.836   9.263  0.6158  0.2133  2.2051
  866MOL0     H16848  11.397  10.701   9.143  1.7089 -2.5478  1.4634
  866MOL0     H16849  11.297  10.557   9.318 -0.0737 -0.3502  1.1788
  866MOL0     H16850  11.311  10.681   9.443  2.5282  0.3122  1.9269
  866MOL0     H16851  11.550  10.564   9.292 -0.5097  0.3488 -1.1072
  866MOL0     H16852  11.560  10.719   9.367  2.4125 -1.6213  0.5643
  866MOL0     H16853  11.589  10.643   9.574  1.1868  0.8009 -2.4824
  866MOL0     H16854  11.435  10.571   9.563 -0.0650 -1.6869  0.4756
  866MOL0     H16855  11.513  10.370   9.468 -0.9057 -0.8444  0.7624
  866MOL0     H16856  11.695  10.422   9.461 -0.5407  0.4666  0.4373
  866MOL0     H16857  11.537  10.310   9.688  1.7272 -4.3508  0.0892
  866MOL0     H16858  11.668  10.433   9.716  0.6602  1.2964 -2.0126
  866MOL0     H16859  11.810  10.270   9.602 -1.2893  0.1876 -3.8052
  866MOL0     H16860  11.719  10.186   9.734 -1.4593  0.1658 -0.9235
  866MOL0     H16861  11.475  10.060   9.629 -0.2065  0.3292 -0.6634
  866MOL0     H16862  11.515   9.797   9.334 -0.0427 -0.0945 -1.0272
  866MOL0     H16863  11.398   9.818   9.474  0.4587 -1.0439 -1.6416
  866MOL0     H16864  11.277   9.992   9.353 -0.9864  0.7176 -1.0351
  866MOL0     H16865  11.387   9.995   9.214 -1.5087  1.1366  0.4124
  866MOL0     H16866  11.221   9.748   9.273 -0.8638 -1.6950 -1.5026
  866MOL0     H16867  11.338   9.763   9.164  0.6656 -2.3559  3.6966
  866MOL0     H16868  11.078   9.829   9.074  1.5826 -1.6167 -1.1477
  866MOL0     H16869  11.209   9.930   9.032 -2.2719 -2.5569 -2.1923
  866MOL0     H16870  10.979  10.036   8.934 -0.1042 -0.8377  1.1625
  866MOL0     H16871  10.924  10.252   8.829  1.0902 -1.1999 -0.1541
  866MOL0     H16872  11.021  10.730   8.751  0.4152  1.5236 -1.3246
  866MOL0     H16873  10.941  10.941   8.674  3.2180  1.4759 -0.2025
  866MOL0     H16874  10.648  11.181   8.931  0.0906  2.2388  3.3985
  866MOL0     H16875  10.806  11.252   8.967 -0.4481 -3.2213  1.0032
  866MOL0     H16876  10.794  11.357   8.747  1.3850  0.7771  3.0389
  866MOL0     H16877  10.628  11.305   8.710 -0.1217 -3.3693  0.8375
  866MOL0     H16878  10.521  11.437   8.871 -0.8712 -1.2934 -0.0279
  866MOL0     H16879  10.659  11.413   8.977  1.2543  0.1679 -0.8412
  866MOL0     H16880  10.788  11.576   8.820 -0.3164 -1.9853 -2.5200
  866MOL0     H16881  10.665  11.633   8.913 -0.6103  0.7940 -0.2974
  866MOL0     H16882  10.498  11.593   8.698  0.5512  0.0524 -0.9055
  866MOL0     H16883  10.635  11.567   8.608  0.0825  2.2351 -1.0186
  866MOL0     H16884  10.546  11.790   8.587 -0.6327 -1.7550 -0.5687
  866MOL0     H16885  10.580  11.818   8.761  0.1964  0.4823 -0.5361
  866MOL0     H16886  10.809  11.770   8.565  0.8124 -1.8359  0.8756
  866MOL0     H16887  10.826  11.790   8.735 -2.0495 -3.5050  1.5085
  866MOL0     H16888  10.858  12.001   8.606  0.7135 -1.0418  2.9356
  866MOL0     H16889  10.678  11.979   8.549 -0.2865 -0.9396 -0.9829
  866MOL0     H16890  10.780  11.023   9.067  0.7365 -2.0262  3.6527
  866MOL0     H16891  10.861  10.796   9.137  0.2225 -1.9594 -0.5252
  866MOL0     H16892  11.095  10.454   9.166  0.3767  0.0259  1.7435
  866MOL0     H16893  11.149  10.251   9.270 -2.0418  2.2419  1.9275
  866MOL0     H16894  10.956  10.931   9.430  0.3630  0.3378  0.8164
  866MOL0     H16895  10.795  11.138   9.425 -1.1836  1.1462 -0.1422
  866MOL0     H16896  10.799  11.550   9.124  1.9851  2.0314  1.6076
  866MOL0     H16897  10.732  11.774   9.073 -1.9212 -3.2708 -3.2689
  866MOL0     H16898  10.614  12.130   9.152 -2.5276 -0.6408  2.1930
  866MOL0     H16899  10.625  11.991   9.048  0.8577  0.6510  0.6370
  866MOL0     H16900  10.835  12.061   9.057 -0.1505  1.5268  0.5913
  866MOL0     H16901  10.831  11.945   9.196 -0.3279  1.1334  2.8064
  866MOL0     H16902  10.936  12.133   9.286  0.2335 -0.8494 -1.6406
  866MOL0     H16903  10.771  12.172   9.330  2.8967  6.2781  1.7707
  866MOL0     H16904  10.757  12.329   9.139 -0.4126 -0.4961  0.8867
  866MOL0     H16905  10.872  12.379   9.252 -0.5817 -0.0275  0.3796
  866MOL0     H16906  11.080  12.248   8.896 -2.5414  0.6103 -1.3904
  866MOL0     H16907  10.535  11.802   9.449  2.8209 -0.1809  0.8191
  866MOL0     H16908  10.681  11.515   9.583  0.7331  1.7597 -0.4509
  866MOL0     H16909  10.554  11.646   9.595 -0.1285  0.7793 -1.2959
  866MOL0     H16910  10.512  11.484   9.530 -0.0984 -1.5489 -0.0900
  867MOL0     O16911   4.047  10.265   0.810  0.6158  0.9309 -0.1009
  867MOL0     C16912   3.945  10.317   0.756  0.0339  0.0417  1.6189
  867MOL0     O16913   3.882  10.262   0.639 -0.1757 -0.4290 -0.5341
  867MOL0     C16914   3.943  10.162   0.573 -0.0197 -0.5067  0.0598
  867MOL0     C16915   4.033  10.176   0.468  0.5435 -0.7285 -0.0417
  867MOL0     C16916   4.090  10.070   0.406 -0.2164  0.0430 -0.3635
  867MOL0     C16917   4.058   9.936   0.438  0.5876 -1.1639  0.0135
  867MOL0     O16918   4.109   9.832   0.374 -0.2126 -0.1343 -0.5090
  867MOL0     C16919   4.028   9.789   0.263  0.2365  0.4792 -0.0725
  867MOL0     C16920   4.097   9.681   0.178  0.5309  0.4570 -0.8846
  867MOL0     C16921   4.230   9.726   0.120  0.2629  0.5252 -0.1053
  867MOL0     C16922   4.324   9.615   0.079 -0.5502 -0.3118  0.4657
  867MOL0     C16923   4.460   9.661   0.013 -0.7945  0.0812 -0.1974
  867MOL0     C16924   4.528   9.556  -0.078 -0.7675 -1.1559  0.1414
  867MOL0     C16925   4.600   9.627  -0.192 -0.1839 -0.4627  0.2219
  867MOL0     C16926   4.672   9.536  -0.285 -1.3022 -0.4942 -0.6481
  867MOL0     N16927   4.730   9.618  -0.392 -0.7136 -0.7377  0.7521
  867MOL0     C16928   4.732   9.567  -0.522  0.9327  0.6369 -0.0980
  867MOL0     C16929   4.817   9.635  -0.597 -0.2817  0.7032 -0.4329
  867MOL0     C16930   4.864   9.638  -0.744 -0.3592  0.1353 -0.4622
  867MOL0     C16931   4.962   9.526  -0.771  0.3217  0.5418 -0.0072
  867MOL0     C16932   4.903   9.385  -0.757  1.1094  1.0768  0.1699
  867MOL0     C16933   4.992   9.266  -0.768 -0.1649 -0.5975 -0.4052
  867MOL0     O16934   5.018   9.256  -0.899  0.2167 -0.4973  0.3478
  867MOL0     C16935   5.102   9.156  -0.938  0.1825 -0.0939  0.4277
  867MOL0     C16936   5.062   9.059  -1.028  0.3109 -0.0882 -0.5492
  867MOL0     C16937   5.155   8.976  -1.091  0.0283  0.9091  0.5002
  867MOL0     C16938   5.285   8.981  -1.067 -0.4351 -1.0404  0.6155
  867MOL0     C16939   5.388   8.922  -1.155 -0.8955 -0.1654  0.7364
  867MOL0     O16940   5.364   8.943  -1.284 -0.4177  0.3967  0.5553
  867MOL0     C16941   5.431   8.869  -1.384  0.3904 -0.5345  0.1309
  867MOL0     C16942   5.551   8.920  -1.426 -0.4812  0.2474 -0.4738
  867MOL0     C16943   5.627   8.847  -1.509 -0.2052 -0.2706 -0.3651
  867MOL0     C16944   5.583   8.729  -1.561  0.7665  0.1972  0.1790
  867MOL0     O16945   5.650   8.662  -1.656  0.8338 -0.0325 -0.0544
  867MOL0     C16946   5.752   8.564  -1.629 -0.9551  0.2088  0.1239
  867MOL0     C16947   5.708   8.432  -1.563  0.9842  0.7103  0.1439
  867MOL0     C16948   5.624   8.363  -1.666 -0.9291  0.4536  0.7308
  867MOL0     C16949   5.624   8.209  -1.632 -0.0915  0.2104  0.4425
  867MOL0     C16950   5.488   8.155  -1.672 -0.5528 -0.0343  0.6782
  867MOL0     C16951   5.498   7.998  -1.669 -0.5270 -0.6113  0.1640
  867MOL0     C16952   5.369   7.926  -1.701 -0.9465 -0.6793 -0.0192
  867MOL0     C16953   5.402   7.773  -1.701  0.8251  0.0643 -1.2747
  867MOL0    Cl16954   5.261   7.668  -1.672  0.0697 -0.1030  0.1387
  867MOL0     C16955   5.457   8.672  -1.527  0.3459 -1.0011  1.1297
  867MOL0     C16956   5.391   8.745  -1.433  0.0002  0.1292 -0.1363
  867MOL0     O16957   5.486   8.870  -1.112 -0.5744 -0.5165 -0.1029
  867MOL0     C16958   5.323   9.064  -0.963  0.7213  0.0644  0.3779
  867MOL0     C16959   5.229   9.143  -0.895 -0.8019  0.1354 -0.6865
  867MOL0     N16960   4.872   9.729  -0.506 -0.2657  0.2607  0.5729
  867MOL0     N16961   4.811   9.726  -0.388  0.1153  0.1433  1.5587
  867MOL0     C16962   3.965   9.919   0.541  0.1530 -0.0581 -0.1441
  867MOL0     C16963   3.910  10.032   0.608  0.5851  0.2916 -1.6307
  867MOL0     C16964   3.886  10.438   0.824  0.7774  0.5260  0.0822
  867MOL0     C16965   3.902  10.454   0.965 -1.1220 -0.1881  0.9943
  867MOL0     C16966   3.824  10.547   1.033 -0.0254  0.5634 -0.0045
  867MOL0     C16967   3.735  10.632   0.981  0.1120  0.1433  0.5701
  867MOL0     O16968   3.664  10.707   1.064 -0.2444 -0.7380 -0.2657
  867MOL0     C16969   3.602  10.826   1.009 -1.1362  0.4321 -0.1387
  867MOL0     C16970   3.551  10.920   1.117 -0.2238  0.4234  0.1557
  867MOL0     C16971   3.559  11.072   1.081 -0.1059 -0.1141  0.0250
  867MOL0     C16972   3.518  11.098   0.936 -0.1969 -0.2060 -0.0785
  867MOL0     C16973   3.502  11.241   0.919 -0.2604 -0.8634  0.3818
  867MOL0     C16974   3.479  11.360   0.885  1.0420  0.2023  0.0784
  867MOL0     C16975   3.703  10.605   0.843  0.1772  0.2205  0.4420
  867MOL0     C16976   3.780  10.514   0.764  1.2670  0.0148 -0.1799
  867MOL0     C16977   3.727  10.511   0.614 -0.1109 -0.6299 -0.7685
  867MOL0     H16978   4.043  10.277   0.430 -0.7148 -1.1687 -1.6622
  867MOL0     H16979   4.165  10.087   0.330 -0.0024  2.9085  0.3783
  867MOL0     H16980   3.927   9.758   0.291  0.0011 -0.1235 -1.5112
  867MOL0     H16981   4.015   9.876   0.197  3.1691  0.7785 -0.3877
  867MOL0     H16982   4.018   9.658   0.106  0.4241  2.2324 -1.3840
  867MOL0     H16983   4.114   9.592   0.239  1.8769  0.7971 -0.7383
  867MOL0     H16984   4.274   9.785   0.201 -1.7522  0.3256  1.2243
  867MOL0     H16985   4.201   9.786   0.033  1.1565  0.8096 -0.2107
  867MOL0     H16986   4.349   9.561   0.171 -1.2214 -0.3104  0.6526
  867MOL0     H16987   4.266   9.535   0.031  2.1170 -3.5174  2.1149
  867MOL0     H16988   4.444   9.748  -0.050 -2.5568 -1.0586 -1.4285
  867MOL0     H16989   4.524   9.678   0.099 -1.4927 -2.3914  0.9133
  867MOL0     H16990   4.597   9.500  -0.014  0.0745  2.2354  2.4733
  867MOL0     H16991   4.450   9.493  -0.121 -2.4964  2.1751 -1.9542
  867MOL0     H16992   4.667   9.708  -0.163  0.4634 -0.7242 -0.5288
  867MOL0     H16993   4.520   9.676  -0.249 -1.3519 -1.7759  0.6723
  867MOL0     H16994   4.757   9.493  -0.232 -0.0086  2.5707 -0.0418
  867MOL0     H16995   4.605   9.456  -0.317 -3.9875 -0.5689  4.2029
  867MOL0     H16996   4.664   9.486  -0.547 -0.5656  1.9463 -0.4298
  867MOL0     H16997   4.783   9.632  -0.817  0.1963  0.3931 -1.1139
  867MOL0     H16998   4.918   9.731  -0.765  0.9675 -0.0698  1.7421
  867MOL0     H16999   5.023   9.530  -0.862  1.3962 -1.8951  0.5244
  867MOL0     H17000   5.045   9.536  -0.701  0.8889  1.1268 -0.7361
  867MOL0     H17001   4.816   9.383  -0.823 -0.4726  0.1358  2.1772
  867MOL0     H17002   4.860   9.382  -0.657  3.7945  2.7507  1.4690
  867MOL0     H17003   4.937   9.177  -0.736 -0.3740 -0.0430  0.8819
  867MOL0     H17004   5.082   9.275  -0.705 -0.6487 -1.0769  0.3739
  867MOL0     H17005   4.959   9.051  -1.060 -0.1041 -1.4115  0.9803
  867MOL0     H17006   5.121   8.909  -1.169  0.5589  2.2590 -0.9448
  867MOL0     H17007   5.589   9.011  -1.382 -2.6065  0.1977  1.7047
  867MOL0     H17008   5.728   8.878  -1.536 -0.6355 -0.5197 -2.4046
  867MOL0     H17009   5.822   8.557  -1.713 -1.1095 -1.4484  0.0985
  867MOL0     H17010   5.816   8.607  -1.551 -1.6044  2.0627 -0.2937
  867MOL0     H17011   5.790   8.372  -1.524  0.3734  0.9741  1.9350
  867MOL0     H17012   5.637   8.443  -1.480  1.3976  0.4483  0.5333
  867MOL0     H17013   5.522   8.402  -1.662 -1.0251  0.1937  0.8357
  867MOL0     H17014   5.667   8.373  -1.765 -1.1233  1.1789  0.7140
  867MOL0     H17015   5.633   8.196  -1.523 -2.7391 -0.3180  0.6699
  867MOL0     H17016   5.702   8.155  -1.687 -1.9765 -2.0495 -0.2075
  867MOL0     H17017   5.457   8.185  -1.773  1.1412 -1.1795 -0.2310
  867MOL0     H17018   5.413   8.193  -1.602  0.8442  2.8741  0.7746
  867MOL0     H17019   5.569   7.961  -1.743 -1.8552 -1.1603 -0.8815
  867MOL0     H17020   5.526   7.970  -1.567 -4.8494 -0.1954  1.6813
  867MOL0     H17021   5.328   7.949  -1.801 -0.7329  0.4251  0.1396
  867MOL0     H17022   5.289   7.959  -1.634 -0.7542  2.1646 -1.0510
  867MOL0     H17023   5.448   7.747  -1.797  0.1181 -2.6779 -0.9536
  867MOL0     H17024   5.476   7.768  -1.620 -2.7661 -0.0586  2.2822
  867MOL0     H17025   5.408   8.582  -1.564 -2.6609  0.6022  0.9263
  867MOL0     H17026   5.293   8.723  -1.393 -0.1805  2.0520  0.5987
  867MOL0     H17027   5.428   9.075  -0.938  0.1514  2.2907  2.1193
  867MOL0     H17028   5.250   9.225  -0.827  0.9646  1.2506 -2.4445
  867MOL0     H17029   3.952   9.813   0.562  1.9121 -0.3235 -0.2976
  867MOL0     H17030   3.846  10.011   0.693  1.1045  2.7113 -0.5540
  867MOL0     H17031   3.964  10.387   1.024  0.9415 -0.9791 -1.8416
  867MOL0     H17032   3.841  10.560   1.139  2.9516 -1.0029 -0.1753
  867MOL0     H17033   3.518  10.806   0.943  0.5113 -2.0273 -1.6144
  867MOL0     H17034   3.675  10.878   0.947 -1.9231  0.7029 -0.8619
  867MOL0     H17035   3.621  10.914   1.201 -0.6850 -0.4239  0.4931
  867MOL0     H17036   3.449  10.885   1.138  0.3580 -1.9182 -0.6545
  867MOL0     H17037   3.657  11.120   1.085 -0.6729  1.4848 -2.6606
  867MOL0     H17038   3.499  11.130   1.151  0.5242  0.5243  0.0465
  867MOL0     H17039   3.594  11.069   0.864  1.7339 -0.2680  1.8789
  867MOL0     H17040   3.417  11.061   0.913 -0.8479  2.4780 -2.0601
  867MOL0     H17041   3.466  11.461   0.850  1.9930 -1.0852 -4.8621
  867MOL0     H17042   3.612  10.637   0.793 -0.1629 -2.2939 -0.7377
  867MOL0     H17043   3.808  10.475   0.551 -0.7987  0.8510 -2.6012
  867MOL0     H17044   3.641  10.444   0.610  1.5973 -2.9838 -0.1096
  867MOL0     H17045   3.709  10.615   0.583 -1.9078 -0.2498  1.2587
  868MOL0     O17046   7.369   7.728   7.190 -0.4975 -0.6193 -0.6772
  868MOL0     C17047   7.445   7.676   7.270  0.0277  0.4408  0.3312
  868MOL0     O17048   7.571   7.715   7.296  0.1050 -0.4830  0.2806
  868MOL0     C17049   7.630   7.811   7.217  0.1074  0.0990 -0.2776
  868MOL0     C17050   7.603   7.941   7.248 -0.3046  0.0402 -0.1163
  868MOL0     C17051   7.635   8.056   7.165 -0.2202 -0.5797 -0.6681
  868MOL0     C17052   7.702   8.038   7.043  0.8722 -0.2855  0.1785
  868MOL0     O17053   7.740   8.145   6.960  0.0187 -0.1409  0.0594
  868MOL0     C17054   7.813   8.121   6.840  0.1784 -0.2344  0.6719
  868MOL0     C17055   7.823   8.267   6.771 -0.1216  0.2162  0.0857
  868MOL0     C17056   7.884   8.253   6.633  0.1316  0.2499 -0.1280
  868MOL0     C17057   8.039   8.217   6.646  0.3224 -0.7488  0.5104
  868MOL0     C17058   8.100   8.211   6.505 -0.5045  0.4546 -0.4434
  868MOL0     C17059   8.248   8.230   6.496 -0.2709  0.4235 -0.0527
  868MOL0     C17060   8.331   8.121   6.573 -0.3618  0.4604  0.1737
  868MOL0     C17061   8.368   8.003   6.474 -0.2385  0.9126 -0.3972
  868MOL0     N17062   8.256   7.913   6.472  0.1909 -0.9888  0.2578
  868MOL0     C17063   8.205   7.820   6.556 -0.4021 -0.7116  0.9479
  868MOL0     C17064   8.109   7.748   6.485  0.7181 -0.2296 -0.1301
  868MOL0     C17065   8.043   7.639   6.560 -0.2946  0.2390 -0.1209
  868MOL0     C17066   7.942   7.682   6.662  0.3332  0.0575 -0.1809
  868MOL0     C17067   7.922   7.562   6.760 -0.5961 -0.4648  0.4279
  868MOL0     C17068   7.906   7.432   6.692 -0.2512  0.7855 -0.4974
  868MOL0     O17069   7.867   7.339   6.792  0.6678 -1.6268 -0.0655
  868MOL0     C17070   7.959   7.262   6.867  0.0032  0.0170  0.2691
  868MOL0     C17071   8.102   7.275   6.847 -0.3548  0.1231 -0.4048
  868MOL0     C17072   8.189   7.201   6.930  0.3499  1.0969  0.3626
  868MOL0     C17073   8.133   7.099   7.012 -0.3690  0.0471  0.0960
  868MOL0     C17074   8.233   7.008   7.091  0.4305 -0.4494  0.0835
  868MOL0     O17075   8.367   7.028   7.065  0.2215 -0.1554 -0.2362
  868MOL0     C17076   8.461   6.941   7.116 -0.1177 -0.2858  0.7088
  868MOL0     C17077   8.455   6.799   7.111 -0.0630  0.0387 -0.0077
  868MOL0     C17078   8.544   6.719   7.184 -0.1527  0.3273 -1.2581
  868MOL0     C17079   8.644   6.783   7.253  0.5037  0.5540 -0.3523
  868MOL0     O17080   8.730   6.699   7.317  0.1496  0.1619  0.5531
  868MOL0     C17081   8.820   6.736   7.427  0.9225 -0.6175 -0.2411
  868MOL0     C17082   8.945   6.799   7.372 -0.4535  0.5165 -0.7871
  868MOL0     C17083   8.986   6.723   7.236 -0.0778  0.3593  0.2070
  868MOL0     C17084   9.139   6.721   7.209  0.5450 -0.2727  0.1170
  868MOL0     C17085   9.180   6.644   7.083 -0.6856  0.7597 -0.4478
  868MOL0     C17086   9.333   6.632   7.069  0.3141  0.2865 -0.5215
  868MOL0     C17087   9.374   6.530   6.957  0.2884  0.0691 -0.2432
  868MOL0     C17088   9.332   6.379   6.987 -0.5571  0.1023  0.4178
  868MOL0    Cl17089   9.356   6.286   6.839  0.4875 -0.3647  0.4405
  868MOL0     C17090   8.650   6.923   7.259 -0.9151  0.4423  0.9886
  868MOL0     C17091   8.559   7.008   7.200 -0.9850 -0.0749  0.0630
  868MOL0     O17092   8.197   6.924   7.168  0.8556 -0.2701  0.0202
  868MOL0     C17093   7.997   7.080   7.018  0.1577 -1.0731 -0.3905
  868MOL0     C17094   7.903   7.158   6.945 -0.3757 -0.2112 -0.2632
  868MOL0     N17095   8.111   7.790   6.354 -0.4949 -0.2042  0.0027
  868MOL0     N17096   8.186   7.898   6.354 -0.6419  0.5495 -0.1575
  868MOL0     C17097   7.731   7.899   7.009 -0.1258 -0.6137 -0.0466
  868MOL0     C17098   7.708   7.793   7.104 -0.2847  0.4846  0.2995
  868MOL0     C17099   7.412   7.552   7.338  0.7187 -0.2311  0.0442
  868MOL0     C17100   7.517   7.472   7.388 -0.1252  0.6763  0.1151
  868MOL0     C17101   7.490   7.348   7.453 -0.1237 -0.0339 -0.3877
  868MOL0     C17102   7.364   7.301   7.481  0.4909  0.0482  0.3120
  868MOL0     O17103   7.360   7.196   7.564 -0.3183  0.5958 -0.3357
  868MOL0     C17104   7.230   7.153   7.614  0.1107 -0.1727 -0.8416
  868MOL0     C17105   7.254   7.062   7.733 -0.1286 -0.9053  0.5715
  868MOL0     C17106   7.290   6.922   7.678 -0.1426 -0.1853 -1.1565
  868MOL0     C17107   7.323   6.812   7.797 -0.4741  0.5526  0.1520
  868MOL0     C17108   7.402   6.870   7.900  0.0539 -0.6451  0.5855
  868MOL0     C17109   7.440   6.922   8.002  0.0540  0.0959  0.3520
  868MOL0     C17110   7.259   7.377   7.428 -0.2744 -0.4520 -0.1173
  868MOL0     C17111   7.284   7.497   7.359  0.2831  0.0445  0.5182
  868MOL0     C17112   7.161   7.557   7.311  0.6127 -1.3313 -0.5026
  868MOL0     H17113   7.557   7.956   7.346  0.8298  0.2864  0.4016
  868MOL0     H17114   7.609   8.156   7.196 -0.4971 -0.8230 -0.0909
  868MOL0     H17115   7.912   8.081   6.859  0.3756 -0.6333 -1.0358
  868MOL0     H17116   7.755   8.051   6.779 -0.8233  0.8027  0.3786
  868MOL0     H17117   7.883   8.336   6.831 -2.5516  0.1732  2.8140
  868MOL0     H17118   7.724   8.314   6.773  0.3512  1.2469  0.1190
  868MOL0     H17119   7.870   8.348   6.581 -1.8158  0.2346  0.2874
  868MOL0     H17120   7.831   8.173   6.581  2.8148 -1.2001 -0.8152
  868MOL0     H17121   8.097   8.294   6.699  1.6511 -1.3255 -0.0747
  868MOL0     H17122   8.053   8.115   6.682  3.5734 -0.7443 -0.4048
  868MOL0     H17123   8.075   8.112   6.467 -3.8045  0.9382  0.0864
  868MOL0     H17124   8.049   8.280   6.437 -0.9223 -2.0877 -2.8506
  868MOL0     H17125   8.270   8.227   6.388 -0.9959  2.7725 -0.3197
  868MOL0     H17126   8.279   8.327   6.534 -0.2108 -0.3150  1.8929
  868MOL0     H17127   8.293   8.089   6.670  0.8560  1.9675  1.1929
  868MOL0     H17128   8.427   8.167   6.595  0.2304 -0.7726  0.2134
  868MOL0     H17129   8.398   8.031   6.373  3.1951 -0.7793  0.0050
  868MOL0     H17130   8.456   7.948   6.508  0.9294  2.9545  0.0685
  868MOL0     H17131   8.232   7.802   6.660  0.2229 -1.2612  0.6992
  868MOL0     H17132   8.000   7.580   6.478  1.4547 -1.5831  0.1933
  868MOL0     H17133   8.127   7.590   6.610  2.6280  3.7159 -1.2624
  868MOL0     H17134   7.965   7.772   6.719 -1.8260  0.8718 -0.5240
  868MOL0     H17135   7.845   7.719   6.630  0.2036  0.5872  0.7827
  868MOL0     H17136   7.836   7.567   6.826 -1.2114  1.9518 -0.4539
  868MOL0     H17137   8.009   7.564   6.826  0.0452  4.2648 -0.2003
  868MOL0     H17138   7.999   7.405   6.642  1.6359 -0.6409  3.3972
  868MOL0     H17139   7.823   7.435   6.621 -1.4559  0.8494  0.8662
  868MOL0     H17140   8.144   7.345   6.775  3.0731 -0.1753  1.1112
  868MOL0     H17141   8.295   7.222   6.927  1.3053 -2.9987  0.6351
  868MOL0     H17142   8.386   6.743   7.049  1.0359 -0.5350 -0.7589
  868MOL0     H17143   8.520   6.614   7.190  2.0083 -0.2377 -1.6006
  868MOL0     H17144   8.771   6.803   7.497  1.5095 -2.2787  1.8607
  868MOL0     H17145   8.840   6.645   7.484 -2.7538 -1.3511  0.1111
  868MOL0     H17146   8.933   6.907   7.361 -1.6798  0.6199  1.0580
  868MOL0     H17147   9.021   6.788   7.450  0.9069  3.0755 -1.6374
  868MOL0     H17148   8.941   6.623   7.234 -2.7316  1.4863  0.0890
  868MOL0     H17149   8.941   6.775   7.151  1.0347 -3.3257 -2.9562
  868MOL0     H17150   9.198   6.677   7.290  2.8487 -2.7736 -2.6679
  868MOL0     H17151   9.171   6.824   7.191 -1.7660  0.3054 -1.0260
  868MOL0     H17152   9.142   6.685   6.989 -0.5886 -0.5249 -1.0691
  868MOL0     H17153   9.141   6.543   7.094  0.2147  0.6956  4.6378
  868MOL0     H17154   9.370   6.729   7.034  1.2948  1.9996  4.3909
  868MOL0     H17155   9.392   6.619   7.161  0.6936 -2.8452 -1.0781
  868MOL0     H17156   9.482   6.544   6.942  0.3135 -0.7700 -0.9044
  868MOL0     H17157   9.322   6.564   6.867  2.9134 -1.2038 -2.3848
  868MOL0     H17158   9.399   6.331   7.059  1.2789  2.4302  0.3937
  868MOL0     H17159   9.230   6.375   7.027 -0.6310  1.1069  0.3507
  868MOL0     H17160   8.718   6.969   7.330  2.5427 -0.3235 -1.5708
  868MOL0     H17161   8.556   7.113   7.227  4.3277  0.3528  0.1833
  868MOL0     H17162   7.958   7.000   7.080  3.3004 -1.1248  1.7016
  868MOL0     H17163   7.798   7.142   6.923  0.1452  1.5074 -5.5417
  868MOL0     H17164   7.769   7.867   6.912  0.5170  0.8467 -0.3016
  868MOL0     H17165   7.726   7.690   7.075  1.0491  1.3914 -2.4814
  868MOL0     H17166   7.621   7.501   7.381 -0.3674  1.3959 -0.6481
  868MOL0     H17167   7.567   7.282   7.491 -0.6116 -0.0582  0.5691
  868MOL0     H17168   7.166   7.098   7.545  0.7841 -0.3818 -1.3130
  868MOL0     H17169   7.171   7.237   7.653 -1.7168 -2.0044  0.5570
  868MOL0     H17170   7.162   7.064   7.793 -0.7667  3.0890 -0.2619
  868MOL0     H17171   7.335   7.100   7.797  0.3525  1.1191 -1.1230
  868MOL0     H17172   7.379   6.938   7.617 -1.1176  1.6561 -2.1731
  868MOL0     H17173   7.219   6.882   7.605  1.8434 -1.5519 -2.4508
  868MOL0     H17174   7.228   6.773   7.833 -1.9473  1.3103 -2.6004
  868MOL0     H17175   7.388   6.735   7.753 -1.6608 -1.0446  1.0749
  868MOL0     H17176   7.478   6.963   8.094  1.3780 -1.4743  0.5496
  868MOL0     H17177   7.156   7.351   7.448  0.6808 -2.0293  3.8132
  868MOL0     H17178   7.177   7.663   7.332  3.1775 -2.1109  2.1810
  868MOL0     H17179   7.171   7.539   7.203  1.6857  0.9344 -0.8399
  868MOL0     H17180   7.064   7.530   7.355  1.2980  1.3000  3.0189
  869MOL0     O17181  10.022   6.859   6.929  0.5789  0.2851  0.2035
  869MOL0     C17182  10.073   6.755   6.971 -0.4224 -0.7283 -0.0255
  869MOL0     O17183  10.014   6.636   6.963 -1.1587  0.3403  0.2922
  869MOL0     C17184   9.910   6.612   6.883  0.2427 -0.1693 -1.4375
  869MOL0     C17185   9.917   6.521   6.774 -0.1722 -0.8110 -0.0273
  869MOL0     C17186   9.812   6.523   6.674  0.6766 -0.3683  0.3878
  869MOL0     C17187   9.703   6.603   6.692  0.1387  0.4764  0.1568
  869MOL0     O17188   9.596   6.605   6.599  0.7158 -0.6573  0.0175
  869MOL0     C17189   9.621   6.536   6.475  0.5322 -1.3699 -0.1077
  869MOL0     C17190   9.502   6.560   6.385  0.8358 -0.4414  0.4456
  869MOL0     C17191   9.436   6.702   6.358 -0.5052  0.0709 -0.1918
  869MOL0     C17192   9.317   6.690   6.256  0.0083  0.8895 -0.5884
  869MOL0     C17193   9.300   6.816   6.165 -0.4503  0.1670 -1.7516
  869MOL0     C17194   9.164   6.835   6.100  0.1030 -0.6223  0.2073
  869MOL0     C17195   9.145   6.744   5.973  0.9549 -0.1908 -0.1508
  869MOL0     C17196   9.232   6.792   5.860  0.0485  0.8395 -0.2150
  869MOL0     N17197   9.207   6.919   5.801  0.6350  0.0518 -0.8072
  869MOL0     C17198   9.301   7.016   5.779  0.4951 -0.1171 -0.9112
  869MOL0     C17199   9.237   7.106   5.699  0.6038  0.5747  0.2941
  869MOL0     C17200   9.308   7.227   5.650 -0.6613 -0.1041 -0.2260
  869MOL0     C17201   9.329   7.340   5.746 -0.0855 -0.5428 -1.2842
  869MOL0     C17202   9.191   7.387   5.814 -1.5235 -0.0393 -0.6180
  869MOL0     C17203   9.192   7.538   5.860 -0.1083  0.5700  0.1491
  869MOL0     O17204   9.060   7.597   5.885 -0.8183 -0.0692 -0.2671
  869MOL0     C17205   9.057   7.723   5.932  0.4798  0.5045  0.9708
  869MOL0     C17206   8.932   7.784   5.943  0.5168 -0.2913 -0.4656
  869MOL0     C17207   8.905   7.918   5.974 -0.0047 -0.7137  0.1058
  869MOL0     C17208   9.018   8.006   6.002  0.5225 -0.9717 -0.2918
  869MOL0     C17209   8.994   8.138   6.056  0.7705 -0.1129  1.0976
  869MOL0     O17210   8.884   8.203   6.001 -0.7519 -0.3853  0.0668
  869MOL0     C17211   8.843   8.324   6.051  0.2420  0.3290  0.0417
  869MOL0     C17212   8.919   8.431   6.087 -0.7544 -0.2689 -0.1862
  869MOL0     C17213   8.853   8.552   6.126 -0.0433 -0.0920  0.9119
  869MOL0     C17214   8.710   8.561   6.133 -0.6473 -0.1501 -0.1118
  869MOL0     O17215   8.663   8.678   6.185 -0.0444  0.4945 -0.1859
  869MOL0     C17216   8.526   8.692   6.173  0.5590 -0.6163 -0.0971
  869MOL0     C17217   8.492   8.833   6.216  1.4476 -0.3175 -1.0464
  869MOL0     C17218   8.345   8.870   6.176  0.6167 -0.8502 -1.2017
  869MOL0     C17219   8.301   8.983   6.268 -0.6799  0.4426  0.1336
  869MOL0     C17220   8.173   9.043   6.207 -1.0813 -0.0326  0.3512
  869MOL0     C17221   8.116   9.159   6.306  0.7483  0.4621 -0.3922
  869MOL0     C17222   8.027   9.235   6.215 -0.0379  0.1280  0.5708
  869MOL0     C17223   7.972   9.366   6.287 -0.5334 -0.5100  0.2534
  869MOL0    Cl17224   8.092   9.458   6.370 -0.5296  0.2737  0.2196
  869MOL0     C17225   8.640   8.446   6.094  0.0248  0.8023 -0.1676
  869MOL0     C17226   8.707   8.330   6.052  0.5344  0.5232 -0.5968
  869MOL0     O17227   9.082   8.192   6.116 -0.4336  0.3627 -0.4771
  869MOL0     C17228   9.149   7.950   5.996  0.1163  0.8214 -0.6928
  869MOL0     C17229   9.172   7.808   5.950  0.4750  0.7872 -0.1355
  869MOL0     N17230   9.108   7.067   5.675  0.9211  0.2794 -0.7304
  869MOL0     N17231   9.090   6.956   5.742 -0.0994 -0.4494  0.4986
  869MOL0     C17232   9.696   6.677   6.812  0.0801  0.1847  0.7650
  869MOL0     C17233   9.797   6.687   6.905 -0.6282  0.0632 -0.1191
  869MOL0     C17234  10.200   6.768   7.052  0.8458  0.0616  0.0081
  869MOL0     C17235  10.235   6.902   7.094  0.5974  0.8529 -0.4611
  869MOL0     C17236  10.340   6.929   7.183 -0.0363 -0.8379  0.5601
  869MOL0     C17237  10.415   6.823   7.221  0.0557  0.4289  0.2255
  869MOL0     O17238  10.521   6.840   7.309 -0.1401 -0.2875  0.9874
  869MOL0     C17239  10.478   6.818   7.444 -0.8787  0.3591  0.1768
  869MOL0     C17240  10.547   6.694   7.497  0.1782  0.0360 -0.6385
  869MOL0     C17241  10.476   6.660   7.637 -0.1969 -0.2235  0.2258
  869MOL0     C17242  10.530   6.533   7.702  0.2664  0.7064 -1.3670
  869MOL0     C17243  10.516   6.545   7.848  0.9256  1.1171  0.8216
  869MOL0     C17244  10.488   6.530   7.966  0.0590 -0.7405 -0.2204
  869MOL0     C17245  10.390   6.692   7.183  0.7609  0.7034 -1.3490
  869MOL0     C17246  10.283   6.657   7.090  0.0649 -0.6204  0.5983
  869MOL0     C17247  10.282   6.518   7.040  0.4178  0.6027 -0.4701
  869MOL0     H17248  10.011   6.472   6.750  1.5972  1.5040  1.8094
  869MOL0     H17249   9.834   6.460   6.588  1.3883  1.6789 -1.0236
  869MOL0     H17250   9.718   6.567   6.437  0.1891  1.9855  1.3631
  869MOL0     H17251   9.622   6.429   6.494  0.8964 -1.3025  0.2415
  869MOL0     H17252   9.421   6.494   6.419  0.4817 -0.2090  0.0724
  869MOL0     H17253   9.533   6.516   6.289  0.0284  2.1128 -1.0850
  869MOL0     H17254   9.509   6.773   6.319  1.9512 -0.3752  3.1316
  869MOL0     H17255   9.407   6.755   6.449 -2.7399 -1.4670  0.0943
  869MOL0     H17256   9.335   6.597   6.201 -2.2259  0.3005 -0.4016
  869MOL0     H17257   9.227   6.664   6.312  2.0380 -0.5841  2.3072
  869MOL0     H17258   9.301   6.899   6.236 -1.2826 -1.4122  0.2203
  869MOL0     H17259   9.375   6.829   6.086 -1.3618  0.1539 -2.6499
  869MOL0     H17260   9.082   6.811   6.167  0.6030 -0.2946  0.9495
  869MOL0     H17261   9.155   6.940   6.069  3.8983 -0.1074  0.3635
  869MOL0     H17262   9.039   6.731   5.949  0.1533  1.0979  2.2848
  869MOL0     H17263   9.177   6.640   5.987  0.4248  0.0013  3.5476
  869MOL0     H17264   9.338   6.784   5.887 -0.1919 -0.5756  0.3817
  869MOL0     H17265   9.229   6.711   5.786 -3.4388 -0.7587  1.4818
  869MOL0     H17266   9.403   7.028   5.815  1.9018  0.8806 -4.7114
  869MOL0     H17267   9.403   7.195   5.606  0.7236  1.3112  1.5917
  869MOL0     H17268   9.251   7.261   5.562 -1.4726  0.7964  0.6250
  869MOL0     H17269   9.400   7.308   5.823 -1.8710 -1.0628  0.1878
  869MOL0     H17270   9.357   7.430   5.690  0.1893 -0.7648 -1.5105
  869MOL0     H17271   9.183   7.329   5.907  0.6893 -0.8322 -0.8740
  869MOL0     H17272   9.100   7.370   5.756 -1.7932 -1.1851  0.1068
  869MOL0     H17273   9.235   7.592   5.774 -2.1339  2.5241  0.2671
  869MOL0     H17274   9.255   7.550   5.949  3.2841 -0.8039 -1.8603
  869MOL0     H17275   8.844   7.723   5.925 -1.0225  1.5605  0.3791
  869MOL0     H17276   8.808   7.965   5.987  0.2010 -0.0862 -0.5676
  869MOL0     H17277   9.027   8.429   6.080 -0.8475 -2.4767 -4.2169
  869MOL0     H17278   8.907   8.641   6.155  0.5796 -0.1484 -0.0384
  869MOL0     H17279   8.495   8.680   6.069 -1.9699  0.3410  0.4695
  869MOL0     H17280   8.480   8.617   6.238  3.1084 -0.7241  1.7372
  869MOL0     H17281   8.498   8.833   6.326  1.4357 -1.6299 -1.0313
  869MOL0     H17282   8.565   8.903   6.175  3.1359  0.3707  2.7089
  869MOL0     H17283   8.343   8.914   6.075 -0.3045  3.0355  0.3256
  869MOL0     H17284   8.275   8.787   6.185  1.4203 -1.4249 -0.0891
  869MOL0     H17285   8.385   9.053   6.276  0.9771 -0.9829 -2.9439
  869MOL0     H17286   8.272   8.952   6.368  0.8758 -0.4802  0.3298
  869MOL0     H17287   8.104   8.959   6.190  0.0892 -1.8831  3.8843
  869MOL0     H17288   8.195   9.088   6.109  0.0353 -1.2840  0.0073
  869MOL0     H17289   8.068   9.113   6.392  3.8300  0.0200  1.2295
  869MOL0     H17290   8.195   9.220   6.350  0.0089 -0.0298  1.7440
  869MOL0     H17291   7.942   9.172   6.188 -0.4920  0.6971  0.6528
  869MOL0     H17292   8.091   9.266   6.132 -0.8093  0.0800 -0.0534
  869MOL0     H17293   7.940   9.432   6.206 -0.2631  0.4881  0.9427
  869MOL0     H17294   7.895   9.339   6.360  0.6229 -1.9037  1.0248
  869MOL0     H17295   8.533   8.436   6.085  0.0713  0.3275 -0.2630
  869MOL0     H17296   8.652   8.239   6.031  3.1213 -2.4210  3.9535
  869MOL0     H17297   9.238   8.008   6.017 -0.4455  1.5214 -0.2453
  869MOL0     H17298   9.275   7.775   5.942  0.8859  1.8659  0.5013
  869MOL0     H17299   9.599   6.725   6.823 -0.9737 -1.7389  0.3710
  869MOL0     H17300   9.798   6.762   6.983  0.8993  3.4256 -3.1169
  869MOL0     H17301  10.163   6.975   7.059  1.5993  0.7442 -2.9774
  869MOL0     H17302  10.354   7.027   7.227  0.5420  0.2382 -1.8715
  869MOL0     H17303  10.369   6.806   7.450 -1.2465  1.7075 -2.5545
  869MOL0     H17304  10.513   6.913   7.487  2.2434 -1.1503  1.2329
  869MOL0     H17305  10.646   6.735   7.521 -0.7134  1.3464  1.0567
  869MOL0     H17306  10.534   6.613   7.425  0.6771 -0.9620  0.3525
  869MOL0     H17307  10.369   6.637   7.629  0.1737 -1.7118 -0.9306
  869MOL0     H17308  10.495   6.746   7.701 -1.8154  1.2206 -1.1081
  869MOL0     H17309  10.476   6.443   7.675  0.2593  1.1229 -2.8313
  869MOL0     H17310  10.629   6.501   7.669  0.3765 -2.5853  1.5525
  869MOL0     H17311  10.476   6.526   8.073 -1.7972 -0.2532 -0.3804
  869MOL0     H17312  10.458   6.612   7.212 -0.3677 -0.1590 -0.9964
  869MOL0     H17313  10.347   6.452   7.098  0.3126 -0.5506 -1.6497
  869MOL0     H17314  10.177   6.493   7.051  0.0204  0.9690 -2.9548
  869MOL0     H17315  10.313   6.511   6.935 -2.9891 -3.2488 -1.4320
  870MOL0     O17316  11.383   4.048   6.838 -0.1556  0.6540 -0.2894
  870MOL0     C17317  11.405   4.151   6.895  1.0751 -0.3350  0.1314
  870MOL0     O17318  11.506   4.164   6.987  0.1351 -0.0822  0.7813
  870MOL0     C17319  11.563   4.059   7.052  0.2335 -0.5483  0.5489
  870MOL0     C17320  11.576   4.072   7.185 -0.0630  0.1778 -0.6518
  870MOL0     C17321  11.620   3.967   7.273  0.8962 -0.3525  0.5161
  870MOL0     C17322  11.660   3.850   7.207 -0.1628 -0.6110  0.4166
  870MOL0     O17323  11.725   3.753   7.272 -0.7325  0.1636  0.2730
  870MOL0     C17324  11.818   3.781   7.379 -0.6632 -0.4741 -0.1554
  870MOL0     C17325  11.881   3.655   7.426 -0.4720 -0.3069 -0.2348
  870MOL0     C17326  11.795   3.587   7.533  0.3722 -0.9965 -0.5219
  870MOL0     C17327  11.877   3.471   7.601  0.4397 -0.5199  0.3390
  870MOL0     C17328  11.831   3.402   7.724  0.3323 -0.4907 -1.0867
  870MOL0     C17329  11.807   3.502   7.832 -0.1907 -0.1755  0.1737
  870MOL0     C17330  11.783   3.423   7.956 -1.1381  0.3705 -0.3070
  870MOL0     C17331  11.717   3.512   8.063  0.0549  0.3021 -0.7602
  870MOL0     N17332  11.708   3.435   8.186 -0.3712 -0.2692 -0.2003
  870MOL0     C17333  11.599   3.357   8.229  0.0585 -0.5273  0.2789
  870MOL0     C17334  11.618   3.333   8.358  1.0734  0.2403 -0.3235
  870MOL0     C17335  11.539   3.235   8.454 -0.7158  0.4757  1.2854
  870MOL0     C17336  11.400   3.286   8.480  0.7425  0.2943  0.3512
  870MOL0     C17337  11.397   3.420   8.554  0.4105 -0.0704 -0.3171
  870MOL0     C17338  11.293   3.524   8.500 -0.1542 -0.3039 -0.1991
  870MOL0     O17339  11.338   3.587   8.380 -0.9694  1.0345 -0.5534
  870MOL0     C17340  11.347   3.723   8.395  0.0521 -0.1339  0.1584
  870MOL0     C17341  11.421   3.791   8.485 -0.5158  0.6147 -0.2891
  870MOL0     C17342  11.415   3.926   8.507 -0.4522 -0.3420  0.5640
  870MOL0     C17343  11.335   4.013   8.432  0.8769  1.2558 -0.4091
  870MOL0     C17344  11.319   4.154   8.456 -0.9796 -0.5122 -0.5943
  870MOL0     O17345  11.253   4.226   8.362 -0.5276  0.1986  0.4897
  870MOL0     C17346  11.241   4.363   8.375 -0.8294  0.0680 -0.2671
  870MOL0     C17347  11.198   4.431   8.495 -0.7522 -0.2599  1.0014
  870MOL0     C17348  11.202   4.576   8.498 -0.5208  0.5461 -0.6568
  870MOL0     C17349  11.228   4.643   8.384  0.2976 -1.1927  0.4139
  870MOL0     O17350  11.223   4.779   8.364 -0.3231  0.5942  0.4017
  870MOL0     C17351  11.149   4.861   8.456  0.4497  0.4882  0.2268
  870MOL0     C17352  11.254   4.924   8.543 -1.5919  0.4881  0.0655
  870MOL0     C17353  11.199   5.013   8.652 -0.0377  0.4266  0.0112
  870MOL0     C17354  11.132   5.134   8.592 -0.3680  0.0186  0.4586
  870MOL0     C17355  11.129   5.255   8.680 -0.8204 -0.3432  0.9399
  870MOL0     C17356  11.027   5.268   8.783  0.0370 -0.2901 -0.4361
  870MOL0     C17357  10.911   5.319   8.702 -0.4475  0.2556 -0.4584
  870MOL0     C17358  10.785   5.332   8.781 -0.0335  0.4662  0.4591
  870MOL0    Cl17359  10.703   5.175   8.812 -0.0429  0.1932 -0.2192
  870MOL0     C17360  11.257   4.576   8.261 -0.3689 -0.3046 -0.3167
  870MOL0     C17361  11.264   4.436   8.257  0.6740 -0.1303  0.4113
  870MOL0     O17362  11.364   4.207   8.560 -0.6252  0.1597  0.9043
  870MOL0     C17363  11.256   3.947   8.346  0.6921  0.3786  0.3030
  870MOL0     C17364  11.259   3.802   8.319 -1.1552  0.6248 -0.3928
  870MOL0     N17365  11.730   3.401   8.392 -0.8841  0.5089 -0.2760
  870MOL0     N17366  11.784   3.457   8.289 -0.7590 -0.0572 -0.6374
  870MOL0     C17367  11.621   3.828   7.073 -0.4844  0.0102 -0.5271
  870MOL0     C17368  11.586   3.934   6.989  0.2045  0.8887  0.2950
  870MOL0     C17369  11.344   4.277   6.844 -0.5048 -0.4062  0.1864
  870MOL0     C17370  11.371   4.396   6.921 -0.3434  0.2814 -0.3011
  870MOL0     C17371  11.331   4.525   6.879  0.0548 -0.2455  0.0618
  870MOL0     C17372  11.271   4.538   6.761 -0.2627 -1.0058  0.5014
  870MOL0     O17373  11.226   4.662   6.734  0.1696 -0.0446 -0.3445
  870MOL0     C17374  11.181   4.706   6.603  0.0193  0.5292  0.3883
  870MOL0     C17375  11.300   4.733   6.506 -0.1304 -0.2917 -0.2999
  870MOL0     C17376  11.254   4.812   6.387 -0.5636  0.4857 -0.2479
  870MOL0     C17377  11.372   4.895   6.330  1.1641  0.3505 -0.3725
  870MOL0     C17378  11.330   4.980   6.223 -0.0753 -0.8709 -0.4310
  870MOL0     C17379  11.296   5.042   6.122 -0.0291 -0.9542  0.5400
  870MOL0     C17380  11.243   4.433   6.676  0.1562  0.8240 -0.8431
  870MOL0     C17381  11.284   4.297   6.715 -0.3670  0.1743 -0.8490
  870MOL0     C17382  11.256   4.187   6.625 -0.5351  0.2191  0.0220
  870MOL0     H17383  11.549   4.165   7.234 -0.5113  0.5045 -1.4988
  870MOL0     H17384  11.639   3.975   7.380  0.7650 -1.1673  0.6098
  870MOL0     H17385  11.887   3.864   7.361 -1.0362 -0.8155 -4.0147
  870MOL0     H17386  11.755   3.813   7.462  0.2806 -0.6774  0.6627
  870MOL0     H17387  11.983   3.671   7.461  0.1626 -2.2690 -1.0313
  870MOL0     H17388  11.887   3.590   7.337 -0.8053 -0.3009 -0.2637
  870MOL0     H17389  11.703   3.536   7.502 -1.1338 -1.8120  4.4063
  870MOL0     H17390  11.784   3.661   7.613  1.8270 -1.9896  0.6547
  870MOL0     H17391  11.893   3.387   7.533  2.2096 -0.5155  0.7144
  870MOL0     H17392  11.979   3.504   7.619  0.4589  0.3979 -1.2362
  870MOL0     H17393  11.747   3.334   7.711 -1.3346  0.5218  2.8747
  870MOL0     H17394  11.916   3.342   7.757  0.5376  0.3703  0.0273
  870MOL0     H17395  11.894   3.563   7.857  0.9623 -1.8128  0.2698
  870MOL0     H17396  11.725   3.570   7.805 -0.5997 -0.4186  0.7884
  870MOL0     H17397  11.872   3.371   7.993 -0.7425  0.2896 -1.3331
  870MOL0     H17398  11.710   3.348   7.922 -4.2850  3.6231 -1.3378
  870MOL0     H17399  11.779   3.601   8.077  0.7145 -0.4441  1.4633
  870MOL0     H17400  11.615   3.523   8.026  0.0184 -0.2737 -0.8469
  870MOL0     H17401  11.511   3.321   8.176 -0.0895  0.2754 -0.0330
  870MOL0     H17402  11.527   3.136   8.407  1.5484  1.1746 -0.9784
  870MOL0     H17403  11.590   3.218   8.550 -0.5390  0.1010  1.1268
  870MOL0     H17404  11.365   3.295   8.377  2.3276  1.0176 -0.1557
  870MOL0     H17405  11.333   3.215   8.530 -1.6141  2.2957  0.1979
  870MOL0     H17406  11.497   3.466   8.554 -0.7180  2.6136  0.7997
  870MOL0     H17407  11.365   3.391   8.654 -0.0089  2.2067  0.2795
  870MOL0     H17408  11.279   3.598   8.579 -1.5848 -0.6897 -0.0579
  870MOL0     H17409  11.194   3.480   8.486 -0.7805  0.0937  2.4787
  870MOL0     H17410  11.474   3.717   8.545 -0.9341  0.6288  0.1085
  870MOL0     H17411  11.485   3.966   8.581  1.2397  0.1312 -1.2184
  870MOL0     H17412  11.188   4.364   8.579 -1.1715  1.5715  2.4908
  870MOL0     H17413  11.190   4.610   8.600  1.0165 -0.0097 -0.2610
  870MOL0     H17414  11.088   4.938   8.407 -0.8670  0.8155  2.2383
  870MOL0     H17415  11.082   4.795   8.511  0.7869 -0.5338 -0.5585
  870MOL0     H17416  11.307   4.840   8.589 -2.4995  1.2516  2.7262
  870MOL0     H17417  11.321   4.980   8.477 -2.1098  0.3038 -0.6248
  870MOL0     H17418  11.136   4.958   8.723  0.4979 -1.5097 -0.9239
  870MOL0     H17419  11.286   5.052   8.706 -1.0292  2.2782  0.3663
  870MOL0     H17420  11.032   5.104   8.560 -0.9022  2.1939 -0.0987
  870MOL0     H17421  11.184   5.170   8.502 -0.0957 -1.6788 -0.0876
  870MOL0     H17422  11.136   5.350   8.625  2.5835 -0.5440  0.8165
  870MOL0     H17423  11.226   5.257   8.730 -0.1433  0.4639 -0.3353
  870MOL0     H17424  11.011   5.173   8.835  2.8577 -0.8531 -0.4840
  870MOL0     H17425  11.055   5.338   8.862  0.1655  1.1620 -1.7294
  870MOL0     H17426  10.885   5.260   8.613 -0.2398 -0.5524  0.0081
  870MOL0     H17427  10.927   5.415   8.651 -1.5527  0.4816 -0.3997
  870MOL0     H17428  10.801   5.379   8.878 -3.4637  2.4922  0.2155
  870MOL0     H17429  10.726   5.398   8.716  1.0512 -1.5902 -2.8541
  870MOL0     H17430  11.271   4.644   8.177  0.9597  1.6133  1.3538
  870MOL0     H17431  11.267   4.382   8.163 -0.5943 -0.0982  0.3338
  870MOL0     H17432  11.174   3.991   8.290 -0.0556  0.7995  1.6838
  870MOL0     H17433  11.196   3.743   8.253  0.3809 -0.8040 -0.6494
  870MOL0     H17434  11.632   3.734   7.021  0.9811  0.1429 -0.5042
  870MOL0     H17435  11.575   3.911   6.883  0.1838 -1.8980  0.8339
  870MOL0     H17436  11.434   4.397   7.009  2.1685  1.3706 -1.9793
  870MOL0     H17437  11.353   4.612   6.940 -1.9922  0.4718 -0.1655
  870MOL0     H17438  11.125   4.797   6.628 -0.0029  0.7837 -0.5466
  870MOL0     H17439  11.110   4.638   6.556  0.8223 -0.3160  0.3702
  870MOL0     H17440  11.348   4.640   6.473 -0.0118 -0.8748  1.4092
  870MOL0     H17441  11.375   4.786   6.565  2.1850 -1.9194 -1.5945
  870MOL0     H17442  11.174   4.882   6.412  0.5514  0.9252  2.3414
  870MOL0     H17443  11.211   4.749   6.309  1.6458 -3.3560  1.3240
  870MOL0     H17444  11.420   4.950   6.412 -0.2361 -2.5561  2.6184
  870MOL0     H17445  11.435   4.816   6.288  0.1172  0.2387 -1.7985
  870MOL0     H17446  11.274   5.097   6.033  2.8691 -0.6275 -0.0541
  870MOL0     H17447  11.195   4.441   6.579 -1.4572 -2.8615 -0.5145
  870MOL0     H17448  11.165   4.131   6.650  0.3478  0.4112  4.4465
  870MOL0     H17449  11.238   4.240   6.531 -1.9562  0.8042  0.5855
  870MOL0     H17450  11.345   4.125   6.610  0.1964  2.0837 -6.0202
  871MOL0     O17451  10.599   4.052   5.630 -0.6024  0.0610  0.2264
  871MOL0     C17452  10.512   4.003   5.560 -0.3603  0.2498 -0.3140
  871MOL0     O17453  10.399   3.936   5.603 -0.5615 -0.0168  0.2754
  871MOL0     C17454  10.378   3.901   5.739 -1.1564 -0.1508 -0.3412
  871MOL0     C17455  10.275   3.808   5.751  0.5023  0.1401 -0.6950
  871MOL0     C17456  10.230   3.776   5.883 -0.0225  0.5068  0.4195
  871MOL0     C17457  10.288   3.834   6.000 -0.1976  0.4986  0.0945
  871MOL0     O17458  10.272   3.806   6.127 -1.0409  0.6156  0.3071
  871MOL0     C17459  10.135   3.795   6.167 -0.0550  0.6246 -0.2226
  871MOL0     C17460  10.106   3.845   6.308 -0.9473 -0.4512  0.3050
  871MOL0     C17461  10.217   3.833   6.421  0.3240 -0.6114 -0.0732
  871MOL0     C17462  10.268   3.692   6.444  0.6940 -0.1915 -0.3447
  871MOL0     C17463  10.167   3.592   6.516  0.0270  0.1132  0.1519
  871MOL0     C17464  10.240   3.460   6.553 -0.8632 -0.3866 -0.6933
  871MOL0     C17465  10.137   3.359   6.620  0.4496  0.5191 -0.6140
  871MOL0     C17466  10.152   3.378   6.775  0.2951  0.1263  0.2259
  871MOL0     N17467  10.028   3.422   6.845  0.1200  0.5810  0.8400
  871MOL0     C17468   9.983   3.370   6.967  0.0965 -0.0879  0.2376
  871MOL0     C17469   9.869   3.438   6.994  0.1028 -0.3084  0.4042
  871MOL0     C17470   9.787   3.455   7.123 -0.0890 -0.4570 -0.9117
  871MOL0     C17471   9.779   3.326   7.214  0.0673  0.0293  1.0497
  871MOL0     C17472   9.676   3.234   7.153  0.1273  0.0458 -0.9583
  871MOL0     C17473   9.716   3.089   7.200  1.5645  0.2855  0.1128
  871MOL0     O17474   9.609   3.002   7.154  0.6363 -0.5669 -0.2023
  871MOL0     C17475   9.642   2.864   7.182  0.4179 -0.7250  0.2919
  871MOL0     C17476   9.768   2.807   7.225  0.1203 -0.7017 -0.0550
  871MOL0     C17477   9.772   2.674   7.280  0.3832  0.1678 -0.0146
  871MOL0     C17478   9.664   2.592   7.256 -0.2402  0.1642 -0.7659
  871MOL0     C17479   9.678   2.448   7.308  0.1283 -0.2532 -0.0504
  871MOL0     O17480   9.558   2.383   7.315 -0.0076 -0.1224 -0.2222
  871MOL0     C17481   9.541   2.244   7.302 -0.5699 -0.6275 -0.1741
  871MOL0     C17482   9.419   2.185   7.348 -0.1315 -0.3897  0.2262
  871MOL0     C17483   9.387   2.045   7.336 -0.4574 -0.9883 -0.3037
  871MOL0     C17484   9.471   1.959   7.262  0.0695 -0.6640 -0.0450
  871MOL0     O17485   9.422   1.833   7.234  0.3003  0.4456  0.6903
  871MOL0     C17486   9.492   1.725   7.160 -0.8774 -0.8725  0.1550
  871MOL0     C17487   9.399   1.617   7.113  1.1599  0.9139  0.4097
  871MOL0     C17488   9.277   1.670   7.015 -0.0828 -0.0656  0.0079
  871MOL0     C17489   9.157   1.732   7.088  0.0495  0.4370 -0.4141
  871MOL0     C17490   9.038   1.751   7.005  0.0934 -0.1719 -0.1357
  871MOL0     C17491   8.915   1.791   7.090  0.2680  0.0736  0.5771
  871MOL0     C17492   8.801   1.843   7.012  0.0433 -0.2294  0.5207
  871MOL0     C17493   8.695   1.917   7.093 -0.9966  0.6185 -0.0643
  871MOL0    Cl17494   8.564   1.984   7.004  0.1282  0.0248 -0.6424
  871MOL0     C17495   9.590   2.015   7.214 -0.5389 -0.5977  0.9036
  871MOL0     C17496   9.625   2.157   7.230 -0.1956  0.3022 -0.3615
  871MOL0     O17497   9.787   2.398   7.344 -0.3527 -0.2586  0.4612
  871MOL0     C17498   9.542   2.650   7.227  0.4125  0.3672 -0.0264
  871MOL0     C17499   9.530   2.783   7.186  0.1038  0.2448  0.1523
  871MOL0     N17500   9.840   3.510   6.877 -0.6014 -0.0610 -0.3080
  871MOL0     N17501   9.939   3.515   6.802  0.2468 -0.0789  0.8536
  871MOL0     C17502  10.385   3.934   5.981 -0.3508 -0.6277  0.5459
  871MOL0     C17503  10.422   3.976   5.854  0.1706  0.2550  0.4024
  871MOL0     C17504  10.530   4.021   5.412  0.1307 -1.0688 -1.0424
  871MOL0     C17505  10.458   3.938   5.328 -0.2579  0.0671  0.8934
  871MOL0     C17506  10.474   3.936   5.190  0.5603 -0.4868 -0.5802
  871MOL0     C17507  10.559   4.020   5.128 -0.3719 -0.2503 -0.4137
  871MOL0     O17508  10.563   4.016   4.994  0.2521  0.1071 -0.0768
  871MOL0     C17509  10.688   4.023   4.920  0.7799 -0.9529 -0.5228
  871MOL0     C17510  10.786   3.905   4.949  1.5869 -0.0606 -0.1309
  871MOL0     C17511  10.843   3.859   4.813  0.6520  0.4302  0.5105
  871MOL0     C17512  10.939   3.740   4.820 -0.0237 -0.0521  0.1204
  871MOL0     C17513  10.959   3.698   4.675 -0.5156  0.2269  0.0693
  871MOL0     C17514  10.980   3.662   4.559  0.0400  0.6212  0.5572
  871MOL0     C17515  10.628   4.112   5.218  0.9577 -0.0602  0.7861
  871MOL0     C17516  10.619   4.108   5.351 -0.7478  0.1775 -0.7853
  871MOL0     C17517  10.707   4.206   5.428  0.2120 -0.1258  0.1680
  871MOL0     H17518  10.236   3.755   5.665  1.3349 -1.7622  0.0532
  871MOL0     H17519  10.160   3.697   5.910 -0.4218  0.8299  0.3444
  871MOL0     H17520  10.077   3.848   6.091  0.8823  1.3995 -0.4260
  871MOL0     H17521  10.097   3.694   6.156  2.7318 -0.7619  1.6369
  871MOL0     H17522  10.022   3.790   6.350  0.1350 -2.9221 -0.6110
  871MOL0     H17523  10.094   3.953   6.293  1.3798 -0.1625  0.1231
  871MOL0     H17524  10.174   3.865   6.516 -3.4207  0.0862 -1.7823
  871MOL0     H17525  10.300   3.895   6.386  1.0597 -1.1146  0.7350
  871MOL0     H17526  10.307   3.651   6.350 -1.0735 -2.7458 -0.0649
  871MOL0     H17527  10.360   3.698   6.504 -0.3409 -0.2916  1.3004
  871MOL0     H17528  10.134   3.632   6.612 -1.1390 -1.6277  0.5156
  871MOL0     H17529  10.084   3.581   6.446  1.1687  0.8825 -1.3930
  871MOL0     H17530  10.281   3.411   6.464  1.5425 -1.7216  1.0271
  871MOL0     H17531  10.326   3.475   6.617 -0.2348  2.4624 -2.0584
  871MOL0     H17532  10.152   3.252   6.601  3.3105 -0.2049  4.0783
  871MOL0     H17533  10.035   3.385   6.588 -0.7733 -1.2381  1.5026
  871MOL0     H17534  10.201   3.287   6.809  2.6311  1.4904  0.7141
  871MOL0     H17535  10.226   3.457   6.791 -1.4201  1.4805  2.0329
  871MOL0     H17536  10.038   3.305   7.035 -0.5445 -1.1360 -0.2101
  871MOL0     H17537   9.837   3.528   7.187 -1.3677 -0.6543  0.3444
  871MOL0     H17538   9.686   3.489   7.097 -0.7332 -1.8722 -0.3483
  871MOL0     H17539   9.881   3.286   7.210  1.1988  2.7166  0.3723
  871MOL0     H17540   9.747   3.342   7.317 -1.2533  0.3569  0.6008
  871MOL0     H17541   9.690   3.241   7.045  1.7511  2.2670 -0.6676
  871MOL0     H17542   9.574   3.266   7.173 -0.0919  2.2942 -4.6782
  871MOL0     H17543   9.723   3.085   7.309 -1.7887  0.3010  0.4232
  871MOL0     H17544   9.814   3.058   7.162  1.1190  1.1590 -1.8668
  871MOL0     H17545   9.860   2.864   7.240 -0.5802  0.1667  1.1586
  871MOL0     H17546   9.851   2.618   7.329 -0.9864 -0.3051  1.7638
  871MOL0     H17547   9.351   2.241   7.411  0.5521 -0.5812  1.1462
  871MOL0     H17548   9.292   2.008   7.372 -1.8079 -2.1247 -4.4720
  871MOL0     H17549   9.540   1.781   7.079 -4.5468  4.9118  1.3489
  871MOL0     H17550   9.572   1.685   7.224  1.1043 -0.3838 -1.8757
  871MOL0     H17551   9.451   1.546   7.050 -0.8544  2.0755 -2.8109
  871MOL0     H17552   9.358   1.564   7.200  0.8934 -1.2030 -0.9420
  871MOL0     H17553   9.325   1.743   6.949 -0.8622 -0.7053 -1.3076
  871MOL0     H17554   9.252   1.594   6.940 -0.8924  1.5243 -1.3996
  871MOL0     H17555   9.186   1.827   7.135 -0.3986  1.1340 -1.5066
  871MOL0     H17556   9.131   1.665   7.171  1.9419 -3.4567 -2.7091
  871MOL0     H17557   9.017   1.658   6.952 -2.3638 -0.4212  1.1333
  871MOL0     H17558   9.071   1.821   6.928  3.9402 -1.9834 -0.3594
  871MOL0     H17559   8.890   1.709   7.158 -0.3923  2.1042  2.9203
  871MOL0     H17560   8.938   1.869   7.163 -2.2678 -0.3895  1.9830
  871MOL0     H17561   8.762   1.749   6.973  1.2152 -1.4090  2.0908
  871MOL0     H17562   8.827   1.903   6.924 -0.6964 -0.9650 -0.2166
  871MOL0     H17563   8.657   1.852   7.172  1.8829 -2.2350 -0.8072
  871MOL0     H17564   8.745   2.004   7.137  0.8747 -0.2363 -0.3883
  871MOL0     H17565   9.662   1.959   7.155 -0.7463  0.5663 -0.4987
  871MOL0     H17566   9.709   2.214   7.191 -0.5998  0.6988 -0.6505
  871MOL0     H17567   9.452   2.593   7.248 -0.4645  3.1090  5.4600
  871MOL0     H17568   9.432   2.828   7.174  1.1450  3.6645  2.8796
  871MOL0     H17569  10.430   3.983   6.066  1.0051 -0.6896 -0.1181
  871MOL0     H17570  10.483   4.065   5.842 -2.5514  2.3065  0.6147
  871MOL0     H17571  10.391   3.866   5.373 -0.9815  1.5885  2.3486
  871MOL0     H17572  10.412   3.863   5.139 -1.9552  2.2455 -1.7377
  871MOL0     H17573  10.729   4.117   4.960 -1.7044  0.2457 -0.5861
  871MOL0     H17574  10.665   4.040   4.814 -2.3467  0.5274  0.2701
  871MOL0     H17575  10.751   3.819   5.007  3.2276 -0.7481 -0.0960
  871MOL0     H17576  10.866   3.935   5.017 -0.2992 -1.6034  3.0234
  871MOL0     H17577  10.890   3.934   4.748  2.1538 -2.0512 -1.4857
  871MOL0     H17578  10.752   3.833   4.757  1.8861 -0.1721 -1.3341
  871MOL0     H17579  11.031   3.774   4.869  0.0496  0.3100 -0.2628
  871MOL0     H17580  10.898   3.665   4.888 -0.0822  0.0988  0.2513
  871MOL0     H17581  10.997   3.627   4.459 -4.8037  3.8371 -1.8005
  871MOL0     H17582  10.690   4.179   5.159  0.4427  1.1063  1.5213
  871MOL0     H17583  10.733   4.292   5.366 -0.8183  0.9209  1.1426
  871MOL0     H17584  10.659   4.253   5.515  0.6258  0.3183  0.1622
  871MOL0     H17585  10.796   4.151   5.462 -0.1612  0.1008  1.6104
  872MOL0     O17586   2.502   5.420   8.140 -1.2053  0.5396 -0.7704
  872MOL0     C17587   2.474   5.440   8.023 -0.1122  0.6131  0.6041
  872MOL0     O17588   2.496   5.355   7.918  0.4923 -0.0487  0.1597
  872MOL0     C17589   2.503   5.222   7.946 -0.2624  0.2025 -0.2780
  872MOL0     C17590   2.579   5.141   7.855 -0.0755  0.4242 -0.0417
  872MOL0     C17591   2.600   5.005   7.885 -0.2511 -0.6940  0.1644
  872MOL0     C17592   2.545   4.938   7.989  0.3072 -0.4098 -0.0682
  872MOL0     O17593   2.568   4.800   8.002 -0.2329 -0.5214  0.1226
  872MOL0     C17594   2.612   4.748   8.128 -0.3994 -0.0119 -0.1295
  872MOL0     C17595   2.628   4.599   8.121  0.4996  0.6050 -0.0133
  872MOL0     C17596   2.733   4.576   8.009 -0.9539 -0.2769 -0.1364
  872MOL0     C17597   2.876   4.634   8.018 -1.0678  0.1521 -0.3856
  872MOL0     C17598   2.970   4.584   7.897 -0.2076  0.1193 -0.1852
  872MOL0     C17599   3.104   4.638   7.913 -0.8449  0.0219  0.4601
  872MOL0     C17600   3.191   4.561   7.805  0.6219  0.3722 -0.1660
  872MOL0     C17601   3.337   4.598   7.809 -0.4420  0.1797  0.5432
  872MOL0     N17602   3.398   4.548   7.942  0.7652 -0.7998  0.2573
  872MOL0     C17603   3.398   4.622   8.062 -0.5170  1.1687 -0.3607
  872MOL0     C17604   3.454   4.531   8.143  0.0911  0.4071 -0.3858
  872MOL0     C17605   3.483   4.563   8.284 -0.2065 -0.7400  0.6075
  872MOL0     C17606   3.390   4.482   8.385  0.8350 -1.2134 -0.2871
  872MOL0     C17607   3.253   4.551   8.388  1.0094 -1.1013 -1.3438
  872MOL0     C17608   3.154   4.448   8.462  0.3381 -0.4741 -0.4164
  872MOL0     O17609   3.175   4.458   8.611 -0.5735 -0.1128  0.5923
  872MOL0     C17610   3.164   4.579   8.673 -0.0067 -0.1431  0.6022
  872MOL0     C17611   3.068   4.669   8.633  0.0532  0.1670  0.3282
  872MOL0     C17612   3.051   4.784   8.709 -0.7170 -0.1981 -0.4281
  872MOL0     C17613   3.125   4.815   8.822  0.4194 -0.3872  0.5050
  872MOL0     C17614   3.097   4.938   8.900 -0.4974 -0.6800 -0.9918
  872MOL0     O17615   3.184   4.944   9.018 -0.3927 -0.0338 -0.4857
  872MOL0     C17616   3.170   5.035   9.123 -0.6486  0.1770  0.1248
  872MOL0     C17617   3.282   5.111   9.165  0.3797  0.2775  0.2818
  872MOL0     C17618   3.272   5.181   9.286 -0.1160  0.2468 -0.5712
  872MOL0     C17619   3.152   5.178   9.359 -0.2470  0.1264  0.3815
  872MOL0     O17620   3.144   5.240   9.481  0.1153 -0.6214 -0.4165
  872MOL0     C17621   3.101   5.154   9.588 -0.6206 -0.1930  0.8244
  872MOL0     C17622   2.976   5.195   9.642  0.3805 -0.3749 -0.8683
  872MOL0     C17623   2.896   5.067   9.683  0.4615 -0.5391  0.1223
  872MOL0     C17624   2.767   5.089   9.758 -0.6673  0.2338 -0.2031
  872MOL0     C17625   2.694   4.954   9.775  0.0986  0.5292  0.6215
  872MOL0     C17626   2.558   4.967   9.841  1.0959  0.7519  0.1458
  872MOL0     C17627   2.503   4.830   9.868 -0.1267  0.3858 -0.5052
  872MOL0     C17628   2.356   4.836   9.858  0.3769 -0.1775 -0.0816
  872MOL0    Cl17629   2.296   4.802   9.686  0.2208  0.6862  0.2724
  872MOL0     C17630   3.035   5.123   9.305  0.5307  0.4280  0.4242
  872MOL0     C17631   3.043   5.056   9.187 -0.2963  1.1761  0.1870
  872MOL0     O17632   2.999   5.009   8.876  0.0484  0.4250  0.3507
  872MOL0     C17633   3.231   4.734   8.852 -0.0166 -0.7422  0.0868
  872MOL0     C17634   3.255   4.618   8.776  0.0918 -0.0798  1.1870
  872MOL0     N17635   3.489   4.417   8.075  0.1105  0.7280  0.5154
  872MOL0     N17636   3.454   4.425   7.957 -0.0459  0.4320  0.4057
  872MOL0     C17637   2.465   5.014   8.079 -0.3842 -0.6172 -0.5682
  872MOL0     C17638   2.437   5.154   8.056 -0.1061 -0.2061  0.4873
  872MOL0     C17639   2.421   5.573   7.996 -0.2749  0.3324  0.7740
  872MOL0     C17640   2.465   5.637   7.881  0.6392 -0.8067  1.2317
  872MOL0     C17641   2.412   5.770   7.848  0.1622  0.3951  1.0927
  872MOL0     C17642   2.324   5.838   7.927 -0.6540  0.1724 -0.0512
  872MOL0     O17643   2.288   5.960   7.873  0.4379 -0.6691  0.5980
  872MOL0     C17644   2.215   6.052   7.954  0.4031 -0.9741 -0.6346
  872MOL0     C17645   2.063   6.051   7.934  0.2196 -0.3514  0.2497
  872MOL0     C17646   1.986   6.159   8.008  0.0593 -0.0037 -1.0059
  872MOL0     C17647   1.954   6.124   8.157 -0.2859 -0.6168 -0.4890
  872MOL0     C17648   2.043   6.030   8.226  0.5411 -0.7563 -0.3512
  872MOL0     C17649   2.096   5.950   8.302 -0.2551 -0.4938 -0.0515
  872MOL0     C17650   2.275   5.763   8.037  0.3628  0.0007  0.2809
  872MOL0     C17651   2.329   5.637   8.074  0.6652 -0.4579  0.0680
  872MOL0     C17652   2.258   5.576   8.196 -1.0084  0.6250 -0.5563
  872MOL0     H17653   2.624   5.171   7.761  0.7722 -0.7754 -0.0377
  872MOL0     H17654   2.665   4.952   7.816 -1.7734 -0.3748 -1.5899
  872MOL0     H17655   2.712   4.791   8.141  0.8748 -2.1163 -2.1925
  872MOL0     H17656   2.539   4.767   8.207  0.3412  1.7896  0.1676
  872MOL0     H17657   2.537   4.543   8.096  0.5351 -0.5350  2.1381
  872MOL0     H17658   2.657   4.550   8.215  0.3930 -2.1248 -1.3103
  872MOL0     H17659   2.693   4.616   7.916  0.1365  6.3735  1.7230
  872MOL0     H17660   2.748   4.469   7.990  2.6706  0.0332  0.1301
  872MOL0     H17661   2.856   4.740   7.998 -4.0144 -0.7771 -3.3577
  872MOL0     H17662   2.918   4.603   8.114  0.2819 -1.3990 -1.4364
  872MOL0     H17663   2.971   4.475   7.906  0.7609  0.0148 -1.3405
  872MOL0     H17664   2.921   4.613   7.803 -4.4229  2.5886  2.4056
  872MOL0     H17665   3.106   4.746   7.893 -0.6015  0.2148  1.4788
  872MOL0     H17666   3.135   4.620   8.016  2.7183  1.7053 -0.1647
  872MOL0     H17667   3.151   4.578   7.704 -2.4214 -0.6022  0.7624
  872MOL0     H17668   3.183   4.455   7.831  0.6364  0.8567  2.0032
  872MOL0     H17669   3.388   4.561   7.720 -1.0498 -0.5382  0.4910
  872MOL0     H17670   3.351   4.707   7.811 -1.1197  0.3519 -1.8478
  872MOL0     H17671   3.358   4.722   8.077 -3.9900  0.3253 -2.6415
  872MOL0     H17672   3.584   4.522   8.295 -0.9544 -2.5808  0.9587
  872MOL0     H17673   3.491   4.669   8.309  0.0823 -0.6475  0.1373
  872MOL0     H17674   3.391   4.375   8.360  3.8475 -1.2200 -0.5054
  872MOL0     H17675   3.422   4.476   8.489 -0.4027 -1.7800  0.0866
  872MOL0     H17676   3.225   4.588   8.290  0.4522  1.1243 -0.3929
  872MOL0     H17677   3.244   4.642   8.447 -1.6965  0.1645 -3.5107
  872MOL0     H17678   3.173   4.345   8.428  1.8211 -0.8433  1.3636
  872MOL0     H17679   3.051   4.473   8.439  0.1031  0.3755  1.3887
  872MOL0     H17680   2.997   4.663   8.551 -2.2056 -0.1991  2.1642
  872MOL0     H17681   2.974   4.852   8.675 -0.6680  0.5846  0.9937
  872MOL0     H17682   3.365   5.104   9.096 -2.3710  1.3826 -3.4784
  872MOL0     H17683   3.350   5.241   9.331 -1.4452  0.1466  2.0340
  872MOL0     H17684   3.102   5.049   9.559 -2.6995  0.1486 -0.7031
  872MOL0     H17685   3.170   5.168   9.672 -0.3480  4.1815  0.1261
  872MOL0     H17686   2.984   5.262   9.728  0.1855 -1.3169 -0.1036
  872MOL0     H17687   2.925   5.255   9.565 -0.8094 -1.5063 -1.0051
  872MOL0     H17688   2.877   5.008   9.594  2.4736  0.9609 -1.4028
  872MOL0     H17689   2.960   5.003   9.745  4.5840  2.5612 -0.4582
  872MOL0     H17690   2.713   5.162   9.697 -1.6100  1.4902  2.0017
  872MOL0     H17691   2.789   5.148   9.848  2.2232 -0.4686 -0.3636
  872MOL0     H17692   2.765   4.897   9.836 -3.4833 -1.6218  3.1580
  872MOL0     H17693   2.690   4.895   9.683 -0.9172  1.7506 -0.1664
  872MOL0     H17694   2.571   5.031   9.929 -1.3694  1.7343 -0.1291
  872MOL0     H17695   2.484   5.013   9.775 -1.7364 -0.3526  2.3563
  872MOL0     H17696   2.533   4.797   9.968 -1.0965 -0.3989 -0.4593
  872MOL0     H17697   2.528   4.754   9.793 -0.0862  2.7947 -3.0858
  872MOL0     H17698   2.301   4.764   9.920 -0.6700  1.5360  1.0767
  872MOL0     H17699   2.308   4.932   9.880 -5.0582 -2.6578  0.4374
  872MOL0     H17700   2.938   5.135   9.352  0.5031 -0.8462  0.7136
  872MOL0     H17701   2.960   5.002   9.142 -0.0498  3.4187 -3.2971
  872MOL0     H17702   3.278   4.737   8.950  0.4687  3.9239 -0.1020
  872MOL0     H17703   3.322   4.542   8.815  0.2140 -0.2661  0.6334
  872MOL0     H17704   2.407   4.969   8.159 -1.1231 -2.3348 -1.9959
  872MOL0     H17705   2.351   5.191   8.112 -3.3729 -3.1710 -2.1651
  872MOL0     H17706   2.551   5.605   7.824  1.9118  1.3715  1.8174
  872MOL0     H17707   2.445   5.811   7.753 -0.9530 -0.0236  0.5058
  872MOL0     H17708   2.255   6.146   7.915 -0.0348 -2.1337 -4.1953
  872MOL0     H17709   2.228   6.046   8.063 -2.1888 -3.4337 -0.3630
  872MOL0     H17710   2.027   5.954   7.970 -1.5312  0.4107  0.6407
  872MOL0     H17711   2.045   6.071   7.828  1.1985 -0.6890  0.0107
  872MOL0     H17712   1.889   6.169   7.960 -2.3769 -2.3311  2.8610
  872MOL0     H17713   2.042   6.252   7.994  3.3034 -1.0060  3.1407
  872MOL0     H17714   1.957   6.218   8.213 -0.7155  1.3871 -3.5750
  872MOL0     H17715   1.851   6.090   8.173 -0.6305  1.1353  1.4442
  872MOL0     H17716   2.132   5.882   8.377  1.8169 -0.0564 -0.6132
  872MOL0     H17717   2.208   5.809   8.109 -0.1554 -1.3221  0.6664
  872MOL0     H17718   2.322   5.532   8.273  0.0984  1.4648 -0.9674
  872MOL0     H17719   2.207   5.657   8.250 -0.5131  0.3482  0.3381
  872MOL0     H17720   2.178   5.504   8.173 -3.2322  2.3074  1.3788
  873MOL0     O17721   2.094   7.729   3.637  0.5856  0.2423  0.2476
  873MOL0     C17722   2.140   7.831   3.691  0.1500  0.1354 -0.1420
  873MOL0     O17723   2.054   7.935   3.742  0.5394  0.1650 -0.3671
  873MOL0     C17724   1.915   7.902   3.718 -0.2182  0.1232  0.1460
  873MOL0     C17725   1.853   7.934   3.596  0.4925 -0.2340  0.3661
  873MOL0     C17726   1.718   7.898   3.580  0.8453  0.1929  0.1555
  873MOL0     C17727   1.651   7.823   3.677  0.2791 -0.1605  0.4263
  873MOL0     O17728   1.512   7.813   3.668  0.7612  0.1432  0.4297
  873MOL0     C17729   1.438   7.936   3.682 -0.0657 -0.1265  0.0336
  873MOL0     C17730   1.442   7.971   3.832 -0.3174 -0.3516  0.6783
  873MOL0     C17731   1.389   8.122   3.830  0.4229 -0.7311  1.4172
  873MOL0     C17732   1.356   8.176   3.974  0.0192  0.1770 -0.1037
  873MOL0     C17733   1.269   8.306   3.987 -0.0945 -0.1752 -0.0283
  873MOL0     C17734   1.344   8.423   3.926 -0.1712  0.8045 -0.1597
  873MOL0     C17735   1.268   8.563   3.930 -1.1152  1.3706 -1.1952
  873MOL0     C17736   1.333   8.669   3.827  0.1524  0.4926 -0.2982
  873MOL0     N17737   1.295   8.809   3.851  0.2813  0.1887  0.1738
  873MOL0     C17738   1.245   8.846   3.979  0.0159 -0.4087  0.5463
  873MOL0     C17739   1.264   8.983   3.987 -0.9230  0.1123 -0.0540
  873MOL0     C17740   1.230   9.088   4.083  0.7949  0.1940 -0.9850
  873MOL0     C17741   1.282   9.060   4.229  0.8384 -0.3308  0.3671
  873MOL0     C17742   1.429   9.048   4.229 -0.1670  0.0811 -0.7732
  873MOL0     C17743   1.493   9.031   4.372  0.0606  0.0618 -0.0295
  873MOL0     O17744   1.427   8.945   4.459 -0.4789 -0.6526  0.2711
  873MOL0     C17745   1.425   8.807   4.449  0.0707  0.3989 -0.5586
  873MOL0     C17746   1.359   8.736   4.547  0.1870 -0.3352  1.2193
  873MOL0     C17747   1.327   8.599   4.533 -0.5108  0.7029 -0.8991
  873MOL0     C17748   1.365   8.533   4.418  0.6555  0.9815  0.0462
  873MOL0     C17749   1.336   8.392   4.406  0.0694 -0.2473 -0.5952
  873MOL0     O17750   1.271   8.335   4.507 -0.0070  0.4145 -0.1595
  873MOL0     C17751   1.234   8.203   4.508 -0.7763  0.3096 -0.9157
  873MOL0     C17752   1.124   8.169   4.575 -0.5902 -0.2350  0.0999
  873MOL0     C17753   1.071   8.039   4.572  0.7752  0.7695 -0.3329
  873MOL0     C17754   1.139   7.935   4.502 -0.7993  0.3597 -0.5321
  873MOL0     O17755   1.079   7.809   4.521  0.3212 -0.1918  0.0259
  873MOL0     C17756   1.142   7.696   4.470  0.8189 -0.0674 -0.4096
  873MOL0     C17757   1.044   7.589   4.523  0.3663  0.2977  0.6097
  873MOL0     C17758   0.908   7.581   4.461  0.0856  0.1483  0.2989
  873MOL0     C17759   0.804   7.517   4.541  0.7325  0.6442 -0.4856
  873MOL0     C17760   0.673   7.498   4.472  0.3924  0.5463  1.0598
  873MOL0     C17761   0.597   7.632   4.441 -0.0328  0.8541 -0.8603
  873MOL0     C17762   0.450   7.633   4.403 -0.7970  0.5175 -0.3540
  873MOL0     C17763   0.351   7.600   4.514  0.0913 -0.2271  0.7844
  873MOL0    Cl17764   0.199   7.582   4.440  0.3983 -0.1010 -0.2183
  873MOL0     C17765   1.253   7.971   4.432 -0.4403  0.9665  0.0304
  873MOL0     C17766   1.297   8.097   4.430 -0.3452 -0.2327 -1.2257
  873MOL0     O17767   1.368   8.335   4.306 -0.2580  0.1236  0.0441
  873MOL0     C17768   1.422   8.600   4.311  0.7312 -0.2032  0.0792
  873MOL0     C17769   1.451   8.733   4.326  1.0721 -0.7370 -0.4321
  873MOL0     N17770   1.343   9.011   3.873  0.0693  1.0683 -0.2680
  873MOL0     N17771   1.355   8.911   3.792  0.2163  0.3166  0.2284
  873MOL0     C17772   1.719   7.801   3.798  0.7974  0.3292 -0.0146
  873MOL0     C17773   1.845   7.848   3.821  0.1744 -0.0925 -0.0007
  873MOL0     C17774   2.281   7.833   3.695 -0.7777 -0.1923 -0.3768
  873MOL0     C17775   2.348   7.717   3.732 -0.4646 -0.3517  0.1913
  873MOL0     C17776   2.486   7.715   3.720  0.0446 -0.8297 -0.1363
  873MOL0     C17777   2.556   7.827   3.683 -0.0007  0.4786 -0.3189
  873MOL0     O17778   2.689   7.824   3.669  0.9251  0.0556 -0.0752
  873MOL0     C17779   2.751   7.834   3.537 -0.1581  0.2517  0.0726
  873MOL0     C17780   2.688   7.746   3.427 -0.2246 -0.1602  0.5926
  873MOL0     C17781   2.590   7.826   3.350  0.2499  0.2259 -0.3262
  873MOL0     C17782   2.491   7.732   3.280 -0.2622 -0.5604  0.0574
  873MOL0     C17783   2.555   7.661   3.163 -0.5692  0.5989  1.4580
  873MOL0     C17784   2.617   7.607   3.077  0.3305 -0.1587  0.7062
  873MOL0     C17785   2.492   7.951   3.671  0.5723  0.1258 -0.7894
  873MOL0     C17786   2.355   7.956   3.679  0.9257 -0.0965  0.7865
  873MOL0     C17787   2.289   8.090   3.635 -0.7002  0.2757 -0.5767
  873MOL0     H17788   1.896   7.974   3.504 -0.0220  0.3683  0.3847
  873MOL0     H17789   1.674   7.928   3.486  1.2004  0.8689  0.2005
  873MOL0     H17790   1.477   8.014   3.616 -6.0617  1.8435 -1.8176
  873MOL0     H17791   1.334   7.917   3.655  0.1517 -1.3843  0.0421
  873MOL0     H17792   1.540   7.971   3.881 -0.4337 -2.8983  1.0243
  873MOL0     H17793   1.375   7.907   3.890 -2.0276  1.7790  1.2044
  873MOL0     H17794   1.300   8.138   3.768  1.8308  2.6421  0.0448
  873MOL0     H17795   1.470   8.189   3.801 -1.1667  0.2646 -1.0592
  873MOL0     H17796   1.306   8.089   4.019 -0.0048  0.2566  0.0242
  873MOL0     H17797   1.445   8.192   4.035 -0.1918 -2.1249  0.9451
  873MOL0     H17798   1.169   8.311   3.943 -0.0973  3.9532  0.0894
  873MOL0     H17799   1.251   8.328   4.092 -0.9558  0.3579 -0.2763
  873MOL0     H17800   1.432   8.436   3.990 -1.2560 -0.8206  1.7910
  873MOL0     H17801   1.373   8.409   3.822 -3.5145 -0.3186 -1.0472
  873MOL0     H17802   1.300   8.600   4.028  2.5120  0.6499 -1.9690
  873MOL0     H17803   1.161   8.542   3.916 -0.6985 -0.7587 -1.5861
  873MOL0     H17804   1.440   8.654   3.837  0.5382  1.1835 -2.6781
  873MOL0     H17805   1.292   8.654   3.726  1.7167  0.5301 -0.9618
  873MOL0     H17806   1.197   8.786   4.057  2.6673 -0.0441  2.6268
  873MOL0     H17807   1.262   9.189   4.056 -0.3708  0.6479 -0.7096
  873MOL0     H17808   1.121   9.097   4.081  0.6243  2.0812  3.8243
  873MOL0     H17809   1.262   9.149   4.289  3.9441 -1.6508  3.7109
  873MOL0     H17810   1.224   8.983   4.280 -0.9320  0.0302 -1.0035
  873MOL0     H17811   1.464   9.145   4.190 -3.2949  1.5405 -0.2045
  873MOL0     H17812   1.461   8.975   4.154 -1.0574  0.6543 -1.7407
  873MOL0     H17813   1.492   9.134   4.408  0.2936  0.9006 -2.2282
  873MOL0     H17814   1.596   8.997   4.365 -0.1148 -0.4536 -0.1178
  873MOL0     H17815   1.327   8.792   4.634  1.7968 -0.3651  1.8745
  873MOL0     H17816   1.269   8.551   4.610  1.1117 -0.8349 -0.5649
  873MOL0     H17817   1.086   8.246   4.642  1.4893 -0.7900  2.0316
  873MOL0     H17818   0.983   8.018   4.632  0.5582  3.7416  0.5064
  873MOL0     H17819   1.144   7.693   4.360  0.9247 -0.4482 -0.3960
  873MOL0     H17820   1.248   7.685   4.492  1.2963 -2.0761 -3.1803
  873MOL0     H17821   1.083   7.488   4.509 -0.2005  0.1918 -0.2446
  873MOL0     H17822   1.052   7.608   4.631 -0.0459  2.4632  0.3070
  873MOL0     H17823   0.880   7.682   4.430  0.3231 -0.3550 -1.6717
  873MOL0     H17824   0.920   7.516   4.374  0.6162 -1.0548  1.2438
  873MOL0     H17825   0.778   7.580   4.627 -0.5704 -3.6879  2.6393
  873MOL0     H17826   0.838   7.421   4.579  1.4472 -0.0168 -2.6501
  873MOL0     H17827   0.624   7.432   4.544 -1.2976  1.7157  1.0202
  873MOL0     H17828   0.686   7.446   4.376  3.2495  1.1148  1.0434
  873MOL0     H17829   0.615   7.706   4.519  1.7847  1.1778 -1.5383
  873MOL0     H17830   0.648   7.671   4.352 -0.3945  1.0083 -1.0041
  873MOL0     H17831   0.450   7.559   4.322  0.5760 -2.9027  2.5152
  873MOL0     H17832   0.435   7.731   4.357  0.5874  0.0918 -1.8274
  873MOL0     H17833   0.372   7.506   4.567 -1.8438 -0.4990  1.1503
  873MOL0     H17834   0.348   7.681   4.587  1.0011 -0.5344  1.1848
  873MOL0     H17835   1.313   7.888   4.396 -2.3472  0.2355 -1.6840
  873MOL0     H17836   1.395   8.120   4.390 -0.4723  1.2732 -0.7469
  873MOL0     H17837   1.429   8.548   4.216  0.1377 -0.7944  0.3507
  873MOL0     H17838   1.468   8.795   4.239  1.0908 -0.8438 -0.5055
  873MOL0     H17839   1.661   7.754   3.877  1.3906 -0.1209  0.1577
  873MOL0     H17840   1.887   7.840   3.921 -1.7113  1.7422  1.0097
  873MOL0     H17841   2.305   7.620   3.751  1.3614 -1.0437  0.9772
  873MOL0     H17842   2.542   7.624   3.738  2.8195  1.3806  3.9397
  873MOL0     H17843   2.853   7.799   3.553 -0.5537 -0.4619  1.1321
  873MOL0     H17844   2.764   7.936   3.499 -0.4683  0.3308  0.1770
  873MOL0     H17845   2.644   7.654   3.465 -1.4399  0.4227  0.6573
  873MOL0     H17846   2.769   7.709   3.364 -2.0296 -2.5129 -0.5170
  873MOL0     H17847   2.640   7.891   3.277 -1.7969  2.2381 -0.0138
  873MOL0     H17848   2.529   7.889   3.415  1.4133  0.6898  0.3545
  873MOL0     H17849   2.450   7.662   3.352 -2.8975  1.4715  0.6938
  873MOL0     H17850   2.402   7.783   3.242 -1.7160 -0.4483  3.3043
  873MOL0     H17851   2.672   7.549   3.005 -0.5025  2.1629 -1.9980
  873MOL0     H17852   2.557   8.034   3.646 -1.2770  1.4493 -1.3988
  873MOL0     H17853   2.355   8.147   3.568 -3.1073  4.0047 -0.0169
  873MOL0     H17854   2.194   8.073   3.584 -1.1868  0.5896  0.2252
  873MOL0     H17855   2.291   8.146   3.728  2.0401 -0.9117  0.2051
  874MOL0     O17856   8.473  11.422   3.144 -0.3119  0.0522  0.2795
  874MOL0     C17857   8.528  11.452   3.039  0.3983 -0.2448 -0.1444
  874MOL0     O17858   8.489  11.546   2.947 -0.7948 -0.6621  0.2443
  874MOL0     C17859   8.394  11.633   2.995 -0.4073  0.4447  0.6013
  874MOL0     C17860   8.270  11.594   3.031  0.8618 -0.5929  0.0602
  874MOL0     C17861   8.183  11.685   3.091  0.3781  0.0113 -0.3345
  874MOL0     C17862   8.210  11.823   3.094 -0.0275  0.1950  0.5907
  874MOL0     O17863   8.111  11.913   3.134 -0.7240  0.2032  0.0278
  874MOL0     C17864   8.140  12.039   3.188 -0.7039  0.3985  0.1635
  874MOL0     C17865   8.178  12.031   3.330  0.6132  0.4717  0.3614
  874MOL0     C17866   8.302  12.106   3.366 -0.9651 -0.1481 -0.2481
  874MOL0     C17867   8.392  12.045   3.472 -0.0822 -0.0100  0.4867
  874MOL0     C17868   8.507  12.146   3.493 -0.5749  0.4824 -0.8013
  874MOL0     C17869   8.621  12.095   3.580  0.4433 -0.0081 -0.2165
  874MOL0     C17870   8.553  12.073   3.728  0.0414 -0.1704  0.1605
  874MOL0     C17871   8.646  12.054   3.845 -0.5741  0.2303 -0.3984
  874MOL0     N17872   8.727  12.169   3.874 -0.0998 -0.4096 -0.5424
  874MOL0     C17873   8.669  12.287   3.900 -0.1194 -1.8133 -0.5896
  874MOL0     C17874   8.780  12.370   3.913 -0.3544  0.0683 -0.6768
  874MOL0     C17875   8.778  12.525   3.905 -0.0325  0.0119 -0.2010
  874MOL0     C17876   8.816  12.569   3.763  0.0040 -0.0273 -0.7008
  874MOL0     C17877   8.728  12.547   3.636  1.2248 -0.3362 -0.4710
  874MOL0     C17878   8.581  12.598   3.633  0.3782  0.2121  0.3085
  874MOL0     O17879   8.481  12.504   3.671  0.6396  1.2947 -0.4978
  874MOL0     C17880   8.353  12.556   3.698 -0.5081  0.4969 -0.1698
  874MOL0     C17881   8.326  12.596   3.830  0.8810  0.2928  0.1519
  874MOL0     C17882   8.208  12.661   3.848 -0.1020  0.0566 -0.3582
  874MOL0     C17883   8.123  12.690   3.745  0.8743 -0.7162  0.2789
  874MOL0     C17884   8.004  12.768   3.773  0.9173 -0.9150  0.3701
  874MOL0     O17885   7.925  12.788   3.664 -0.0792 -0.4706  0.1266
  874MOL0     C17886   7.808  12.855   3.687 -0.0076 -0.3886 -0.5218
  874MOL0     C17887   7.802  12.986   3.647  0.1984  1.2941  0.2819
  874MOL0     C17888   7.689  13.061   3.689 -0.7818 -0.6320 -0.0816
  874MOL0     C17889   7.588  13.001   3.764  0.4555  0.7278  0.1460
  874MOL0     O17890   7.463  13.062   3.809 -0.7121 -0.3513  0.4627
  874MOL0     C17891   7.438  13.200   3.776 -0.2559  0.6685 -0.3092
  874MOL0     C17892   7.348  13.268   3.875 -0.2793 -0.1911  0.4755
  874MOL0     C17893   7.300  13.402   3.838 -0.1268  0.2525  0.2112
  874MOL0     C17894   7.181  13.453   3.919  0.3170 -0.1810  0.1444
  874MOL0     C17895   7.173  13.601   3.904  0.1523  0.1094  0.7098
  874MOL0     C17896   7.158  13.664   3.760  0.4611 -0.9169 -0.4041
  874MOL0     C17897   7.163  13.814   3.774 -0.7559  0.1056 -0.5793
  874MOL0     C17898   7.138  13.883   3.647  0.3511  0.6345 -0.0161
  874MOL0    Cl17899   7.119  14.063   3.676  0.1478 -0.2778 -0.3157
  874MOL0     C17900   7.590  12.863   3.786 -0.3651  0.3132 -1.1742
  874MOL0     C17901   7.706  12.792   3.763  0.6049 -1.2842  0.2293
  874MOL0     O17902   7.997  12.839   3.874 -0.3108 -0.3048 -0.1247
  874MOL0     C17903   8.145  12.643   3.616 -0.9570 -0.4036  0.6361
  874MOL0     C17904   8.268  12.578   3.594 -0.1601 -0.5160 -1.3673
  874MOL0     N17905   8.895  12.295   3.919 -0.2815 -0.2169 -0.7286
  874MOL0     N17906   8.859  12.172   3.894 -0.1573 -0.4672  0.1387
  874MOL0     C17907   8.333  11.862   3.042  0.1295 -0.4353  0.9270
  874MOL0     C17908   8.424  11.771   2.994 -0.5627 -1.4141  0.3118
  874MOL0     C17909   8.669  11.413   3.032 -0.1173  0.6495  0.3949
  874MOL0     C17910   8.770  11.498   2.983  0.0171  0.0464  0.6640
  874MOL0     C17911   8.904  11.471   2.958  1.3351 -0.1838  0.7024
  874MOL0     C17912   8.952  11.342   2.988  1.1861 -0.1026  0.2983
  874MOL0     O17913   9.085  11.320   2.959 -0.5815  0.3269 -0.9631
  874MOL0     C17914   9.137  11.187   2.952 -0.1551 -0.2664 -0.0423
  874MOL0     C17915   9.140  11.126   2.812 -0.3851 -0.3635  0.0210
  874MOL0     C17916   9.182  11.233   2.710 -0.1283  0.2336 -0.0515
  874MOL0     C17917   9.335  11.242   2.665 -0.0201  0.1409  0.3339
  874MOL0     C17918   9.416  11.285   2.773  0.1676 -0.5491  0.4126
  874MOL0     C17919   9.484  11.326   2.871  0.4545  0.3306  0.0658
  874MOL0     C17920   8.857  11.244   3.028  0.0158  0.8526  0.0243
  874MOL0     C17921   8.711  11.278   3.048 -1.4169 -0.0897 -0.1052
  874MOL0     C17922   8.616  11.178   3.109 -0.9029 -0.5926 -1.0472
  874MOL0     H17923   8.240  11.490   3.026 -2.2579  0.2279 -0.3411
  874MOL0     H17924   8.090  11.665   3.143 -0.2339  0.5148 -1.1943
  874MOL0     H17925   8.202  12.108   3.130 -0.9208 -0.8987 -1.7075
  874MOL0     H17926   8.038  12.079   3.191 -1.3882 -1.2682 -0.1520
  874MOL0     H17927   8.181  11.929   3.371  0.3946  0.8440  1.3184
  874MOL0     H17928   8.110  12.083   3.397  2.5702  0.2697  2.6659
  874MOL0     H17929   8.269  12.200   3.410  0.5178 -0.2056  1.0507
  874MOL0     H17930   8.367  12.119   3.279 -2.7438  0.3634 -1.5687
  874MOL0     H17931   8.334  12.034   3.565 -0.2280  1.4355  0.5893
  874MOL0     H17932   8.431  11.945   3.452 -1.2198 -1.7626  5.4665
  874MOL0     H17933   8.553  12.185   3.402  1.4889 -0.7526 -0.3533
  874MOL0     H17934   8.463  12.242   3.523 -1.0660 -0.0911  0.3797
  874MOL0     H17935   8.664  11.998   3.550 -0.4289 -0.8471  1.1338
  874MOL0     H17936   8.701  12.169   3.583  1.2993 -0.9048 -0.2544
  874MOL0     H17937   8.491  11.985   3.710 -0.9680  0.9225 -2.1747
  874MOL0     H17938   8.498  12.166   3.742 -0.8938 -0.7332  0.2937
  874MOL0     H17939   8.603  12.031   3.943  2.4045 -2.0214  0.5360
  874MOL0     H17940   8.707  11.965   3.831  0.3143  1.1290 -2.6868
  874MOL0     H17941   8.569  12.330   3.899  0.1130 -1.2796 -1.6665
  874MOL0     H17942   8.680  12.562   3.938  0.2062  1.0405 -0.6173
  874MOL0     H17943   8.848  12.566   3.979 -2.4584 -2.8491  4.1472
  874MOL0     H17944   8.829  12.677   3.773  0.4060  0.5633 -5.2913
  874MOL0     H17945   8.916  12.526   3.745  0.7378  1.3238  0.0119
  874MOL0     H17946   8.709  12.440   3.621 -0.8261 -0.0617 -0.0933
  874MOL0     H17947   8.796  12.581   3.557  2.7438 -1.2683  0.3736
  874MOL0     H17948   8.567  12.642   3.534  1.9759  0.7344  0.2745
  874MOL0     H17949   8.571  12.678   3.707 -1.1204 -0.1205  0.4985
  874MOL0     H17950   8.400  12.571   3.905 -1.0517 -0.7403  1.8025
  874MOL0     H17951   8.185  12.676   3.953  0.2044 -3.4961  0.3653
  874MOL0     H17952   7.886  13.009   3.582 -1.9348  2.3140 -2.2820
  874MOL0     H17953   7.693  13.165   3.657 -0.2603 -0.6447 -0.0696
  874MOL0     H17954   7.535  13.249   3.784  0.7477 -0.6781 -3.0596
  874MOL0     H17955   7.408  13.210   3.671  0.1440 -3.3501 -0.9519
  874MOL0     H17956   7.258  13.206   3.884 -0.8181  0.7444  1.7541
  874MOL0     H17957   7.410  13.283   3.963  2.6212 -3.1928 -0.8364
  874MOL0     H17958   7.384  13.471   3.853 -1.3174  2.5802 -2.7138
  874MOL0     H17959   7.284  13.408   3.730  0.6524 -1.1047  0.0026
  874MOL0     H17960   7.181  13.426   4.025  0.8114 -1.0815 -0.0655
  874MOL0     H17961   7.093  13.409   3.871  1.1603 -1.3331 -0.4152
  874MOL0     H17962   7.260  13.651   3.947  0.3701  2.9339 -2.5564
  874MOL0     H17963   7.083  13.640   3.951 -1.0670  0.3097 -1.6390
  874MOL0     H17964   7.241  13.628   3.698  0.8086 -2.7418  1.0213
  874MOL0     H17965   7.061  13.628   3.725 -1.7181  3.1078  0.9126
  874MOL0     H17966   7.267  13.837   3.800 -0.4800  1.2368 -2.4688
  874MOL0     H17967   7.092  13.856   3.846  2.0711  3.3487  0.6419
  874MOL0     H17968   7.215  13.863   3.573  1.2176  2.7537  0.2430
  874MOL0     H17969   7.044  13.855   3.599  0.7327  1.3902 -1.2506
  874MOL0     H17970   7.510  12.810   3.837  2.9398 -3.1524  0.8954
  874MOL0     H17971   7.720  12.689   3.794 -0.6756 -1.4196  0.4398
  874MOL0     H17972   8.082  12.677   3.535  1.4587  2.6506 -0.1497
  874MOL0     H17973   8.294  12.533   3.499 -2.5966 -0.4168 -2.1438
  874MOL0     H17974   8.359  11.967   3.029  0.2412 -0.6318 -0.6210
  874MOL0     H17975   8.518  11.809   2.956 -0.7116 -0.7039  0.6397
  874MOL0     H17976   8.735  11.599   2.965  2.2984  0.8602  0.4194
  874MOL0     H17977   8.972  11.548   2.923  2.0981 -1.6572 -1.2645
  874MOL0     H17978   9.091  11.117   3.023 -2.7354 -1.7091 -2.8865
  874MOL0     H17979   9.240  11.204   2.984 -0.1131 -0.3043 -0.1601
  874MOL0     H17980   9.037  11.094   2.793 -0.6438 -0.0771  0.8992
  874MOL0     H17981   9.210  11.042   2.812  3.1604  2.3823  0.0487
  874MOL0     H17982   9.124  11.323   2.732  1.1604  1.1157 -0.1528
  874MOL0     H17983   9.138  11.186   2.621 -2.9003 -1.3125  2.0029
  874MOL0     H17984   9.385  11.161   2.611  1.4083  1.9530 -1.2324
  874MOL0     H17985   9.329  11.323   2.592 -0.3082 -2.4642 -2.7550
  874MOL0     H17986   9.534  11.354   2.962  0.5827 -0.2993  0.1979
  874MOL0     H17987   8.894  11.147   3.058  1.0034  0.9754 -0.7569
  874MOL0     H17988   8.576  11.197   3.209 -1.5664 -3.7762 -0.5922
  874MOL0     H17989   8.532  11.160   3.042 -1.0858 -1.2603 -0.6504
  874MOL0     H17990   8.673  11.084   3.107 -1.4584 -0.9487 -4.2361
  875MOL0     O17991   1.662  11.502   2.267  0.5857  0.3777  0.3877
  875MOL0     C17992   1.737  11.467   2.363  0.4628  0.5036  0.1494
  875MOL0     O17993   1.814  11.352   2.365 -0.5134  0.2966 -0.6907
  875MOL0     C17994   1.819  11.268   2.248 -0.7716  0.0224 -0.8741
  875MOL0     C17995   1.727  11.258   2.142 -0.3177 -0.2359  0.1635
  875MOL0     C17996   1.760  11.167   2.037 -0.0846  0.0911  0.3906
  875MOL0     C17997   1.881  11.095   2.034 -0.2961 -0.1696  0.4424
  875MOL0     O17998   1.900  11.021   1.920 -0.0997  0.9744  0.2411
  875MOL0     C17999   1.972  10.904   1.939 -0.2504  0.4317  0.2910
  875MOL0     C18000   1.988  10.817   1.814 -0.2388 -0.4774  0.0007
  875MOL0     C18001   1.888  10.823   1.699 -0.2293  0.0560  0.5195
  875MOL0     C18002   1.755  10.746   1.727  0.1876  0.9143  0.0271
  875MOL0     C18003   1.761  10.606   1.787 -1.0434 -0.5418 -0.3667
  875MOL0     C18004   1.858  10.507   1.709  0.0533 -0.0020  1.2881
  875MOL0     C18005   1.836  10.354   1.735  0.8422 -0.2087  0.2964
  875MOL0     C18006   1.848  10.330   1.893  0.2973  0.4169  0.4004
  875MOL0     N18007   1.881  10.198   1.939 -0.0361  0.8427 -0.4393
  875MOL0     C18008   1.975  10.128   1.870  0.1784  0.0714 -0.8228
  875MOL0     C18009   2.010  10.031   1.946 -0.3282  0.3797  0.4482
  875MOL0     C18010   2.121   9.930   1.908 -0.3321  0.1271  0.1866
  875MOL0     C18011   2.164   9.837   2.032 -0.1724  0.5389 -0.0627
  875MOL0     C18012   2.226   9.700   1.988  0.1643 -0.6947  0.4074
  875MOL0     C18013   2.219   9.602   2.107  0.5824  0.6239  0.2978
  875MOL0     O18014   2.336   9.633   2.196 -0.4279 -0.5421 -0.4010
  875MOL0     C18015   2.399   9.523   2.255  0.0099 -1.0625  0.7458
  875MOL0     C18016   2.361   9.392   2.259  0.3302  0.6655  0.3685
  875MOL0     C18017   2.447   9.303   2.317 -0.2532 -0.3371 -0.6021
  875MOL0     C18018   2.547   9.340   2.401  0.8595  0.7423 -0.6402
  875MOL0     C18019   2.636   9.238   2.460 -0.4232  0.1895 -0.0630
  875MOL0     O18020   2.729   9.283   2.552  0.2293 -0.4363  0.3206
  875MOL0     C18021   2.825   9.204   2.603 -1.7626  0.6810 -0.2991
  875MOL0     C18022   2.918   9.123   2.531  0.5611 -1.0159  0.4126
  875MOL0     C18023   3.007   9.033   2.592 -0.0960  0.1999 -0.3132
  875MOL0     C18024   3.007   9.008   2.728  0.1266 -0.5463  0.3188
  875MOL0     O18025   3.085   8.917   2.797 -0.0197 -0.0663 -0.9726
  875MOL0     C18026   3.070   8.782   2.762  0.1086  1.1923 -0.2657
  875MOL0     C18027   3.083   8.687   2.886 -0.0406  0.8867  0.4732
  875MOL0     C18028   3.167   8.561   2.851 -0.0837  0.7537 -0.0582
  875MOL0     C18029   3.149   8.476   2.976 -0.3179 -0.1716  0.1064
  875MOL0     C18030   3.198   8.330   2.967 -0.2959 -0.4090 -0.1412
  875MOL0     C18031   3.181   8.249   3.094 -0.0176 -1.0758 -0.9326
  875MOL0     C18032   3.260   8.123   3.098  0.2617  0.0852  0.2995
  875MOL0     C18033   3.208   8.024   2.994  0.3537 -0.2841 -0.3953
  875MOL0    Cl18034   3.039   7.977   3.027  0.0526 -0.0370 -0.1995
  875MOL0     C18035   2.924   9.093   2.805 -0.9272  1.0068 -0.5188
  875MOL0     C18036   2.837   9.180   2.748 -0.1094 -0.4870 -0.0323
  875MOL0     O18037   2.618   9.118   2.432 -0.2192  0.2494  0.2267
  875MOL0     C18038   2.569   9.479   2.417  0.2568 -0.4651  0.1582
  875MOL0     C18039   2.502   9.573   2.335 -0.4801 -0.8812 -0.0128
  875MOL0     N18040   1.924  10.032   2.055  0.2552  0.0757 -0.7202
  875MOL0     N18041   1.846  10.136   2.053  0.1663  0.6940  0.5365
  875MOL0     C18042   1.975  11.108   2.138 -0.7713  0.4054  0.6249
  875MOL0     C18043   1.942  11.198   2.243  0.2849  0.2937  0.0260
  875MOL0     C18044   1.766  11.557   2.470  0.5053  0.1080 -0.1537
  875MOL0     C18045   1.799  11.505   2.593 -0.6047 -0.1904  0.3570
  875MOL0     C18046   1.839  11.588   2.701  0.6079  0.7819  0.2658
  875MOL0     C18047   1.821  11.726   2.690  0.1323 -0.3418 -0.9833
  875MOL0     O18048   1.843  11.792   2.806  0.0909  1.2667  0.5862
  875MOL0     C18049   1.847  11.935   2.816  0.3222 -0.9855  0.7903
  875MOL0     C18050   1.847  11.967   2.963  0.8653 -0.2039 -0.5807
  875MOL0     C18051   1.917  12.101   3.002 -0.0941 -0.5795  0.2886
  875MOL0     C18052   1.882  12.149   3.145 -1.0417  0.8616 -0.3736
  875MOL0     C18053   1.745  12.167   3.174  0.6381 -0.4701  0.7612
  875MOL0     C18054   1.628  12.192   3.191 -0.4265  0.1557 -1.7419
  875MOL0     C18055   1.791  11.785   2.569 -0.2164 -0.1102 -0.9844
  875MOL0     C18056   1.759  11.701   2.462 -0.0334 -0.1875 -0.1894
  875MOL0     C18057   1.720  11.774   2.335  0.1440 -0.4691 -0.5729
  875MOL0     H18058   1.641  11.323   2.131 -0.0529  0.0274 -0.3872
  875MOL0     H18059   1.717  11.182   1.938  0.2477 -0.0517  0.2227
  875MOL0     H18060   2.076  10.927   1.962  0.6012 -2.0871 -0.7202
  875MOL0     H18061   1.926  10.840   2.014  1.5179 -1.9736 -0.5556
  875MOL0     H18062   1.993  10.711   1.842 -0.9468 -0.6685 -0.5630
  875MOL0     H18063   2.086  10.838   1.771 -0.5027 -1.1903 -0.9851
  875MOL0     H18064   1.944  10.777   1.616  1.8762  0.0746  1.8619
  875MOL0     H18065   1.864  10.922   1.661 -0.9439 -0.2646  0.1151
  875MOL0     H18066   1.684  10.806   1.783 -1.4394 -0.9609  0.0738
  875MOL0     H18067   1.697  10.731   1.635 -1.0520 -0.3221  0.9713
  875MOL0     H18068   1.791  10.612   1.892 -3.0700  0.6927  0.2153
  875MOL0     H18069   1.658  10.569   1.794 -0.8363 -1.1884 -0.6992
  875MOL0     H18070   1.848  10.525   1.602 -1.5533  3.7031  1.9285
  875MOL0     H18071   1.965  10.523   1.726  0.3513  1.5204 -1.4751
  875MOL0     H18072   1.908  10.294   1.679  3.1899  0.1176  2.7832
  875MOL0     H18073   1.738  10.319   1.702  1.6972 -1.9847 -0.4727
  875MOL0     H18074   1.923  10.400   1.931  0.1816 -0.4380  2.3313
  875MOL0     H18075   1.755  10.361   1.941  0.8473 -1.7719  3.2254
  875MOL0     H18076   2.017  10.160   1.775  1.6488 -3.7836 -1.6522
  875MOL0     H18077   2.073   9.865   1.834  0.0537 -2.8704  2.4436
  875MOL0     H18078   2.200   9.992   1.863 -1.4381  1.2372 -0.3191
  875MOL0     H18079   2.226   9.892   2.103 -0.0596 -1.0544  1.1203
  875MOL0     H18080   2.072   9.812   2.086 -1.3958  0.6798 -1.9903
  875MOL0     H18081   2.331   9.712   1.957  0.2299 -0.6528  0.6498
  875MOL0     H18082   2.171   9.656   1.904  0.8073  1.0321 -1.0052
  875MOL0     H18083   2.218   9.506   2.054  1.9756  3.1867 -5.1305
  875MOL0     H18084   2.123   9.605   2.160  0.1620 -3.6184  0.1326
  875MOL0     H18085   2.268   9.352   2.220  0.7690 -1.3474  1.2158
  875MOL0     H18086   2.425   9.198   2.306  0.6841 -0.6048 -0.1016
  875MOL0     H18087   2.941   9.135   2.425  0.6284 -3.1801  0.1432
  875MOL0     H18088   3.087   8.983   2.537  2.1409  0.8003  2.1845
  875MOL0     H18089   2.970   8.764   2.721 -0.3488 -2.7165  2.0569
  875MOL0     H18090   3.151   8.766   2.691  0.2679  1.0057 -0.0439
  875MOL0     H18091   3.131   8.741   2.969 -0.0530  3.6176 -1.1865
  875MOL0     H18092   2.992   8.647   2.931  0.8686  0.8612  2.4204
  875MOL0     H18093   3.124   8.515   2.762 -2.8455  3.8976 -0.5165
  875MOL0     H18094   3.271   8.584   2.828 -0.9932  3.2967 -2.1078
  875MOL0     H18095   3.043   8.465   2.999 -0.0733  1.6118  2.4445
  875MOL0     H18096   3.199   8.537   3.052 -2.5243  1.5007  0.3079
  875MOL0     H18097   3.299   8.334   2.925 -1.7087 -0.3965 -3.9161
  875MOL0     H18098   3.153   8.275   2.884 -0.6621 -2.3138  1.2437
  875MOL0     H18099   3.218   8.303   3.181  0.7934  0.2089 -2.0273
  875MOL0     H18100   3.076   8.234   3.120  0.5546  0.3193  2.7820
  875MOL0     H18101   3.233   8.081   3.195 -1.7157 -0.9240 -0.6176
  875MOL0     H18102   3.367   8.141   3.087  0.2428  0.1314  0.1881
  875MOL0     H18103   3.224   8.067   2.894  0.8972  1.1608  0.2928
  875MOL0     H18104   3.271   7.934   2.992 -0.6701 -1.0412 -2.7054
  875MOL0     H18105   2.919   9.076   2.912  1.6971  0.5719 -0.4011
  875MOL0     H18106   2.765   9.221   2.818 -1.1440 -0.3102 -1.1781
  875MOL0     H18107   2.654   9.509   2.478  1.1875  0.2903 -1.4603
  875MOL0     H18108   2.526   9.678   2.347  1.4402 -1.2159 -0.6240
  875MOL0     H18109   2.070  11.056   2.134  0.1607  1.9055  1.9338
  875MOL0     H18110   2.016  11.210   2.322 -0.0269 -1.1805  0.5754
  875MOL0     H18111   1.793  11.399   2.615 -2.6993 -0.2807 -0.3944
  875MOL0     H18112   1.860  11.534   2.793  1.1660 -0.5692 -0.6169
  875MOL0     H18113   1.756  11.971   2.767 -0.1051 -2.4253  0.4626
  875MOL0     H18114   1.930  11.960   2.750 -2.2380  0.5464 -2.1264
  875MOL0     H18115   1.896  11.888   3.020 -0.8801 -0.2157  0.9934
  875MOL0     H18116   1.740  11.959   2.985 -0.5284  4.1015 -4.2495
  875MOL0     H18117   1.873  12.170   2.930 -0.1791 -0.5118  0.4046
  875MOL0     H18118   2.023  12.090   2.980 -0.3152 -0.7267 -0.7337
  875MOL0     H18119   1.937  12.078   3.209  0.1684 -1.6926 -3.9194
  875MOL0     H18120   1.942  12.239   3.161  0.8795 -0.9502  5.4233
  875MOL0     H18121   1.523  12.214   3.195 -0.8405 -1.8082 -0.5405
  875MOL0     H18122   1.785  11.893   2.566 -2.6009  0.0026  2.1546
  875MOL0     H18123   1.716  11.883   2.349  2.8427 -0.4116  0.4192
  875MOL0     H18124   1.784  11.764   2.247  1.0493 -0.9209  0.1188
  875MOL0     H18125   1.623  11.730   2.314  0.2633 -2.7769  2.8647
  876MOL0     O18126   1.560   8.116  10.862 -0.0025  0.3039  0.0782
  876MOL0     C18127   1.561   8.234  10.862  0.2885 -0.1935 -0.6658
  876MOL0     O18128   1.460   8.324  10.887 -0.4508  0.5713 -0.6085
  876MOL0     C18129   1.343   8.294  10.954 -0.2122 -0.1672 -0.3600
  876MOL0     C18130   1.278   8.391  11.035 -0.4589  0.9544  0.1283
  876MOL0     C18131   1.163   8.374  11.111 -0.9556  0.2770 -0.5669
  876MOL0     C18132   1.110   8.249  11.127 -0.0989  0.2811 -0.5900
  876MOL0     O18133   1.024   8.213  11.232  0.2120  0.0959 -0.2436
  876MOL0     C18134   0.946   8.312  11.303 -0.6681 -0.3053  0.9826
  876MOL0     C18135   0.805   8.264  11.297  0.7115 -0.8101 -0.0344
  876MOL0     C18136   0.707   8.362  11.372 -0.3362  0.5820 -0.1709
  876MOL0     C18137   0.573   8.283  11.399  0.2201 -0.6139 -0.5042
  876MOL0     C18138   0.527   8.291  11.549 -0.1481 -0.5628  0.1009
  876MOL0     C18139   0.632   8.225  11.644  0.4079  1.3496 -0.7649
  876MOL0     C18140   0.655   8.069  11.625  1.1175  0.0674 -0.1125
  876MOL0     C18141   0.776   8.018  11.705  0.7155 -0.3286 -0.4603
  876MOL0     N18142   0.906   8.087  11.677 -0.2861  0.8720 -0.3479
  876MOL0     C18143   0.993   8.048  11.575 -0.0931 -0.5375 -0.5046
  876MOL0     C18144   1.095   8.135  11.571 -0.4257  0.3525  0.0945
  876MOL0     C18145   1.216   8.109  11.489 -0.4495 -1.3399 -0.1848
  876MOL0     C18146   1.295   8.239  11.455  0.4903  0.4977  0.3175
  876MOL0     C18147   1.420   8.219  11.367  0.2909 -0.0517  0.5221
  876MOL0     C18148   1.501   8.353  11.347 -0.0446 -0.7325  0.3214
  876MOL0     O18149   1.581   8.332  11.229  0.0096 -1.0103 -0.5586
  876MOL0     C18150   1.655   8.452  11.196  0.0980  0.2034 -0.3806
  876MOL0     C18151   1.787   8.443  11.154  0.8341 -0.1270 -0.0220
  876MOL0     C18152   1.860   8.555  11.115 -0.0432  0.2323  1.3049
  876MOL0     C18153   1.803   8.681  11.104  0.2506  0.5489 -0.2230
  876MOL0     C18154   1.873   8.794  11.041  0.0024 -0.2607  0.1240
  876MOL0     O18155   1.985   8.778  10.965 -0.8087 -0.6974  0.2149
  876MOL0     C18156   2.059   8.891  10.946 -0.1754 -0.6350 -0.0398
  876MOL0     C18157   2.092   8.980  11.051 -0.2019  0.3832  0.3887
  876MOL0     C18158   2.169   9.097  11.025 -0.3800  0.8693  0.2667
  876MOL0     C18159   2.194   9.143  10.895 -0.5852 -0.1148  0.6539
  876MOL0     O18160   2.258   9.262  10.885 -0.8412 -0.2582 -0.4828
  876MOL0     C18161   2.311   9.301  10.763  0.0390 -0.2047  0.6731
  876MOL0     C18162   2.373   9.440  10.787  0.3268 -0.9150 -1.2170
  876MOL0     C18163   2.508   9.424  10.869 -0.3037 -0.2387  0.1695
  876MOL0     C18164   2.501   9.373  11.010 -0.2427  0.0165  0.2554
  876MOL0     C18165   2.428   9.464  11.108 -0.7360 -0.2337 -0.5827
  876MOL0     C18166   2.383   9.383  11.233 -0.7940  0.0866 -0.0461
  876MOL0     C18167   2.348   9.474  11.350 -0.1341  0.6361 -0.2350
  876MOL0     C18168   2.275   9.398  11.463  0.0841  0.9029  1.1407
  876MOL0    Cl18169   2.280   9.515  11.601 -0.0695  0.1591 -0.5595
  876MOL0     C18170   2.150   9.054  10.792  0.1310 -1.0455 -0.2041
  876MOL0     C18171   2.082   8.932  10.816 -0.2599  0.4576 -0.3447
  876MOL0     O18172   1.829   8.899  11.081  0.1354  0.2628 -0.3496
  876MOL0     C18173   1.668   8.692  11.148 -0.5860  0.2741 -0.1197
  876MOL0     C18174   1.594   8.583  11.192  0.0779 -0.4845 -0.6317
  876MOL0     N18175   1.069   8.238  11.662  0.0327  0.4003  0.5425
  876MOL0     N18176   0.960   8.200  11.732 -0.0396 -0.0285 -0.4744
  876MOL0     C18177   1.166   8.141  11.050  0.2506  0.3852 -0.3635
  876MOL0     C18178   1.279   8.168  10.958  0.6500 -0.2467  0.2252
  876MOL0     C18179   1.689   8.296  10.795 -0.3527 -0.9238 -0.5740
  876MOL0     C18180   1.672   8.415  10.712  0.0443 -0.8387  0.0230
  876MOL0     C18181   1.792   8.477  10.661  0.2000  0.9358  0.9131
  876MOL0     C18182   1.913   8.415  10.681 -0.4585  0.6270 -0.1144
  876MOL0     O18183   2.013   8.475  10.613  0.0031  0.1425 -0.2024
  876MOL0     C18184   2.135   8.493  10.682 -1.0982  0.6670  0.4230
  876MOL0     C18185   2.203   8.612  10.617 -0.1729 -0.2009  0.3481
  876MOL0     C18186   2.329   8.652  10.680  0.0646 -0.9774 -0.4937
  876MOL0     C18187   2.380   8.779  10.618 -0.4705 -1.3724  0.2778
  876MOL0     C18188   2.473   8.844  10.717 -0.0074 -0.0772  0.5727
  876MOL0     C18189   2.533   8.909  10.797 -0.2224  0.4762 -0.1934
  876MOL0     C18190   1.933   8.307  10.759  0.7781  0.8823  0.3964
  876MOL0     C18191   1.817   8.242  10.822 -0.6758 -0.0125  0.6037
  876MOL0     C18192   1.842   8.122  10.895  0.1302  0.4167 -0.1540
  876MOL0     H18193   1.324   8.488  11.053  3.1028 -0.2357 -1.5203
  876MOL0     H18194   1.121   8.460  11.161 -1.6573 -0.5671  0.3218
  876MOL0     H18195   0.975   8.316  11.409  2.3365  0.7650  0.2202
  876MOL0     H18196   0.950   8.407  11.249 -0.4037 -0.8076  0.1003
  876MOL0     H18197   0.794   8.165  11.343 -0.6793 -0.8350 -0.3709
  876MOL0     H18198   0.756   8.263  11.199 -1.3958  0.0175  0.9386
  876MOL0     H18199   0.690   8.458  11.322  0.8368  0.5089 -0.7590
  876MOL0     H18200   0.749   8.389  11.469  2.5634  2.0522 -1.6902
  876MOL0     H18201   0.483   8.326  11.354  0.4551 -0.6468 -1.0220
  876MOL0     H18202   0.573   8.182  11.355  1.4696  0.2523 -2.6645
  876MOL0     H18203   0.512   8.396  11.575 -1.4298 -0.9617  1.0427
  876MOL0     H18204   0.429   8.243  11.557 -0.1122 -0.8651 -1.0719
  876MOL0     H18205   0.726   8.279  11.655 -0.1048  2.2836 -0.7887
  876MOL0     H18206   0.584   8.226  11.743  0.5264  0.5508 -0.6931
  876MOL0     H18207   0.661   8.044  11.519  2.1001 -0.6118  0.0873
  876MOL0     H18208   0.567   8.015  11.662 -0.3020  2.7118  0.6089
  876MOL0     H18209   0.742   8.018  11.809 -1.0873 -0.5084 -1.0173
  876MOL0     H18210   0.779   7.910  11.689 -2.7908 -0.5680 -0.4248
  876MOL0     H18211   0.967   7.968  11.506  0.2678 -0.6144 -0.5502
  876MOL0     H18212   1.287   8.057  11.554 -0.0810  1.5335  1.8783
  876MOL0     H18213   1.191   8.062  11.393  0.3478  0.0745 -1.1292
  876MOL0     H18214   1.228   8.316  11.415 -2.8724 -1.3442  2.0374
  876MOL0     H18215   1.327   8.285  11.549  1.8448  2.1786 -0.8973
  876MOL0     H18216   1.380   8.194  11.268  0.2809  0.0420  0.5024
  876MOL0     H18217   1.485   8.137  11.400  1.4385  0.9883  0.8968
  876MOL0     H18218   1.557   8.387  11.434 -0.7162  0.1245  0.4374
  876MOL0     H18219   1.418   8.423  11.332 -0.9052 -2.0222 -1.4446
  876MOL0     H18220   1.835   8.346  11.142  3.7731  1.2074 -0.0911
  876MOL0     H18221   1.957   8.530  11.073 -0.5657  3.5093 -2.3544
  876MOL0     H18222   2.072   8.974  11.157 -2.1828  0.8616  0.0881
  876MOL0     H18223   2.215   9.139  11.113 -1.5737 -0.2642  1.4880
  876MOL0     H18224   2.384   9.225  10.734  2.4509 -0.0951  5.4572
  876MOL0     H18225   2.230   9.322  10.693  2.6938 -0.4092 -2.6950
  876MOL0     H18226   2.401   9.486  10.692 -0.1738 -0.4530 -1.1522
  876MOL0     H18227   2.304   9.506  10.841  0.9357 -0.5566 -0.8706
  876MOL0     H18228   2.573   9.359  10.810  0.6884 -1.1052  2.1401
  876MOL0     H18229   2.570   9.514  10.863 -1.5266  0.5524 -3.9702
  876MOL0     H18230   2.603   9.362  11.048 -0.1260  2.4716  0.7979
  876MOL0     H18231   2.455   9.274  11.019  0.9306 -0.4414  1.5368
  876MOL0     H18232   2.335   9.500  11.064 -1.6333 -2.6658 -0.8265
  876MOL0     H18233   2.492   9.547  11.140  1.6184 -1.3459 -2.0912
  876MOL0     H18234   2.291   9.330  11.203 -0.8252 -0.3408  0.7812
  876MOL0     H18235   2.454   9.306  11.264  1.8194  1.9687 -0.9948
  876MOL0     H18236   2.290   9.559  11.312  0.7745  0.9825 -0.8845
  876MOL0     H18237   2.440   9.524  11.383  1.2889  0.0445 -2.9894
  876MOL0     H18238   2.179   9.363  11.424  0.7151  1.8751 -1.4994
  876MOL0     H18239   2.327   9.303  11.476 -1.9917 -0.4920 -0.2539
  876MOL0     H18240   2.169   9.091  10.692 -1.9641 -0.0161 -0.2729
  876MOL0     H18241   2.056   8.865  10.735 -2.4410  0.5214  0.2450
  876MOL0     H18242   1.618   8.788  11.158  0.0038  0.4048  2.6237
  876MOL0     H18243   1.494   8.604  11.228  0.5384 -0.0331  0.4308
  876MOL0     H18244   1.116   8.045  11.046 -0.1361  0.6192 -1.5764
  876MOL0     H18245   1.303   8.086  10.891 -1.8571  0.5280 -1.7979
  876MOL0     H18246   1.577   8.465  10.694 -0.8858 -2.5022  0.1175
  876MOL0     H18247   1.772   8.561  10.595 -1.6290  0.8412  1.3045
  876MOL0     H18248   2.206   8.410  10.676  0.0985  1.7637 -3.0468
  876MOL0     H18249   2.114   8.510  10.788 -0.3385  2.5442  0.3188
  876MOL0     H18250   2.123   8.686  10.612 -1.7177 -1.8400  0.1064
  876MOL0     H18251   2.230   8.590  10.513  0.6583 -2.6483  1.0188
  876MOL0     H18252   2.408   8.578  10.661  1.4337  0.0022  1.0598
  876MOL0     H18253   2.314   8.664  10.788  0.9253 -0.1310 -0.4471
  876MOL0     H18254   2.438   8.766  10.526 -0.2157  0.0364  0.2195
  876MOL0     H18255   2.304   8.855  10.599  0.4096 -0.4719  0.2816
  876MOL0     H18256   2.592   8.958  10.872 -0.6528  0.7350 -0.0180
  876MOL0     H18257   2.031   8.264  10.777  0.6724 -0.4675 -1.8731
  876MOL0     H18258   1.824   8.037  10.829 -1.2505  0.7356 -0.2210
  876MOL0     H18259   1.943   8.114  10.937  1.0817 -0.1316 -2.3893
  876MOL0     H18260   1.767   8.113  10.974 -0.3157  1.6701 -0.4093
  877MOL0     O18261   1.018   1.094   1.885 -0.6466 -0.2321 -0.2405
  877MOL0     C18262   1.084   1.046   1.794  0.2946 -0.0846 -0.9200
  877MOL0     O18263   1.162   0.940   1.806  0.0590  0.2019 -0.3238
  877MOL0     C18264   1.159   0.874   1.926  0.1840  0.8436 -0.3435
  877MOL0     C18265   1.241   0.923   2.032 -0.1437 -0.6315 -0.8775
  877MOL0     C18266   1.248   0.839   2.149 -0.3579  0.2305 -0.2011
  877MOL0     C18267   1.200   0.707   2.154 -0.2889 -0.3074  0.7933
  877MOL0     O18268   1.221   0.644   2.270  0.5413 -0.0297  0.0067
  877MOL0     C18269   1.214   0.496   2.270 -0.4974 -0.7283  0.0720
  877MOL0     C18270   1.206   0.434   2.409  0.1280 -0.6589 -0.4789
  877MOL0     C18271   1.320   0.476   2.499  0.1048  0.1211 -0.2340
  877MOL0     C18272   1.322   0.409   2.635  0.2108 -0.1555 -0.2014
  877MOL0     C18273   1.449   0.454   2.715  0.3755 -0.4611 -0.0882
  877MOL0     C18274   1.442   0.415   2.856 -0.2774 -0.5273  0.5433
  877MOL0     C18275   1.477   0.272   2.884  0.1243 -0.0586  0.5501
  877MOL0     C18276   1.488   0.246   3.037  1.4828 -0.8705 -0.5311
  877MOL0     N18277   1.600   0.148   3.069  0.0236  0.4118  0.0416
  877MOL0     C18278   1.676   0.150   3.184  0.4460 -0.7270 -0.8128
  877MOL0     C18279   1.728   0.032   3.207  0.2691  0.7500 -0.1019
  877MOL0     C18280   1.817  -0.020   3.322  0.4830  0.0239  0.0106
  877MOL0     C18281   1.823   0.042   3.456  0.5184 -0.3862  0.4904
  877MOL0     C18282   1.691   0.055   3.527  0.2238  0.1161  0.4906
  877MOL0     C18283   1.707   0.104   3.675 -0.2874 -0.7504 -0.8348
  877MOL0     O18284   1.828   0.046   3.735 -0.2067  0.4399  0.0524
  877MOL0     C18285   1.809  -0.060   3.823  0.6657  0.0577 -0.3365
  877MOL0     C18286   1.725  -0.046   3.929  0.2706  0.4410 -0.5555
  877MOL0     C18287   1.708  -0.151   4.031 -0.5690  0.8153  0.5028
  877MOL0     C18288   1.774  -0.273   4.015  0.9496 -0.3185 -0.2496
  877MOL0     C18289   1.760  -0.389   4.101 -0.0170 -0.2882  0.7100
  877MOL0     O18290   1.871  -0.471   4.110 -0.2103 -0.0113 -0.2294
  877MOL0     C18291   1.866  -0.585   4.193  0.0384  0.3841 -0.3935
  877MOL0     C18292   1.909  -0.699   4.135 -0.6766  0.1715 -0.4213
  877MOL0     C18293   1.895  -0.825   4.197  0.6507  1.1005  0.3370
  877MOL0     C18294   1.837  -0.828   4.328  0.6293  0.7465 -0.0719
  877MOL0     O18295   1.816  -0.945   4.409  0.6299  0.1244 -0.8249
  877MOL0     C18296   1.835  -1.075   4.358  0.1133 -0.3422 -0.2940
  877MOL0     C18297   1.802  -1.158   4.475 -0.9924 -1.1605  0.0842
  877MOL0     C18298   1.846  -1.304   4.456 -0.2892  0.0058 -0.4688
  877MOL0     C18299   1.948  -1.342   4.575  0.4349  0.1861  0.1614
  877MOL0     C18300   1.987  -1.487   4.569 -0.0985 -0.2500  0.1977
  877MOL0     C18301   2.099  -1.515   4.669 -0.0790  0.6176 -0.6496
  877MOL0     C18302   2.105  -1.672   4.709 -0.3971 -0.2690  0.1713
  877MOL0     C18303   2.220  -1.710   4.791 -0.0811 -0.0128  0.7872
  877MOL0    Cl18304   2.167  -1.807   4.925  0.2357 -0.0370  0.3017
  877MOL0     C18305   1.804  -0.711   4.390  0.0835  0.6775 -0.3012
  877MOL0     C18306   1.813  -0.592   4.322 -0.4541  0.8239  0.5604
  877MOL0     O18307   1.655  -0.403   4.157  0.0741 -0.0157  0.2814
  877MOL0     C18308   1.856  -0.283   3.907 -0.8501 -0.2054 -0.8788
  877MOL0     C18309   1.873  -0.182   3.807 -0.3651  0.3879 -0.0310
  877MOL0     N18310   1.675  -0.041   3.110  0.4809  0.4324 -0.0933
  877MOL0     N18311   1.595   0.024   3.029 -0.1095  0.2047  0.6473
  877MOL0     C18312   1.120   0.663   2.040  0.4451 -0.0405 -0.4273
  877MOL0     C18313   1.096   0.747   1.935 -0.5527 -0.0897  0.7761
  877MOL0     C18314   1.078   1.125   1.672  0.2221  0.7599 -0.7280
  877MOL0     C18315   1.008   1.251   1.685 -0.0156 -0.1084 -0.7477
  877MOL0     C18316   1.015   1.337   1.579  0.8189 -0.6124 -0.3825
  877MOL0     C18317   1.077   1.297   1.460  0.4437  1.0464  0.6534
  877MOL0     O18318   1.084   1.400   1.367  0.5008 -0.7741 -0.1698
  877MOL0     C18319   1.179   1.392   1.261 -0.2355 -0.2446  0.1542
  877MOL0     C18320   1.196   1.532   1.192  1.7029  0.2538  0.3974
  877MOL0     C18321   1.273   1.513   1.064 -0.7114  0.5405  0.3301
  877MOL0     C18322   1.275   1.645   0.983  0.1440  0.6755 -0.1758
  877MOL0     C18323   1.328   1.758   1.047 -0.3608  0.3436 -0.1791
  877MOL0     C18324   1.368   1.863   1.107 -0.2138  0.4667  0.6426
  877MOL0     C18325   1.117   1.165   1.432  0.6791 -0.2029  0.3226
  877MOL0     C18326   1.123   1.086   1.544 -0.5969 -0.4137  0.2830
  877MOL0     C18327   1.156   0.940   1.510 -0.2459  0.9115  0.3108
  877MOL0     H18328   1.293   1.018   2.024  1.5263 -1.5036 -0.7541
  877MOL0     H18329   1.302   0.880   2.233 -0.1069 -0.2576 -0.1226
  877MOL0     H18330   1.135   0.457   2.205  0.7591 -0.7095 -1.5438
  877MOL0     H18331   1.304   0.473   2.213  0.5499  2.5904  0.1796
  877MOL0     H18332   1.205   0.324   2.403 -1.2728 -0.9580  2.9042
  877MOL0     H18333   1.116   0.481   2.450  1.7926  1.7272  0.6650
  877MOL0     H18334   1.307   0.582   2.524  3.2368  0.0240  2.4990
  877MOL0     H18335   1.410   0.452   2.442 -0.5337  2.4154 -2.3505
  877MOL0     H18336   1.229   0.434   2.687  0.6455  2.3516 -0.4936
  877MOL0     H18337   1.312   0.301   2.622 -0.9926 -0.0300 -0.4258
  877MOL0     H18338   1.539   0.422   2.663 -0.1253 -0.3862 -1.0118
  877MOL0     H18339   1.450   0.563   2.713 -3.2210 -0.2586  1.0195
  877MOL0     H18340   1.508   0.480   2.915  0.8377  0.2452 -1.4828
  877MOL0     H18341   1.340   0.438   2.888 -0.6618 -0.0531 -0.9462
  877MOL0     H18342   1.566   0.237   2.831 -0.5986  0.0189 -0.7521
  877MOL0     H18343   1.391   0.213   2.850 -0.1987 -0.8473  2.6011
  877MOL0     H18344   1.487   0.335   3.100 -3.5229  1.1659 -2.9648
  877MOL0     H18345   1.390   0.209   3.067  1.9394 -1.3769  0.3764
  877MOL0     H18346   1.703   0.232   3.250  0.5013 -2.7150  1.7905
  877MOL0     H18347   1.789  -0.125   3.328  3.2268 -0.8990 -1.2404
  877MOL0     H18348   1.915  -0.014   3.272  0.6152  2.6830  0.4428
  877MOL0     H18349   1.902  -0.003   3.516  1.1260  1.0432  0.8076
  877MOL0     H18350   1.847   0.145   3.429 -1.4024 -0.1993 -0.7314
  877MOL0     H18351   1.655  -0.048   3.536  1.1865 -0.2925 -0.1778
  877MOL0     H18352   1.614   0.117   3.480  1.6541  0.4882 -1.4704
  877MOL0     H18353   1.623   0.089   3.744 -0.4443  1.8900 -0.3555
  877MOL0     H18354   1.723   0.212   3.683  1.3264 -1.0439  0.3266
  877MOL0     H18355   1.685   0.054   3.941 -0.8513  0.1034 -1.3304
  877MOL0     H18356   1.635  -0.155   4.111 -2.1918 -2.4890 -0.9420
  877MOL0     H18357   1.943  -0.691   4.032 -1.9341  0.9432 -0.7964
  877MOL0     H18358   1.920  -0.911   4.136 -1.7972 -0.3409  1.2094
  877MOL0     H18359   1.771  -1.104   4.275  1.9964  1.1610 -2.3777
  877MOL0     H18360   1.940  -1.095   4.337  0.2462 -1.9804  1.6480
  877MOL0     H18361   1.854  -1.108   4.558  1.6510 -1.2435 -1.4057
  877MOL0     H18362   1.696  -1.151   4.499 -1.2442  1.5292 -1.4131
  877MOL0     H18363   1.758  -1.369   4.456  0.5253 -1.1415 -1.1456
  877MOL0     H18364   1.896  -1.318   4.360  1.1794  0.7057  0.1567
  877MOL0     H18365   1.914  -1.314   4.675  0.3846  0.9695 -0.0717
  877MOL0     H18366   2.039  -1.282   4.566  0.7469 -0.4999 -1.8308
  877MOL0     H18367   2.000  -1.521   4.466  1.6554 -1.5396  0.8084
  877MOL0     H18368   1.901  -1.541   4.610  0.6098  0.2435  2.4867
  877MOL0     H18369   2.197  -1.488   4.630  0.0457 -3.3894 -3.8437
  877MOL0     H18370   2.082  -1.462   4.763 -0.6510  0.1534 -0.4840
  877MOL0     H18371   2.098  -1.715   4.608 -1.9886  1.1038 -0.3563
  877MOL0     H18372   2.010  -1.696   4.759 -2.2033  1.4565 -2.1716
  877MOL0     H18373   2.295  -1.767   4.736  0.0519  0.2481  0.6954
  877MOL0     H18374   2.276  -1.620   4.816 -0.8929  0.9870 -0.8019
  877MOL0     H18375   1.750  -0.709   4.485 -3.6227  3.2711 -2.1823
  877MOL0     H18376   1.776  -0.514   4.387  2.4621 -1.6820  5.8778
  877MOL0     H18377   1.910  -0.376   3.891 -0.8718 -0.0404 -2.0616
  877MOL0     H18378   1.947  -0.207   3.732 -1.4977 -0.8994 -0.7710
  877MOL0     H18379   1.068   0.568   2.035 -4.2375  2.2339 -1.3259
  877MOL0     H18380   1.024   0.720   1.859  0.8597 -0.5530 -0.4478
  877MOL0     H18381   0.965   1.280   1.780 -0.5358  2.0668 -1.5885
  877MOL0     H18382   0.974   1.435   1.600  3.6689  0.4483  0.6898
  877MOL0     H18383   1.122   1.326   1.195 -2.9642 -1.1032  3.0627
  877MOL0     H18384   1.275   1.342   1.272  0.5336  0.6944 -1.8725
  877MOL0     H18385   1.242   1.612   1.250 -0.5100  2.6574 -0.8845
  877MOL0     H18386   1.097   1.579   1.185  0.1209 -2.4351  2.7678
  877MOL0     H18387   1.234   1.431   1.004 -1.1490 -0.2063  1.6068
  877MOL0     H18388   1.377   1.492   1.088 -0.7780  2.4861  2.7793
  877MOL0     H18389   1.325   1.612   0.891  0.8430  0.4580  0.2768
  877MOL0     H18390   1.175   1.669   0.947  1.3739  1.1904 -3.6168
  877MOL0     H18391   1.410   1.953   1.147  3.0937  0.3691 -2.1540
  877MOL0     H18392   1.151   1.136   1.333 -0.7418 -0.5952 -0.0702
  877MOL0     H18393   1.157   0.916   1.403 -2.0226  1.1104  0.2207
  877MOL0     H18394   1.257   0.913   1.541 -1.4380 -3.3414  1.1542
  877MOL0     H18395   1.088   0.868   1.557 -0.7575 -0.0398 -1.7450
  878MOL0     O18396   3.505  10.992   3.484  0.4347 -0.8364 -0.3466
  878MOL0     C18397   3.438  11.062   3.407 -0.5211 -0.2667  0.8417
  878MOL0     O18398   3.487  11.171   3.343 -0.3195  0.3056 -0.1038
  878MOL0     C18399   3.621  11.205   3.342  0.7416  1.3324 -0.6039
  878MOL0     C18400   3.655  11.333   3.325  0.1253  0.2115  0.2528
  878MOL0     C18401   3.792  11.367   3.308  0.2727 -0.2724  0.9498
  878MOL0     C18402   3.890  11.268   3.305  0.3639  0.6533  0.4726
  878MOL0     O18403   4.023  11.305   3.298  0.0526  0.7359 -0.0344
  878MOL0     C18404   4.121  11.224   3.369  0.1001  0.6019 -0.6928
  878MOL0     C18405   4.250  11.298   3.386 -0.0778  0.0009 -0.5967
  878MOL0     C18406   4.331  11.259   3.518  0.5178  0.4138 -0.5272
  878MOL0     C18407   4.447  11.361   3.544 -0.5905  0.0829  0.4113
  878MOL0     C18408   4.508  11.342   3.687  0.0431  0.8560  0.0007
  878MOL0     C18409   4.558  11.198   3.721  0.4660 -0.2163  0.1039
  878MOL0     C18410   4.511  11.161   3.867 -0.5184  0.9883 -0.9284
  878MOL0     C18411   4.577  11.230   3.986 -0.2244  0.3203 -0.9357
  878MOL0     N18412   4.528  11.189   4.127 -0.5767  0.3500  0.3008
  878MOL0     C18413   4.416  11.247   4.191 -0.1755  0.0810  0.6393
  878MOL0     C18414   4.414  11.189   4.314  0.0567 -1.0462  0.2229
  878MOL0     C18415   4.309  11.217   4.417  0.7093 -0.3016  0.3570
  878MOL0     C18416   4.170  11.188   4.361 -0.2170  0.1957  0.4537
  878MOL0     C18417   4.057  11.178   4.463  0.3796  0.4829 -0.6730
  878MOL0     C18418   4.025  11.307   4.532 -0.2870 -0.5713 -0.1445
  878MOL0     O18419   3.933  11.298   4.642 -0.9341 -0.1423 -0.1178
  878MOL0     C18420   3.914  11.404   4.724 -0.7467  0.4391  0.7644
  878MOL0     C18421   3.931  11.534   4.678  0.6151  0.6928 -0.9983
  878MOL0     C18422   3.896  11.638   4.758 -0.2000 -0.9049  0.3904
  878MOL0     C18423   3.858  11.620   4.891 -0.0259 -0.2585 -0.2330
  878MOL0     C18424   3.832  11.732   4.970  0.0809 -0.4639 -0.3351
  878MOL0     O18425   3.893  11.854   4.929  0.1826  0.9910 -0.0324
  878MOL0     C18426   3.871  11.960   5.010 -0.3755 -0.3014 -0.1237
  878MOL0     C18427   3.761  12.035   4.989 -0.6057 -0.8923  0.5162
  878MOL0     C18428   3.737  12.154   5.065 -0.8248 -0.2436 -0.9381
  878MOL0     C18429   3.824  12.198   5.167  0.6397 -0.0179  0.3618
  878MOL0     O18430   3.790  12.305   5.250  0.5855 -0.4576 -0.4675
  878MOL0     C18431   3.885  12.355   5.345  0.0655 -0.1521  0.5379
  878MOL0     C18432   3.813  12.470   5.422  0.1045 -0.0517  0.5610
  878MOL0     C18433   3.835  12.610   5.355 -0.1641 -0.3014  0.8864
  878MOL0     C18434   3.774  12.729   5.438 -0.5999  0.4996  0.0291
  878MOL0     C18435   3.823  12.870   5.397  0.2470 -0.8524 -1.2377
  878MOL0     C18436   3.793  12.909   5.256 -0.7514 -0.0032 -0.3565
  878MOL0     C18437   3.777  13.065   5.254  0.1940 -0.2332  0.3376
  878MOL0     C18438   3.742  13.085   5.115  0.0107  0.0103 -0.8745
  878MOL0    Cl18439   3.730  13.257   5.112 -0.2613  0.0705 -0.0261
  878MOL0     C18440   3.949  12.127   5.167 -1.1941  0.2106 -0.6271
  878MOL0     C18441   3.971  12.009   5.102  0.2081  0.4039  1.4273
  878MOL0     O18442   3.759  11.718   5.071 -0.7799 -0.5387 -0.4029
  878MOL0     C18443   3.860  11.488   4.942 -0.4195 -0.2984  1.0022
  878MOL0     C18444   3.880  11.383   4.857  0.3609  0.2193 -0.6085
  878MOL0     N18445   4.524  11.101   4.324  0.6290 -0.5276 -0.6555
  878MOL0     N18446   4.590  11.110   4.213  0.0141 -0.0485 -0.3384
  878MOL0     C18447   3.845  11.135   3.313  0.4730 -0.7300  0.1465
  878MOL0     C18448   3.711  11.100   3.324  0.3016 -0.9678 -0.0492
  878MOL0     C18449   3.298  11.030   3.366 -0.5767  1.0919  0.0408
  878MOL0     C18450   3.232  11.118   3.275  0.8503  0.0716  0.2910
  878MOL0     C18451   3.095  11.108   3.248  0.1774 -1.2126  0.2133
  878MOL0     C18452   3.024  11.005   3.300  0.1169  0.5666 -0.7555
  878MOL0     O18453   2.890  10.973   3.278 -0.1107 -0.1384 -0.3878
  878MOL0     C18454   2.805  11.064   3.203 -0.7319  0.4535  0.2470
  878MOL0     C18455   2.661  11.017   3.164 -1.0924 -0.3587  0.3069
  878MOL0     C18456   2.657  10.961   3.021  0.6497  0.1752 -0.8535
  878MOL0     C18457   2.636  11.064   2.910 -0.3108 -0.4604 -0.6325
  878MOL0     C18458   2.654  11.027   2.776 -0.0325  0.3520 -0.1873
  878MOL0     C18459   2.665  11.001   2.664  0.4678  0.2826  1.0638
  878MOL0     C18460   3.081  10.912   3.391 -1.4035 -0.1995 -0.3133
  878MOL0     C18461   3.220  10.920   3.424 -0.0650  0.2914  0.7126
  878MOL0     C18462   3.279  10.809   3.513 -0.2425 -0.0976 -0.5840
  878MOL0     H18463   3.586  11.416   3.339  1.3701  0.9944  2.3476
  878MOL0     H18464   3.795  11.475   3.305  1.5854 -0.1180  4.2087
  878MOL0     H18465   4.061  11.209   3.459 -1.4922  3.7600 -1.0643
  878MOL0     H18466   4.132  11.130   3.313  0.2340 -0.3442  0.8724
  878MOL0     H18467   4.231  11.404   3.407 -1.8642 -0.5378  0.7132
  878MOL0     H18468   4.311  11.281   3.297 -1.3167 -0.9220 -1.2880
  878MOL0     H18469   4.358  11.153   3.519 -0.8581  0.0147  2.1858
  878MOL0     H18470   4.262  11.273   3.601  0.9455 -4.3304  0.9160
  878MOL0     H18471   4.517  11.340   3.462 -1.7902  1.2916 -0.9762
  878MOL0     H18472   4.417  11.465   3.528 -1.5088 -0.3227 -0.5811
  878MOL0     H18473   4.601  11.400   3.695  2.4541 -2.5691 -0.8400
  878MOL0     H18474   4.442  11.389   3.760  0.6748  1.0375  0.4647
  878MOL0     H18475   4.524  11.125   3.647  0.5442 -1.7369  1.4981
  878MOL0     H18476   4.667  11.188   3.710  0.2409 -2.2213 -0.8071
  878MOL0     H18477   4.521  11.054   3.885  2.6644  1.2868 -0.3652
  878MOL0     H18478   4.406  11.193   3.876 -0.0156  2.2821  0.7162
  878MOL0     H18479   4.686  11.223   3.995 -0.4124 -0.7808  1.0861
  878MOL0     H18480   4.555  11.335   3.965 -2.0304 -0.1060 -1.2775
  878MOL0     H18481   4.348  11.320   4.148 -2.0027 -2.8240 -1.7306
  878MOL0     H18482   4.328  11.160   4.509  3.5516  0.8364  0.5961
  878MOL0     H18483   4.319  11.322   4.447  2.3613  0.2534 -1.8906
  878MOL0     H18484   4.149  11.270   4.292 -1.6831  0.0259  0.6649
  878MOL0     H18485   4.169  11.096   4.302  2.2818  0.1811  0.3274
  878MOL0     H18486   4.092  11.101   4.533  2.2550 -1.1275 -3.1787
  878MOL0     H18487   3.968  11.142   4.410 -1.2309  2.2875  0.6623
  878MOL0     H18488   3.977  11.367   4.454  0.0809 -0.3050 -0.1703
  878MOL0     H18489   4.119  11.358   4.558 -0.3452  0.2894 -1.5439
  878MOL0     H18490   3.976  11.554   4.582  1.3971 -0.5428 -0.9096
  878MOL0     H18491   3.902  11.736   4.714  1.3940 -1.5665 -0.9890
  878MOL0     H18492   3.695  12.008   4.908  0.8996 -1.3240 -0.5976
  878MOL0     H18493   3.646  12.213   5.058  0.8460  2.4800 -1.5863
  878MOL0     H18494   3.896  12.267   5.409  0.2577  1.9491  3.6535
  878MOL0     H18495   3.981  12.384   5.303 -0.5617  0.2210 -0.6883
  878MOL0     H18496   3.705  12.463   5.436  0.0195  1.4655  0.7378
  878MOL0     H18497   3.848  12.469   5.526 -3.2820  2.5810  1.9394
  878MOL0     H18498   3.943  12.626   5.360 -0.4135  1.3219  1.6073
  878MOL0     H18499   3.797  12.613   5.253  3.6411 -0.1589 -0.6798
  878MOL0     H18500   3.807  12.721   5.542 -0.3124  1.8989  0.0577
  878MOL0     H18501   3.665  12.718   5.435 -0.4049 -3.6567  1.1408
  878MOL0     H18502   3.932  12.876   5.401  0.3253 -1.9728 -1.4167
  878MOL0     H18503   3.777  12.933   5.475  0.3843 -1.7910 -0.3805
  878MOL0     H18504   3.873  12.875   5.189 -0.4419 -2.4941  1.1352
  878MOL0     H18505   3.697  12.862   5.233 -0.2982 -0.9459 -0.3635
  878MOL0     H18506   3.868  13.119   5.285  1.4194 -0.7213 -2.2045
  878MOL0     H18507   3.695  13.103   5.316 -0.9345 -2.3795  0.2233
  878MOL0     H18508   3.820  13.055   5.044  1.3394 -1.2405  0.9837
  878MOL0     H18509   3.649  13.036   5.086 -0.1300  0.0343 -0.4657
  878MOL0     H18510   4.027  12.154   5.237 -0.8315 -0.9576 -0.5533
  878MOL0     H18511   4.069  11.962   5.100  0.0008 -0.0814 -1.2630
  878MOL0     H18512   3.854  11.484   5.051  1.5317  0.2426  1.1800
  878MOL0     H18513   3.871  11.280   4.889 -1.4076  1.0981  2.1324
  878MOL0     H18514   3.912  11.051   3.298 -0.4538 -1.4461 -0.0331
  878MOL0     H18515   3.668  11.001   3.313 -3.7643  0.6403 -0.2606
  878MOL0     H18516   3.293  11.196   3.229  0.3612 -0.8248 -2.0234
  878MOL0     H18517   3.041  11.184   3.194 -1.5036 -0.1665  3.1030
  878MOL0     H18518   2.858  11.086   3.110  3.3186 -1.1660  1.9504
  878MOL0     H18519   2.814  11.163   3.249  3.0709  0.7536 -0.7882
  878MOL0     H18520   2.591  11.100   3.175 -2.2875 -1.1873 -0.7108
  878MOL0     H18521   2.634  10.940   3.236 -1.8457  0.7102  1.1946
  878MOL0     H18522   2.572  10.893   3.020  1.7375 -1.2200 -2.1963
  878MOL0     H18523   2.745  10.897   3.009  0.2431 -1.1130  2.1296
  878MOL0     H18524   2.532  11.099   2.913 -0.4185 -0.7429 -0.9867
  878MOL0     H18525   2.710  11.141   2.933 -0.5087 -0.5781  0.4552
  878MOL0     H18526   2.681  10.965   2.564  1.4488 -1.0255  1.6636
  878MOL0     H18527   3.009  10.838   3.424  0.3444 -1.5825  0.6249
  878MOL0     H18528   3.339  10.882   3.568 -0.9426 -0.3786  0.5711
  878MOL0     H18529   3.211  10.760   3.582 -0.4947  0.3031 -0.5447
  878MOL0     H18530   3.348  10.740   3.464  0.5489  1.0619 -1.1656
  879MOL0     O18531   0.460   3.971  11.028  0.5740 -0.3708 -0.2138
  879MOL0     C18532   0.482   4.008  11.140 -0.5763 -0.7300 -0.4299
  879MOL0     O18533   0.435   4.117  11.195 -0.2371 -0.3368 -0.5124
  879MOL0     C18534   0.365   4.204  11.107 -0.5126  0.1683  0.5299
  879MOL0     C18535   0.418   4.338  11.095  0.3389  0.4560 -0.0248
  879MOL0     C18536   0.355   4.433  11.014  0.1490 -0.0514  0.6290
  879MOL0     C18537   0.239   4.398  10.943 -1.3365 -0.4562 -0.4317
  879MOL0     O18538   0.196   4.488  10.849  0.4449  0.4673  0.1468
  879MOL0     C18539   0.072   4.469  10.775 -0.3748  1.5006  0.0656
  879MOL0     C18540   0.056   4.573  10.665  0.5834 -0.3321 -0.4003
  879MOL0     C18541  -0.067   4.545  10.576 -0.7712  0.1239  0.4532
  879MOL0     C18542  -0.101   4.659  10.482  0.0785  1.0475  0.4784
  879MOL0     C18543  -0.063   4.641  10.333  0.4747  1.0929  0.9346
  879MOL0     C18544  -0.149   4.534  10.257  0.9690  0.6772 -0.9867
  879MOL0     C18545  -0.121   4.533  10.105 -0.1348  0.7198 -0.4052
  879MOL0     C18546  -0.191   4.639  10.018  0.3969  0.3010 -0.2537
  879MOL0     N18547  -0.310   4.684  10.086 -0.6465 -0.4009  0.0457
  879MOL0     C18548  -0.425   4.612  10.107 -0.1946  0.9039  0.5408
  879MOL0     C18549  -0.524   4.693  10.160  0.0534  0.7419 -0.8624
  879MOL0     C18550  -0.657   4.658  10.204  0.1365 -0.3861 -0.0941
  879MOL0     C18551  -0.683   4.710  10.349  0.1047  0.6012 -0.1536
  879MOL0     C18552  -0.679   4.867  10.354  0.1891 -0.1051  0.6736
  879MOL0     C18553  -0.772   4.919  10.241  0.3620  1.0303  0.1746
  879MOL0     O18554  -0.901   4.855  10.236 -0.1120 -0.8292  0.1656
  879MOL0     C18555  -0.984   4.914  10.319 -0.6397 -0.2541  1.4947
  879MOL0     C18556  -0.991   4.873  10.452 -0.9679  0.9557 -0.0471
  879MOL0     C18557  -1.050   4.945  10.549 -0.0761 -0.1533  0.6898
  879MOL0     C18558  -1.128   5.055  10.510 -0.2326  0.7047 -0.7636
  879MOL0     C18559  -1.189   5.148  10.606  0.3354  0.0799 -0.0687
  879MOL0     O18560  -1.203   5.271  10.558 -0.2816 -1.4332 -0.1919
  879MOL0     C18561  -1.266   5.371  10.624  0.4715  0.3255  0.2956
  879MOL0     C18562  -1.366   5.363  10.721  0.4127 -0.5685  0.0249
  879MOL0     C18563  -1.416   5.482  10.780 -0.0005 -0.1008 -0.5411
  879MOL0     C18564  -1.377   5.608  10.745 -0.2060 -0.0722 -0.1142
  879MOL0     O18565  -1.442   5.708  10.810  0.6319 -0.2442 -0.5918
  879MOL0     C18566  -1.482   5.814  10.723 -0.4854  0.2486 -0.8074
  879MOL0     C18567  -1.566   5.923  10.799  0.2506 -0.5866 -0.6435
  879MOL0     C18568  -1.624   6.037  10.714  0.3412  0.1476  0.2073
  879MOL0     C18569  -1.741   5.984  10.624 -0.2756  0.5295  0.2859
  879MOL0     C18570  -1.762   6.076  10.505 -0.1065  0.4310  0.1981
  879MOL0     C18571  -1.909   6.068  10.454 -0.0791 -1.0960  0.3328
  879MOL0     C18572  -2.007   6.129  10.549  0.9837 -0.9927 -1.0944
  879MOL0     C18573  -2.010   6.284  10.538 -0.0166 -0.4253  0.2547
  879MOL0    Cl18574  -2.099   6.322  10.394 -0.4677 -0.2004 -0.4385
  879MOL0     C18575  -1.275   5.618  10.643 -0.3512 -0.4172 -0.4821
  879MOL0     C18576  -1.228   5.503  10.579 -1.0311  0.4804 -0.4445
  879MOL0     O18577  -1.197   5.117  10.725 -0.2456 -0.0802 -0.5186
  879MOL0     C18578  -1.145   5.084  10.373  0.3455  0.0969 -0.4288
  879MOL0     C18579  -1.061   5.019  10.277  0.3976  0.2483 -0.0179
  879MOL0     N18580  -0.463   4.819  10.164 -0.6143  0.6535 -0.6599
  879MOL0     N18581  -0.332   4.810  10.128  0.4259  0.0112 -0.1556
  879MOL0     C18582   0.178   4.276  10.958  0.1455  0.2169  0.7638
  879MOL0     C18583   0.236   4.176  11.046  0.0502 -0.0017 -0.7301
  879MOL0     C18584   0.580   3.930  11.212 -0.4371 -0.3850  0.8292
  879MOL0     C18585   0.560   3.797  11.249 -0.0864 -0.6408 -0.3222
  879MOL0     C18586   0.654   3.718  11.315  0.0987 -0.0080  0.2915
  879MOL0     C18587   0.775   3.771  11.350 -0.4440 -0.1525 -0.5703
  879MOL0     O18588   0.869   3.708  11.429  0.2223  0.4893  0.0382
  879MOL0     C18589   0.841   3.582  11.500  0.4569  1.2218 -0.7978
  879MOL0     C18590   0.954   3.529  11.579 -0.9525 -0.5176  0.2408
  879MOL0     C18591   1.027   3.629  11.664 -0.3532 -0.0053 -0.5212
  879MOL0     C18592   1.145   3.577  11.744 -0.7953  0.8403 -0.0772
  879MOL0     C18593   1.101   3.460  11.824  0.7490  0.2053  0.3749
  879MOL0     C18594   1.040   3.368  11.886  0.5598  0.8808 -0.0626
  879MOL0     C18595   0.812   3.909  11.303 -0.7135  0.0253 -0.0671
  879MOL0     C18596   0.713   3.981  11.235  0.7639  0.4898  1.0597
  879MOL0     C18597   0.751   4.117  11.188 -0.3789 -0.7157  0.2376
  879MOL0     H18598   0.515   4.368  11.135  0.8091 -0.1391 -0.6914
  879MOL0     H18599   0.401   4.528  10.988 -0.0210 -0.1779 -0.1362
  879MOL0     H18600   0.060   4.371  10.729  1.5513  1.0071  0.5068
  879MOL0     H18601  -0.000   4.469  10.857 -1.7678 -0.1188 -1.0895
  879MOL0     H18602   0.149   4.580  10.609  1.1498  0.4930  0.6118
  879MOL0     H18603   0.035   4.668  10.714 -1.5085 -1.2373  0.6115
  879MOL0     H18604  -0.148   4.539  10.649 -0.3390  2.1747  1.1645
  879MOL0     H18605  -0.040   4.457  10.517  3.3139  1.5624 -0.1009
  879MOL0     H18606  -0.209   4.680  10.481 -0.2280 -0.0869  2.7417
  879MOL0     H18607  -0.045   4.750  10.504 -0.7481  2.0594 -1.3224
  879MOL0     H18608  -0.070   4.741  10.289  0.4275  2.1789  3.2283
  879MOL0     H18609   0.043   4.615  10.327  0.7739  2.1979  1.2862
  879MOL0     H18610  -0.133   4.437  10.306 -3.1707  0.6999  0.7313
  879MOL0     H18611  -0.252   4.555  10.287  1.6788  0.8190  1.6335
  879MOL0     H18612  -0.153   4.436  10.068  1.9572  0.2647 -1.1922
  879MOL0     H18613  -0.012   4.530  10.097  0.4612 -2.2791  4.5439
  879MOL0     H18614  -0.128   4.726   9.996  1.9843 -1.0669 -1.2994
  879MOL0     H18615  -0.205   4.593   9.920  0.6856  0.2056 -0.2501
  879MOL0     H18616  -0.436   4.505  10.096 -1.6711  0.9456  1.3298
  879MOL0     H18617  -0.736   4.688  10.134 -0.1767 -0.8361  0.0586
  879MOL0     H18618  -0.650   4.549  10.209 -1.9647 -0.5700 -0.2746
  879MOL0     H18619  -0.783   4.681  10.385  0.8790 -1.0451  0.7795
  879MOL0     H18620  -0.610   4.652  10.406  0.8914  1.9424  0.2451
  879MOL0     H18621  -0.585   4.916  10.329 -0.4296 -0.5035 -3.0417
  879MOL0     H18622  -0.714   4.897  10.453 -3.1670  0.1723 -0.4698
  879MOL0     H18623  -0.724   4.897  10.145  0.5462 -3.2241  1.0203
  879MOL0     H18624  -0.790   5.026  10.245  2.7967  2.1481 -6.3700
  879MOL0     H18625  -0.947   4.786  10.499 -0.3537  0.9553 -0.6189
  879MOL0     H18626  -1.049   4.901  10.648 -0.2925  0.1937  0.8467
  879MOL0     H18627  -1.418   5.274  10.755  0.7124 -0.9500 -0.5081
  879MOL0     H18628  -1.491   5.472  10.858  0.6445  0.2295  0.1382
  879MOL0     H18629  -1.397   5.863  10.675  1.5125 -3.5058 -1.4019
  879MOL0     H18630  -1.544   5.767  10.646  2.0170 -1.3504 -1.9474
  879MOL0     H18631  -1.635   5.867  10.864  0.3395 -3.1504 -2.6181
  879MOL0     H18632  -1.504   5.962  10.880  1.9166 -2.4303 -0.9719
  879MOL0     H18633  -1.644   6.123  10.777  0.9985 -0.2642  0.9957
  879MOL0     H18634  -1.539   6.059  10.648 -1.1658 -0.0808 -1.9253
  879MOL0     H18635  -1.832   5.981  10.685 -0.8840 -0.7602 -0.6326
  879MOL0     H18636  -1.726   5.886  10.577  1.8546  2.3037 -3.1760
  879MOL0     H18637  -1.697   6.056  10.419 -0.9357  1.1566 -0.6175
  879MOL0     H18638  -1.738   6.177  10.538  1.0687 -0.2583  1.5858
  879MOL0     H18639  -1.922   6.109  10.353  2.3200 -3.8705 -1.2373
  879MOL0     H18640  -1.918   5.961  10.434  2.6298 -1.4968  0.9119
  879MOL0     H18641  -1.987   6.105  10.654 -0.8898  0.5011 -0.3450
  879MOL0     H18642  -2.106   6.087  10.526  1.8825 -3.0656 -1.3895
  879MOL0     H18643  -2.068   6.321  10.623 -2.0136  0.9772 -1.6083
  879MOL0     H18644  -1.916   6.339  10.542 -0.2591  0.0771 -0.6536
  879MOL0     H18645  -1.243   5.718  10.618 -0.8198 -0.5431 -1.6570
  879MOL0     H18646  -1.156   5.525  10.500  0.3857  0.8616  0.8996
  879MOL0     H18647  -1.201   5.170  10.339  2.1018  2.2129  1.7364
  879MOL0     H18648  -1.051   5.055  10.175 -1.7114  1.4837  0.1417
  879MOL0     H18649   0.085   4.260  10.905 -0.5075 -1.5160  2.3371
  879MOL0     H18650   0.191   4.077  11.049 -1.2535  0.5572 -1.4076
  879MOL0     H18651   0.464   3.752  11.225  1.2385 -2.4891 -2.6967
  879MOL0     H18652   0.641   3.617  11.351 -1.5576  0.9894  2.7564
  879MOL0     H18653   0.792   3.504  11.442  3.7942 -1.4957 -0.2353
  879MOL0     H18654   0.757   3.604  11.568  1.4175 -2.6960  1.9718
  879MOL0     H18655   1.025   3.476  11.515  1.6485  0.9163  1.7613
  879MOL0     H18656   0.908   3.457  11.647  0.2765  0.2234  1.9409
  879MOL0     H18657   0.950   3.673  11.727  0.2110 -0.4797  0.5244
  879MOL0     H18658   1.060   3.708  11.595  1.1903 -2.0752 -2.3095
  879MOL0     H18659   1.229   3.556  11.677  0.8305  2.3526  1.3857
  879MOL0     H18660   1.186   3.651  11.813 -0.0576 -0.2482  0.6765
  879MOL0     H18661   0.978   3.297  11.937 -0.8016  0.8071 -1.7206
  879MOL0     H18662   0.909   3.952  11.327  0.0905 -1.7467 -0.0004
  879MOL0     H18663   0.750   4.113  11.078  5.1603 -1.2023 -0.0843
  879MOL0     H18664   0.686   4.195  11.228  2.4658  2.0096 -0.0474
  879MOL0     H18665   0.854   4.146  11.212  0.3618 -0.4843 -2.8013
  880MOL0     O18666   2.500   2.334   3.240 -0.0884  0.4852  0.1567
  880MOL0     C18667   2.424   2.286   3.157  0.0409  0.0925 -0.5061
  880MOL0     O18668   2.451   2.184   3.067 -0.3805  0.1814 -0.2704
  880MOL0     C18669   2.573   2.135   3.051 -0.2754  0.2403  0.1059
  880MOL0     C18670   2.576   2.037   2.950  0.5922  0.2607  0.5323
  880MOL0     C18671   2.694   1.951   2.933 -0.2048 -0.6574  0.2427
  880MOL0     C18672   2.817   1.984   3.001  0.2609  0.3061  0.1686
  880MOL0     O18673   2.932   1.912   2.965  0.8719 -0.2288 -0.9731
  880MOL0     C18674   3.038   1.994   2.929  0.0862  0.3057  0.3296
  880MOL0     C18675   3.138   1.899   2.862  1.0450  0.4014 -0.9627
  880MOL0     C18676   3.242   1.977   2.779  0.7187  1.0833 -0.5330
  880MOL0     C18677   3.330   1.880   2.701  0.1374  0.5219  0.0350
  880MOL0     C18678   3.456   1.957   2.666 -0.0713  0.6150  0.3529
  880MOL0     C18679   3.533   1.879   2.556 -0.3331  0.2307 -0.2065
  880MOL0     C18680   3.661   1.929   2.498  0.4215 -0.5531 -0.6343
  880MOL0     C18681   3.778   1.947   2.603  0.8063  0.2366 -0.1288
  880MOL0     N18682   3.913   1.957   2.545 -0.3544  0.3262  0.2419
  880MOL0     C18683   4.026   1.923   2.608 -0.1843 -0.3906 -0.7066
  880MOL0     C18684   4.128   1.939   2.518  0.1481 -0.1101 -0.1406
  880MOL0     C18685   4.270   1.907   2.527  0.1863  0.2325 -0.1649
  880MOL0     C18686   4.283   1.762   2.463  0.1053 -1.0521  0.4235
  880MOL0     C18687   4.423   1.717   2.470 -1.1949  0.1933 -0.0772
  880MOL0     C18688   4.465   1.660   2.603  0.9592 -0.4991 -0.2044
  880MOL0     O18689   4.613   1.635   2.613 -0.0472 -0.3477  0.5406
  880MOL0     C18690   4.695   1.736   2.657 -0.0915 -1.1145  0.0226
  880MOL0     C18691   4.666   1.870   2.686 -0.3064 -0.5296  0.1272
  880MOL0     C18692   4.774   1.955   2.718  0.4182 -0.1577 -0.1427
  880MOL0     C18693   4.909   1.916   2.716 -0.0976 -0.5873 -0.2445
  880MOL0     C18694   5.009   2.019   2.758  0.1374  0.3375  0.7386
  880MOL0     O18695   4.975   2.151   2.752 -0.0080  0.3634  0.3095
  880MOL0     C18696   5.058   2.253   2.788 -0.3248  0.8172 -0.5934
  880MOL0     C18697   5.040   2.381   2.729 -0.2612  0.6482 -0.0307
  880MOL0     C18698   5.105   2.491   2.780  0.2362 -0.4385 -1.1774
  880MOL0     C18699   5.195   2.475   2.897  0.3452  0.0751  0.3242
  880MOL0     O18700   5.261   2.580   2.958  0.0422 -0.6066  0.2085
  880MOL0     C18701   5.272   2.706   2.883  0.5784  0.0070 -0.3704
  880MOL0     C18702   5.352   2.801   2.969  1.2614  0.4237  0.6140
  880MOL0     C18703   5.485   2.732   3.014 -0.8715 -0.0208  0.4878
  880MOL0     C18704   5.577   2.697   2.901  0.2608 -0.2087  0.3628
  880MOL0     C18705   5.693   2.799   2.891  0.1591  0.8291  1.5511
  880MOL0     C18706   5.797   2.747   2.789 -0.3780 -0.2558  0.4500
  880MOL0     C18707   5.919   2.841   2.776  1.0670  0.0342  0.4591
  880MOL0     C18708   5.977   2.812   2.644  0.6805  0.3995 -0.1600
  880MOL0    Cl18709   6.116   2.910   2.597 -0.0525  0.2220  0.3414
  880MOL0     C18710   5.223   2.349   2.948 -0.1807  0.5922 -1.1251
  880MOL0     C18711   5.159   2.238   2.892  0.1362  0.0182 -0.8880
  880MOL0     O18712   5.122   1.970   2.775 -0.2927 -0.1467  0.3732
  880MOL0     C18713   4.930   1.782   2.703  0.1478  0.3482  0.2385
  880MOL0     C18714   4.829   1.695   2.670 -0.1311 -0.2823 -0.0911
  880MOL0     N18715   4.066   1.994   2.400 -0.3945 -0.1414 -0.7525
  880MOL0     N18716   3.938   1.999   2.418  0.8516  0.3015  0.0289
  880MOL0     C18717   2.812   2.082   3.093 -0.5470  0.9294  0.8799
  880MOL0     C18718   2.700   2.160   3.119 -0.2987  0.7353 -0.3293
  880MOL0     C18719   2.283   2.345   3.172  0.6396  0.4453  0.0228
  880MOL0     C18720   2.252   2.443   3.273  0.7556 -0.4873  0.6884
  880MOL0     C18721   2.133   2.511   3.283  0.8778  0.7056  0.6608
  880MOL0     C18722   2.026   2.490   3.193 -0.0543 -0.7506 -0.2095
  880MOL0     O18723   1.910   2.558   3.187  0.3671  0.3081 -0.3804
  880MOL0     C18724   1.859   2.638   3.300 -0.4087  0.3480 -0.2577
  880MOL0     C18725   1.929   2.775   3.279  0.0212  0.3963 -0.0643
  880MOL0     C18726   1.849   2.837   3.165 -0.4007 -0.4980 -0.1837
  880MOL0     C18727   1.933   2.932   3.090  0.9171  0.5300 -0.1599
  880MOL0     C18728   1.939   3.058   3.167 -1.1667  0.0636 -0.4844
  880MOL0     C18729   1.950   3.161   3.220  0.0786 -0.0067 -0.9109
  880MOL0     C18730   2.048   2.392   3.103  0.3909  0.8727 -0.1551
  880MOL0     C18731   2.166   2.313   3.095 -0.6952 -0.0504 -0.0936
  880MOL0     C18732   2.171   2.213   2.982 -0.5600  0.4641  0.9569
  880MOL0     H18733   2.485   2.012   2.896 -0.8842  0.8509  2.5903
  880MOL0     H18734   2.698   1.869   2.862 -2.5594  0.5385 -1.4409
  880MOL0     H18735   3.002   2.081   2.872 -3.6295 -2.1233 -1.4442
  880MOL0     H18736   3.065   2.047   3.021 -0.9746 -0.8758  1.3544
  880MOL0     H18737   3.072   1.839   2.798 -2.9256  2.1091  1.1299
  880MOL0     H18738   3.184   1.843   2.944 -0.3332 -0.2340 -0.5836
  880MOL0     H18739   3.296   2.044   2.847  1.7365  0.7409 -0.9798
  880MOL0     H18740   3.195   2.051   2.713 -0.5870  0.2688 -0.5425
  880MOL0     H18741   3.360   1.799   2.768  1.0039  1.1724  0.4578
  880MOL0     H18742   3.271   1.832   2.622  1.1145 -5.1327  2.2768
  880MOL0     H18743   3.426   2.052   2.621 -1.3899  0.8039  1.5409
  880MOL0     H18744   3.536   1.968   2.740  0.8956  1.6544 -0.8005
  880MOL0     H18745   3.562   1.779   2.587  3.2125  1.4004  0.6657
  880MOL0     H18746   3.468   1.867   2.468 -0.7972  0.1937  0.1378
  880MOL0     H18747   3.640   2.019   2.440  1.6236  0.0967 -0.0905
  880MOL0     H18748   3.692   1.852   2.426 -2.8070 -2.8786  0.2062
  880MOL0     H18749   3.757   2.040   2.656 -0.3196 -1.6133  2.8711
  880MOL0     H18750   3.778   1.865   2.675  1.5391  0.4943  0.1825
  880MOL0     H18751   4.017   1.887   2.710  1.3043  0.1803 -0.3515
  880MOL0     H18752   4.325   1.969   2.455 -1.7111  2.1672 -0.0603
  880MOL0     H18753   4.307   1.914   2.629  0.6165 -1.5599 -0.1652
  880MOL0     H18754   4.213   1.702   2.520 -1.0723 -0.5566 -0.4718
  880MOL0     H18755   4.259   1.778   2.358  1.0565 -0.7027  0.2405
  880MOL0     H18756   4.496   1.796   2.450  0.6250 -1.3266  0.1984
  880MOL0     H18757   4.430   1.634   2.400  1.8235  2.8786 -3.3504
  880MOL0     H18758   4.400   1.571   2.605  1.4688 -1.0790 -3.4173
  880MOL0     H18759   4.426   1.730   2.677 -2.0215 -0.9199 -1.2332
  880MOL0     H18760   4.565   1.910   2.688  0.1779  0.7285  0.0986
  880MOL0     H18761   4.754   2.061   2.714  1.6540  0.0572 -2.1270
  880MOL0     H18762   4.976   2.384   2.641  1.4137 -1.5675 -1.4522
  880MOL0     H18763   5.091   2.588   2.732 -2.3240  0.1686  0.5666
  880MOL0     H18764   5.321   2.695   2.785 -0.3253 -0.4121 -0.7859
  880MOL0     H18765   5.174   2.752   2.870  0.4016 -0.5279 -0.9976
  880MOL0     H18766   5.378   2.892   2.915 -0.7845  0.5097 -0.3504
  880MOL0     H18767   5.293   2.833   3.055  0.7980 -1.0351  0.8770
  880MOL0     H18768   5.536   2.789   3.093  1.8222  1.0152 -1.8353
  880MOL0     H18769   5.461   2.643   3.073  0.6359 -0.6194  0.2498
  880MOL0     H18770   5.529   2.704   2.803  1.9016  0.7084 -0.4240
  880MOL0     H18771   5.627   2.599   2.893  1.0159  0.2402 -0.6495
  880MOL0     H18772   5.739   2.800   2.990 -0.2877  0.1926  1.7693
  880MOL0     H18773   5.653   2.898   2.865  0.7067  0.2292 -2.2485
  880MOL0     H18774   5.834   2.646   2.811  3.7873  0.4896 -2.1473
  880MOL0     H18775   5.753   2.733   2.690  4.0609  2.9296 -2.3188
  880MOL0     H18776   5.982   2.822   2.864  0.8936 -2.8912  0.0380
  880MOL0     H18777   5.874   2.941   2.769 -2.3011 -1.2785  1.5539
  880MOL0     H18778   5.985   2.704   2.628  1.2411  0.8149 -3.2690
  880MOL0     H18779   5.894   2.837   2.577 -1.2575 -3.9224  0.2970
  880MOL0     H18780   5.296   2.329   3.026  0.6582 -2.1516 -2.4852
  880MOL0     H18781   5.159   2.143   2.945  0.9651  0.8443  0.6393
  880MOL0     H18782   5.029   1.739   2.714  1.5359  3.9507  4.4546
  880MOL0     H18783   4.856   1.596   2.636  0.7501 -0.0741 -0.0124
  880MOL0     H18784   2.897   2.088   3.160 -0.8337 -1.8561  1.5916
  880MOL0     H18785   2.705   2.236   3.196 -1.6488  1.1221 -0.5889
  880MOL0     H18786   2.325   2.482   3.343  0.0721  2.9447 -0.3324
  880MOL0     H18787   2.130   2.579   3.368  0.3167 -0.2598  1.4355
  880MOL0     H18788   1.890   2.597   3.397 -1.2873  1.9129  0.7250
  880MOL0     H18789   1.752   2.657   3.311 -1.1889 -2.1873 -2.4552
  880MOL0     H18790   2.038   2.776   3.267  0.1954 -3.3682  0.2182
  880MOL0     H18791   1.915   2.835   3.370 -4.0593 -0.6742  0.2211
  880MOL0     H18792   1.752   2.877   3.194 -1.0338 -1.4027 -1.0011
  880MOL0     H18793   1.831   2.752   3.099  0.5789  1.0620 -2.5862
  880MOL0     H18794   2.030   2.885   3.073  0.2591 -1.7495  1.8309
  880MOL0     H18795   1.888   2.944   2.992  0.9340 -1.7251 -0.4912
  880MOL0     H18796   1.967   3.255   3.269 -0.3023 -0.5817  0.3597
  880MOL0     H18797   1.962   2.370   3.041  2.6271  0.5098 -3.3670
  880MOL0     H18798   2.170   2.109   3.016  2.7377  0.5233  1.5706
  880MOL0     H18799   2.084   2.231   2.918 -0.8694  2.2796  1.8295
  880MOL0     H18800   2.267   2.220   2.930 -0.9262 -1.7179 -0.1232
  881MOL0     O18801   6.213   6.452  10.779 -0.3734  0.0990  0.2017
  881MOL0     C18802   6.291   6.471  10.873  0.3774 -0.9608 -0.3685
  881MOL0     O18803   6.402   6.554  10.868  0.7027  0.3115  0.4454
  881MOL0     C18804   6.375   6.666  10.798  0.5550 -0.9260 -1.1444
  881MOL0     C18805   6.412   6.690  10.660  0.3130 -0.1605 -0.0903
  881MOL0     C18806   6.382   6.812  10.582  0.3914  0.2701 -0.4059
  881MOL0     C18807   6.327   6.921  10.653 -0.1520 -0.4769  0.4785
  881MOL0     O18808   6.300   7.030  10.585 -0.1276 -0.3948  0.0827
  881MOL0     C18809   6.410   7.113  10.586 -0.5983 -0.9680 -0.3379
  881MOL0     C18810   6.368   7.264  10.601  0.1994  0.0411 -0.6700
  881MOL0     C18811   6.462   7.366  10.681  0.3329 -0.6415 -0.2602
  881MOL0     C18812   6.475   7.334  10.825  0.0658  0.0592  1.0559
  881MOL0     C18813   6.584   7.420  10.887 -0.1793  0.0429 -0.4703
  881MOL0     C18814   6.549   7.573  10.899 -0.1333  0.1309  0.6460
  881MOL0     C18815   6.640   7.654  10.998  0.3325  0.2409  0.1722
  881MOL0     C18816   6.602   7.803  11.019 -0.4036 -0.0521  0.2640
  881MOL0     N18817   6.621   7.877  10.894  0.0422  0.2805 -0.4456
  881MOL0     C18818   6.533   7.968  10.837  0.7152  0.0815  0.0632
  881MOL0     C18819   6.611   8.038  10.753  0.1126 -1.3083  0.2678
  881MOL0     C18820   6.561   8.138  10.648  0.3771  0.4127 -0.4202
  881MOL0     C18821   6.630   8.269  10.680 -0.2661  0.1408 -0.3092
  881MOL0     C18822   6.606   8.381  10.577  0.1446 -0.1455  0.5112
  881MOL0     C18823   6.667   8.514  10.621  0.2876 -0.0114  0.0124
  881MOL0     O18824   6.683   8.581  10.494 -0.5417  0.6567 -0.8372
  881MOL0     C18825   6.791   8.664  10.486  0.8485  0.5873  0.6018
  881MOL0     C18826   6.851   8.689  10.359 -0.0430 -1.0640 -0.1012
  881MOL0     C18827   6.952   8.792  10.345  0.7446 -0.4093 -0.2961
  881MOL0     C18828   6.982   8.880  10.440 -0.1917 -1.0009  0.2239
  881MOL0     C18829   7.076   8.986  10.410 -0.0074  0.4269  0.3425
  881MOL0     O18830   7.070   9.039  10.278  0.6985  1.2511 -0.0126
  881MOL0     C18831   7.162   9.129  10.235  0.0789  0.4645  0.4418
  881MOL0     C18832   7.298   9.103  10.242 -0.1210  0.4552  0.0375
  881MOL0     C18833   7.389   9.195  10.202 -0.5749  1.0345  1.9301
  881MOL0     C18834   7.345   9.312  10.141 -0.0548  0.4022 -0.7362
  881MOL0     O18835   7.445   9.403  10.109 -0.2765  0.1311 -0.4290
  881MOL0     C18836   7.399   9.526  10.038 -0.4256  0.4169 -0.6928
  881MOL0     C18837   7.519   9.618  10.001 -1.6341  0.8334  0.3671
  881MOL0     C18838   7.468   9.724   9.905 -0.1380 -0.3047 -0.1055
  881MOL0     C18839   7.575   9.757   9.801 -1.1753  0.0634 -0.8737
  881MOL0     C18840   7.536   9.844   9.682 -1.0514 -0.9269  0.1006
  881MOL0     C18841   7.654   9.857   9.583  1.3933  0.1673  0.2089
  881MOL0     C18842   7.635   9.970   9.469 -0.5002 -0.1443  0.4545
  881MOL0     C18843   7.761  10.025   9.419  0.1843 -0.5781 -0.0290
  881MOL0    Cl18844   7.855  10.101   9.566  0.7981  0.0854  0.1916
  881MOL0     C18845   7.207   9.335  10.126  0.4364  0.3466  0.8062
  881MOL0     C18846   7.108   9.242  10.165 -0.3578 -0.6465 -0.8001
  881MOL0     O18847   7.168   9.000  10.495  1.2587  0.3600  0.5775
  881MOL0     C18848   6.905   8.868  10.561  0.0984 -0.4910  0.2981
  881MOL0     C18849   6.817   8.757  10.587 -0.5035 -0.2324  0.2703
  881MOL0     N18850   6.738   8.000  10.768 -1.0973 -0.0387 -0.5387
  881MOL0     N18851   6.745   7.902  10.848 -0.7726 -0.0870 -0.2932
  881MOL0     C18852   6.313   6.911  10.792 -0.5559  0.8024 -0.7070
  881MOL0     C18853   6.329   6.783  10.863  0.7392 -0.3830 -0.4017
  881MOL0     C18854   6.268   6.387  11.001  0.4919 -0.7078 -0.2621
  881MOL0     C18855   6.159   6.303  11.001  0.1686 -0.2725 -0.2999
  881MOL0     C18856   6.124   6.229  11.108 -0.8138 -0.8618  0.1108
  881MOL0     C18857   6.211   6.230  11.221 -0.0841  0.4323  0.3051
  881MOL0     O18858   6.191   6.148  11.329  0.1908 -0.3476  0.2364
  881MOL0     C18859   6.127   6.021  11.318 -0.8730  0.7798 -0.0012
  881MOL0     C18860   6.231   5.901  11.324 -0.3914 -0.3522 -0.5266
  881MOL0     C18861   6.326   5.931  11.442 -0.0931  0.0132  0.7905
  881MOL0     C18862   6.414   5.811  11.476 -0.2491  1.1623 -0.0302
  881MOL0     C18863   6.518   5.833  11.573 -0.7060 -0.6265  0.3155
  881MOL0     C18864   6.613   5.874  11.639  0.0227 -0.2339  0.1197
  881MOL0     C18865   6.326   6.298  11.218  0.3805  0.2337  0.0175
  881MOL0     C18866   6.362   6.383  11.114  0.4292  0.8656  0.0215
  881MOL0     C18867   6.475   6.483  11.121  0.1949 -0.9506 -0.8205
  881MOL0     H18868   6.439   6.597  10.613  1.6300  1.7719 -3.5052
  881MOL0     H18869   6.409   6.826  10.478 -0.9695 -1.1064 -0.9821
  881MOL0     H18870   6.471   7.083  10.672 -2.6555 -1.2764  1.0967
  881MOL0     H18871   6.459   7.115  10.489 -1.2856  0.4853 -0.6890
  881MOL0     H18872   6.280   7.260  10.665  0.7945 -1.7257  0.1155
  881MOL0     H18873   6.350   7.301  10.500  0.5946 -1.5616 -1.3567
  881MOL0     H18874   6.442   7.472  10.660  0.6119 -0.4674  0.3304
  881MOL0     H18875   6.564   7.350  10.645 -0.0695 -0.4304 -1.5263
  881MOL0     H18876   6.380   7.351  10.877 -1.1774 -2.9984 -0.0097
  881MOL0     H18877   6.494   7.226  10.824 -1.8182 -0.4383 -3.2252
  881MOL0     H18878   6.601   7.385  10.989 -2.2631  0.6578  0.1468
  881MOL0     H18879   6.676   7.406  10.829 -0.6795 -1.2110 -0.9976
  881MOL0     H18880   6.550   7.614  10.797  1.6485 -2.7763 -0.6603
  881MOL0     H18881   6.451   7.556  10.943  0.3991 -1.1765  1.3887
  881MOL0     H18882   6.739   7.654  10.952 -0.5830 -2.5387 -2.1109
  881MOL0     H18883   6.645   7.602  11.094 -1.7710  2.0702  1.3755
  881MOL0     H18884   6.498   7.807  11.054  0.2134 -2.0533  2.6260
  881MOL0     H18885   6.670   7.854  11.088  0.4677  1.3541 -1.5561
  881MOL0     H18886   6.425   7.977  10.842  0.8463  2.7062 -0.3986
  881MOL0     H18887   6.605   8.107  10.553 -2.5353 -0.5068 -1.5628
  881MOL0     H18888   6.452   8.140  10.643  0.3296 -2.1051 -3.4756
  881MOL0     H18889   6.600   8.301  10.780 -0.0654 -0.8054  0.0603
  881MOL0     H18890   6.738   8.256  10.689  0.3314  3.6477 -0.8507
  881MOL0     H18891   6.498   8.395  10.568 -0.1694 -2.0530  0.9110
  881MOL0     H18892   6.646   8.343  10.482 -0.7122  2.7026 -1.0983
  881MOL0     H18893   6.759   8.488  10.676 -0.5995  0.4498  1.7805
  881MOL0     H18894   6.607   8.569  10.693 -2.1634 -3.1391  0.5743
  881MOL0     H18895   6.813   8.631  10.275 -1.1302 -0.3419 -0.1271
  881MOL0     H18896   6.997   8.807  10.247  0.3061  1.3589 -0.2601
  881MOL0     H18897   7.339   9.012  10.285 -0.6974 -0.3421 -1.0245
  881MOL0     H18898   7.494   9.168  10.193 -1.1613 -0.9417  0.4579
  881MOL0     H18899   7.346   9.484   9.952  1.2065 -1.6594 -0.7636
  881MOL0     H18900   7.333   9.583  10.104  3.1253  2.8875  1.0336
  881MOL0     H18901   7.571   9.670  10.082 -0.9338 -0.0492  0.4942
  881MOL0     H18902   7.598   9.565   9.948  0.8351  1.9950  2.6456
  881MOL0     H18903   7.375   9.701   9.853 -0.0573 -0.4444 -0.1885
  881MOL0     H18904   7.449   9.814   9.964  0.3424 -0.8927  0.9779
  881MOL0     H18905   7.624   9.662   9.779  1.9957 -0.3647  5.5375
  881MOL0     H18906   7.658   9.800   9.857 -1.9907 -1.1877  1.4412
  881MOL0     H18907   7.512   9.947   9.712 -2.2478 -0.5557 -1.9330
  881MOL0     H18908   7.446   9.816   9.627 -0.1433 -0.5733 -1.6298
  881MOL0     H18909   7.750   9.869   9.634  2.2229  1.2388 -1.5068
  881MOL0     H18910   7.654   9.760   9.532  0.2654  0.4292 -0.3300
  881MOL0     H18911   7.573  10.051   9.508 -0.1090  0.1491  0.4723
  881MOL0     H18912   7.577   9.924   9.389 -1.6092  2.0173 -0.0678
  881MOL0     H18913   7.818   9.940   9.379 -0.5641 -1.9917  1.7473
  881MOL0     H18914   7.750  10.106   9.347  0.8342 -0.7459 -0.3265
  881MOL0     H18915   7.164   9.419  10.073  1.6759 -0.3834 -1.5081
  881MOL0     H18916   7.003   9.270  10.172 -0.7404 -2.2599  0.7960
  881MOL0     H18917   6.904   8.952  10.630 -5.6467 -1.6200  2.1615
  881MOL0     H18918   6.755   8.760  10.676  0.4573  2.9076  0.9690
  881MOL0     H18919   6.279   6.998  10.846 -1.0894 -0.9073  1.9097
  881MOL0     H18920   6.305   6.794  10.968 -3.7375  0.4268 -1.3260
  881MOL0     H18921   6.090   6.300  10.917 -2.4226  1.3473  1.6107
  881MOL0     H18922   6.030   6.174  11.105 -1.0914 -0.3664 -0.8924
  881MOL0     H18923   6.070   6.017  11.225 -2.1653 -0.4780  0.8006
  881MOL0     H18924   6.057   6.015  11.402 -2.6665  4.1285 -1.1056
  881MOL0     H18925   6.299   5.894  11.239  0.0382  0.6357 -0.2824
  881MOL0     H18926   6.172   5.810  11.336  0.5204 -0.9391 -0.4509
  881MOL0     H18927   6.276   5.972  11.530 -1.6631  1.2175 -0.6048
  881MOL0     H18928   6.388   6.017  11.415 -0.8458  0.0883 -0.8030
  881MOL0     H18929   6.347   5.740  11.525  2.5065 -2.3850 -0.8734
  881MOL0     H18930   6.460   5.759  11.391 -0.9067  0.7682 -0.1473
  881MOL0     H18931   6.700   5.897  11.697 -0.1375  3.4663 -0.8523
  881MOL0     H18932   6.373   6.320  11.313 -3.1333 -2.1845  2.5967
  881MOL0     H18933   6.557   6.466  11.051  2.8553 -0.2550  1.9295
  881MOL0     H18934   6.436   6.584  11.105 -3.7061 -2.3012 -0.8490
  881MOL0     H18935   6.529   6.473  11.215  3.3131 -4.3329 -2.7315
  882MOL0     O18936  11.170   4.746   2.114  0.1000  0.1190 -0.6238
  882MOL0     C18937  11.189   4.864   2.120  0.1503 -0.0622  0.3696
  882MOL0     O18938  11.278   4.934   2.040 -0.5320  0.2787  1.3291
  882MOL0     C18939  11.338   4.859   1.941  0.7859  0.0847 -0.0817
  882MOL0     C18940  11.460   4.799   1.963  0.0574 -1.1427 -0.1796
  882MOL0     C18941  11.522   4.720   1.869 -0.1470 -0.5143  0.3129
  882MOL0     C18942  11.458   4.701   1.748  0.6359 -0.3564 -0.0762
  882MOL0     O18943  11.518   4.633   1.645 -0.6026 -0.4143 -0.1551
  882MOL0     C18944  11.452   4.515   1.605 -0.1557 -0.9075 -0.0045
  882MOL0     C18945  11.466   4.410   1.724  0.3060 -0.1361  0.1571
  882MOL0     C18946  11.472   4.261   1.683 -0.0148  0.4428  0.3991
  882MOL0     C18947  11.462   4.154   1.792  0.0503 -0.0203  0.2472
  882MOL0     C18948  11.455   4.010   1.738  0.4196 -0.2827 -0.0242
  882MOL0     C18949  11.590   3.962   1.683 -0.2865  0.5961 -0.2393
  882MOL0     C18950  11.693   3.928   1.798 -0.3474  0.1516  0.6272
  882MOL0     C18951  11.834   3.924   1.744 -0.7767  0.7190 -0.4165
  882MOL0     N18952  11.878   3.812   1.663  0.6791 -0.3926 -0.1513
  882MOL0     C18953  11.929   3.835   1.542 -0.2555  0.0133  0.6857
  882MOL0     C18954  11.951   3.714   1.495 -0.7371  0.2723 -0.4396
  882MOL0     C18955  11.976   3.677   1.354 -0.0873  0.1795  0.3549
  882MOL0     C18956  11.884   3.559   1.299 -0.2564 -0.4758  0.2525
  882MOL0     C18957  11.739   3.600   1.314 -0.1100 -0.3520  0.0477
  882MOL0     C18958  11.643   3.468   1.295 -0.4658 -0.3672  0.3448
  882MOL0     O18959  11.504   3.496   1.326 -0.1029  0.0656 -0.6482
  882MOL0     C18960  11.472   3.523   1.456 -0.0100  0.4787  0.1295
  882MOL0     C18961  11.549   3.497   1.574 -0.0426 -0.3289  0.1727
  882MOL0     C18962  11.508   3.550   1.694  0.3006 -0.4638  0.1673
  882MOL0     C18963  11.393   3.625   1.712 -0.5355  0.5698  0.2796
  882MOL0     C18964  11.345   3.675   1.842 -0.2722 -0.8211 -0.5644
  882MOL0     O18965  11.210   3.701   1.847  1.2906 -0.3394 -0.6655
  882MOL0     C18966  11.176   3.760   1.963  0.1501 -0.2744 -0.6711
  882MOL0     C18967  11.163   3.683   2.080 -0.0364 -0.7259 -0.1324
  882MOL0     C18968  11.123   3.756   2.198  0.0022 -0.1515  0.0028
  882MOL0     C18969  11.114   3.895   2.201 -0.4042 -0.1653  0.2409
  882MOL0     O18970  11.075   3.963   2.308 -0.0336 -0.2263 -0.2249
  882MOL0     C18971  11.144   3.945   2.435 -0.0733  0.3701 -0.5270
  882MOL0     C18972  11.083   4.007   2.555  0.9245  0.5594  0.3659
  882MOL0     C18973  11.083   3.909   2.676 -0.3532  0.2918  1.4758
  882MOL0     C18974  10.973   3.810   2.658  0.1787  0.6782 -0.3504
  882MOL0     C18975  10.964   3.720   2.785 -0.4364 -0.4376 -0.2430
  882MOL0     C18976  10.858   3.609   2.778  0.3034  0.4050 -0.1266
  882MOL0     C18977  10.711   3.643   2.787  1.3007  0.0828  0.4050
  882MOL0     C18978  10.632   3.574   2.672 -0.1515 -0.7236  0.4608
  882MOL0    Cl18979  10.697   3.636   2.507 -0.5271  0.3060 -0.3265
  882MOL0     C18980  11.126   3.963   2.081 -1.4827 -1.4910 -0.7464
  882MOL0     C18981  11.150   3.897   1.964 -0.1859 -0.1599 -0.6974
  882MOL0     O18982  11.431   3.699   1.929 -0.0225 -0.6341 -1.1199
  882MOL0     C18983  11.309   3.623   1.599 -0.0306 -0.5204  0.1807
  882MOL0     C18984  11.346   3.574   1.478 -0.1768  0.2152 -0.6009
  882MOL0     N18985  11.923   3.623   1.593  0.6553 -0.6914 -1.0274
  882MOL0     N18986  11.901   3.683   1.710 -0.3123  0.3422 -0.0028
  882MOL0     C18987  11.337   4.762   1.717 -0.2306 -0.3156 -1.2649
  882MOL0     C18988  11.279   4.850   1.817  0.3598 -0.1800 -0.0419
  882MOL0     C18989  11.094   4.942   2.216 -1.2074  0.1176  0.9206
  882MOL0     C18990  11.078   4.895   2.345 -0.7410 -0.2827 -0.3176
  882MOL0     C18991  10.996   4.952   2.444 -0.1525 -0.0575 -0.5842
  882MOL0     C18992  10.918   5.059   2.406  0.6271 -0.4989 -0.8487
  882MOL0     O18993  10.823   5.092   2.499  0.2539  0.0772 -0.5072
  882MOL0     C18994  10.778   5.221   2.511 -0.4188  0.1075 -0.3170
  882MOL0     C18995  10.879   5.317   2.561 -0.4822  0.2861  0.0353
  882MOL0     C18996  10.908   5.294   2.710  0.3825 -0.2998 -0.7983
  882MOL0     C18997  10.986   5.416   2.773  0.2462  0.5581 -0.7721
  882MOL0     C18998  11.037   5.368   2.896  0.7566  0.5797 -1.0124
  882MOL0     C18999  11.069   5.309   3.000  1.0173 -0.2245 -0.0477
  882MOL0     C19000  10.931   5.113   2.279 -0.7773  0.0003 -0.2427
  882MOL0     C19001  11.023   5.059   2.184  0.1620  0.3093 -0.4298
  882MOL0     C19002  11.028   5.127   2.046 -0.3763  0.3621  0.7574
  882MOL0     H19003  11.521   4.810   2.052  1.6220  1.7419 -1.4774
  882MOL0     H19004  11.627   4.694   1.874  0.0386 -0.1799 -1.2491
  882MOL0     H19005  11.347   4.524   1.577 -0.5920 -0.5256  1.6085
  882MOL0     H19006  11.491   4.477   1.510  0.9438  2.5758 -1.0827
  882MOL0     H19007  11.394   4.435   1.803 -1.2158 -2.0571 -0.5452
  882MOL0     H19008  11.563   4.424   1.772  0.2804  0.9038 -0.0643
  882MOL0     H19009  11.568   4.248   1.632  0.3642  1.5233  0.8009
  882MOL0     H19010  11.391   4.233   1.615  0.8174  2.2132 -1.4481
  882MOL0     H19011  11.548   4.172   1.857  0.1223 -1.2014  0.5064
  882MOL0     H19012  11.366   4.173   1.840  0.1755 -1.0224  0.9101
  882MOL0     H19013  11.436   3.955   1.830  0.7533 -0.2058  0.0933
  882MOL0     H19014  11.376   3.999   1.663  1.3768 -0.3022 -1.0605
  882MOL0     H19015  11.560   3.871   1.630 -2.2007  0.0585  1.6377
  882MOL0     H19016  11.637   4.043   1.627 -0.6709  2.3864  1.8673
  882MOL0     H19017  11.668   3.837   1.853  0.0972 -0.7384 -0.5823
  882MOL0     H19018  11.694   4.011   1.868  3.6263 -2.6224  4.3525
  882MOL0     H19019  11.858   4.016   1.688  1.7668  1.0986  1.1025
  882MOL0     H19020  11.902   3.929   1.830 -2.4255 -1.1119  1.0561
  882MOL0     H19021  11.941   3.925   1.483  0.6386 -1.3638 -1.3748
  882MOL0     H19022  11.964   3.756   1.279 -1.4300 -0.9404 -0.6620
  882MOL0     H19023  12.078   3.643   1.339  0.1718  1.1505 -0.2209
  882MOL0     H19024  11.901   3.543   1.192 -3.0497 -1.5570 -0.1153
  882MOL0     H19025  11.897   3.461   1.346 -2.0273 -0.9509 -0.1987
  882MOL0     H19026  11.702   3.669   1.238 -0.2834  0.2598  0.6733
  882MOL0     H19027  11.714   3.659   1.403 -1.5163  1.6584 -1.5902
  882MOL0     H19028  11.661   3.383   1.362  2.3396 -1.7465 -1.9238
  882MOL0     H19029  11.643   3.439   1.190  0.2443 -0.3051  0.3256
  882MOL0     H19030  11.650   3.456   1.580 -0.2539 -0.6814  2.2088
  882MOL0     H19031  11.573   3.534   1.780  1.6199 -2.1164 -1.0779
  882MOL0     H19032  11.153   3.575   2.080 -0.9083 -0.6589 -0.9003
  882MOL0     H19033  11.109   3.698   2.288 -1.6315 -0.9219 -0.7058
  882MOL0     H19034  11.153   3.837   2.450  0.2625  0.6011  1.0727
  882MOL0     H19035  11.248   3.980   2.436  0.0955  0.1126  3.3634
  882MOL0     H19036  11.134   4.099   2.582 -0.6609  1.9442 -1.1185
  882MOL0     H19037  10.983   4.046   2.534  0.6298  0.0696  0.8362
  882MOL0     H19038  11.178   3.855   2.678  2.1587  3.9466 -2.0125
  882MOL0     H19039  11.067   3.960   2.771 -3.9857  1.1264  0.5569
  882MOL0     H19040  10.990   3.746   2.571 -1.8067  2.3758 -2.1351
  882MOL0     H19041  10.874   3.854   2.643 -0.9146 -1.0529  1.3120
  882MOL0     H19042  10.947   3.800   2.857  3.0174  2.7618 -2.6094
  882MOL0     H19043  11.060   3.669   2.803 -0.6078 -0.1629  1.6404
  882MOL0     H19044  10.866   3.580   2.673  0.0196 -0.4387  0.0788
  882MOL0     H19045  10.885   3.531   2.849  0.1872  0.1178 -0.3984
  882MOL0     H19046  10.685   3.749   2.797  2.0056  0.4431 -1.3780
  882MOL0     H19047  10.671   3.595   2.878 -0.8695 -0.6819 -0.8712
  882MOL0     H19048  10.651   3.466   2.673 -2.3621 -1.1538  1.0891
  882MOL0     H19049  10.525   3.595   2.679 -0.6127 -2.9630  0.9447
  882MOL0     H19050  11.123   4.071   2.091 -0.3776 -1.4317 -0.9256
  882MOL0     H19051  11.169   3.944   1.869  1.7292 -1.2661 -0.9078
  882MOL0     H19052  11.211   3.668   1.611 -0.7814 -2.5469  2.4563
  882MOL0     H19053  11.265   3.575   1.405  0.1703 -1.3496 -1.0289
  882MOL0     H19054  11.293   4.760   1.618  0.5154 -1.3519 -1.5946
  882MOL0     H19055  11.184   4.892   1.786  0.3849 -1.0408 -1.3612
  882MOL0     H19056  11.129   4.805   2.375 -0.7134 -0.5260 -1.0744
  882MOL0     H19057  10.971   4.899   2.535  0.6159 -0.1254 -0.4061
  882MOL0     H19058  10.699   5.225   2.587  2.6060 -2.1637  3.2978
  882MOL0     H19059  10.752   5.257   2.411 -0.2247 -0.4333 -0.5709
  882MOL0     H19060  10.839   5.418   2.549  1.9301  1.3288  0.2269
  882MOL0     H19061  10.965   5.305   2.495 -0.9598  0.1938 -0.5893
  882MOL0     H19062  10.971   5.205   2.721  2.0778  0.9456  0.1595
  882MOL0     H19063  10.817   5.271   2.767  0.3206  2.2439  0.2489
  882MOL0     H19064  11.077   5.438   2.716  0.6195  2.0965  0.3720
  882MOL0     H19065  10.920   5.502   2.788 -2.4741 -1.2657 -1.4062
  882MOL0     H19066  11.083   5.243   3.083  2.2840  1.8050  1.4507
  882MOL0     H19067  10.854   5.182   2.247  0.9388  0.6721 -3.3172
  882MOL0     H19068  10.939   5.100   1.988  2.0719  2.2383 -4.5343
  882MOL0     H19069  11.036   5.236   2.048 -4.4208  0.9133 -1.3795
  882MOL0     H19070  11.110   5.095   1.981 -2.7984 -1.3933 -1.6897
  883MOL0     O19071   9.117   0.483  10.522 -0.5164  0.7412 -0.0045
  883MOL0     C19072   9.038   0.409  10.455  1.0347 -1.3553  0.6874
  883MOL0     O19073   9.004   0.437  10.321 -0.2896 -0.6579 -0.2484
  883MOL0     C19074   9.076   0.530  10.253 -0.7337  0.1525 -0.2115
  883MOL0     C19075   9.014   0.595  10.149  0.4850  0.3490 -1.6589
  883MOL0     C19076   9.068   0.688  10.059 -0.1680  0.0898 -0.2153
  883MOL0     C19077   9.204   0.705  10.071 -0.7314 -0.4468  0.0450
  883MOL0     O19078   9.257   0.803   9.989  0.0881  0.4822  0.6657
  883MOL0     C19079   9.203   0.933  10.003  0.6870  0.2131  0.1718
  883MOL0     C19080   9.309   1.041  10.013 -0.2567 -0.3226  0.5617
  883MOL0     C19081   9.249   1.181  10.005  0.0403  0.2273 -0.7668
  883MOL0     C19082   9.349   1.279   9.960 -0.6264  0.3548 -0.2669
  883MOL0     C19083   9.478   1.287  10.045  0.2457 -0.4905  1.0792
  883MOL0     C19084   9.459   1.349  10.187 -0.2679  0.2474  0.4865
  883MOL0     C19085   9.595   1.385  10.235  1.5650 -0.8365  0.7942
  883MOL0     C19086   9.575   1.450  10.373  0.8909 -0.4139  0.2812
  883MOL0     N19087   9.703   1.508  10.420  0.2848  0.2526  0.0192
  883MOL0     C19088   9.764   1.626  10.367  0.4590 -1.3806 -0.1458
  883MOL0     C19089   9.846   1.664  10.471  0.3623  0.3669 -0.3590
  883MOL0     C19090   9.954   1.768  10.475 -0.1194  0.6300 -0.2776
  883MOL0     C19091   9.965   1.860  10.354 -0.0577 -0.8642  0.0368
  883MOL0     C19092  10.007   1.792  10.225 -0.4337 -0.0290  0.5603
  883MOL0     C19093   9.942   1.870  10.103 -1.0424 -0.1411 -0.4122
  883MOL0     O19094   9.969   2.010  10.114 -0.3570 -0.4155  0.5943
  883MOL0     C19095  10.091   2.049  10.072 -0.2517 -0.0803 -0.6929
  883MOL0     C19096  10.100   2.189  10.096 -0.1354  0.9427 -0.1562
  883MOL0     C19097  10.214   2.256  10.060 -0.7131  0.0002 -0.1969
  883MOL0     C19098  10.321   2.183  10.011  0.3789  0.2271 -0.7842
  883MOL0     C19099  10.445   2.261   9.985 -0.1451  0.8615 -0.4176
  883MOL0     O19100  10.452   2.384  10.045 -0.0911 -0.7394 -0.3264
  883MOL0     C19101  10.564   2.454  10.023  0.0352 -1.1880  0.1659
  883MOL0     C19102  10.604   2.480   9.892  1.5157  0.4525  0.9823
  883MOL0     C19103  10.710   2.555   9.859 -0.8691  0.4094  0.2585
  883MOL0     C19104  10.788   2.619   9.964 -0.2780  0.0541 -0.3067
  883MOL0     O19105  10.894   2.700   9.945 -1.0492  0.3036  0.3846
  883MOL0     C19106  10.862   2.834   9.894 -0.6364 -0.2898  0.6062
  883MOL0     C19107  10.967   2.944   9.943 -0.6576  0.5915 -0.3073
  883MOL0     C19108  10.943   2.973  10.082 -0.9100 -0.3453 -0.6334
  883MOL0     C19109  11.055   3.070  10.130  0.1202 -0.3880 -0.6438
  883MOL0     C19110  11.052   3.072  10.286 -0.1666  0.2489 -0.4242
  883MOL0     C19111  10.935   3.140  10.338  0.3106  0.0306 -0.7624
  883MOL0     C19112  10.919   3.114  10.492 -0.6270  0.1017  0.5855
  883MOL0     C19113  10.786   3.179  10.541  0.7087 -0.4369  0.1107
  883MOL0    Cl19114  10.639   3.102  10.475  0.4196 -0.0525  0.8231
  883MOL0     C19115  10.752   2.603  10.095  0.4454  0.8194  0.4817
  883MOL0     C19116  10.635   2.526  10.123  0.2762  0.0196 -0.2582
  883MOL0     O19117  10.535   2.204   9.918 -0.9203  0.0501  0.3408
  883MOL0     C19118  10.303   2.043   9.979  0.5483  0.9263  0.0844
  883MOL0     C19119  10.188   1.976  10.012  0.1081 -0.7084 -0.2623
  883MOL0     N19120   9.857   1.558  10.563 -0.7440  0.1465 -0.0874
  883MOL0     N19121   9.768   1.469  10.532  1.1028  0.0006 -0.3232
  883MOL0     C19122   9.272   0.642  10.170 -0.0279 -0.0410  1.1025
  883MOL0     C19123   9.217   0.550  10.259 -0.5757 -0.9740  0.1575
  883MOL0     C19124   8.968   0.284  10.503  0.0678 -1.0725 -0.8928
  883MOL0     C19125   8.903   0.203  10.409 -0.1082 -0.5718 -0.2489
  883MOL0     C19126   8.830   0.088  10.446  0.7802  0.2596  0.9068
  883MOL0     C19127   8.824   0.046  10.577  0.0995  0.8054  1.2909
  883MOL0     O19128   8.758  -0.073  10.591  0.1599 -0.1428 -0.1274
  883MOL0     C19129   8.763  -0.144  10.717  0.5185  0.0937  0.5044
  883MOL0     C19130   8.656  -0.251  10.732  0.2740 -0.3375  0.5169
  883MOL0     C19131   8.525  -0.179  10.763  0.1636  0.3053  0.0098
  883MOL0     C19132   8.407  -0.276  10.749 -0.2944 -0.4444  0.2426
  883MOL0     C19133   8.278  -0.218  10.776 -0.2198  0.0712 -0.0016
  883MOL0     C19134   8.164  -0.182  10.805 -0.3319  0.7017  0.1908
  883MOL0     C19135   8.886   0.117  10.676 -0.5781  1.1023  0.2159
  883MOL0     C19136   8.965   0.232  10.636 -0.2120  0.1981  0.6642
  883MOL0     C19137   9.042   0.303  10.743  0.7304 -0.0039 -0.8618
  883MOL0     H19138   8.910   0.569  10.131  0.7679 -0.5018 -2.1313
  883MOL0     H19139   9.011   0.736   9.982  2.2431  0.3742 -1.9404
  883MOL0     H19140   9.142   0.962   9.918 -1.1428 -3.5883 -0.0313
  883MOL0     H19141   9.140   0.946  10.091  0.7771  1.2190  0.0898
  883MOL0     H19142   9.373   1.033   9.925 -1.2359  0.1095 -0.2055
  883MOL0     H19143   9.364   1.035  10.108 -1.5045  0.7229  1.3845
  883MOL0     H19144   9.208   1.198  10.105  1.8470  0.2658  0.0037
  883MOL0     H19145   9.173   1.191   9.928  0.0134  2.4360 -0.5020
  883MOL0     H19146   9.392   1.254   9.862  0.1136  1.0958 -0.1416
  883MOL0     H19147   9.306   1.379   9.962 -0.3394  0.4711  0.4067
  883MOL0     H19148   9.540   1.197  10.056  1.3665  0.0352 -0.5349
  883MOL0     H19149   9.532   1.353   9.977  2.3700 -1.7667  1.4326
  883MOL0     H19150   9.393   1.435  10.169  0.4005  0.4421 -1.2390
  883MOL0     H19151   9.417   1.284  10.264  3.7354 -2.1204  0.9032
  883MOL0     H19152   9.657   1.452  10.177 -0.4211  0.2367 -0.1941
  883MOL0     H19153   9.658   1.296  10.243  2.7031  0.0549  2.5794
  883MOL0     H19154   9.498   1.525  10.359  2.7911  1.1913 -2.4941
  883MOL0     H19155   9.548   1.384  10.457  0.6272  1.9072  2.1453
  883MOL0     H19156   9.746   1.686  10.278 -1.1257  0.0883  1.1270
  883MOL0     H19157   9.933   1.828  10.564 -0.3639 -0.3336  0.3311
  883MOL0     H19158  10.054   1.730  10.499 -0.1671  0.1412 -0.8335
  883MOL0     H19159   9.866   1.899  10.332 -0.3542 -0.4778  1.8866
  883MOL0     H19160  10.042   1.937  10.368 -0.9674  0.1499 -0.3599
  883MOL0     H19161   9.981   1.686  10.227  0.9986 -0.4175 -0.1382
  883MOL0     H19162  10.112   1.782  10.198 -1.1279 -2.7077 -1.5074
  883MOL0     H19163   9.833   1.858  10.099 -1.0450  0.0113 -0.8553
  883MOL0     H19164   9.989   1.824  10.016  0.1734 -0.2832  0.2987
  883MOL0     H19165  10.020   2.238  10.151  1.3012  2.3308  0.8154
  883MOL0     H19166  10.220   2.363  10.074  1.1574  0.1357 -1.6722
  883MOL0     H19167  10.566   2.422   9.808  0.9381 -1.0455  2.2250
  883MOL0     H19168  10.732   2.576   9.755 -0.5705 -4.4636 -0.9323
  883MOL0     H19169  10.865   2.830   9.785 -2.2429  1.1556  0.4612
  883MOL0     H19170  10.759   2.864   9.919 -1.3908 -2.4832  0.3612
  883MOL0     H19171  11.073   2.918   9.926  0.3582  4.0481  0.0851
  883MOL0     H19172  10.958   3.038   9.888  0.1932  1.2998  0.7393
  883MOL0     H19173  10.836   2.993  10.091 -1.2805 -1.7089 -1.6878
  883MOL0     H19174  10.962   2.879  10.135  0.6145 -0.3784 -1.2028
  883MOL0     H19175  11.052   3.171  10.090  0.8483  0.6610  1.7890
  883MOL0     H19176  11.151   3.028  10.098  1.8110  3.5635 -1.2496
  883MOL0     H19177  11.146   3.120  10.316 -0.9422  1.7226 -0.2841
  883MOL0     H19178  11.068   2.969  10.319 -0.8182 -0.2923 -1.7459
  883MOL0     H19179  10.928   3.245  10.308  0.9289 -0.6033 -3.3290
  883MOL0     H19180  10.851   3.096  10.285 -0.8724  0.2248  0.8442
  883MOL0     H19181  11.009   3.161  10.532 -0.2505 -3.2101  4.2025
  883MOL0     H19182  10.922   3.010  10.527  3.0744  0.7014  2.5133
  883MOL0     H19183  10.774   3.187  10.649  0.7278 -5.1583  0.6411
  883MOL0     H19184  10.789   3.281  10.501  1.2078 -0.2155  0.6908
  883MOL0     H19185  10.809   2.665  10.163  2.8980  1.5790 -2.1200
  883MOL0     H19186  10.611   2.511  10.228  0.1939  0.9771 -0.1296
  883MOL0     H19187  10.379   1.988   9.924 -0.5214 -1.4277  0.8002
  883MOL0     H19188  10.199   1.868  10.017  3.6214 -0.4432  1.0460
  883MOL0     H19189   9.375   0.677  10.173 -0.2561  0.9572 -0.8315
  883MOL0     H19190   9.269   0.501  10.340 -2.7311 -1.9487  1.0124
  883MOL0     H19191   8.913   0.232  10.305  0.5464  0.7550  0.1581
  883MOL0     H19192   8.778   0.025  10.374  1.1397  1.3419 -0.3401
  883MOL0     H19193   8.751  -0.074  10.800 -2.8753  0.9987 -0.6036
  883MOL0     H19194   8.862  -0.190  10.710 -0.8607 -3.0604  0.1529
  883MOL0     H19195   8.681  -0.317  10.816 -1.4377 -0.7324  0.7712
  883MOL0     H19196   8.658  -0.319  10.647  1.5352  2.8880 -2.2297
  883MOL0     H19197   8.512  -0.092  10.698  0.5925 -1.3336 -2.4113
  883MOL0     H19198   8.532  -0.148  10.868  0.7096 -1.0423  0.4006
  883MOL0     H19199   8.384  -0.306  10.647 -4.9714 -0.8929  1.2079
  883MOL0     H19200   8.417  -0.369  10.807  0.2333  0.0842  1.0268
  883MOL0     H19201   8.059  -0.175  10.822 -0.2543 -1.0742  1.7396
  883MOL0     H19202   8.880   0.078  10.777  2.5924  2.8497  1.2099
  883MOL0     H19203   9.148   0.293  10.721  0.1859 -2.3030 -2.9605
  883MOL0     H19204   9.022   0.409  10.725 -0.3773 -0.4056 -2.1610
  883MOL0     H19205   9.013   0.257  10.839  0.0848 -0.3178 -1.1988
  884MOL0     O19206   1.017   6.807   0.657 -0.2047 -0.1745 -0.1260
  884MOL0     C19207   1.139   6.795   0.638  0.2649 -0.9087 -0.9456
  884MOL0     O19208   1.232   6.900   0.624 -0.4326 -0.5890  0.6111
  884MOL0     C19209   1.189   7.033   0.617 -0.1595  0.3408  0.8488
  884MOL0     C19210   1.109   7.077   0.509 -0.4935  0.4201  0.5276
  884MOL0     C19211   1.069   7.211   0.502  0.3205  0.5336 -0.3777
  884MOL0     C19212   1.088   7.298   0.612  0.2218 -0.5056 -0.1553
  884MOL0     O19213   1.041   7.421   0.606  0.2037 -0.5611 -0.0244
  884MOL0     C19214   1.135   7.526   0.609  0.2542 -0.3566 -0.0654
  884MOL0     C19215   1.086   7.676   0.642 -0.3542  0.2148  0.3193
  884MOL0     C19216   1.198   7.780   0.640 -1.4013 -0.2954 -0.2185
  884MOL0     C19217   1.326   7.747   0.726  0.1956 -0.2036  0.4710
  884MOL0     C19218   1.426   7.863   0.721  0.3569  0.6290  0.2706
  884MOL0     C19219   1.579   7.825   0.744  0.5886 -0.2377 -0.3673
  884MOL0     C19220   1.661   7.946   0.701 -0.0757 -0.3431  0.6107
  884MOL0     C19221   1.804   7.920   0.669 -0.4168 -0.0093  0.3956
  884MOL0     N19222   1.871   7.853   0.786  0.5760 -0.4517  0.3651
  884MOL0     C19223   1.893   7.721   0.813  0.8733 -0.6544  1.6996
  884MOL0     C19224   1.926   7.726   0.941 -0.8136  1.0186 -0.8572
  884MOL0     C19225   1.968   7.610   1.036  0.1333 -0.0353 -0.3071
  884MOL0     C19226   1.847   7.538   1.094 -0.1744 -0.4265  0.3048
  884MOL0     C19227   1.764   7.612   1.200 -0.1268  0.0549  0.0382
  884MOL0     C19228   1.837   7.637   1.328  0.3176 -0.2564  0.3709
  884MOL0     O19229   1.765   7.740   1.406 -0.9463  0.3337  0.5668
  884MOL0     C19230   1.701   7.699   1.518 -1.1244 -0.2259 -1.7391
  884MOL0     C19231   1.609   7.789   1.565 -0.7095 -0.7290 -0.9092
  884MOL0     C19232   1.547   7.782   1.689 -0.0442 -0.1300 -0.1010
  884MOL0     C19233   1.589   7.684   1.785 -0.7878  0.5803  0.2439
  884MOL0     C19234   1.528   7.678   1.915  0.9323 -0.1751 -0.0648
  884MOL0     O19235   1.617   7.631   2.004 -0.4159  0.3298  0.1731
  884MOL0     C19236   1.595   7.621   2.138  0.3673  0.9490 -0.4768
  884MOL0     C19237   1.481   7.585   2.198 -0.1780  0.0946 -0.6026
  884MOL0     C19238   1.473   7.575   2.337 -0.4639  0.6802  0.2885
  884MOL0     C19239   1.580   7.596   2.420  0.7059 -0.1408  0.2844
  884MOL0     O19240   1.579   7.583   2.560  0.8610  0.0963  0.3894
  884MOL0     C19241   1.456   7.598   2.631  0.1962  0.5634  0.1441
  884MOL0     C19242   1.494   7.577   2.772 -0.8190  0.9788  0.5677
  884MOL0     C19243   1.390   7.624   2.862 -0.0819  0.5631 -0.0677
  884MOL0     C19244   1.280   7.518   2.892 -0.6980 -0.1809 -0.5487
  884MOL0     C19245   1.221   7.546   3.036 -0.3459  0.2769  0.3537
  884MOL0     C19246   1.150   7.682   3.037 -0.2381  0.1654  0.3173
  884MOL0     C19247   1.056   7.715   3.165 -0.4490  0.0905 -0.1341
  884MOL0     C19248   0.921   7.644   3.171 -0.1841  1.2223 -0.5447
  884MOL0    Cl19249   0.816   7.721   3.054  0.1953  0.1884  0.1986
  884MOL0     C19250   1.701   7.638   2.363  0.1146  0.5223  0.7209
  884MOL0     C19251   1.707   7.646   2.221  0.3679 -0.3113 -0.0981
  884MOL0     O19252   1.415   7.716   1.933  0.2911  0.7726  0.4116
  884MOL0     C19253   1.693   7.596   1.738 -1.0135 -0.6710  0.7060
  884MOL0     C19254   1.744   7.600   1.610 -0.1302  0.0737  0.4808
  884MOL0     N19255   1.934   7.857   0.985  0.4537  0.2517 -0.8637
  884MOL0     N19256   1.906   7.931   0.891  0.3744 -0.4585  0.1223
  884MOL0     C19257   1.162   7.254   0.722 -0.2371 -0.7058  0.1871
  884MOL0     C19258   1.214   7.127   0.720  0.8305  0.4013  0.1620
  884MOL0     C19259   1.196   6.659   0.610  0.1440 -0.1926  0.1074
  884MOL0     C19260   1.193   6.617   0.480 -1.3282 -0.1056  1.2128
  884MOL0     C19261   1.232   6.479   0.449 -0.0243 -0.7920  0.2948
  884MOL0     C19262   1.249   6.382   0.558  0.0633 -0.9191 -0.4113
  884MOL0     O19263   1.274   6.247   0.542 -0.4481  0.1954  0.8338
  884MOL0     C19264   1.288   6.205   0.406  0.1560 -0.0568 -1.3317
  884MOL0     C19265   1.429   6.234   0.344 -0.8452 -0.9768 -0.4571
  884MOL0     C19266   1.456   6.150   0.224 -0.7284  0.0043 -0.0712
  884MOL0     C19267   1.599   6.158   0.168 -1.3012  0.1418 -0.2490
  884MOL0     C19268   1.689   6.103   0.274  0.8409 -0.2262 -0.6139
  884MOL0     C19269   1.759   6.066   0.371 -0.9999 -0.0349 -0.6677
  884MOL0     C19270   1.248   6.432   0.685  0.2109 -0.3674  0.4249
  884MOL0     C19271   1.225   6.566   0.712 -0.8794 -0.8644  0.4915
  884MOL0     C19272   1.212   6.617   0.853  0.5192  1.0291  0.3045
  884MOL0     H19273   1.092   7.014   0.423  2.3971 -1.7519  1.3742
  884MOL0     H19274   1.010   7.236   0.414  0.0213 -0.2364 -0.4070
  884MOL0     H19275   1.203   7.491   0.687  2.4965 -0.7946 -2.1109
  884MOL0     H19276   1.190   7.519   0.514  2.2138 -0.0280  0.9993
  884MOL0     H19277   1.023   7.689   0.731 -1.0924 -1.3224  0.0594
  884MOL0     H19278   1.029   7.704   0.553  0.6254  0.2286 -0.3160
  884MOL0     H19279   1.158   7.876   0.672 -1.5918  0.7294 -3.2554
  884MOL0     H19280   1.235   7.811   0.542 -2.0232  1.6371  0.1322
  884MOL0     H19281   1.286   7.729   0.826  0.2663 -0.4650  0.4518
  884MOL0     H19282   1.368   7.660   0.676 -0.1668  0.2873 -0.7295
  884MOL0     H19283   1.419   7.912   0.623 -1.2337  4.1040  1.9460
  884MOL0     H19284   1.393   7.942   0.789  1.4940  1.0450  0.3657
  884MOL0     H19285   1.606   7.789   0.844 -0.0205 -2.9812 -1.0896
  884MOL0     H19286   1.603   7.742   0.677 -0.2425 -0.1742 -0.7639
  884MOL0     H19287   1.664   8.030   0.772 -1.2003  0.6434 -0.4598
  884MOL0     H19288   1.614   7.983   0.610  0.6082 -0.7041  0.1093
  884MOL0     H19289   1.814   7.865   0.575 -5.3635  0.2221 -0.5376
  884MOL0     H19290   1.843   8.022   0.659 -2.2989  0.4894 -5.3902
  884MOL0     H19291   1.885   7.644   0.738 -2.2810  1.5156 -0.4448
  884MOL0     H19292   2.042   7.542   0.991  1.4658 -1.0547  3.1499
  884MOL0     H19293   2.022   7.647   1.123  1.5111 -0.4409 -0.9584
  884MOL0     H19294   1.777   7.508   1.016 -1.2520 -0.5669  1.3049
  884MOL0     H19295   1.869   7.442   1.143 -4.1090 -2.1625 -0.9323
  884MOL0     H19296   1.660   7.577   1.210 -0.6886  2.3359  4.7600
  884MOL0     H19297   1.740   7.709   1.156  0.8444 -0.0184 -0.6849
  884MOL0     H19298   1.935   7.674   1.300 -0.0888 -2.6382 -5.6749
  884MOL0     H19299   1.859   7.537   1.369 -0.3746 -0.0358  1.3309
  884MOL0     H19300   1.576   7.865   1.495 -0.2868 -1.5301 -1.9993
  884MOL0     H19301   1.466   7.855   1.693 -1.2425 -1.4274  0.3060
  884MOL0     H19302   1.398   7.565   2.130 -0.1879 -1.9136 -0.0605
  884MOL0     H19303   1.380   7.542   2.382 -0.2244 -3.4464 -1.8308
  884MOL0     H19304   1.418   7.699   2.614 -0.7617 -0.0642 -1.7895
  884MOL0     H19305   1.380   7.522   2.614 -0.6119  0.9011  2.0528
  884MOL0     H19306   1.515   7.471   2.788 -2.8432  0.7946  2.4066
  884MOL0     H19307   1.587   7.634   2.779  1.0513 -1.8627  0.3012
  884MOL0     H19308   1.442   7.644   2.956  0.3262 -1.6425  0.2358
  884MOL0     H19309   1.337   7.707   2.814 -0.0492 -0.2589 -1.5652
  884MOL0     H19310   1.307   7.412   2.896  0.8297  0.2123  2.0361
  884MOL0     H19311   1.203   7.534   2.817  2.2381 -1.2014 -4.0490
  884MOL0     H19312   1.305   7.539   3.106  0.9418 -2.7648 -1.2691
  884MOL0     H19313   1.152   7.466   3.064 -0.8493  0.1841 -1.0789
  884MOL0     H19314   1.235   7.751   3.033  0.5006 -0.6980  0.5832
  884MOL0     H19315   1.087   7.696   2.949 -0.9148 -1.7198  0.4551
  884MOL0     H19316   1.039   7.823   3.169 -1.3502  0.0526 -2.0274
  884MOL0     H19317   1.108   7.698   3.260 -1.1440 -0.7325  0.1172
  884MOL0     H19318   0.939   7.536   3.163  1.7486  1.1295  2.9324
  884MOL0     H19319   0.883   7.658   3.273  2.0377  3.2273  0.1116
  884MOL0     H19320   1.791   7.656   2.421  1.2069 -3.4019  0.4980
  884MOL0     H19321   1.797   7.689   2.180 -0.0436  2.3920  1.5945
  884MOL0     H19322   1.716   7.514   1.806  3.0990  0.6474  1.1828
  884MOL0     H19323   1.828   7.536   1.586  1.2889  1.8743  0.4193
  884MOL0     H19324   1.172   7.324   0.805  1.1628  0.9200 -1.2800
  884MOL0     H19325   1.254   7.097   0.816  3.4688  1.5526 -0.4920
  884MOL0     H19326   1.183   6.687   0.398 -0.5029 -1.3241  0.0431
  884MOL0     H19327   1.223   6.448   0.346  0.6634  1.0285 -0.3522
  884MOL0     H19328   1.206   6.247   0.348  0.0527 -0.3949 -1.4355
  884MOL0     H19329   1.265   6.098   0.400 -2.5371  0.2869  1.0938
  884MOL0     H19330   1.507   6.216   0.419 -2.4277 -0.2658  1.4643
  884MOL0     H19331   1.429   6.338   0.313  1.0425 -1.2947 -1.6535
  884MOL0     H19332   1.377   6.166   0.149 -4.6698 -0.2070  3.6221
  884MOL0     H19333   1.455   6.045   0.254 -0.6384 -0.4799 -1.6649
  884MOL0     H19334   1.615   6.099   0.077  1.7357 -0.2950  0.4569
  884MOL0     H19335   1.616   6.265   0.152 -2.5745  1.6035  5.6328
  884MOL0     H19336   1.824   6.041   0.452 -1.0132  4.1590  0.9239
  884MOL0     H19337   1.246   6.372   0.775  0.9506  0.9537  1.3662
  884MOL0     H19338   1.254   6.555   0.932 -0.1226  3.7155  2.9194
  884MOL0     H19339   1.266   6.711   0.861  1.6223  0.8669 -3.2590
  884MOL0     H19340   1.105   6.628   0.873  0.0398  2.6567 -2.5730
  885MOL0     O19341   9.508   4.486   2.436  0.0603 -0.1927 -0.7624
  885MOL0     C19342   9.428   4.520   2.527  0.9807 -0.2988  0.9264
  885MOL0     O19343   9.411   4.646   2.577 -0.0817 -0.5483 -0.7700
  885MOL0     C19344   9.493   4.747   2.535  0.4053 -1.0734 -0.0171
  885MOL0     C19345   9.414   4.864   2.506 -0.1824 -0.3067  0.9690
  885MOL0     C19346   9.481   4.979   2.467 -0.2689  0.2661 -0.0655
  885MOL0     C19347   9.625   4.982   2.458 -0.3842  0.4807 -0.2615
  885MOL0     O19348   9.703   5.099   2.439 -0.0355 -0.1099  0.1411
  885MOL0     C19349   9.631   5.219   2.414  0.2697 -0.4353 -0.3669
  885MOL0     C19350   9.728   5.347   2.402 -0.0945 -0.4250  0.6511
  885MOL0     C19351   9.839   5.330   2.305  0.2229  0.7097  0.0528
  885MOL0     C19352   9.881   5.463   2.239  0.0251  1.1648 -0.2204
  885MOL0     C19353  10.008   5.461   2.161 -0.0467 -0.0518  0.5997
  885MOL0     C19354  10.011   5.581   2.074 -0.3588  0.0568  1.3236
  885MOL0     C19355  10.146   5.616   2.003 -0.0587 -0.1178  0.4137
  885MOL0     C19356  10.130   5.733   1.914  0.1103 -0.2555  0.0320
  885MOL0     N19357  10.186   5.729   1.782 -0.0440  0.1888  0.8872
  885MOL0     C19358  10.315   5.751   1.745 -0.1942 -0.1939 -1.2114
  885MOL0     C19359  10.321   5.757   1.613 -0.2134  0.8892 -0.0795
  885MOL0     C19360  10.448   5.787   1.537  0.2303 -0.0879 -0.5777
  885MOL0     C19361  10.531   5.651   1.506 -0.6069  0.0211 -0.6147
  885MOL0     C19362  10.673   5.700   1.455 -0.1700  0.2589 -0.4010
  885MOL0     C19363  10.763   5.592   1.385  0.7085  0.5002  0.0821
  885MOL0     O19364  10.891   5.640   1.358  0.2923  0.2953 -0.2791
  885MOL0     C19365  10.928   5.639   1.222  0.7398  1.4040  0.4867
  885MOL0     C19366  11.029   5.552   1.195 -0.2110 -0.1755  0.0844
  885MOL0     C19367  11.083   5.551   1.065 -0.7180 -0.3775 -0.4066
  885MOL0     C19368  11.037   5.637   0.960 -0.4339  0.1704 -0.9165
  885MOL0     C19369  11.093   5.629   0.825 -0.4076  0.4432  0.2645
  885MOL0     O19370  11.162   5.514   0.789  0.5753  0.2527  0.5610
  885MOL0     C19371  11.222   5.489   0.665 -0.1468 -0.2262  0.9809
  885MOL0     C19372  11.297   5.586   0.593 -0.5521 -0.5736  0.2489
  885MOL0     C19373  11.343   5.564   0.469 -0.5553  0.1598 -0.3525
  885MOL0     C19374  11.341   5.437   0.412 -0.6215  0.3835 -0.8118
  885MOL0     O19375  11.384   5.395   0.287 -0.2058 -0.1296  0.3305
  885MOL0     C19376  11.465   5.475   0.207  0.2443  0.5639  0.3918
  885MOL0     C19377  11.536   5.375   0.118 -0.0486 -0.1662 -0.1964
  885MOL0     C19378  11.432   5.312   0.018 -0.1880 -0.2141  0.6846
  885MOL0     C19379  11.369   5.418  -0.075  0.1189  0.5391  0.1335
  885MOL0     C19380  11.310   5.354  -0.198  0.0768  0.1368  0.5236
  885MOL0     C19381  11.232   5.219  -0.190  1.0784 -0.6261 -0.0663
  885MOL0     C19382  11.128   5.210  -0.309  0.3033 -0.4739  0.2269
  885MOL0     C19383  11.186   5.226  -0.447 -0.4338  0.4229  1.6675
  885MOL0    Cl19384  11.066   5.146  -0.564  0.3975 -0.4823  0.2845
  885MOL0     C19385  11.274   5.340   0.477  0.5656  0.3269  0.0711
  885MOL0     C19386  11.216   5.364   0.605  1.3620 -0.1739  0.0488
  885MOL0     O19387  11.073   5.731   0.750 -0.1260 -0.2595  0.7726
  885MOL0     C19388  10.936   5.724   0.995  0.8061 -0.2946 -0.2219
  885MOL0     C19389  10.887   5.732   1.127 -0.6512 -0.2829  0.3663
  885MOL0     N19390  10.202   5.716   1.561  0.6413 -0.5657  0.5038
  885MOL0     N19391  10.118   5.713   1.665  0.1644 -1.1148  0.5762
  885MOL0     C19392   9.693   4.863   2.471 -0.1111  0.4247  0.4990
  885MOL0     C19393   9.628   4.747   2.516  0.2005 -1.1072  0.7141
  885MOL0     C19394   9.375   4.414   2.616  0.2119 -0.4433 -0.2206
  885MOL0     C19395   9.237   4.427   2.662 -0.2738  0.0223 -1.2449
  885MOL0     C19396   9.189   4.322   2.739 -0.5514  0.9504 -0.5470
  885MOL0     C19397   9.262   4.202   2.767 -0.6418  0.6104  0.2016
  885MOL0     O19398   9.191   4.110   2.841 -0.3506  0.1677 -0.5947
  885MOL0     C19399   9.259   3.998   2.891 -0.1325  0.0937 -0.1357
  885MOL0     C19400   9.359   4.016   3.000  0.0947  0.0649  0.2733
  885MOL0     C19401   9.306   4.116   3.103  0.4283  0.6560 -0.6043
  885MOL0     C19402   9.405   4.148   3.223 -0.0698 -0.1540  0.3486
  885MOL0     C19403   9.340   4.234   3.318 -0.0601  1.5236  0.3852
  885MOL0     C19404   9.278   4.310   3.393 -0.4969 -0.5213 -0.2730
  885MOL0     C19405   9.388   4.188   2.714 -0.3126  0.1252 -0.5166
  885MOL0     C19406   9.449   4.292   2.647  0.2782 -0.1459  0.9223
  885MOL0     C19407   9.592   4.266   2.596 -0.1192  0.0816 -0.4328
  885MOL0     H19408   9.307   4.870   2.526 -0.2649 -2.2553  1.3343
  885MOL0     H19409   9.418   5.064   2.446  1.2614  0.6940 -3.5223
  885MOL0     H19410   9.562   5.208   2.331  2.2466 -3.4667 -1.8039
  885MOL0     H19411   9.580   5.232   2.510 -1.7787 -1.4791 -1.2723
  885MOL0     H19412   9.766   5.352   2.505  2.4710 -1.4027 -0.1996
  885MOL0     H19413   9.665   5.433   2.377  0.2962  0.1785  1.6689
  885MOL0     H19414   9.809   5.260   2.226 -1.7410  1.0153  0.4821
  885MOL0     H19415   9.919   5.284   2.363  1.8559 -0.9871 -3.2623
  885MOL0     H19416   9.797   5.496   2.178 -1.0655  2.3847  1.8462
  885MOL0     H19417   9.893   5.540   2.316 -1.2877 -0.8883  2.1952
  885MOL0     H19418  10.091   5.450   2.232 -1.0260  2.3887  2.2785
  885MOL0     H19419  10.012   5.371   2.100 -2.3547 -1.0947  1.8878
  885MOL0     H19420   9.934   5.563   1.999 -1.7973  0.0343  2.7666
  885MOL0     H19421   9.983   5.673   2.125  0.0820  2.1502 -1.9102
  885MOL0     H19422  10.189   5.535   1.943  0.6738  0.3048  0.3512
  885MOL0     H19423  10.225   5.651   2.070 -2.2280  3.4178  1.3384
  885MOL0     H19424  10.031   5.779   1.909  0.2336  0.4949  2.7012
  885MOL0     H19425  10.181   5.815   1.966 -1.8081  0.0508  1.5504
  885MOL0     H19426  10.406   5.768   1.803  0.7006  0.0324 -2.6385
  885MOL0     H19427  10.415   5.827   1.441  2.1566  1.1213 -0.7940
  885MOL0     H19428  10.499   5.873   1.583 -0.9619  0.2491  0.1660
  885MOL0     H19429  10.546   5.585   1.592 -0.7784  0.7528 -0.0135
  885MOL0     H19430  10.474   5.600   1.428 -1.2182  2.1634 -1.6729
  885MOL0     H19431  10.728   5.742   1.539  0.7643 -1.4081 -0.1368
  885MOL0     H19432  10.668   5.787   1.389  0.5565  1.3917  1.0042
  885MOL0     H19433  10.719   5.548   1.295 -0.1504 -0.3956  0.9143
  885MOL0     H19434  10.783   5.509   1.454  2.8967  0.5482 -0.4362
  885MOL0     H19435  11.058   5.479   1.269  0.7167  1.0844  1.0067
  885MOL0     H19436  11.160   5.479   1.037  1.5923  1.5135  0.7232
  885MOL0     H19437  11.305   5.684   0.640  2.8595  0.7283 -2.6783
  885MOL0     H19438  11.379   5.657   0.426 -1.6392  0.5487 -0.4627
  885MOL0     H19439  11.389   5.541   0.164 -1.2943 -2.2004 -1.4822
  885MOL0     H19440  11.529   5.541   0.266  0.4793  0.4265  0.2916
  885MOL0     H19441  11.625   5.419   0.072 -1.0381  0.2363 -1.8060
  885MOL0     H19442  11.577   5.296   0.182 -1.8442 -0.4365  0.6608
  885MOL0     H19443  11.494   5.245  -0.042  2.5110  0.8658  2.0806
  885MOL0     H19444  11.353   5.252   0.063  2.7279 -2.6094  3.0517
  885MOL0     H19445  11.433   5.504  -0.097  0.3026  0.0617 -1.3230
  885MOL0     H19446  11.287   5.466  -0.020  1.0620 -0.2127  2.2757
  885MOL0     H19447  11.395   5.337  -0.265 -0.9947  1.7263 -1.3492
  885MOL0     H19448  11.243   5.425  -0.248  2.2219  2.5579  0.8847
  885MOL0     H19449  11.300   5.134  -0.193 -2.3703 -3.5998 -2.4670
  885MOL0     H19450  11.181   5.220  -0.093 -2.1806  0.7743 -1.6633
  885MOL0     H19451  11.050   5.286  -0.313  0.8669  0.0547 -1.5726
  885MOL0     H19452  11.071   5.117  -0.300 -0.9865  0.3093  0.3256
  885MOL0     H19453  11.204   5.328  -0.482 -0.7477 -0.2865 -0.7342
  885MOL0     H19454  11.280   5.171  -0.452  0.3776  1.9058 -1.6866
  885MOL0     H19455  11.272   5.240   0.436  0.0590  1.1142 -1.9439
  885MOL0     H19456  11.154   5.289   0.653 -0.8351  1.3371 -0.2579
  885MOL0     H19457  10.889   5.785   0.919  1.7890  0.7358 -0.0140
  885MOL0     H19458  10.809   5.805   1.150  0.5376  1.8328 -1.8303
  885MOL0     H19459   9.796   4.839   2.450 -0.3872  1.3152 -2.3448
  885MOL0     H19460   9.689   4.658   2.531  0.6162 -1.7841 -3.7481
  885MOL0     H19461   9.178   4.517   2.651  0.2153  0.8102  1.7871
  885MOL0     H19462   9.094   4.347   2.785 -0.5943 -1.3130  0.7095
  885MOL0     H19463   9.319   3.954   2.810  1.9588 -2.0629  2.3944
  885MOL0     H19464   9.188   3.923   2.927 -1.0692  1.0100 -0.0258
  885MOL0     H19465   9.446   4.054   2.946 -1.7646  0.4759 -2.6809
  885MOL0     H19466   9.382   3.922   3.050 -0.5532  0.3595  1.1528
  885MOL0     H19467   9.220   4.059   3.140  0.0476  1.3333 -0.4314
  885MOL0     H19468   9.268   4.209   3.061  0.7283  1.9310  1.7746
  885MOL0     H19469   9.440   4.062   3.280  0.7089  0.9456  1.6038
  885MOL0     H19470   9.494   4.195   3.178 -0.9684  0.0048 -1.3501
  885MOL0     H19471   9.219   4.370   3.460  0.6904 -0.5072  0.7872
  885MOL0     H19472   9.439   4.094   2.727  0.3237  0.5763  0.3555
  885MOL0     H19473   9.577   4.246   2.489  1.4734 -1.3678 -0.4327
  885MOL0     H19474   9.649   4.358   2.611 -1.3935  0.6099  1.3743
  885MOL0     H19475   9.642   4.179   2.640  0.8378 -0.1500 -1.9031
  886MOL0     O19476   0.132   4.297   7.982 -0.5235  0.4824 -0.6225
  886MOL0     C19477   0.131   4.415   7.953 -0.4183 -0.0804  0.3886
  886MOL0     O19478   0.058   4.472   7.852  0.1038 -0.2807 -0.3158
  886MOL0     C19479  -0.013   4.390   7.766  0.4924  0.9615  0.4523
  886MOL0     C19480  -0.123   4.317   7.818 -0.2341  0.0458  0.4300
  886MOL0     C19481  -0.187   4.226   7.735 -0.7375  0.9484 -1.2958
  886MOL0     C19482  -0.145   4.218   7.597  0.6824  0.0738  1.2314
  886MOL0     O19483  -0.212   4.129   7.517  0.2932  1.4226  1.0108
  886MOL0     C19484  -0.165   3.992   7.527 -0.4191  0.1040 -0.5956
  886MOL0     C19485  -0.270   3.914   7.624 -1.0053  0.2028  0.9731
  886MOL0     C19486  -0.215   3.840   7.750  0.7102 -0.1811 -0.0905
  886MOL0     C19487  -0.155   3.702   7.715 -0.4410 -0.6918 -0.3512
  886MOL0     C19488  -0.121   3.626   7.853  0.0068  0.1918 -0.2811
  886MOL0     C19489  -0.241   3.564   7.930  1.0144  0.3329 -0.3112
  886MOL0     C19490  -0.347   3.488   7.848  0.0286  0.9760 -0.2101
  886MOL0     C19491  -0.306   3.334   7.835  0.8853 -0.0493  0.2769
  886MOL0     N19492  -0.349   3.266   7.709  0.2737 -0.2465  0.3000
  886MOL0     C19493  -0.347   3.318   7.584 -0.3113  0.4208  0.0591
  886MOL0     C19494  -0.396   3.223   7.507  0.0073  1.2640  0.0524
  886MOL0     C19495  -0.407   3.241   7.353 -0.3126 -0.0093  0.4043
  886MOL0     C19496  -0.553   3.206   7.310 -0.3114  0.0144  0.7243
  886MOL0     C19497  -0.583   3.230   7.160 -0.9542 -0.5106 -0.8889
  886MOL0     C19498  -0.735   3.229   7.130 -0.0883  0.5822  0.0363
  886MOL0     O19499  -0.816   3.308   7.225  0.0492  0.0755 -0.3523
  886MOL0     C19500  -0.802   3.445   7.246  0.6191 -0.5315  0.3133
  886MOL0     C19501  -0.859   3.498   7.359  0.1057  0.4990  0.1466
  886MOL0     C19502  -0.835   3.625   7.398 -0.0045 -0.4408  0.8472
  886MOL0     C19503  -0.766   3.710   7.304  0.5722  0.0341 -1.0049
  886MOL0     C19504  -0.737   3.854   7.338 -0.4299  0.3867  1.1077
  886MOL0     O19505  -0.840   3.923   7.404 -0.8533  0.4008 -0.0767
  886MOL0     C19506  -0.820   4.047   7.467  1.5760  0.0350  0.2833
  886MOL0     C19507  -0.713   4.120   7.505 -0.2161 -0.1916 -0.0295
  886MOL0     C19508  -0.713   4.243   7.563  0.2964  0.0143 -0.8432
  886MOL0     C19509  -0.837   4.303   7.593  0.2015  0.3318  0.8394
  886MOL0     O19510  -0.836   4.416   7.668  0.3691  0.0829  0.4812
  886MOL0     C19511  -0.903   4.531   7.604  0.3567 -0.5819  0.2242
  886MOL0     C19512  -0.854   4.651   7.691  0.1311 -0.1540  0.3133
  886MOL0     C19513  -0.941   4.779   7.671 -0.1486 -0.8371 -0.5310
  886MOL0     C19514  -0.885   4.885   7.765 -0.2608  0.6530  0.0252
  886MOL0     C19515  -0.970   5.008   7.750  0.3220  0.1719  0.4271
  886MOL0     C19516  -0.943   5.098   7.876 -0.0491  0.2112  0.2814
  886MOL0     C19517  -1.021   5.222   7.868  0.0982 -0.1844  0.4314
  886MOL0     C19518  -1.017   5.297   7.998 -0.4901 -0.1140  0.7502
  886MOL0    Cl19519  -1.085   5.453   7.959  0.1840  0.0096 -0.1093
  886MOL0     C19520  -0.955   4.233   7.554 -0.3904  0.3266 -0.7651
  886MOL0     C19521  -0.944   4.106   7.496  0.0298 -0.3299 -0.2189
  886MOL0     O19522  -0.625   3.896   7.314  0.2639  0.0732  0.2658
  886MOL0     C19523  -0.713   3.658   7.189  0.0696 -0.3067  0.1290
  886MOL0     C19524  -0.732   3.524   7.158 -0.0827  0.2357  0.1702
  886MOL0     N19525  -0.440   3.125   7.586 -0.4706  0.1333 -0.2437
  886MOL0     N19526  -0.416   3.149   7.708  0.2471 -0.9830 -0.0707
  886MOL0     C19527  -0.032   4.289   7.551  0.0388  0.2688 -0.3624
  886MOL0     C19528   0.030   4.376   7.636  0.3796  0.5182  0.5196
  886MOL0     C19529   0.207   4.515   8.042 -0.5233  1.0744  0.1400
  886MOL0     C19530   0.142   4.635   8.071  0.1896  0.4942 -0.4274
  886MOL0     C19531   0.181   4.734   8.159 -0.5091  0.6682  0.6857
  886MOL0     C19532   0.312   4.722   8.225  0.9092  1.3104 -0.1168
  886MOL0     O19533   0.356   4.813   8.318  0.3481 -0.8081  0.3918
  886MOL0     C19534   0.254   4.867   8.400 -1.1133 -0.5870 -0.4335
  886MOL0     C19535   0.245   5.020   8.369 -0.2645  0.7059 -0.1181
  886MOL0     C19536   0.125   5.086   8.441 -0.6329  0.0494  0.4784
  886MOL0     C19537   0.154   5.232   8.473 -1.0895  0.5252  0.5035
  886MOL0     C19538   0.069   5.287   8.577 -0.2638  0.0487 -0.4015
  886MOL0     C19539  -0.021   5.338   8.647 -1.0293  0.4805  0.6692
  886MOL0     C19540   0.385   4.599   8.205  0.1353  0.5260  0.8941
  886MOL0     C19541   0.329   4.495   8.115 -0.8426 -0.5672 -0.7067
  886MOL0     C19542   0.406   4.369   8.103 -0.0745  0.5496  0.4504
  886MOL0     H19543  -0.147   4.340   7.922  1.6480  0.9774  0.7024
  886MOL0     H19544  -0.274   4.170   7.769  0.9583 -0.1790  1.6013
  886MOL0     H19545  -0.149   3.940   7.432  1.5762 -2.0338  0.7994
  886MOL0     H19546  -0.067   3.980   7.574 -1.1337 -0.9785  0.6963
  886MOL0     H19547  -0.326   3.841   7.565 -0.9486  0.6801  0.3185
  886MOL0     H19548  -0.342   3.991   7.653  0.2014  1.1987  1.4228
  886MOL0     H19549  -0.299   3.810   7.813 -1.0243  0.4674 -1.9597
  886MOL0     H19550  -0.153   3.909   7.808 -2.9337  0.4539  3.4985
  886MOL0     H19551  -0.217   3.635   7.655 -0.5204  0.2980 -1.4036
  886MOL0     H19552  -0.057   3.714   7.668  0.1833  1.8442  1.3769
  886MOL0     H19553  -0.070   3.535   7.819 -2.3271 -0.7857 -1.3788
  886MOL0     H19554  -0.070   3.695   7.921 -0.8514  0.1063  0.4768
  886MOL0     H19555  -0.210   3.503   8.015 -2.8589  0.8556  1.6885
  886MOL0     H19556  -0.303   3.642   7.977  2.4208  3.0866 -2.7025
  886MOL0     H19557  -0.371   3.526   7.748 -0.7493 -7.2795 -4.0423
  886MOL0     H19558  -0.445   3.496   7.896 -0.2144  0.8301 -0.6641
  886MOL0     H19559  -0.197   3.331   7.846  1.4414  3.2491 -2.5601
  886MOL0     H19560  -0.346   3.279   7.921  1.7267 -3.6265 -1.4476
  886MOL0     H19561  -0.310   3.412   7.544  0.2015  0.6904  1.1094
  886MOL0     H19562  -0.397   3.344   7.316  2.2851 -0.5111 -0.5090
  886MOL0     H19563  -0.331   3.176   7.308 -0.7088 -0.6864  0.7039
  886MOL0     H19564  -0.562   3.099   7.329 -1.9926  0.1803  0.9852
  886MOL0     H19565  -0.628   3.254   7.373 -0.6726 -0.8741  0.9901
  886MOL0     H19566  -0.538   3.153   7.096  0.3731  1.5503 -2.5743
  886MOL0     H19567  -0.549   3.326   7.121  0.4373 -0.3013  0.7358
  886MOL0     H19568  -0.767   3.130   7.164  2.2702 -1.0770 -2.1558
  886MOL0     H19569  -0.753   3.242   7.023  3.1990  0.1572 -0.6639
  886MOL0     H19570  -0.929   3.443   7.421 -0.6747  1.6514  0.3416
  886MOL0     H19571  -0.863   3.669   7.494 -0.1202  1.3281  0.0473
  886MOL0     H19572  -0.618   4.073   7.482  0.8153  1.2425  1.1890
  886MOL0     H19573  -0.616   4.284   7.592 -0.0364  0.1647  0.0981
  886MOL0     H19574  -0.881   4.541   7.497 -1.3342  1.6921  0.0131
  886MOL0     H19575  -1.012   4.526   7.611  0.3935 -1.1585  0.3873
  886MOL0     H19576  -0.873   4.619   7.794  1.1541 -1.1168  0.2265
  886MOL0     H19577  -0.751   4.677   7.664  0.4785  1.8684  3.1942
  886MOL0     H19578  -0.927   4.831   7.576 -1.7053  0.2875 -0.1704
  886MOL0     H19579  -1.040   4.746   7.703 -0.1392 -1.2179 -0.8837
  886MOL0     H19580  -0.779   4.906   7.749 -0.3285  1.4452  0.5409
  886MOL0     H19581  -0.891   4.840   7.865  0.1231 -0.4577 -0.4388
  886MOL0     H19582  -1.077   4.985   7.750  0.4571 -0.6979  2.8723
  886MOL0     H19583  -0.944   5.065   7.660 -1.8778  0.0545 -0.3637
  886MOL0     H19584  -0.978   5.053   7.969 -1.1540 -0.5881 -0.4802
  886MOL0     H19585  -0.837   5.114   7.895  0.7211 -1.4074 -2.1584
  886MOL0     H19586  -1.124   5.202   7.835  0.4489 -2.0562  0.3417
  886MOL0     H19587  -0.975   5.293   7.798 -1.0096  2.6387  2.3675
  886MOL0     H19588  -1.080   5.251   8.075  0.2634  2.0698  2.8125
  886MOL0     H19589  -0.917   5.323   8.034 -0.9570  0.9551  1.3143
  886MOL0     H19590  -1.056   4.266   7.576 -0.3916 -0.6708  0.9420
  886MOL0     H19591  -1.043   4.069   7.471  0.8244 -2.0263 -1.0402
  886MOL0     H19592  -0.667   3.738   7.130 -2.3696  1.5386  0.5829
  886MOL0     H19593  -0.701   3.482   7.062 -0.0192  1.6241 -0.4520
  886MOL0     H19594   0.001   4.266   7.450  0.3941  2.4209 -0.7733
  886MOL0     H19595   0.110   4.446   7.617  0.2377  0.5572  0.0688
  886MOL0     H19596   0.036   4.653   8.057  0.8624  3.5894 -2.4324
  886MOL0     H19597   0.110   4.809   8.190  0.2690  2.0577 -0.7390
  886MOL0     H19598   0.287   4.854   8.504  0.8282 -1.1598 -1.0781
  886MOL0     H19599   0.154   4.823   8.402 -2.3880  1.9286 -2.2745
  886MOL0     H19600   0.237   5.037   8.262 -2.1577 -0.7123 -0.2540
  886MOL0     H19601   0.338   5.064   8.405 -2.0593  3.2813  1.8080
  886MOL0     H19602   0.113   5.043   8.541 -0.7572  1.5244  1.1295
  886MOL0     H19603   0.031   5.082   8.384 -0.0666 -1.6922 -0.3973
  886MOL0     H19604   0.258   5.242   8.507 -0.5220 -0.8316 -0.7362
  886MOL0     H19605   0.158   5.290   8.380 -0.2046 -1.6499 -0.9105
  886MOL0     H19606  -0.111   5.373   8.691 -2.3802 -1.2812 -0.5403
  886MOL0     H19607   0.482   4.580   8.251  0.9139 -4.1819 -2.0106
  886MOL0     H19608   0.339   4.288   8.133  1.5198 -0.1043  2.5328
  886MOL0     H19609   0.428   4.341   8.000  2.0501 -1.9855  1.4742
  886MOL0     H19610   0.493   4.362   8.169 -1.4794 -2.9451  2.2149
  887MOL0     O19611   7.581   2.928   8.665 -0.1258 -0.2715 -0.6878
  887MOL0     C19612   7.536   3.030   8.711  0.6934 -0.8976 -0.3811
  887MOL0     O19613   7.404   3.062   8.699 -0.7390 -0.0954  0.1697
  887MOL0     C19614   7.332   2.963   8.633  0.0942  0.9090 -0.0007
  887MOL0     C19615   7.316   2.964   8.500  0.2018  0.0435  0.3863
  887MOL0     C19616   7.230   2.875   8.432 -0.4799 -0.6303 -0.2320
  887MOL0     C19617   7.182   2.757   8.495 -0.4462  0.7361 -0.6639
  887MOL0     O19618   7.112   2.650   8.440 -0.2026  0.1034 -1.1339
  887MOL0     C19619   7.084   2.655   8.298 -0.2567  0.6033  0.2192
  887MOL0     C19620   7.073   2.514   8.231 -0.3653 -0.3457  0.7834
  887MOL0     C19621   7.049   2.510   8.074 -0.3854 -1.6940  0.9391
  887MOL0     C19622   7.017   2.366   8.013 -0.5092 -0.3278 -0.1073
  887MOL0     C19623   6.989   2.349   7.858 -0.4533  0.0809 -0.6301
  887MOL0     C19624   6.828   2.360   7.841  0.0510  0.6222  0.6881
  887MOL0     C19625   6.774   2.400   7.695  1.1512  0.1783 -0.1105
  887MOL0     C19626   6.779   2.553   7.664 -0.3865 -0.7167 -0.5402
  887MOL0     N19627   6.692   2.584   7.547 -0.5886 -0.0267  0.4932
  887MOL0     C19628   6.740   2.561   7.413 -0.0183 -0.1838  0.2493
  887MOL0     C19629   6.640   2.620   7.343 -0.8636  0.1499 -0.4492
  887MOL0     C19630   6.616   2.620   7.194  0.1087 -0.7127  0.8969
  887MOL0     C19631   6.611   2.760   7.133 -0.8366  1.0781 -0.2587
  887MOL0     C19632   6.483   2.845   7.162  0.0601 -0.3847  0.8120
  887MOL0     C19633   6.348   2.767   7.160 -0.7248  0.6269  0.9234
  887MOL0     O19634   6.334   2.668   7.052 -0.0010  0.4230  0.3033
  887MOL0     C19635   6.252   2.704   6.944  0.1424 -0.4879  0.7002
  887MOL0     C19636   6.204   2.835   6.913  0.3073 -0.4097  0.5038
  887MOL0     C19637   6.105   2.844   6.813  0.0826 -1.2332  0.3985
  887MOL0     C19638   6.077   2.740   6.720  0.0943  0.6109 -0.5867
  887MOL0     C19639   5.976   2.751   6.608 -0.4377 -0.5798 -0.2649
  887MOL0     O19640   5.932   2.640   6.543 -0.4640  0.1170  0.1093
  887MOL0     C19641   5.843   2.648   6.437 -0.7129 -1.0770 -0.2400
  887MOL0     C19642   5.704   2.646   6.456  0.3112 -0.7123 -0.5536
  887MOL0     C19643   5.616   2.629   6.352 -0.4494  0.6477  0.6183
  887MOL0     C19644   5.664   2.627   6.219 -0.0185 -0.3026  0.3776
  887MOL0     O19645   5.592   2.605   6.105 -0.0085 -0.1384 -0.5909
  887MOL0     C19646   5.449   2.617   6.103 -0.0800 -0.5727  0.8373
  887MOL0     C19647   5.409   2.621   5.945  0.0615 -0.5072 -0.8500
  887MOL0     C19648   5.447   2.499   5.870 -0.1353 -0.1388  0.6674
  887MOL0     C19649   5.382   2.507   5.731  0.6203 -1.0728  1.2509
  887MOL0     C19650   5.457   2.437   5.622 -0.4146 -0.3976 -0.9950
  887MOL0     C19651   5.363   2.399   5.502  0.5756 -0.2420 -0.5287
  887MOL0     C19652   5.261   2.513   5.458 -0.3398  0.2070  1.0421
  887MOL0     C19653   5.239   2.502   5.303  0.0960  1.5578 -0.1906
  887MOL0    Cl19654   5.169   2.647   5.247 -0.4067  0.4222 -0.0181
  887MOL0     C19655   5.794   2.645   6.199  0.0065  0.2756  0.3494
  887MOL0     C19656   5.894   2.656   6.297  0.7973 -0.4026 -0.2733
  887MOL0     O19657   5.922   2.858   6.583  0.1363 -0.1265  0.6260
  887MOL0     C19658   6.141   2.615   6.742 -0.3773 -0.0436  0.9256
  887MOL0     C19659   6.230   2.598   6.848  0.5466 -0.1890  0.0383
  887MOL0     N19660   6.550   2.682   7.429  0.3665 -0.8461 -0.8761
  887MOL0     N19661   6.578   2.655   7.552  0.2480 -0.4498 -0.6524
  887MOL0     C19662   7.196   2.755   8.631 -0.3399 -1.1237 -0.0223
  887MOL0     C19663   7.279   2.851   8.703 -0.6126  0.0334 -0.3756
  887MOL0     C19664   7.628   3.130   8.775 -0.2076 -0.4301 -0.3923
  887MOL0     C19665   7.573   3.254   8.811 -0.8196 -0.8599  0.2019
  887MOL0     C19666   7.642   3.354   8.873 -0.0951 -0.5842 -0.2488
  887MOL0     C19667   7.775   3.326   8.913  0.0799  0.6888  0.6708
  887MOL0     O19668   7.849   3.427   8.984 -0.4185  0.7477  0.7958
  887MOL0     C19669   7.921   3.504   8.888 -0.1714 -0.1015  0.6127
  887MOL0     C19670   7.983   3.628   8.956 -0.1275  0.0066 -0.1729
  887MOL0     C19671   8.069   3.706   8.860  0.2531 -0.6951  0.2451
  887MOL0     C19672   8.205   3.651   8.859  0.0677 -0.8608  0.6785
  887MOL0     C19673   8.270   3.656   8.734 -0.1270 -0.1786 -0.1595
  887MOL0     C19674   8.323   3.668   8.625 -0.3135  0.3424 -0.0043
  887MOL0     C19675   7.831   3.203   8.882 -0.2047  0.2818 -0.9021
  887MOL0     C19676   7.764   3.103   8.818 -0.4371  0.2514  0.1877
  887MOL0     C19677   7.830   2.965   8.793  0.2251  0.9065  0.6730
  887MOL0     H19678   7.352   3.038   8.429 -2.3792 -2.6272 -4.2724
  887MOL0     H19679   7.208   2.897   8.328  0.6300  2.3825  0.0804
  887MOL0     H19680   6.982   2.693   8.291 -0.5578  0.4709  2.8520
  887MOL0     H19681   7.162   2.705   8.240  0.6961  0.2586  1.1659
  887MOL0     H19682   7.005   2.444   8.279 -0.5302  0.2135  1.3844
  887MOL0     H19683   7.164   2.460   8.258 -1.7623 -2.5239  1.4005
  887MOL0     H19684   7.133   2.555   8.022 -2.4590 -0.2649 -1.3911
  887MOL0     H19685   6.955   2.561   8.050 -1.0981 -3.9142 -1.4678
  887MOL0     H19686   7.104   2.302   8.032  0.5067  1.1322  0.2869
  887MOL0     H19687   6.944   2.303   8.064  1.4642 -1.6056  1.3118
  887MOL0     H19688   7.040   2.414   7.787 -0.2591  1.2112  0.5042
  887MOL0     H19689   7.014   2.248   7.826  0.0864 -0.3936  1.1649
  887MOL0     H19690   6.786   2.261   7.855 -0.4774  1.0077  1.9164
  887MOL0     H19691   6.788   2.429   7.916  1.0895 -1.1603  3.0002
  887MOL0     H19692   6.672   2.364   7.682  0.8108  1.4369 -1.0848
  887MOL0     H19693   6.823   2.335   7.622  1.0232  0.6066 -0.5835
  887MOL0     H19694   6.750   2.611   7.752  0.9755 -4.2373  2.5067
  887MOL0     H19695   6.878   2.589   7.633 -0.0669  0.5368  1.6693
  887MOL0     H19696   6.812   2.492   7.372 -0.3654 -1.5227  1.7542
  887MOL0     H19697   6.693   2.562   7.142 -2.1144 -3.8050  0.7707
  887MOL0     H19698   6.524   2.566   7.171 -0.6005  1.2978 -1.2838
  887MOL0     H19699   6.696   2.810   7.180  0.8905 -2.9716  1.4625
  887MOL0     H19700   6.631   2.745   7.027 -3.5083 -0.3663 -0.6371
  887MOL0     H19701   6.479   2.911   7.076 -1.8168  1.6896  2.3810
  887MOL0     H19702   6.505   2.905   7.250 -0.1084  4.2666 -2.0189
  887MOL0     H19703   6.260   2.832   7.155  0.5855  2.3618 -1.2990
  887MOL0     H19704   6.327   2.719   7.257 -0.9343  3.4918  2.4107
  887MOL0     H19705   6.231   2.922   6.972 -4.2108  4.9467 -4.0402
  887MOL0     H19706   6.056   2.937   6.790  1.6763 -0.7705 -1.4326
  887MOL0     H19707   5.669   2.649   6.559  0.2201  3.7691 -0.5438
  887MOL0     H19708   5.510   2.609   6.368 -0.7744 -1.0739 -2.6887
  887MOL0     H19709   5.413   2.527   6.154 -0.6617 -1.7714 -1.5467
  887MOL0     H19710   5.414   2.710   6.149  2.0040  0.7351 -0.0970
  887MOL0     H19711   5.303   2.647   5.936  0.5501  1.8884 -0.4063
  887MOL0     H19712   5.460   2.705   5.897  0.3433 -0.2257 -0.0880
  887MOL0     H19713   5.556   2.492   5.861 -0.3934 -2.2870 -2.2222
  887MOL0     H19714   5.420   2.412   5.930 -0.3442 -0.2661  0.3875
  887MOL0     H19715   5.364   2.611   5.702  4.5492 -0.8307 -1.0652
  887MOL0     H19716   5.289   2.449   5.737 -0.9355  1.1437  0.0350
  887MOL0     H19717   5.490   2.342   5.665 -3.1909 -0.5404  1.1009
  887MOL0     H19718   5.540   2.501   5.591 -1.2335  0.8691 -0.6767
  887MOL0     H19719   5.428   2.372   5.418  0.2458  0.5776 -1.0576
  887MOL0     H19720   5.308   2.311   5.533 -0.3957  0.4723 -0.1758
  887MOL0     H19721   5.308   2.611   5.471 -0.0797  0.5446 -1.6966
  887MOL0     H19722   5.172   2.518   5.521 -1.3679  1.0296 -0.4165
  887MOL0     H19723   5.334   2.499   5.250  0.0412  0.5042 -0.2594
  887MOL0     H19724   5.171   2.420   5.276  2.6426 -0.3139 -1.3590
  887MOL0     H19725   5.810   2.628   6.093 -4.1450 -0.8238 -0.2549
  887MOL0     H19726   5.998   2.653   6.267 -0.2167 -0.0023 -4.4393
  887MOL0     H19727   6.127   2.521   6.691 -0.4269 -0.5480  1.8587
  887MOL0     H19728   6.274   2.501   6.870 -1.3191 -1.2964 -0.8293
  887MOL0     H19729   7.153   2.668   8.680 -2.3450  2.0200  4.4644
  887MOL0     H19730   7.298   2.827   8.807  1.4230 -1.8656 -1.0904
  887MOL0     H19731   7.471   3.282   8.787 -1.6073 -0.6726  3.2984
  887MOL0     H19732   7.592   3.450   8.884  2.0073  0.4591  0.7790
  887MOL0     H19733   7.863   3.532   8.800  2.1919 -0.8696 -1.3281
  887MOL0     H19734   7.990   3.427   8.851 -1.9771 -2.6825  2.2438
  887MOL0     H19735   8.042   3.603   9.045  1.0882 -0.2068 -1.0112
  887MOL0     H19736   7.905   3.699   8.985  1.2989  1.9981 -0.9711
  887MOL0     H19737   8.081   3.807   8.899  1.8255  0.7853 -3.6333
  887MOL0     H19738   8.021   3.715   8.762 -2.0472 -0.3885  1.3211
  887MOL0     H19739   8.257   3.707   8.937 -0.4299  0.8650 -0.1967
  887MOL0     H19740   8.206   3.547   8.895 -0.4145 -0.7695  0.9652
  887MOL0     H19741   8.353   3.676   8.522  1.6236 -1.5873  0.3530
  887MOL0     H19742   7.925   3.179   8.931 -1.2902 -1.7570  0.3408
  887MOL0     H19743   7.777   2.876   8.828 -0.2488  1.2730  0.9127
  887MOL0     H19744   7.854   2.941   8.689 -2.1063 -0.5761  0.3947
  887MOL0     H19745   7.924   2.966   8.849  0.7598 -0.5559 -0.1469
  888MOL0     O19746  10.322  11.461   9.803  0.5981  0.5245  0.2997
  888MOL0     C19747  10.310  11.376   9.717 -0.4650  0.1027 -0.0379
  888MOL0     O19748  10.236  11.380   9.597 -0.1541 -0.4548 -0.1581
  888MOL0     C19749  10.174  11.489   9.553  0.2024 -0.9083 -0.2912
  888MOL0     C19750  10.208  11.621   9.555 -0.1779  0.4472 -0.1492
  888MOL0     C19751  10.127  11.716   9.493  0.3520  0.5238 -0.1402
  888MOL0     C19752  10.015  11.673   9.413 -0.4073  0.1414  0.8437
  888MOL0     O19753   9.947  11.762   9.339 -0.0248 -1.0338 -0.0249
  888MOL0     C19754   9.891  11.878   9.407  0.5554 -0.5821  0.5274
  888MOL0     C19755   9.776  11.965   9.330 -0.7182 -0.0209 -0.5633
  888MOL0     C19756   9.670  11.868   9.260 -0.7039 -0.0026  0.1209
  888MOL0     C19757   9.579  11.954   9.167 -0.6809  0.2360  0.4193
  888MOL0     C19758   9.439  11.896   9.135 -0.1293  0.4336 -0.2559
  888MOL0     C19759   9.349  11.913   9.262 -0.7172 -0.3566  0.3844
  888MOL0     C19760   9.272  12.045   9.277  0.2504  0.4741 -0.6347
  888MOL0     C19761   9.229  12.088   9.417 -0.2428 -0.0784  0.8836
  888MOL0     N19762   9.155  11.989   9.494  0.0946  0.0364 -0.7703
  888MOL0     C19763   9.061  12.037   9.586 -0.0390 -0.4557 -0.0060
  888MOL0     C19764   9.011  11.943   9.661  1.0403  0.1428 -0.8848
  888MOL0     C19765   8.931  11.958   9.789 -0.0054  0.0495  0.3402
  888MOL0     C19766   8.783  11.999   9.755 -0.3357  0.9512 -0.1326
  888MOL0     C19767   8.693  12.029   9.875  0.7690 -0.4344 -0.1771
  888MOL0     C19768   8.543  12.055   9.854  0.1466 -0.1047  0.1353
  888MOL0     O19769   8.538  12.142   9.739 -0.1121  1.1112 -0.7901
  888MOL0     C19770   8.418  12.187   9.699 -0.1072  0.5379 -0.6172
  888MOL0     C19771   8.421  12.280   9.605  0.1281 -0.7794 -0.7423
  888MOL0     C19772   8.300  12.347   9.572  0.1850 -0.7983  0.3316
  888MOL0     C19773   8.179  12.316   9.617 -0.6725 -0.2385  0.3124
  888MOL0     C19774   8.054  12.393   9.577  0.0174  0.9337 -0.1127
  888MOL0     O19775   8.063  12.507   9.499  0.5354 -0.2271  0.1651
  888MOL0     C19776   7.948  12.566   9.450  0.0804  1.1356 -0.3230
  888MOL0     C19777   7.944  12.705   9.450  0.3554 -0.0412 -0.5676
  888MOL0     C19778   7.828  12.772   9.421 -0.4718  0.7498 -0.1323
  888MOL0     C19779   7.719  12.709   9.386 -0.3348 -0.6176  0.2427
  888MOL0     O19780   7.599  12.777   9.361 -0.3320  0.5580  0.7442
  888MOL0     C19781   7.497  12.768   9.462 -0.0635  0.1232  0.3674
  888MOL0     C19782   7.420  12.904   9.473  0.0474  0.3022 -0.2251
  888MOL0     C19783   7.360  12.941   9.338 -0.9359 -0.0496  0.0974
  888MOL0     C19784   7.322  13.095   9.331  0.7918 -0.4015 -0.4410
  888MOL0     C19785   7.247  13.117   9.196  0.0487  0.4924 -0.5721
  888MOL0     C19786   7.201  13.263   9.172 -0.4245 -0.3992  0.0468
  888MOL0     C19787   7.164  13.284   9.019  0.2448  0.0764 -0.2323
  888MOL0     C19788   7.032  13.207   8.971  0.1087 -0.5393  0.7671
  888MOL0    Cl19789   7.065  13.045   8.910 -0.0642 -0.1567  0.5660
  888MOL0     C19790   7.724  12.567   9.365  0.9569  0.5996  0.1230
  888MOL0     C19791   7.834  12.491   9.401  1.6168 -0.1565  0.4083
  888MOL0     O19792   7.950  12.337   9.609  0.0614  0.1601  0.2516
  888MOL0     C19793   8.171  12.205   9.705  0.4569 -0.3612  0.5730
  888MOL0     C19794   8.290  12.143   9.746 -0.2043  0.6390  0.2212
  888MOL0     N19795   9.065  11.827   9.615 -0.2805  0.3104  0.0656
  888MOL0     N19796   9.147  11.853   9.514 -0.2143 -0.9055 -0.0716
  888MOL0     C19797   9.985  11.541   9.402 -0.6957 -0.1850 -0.2336
  888MOL0     C19798  10.065  11.454   9.470  0.1606 -0.4838 -0.5211
  888MOL0     C19799  10.375  11.245   9.747  0.3236  0.6176  0.3416
  888MOL0     C19800  10.456  11.186   9.646  1.1624 -1.2944 -0.3767
  888MOL0     C19801  10.498  11.060   9.669  0.4271  0.5053 -0.1751
  888MOL0     C19802  10.467  10.987   9.788 -0.2204 -0.7276 -0.3059
  888MOL0     O19803  10.520  10.855   9.797  0.1866  0.4655 -0.3955
  888MOL0     C19804  10.446  10.759   9.865 -0.9990  0.5458 -0.5071
  888MOL0     C19805  10.365  10.670   9.761  0.7569  0.0953 -0.9025
  888MOL0     C19806  10.308  10.552   9.833 -0.4642 -0.1277  0.9130
  888MOL0     C19807  10.207  10.465   9.748 -0.6080  0.7432  0.0382
  888MOL0     C19808  10.097  10.547   9.690 -0.5842 -0.3537  0.1716
  888MOL0     C19809  10.017  10.615   9.630  0.0724  0.8259  0.7955
  888MOL0     C19810  10.381  11.050   9.883  0.6010 -0.2799 -0.8807
  888MOL0     C19811  10.332  11.172   9.855  0.8476  0.3074 -0.0249
  888MOL0     C19812  10.207  11.201   9.935 -0.1545  0.2836 -0.1119
  888MOL0     H19813  10.288  11.643   9.624 -0.0527 -1.4009  0.3575
  888MOL0     H19814  10.143  11.823   9.503  0.3673  0.6567 -1.4418
  888MOL0     H19815   9.833  11.851   9.496  1.3003  2.7644  2.2047
  888MOL0     H19816   9.972  11.947   9.435 -1.3598  1.7152  0.7260
  888MOL0     H19817   9.824  12.027   9.253  2.1852  0.7504  1.6550
  888MOL0     H19818   9.730  12.027   9.407 -0.3154 -1.3463  0.7961
  888MOL0     H19819   9.602  11.823   9.334 -0.7246  1.6452  1.1465
  888MOL0     H19820   9.713  11.781   9.210 -0.0178 -1.0920  2.4268
  888MOL0     H19821   9.579  12.061   9.187  3.5709  0.5617 -0.4380
  888MOL0     H19822   9.639  11.955   9.075  2.1193  0.7922  2.1404
  888MOL0     H19823   9.389  11.937   9.046 -2.2254  0.0939  0.6953
  888MOL0     H19824   9.457  11.790   9.114 -1.5642  0.4723 -1.9970
  888MOL0     H19825   9.275  11.834   9.247 -0.6627 -1.1482  3.5435
  888MOL0     H19826   9.404  11.898   9.355 -2.5149 -2.7910  1.1650
  888MOL0     H19827   9.182  12.030   9.218 -2.0925  1.7555  2.3595
  888MOL0     H19828   9.337  12.121   9.231  3.7113 -2.0825 -0.4251
  888MOL0     H19829   9.324  12.115   9.464  1.7102  1.8754 -3.5406
  888MOL0     H19830   9.172  12.181   9.424 -1.7228 -0.8883  0.2295
  888MOL0     H19831   9.043  12.142   9.602 -1.9352 -0.6213 -0.8092
  888MOL0     H19832   8.927  11.862   9.842 -1.0049 -0.1229 -0.0223
  888MOL0     H19833   8.971  12.028   9.862 -1.2429  1.9777 -0.7552
  888MOL0     H19834   8.766  12.085   9.690  0.0170 -0.3332 -2.0193
  888MOL0     H19835   8.731  11.917   9.705 -0.2543  0.7909  0.0429
  888MOL0     H19836   8.727  12.121   9.924 -0.2634  0.7906 -1.6601
  888MOL0     H19837   8.690  11.945   9.945 -3.2681 -1.2967 -1.1338
  888MOL0     H19838   8.497  12.107   9.939 -0.5557  0.9698 -0.8679
  888MOL0     H19839   8.499  11.956   9.841 -1.2962  0.2674  1.8410
  888MOL0     H19840   8.518  12.319   9.576  3.0874 -5.4427  1.5512
  888MOL0     H19841   8.293  12.444   9.524  1.5297 -0.1732  1.3303
  888MOL0     H19842   8.034  12.759   9.477  0.3406 -2.1259  5.0022
  888MOL0     H19843   7.838  12.878   9.445 -1.7926  0.8292  0.1300
  888MOL0     H19844   7.429  12.684   9.444  0.8614 -0.6218  0.3112
  888MOL0     H19845   7.543  12.760   9.560 -0.5875 -0.2099  0.5913
  888MOL0     H19846   7.345  12.881   9.549 -0.3244 -3.1769 -1.4984
  888MOL0     H19847   7.490  12.984   9.499 -0.0203  1.3346 -2.9267
  888MOL0     H19848   7.427  12.915   9.255  1.2301  0.2538  1.6641
  888MOL0     H19849   7.282  12.864   9.336  3.5739 -5.4780  2.5879
  888MOL0     H19850   7.403  13.168   9.340 -0.1737  0.4887  1.6285
  888MOL0     H19851   7.255  13.119   9.413 -0.0364 -0.2629 -1.1510
  888MOL0     H19852   7.184  13.038   9.153 -1.0616  1.9121 -1.6821
  888MOL0     H19853   7.332  13.111   9.127 -0.4194  1.0227 -1.2155
  888MOL0     H19854   7.111  13.284   9.231 -1.1735 -0.7683 -0.9426
  888MOL0     H19855   7.277  13.336   9.202  1.1628 -1.2190 -1.8076
  888MOL0     H19856   7.241  13.260   8.945  0.4447 -0.6283  0.1927
  888MOL0     H19857   7.144  13.390   9.005 -2.6217 -0.5512 -1.7177
  888MOL0     H19858   6.960  13.180   9.048 -1.8262  1.8939 -0.0546
  888MOL0     H19859   6.978  13.261   8.892 -0.2754 -3.5279 -1.1937
  888MOL0     H19860   7.631  12.513   9.352 -0.6364  1.9143  4.3299
  888MOL0     H19861   7.840  12.384   9.385  0.2416 -0.4045  1.3737
  888MOL0     H19862   8.079  12.158   9.737 -0.3341  0.6176 -0.1676
  888MOL0     H19863   8.284  12.063   9.819 -0.0558  0.5233  0.1067
  888MOL0     H19864   9.904  11.514   9.335 -2.8355  1.4834  1.4878
  888MOL0     H19865  10.037  11.349   9.482 -0.1675 -0.3944 -0.5111
  888MOL0     H19866  10.480  11.236   9.554 -0.6971  1.2206  0.4015
  888MOL0     H19867  10.549  10.994   9.599 -3.1614 -1.9409 -0.7285
  888MOL0     H19868  10.382  10.804   9.942  0.3666  1.0845  0.3619
  888MOL0     H19869  10.515  10.692   9.917 -2.6380 -1.5760 -0.9485
  888MOL0     H19870  10.429  10.633   9.680 -0.3344  0.0135 -1.7519
  888MOL0     H19871  10.287  10.722   9.705  0.1764  1.2736  0.9193
  888MOL0     H19872  10.259  10.562   9.930 -0.0233 -3.9736  1.6753
  888MOL0     H19873  10.392  10.493   9.870 -0.3720 -1.7331 -1.6028
  888MOL0     H19874  10.261  10.413   9.668 -0.1412  0.8574  0.2757
  888MOL0     H19875  10.159  10.386   9.807  0.1591 -0.3713 -0.7612
  888MOL0     H19876   9.949  10.679   9.579  2.1849  2.0629 -0.6433
  888MOL0     H19877  10.349  11.003   9.976 -0.1549  2.9857  0.6787
  888MOL0     H19878  10.163  11.293   9.896  0.1167  0.4801  0.0395
  888MOL0     H19879  10.139  11.119   9.915 -0.6068  0.8601 -0.9820
  888MOL0     H19880  10.229  11.210  10.042  2.0202  0.3068 -0.4983
  889MOL0     O19881   8.687   5.764   0.495  0.3837  0.2354  0.1167
  889MOL0     C19882   8.656   5.644   0.513 -0.2318 -0.3473  0.3068
  889MOL0     O19883   8.744   5.544   0.508  0.1323  0.2244  0.0196
  889MOL0     C19884   8.873   5.575   0.509 -0.4838 -0.0290  0.3464
  889MOL0     C19885   8.953   5.554   0.397  0.0463  0.4898  0.1089
  889MOL0     C19886   9.082   5.590   0.404  0.1058 -0.1270 -0.1936
  889MOL0     C19887   9.136   5.641   0.510 -0.3332  0.1978 -1.0401
  889MOL0     O19888   9.276   5.638   0.509 -0.3712  0.4604  1.1580
  889MOL0     C19889   9.369   5.640   0.623  1.5431  0.5233  0.1240
  889MOL0     C19890   9.509   5.690   0.583 -0.4410  0.3792  0.0264
  889MOL0     C19891   9.602   5.654   0.705 -0.1326 -0.3644 -0.3682
  889MOL0     C19892   9.760   5.681   0.689 -0.5271 -0.0981  0.0217
  889MOL0     C19893   9.788   5.809   0.619 -0.3245  0.2773 -0.5043
  889MOL0     C19894   9.736   5.937   0.691  0.3159 -0.8467  0.7450
  889MOL0     C19895   9.837   5.982   0.789 -0.2617 -0.3385  1.2355
  889MOL0     C19896   9.801   6.119   0.844  0.3502  0.3570 -0.4517
  889MOL0     N19897   9.912   6.211   0.820  1.2348 -0.1374  0.6118
  889MOL0     C19898   9.964   6.256   0.698  0.3580  0.6047 -0.9552
  889MOL0     C19899  10.057   6.341   0.731  0.8129 -0.5137 -0.1670
  889MOL0     C19900  10.153   6.410   0.639  0.5301 -0.6039  0.0119
  889MOL0     C19901  10.292   6.342   0.639 -0.6082  1.0229 -0.5955
  889MOL0     C19902  10.387   6.413   0.542  0.4394 -0.1272  0.1749
  889MOL0     C19903  10.505   6.324   0.512 -0.1941  0.9331  0.1703
  889MOL0     O19904  10.497   6.291   0.370  0.7372 -0.0212 -0.7967
  889MOL0     C19905  10.603   6.350   0.297  0.0755  0.6161  0.0932
  889MOL0     C19906  10.703   6.261   0.254  0.4805 -0.8910 -0.4563
  889MOL0     C19907  10.815   6.318   0.181  0.7859 -0.4574  0.1633
  889MOL0     C19908  10.824   6.463   0.168  0.0787  0.6888  0.7094
  889MOL0     C19909  10.942   6.523   0.100  0.9765 -0.7079  0.0032
  889MOL0     O19910  11.060   6.452   0.094  0.6603  0.6268  0.5287
  889MOL0     C19911  11.173   6.509   0.027 -0.2744 -0.1206 -0.4493
  889MOL0     C19912  11.240   6.438  -0.069  0.2632  0.5157  0.4224
  889MOL0     C19913  11.360   6.485  -0.135  0.0608 -0.4687 -0.1208
  889MOL0     C19914  11.423   6.602  -0.084  0.8258 -0.0050  0.0872
  889MOL0     O19915  11.544   6.655  -0.128  0.2180 -0.2892  0.2959
  889MOL0     C19916  11.595   6.630  -0.260  0.7816 -0.2353  0.8933
  889MOL0     C19917  11.712   6.717  -0.303  0.3997  0.4708 -0.3037
  889MOL0     C19918  11.769   6.658  -0.434 -0.0168 -0.1560 -0.1788
  889MOL0     C19919  11.893   6.734  -0.485 -1.1782 -0.9654  0.5952
  889MOL0     C19920  11.911   6.719  -0.634  0.0669 -0.7282 -1.0599
  889MOL0     C19921  12.049   6.762  -0.680 -0.4375 -0.8703  0.0164
  889MOL0     C19922  12.156   6.652  -0.656 -0.9496 -1.2664 -0.2491
  889MOL0     C19923  12.302   6.696  -0.651 -0.3761 -0.7975 -0.3657
  889MOL0    Cl19924  12.357   6.789  -0.798 -0.0136  0.1123  0.0300
  889MOL0     C19925  11.365   6.668   0.022 -0.7164 -0.7381 -0.3703
  889MOL0     C19926  11.233   6.633   0.071 -0.0422  0.0900  0.5401
  889MOL0     O19927  10.931   6.636   0.056 -0.1400 -1.1098 -0.4193
  889MOL0     C19928  10.704   6.533   0.184  0.5434 -0.3726 -0.9413
  889MOL0     C19929  10.598   6.476   0.248 -0.2507 -0.9916  0.0941
  889MOL0     N19930  10.060   6.354   0.868 -0.0270  0.5657 -0.9359
  889MOL0     N19931   9.974   6.270   0.916 -0.5189  0.1097 -0.9648
  889MOL0     C19932   9.063   5.652   0.635  0.1567  0.0347 -0.1412
  889MOL0     C19933   8.929   5.618   0.630  0.2357 -0.6742  0.6241
  889MOL0     C19934   8.512   5.599   0.529  0.0022  0.6378 -0.1001
  889MOL0     C19935   8.410   5.670   0.455 -0.1274  0.0395 -0.4253
  889MOL0     C19936   8.277   5.637   0.467  0.7211  0.3790 -0.2226
  889MOL0     C19937   8.239   5.534   0.546 -0.1860 -1.0594  0.2305
  889MOL0     O19938   8.104   5.499   0.553 -0.1657 -0.2500  0.1252
  889MOL0     C19939   8.043   5.463   0.675 -0.0002  0.0944  0.2472
  889MOL0     C19940   7.917   5.393   0.625  0.1432  0.2020  0.4467
  889MOL0     C19941   7.846   5.332   0.744  0.3077  0.7754  0.0190
  889MOL0     C19942   7.731   5.252   0.689 -0.3700 -0.9949 -0.1181
  889MOL0     C19943   7.652   5.206   0.803  0.0827  0.2522 -0.4800
  889MOL0     C19944   7.586   5.158   0.892  0.2839  0.2365 -0.1592
  889MOL0     C19945   8.341   5.471   0.624  0.3795 -0.3108 -0.5351
  889MOL0     C19946   8.471   5.496   0.617 -0.6882  0.5909  0.3816
  889MOL0     C19947   8.566   5.415   0.699  0.3771 -0.6097  0.2206
  889MOL0     H19948   8.920   5.506   0.306 -0.4375  0.0977  0.4847
  889MOL0     H19949   9.139   5.587   0.312 -0.3151  0.0658 -0.4667
  889MOL0     H19950   9.328   5.713   0.693  2.9312  2.2811 -0.8136
  889MOL0     H19951   9.380   5.538   0.663  0.5368 -0.1220 -1.1902
  889MOL0     H19952   9.507   5.799   0.572 -0.6309  0.3039 -0.7814
  889MOL0     H19953   9.542   5.625   0.501  1.5746  0.2338  0.9041
  889MOL0     H19954   9.589   5.546   0.712 -0.7809 -0.5526 -3.2088
  889MOL0     H19955   9.570   5.706   0.796 -0.0690  1.4543 -1.3313
  889MOL0     H19956   9.801   5.688   0.790 -0.6238  1.4978 -0.0240
  889MOL0     H19957   9.798   5.597   0.630  0.9138  1.3808 -1.2613
  889MOL0     H19958   9.895   5.828   0.611  0.0099 -1.8049 -1.5221
  889MOL0     H19959   9.760   5.804   0.514  2.0465  0.3076 -1.1966
  889MOL0     H19960   9.725   6.022   0.622 -2.3713  0.1673  2.2451
  889MOL0     H19961   9.634   5.932   0.732 -0.0953  0.6722 -0.0109
  889MOL0     H19962   9.937   5.974   0.745 -2.0666 -1.1477 -3.2162
  889MOL0     H19963   9.838   5.904   0.866  1.3223 -0.6782  0.9066
  889MOL0     H19964   9.700   6.153   0.822  0.2826 -0.0352 -0.7634
  889MOL0     H19965   9.797   6.099   0.952 -4.2409 -1.8051 -0.7924
  889MOL0     H19966   9.943   6.233   0.594  1.1968 -2.9159 -0.4804
  889MOL0     H19967  10.108   6.406   0.540  2.1693 -0.1079 -0.7997
  889MOL0     H19968  10.158   6.513   0.677 -4.8385 -0.2256  0.5085
  889MOL0     H19969  10.318   6.356   0.745 -2.4001  0.2527 -0.0254
  889MOL0     H19970  10.281   6.238   0.609 -0.9224  0.4140  1.4490
  889MOL0     H19971  10.417   6.503   0.595 -0.7129 -0.4364  1.4157
  889MOL0     H19972  10.341   6.448   0.449  0.6008  3.5340  1.3121
  889MOL0     H19973  10.512   6.231   0.569 -1.4577  0.3642 -0.5672
  889MOL0     H19974  10.600   6.378   0.521 -0.6324  1.7873 -0.2036
  889MOL0     H19975  10.698   6.153   0.265  0.7170 -0.8270  0.3565
  889MOL0     H19976  10.898   6.249   0.170  1.1734 -0.2982  1.8148
  889MOL0     H19977  11.195   6.343  -0.095 -0.3833  0.4751  1.6460
  889MOL0     H19978  11.401   6.422  -0.213  0.1873  0.1514 -0.5549
  889MOL0     H19979  11.614   6.524  -0.278  0.2959 -0.0730 -0.7490
  889MOL0     H19980  11.515   6.635  -0.334  2.0216  1.1188 -0.4397
  889MOL0     H19981  11.683   6.822  -0.313  2.2447  0.9435 -1.1701
  889MOL0     H19982  11.780   6.711  -0.218 -1.0454 -0.3228  0.8280
  889MOL0     H19983  11.789   6.551  -0.430 -0.1447 -0.3215 -2.4392
  889MOL0     H19984  11.685   6.679  -0.501  0.1695  1.8459  0.1532
  889MOL0     H19985  11.985   6.689  -0.445 -1.2395 -1.4425  0.2209
  889MOL0     H19986  11.892   6.841  -0.463  0.2950 -0.6251 -0.7620
  889MOL0     H19987  11.839   6.788  -0.678  0.3897  1.0690  1.0806
  889MOL0     H19988  11.877   6.619  -0.663 -1.5558 -0.7577  0.7215
  889MOL0     H19989  12.052   6.798  -0.783  2.7888 -2.3579 -0.5259
  889MOL0     H19990  12.074   6.855  -0.628 -1.0756  1.5663 -3.6313
  889MOL0     H19991  12.154   6.572  -0.732 -2.2115  1.3196 -3.1421
  889MOL0     H19992  12.128   6.609  -0.559 -1.4158  0.7460  0.5478
  889MOL0     H19993  12.346   6.743  -0.562 -1.3724  1.7687 -1.1274
  889MOL0     H19994  12.357   6.602  -0.646 -1.4193 -1.6239  6.9030
  889MOL0     H19995  11.421   6.755   0.055 -1.6922 -0.3589  0.3529
  889MOL0     H19996  11.186   6.696   0.145 -0.8370 -1.3080  1.2792
  889MOL0     H19997  10.705   6.639   0.161  0.7256 -0.0326  0.5132
  889MOL0     H19998  10.501   6.523   0.257  0.7533  1.0019  1.0671
  889MOL0     H19999   9.125   5.688   0.716  3.1944 -0.2767 -2.1956
  889MOL0     H20000   8.868   5.618   0.720  1.2756 -0.3690  1.3522
  889MOL0     H20001   8.440   5.748   0.386  0.4839  1.2913  1.1870
  889MOL0     H20002   8.206   5.701   0.416  2.0470  1.7307 -0.4578
  889MOL0     H20003   8.022   5.552   0.736 -0.0371  1.6035 -1.8363
  889MOL0     H20004   8.097   5.391   0.736  2.0588  0.8031 -0.6285
  889MOL0     H20005   7.942   5.313   0.555 -1.4996  0.0102  0.0438
  889MOL0     H20006   7.852   5.466   0.578 -0.9666  0.8193  2.7910
  889MOL0     H20007   7.813   5.412   0.811  0.4140  0.2802  0.6675
  889MOL0     H20008   7.908   5.257   0.793 -0.9539 -2.3429 -2.8013
  889MOL0     H20009   7.671   5.317   0.623  2.7285 -0.5964 -2.7992
  889MOL0     H20010   7.769   5.165   0.636  1.9380  1.4313 -2.7803
  889MOL0     H20011   7.520   5.114   0.964 -0.6426  0.4021 -0.8866
  889MOL0     H20012   8.309   5.399   0.699 -0.4567 -0.5605 -1.1187
  889MOL0     H20013   8.627   5.489   0.751 -0.2057  0.7449 -0.9749
  889MOL0     H20014   8.509   5.364   0.777 -0.2039 -1.9843 -1.0599
  889MOL0     H20015   8.633   5.346   0.647  2.2598  0.9883  0.4292
  890MOL0     O20016   4.733   9.729   4.549  0.0991 -0.2847 -0.5684
  890MOL0     C20017   4.668   9.841   4.550  0.4402 -0.8454 -0.0358
  890MOL0     O20018   4.532   9.852   4.576  0.1732 -0.2285  0.8210
  890MOL0     C20019   4.474   9.736   4.599 -0.7088  0.0378 -0.6952
  890MOL0     C20020   4.381   9.690   4.501 -0.4904 -0.3734 -1.0179
  890MOL0     C20021   4.336   9.562   4.511  0.6112 -0.2269 -0.4796
  890MOL0     C20022   4.368   9.487   4.628  0.1484 -0.0289 -0.5038
  890MOL0     O20023   4.300   9.368   4.670  0.2422  0.4508  0.3970
  890MOL0     C20024   4.267   9.273   4.561 -0.6449  0.5652  0.0173
  890MOL0     C20025   4.271   9.121   4.609  0.1771 -0.6505 -0.4248
  890MOL0     C20026   4.411   9.053   4.640 -0.2652 -1.2204  0.8411
  890MOL0     C20027   4.478   8.995   4.518 -0.9619  0.1631  0.5486
  890MOL0     C20028   4.584   8.884   4.550  0.4970 -0.4916  0.4226
  890MOL0     C20029   4.520   8.743   4.577 -0.2541  0.1293  0.3562
  890MOL0     C20030   4.425   8.678   4.472  0.8115  0.5119 -0.0153
  890MOL0     C20031   4.396   8.531   4.495  1.0873 -0.7399 -0.3407
  890MOL0     N20032   4.326   8.468   4.380 -0.4397 -0.0779  0.0048
  890MOL0     C20033   4.360   8.350   4.320 -0.3736 -0.5725  0.3083
  890MOL0     C20034   4.287   8.332   4.214 -0.0889 -0.1904  0.5069
  890MOL0     C20035   4.305   8.230   4.112 -0.3658  0.3209  0.8065
  890MOL0     C20036   4.237   8.281   3.983  0.4334 -0.7604  0.3714
  890MOL0     C20037   4.242   8.187   3.866 -1.2064 -0.0780  0.5637
  890MOL0     C20038   4.230   8.258   3.724 -0.0784 -0.3494 -1.4819
  890MOL0     O20039   4.088   8.277   3.693 -0.3803 -0.4441  0.2952
  890MOL0     C20040   4.065   8.395   3.627  0.5542  0.5603 -0.3458
  890MOL0     C20041   4.089   8.416   3.485  0.6936  0.9209  0.2998
  890MOL0     C20042   4.043   8.537   3.429 -0.1576  0.5524 -0.5505
  890MOL0     C20043   3.973   8.634   3.502 -0.8379  0.5164 -0.0997
  890MOL0     C20044   3.918   8.763   3.449  0.1032  0.1781 -0.1871
  890MOL0     O20045   3.844   8.841   3.536 -0.5019  0.0208  1.0245
  890MOL0     C20046   3.792   8.963   3.489 -0.2543 -0.0349 -0.3186
  890MOL0     C20047   3.692   9.026   3.571 -0.1897  0.7942 -0.0709
  890MOL0     C20048   3.636   9.152   3.548 -0.2803  1.4052  0.2207
  890MOL0     C20049   3.682   9.236   3.446  0.5808 -0.1293  0.6605
  890MOL0     O20050   3.626   9.361   3.431 -0.3365  0.0780  0.4584
  890MOL0     C20051   3.485   9.370   3.450 -0.5680  0.8681  0.5105
  890MOL0     C20052   3.441   9.517   3.444 -0.1643  0.0418 -0.4479
  890MOL0     C20053   3.283   9.521   3.480  0.0866 -0.8883  0.1064
  890MOL0     C20054   3.238   9.658   3.532 -0.0559  0.3494  0.7793
  890MOL0     C20055   3.109   9.666   3.619  0.1223 -0.0746 -0.6632
  890MOL0     C20056   3.125   9.599   3.757 -0.2851  0.2645  0.3242
  890MOL0     C20057   2.996   9.582   3.827 -0.5752 -0.1530  0.3598
  890MOL0     C20058   3.010   9.542   3.972  0.2608 -0.2002 -0.8297
  890MOL0    Cl20059   3.108   9.403   3.998  0.0779  0.3639  0.3035
  890MOL0     C20060   3.793   9.187   3.372 -0.0080 -0.4086  0.4462
  890MOL0     C20061   3.849   9.057   3.402  0.3497 -0.4439  1.1085
  890MOL0     O20062   3.949   8.788   3.331  0.2746  0.3477 -0.6481
  890MOL0     C20063   3.955   8.602   3.635  0.5797 -0.2584  0.0478
  890MOL0     C20064   4.001   8.492   3.694 -0.2033  0.0471 -0.8628
  890MOL0     N20065   4.208   8.451   4.207 -0.1231  0.4109  0.8250
  890MOL0     N20066   4.243   8.534   4.300 -1.3632  0.5700 -0.0007
  890MOL0     C20067   4.451   9.545   4.725  0.6540 -0.4059 -0.0888
  890MOL0     C20068   4.496   9.672   4.713 -0.2282  0.9181 -0.2809
  890MOL0     C20069   4.730   9.969   4.510 -0.0108 -0.0047  0.0480
  890MOL0     C20070   4.647  10.075   4.472  0.1337 -0.8018  1.6200
  890MOL0     C20071   4.685  10.206   4.423  0.2923 -0.1869 -1.4030
  890MOL0     C20072   4.821  10.222   4.401 -0.6032  0.4221  0.4293
  890MOL0     O20073   4.851  10.343   4.358 -0.4215 -0.1668 -0.9084
  890MOL0     C20074   4.979  10.363   4.304  0.0329  0.2172  0.7369
  890MOL0     C20075   4.996  10.293   4.167 -0.8228 -0.3526 -0.0043
  890MOL0     C20076   5.135  10.337   4.110 -0.5633  0.1878  0.6919
  890MOL0     C20077   5.122  10.465   4.027  0.8085 -1.4459 -0.2909
  890MOL0     C20078   5.248  10.496   3.969 -0.2699  0.9775  0.2374
  890MOL0     C20079   5.348  10.543   3.918 -0.6489 -0.1036 -0.2507
  890MOL0     C20080   4.914  10.117   4.423  0.6357 -0.0363  0.2490
  890MOL0     C20081   4.864   9.988   4.478  0.8180 -0.3416  0.6878
  890MOL0     C20082   4.975   9.890   4.504  0.0521 -0.2286  0.3185
  890MOL0     H20083   4.348   9.767   4.431  1.2801  1.1392 -0.2710
  890MOL0     H20084   4.267   9.528   4.434  0.8355 -2.2572  0.1523
  890MOL0     H20085   4.172   9.306   4.519 -1.8378  2.9760  4.1023
  890MOL0     H20086   4.332   9.277   4.473 -1.0808  0.4387 -0.3130
  890MOL0     H20087   4.222   9.068   4.527  1.3333  0.9754 -2.2616
  890MOL0     H20088   4.207   9.119   4.698  0.8584  0.4640  0.1164
  890MOL0     H20089   4.389   8.971   4.709  1.6810 -1.2618  1.4710
  890MOL0     H20090   4.491   9.123   4.664  1.1543 -1.6832 -2.0392
  890MOL0     H20091   4.408   8.954   4.445  0.0710 -0.9460  0.1393
  890MOL0     H20092   4.535   9.076   4.471 -1.6485  1.1977  1.4691
  890MOL0     H20093   4.652   8.866   4.466  1.5502  2.3946  0.5487
  890MOL0     H20094   4.647   8.915   4.634  1.1277  1.1997 -0.6087
  890MOL0     H20095   4.609   8.682   4.596  0.5846  1.2384  0.1076
  890MOL0     H20096   4.460   8.745   4.669 -0.8303 -3.0371  0.1448
  890MOL0     H20097   4.451   8.688   4.366 -0.3872 -1.4267 -0.5429
  890MOL0     H20098   4.333   8.735   4.482  1.2761  0.9661  2.3850
  890MOL0     H20099   4.488   8.476   4.518  0.3056 -1.9062  0.0716
  890MOL0     H20100   4.328   8.510   4.578  1.8463 -0.4221  0.3652
  890MOL0     H20101   4.443   8.292   4.359  0.0984 -0.5060 -0.5760
  890MOL0     H20102   4.412   8.225   4.089 -0.3163 -1.3021  1.2514
  890MOL0     H20103   4.283   8.131   4.152  0.6887 -0.7799 -1.2213
  890MOL0     H20104   4.129   8.284   4.002  0.3707 -2.0282  0.3461
  890MOL0     H20105   4.271   8.381   3.957  0.9599 -0.7283  1.1557
  890MOL0     H20106   4.163   8.112   3.876  0.7909 -2.6119 -1.3031
  890MOL0     H20107   4.336   8.131   3.866 -0.6866  0.6715 -2.2405
  890MOL0     H20108   4.270   8.206   3.636 -1.7595  1.9398 -3.7363
  890MOL0     H20109   4.280   8.355   3.725  4.5646 -2.4465 -1.9714
  890MOL0     H20110   4.126   8.337   3.420  1.1185 -0.5605  2.2103
  890MOL0     H20111   4.067   8.553   3.324  4.1930 -1.9019 -0.1992
  890MOL0     H20112   3.675   8.970   3.662 -1.4915  0.1181 -0.7005
  890MOL0     H20113   3.561   9.171   3.624 -1.7322 -2.4602 -0.0119
  890MOL0     H20114   3.434   9.328   3.363 -1.6663  0.5544  1.2810
  890MOL0     H20115   3.453   9.317   3.541  1.8902  1.2726  1.6786
  890MOL0     H20116   3.499   9.577   3.515  0.5848  1.6081 -2.3165
  890MOL0     H20117   3.459   9.556   3.344  2.5968 -0.8170 -0.3778
  890MOL0     H20118   3.235   9.492   3.386  3.0180  1.3585 -2.2657
  890MOL0     H20119   3.264   9.449   3.560  2.3359 -0.1226  1.3869
  890MOL0     H20120   3.225   9.719   3.442  0.8370  0.4652  0.7193
  890MOL0     H20121   3.320   9.696   3.593 -0.9729 -0.1131  2.3511
  890MOL0     H20122   3.024   9.615   3.571 -0.3485 -0.4399  0.5313
  890MOL0     H20123   3.096   9.774   3.624  0.3488  0.0602 -2.2951
  890MOL0     H20124   3.160   9.495   3.755  1.6070  0.6663  3.9719
  890MOL0     H20125   3.201   9.650   3.817  0.7962 -1.9796  0.9866
  890MOL0     H20126   2.928   9.508   3.784  1.0198  0.0591 -2.7929
  890MOL0     H20127   2.937   9.673   3.814 -4.0347 -1.6631  3.4339
  890MOL0     H20128   3.057   9.621   4.032  1.3892  0.1385 -2.1266
  890MOL0     H20129   2.910   9.526   4.015  0.2737  1.6994  0.0320
  890MOL0     H20130   3.840   9.240   3.290 -0.4948 -0.7063 -0.0298
  890MOL0     H20131   3.952   9.034   3.377 -0.1518 -0.6886 -0.8577
  890MOL0     H20132   3.905   8.681   3.691  0.8888  0.1536 -0.2529
  890MOL0     H20133   3.990   8.480   3.802 -0.7617  0.3895 -0.8786
  890MOL0     H20134   4.457   9.495   4.821 -0.5746  2.8352  1.8684
  890MOL0     H20135   4.558   9.717   4.790 -2.0561  2.5648  0.3210
  890MOL0     H20136   4.539  10.065   4.474  0.0774 -3.1567 -2.2841
  890MOL0     H20137   4.618  10.290   4.409 -0.3393 -0.0442  1.7095
  890MOL0     H20138   5.061  10.322   4.363  0.4084 -0.0949  0.0069
  890MOL0     H20139   4.998  10.471   4.306  3.4534 -0.2381  3.6631
  890MOL0     H20140   4.910  10.318   4.104 -2.5750 -4.5315  0.4288
  890MOL0     H20141   5.013  10.186   4.181  1.6187  0.1239  1.1762
  890MOL0     H20142   5.182  10.264   4.044  1.3237  1.9960 -0.1029
  890MOL0     H20143   5.212  10.368   4.181  1.4693  1.9059 -2.0418
  890MOL0     H20144   5.060  10.444   3.940  1.0414 -0.6028 -0.6709
  890MOL0     H20145   5.079  10.552   4.078 -0.3240 -1.0155 -1.8914
  890MOL0     H20146   5.442  10.572   3.876  1.9482 -2.8858  3.0582
  890MOL0     H20147   5.019  10.126   4.399 -0.2044  1.5939 -3.7368
  890MOL0     H20148   5.076   9.931   4.498 -0.6213  1.4096 -0.5387
  890MOL0     H20149   4.954   9.850   4.604  0.0051 -2.3408 -0.4733
  890MOL0     H20150   4.973   9.808   4.431  1.6066 -1.4852  1.6281
  891MOL0     O20151   7.637   9.314   1.155  1.4126  0.1050  0.7579
  891MOL0     C20152   7.694   9.208   1.141  0.7825 -0.2811  0.1905
  891MOL0     O20153   7.826   9.174   1.169  0.4128  0.5229 -0.0463
  891MOL0     C20154   7.900   9.259   1.239 -0.6761  1.0013 -0.6817
  891MOL0     C20155   7.953   9.212   1.357 -0.5537 -0.1633 -1.1945
  891MOL0     C20156   8.044   9.300   1.431  0.4632 -0.5402  0.9650
  891MOL0     C20157   8.079   9.426   1.381 -1.3907  0.1143 -0.0328
  891MOL0     O20158   8.167   9.522   1.430  0.0251  0.5556  0.4258
  891MOL0     C20159   8.268   9.464   1.514 -0.4543  0.4014 -0.2543
  891MOL0     C20160   8.368   9.573   1.558 -0.0537  0.7080  0.2960
  891MOL0     C20161   8.292   9.694   1.615 -0.3795  0.4833 -0.9295
  891MOL0     C20162   8.383   9.792   1.697  0.5705 -0.8137  0.2914
  891MOL0     C20163   8.413   9.765   1.845 -0.2691  0.3458  0.3185
  891MOL0     C20164   8.462   9.891   1.915 -0.1763 -0.0093 -0.5945
  891MOL0     C20165   8.435   9.889   2.060 -0.2719  0.4147  0.2000
  891MOL0     C20166   8.468  10.018   2.134 -0.0435 -0.4279 -0.1034
  891MOL0     N20167   8.593  10.091   2.097 -0.4701 -0.4953  0.3438
  891MOL0     C20168   8.722  10.060   2.137  0.2395  0.2122 -0.7521
  891MOL0     C20169   8.812  10.146   2.073 -0.4958  1.1278 -0.3131
  891MOL0     C20170   8.955  10.176   2.097  0.8168  0.5768  0.1186
  891MOL0     C20171   9.059  10.083   2.047 -0.2873 -0.4075 -0.3756
  891MOL0     C20172   9.051   9.929   2.097 -0.2245 -0.4669  0.5085
  891MOL0     C20173   9.090   9.906   2.241  0.4090 -0.1719  0.3038
  891MOL0     O20174   9.231   9.923   2.254 -0.6920 -0.5115  0.0577
  891MOL0     C20175   9.258  10.032   2.327  0.7004 -0.6571 -0.1355
  891MOL0     C20176   9.352  10.131   2.270 -0.1856  1.1402 -0.0796
  891MOL0     C20177   9.397  10.233   2.348  0.0068 -0.3906 -0.1969
  891MOL0     C20178   9.352  10.257   2.472 -0.2201 -0.4569  0.1360
  891MOL0     C20179   9.393  10.380   2.543  0.1251 -0.5444  0.7777
  891MOL0     O20180   9.480  10.462   2.477  1.3365  0.9300 -0.0535
  891MOL0     C20181   9.500  10.577   2.550  0.1668  0.9122  0.5071
  891MOL0     C20182   9.637  10.606   2.576  0.0269 -0.1146 -0.6925
  891MOL0     C20183   9.686  10.717   2.645  0.3240  0.0547 -0.7543
  891MOL0     C20184   9.578  10.802   2.699  0.3327  0.9671  0.0103
  891MOL0     O20185   9.614  10.917   2.764 -0.2240 -0.7410 -0.0533
  891MOL0     C20186   9.550  10.942   2.893 -0.6692 -0.1477 -0.7514
  891MOL0     C20187   9.650  11.043   2.962 -0.5694  0.1519  0.3794
  891MOL0     C20188   9.592  11.096   3.096 -0.2058 -0.5352  0.0056
  891MOL0     C20189   9.602  11.001   3.216 -0.2019 -0.3884  0.3129
  891MOL0     C20190   9.744  11.013   3.275 -0.1842 -0.7108  0.3355
  891MOL0     C20191   9.759  11.144   3.362  0.7857  0.2392  0.0395
  891MOL0     C20192   9.685  11.120   3.501  0.2759 -0.0849  0.5809
  891MOL0     C20193   9.716  11.228   3.604 -0.4833 -0.0831 -0.7243
  891MOL0    Cl20194   9.590  11.231   3.727 -0.1256  0.0117  0.2795
  891MOL0     C20195   9.446  10.777   2.662 -0.6087 -0.3533 -0.1172
  891MOL0     C20196   9.404  10.664   2.590 -0.6076 -0.2533 -0.1714
  891MOL0     O20197   9.354  10.391   2.653  0.3289 -0.4183  0.0141
  891MOL0     C20198   9.274  10.158   2.536  1.5296 -0.7811 -0.2552
  891MOL0     C20199   9.218  10.045   2.459 -0.0578 -0.1047  0.9115
  891MOL0     N20200   8.737  10.221   1.993 -0.7637 -0.0601  0.4308
  891MOL0     N20201   8.610  10.183   2.002 -1.3787  0.3072 -0.6783
  891MOL0     C20202   8.026   9.466   1.257  0.1872 -0.4360  0.0121
  891MOL0     C20203   7.945   9.378   1.187  1.0859 -0.1075  0.1507
  891MOL0     C20204   7.603   9.091   1.103  0.6143 -0.2251  0.7293
  891MOL0     C20205   7.461   9.105   1.108 -0.6589 -0.2552 -0.3767
  891MOL0     C20206   7.370   9.010   1.075  0.2015  0.5571 -0.2793
  891MOL0     C20207   7.410   8.882   1.026 -0.4071 -0.2693  0.6152
  891MOL0     O20208   7.333   8.780   0.995 -1.2216 -0.2341 -0.7152
  891MOL0     C20209   7.188   8.793   1.011 -0.0656  0.6579  0.4905
  891MOL0     C20210   7.108   8.660   0.979 -0.2749  0.3201 -0.3875
  891MOL0     C20211   7.185   8.569   0.879  0.0112 -1.1216 -0.2503
  891MOL0     C20212   7.148   8.421   0.886 -0.7834 -0.1709 -0.2268
  891MOL0     C20213   7.183   8.362   0.756  0.6326 -0.0462  0.0861
  891MOL0     C20214   7.244   8.327   0.655  0.2912 -0.0244 -0.7534
  891MOL0     C20215   7.552   8.869   1.015  0.5780 -0.1887  0.1939
  891MOL0     C20216   7.648   8.964   1.050  0.3047 -0.9892  0.9961
  891MOL0     C20217   7.789   8.931   1.027 -0.1229  0.5243  0.0579
  891MOL0     H20218   7.942   9.117   1.409  1.7888 -0.5594 -1.3274
  891MOL0     H20219   8.089   9.274   1.526 -0.6844  2.1644  2.3608
  891MOL0     H20220   8.230   9.413   1.603 -3.1106 -0.9602 -2.0557
  891MOL0     H20221   8.322   9.379   1.472 -0.9073 -2.0523  3.6725
  891MOL0     H20222   8.418   9.616   1.471 -1.3915 -3.5268 -2.9305
  891MOL0     H20223   8.434   9.539   1.638 -1.3848 -0.8307  0.7878
  891MOL0     H20224   8.209   9.658   1.677  2.1853 -1.5681  1.5889
  891MOL0     H20225   8.246   9.749   1.532 -1.3367 -1.3229 -1.6652
  891MOL0     H20226   8.479   9.790   1.643  0.2238 -1.7824 -0.3195
  891MOL0     H20227   8.329   9.886   1.689  2.8420  0.4669 -1.2848
  891MOL0     H20228   8.320   9.732   1.894  0.6544 -0.5477  1.5387
  891MOL0     H20229   8.494   9.693   1.838  0.7129  1.4107  0.4025
  891MOL0     H20230   8.571   9.892   1.906  0.3687  0.0908  3.7815
  891MOL0     H20231   8.415   9.981   1.873 -2.5431 -0.4678  0.8278
  891MOL0     H20232   8.491   9.801   2.095 -0.7999 -1.4579 -3.2354
  891MOL0     H20233   8.328   9.869   2.049  0.6282 -4.0286 -3.5239
  891MOL0     H20234   8.383  10.087   2.128 -0.4863 -0.8007  1.4373
  891MOL0     H20235   8.469   9.987   2.239 -1.6170  2.1620  0.7611
  891MOL0     H20236   8.742   9.976   2.203  1.0593  0.8740 -0.1421
  891MOL0     H20237   8.974  10.273   2.050  2.0265 -0.4950 -1.7528
  891MOL0     H20238   8.982  10.181   2.203 -2.1596  2.2756  0.8946
  891MOL0     H20239   9.056  10.077   1.938  0.7532 -1.2436 -0.3802
  891MOL0     H20240   9.161  10.112   2.075 -0.6124  0.1833  0.2248
  891MOL0     H20241   9.109   9.866   2.029  0.1475  0.7575 -0.3594
  891MOL0     H20242   8.948   9.896   2.084 -0.3355  0.6749 -2.3834
  891MOL0     H20243   9.059   9.803   2.263  2.4353 -1.0889 -0.7824
  891MOL0     H20244   9.023   9.970   2.298  1.5056  0.4782  0.8931
  891MOL0     H20245   9.385  10.108   2.169 -1.4184  0.2198 -0.3058
  891MOL0     H20246   9.469  10.303   2.307 -2.8188  4.0074  1.6109
  891MOL0     H20247   9.714  10.542   2.534 -0.9583 -0.9553 -1.2735
  891MOL0     H20248   9.786  10.752   2.668  0.3348 -0.2375 -0.3536
  891MOL0     H20249   9.461  11.001   2.871 -0.1370  0.4040 -1.4887
  891MOL0     H20250   9.528  10.851   2.949 -0.9282 -0.8826 -2.0208
  891MOL0     H20251   9.750  11.002   2.981 -1.2431 -1.2081  1.1617
  891MOL0     H20252   9.648  11.125   2.890 -0.9296  1.1974  1.5447
  891MOL0     H20253   9.653  11.186   3.106 -0.7688  0.0227 -1.3775
  891MOL0     H20254   9.489  11.132   3.089  0.0776  0.2868  0.0202
  891MOL0     H20255   9.581  10.901   3.177  0.3598 -1.1926  1.9575
  891MOL0     H20256   9.527  11.039   3.285 -1.5319 -1.4531 -0.4860
  891MOL0     H20257   9.817  11.020   3.194  0.1045 -1.8844  0.4714
  891MOL0     H20258   9.764  10.922   3.332  0.9625 -1.2760 -0.9104
  891MOL0     H20259   9.865  11.171   3.366  0.8287  0.6959 -2.2757
  891MOL0     H20260   9.713  11.235   3.322 -1.4708 -0.2212  1.3961
  891MOL0     H20261   9.727  11.026   3.539  2.6552  2.0255  3.5781
  891MOL0     H20262   9.576  11.119   3.488  0.0773 -3.1101  1.6445
  891MOL0     H20263   9.810  11.204   3.654 -0.1042 -1.2368 -1.9254
  891MOL0     H20264   9.725  11.317   3.540  2.1492  0.5760  0.4390
  891MOL0     H20265   9.368  10.842   2.702 -1.8153 -1.2099 -1.0216
  891MOL0     H20266   9.301  10.637   2.568 -1.2224 -0.8368  2.9351
  891MOL0     H20267   9.225  10.158   2.633  2.7741 -0.4389  0.3920
  891MOL0     H20268   9.162   9.961   2.498 -0.1465  0.1965  1.4420
  891MOL0     H20269   8.063   9.564   1.228  1.1466 -1.4747 -2.6009
  891MOL0     H20270   7.907   9.405   1.089  2.1251  0.3407 -0.1442
  891MOL0     H20271   7.411   9.195   1.143 -0.0343 -0.9406  2.4888
  891MOL0     H20272   7.266   9.040   1.067  0.4020  1.1846 -0.6681
  891MOL0     H20273   7.162   8.875   0.943 -1.5387 -0.7992 -0.7967
  891MOL0     H20274   7.165   8.828   1.112  0.4576 -3.4425  2.2176
  891MOL0     H20275   7.004   8.687   0.956 -0.4138  1.4184  1.3773
  891MOL0     H20276   7.096   8.604   1.072 -1.1313  0.4991 -0.3805
  891MOL0     H20277   7.293   8.580   0.892 -0.0838  1.4939 -1.0599
  891MOL0     H20278   7.161   8.611   0.781 -0.9200 -0.8535  0.0781
  891MOL0     H20279   7.201   8.359   0.959 -0.5075 -0.0311 -0.3056
  891MOL0     H20280   7.044   8.418   0.919 -0.7749  0.0303 -0.1820
  891MOL0     H20281   7.299   8.273   0.581  2.2192  0.8432 -0.0233
  891MOL0     H20282   7.586   8.779   0.966 -0.3550 -0.2561 -0.3658
  891MOL0     H20283   7.802   8.838   0.971 -2.3669 -0.1390  0.5240
  891MOL0     H20284   7.831   9.013   0.968 -0.6454  0.2229 -0.7538
  891MOL0     H20285   7.833   8.921   1.127 -3.5547 -2.1873  1.4831
  892MOL0     O20286   9.576  11.043   9.632  0.0261 -0.7222  0.4620
  892MOL0     C20287   9.679  10.990   9.599 -0.0344 -0.0696 -0.2044
  892MOL0     O20288   9.732  10.879   9.656  0.6305  0.2993  1.2572
  892MOL0     C20289   9.647  10.813   9.741 -0.0895 -0.3666 -0.5037
  892MOL0     C20290   9.541  10.725   9.693 -0.3086  0.8322  0.0788
  892MOL0     C20291   9.456  10.662   9.792 -0.5400 -0.6065  0.0123
  892MOL0     C20292   9.472  10.686   9.929  0.5241 -0.0393  0.0382
  892MOL0     O20293   9.398  10.624  10.029 -0.6996 -0.5028 -0.3110
  892MOL0     C20294   9.261  10.587   9.997 -0.9519 -0.9605  0.7878
  892MOL0     C20295   9.214  10.481  10.086  0.8091  0.2763  0.0511
  892MOL0     C20296   9.061  10.446  10.065 -1.0767 -1.4544 -0.2502
  892MOL0     C20297   9.019  10.326  10.143 -0.3832 -0.9467 -0.2241
  892MOL0     C20298   8.870  10.319  10.158  0.4854  0.9254 -0.7158
  892MOL0     C20299   8.834  10.179  10.207 -1.0157  0.9413 -0.1207
  892MOL0     C20300   8.683  10.165  10.238  0.5464  0.9220 -0.6728
  892MOL0     C20301   8.598  10.181  10.119 -0.1747  0.2461  0.3374
  892MOL0     N20302   8.622  10.076  10.031  0.4853 -0.2033 -0.7201
  892MOL0     C20303   8.669  10.097   9.908  0.2568 -0.0442  0.1050
  892MOL0     C20304   8.682   9.971   9.862 -0.1145 -0.1057 -0.3417
  892MOL0     C20305   8.728   9.924   9.729 -0.4772 -0.6060  0.1827
  892MOL0     C20306   8.620   9.896   9.628 -0.3718  0.3550 -0.6508
  892MOL0     C20307   8.659   9.872   9.485 -0.7222  0.0024 -0.6166
  892MOL0     C20308   8.550   9.802   9.407 -0.7206 -0.7513 -0.4301
  892MOL0     O20309   8.423   9.867   9.436 -0.4793  0.1980  0.0136
  892MOL0     C20310   8.315   9.791   9.395  0.1313  0.4661  0.1817
  892MOL0     C20311   8.307   9.672   9.313  0.1819  0.1004 -0.2728
  892MOL0     C20312   8.190   9.595   9.291  0.0764 -0.1315  0.8008
  892MOL0     C20313   8.068   9.649   9.349 -0.4303  0.2294  0.9703
  892MOL0     C20314   7.949   9.573   9.331 -0.1758  0.2480 -0.6272
  892MOL0     O20315   7.844   9.614   9.401 -0.0517  0.2110  0.6873
  892MOL0     C20316   7.743   9.525   9.417  0.0987 -0.2790 -0.2121
  892MOL0     C20317   7.714   9.490   9.543 -0.0657 -0.1730  0.2316
  892MOL0     C20318   7.599   9.405   9.571 -1.6392  0.2055 -0.4471
  892MOL0     C20319   7.522   9.359   9.463  1.1980 -0.2921 -0.2267
  892MOL0     O20320   7.419   9.271   9.487  0.1751 -0.5811  0.5898
  892MOL0     C20321   7.295   9.289   9.417  0.0186  0.4710 -0.0286
  892MOL0     C20322   7.182   9.269   9.520 -0.1133 -0.7401 -0.3558
  892MOL0     C20323   7.159   9.391   9.603 -0.8114 -0.8817 -0.0269
  892MOL0     C20324   7.048   9.389   9.700 -0.0429 -0.3866 -0.3440
  892MOL0     C20325   7.017   9.531   9.751 -0.5518 -0.2122 -0.5377
  892MOL0     C20326   6.922   9.529   9.879  0.1818  0.4516  0.4240
  892MOL0     C20327   6.909   9.669   9.945  0.4220 -0.3354 -0.0994
  892MOL0     C20328   6.837   9.671  10.077  0.8969  0.3761  0.9142
  892MOL0    Cl20329   6.839   9.520  10.175 -0.3699 -0.2594 -0.1310
  892MOL0     C20330   7.544   9.406   9.337  0.2452  0.1721  0.1213
  892MOL0     C20331   7.658   9.483   9.315  0.4732  0.4998 -0.0215
  892MOL0     O20332   7.946   9.483   9.249 -0.9786  0.7658  0.7887
  892MOL0     C20333   8.070   9.776   9.421 -0.6346 -0.8570 -0.9705
  892MOL0     C20334   8.196   9.844   9.436  0.5613  0.3243 -0.2645
  892MOL0     N20335   8.642   9.876   9.963  0.3266 -0.1517  0.0453
  892MOL0     N20336   8.609   9.944  10.066 -0.1347 -0.2396  0.2798
  892MOL0     C20337   9.565  10.777   9.971  0.1315  0.0077  0.6657
  892MOL0     C20338   9.656  10.832   9.876 -0.5635 -0.1584 -0.0186
  892MOL0     C20339   9.746  11.035   9.479 -0.5446  0.5031  1.5059
  892MOL0     C20340   9.675  11.072   9.361 -0.4295 -0.1220  0.6675
  892MOL0     C20341   9.744  11.113   9.248 -0.0525 -0.3501 -0.8678
  892MOL0     C20342   9.890  11.121   9.242 -0.0218  0.2955  0.3423
  892MOL0     O20343   9.970  11.184   9.148  0.4765  0.9005  1.2284
  892MOL0     C20344   9.908  11.201   9.016  0.7096  0.6249 -1.1777
  892MOL0     C20345  10.003  11.224   8.899  0.9420 -0.3922  0.0298
  892MOL0     C20346  10.083  11.356   8.906  0.3395  0.1662 -0.8766
  892MOL0     C20347  10.142  11.392   8.774  0.4498  0.3247 -0.3364
  892MOL0     C20348  10.239  11.300   8.708  0.2404 -0.4323 -0.4621
  892MOL0     C20349  10.315  11.231   8.651  0.0643  0.1519  0.4485
  892MOL0     C20350   9.949  11.087   9.365 -0.5032 -0.5302  0.1348
  892MOL0     C20351   9.889  11.042   9.481  0.3755 -0.6420  0.6019
  892MOL0     C20352   9.985  11.026   9.596 -0.1720 -0.0174  0.1448
  892MOL0     H20353   9.541  10.712   9.586  0.6045  0.0217  0.1564
  892MOL0     H20354   9.387  10.594   9.743 -1.5958  1.2712 -1.2532
  892MOL0     H20355   9.193  10.671  10.015 -1.5196 -1.1308 -0.4540
  892MOL0     H20356   9.272  10.544   9.897  1.5652 -3.0176  1.8336
  892MOL0     H20357   9.234  10.512  10.188  3.5443  1.0782 -0.6457
  892MOL0     H20358   9.260  10.384  10.065  0.2009 -0.8048  3.1379
  892MOL0     H20359   9.047  10.446   9.956 -1.5385  0.7077 -0.2334
  892MOL0     H20360   9.002  10.530  10.104 -0.4940 -1.2791  0.2633
  892MOL0     H20361   9.052  10.242  10.081 -0.0222  0.7142 -2.4206
  892MOL0     H20362   9.063  10.302  10.240 -3.6974 -0.5437  1.5149
  892MOL0     H20363   8.851  10.396  10.234  2.1626 -1.1312  1.9732
  892MOL0     H20364   8.832  10.361  10.065 -1.6528 -2.1786 -1.4118
  892MOL0     H20365   8.870  10.107  10.133  0.1607  0.5858  0.7596
  892MOL0     H20366   8.888  10.164  10.301  1.0007  0.9422 -1.2373
  892MOL0     H20367   8.660  10.237  10.317  1.0407  1.8385 -1.3487
  892MOL0     H20368   8.678  10.066  10.285  0.1098  2.1892  2.1746
  892MOL0     H20369   8.491  10.184  10.144  0.0030  1.6816  1.0303
  892MOL0     H20370   8.619  10.277  10.071  2.1996 -0.5830 -0.3948
  892MOL0     H20371   8.683  10.181   9.841 -4.6775 -0.0602 -1.3770
  892MOL0     H20372   8.799  10.001   9.694 -0.8658 -1.0240 -1.6432
  892MOL0     H20373   8.788   9.833   9.743 -0.1389 -0.2113  1.3677
  892MOL0     H20374   8.573   9.811   9.679 -0.9019  0.2757 -1.2664
  892MOL0     H20375   8.541   9.969   9.649  0.8965  0.8105  3.3992
  892MOL0     H20376   8.757   9.824   9.480 -0.7272 -0.4433  2.0536
  892MOL0     H20377   8.661   9.970   9.436  1.1946  0.6496  0.6426
  892MOL0     H20378   8.553   9.695   9.425  2.2015 -0.8832 -1.2757
  892MOL0     H20379   8.577   9.818   9.302  2.2652  1.5289  0.5557
  892MOL0     H20380   8.399   9.630   9.274  1.7887  2.0595  1.2204
  892MOL0     H20381   8.180   9.502   9.236 -2.4827  0.8981 -0.6530
  892MOL0     H20382   7.767   9.522   9.632 -0.6212  0.3640  0.3748
  892MOL0     H20383   7.601   9.370   9.674 -0.0047 -1.5705 -1.0214
  892MOL0     H20384   7.279   9.390   9.378 -1.9218 -0.6375 -2.3344
  892MOL0     H20385   7.282   9.224   9.330  0.2230  0.2757  0.0838
  892MOL0     H20386   7.086   9.246   9.471 -0.3882  0.2488 -0.2977
  892MOL0     H20387   7.206   9.185   9.586  1.4509  1.4742  2.0466
  892MOL0     H20388   7.249   9.418   9.659 -0.2393 -3.9333  0.7436
  892MOL0     H20389   7.125   9.470   9.536  1.2631 -1.2404 -1.5905
  892MOL0     H20390   7.077   9.315   9.776  1.3720 -0.6052 -1.0593
  892MOL0     H20391   6.957   9.355   9.650 -1.3106  0.6878  1.1419
  892MOL0     H20392   6.976   9.592   9.670  5.6079  2.3176 -2.2843
  892MOL0     H20393   7.109   9.583   9.779 -1.2007 -0.0978  1.6164
  892MOL0     H20394   6.823   9.489   9.857  0.1902  1.9707 -3.0607
  892MOL0     H20395   6.974   9.471   9.956  0.9305  0.4150 -0.0981
  892MOL0     H20396   6.855   9.733   9.876  4.2903  0.2611 -2.9058
  892MOL0     H20397   7.007   9.717   9.954 -0.5159  1.4302  1.1710
  892MOL0     H20398   6.873   9.760  10.129 -1.7437  2.3141 -0.3556
  892MOL0     H20399   6.729   9.677  10.065  1.0212  0.1446 -0.5151
  892MOL0     H20400   7.493   9.364   9.250  0.3142 -4.1802  1.9415
  892MOL0     H20401   7.684   9.526   9.219  1.5382 -0.9930 -0.4472
  892MOL0     H20402   7.979   9.815   9.465  1.0930  1.9134  0.3772
  892MOL0     H20403   8.205   9.932   9.498 -0.4773  0.7357 -0.6645
  892MOL0     H20404   9.567  10.797  10.077  0.7075  1.1649  0.4558
  892MOL0     H20405   9.706  10.923   9.906  0.1832 -0.2746 -0.8570
  892MOL0     H20406   9.568  11.057   9.362 -0.5319  0.5698  1.4429
  892MOL0     H20407   9.674  11.160   9.179 -1.1362 -1.9986 -0.9332
  892MOL0     H20408   9.837  11.285   9.022 -0.7871 -0.6731  0.5961
  892MOL0     H20409   9.841  11.119   8.988  0.4824  0.7737 -1.0728
  892MOL0     H20410   9.936  11.237   8.814  1.9176  0.8204 -0.5774
  892MOL0     H20411  10.068  11.139   8.876  0.0717 -1.1638  0.3643
  892MOL0     H20412  10.165  11.343   8.978  2.4255  2.2552 -2.7116
  892MOL0     H20413  10.014  11.436   8.934  0.8695  0.3768 -0.1462
  892MOL0     H20414  10.051  11.398   8.714 -0.0093 -0.4053  0.2657
  892MOL0     H20415  10.185  11.492   8.776  1.0722  0.1112 -1.7105
  892MOL0     H20416  10.388  11.174   8.597  0.9337  1.8405 -0.2118
  892MOL0     H20417  10.057  11.101   9.361 -0.7080  2.1548  1.7841
  892MOL0     H20418   9.948  11.083   9.682 -1.3175 -0.7644  0.1758
  892MOL0     H20419   9.990  10.923   9.632  0.5782  1.0005  3.2242
  892MOL0     H20420  10.080  11.069   9.564  1.1407 -4.5583 -2.9103
  893MOL0     O20421   4.591   1.143   3.230 -0.3138  0.5918 -0.4712
  893MOL0     C20422   4.556   1.047   3.291  0.2519  0.5089  0.2697
  893MOL0     O20423   4.490   0.942   3.236  0.0220 -0.3846  0.6681
  893MOL0     C20424   4.433   0.947   3.113  0.1052  0.7586 -0.0381
  893MOL0     C20425   4.303   1.011   3.098 -0.5140  0.7970  0.4022
  893MOL0     C20426   4.232   0.987   2.970  0.2545  0.0067 -0.5807
  893MOL0     C20427   4.284   0.923   2.860 -0.2972  0.4298  0.1168
  893MOL0     O20428   4.215   0.917   2.746  0.8094  0.2470  0.1554
  893MOL0     C20429   4.242   0.830   2.640  0.4397 -0.7986  0.3286
  893MOL0     C20430   4.119   0.829   2.551  1.3572  0.4866 -0.2296
  893MOL0     C20431   4.106   0.971   2.499  0.6998  0.4736 -0.1393
  893MOL0     C20432   3.961   0.974   2.433  0.3689 -0.9914  0.0654
  893MOL0     C20433   3.974   1.076   2.321 -0.9328  0.0246  0.5817
  893MOL0     C20434   4.055   1.033   2.204  0.4328 -0.0588  0.0850
  893MOL0     C20435   4.010   1.104   2.074  0.5462 -0.4692  0.0267
  893MOL0     C20436   3.905   1.024   1.990 -0.4145  0.4737 -0.4957
  893MOL0     N20437   3.816   1.115   1.921  0.1028 -0.1457 -0.4570
  893MOL0     C20438   3.807   1.159   1.790  0.1331 -0.1734 -0.0962
  893MOL0     C20439   3.685   1.223   1.780 -0.0677 -0.7321 -0.0367
  893MOL0     C20440   3.621   1.300   1.661 -1.0208  0.7588  0.0449
  893MOL0     C20441   3.572   1.438   1.711 -0.9777 -0.1783  0.0827
  893MOL0     C20442   3.663   1.528   1.804  0.7001  0.4360  0.0356
  893MOL0     C20443   3.814   1.531   1.772  0.1482 -0.2989 -0.5721
  893MOL0     O20444   3.887   1.608   1.869  0.5832 -0.0937 -0.0428
  893MOL0     C20445   3.980   1.545   1.947  0.8055 -0.6099 -0.4960
  893MOL0     C20446   3.972   1.576   2.079  0.0502 -0.2481  0.9302
  893MOL0     C20447   4.058   1.521   2.177  0.5382 -0.6195  0.4290
  893MOL0     C20448   4.157   1.436   2.127  0.6366  0.4200  0.7868
  893MOL0     C20449   4.246   1.370   2.228  0.9498  0.1219  0.3718
  893MOL0     O20450   4.340   1.284   2.180  0.5328 -0.2928  0.7735
  893MOL0     C20451   4.428   1.255   2.272 -0.3570  0.1356  0.5345
  893MOL0     C20452   4.513   1.363   2.318  0.2025  0.1011 -0.3976
  893MOL0     C20453   4.598   1.351   2.429 -0.1906  0.0175  0.3030
  893MOL0     C20454   4.607   1.231   2.505  0.8611  0.5299  0.5450
  893MOL0     O20455   4.678   1.229   2.619 -0.0924 -0.0509  0.0692
  893MOL0     C20456   4.658   1.146   2.726  0.5641 -0.0863 -0.1435
  893MOL0     C20457   4.536   1.174   2.806 -0.3264  0.0327 -0.0070
  893MOL0     C20458   4.483   1.320   2.813  0.5691  0.2858 -0.7087
  893MOL0     C20459   4.566   1.401   2.897 -0.0904  0.0047  0.2498
  893MOL0     C20460   4.505   1.530   2.963 -0.2606  0.4891  0.6992
  893MOL0     C20461   4.611   1.582   3.070 -0.2253  0.2162  0.2979
  893MOL0     C20462   4.563   1.702   3.137  0.4025 -0.8616 -0.2628
  893MOL0     C20463   4.465   1.670   3.242 -0.0202  0.2162  1.2023
  893MOL0    Cl20464   4.530   1.568   3.376 -0.2306 -0.1305  0.1919
  893MOL0     C20465   4.521   1.121   2.460 -0.6303  0.6769 -0.0686
  893MOL0     C20466   4.446   1.133   2.348  0.5358 -0.5288 -0.7712
  893MOL0     O20467   4.221   1.395   2.342  0.3294 -0.3015  1.1768
  893MOL0     C20468   4.161   1.402   1.985  1.1471 -0.6514 -0.1293
  893MOL0     C20469   4.074   1.460   1.892 -0.3226  0.3662  0.2323
  893MOL0     N20470   3.616   1.214   1.902 -0.8361 -0.3922  0.4727
  893MOL0     N20471   3.699   1.148   1.981  0.4065 -0.0406  0.8082
  893MOL0     C20472   4.411   0.855   2.874  0.6395 -0.4428 -0.4573
  893MOL0     C20473   4.474   0.867   3.007 -0.2240 -0.3247 -0.1171
  893MOL0     C20474   4.619   1.021   3.428  0.4326 -0.0002  0.2587
  893MOL0     C20475   4.580   0.901   3.497  0.3551 -0.1682 -0.5244
  893MOL0     C20476   4.627   0.879   3.627  0.0245  0.7480 -0.0137
  893MOL0     C20477   4.716   0.964   3.693  0.2501 -0.1178  0.1425
  893MOL0     O20478   4.777   0.914   3.804 -0.1720 -0.0321  0.0074
  893MOL0     C20479   4.915   0.934   3.831 -1.0720 -0.1951 -0.3408
  893MOL0     C20480   4.959   1.028   3.946 -0.0028 -0.8804 -0.1633
  893MOL0     C20481   5.089   1.107   3.916  0.1945  0.8034 -0.2739
  893MOL0     C20482   5.066   1.222   3.823  0.1543 -0.3672  0.4034
  893MOL0     C20483   4.958   1.322   3.849 -0.0179 -0.0183 -0.6066
  893MOL0     C20484   4.879   1.406   3.876  0.7578 -0.2639 -0.1173
  893MOL0     C20485   4.755   1.079   3.627 -0.4656  0.5513 -0.2507
  893MOL0     C20486   4.705   1.107   3.497 -0.1440 -0.6215 -1.0025
  893MOL0     C20487   4.763   1.240   3.441  0.5166 -0.4125 -0.6510
  893MOL0     H20488   4.253   1.071   3.173 -3.6725 -0.1236 -0.8160
  893MOL0     H20489   4.137   1.027   2.936  0.7634 -0.6177 -2.9325
  893MOL0     H20490   4.325   0.876   2.586 -0.0983  0.4763  0.5608
  893MOL0     H20491   4.254   0.725   2.669  1.3056 -0.7046  0.3132
  893MOL0     H20492   4.031   0.797   2.608  2.1132 -1.3096 -0.0082
  893MOL0     H20493   4.126   0.758   2.468 -0.2841  0.0756 -0.0365
  893MOL0     H20494   4.184   0.990   2.426  1.3082 -1.9516 -0.2270
  893MOL0     H20495   4.110   1.049   2.575 -1.2613  0.7783 -0.2804
  893MOL0     H20496   3.947   0.874   2.390  3.3152 -1.1231 -0.8241
  893MOL0     H20497   3.886   1.002   2.508  2.6685  1.4706  1.6485
  893MOL0     H20498   3.877   1.087   2.273 -0.1908 -0.8472 -1.1997
  893MOL0     H20499   3.990   1.180   2.352 -1.6225  0.7302 -1.3007
  893MOL0     H20500   4.157   1.069   2.218  0.6172  0.4585 -2.2987
  893MOL0     H20501   4.041   0.925   2.193 -0.0896  0.2629 -3.2302
  893MOL0     H20502   4.100   1.120   2.014  0.4440 -0.2598 -0.0684
  893MOL0     H20503   3.967   1.200   2.103  1.6426 -1.1548  4.8688
  893MOL0     H20504   3.958   0.957   1.922  1.8735  0.1492  1.4359
  893MOL0     H20505   3.845   0.959   2.054 -3.7397  0.7655 -3.0442
  893MOL0     H20506   3.876   1.132   1.710 -0.0088  0.9430 -0.6158
  893MOL0     H20507   3.690   1.313   1.578 -2.0319  0.3576 -0.8732
  893MOL0     H20508   3.535   1.251   1.613 -0.2626 -1.3747  0.7276
  893MOL0     H20509   3.570   1.491   1.615  1.1700 -1.3004 -0.6552
  893MOL0     H20510   3.478   1.430   1.765 -0.9759 -1.6489 -0.0992
  893MOL0     H20511   3.660   1.482   1.904 -0.4559 -2.1484 -1.1042
  893MOL0     H20512   3.624   1.628   1.821 -0.6991 -0.0778 -0.0422
  893MOL0     H20513   3.830   1.574   1.673 -0.9397 -4.9985 -3.1068
  893MOL0     H20514   3.854   1.429   1.776  1.6767  0.3251  1.2902
  893MOL0     H20515   3.891   1.640   2.112 -0.1478 -1.6257  3.3447
  893MOL0     H20516   4.057   1.557   2.279  1.3266  2.7953 -0.6375
  893MOL0     H20517   4.485   1.451   2.261 -2.6483 -2.7169 -3.8544
  893MOL0     H20518   4.651   1.436   2.470  0.6171 -1.3030  2.1190
  893MOL0     H20519   4.664   1.040   2.701 -1.2716  0.0746 -1.5089
  893MOL0     H20520   4.745   1.156   2.791  1.6708  3.7642 -1.9183
  893MOL0     H20521   4.455   1.112   2.765 -0.0034 -0.9456  0.7812
  893MOL0     H20522   4.544   1.133   2.907  0.3681  2.3489  0.9205
  893MOL0     H20523   4.468   1.359   2.712 -2.3857  0.0195 -0.4818
  893MOL0     H20524   4.384   1.329   2.860  1.2655 -2.7668  1.7137
  893MOL0     H20525   4.662   1.423   2.850 -1.3946  2.1246 -1.6122
  893MOL0     H20526   4.580   1.340   2.987 -0.8827  2.6396  2.2667
  893MOL0     H20527   4.418   1.500   3.023 -1.1886 -0.0918 -0.8781
  893MOL0     H20528   4.466   1.589   2.880  0.5878 -0.8406 -0.7052
  893MOL0     H20529   4.624   1.499   3.141 -1.3182 -0.9390 -0.7919
  893MOL0     H20530   4.705   1.603   3.019 -0.4812 -0.0258 -0.2816
  893MOL0     H20531   4.522   1.775   3.067  0.0404  0.2502  1.0466
  893MOL0     H20532   4.643   1.762   3.181  0.0518  1.1811 -2.2344
  893MOL0     H20533   4.428   1.769   3.270  2.6073  1.5179  0.3982
  893MOL0     H20534   4.376   1.623   3.199  0.0694  2.1996 -1.3571
  893MOL0     H20535   4.516   1.032   2.521 -1.6319 -1.8803 -3.5361
  893MOL0     H20536   4.390   1.045   2.319  0.5849  0.0122 -2.6400
  893MOL0     H20537   4.239   1.336   1.949  2.4080  1.0467 -0.6958
  893MOL0     H20538   4.084   1.435   1.787  0.2754 -2.5181  0.8841
  893MOL0     H20539   4.457   0.798   2.794  0.7147 -0.9255 -0.0755
  893MOL0     H20540   4.572   0.822   3.025  0.0769 -0.1342 -1.1718
  893MOL0     H20541   4.527   0.828   3.437  0.7885  0.7469 -2.0952
  893MOL0     H20542   4.602   0.788   3.679 -0.1823 -0.6437 -2.3852
  893MOL0     H20543   4.973   0.958   3.741 -0.7909  0.8136  0.0927
  893MOL0     H20544   4.944   0.834   3.865  1.0993  0.7853  0.8715
  893MOL0     H20545   4.963   0.971   4.039 -3.0513  0.2201  0.7772
  893MOL0     H20546   4.882   1.105   3.955  2.2559  1.6965 -1.4030
  893MOL0     H20547   5.170   1.039   3.885 -0.4607 -0.6500  1.0398
  893MOL0     H20548   5.128   1.157   4.006  2.1672 -1.6073  0.3473
  893MOL0     H20549   5.157   1.282   3.830 -1.7759  2.5500  4.0359
  893MOL0     H20550   5.059   1.180   3.722  1.1410  2.4009 -0.9115
  893MOL0     H20551   4.801   1.475   3.901  1.9618  1.6802 -1.4534
  893MOL0     H20552   4.821   1.152   3.672 -1.1192 -0.1588  1.9511
  893MOL0     H20553   4.684   1.293   3.387  1.3272 -0.4021 -1.8683
  893MOL0     H20554   4.797   1.312   3.515 -0.8413  0.7223 -1.0732
  893MOL0     H20555   4.841   1.220   3.367 -0.5472  0.7726 -2.1836
  894MOL0     O20556   7.390   5.409  10.573  0.1274 -0.0106 -0.0686
  894MOL0     C20557   7.434   5.446  10.682  0.2668  0.1277  0.2648
  894MOL0     O20558   7.400   5.575  10.731 -0.6012 -0.2059 -0.1338
  894MOL0     C20559   7.325   5.654  10.656  0.2599  0.1279  1.2643
  894MOL0     C20560   7.187   5.673  10.672 -0.5100  0.5869  0.8082
  894MOL0     C20561   7.108   5.758  10.587 -0.0587 -0.2198 -0.8634
  894MOL0     C20562   7.172   5.833  10.484 -0.6807 -0.3952  0.1398
  894MOL0     O20563   7.088   5.908  10.405  0.5121  0.8564 -0.3509
  894MOL0     C20564   7.123   5.896  10.268 -0.0959 -0.5689  0.0007
  894MOL0     C20565   6.994   5.911  10.187 -0.6931 -1.1467 -0.2443
  894MOL0     C20566   6.898   5.801  10.226  0.7486 -0.0046 -0.0797
  894MOL0     C20567   6.754   5.849  10.207 -0.2253  0.2785 -1.0762
  894MOL0     C20568   6.653   5.727  10.241 -0.3990  0.5164  0.4797
  894MOL0     C20569   6.648   5.703  10.387  1.1634 -0.7456 -0.7830
  894MOL0     C20570   6.525   5.621  10.430  0.0284 -0.2970 -0.0076
  894MOL0     C20571   6.484   5.506  10.342 -0.9763  0.8835  0.1915
  894MOL0     N20572   6.340   5.487  10.344 -0.1318  0.2119 -0.1606
  894MOL0     C20573   6.244   5.552  10.268 -0.0964 -0.1134 -0.4099
  894MOL0     C20574   6.125   5.506  10.325 -0.8364  0.7536  0.6090
  894MOL0     C20575   5.983   5.533  10.275  1.0862 -0.6526  0.2234
  894MOL0     C20576   5.958   5.661  10.188 -0.2932  1.0477  0.1568
  894MOL0     C20577   5.842   5.651  10.097  0.0602 -0.0153 -0.3961
  894MOL0     C20578   5.703   5.675  10.158 -0.6475 -1.2695  0.7015
  894MOL0     O20579   5.608   5.665  10.056  0.1775 -0.7528  0.2437
  894MOL0     C20580   5.475   5.716  10.064 -0.6276  0.3337 -0.4376
  894MOL0     C20581   5.422   5.774  10.179  0.3857  0.3130 -0.7041
  894MOL0     C20582   5.280   5.814  10.187 -0.5667 -0.8311  0.0491
  894MOL0     C20583   5.208   5.817  10.064 -0.5628 -0.5447 -0.6940
  894MOL0     C20584   5.074   5.887  10.061  0.0292  0.0059 -0.7158
  894MOL0     O20585   5.017   5.938  10.174 -0.4021  0.0362  0.2537
  894MOL0     C20586   4.883   5.977  10.178 -0.0939  0.7734  0.3026
  894MOL0     C20587   4.773   5.910  10.108  0.4536  0.3977 -0.4679
  894MOL0     C20588   4.635   5.956  10.126 -1.0845  0.3390  0.2427
  894MOL0     C20589   4.615   6.064  10.212 -1.0181  0.6804  0.7978
  894MOL0     O20590   4.486   6.117  10.233  0.7614 -0.3610 -0.5982
  894MOL0     C20591   4.461   6.237  10.152  0.3200 -0.2043 -0.4199
  894MOL0     C20592   4.321   6.282  10.203 -1.5004 -0.1144 -0.3580
  894MOL0     C20593   4.253   6.375  10.099  0.7061 -0.1327  0.1785
  894MOL0     C20594   4.116   6.395  10.150 -0.3895 -0.0344  0.4176
  894MOL0     C20595   4.003   6.327  10.064  0.8527 -0.1871  0.2034
  894MOL0     C20596   3.863   6.353  10.106 -0.0184  0.0087 -0.4799
  894MOL0     C20597   3.826   6.267  10.226  0.0216 -0.8180 -0.7966
  894MOL0     C20598   3.673   6.286  10.277 -0.5265  0.1957  1.1843
  894MOL0    Cl20599   3.672   6.195  10.422  0.3173 -0.2197 -0.2583
  894MOL0     C20600   4.716   6.122  10.289  0.4577 -0.3855  1.0577
  894MOL0     C20601   4.849   6.081  10.268  0.6684  0.3262  0.9675
  894MOL0     O20602   5.024   5.900   9.947 -0.0997  0.1910  1.1710
  894MOL0     C20603   5.262   5.764   9.948  0.0948 -0.1696  0.0355
  894MOL0     C20604   5.394   5.718   9.951  0.8272 -0.4557  0.2919
  894MOL0     N20605   6.158   5.405  10.425 -0.2513  0.0410  0.0432
  894MOL0     N20606   6.286   5.387  10.427  0.5625 -0.8831  0.6242
  894MOL0     C20607   7.309   5.811  10.467 -0.7004 -1.1365  0.5882
  894MOL0     C20608   7.382   5.735  10.555 -1.0874 -0.0975 -0.1003
  894MOL0     C20609   7.522   5.368  10.772  0.1873  0.4564 -0.1195
  894MOL0     C20610   7.596   5.432  10.872 -0.5884 -0.0826 -0.2136
  894MOL0     C20611   7.683   5.365  10.954  0.7778 -0.5474 -0.1392
  894MOL0     C20612   7.706   5.235  10.929 -0.6040 -0.0688 -0.0398
  894MOL0     O20613   7.804   5.173  11.005  1.5302  0.8908 -0.5831
  894MOL0     C20614   7.750   5.066  11.087 -0.1204 -1.3295  0.2464
  894MOL0     C20615   7.677   5.121  11.208 -0.0657  0.6200 -0.8354
  894MOL0     C20616   7.644   4.995  11.306  0.5227 -0.8995  0.7276
  894MOL0     C20617   7.555   5.044  11.425 -0.3845  0.0071  0.1700
  894MOL0     C20618   7.412   5.024  11.398  0.7693  0.4533  0.8093
  894MOL0     C20619   7.287   5.017  11.388  0.0876 -0.3631 -0.3632
  894MOL0     C20620   7.626   5.164  10.841 -0.7337  0.5408 -0.5605
  894MOL0     C20621   7.535   5.227  10.758 -0.1759 -0.2039  0.5792
  894MOL0     C20622   7.442   5.141  10.680  0.3021 -0.4045  0.9977
  894MOL0     H20623   7.141   5.603  10.742  1.9781  0.0600  2.0270
  894MOL0     H20624   7.000   5.753  10.593 -0.1996  2.0878 -0.2869
  894MOL0     H20625   7.188   5.976  10.232  0.4131  0.2465  2.5479
  894MOL0     H20626   7.163   5.801  10.230 -0.1785 -0.6660  0.1549
  894MOL0     H20627   7.026   5.900  10.083  3.3358  0.8039  0.5926
  894MOL0     H20628   6.960   6.014  10.206  1.3952 -0.3965 -0.3762
  894MOL0     H20629   6.909   5.762  10.327 -0.7345 -0.8886 -0.2350
  894MOL0     H20630   6.921   5.711  10.168  3.3430 -2.0902  3.7428
  894MOL0     H20631   6.730   5.927  10.280 -7.7835 -2.7120  0.5552
  894MOL0     H20632   6.740   5.878  10.102 -1.5495 -0.6383 -1.1691
  894MOL0     H20633   6.549   5.741  10.211 -0.8656 -3.4574 -0.3449
  894MOL0     H20634   6.701   5.642  10.192  1.2102  2.3046 -1.2113
  894MOL0     H20635   6.735   5.649  10.424  0.2137 -0.0490  2.7770
  894MOL0     H20636   6.641   5.793  10.449  4.2265  0.7730 -2.3697
  894MOL0     H20637   6.452   5.701  10.417  0.9231  0.6054  0.4183
  894MOL0     H20638   6.521   5.598  10.537  2.3635  1.5248  0.5494
  894MOL0     H20639   6.507   5.516  10.236 -0.0847 -0.5627  0.2177
  894MOL0     H20640   6.515   5.409  10.381 -1.5917 -0.1324 -1.7500
  894MOL0     H20641   6.254   5.607  10.175  2.9072 -0.2985 -0.2665
  894MOL0     H20642   5.953   5.447  10.214 -0.8396  1.7843 -2.5251
  894MOL0     H20643   5.928   5.534  10.370  3.5160  2.3307  1.7753
  894MOL0     H20644   5.946   5.737  10.266 -1.0993  0.2325  0.8599
  894MOL0     H20645   6.041   5.696  10.126  0.3908 -0.6147  0.0808
  894MOL0     H20646   5.834   5.560  10.037 -0.4842 -0.4530  0.3216
  894MOL0     H20647   5.844   5.738  10.031 -4.3888  0.2129 -0.5755
  894MOL0     H20648   5.696   5.775  10.202 -0.1657 -2.0495  2.6663
  894MOL0     H20649   5.681   5.606  10.240 -2.5710  0.4162  1.7083
  894MOL0     H20650   5.474   5.782  10.274 -2.0354 -1.1687  0.8637
  894MOL0     H20651   5.236   5.843  10.282  0.8263 -1.5672  0.9484
  894MOL0     H20652   4.802   5.814  10.066 -2.8887 -2.1193  2.3173
  894MOL0     H20653   4.550   5.899  10.088 -1.1407  0.6703 -0.1342
  894MOL0     H20654   4.542   6.305  10.181  0.8643 -0.7544 -0.6473
  894MOL0     H20655   4.463   6.210  10.047  1.3751 -0.0434 -0.4440
  894MOL0     H20656   4.269   6.188  10.219  3.1494 -3.3161 -1.8865
  894MOL0     H20657   4.332   6.334  10.298 -2.6250  0.7926 -0.6976
  894MOL0     H20658   4.306   6.470  10.107  1.5455 -0.5129 -0.6973
  894MOL0     H20659   4.254   6.340   9.996 -0.9159  2.3046 -0.7579
  894MOL0     H20660   4.093   6.501  10.141 -3.1588 -0.6174 -0.4749
  894MOL0     H20661   4.102   6.370  10.255  1.3412 -1.2358  0.4040
  894MOL0     H20662   4.019   6.219  10.068  0.4069 -0.2689 -0.2089
  894MOL0     H20663   4.012   6.353   9.958  1.8350  0.4828  0.4334
  894MOL0     H20664   3.862   6.461  10.125  1.7159 -0.1649  0.8424
  894MOL0     H20665   3.784   6.326  10.035 -1.9243  0.6292  1.3073
  894MOL0     H20666   3.876   6.302  10.317 -2.8641  3.0720 -0.4526
  894MOL0     H20667   3.840   6.159  10.209  1.3189 -0.3285 -3.3236
  894MOL0     H20668   3.642   6.390  10.292  0.4986  0.6867  0.0616
  894MOL0     H20669   3.591   6.244  10.218  0.3716  0.6149 -0.4217
  894MOL0     H20670   4.692   6.200  10.361  2.1304  1.7744 -0.5875
  894MOL0     H20671   4.917   6.120  10.343  1.2701  1.6760 -0.2252
  894MOL0     H20672   5.210   5.776   9.854  0.6252  0.5541 -0.1790
  894MOL0     H20673   5.433   5.677   9.858  3.3820  0.5807  0.8006
  894MOL0     H20674   7.361   5.873  10.394 -2.0739  3.3231  3.0385
  894MOL0     H20675   7.486   5.732  10.524 -1.9218 -3.2049 -3.2065
  894MOL0     H20676   7.574   5.538  10.872  0.5153  0.1661  0.8915
  894MOL0     H20677   7.744   5.418  11.027  1.6692  1.1354 -2.0155
  894MOL0     H20678   7.826   5.000  11.130  3.2888  1.3292 -1.2420
  894MOL0     H20679   7.681   4.995  11.040  0.6821 -1.4226 -0.8331
  894MOL0     H20680   7.587   5.175  11.179  1.8293  4.2683 -0.5871
  894MOL0     H20681   7.743   5.192  11.259 -0.1861 -2.1200  3.5956
  894MOL0     H20682   7.732   4.965  11.364 -0.8485 -1.2033  2.7449
  894MOL0     H20683   7.596   4.911  11.255  0.2683 -0.2212 -0.1819
  894MOL0     H20684   7.585   4.979  11.508  0.4504  1.1578  0.7937
  894MOL0     H20685   7.573   5.145  11.461  1.0973  0.5242 -1.8373
  894MOL0     H20686   7.183   5.004  11.366  0.1223 -0.3479 -0.5396
  894MOL0     H20687   7.644   5.057  10.840  2.6822  0.9765 -2.9412
  894MOL0     H20688   7.392   5.080  10.756 -3.9054  2.5168  0.8953
  894MOL0     H20689   7.356   5.192  10.637  0.8344  0.1414  0.5493
  894MOL0     H20690   7.504   5.083  10.610  0.4643 -1.1199  1.7122
  895MOL0     O20691   6.472   0.339  10.419  0.3509  0.7326 -0.1715
  895MOL0     C20692   6.481   0.287  10.312  0.2430  0.2941  0.0481
  895MOL0     O20693   6.395   0.203  10.252 -0.2323 -0.6338  0.3814
  895MOL0     C20694   6.279   0.162  10.304  0.9964 -0.4875 -0.2058
  895MOL0     C20695   6.157   0.181  10.231 -0.8158 -0.5110  0.1088
  895MOL0     C20696   6.035   0.151  10.296  0.2885  0.6350  0.3638
  895MOL0     C20697   6.033   0.091  10.422 -0.1127 -0.5585  0.3505
  895MOL0     O20698   5.919   0.056  10.490 -0.1563  0.1210  0.2231
  895MOL0     C20699   5.789   0.107  10.464  1.2288  0.2090 -0.0092
  895MOL0     C20700   5.691   0.061  10.572  0.7791 -0.4177 -1.1627
  895MOL0     C20701   5.546   0.076  10.539 -0.1165  0.1289 -0.3073
  895MOL0     C20702   5.492  -0.016  10.431 -0.1555 -1.6167  0.0092
  895MOL0     C20703   5.336   0.009  10.432 -0.4267  0.2155  0.0482
  895MOL0     C20704   5.282  -0.082  10.319  0.7382  0.1266  0.5223
  895MOL0     C20705   5.138  -0.055  10.272 -0.3116 -0.4126  0.3457
  895MOL0     C20706   5.038  -0.071  10.383 -1.1564 -0.7170 -0.1785
  895MOL0     N20707   4.900  -0.072  10.346 -0.6918 -0.2253  0.2461
  895MOL0     C20708   4.801  -0.097  10.435 -1.1253 -0.6230 -0.2099
  895MOL0     C20709   4.690  -0.094  10.356  0.4217  0.6140 -0.5649
  895MOL0     C20710   4.542  -0.105  10.404 -0.4358  0.5306 -0.0719
  895MOL0     C20711   4.507   0.039  10.438  1.3704 -0.6465 -0.0440
  895MOL0     C20712   4.527   0.082  10.581  0.4079 -0.3282 -0.1322
  895MOL0     C20713   4.514   0.236  10.608 -0.3735  0.2640  0.2859
  895MOL0     O20714   4.460   0.256  10.742 -0.2951 -0.6934 -0.4037
  895MOL0     C20715   4.325   0.281  10.758 -0.8542 -0.3585  0.6746
  895MOL0     C20716   4.275   0.409  10.743  0.2684  0.8522 -0.2660
  895MOL0     C20717   4.139   0.428  10.747 -0.0671  0.2292  0.2087
  895MOL0     C20718   4.039   0.320  10.757 -0.1816  0.5839  0.0210
  895MOL0     C20719   3.885   0.332  10.753 -0.2443 -1.6316  0.4107
  895MOL0     O20720   3.830   0.462  10.743  0.2131 -0.8153  0.5483
  895MOL0     C20721   3.693   0.462  10.725 -0.2331  0.5549  0.4081
  895MOL0     C20722   3.626   0.553  10.799 -0.1690 -1.1636  0.8043
  895MOL0     C20723   3.486   0.570  10.777  0.3061  0.5292 -0.6366
  895MOL0     C20724   3.418   0.495  10.687  0.7799 -0.4606  0.1039
  895MOL0     O20725   3.281   0.517  10.659  0.4785  0.0773  0.1489
  895MOL0     C20726   3.223   0.650  10.651  0.1480 -0.0054 -0.5904
  895MOL0     C20727   3.075   0.647  10.608  0.7356  1.5069 -0.0930
  895MOL0     C20728   3.034   0.633  10.463 -0.2091 -0.0466 -1.3109
  895MOL0     C20729   3.121   0.529  10.379 -0.0904  0.7222 -0.4055
  895MOL0     C20730   3.086   0.527  10.231 -0.1208  0.3798 -0.0768
  895MOL0     C20731   3.148   0.646  10.167 -0.1711 -0.4162  1.2128
  895MOL0     C20732   3.289   0.620  10.129 -0.2473 -0.2227 -0.2319
  895MOL0     C20733   3.370   0.738  10.091 -0.9522 -0.7030 -0.2341
  895MOL0    Cl20734   3.330   0.799   9.923  0.1606 -0.2847  0.2436
  895MOL0     C20735   3.488   0.402  10.611 -0.6433  0.2216  0.2810
  895MOL0     C20736   3.626   0.388  10.634 -0.6773  0.2281  0.2669
  895MOL0     O20737   3.818   0.232  10.758 -0.0610 -0.1016 -0.2753
  895MOL0     C20738   4.097   0.188  10.781  0.8483  0.4598  0.4373
  895MOL0     C20739   4.236   0.180  10.783  0.4024  0.0986 -0.6556
  895MOL0     N20740   4.732  -0.073  10.225  0.3318  0.3981  0.0552
  895MOL0     N20741   4.857  -0.068  10.218 -0.2402  0.1510 -0.3577
  895MOL0     C20742   6.152   0.076  10.489  0.6465  0.3475 -0.1788
  895MOL0     C20743   6.268   0.114  10.435  0.0190 -0.5763 -0.1210
  895MOL0     C20744   6.599   0.304  10.228 -0.3257 -0.6094 -0.1196
  895MOL0     C20745   6.599   0.297  10.086  0.6110 -0.2318 -0.2857
  895MOL0     C20746   6.712   0.285  10.007 -0.1792  0.3742 -0.5229
  895MOL0     C20747   6.834   0.272  10.067  0.1691 -1.0327  0.0265
  895MOL0     O20748   6.950   0.249   9.993 -0.5912 -0.0590 -1.4577
  895MOL0     C20749   6.966   0.133   9.908  0.2370  0.0093 -0.2603
  895MOL0     C20750   7.115   0.079   9.915  0.8924  0.3959  0.0492
  895MOL0     C20751   7.205   0.204   9.903 -0.2422  0.8697  1.2726
  895MOL0     C20752   7.194   0.277   9.763 -0.2847 -0.1122 -0.4579
  895MOL0     C20753   7.224   0.201   9.647 -0.8862  0.0799  0.4524
  895MOL0     C20754   7.255   0.146   9.543  0.6046 -0.7243 -0.8930
  895MOL0     C20755   6.845   0.306  10.197  0.5779  0.6676  0.8077
  895MOL0     C20756   6.727   0.310  10.282  0.2331 -0.2847 -0.6899
  895MOL0     C20757   6.749   0.313  10.432 -0.6975  0.4671  0.0235
  895MOL0     H20758   6.150   0.234  10.137 -0.2420  0.4328  0.5928
  895MOL0     H20759   5.945   0.184  10.244  1.9478  0.1162 -3.1446
  895MOL0     H20760   5.794   0.216  10.463  2.5603  0.1716 -1.1135
  895MOL0     H20761   5.769   0.072  10.362  2.1222 -1.2235  0.2786
  895MOL0     H20762   5.701   0.138  10.649 -1.1106  0.9208 -2.1495
  895MOL0     H20763   5.718  -0.035  10.617  0.4865  0.4622  1.0166
  895MOL0     H20764   5.511   0.180  10.544  1.2702  0.5793  3.7447
  895MOL0     H20765   5.492   0.030  10.622  1.8986 -1.8880 -0.0372
  895MOL0     H20766   5.528   0.004  10.329 -0.5620  2.3220  0.4928
  895MOL0     H20767   5.518  -0.120  10.451 -0.5572 -2.2294 -2.3600
  895MOL0     H20768   5.284  -0.022  10.524  0.1865  0.5258  0.5105
  895MOL0     H20769   5.308   0.112  10.409  1.2368  0.3681 -1.4763
  895MOL0     H20770   5.350  -0.072  10.234  2.2865 -2.6296  1.3049
  895MOL0     H20771   5.286  -0.185  10.354  3.5053  0.0268  0.1540
  895MOL0     H20772   5.116  -0.128  10.194 -1.6644  3.4516 -3.2575
  895MOL0     H20773   5.131   0.042  10.222  3.0939 -0.1242  0.2189
  895MOL0     H20774   5.046  -0.165  10.438 -2.4888 -1.3209 -0.9718
  895MOL0     H20775   5.055   0.010  10.455 -4.0972  1.2089 -1.4576
  895MOL0     H20776   4.797  -0.087  10.543 -2.5766 -2.4794 -0.0593
  895MOL0     H20777   4.479  -0.153  10.329  0.9916 -1.4461 -0.1030
  895MOL0     H20778   4.533  -0.167  10.494  0.7911  1.3159  0.6258
  895MOL0     H20779   4.569   0.101  10.372  1.9579 -2.0151 -0.8312
  895MOL0     H20780   4.403   0.055  10.408  0.8513 -0.6712  1.6517
  895MOL0     H20781   4.636   0.070  10.591  0.3950 -0.4757 -0.1780
  895MOL0     H20782   4.466   0.033  10.657  0.0793 -0.1729 -0.2954
  895MOL0     H20783   4.443   0.276  10.535  1.1949 -2.0120 -2.6998
  895MOL0     H20784   4.608   0.290  10.595 -0.4154  0.4519  0.7548
  895MOL0     H20785   4.340   0.495  10.727  1.0163  0.3273 -0.0699
  895MOL0     H20786   4.100   0.528  10.728 -0.7685 -0.2994 -1.3456
  895MOL0     H20787   3.681   0.630  10.853  1.3840 -1.0216 -0.8583
  895MOL0     H20788   3.426   0.641  10.832 -0.4631 -1.8721  1.8433
  895MOL0     H20789   3.221   0.694  10.752 -0.9977 -0.5518 -0.3598
  895MOL0     H20790   3.274   0.717  10.581 -2.5994  2.3812 -0.5280
  895MOL0     H20791   3.040   0.554  10.653 -0.7767  0.7172 -2.7050
  895MOL0     H20792   3.022   0.735  10.645 -1.6155  0.7875 -1.5374
  895MOL0     H20793   2.929   0.603  10.455 -0.3871  0.7579 -2.1635
  895MOL0     H20794   3.060   0.727  10.415 -0.2922  1.1678  0.9030
  895MOL0     H20795   3.095   0.431  10.421 -0.4731  1.7273  1.8812
  895MOL0     H20796   3.226   0.552  10.396 -0.4303 -0.0278  3.7537
  895MOL0     H20797   2.979   0.522  10.207 -0.5373  2.0495  1.1911
  895MOL0     H20798   3.132   0.436  10.194 -1.4887 -0.4922  0.2835
  895MOL0     H20799   3.100   0.688  10.078  2.4906  2.9264  1.1278
  895MOL0     H20800   3.146   0.735  10.231  0.0779  0.5025 -0.0138
  895MOL0     H20801   3.290   0.559  10.038  4.3375 -2.1356  0.8221
  895MOL0     H20802   3.341   0.570  10.212 -0.9578  1.4826  1.3135
  895MOL0     H20803   3.367   0.816  10.168  1.5731  0.5252 -1.2607
  895MOL0     H20804   3.477   0.712  10.092 -1.4783 -3.0302 -0.0897
  895MOL0     H20805   3.445   0.333  10.540 -1.4079  0.1998  0.7597
  895MOL0     H20806   3.694   0.327  10.575  0.3903  2.9534 -1.5261
  895MOL0     H20807   4.042   0.095  10.795  1.3704  0.3310  1.8479
  895MOL0     H20808   4.282   0.084  10.805  2.6599  1.4655  0.9174
  895MOL0     H20809   6.147   0.035  10.589 -3.1810  1.4929  0.2551
  895MOL0     H20810   6.356   0.120  10.498 -0.4355 -0.0824  0.4824
  895MOL0     H20811   6.500   0.289  10.041 -1.9732  0.7343  4.5435
  895MOL0     H20812   6.694   0.270   9.901  0.2673  1.6486 -0.7932
  895MOL0     H20813   6.949   0.144   9.800  1.4298 -0.8333 -0.5581
  895MOL0     H20814   6.905   0.054   9.951  1.2848 -0.4118  0.4907
  895MOL0     H20815   7.129   0.010   9.832  1.0583 -1.1232  1.2837
  895MOL0     H20816   7.135   0.024  10.007 -2.7961 -0.3031  0.5848
  895MOL0     H20817   7.307   0.166   9.909 -0.4745  0.2807  1.6894
  895MOL0     H20818   7.179   0.270   9.987  0.4868  1.0076  1.3900
  895MOL0     H20819   7.107   0.339   9.739  0.4498  0.7083 -1.0198
  895MOL0     H20820   7.269   0.355   9.775  0.8900 -0.8683 -2.4260
  895MOL0     H20821   7.273   0.106   9.445 -0.3733 -1.3991 -0.8017
  895MOL0     H20822   6.946   0.305  10.235  0.7926 -2.2981  0.3903
  895MOL0     H20823   6.856   0.319  10.451 -1.1664 -2.1627  5.6751
  895MOL0     H20824   6.705   0.400  10.481  1.5351  1.8265 -0.2887
  895MOL0     H20825   6.711   0.223  10.482 -1.9851  0.8808 -0.1735
  896MOL0     O20826  10.134   6.189   0.333 -0.2897 -0.2492  0.5859
  896MOL0     C20827  10.201   6.129   0.247  0.8440 -0.5027 -0.6047
  896MOL0     O20828  10.210   5.996   0.251  0.1478  1.0910  1.0333
  896MOL0     C20829  10.260   5.947   0.378  0.1426  0.1572  1.3635
  896MOL0     C20830  10.395   5.940   0.410 -0.2382  0.3687 -0.0898
  896MOL0     C20831  10.430   5.906   0.537  0.2275 -0.9859 -0.4252
  896MOL0     C20832  10.331   5.843   0.627  1.0166  0.4965 -0.8913
  896MOL0     O20833  10.379   5.783   0.743  0.6296 -0.2396  0.6498
  896MOL0     C20834  10.423   5.647   0.741  0.0365  0.5860 -0.1485
  896MOL0     C20835  10.551   5.624   0.652  0.1379 -0.6693  0.0843
  896MOL0     C20836  10.681   5.693   0.680 -1.5456  0.0359 -0.2785
  896MOL0     C20837  10.783   5.639   0.582 -0.5483 -0.4954 -0.7686
  896MOL0     C20838  10.792   5.706   0.451  0.2730 -1.0394 -0.3094
  896MOL0     C20839  10.938   5.696   0.402  0.0469  0.8792 -1.1755
  896MOL0     C20840  10.959   5.766   0.271 -0.4937  0.4632 -0.0577
  896MOL0     C20841  10.959   5.916   0.276  0.4985  0.1098 -0.1554
  896MOL0     N20842  10.941   5.969   0.139 -0.0828 -0.4118 -0.3232
  896MOL0     C20843  11.036   6.017   0.051 -0.0825 -0.5058 -0.7047
  896MOL0     C20844  10.974   6.075  -0.057 -0.7906  0.3827 -1.0585
  896MOL0     C20845  11.037   6.147  -0.164 -0.8057 -0.5005 -0.0459
  896MOL0     C20846  11.005   6.080  -0.305 -0.5780  0.7645 -0.2948
  896MOL0     C20847  11.113   6.119  -0.402  0.2631  0.8157  0.3095
  896MOL0     C20848  11.082   6.076  -0.548 -0.3318 -0.0425  0.6472
  896MOL0     O20849  11.211   6.070  -0.602 -0.1381 -0.5254 -0.4373
  896MOL0     C20850  11.224   6.120  -0.725  0.1184 -0.8835 -0.2567
  896MOL0     C20851  11.196   6.255  -0.761  0.0688  0.4819 -0.0106
  896MOL0     C20852  11.208   6.296  -0.895  0.0094  0.0538 -0.0421
  896MOL0     C20853  11.255   6.215  -0.997 -0.3346  0.7675  0.5847
  896MOL0     C20854  11.271   6.258  -1.136  0.0590 -0.2556  0.5211
  896MOL0     O20855  11.209   6.378  -1.164  0.1339 -0.2018 -0.4317
  896MOL0     C20856  11.225   6.430  -1.294 -0.5522 -1.5108 -0.7876
  896MOL0     C20857  11.192   6.575  -1.307 -0.1239 -0.0753 -0.0813
  896MOL0     C20858  11.196   6.644  -1.432 -0.1038 -0.2264  0.4670
  896MOL0     C20859  11.218   6.562  -1.547  0.0834  0.3578  0.8100
  896MOL0     O20860  11.236   6.617  -1.679 -0.4009  0.1225 -0.7459
  896MOL0     C20861  11.344   6.711  -1.685 -0.7209  0.6246 -0.1610
  896MOL0     C20862  11.396   6.737  -1.829 -0.4036  0.7213 -0.4754
  896MOL0     C20863  11.521   6.822  -1.833  0.7471  0.0501 -0.0721
  896MOL0     C20864  11.587   6.828  -1.968  1.3850 -0.0550  0.5647
  896MOL0     C20865  11.653   6.693  -2.018 -0.5139 -0.0100 -0.2936
  896MOL0     C20866  11.706   6.707  -2.158  0.1326 -0.2357  0.0802
  896MOL0     C20867  11.592   6.713  -2.272 -0.2381 -0.9251  0.0495
  896MOL0     C20868  11.649   6.706  -2.414 -0.1786 -0.3008  0.2060
  896MOL0    Cl20869  11.730   6.866  -2.444 -0.6725 -0.0543 -0.6760
  896MOL0     C20870  11.232   6.422  -1.539 -0.2437  0.4808 -0.3797
  896MOL0     C20871  11.229   6.358  -1.415 -0.3384  0.1905 -0.6592
  896MOL0     O20872  11.325   6.180  -1.219  0.0555 -0.7335  0.4453
  896MOL0     C20873  11.292   6.077  -0.959  0.0784 -0.0583 -0.6960
  896MOL0     C20874  11.269   6.042  -0.823 -0.3462  0.4356  0.3163
  896MOL0     N20875  10.837   6.053  -0.037 -0.0347 -0.1281  0.0766
  896MOL0     N20876  10.825   6.001   0.081 -0.1713 -0.0147 -0.4619
  896MOL0     C20877  10.198   5.847   0.585 -0.3399  0.0298 -0.3482
  896MOL0     C20878  10.161   5.900   0.453 -0.8582 -0.5248  0.1322
  896MOL0     C20879  10.272   6.204   0.136  1.4355  0.3799 -0.5327
  896MOL0     C20880  10.399   6.158   0.105 -0.9335 -0.1893 -0.3202
  896MOL0     C20881  10.483   6.231   0.020  0.6040  0.3985 -0.9895
  896MOL0     C20882  10.438   6.344  -0.040 -0.0896 -0.7628  0.1254
  896MOL0     O20883  10.518   6.414  -0.128 -0.1489 -0.3327 -0.3663
  896MOL0     C20884  10.570   6.336  -0.235  0.7403  0.0066  0.1580
  896MOL0     C20885  10.722   6.348  -0.237  0.3824  0.8346 -0.5597
  896MOL0     C20886  10.770   6.495  -0.229  0.5869  0.5266  0.0963
  896MOL0     C20887  10.908   6.523  -0.282 -0.4086  1.1148 -0.3852
  896MOL0     C20888  10.919   6.489  -0.425 -0.4609 -1.1053  0.3838
  896MOL0     C20889  10.936   6.441  -0.538 -0.7542  0.2285 -0.1603
  896MOL0     C20890  10.308   6.395  -0.009 -0.1223  0.8017 -0.0052
  896MOL0     C20891  10.222   6.322   0.078 -0.2407 -0.8656  0.5234
  896MOL0     C20892  10.079   6.378   0.107 -0.5969 -0.3067 -0.5826
  896MOL0     H20893  10.469   5.981   0.342 -1.0412 -0.8897 -1.8022
  896MOL0     H20894  10.535   5.917   0.562  0.0559  2.2775 -0.6644
  896MOL0     H20895  10.444   5.615   0.843  2.9173 -2.4036 -1.4691
  896MOL0     H20896  10.333   5.593   0.710 -3.4559  5.1737  1.0256
  896MOL0     H20897  10.524   5.648   0.549  1.2453  0.6751  0.0714
  896MOL0     H20898  10.569   5.516   0.658 -1.4471 -1.2355 -3.1116
  896MOL0     H20899  10.714   5.654   0.777 -2.0725 -2.0302 -0.8741
  896MOL0     H20900  10.665   5.801   0.673  0.7486  0.3882 -0.8812
  896MOL0     H20901  10.879   5.651   0.633 -0.9746 -0.4924  0.0509
  896MOL0     H20902  10.763   5.532   0.569 -2.8124 -0.1079 -0.9532
  896MOL0     H20903  10.720   5.658   0.384 -1.6177  2.4339 -1.0322
  896MOL0     H20904  10.774   5.813   0.468  2.5511 -0.2398 -2.1989
  896MOL0     H20905  11.003   5.741   0.478 -0.0715  0.7213 -0.9779
  896MOL0     H20906  10.974   5.593   0.403  2.3540  1.6489 -1.1912
  896MOL0     H20907  10.880   5.727   0.207  2.6269 -3.6507 -1.8818
  896MOL0     H20908  11.053   5.740   0.222  2.3459  1.5052  4.2129
  896MOL0     H20909  10.879   5.956   0.339 -1.2802  0.4187 -2.4651
  896MOL0     H20910  11.051   5.962   0.311 -0.4695  0.7497  1.6944
  896MOL0     H20911  11.142   6.019   0.073  0.0870  0.0071 -1.5325
  896MOL0     H20912  10.999   6.249  -0.172 -0.7386 -0.3505  1.3412
  896MOL0     H20913  11.144   6.155  -0.140 -0.7319 -3.1474  0.9489
  896MOL0     H20914  11.004   5.972  -0.287 -1.6764  1.1780  2.7635
  896MOL0     H20915  10.906   6.102  -0.346 -1.6514 -3.8565 -0.7777
  896MOL0     H20916  11.208   6.077  -0.367 -0.2045  0.5922  1.3432
  896MOL0     H20917  11.115   6.228  -0.399  0.7381  0.8369 -0.4941
  896MOL0     H20918  11.021   6.153  -0.596  1.2234  0.1846 -1.1097
  896MOL0     H20919  11.032   5.981  -0.565 -1.3662  1.0548 -3.5941
  896MOL0     H20920  11.145   6.321  -0.692 -0.1506  0.1249  0.1754
  896MOL0     H20921  11.171   6.394  -0.920  1.8716  0.4063 -1.6186
  896MOL0     H20922  11.181   6.635  -1.217  1.0294 -0.0381  0.0431
  896MOL0     H20923  11.196   6.752  -1.448  2.4593 -0.2584 -0.0618
  896MOL0     H20924  11.318   6.813  -1.655 -1.2476  0.3218  0.4176
  896MOL0     H20925  11.430   6.676  -1.628 -0.9810 -0.8251 -0.6170
  896MOL0     H20926  11.416   6.636  -1.869  2.3779  1.7458 -1.9923
  896MOL0     H20927  11.311   6.782  -1.880 -0.5689 -0.2832 -1.1253
  896MOL0     H20928  11.499   6.926  -1.807 -3.4809  0.5679 -4.3975
  896MOL0     H20929  11.592   6.787  -1.757  1.9659  1.1379 -0.6731
  896MOL0     H20930  11.667   6.903  -1.963  0.5676  0.9858 -1.1651
  896MOL0     H20931  11.517   6.862  -2.045  2.6489 -1.3038 -1.2258
  896MOL0     H20932  11.582   6.610  -2.023 -2.2458  1.1402  2.5746
  896MOL0     H20933  11.740   6.675  -1.955 -0.6447 -1.4772 -0.5087
  896MOL0     H20934  11.757   6.803  -2.160  1.8917 -1.0442  2.5113
  896MOL0     H20935  11.780   6.627  -2.167 -0.6204 -0.7716 -2.3540
  896MOL0     H20936  11.541   6.809  -2.262 -0.6091 -1.2750  1.9206
  896MOL0     H20937  11.525   6.627  -2.261  1.9185 -2.5620  1.1954
  896MOL0     H20938  11.715   6.619  -2.409  1.5543  1.0101  0.9544
  896MOL0     H20939  11.571   6.701  -2.491  1.1306 -0.5853 -1.1712
  896MOL0     H20940  11.244   6.363  -1.629  0.2136  1.2577 -0.8335
  896MOL0     H20941  11.236   6.250  -1.407  2.6877  0.1732 -1.9294
  896MOL0     H20942  11.325   6.002  -1.030  1.5443 -1.3717  1.2610
  896MOL0     H20943  11.293   5.941  -0.791 -5.1371 -0.9046  0.3671
  896MOL0     H20944  10.126   5.807   0.655  0.1299 -0.6572 -0.2409
  896MOL0     H20945  10.058   5.892   0.420 -0.2218 -1.4037 -1.7930
  896MOL0     H20946  10.449   6.071   0.145 -0.8330 -0.7836 -1.6703
  896MOL0     H20947  10.582   6.195  -0.004  0.9428  0.3436  0.3970
  896MOL0     H20948  10.528   6.381  -0.325  0.6022  2.1248  1.2061
  896MOL0     H20949  10.543   6.230  -0.226 -2.9534  0.9071  1.9997
  896MOL0     H20950  10.759   6.300  -0.328  3.9153  0.6117  0.8412
  896MOL0     H20951  10.762   6.292  -0.152 -0.0078 -1.7100 -1.9304
  896MOL0     H20952  10.748   6.523  -0.125 -0.9029 -0.1152 -0.0275
  896MOL0     H20953  10.700   6.536  -0.303  3.3118  1.7879 -1.9526
  896MOL0     H20954  10.935   6.628  -0.268  1.3482  0.6345  0.1163
  896MOL0     H20955  10.986   6.469  -0.229 -3.1069 -2.6838  0.0921
  896MOL0     H20956  10.954   6.386  -0.628 -0.0480 -2.8466  1.7202
  896MOL0     H20957  10.256   6.475  -0.060 -1.3092  0.1557  0.1436
  896MOL0     H20958  10.077   6.427   0.205 -1.0270 -0.4132 -0.5318
  896MOL0     H20959  10.055   6.466   0.046  0.6735  1.4744  1.3266
  896MOL0     H20960  10.010   6.293   0.112  0.4796 -1.1918 -0.7148
  897MOL0     O20961   9.245   6.901   5.017 -0.1988  0.0832  0.6565
  897MOL0     C20962   9.288   7.014   4.986 -0.1371  0.0954 -0.5338
  897MOL0     O20963   9.229   7.126   5.029 -0.4533  0.5313  0.0088
  897MOL0     C20964   9.121   7.128   5.111 -0.7474  0.0398 -1.3032
  897MOL0     C20965   9.145   7.082   5.244 -0.0451  0.0822 -0.0154
  897MOL0     C20966   9.038   7.071   5.341 -0.8283  0.0632 -0.0273
  897MOL0     C20967   8.912   7.135   5.314 -0.5932 -0.7342  0.6190
  897MOL0     O20968   8.805   7.135   5.399 -0.7704  0.0499  0.2018
  897MOL0     C20969   8.689   7.057   5.365 -0.9905 -0.6210  0.7442
  897MOL0     C20970   8.661   6.951   5.482  0.0777  0.7540  0.4959
  897MOL0     C20971   8.779   6.859   5.521  0.0538  0.4720 -0.3303
  897MOL0     C20972   8.816   6.763   5.406 -0.4211 -0.7095 -0.4745
  897MOL0     C20973   8.953   6.695   5.430 -0.1153  0.9014  0.6183
  897MOL0     C20974   8.993   6.620   5.300 -0.6142  0.6142  0.0609
  897MOL0     C20975   9.009   6.719   5.172 -0.1734 -0.5238 -0.1641
  897MOL0     C20976   9.065   6.636   5.058 -0.1875  0.8042 -0.2149
  897MOL0     N20977   8.958   6.566   4.989 -0.3726  0.3558  0.3999
  897MOL0     C20978   8.906   6.448   5.032  1.0547  0.4059  0.8215
  897MOL0     C20979   8.809   6.423   4.950  1.0359  0.6011  0.9813
  897MOL0     C20980   8.746   6.285   4.927 -0.4015  0.0900  0.2122
  897MOL0     C20981   8.592   6.300   4.931  0.2284  0.4470 -1.2094
  897MOL0     C20982   8.528   6.287   5.077  0.2271 -0.1142 -0.6741
  897MOL0     C20983   8.554   6.410   5.163 -0.4321 -0.9295  0.3840
  897MOL0     O20984   8.483   6.406   5.285 -0.2070  0.9685  0.4457
  897MOL0     C20985   8.511   6.490   5.390  0.8829 -0.4892  0.6186
  897MOL0     C20986   8.610   6.463   5.489  0.1771  0.5055 -0.3325
  897MOL0     C20987   8.598   6.530   5.607 -0.9946  0.0089  0.3826
  897MOL0     C20988   8.511   6.641   5.618  0.5702  0.2444  0.6395
  897MOL0     C20989   8.512   6.717   5.743  0.5686  0.0499  0.3164
  897MOL0     O20990   8.401   6.800   5.772 -0.4540  0.0583 -0.6528
  897MOL0     C20991   8.396   6.862   5.900  0.5928  0.0930 -0.6716
  897MOL0     C20992   8.394   6.791   6.021 -0.1152  0.0272  0.0247
  897MOL0     C20993   8.361   6.851   6.143 -0.9040 -0.3515 -0.2219
  897MOL0     C20994   8.343   6.990   6.140 -0.2602 -0.5192 -0.7464
  897MOL0     O20995   8.316   7.039   6.270  0.4447  0.0269 -1.1626
  897MOL0     C20996   8.316   7.188   6.297  0.2317  0.4912  1.3447
  897MOL0     C20997   8.462   7.243   6.315 -0.6929 -0.4279 -0.0235
  897MOL0     C20998   8.471   7.393   6.300 -0.4808 -0.8032  0.0878
  897MOL0     C20999   8.443   7.451   6.150 -0.2442 -0.1488 -0.2506
  897MOL0     C21000   8.460   7.603   6.138 -0.7160  1.5252 -0.2424
  897MOL0     C21001   8.504   7.644   5.996 -0.1019  0.2063  0.0654
  897MOL0     C21002   8.554   7.794   5.984  0.5006 -1.4854 -0.6715
  897MOL0     C21003   8.422   7.873   5.961 -0.2117 -0.0348  0.0800
  897MOL0    Cl21004   8.464   8.042   5.951 -0.5950  0.0919  0.2312
  897MOL0     C21005   8.351   7.057   6.022 -0.7564  0.0410  0.3561
  897MOL0     C21006   8.383   6.999   5.906 -1.1798 -0.7056 -0.3395
  897MOL0     O21007   8.616   6.708   5.810  0.1601  0.2533 -0.5048
  897MOL0     C21008   8.417   6.667   5.516 -0.3464 -0.3441  0.5976
  897MOL0     C21009   8.422   6.589   5.400 -1.0707 -0.0533 -0.0546
  897MOL0     N21010   8.788   6.530   4.867 -0.1262  0.1534  0.0632
  897MOL0     N21011   8.881   6.625   4.899  0.5910 -0.3888 -0.6670
  897MOL0     C21012   8.904   7.202   5.191 -0.0801  0.6278 -0.1583
  897MOL0     C21013   8.999   7.192   5.093 -0.0453 -0.7174  0.2915
  897MOL0     C21014   9.413   7.031   4.916 -0.6064  0.0045  0.1765
  897MOL0     C21015   9.491   7.143   4.947 -0.0842 -0.1616 -0.0850
  897MOL0     C21016   9.605   7.169   4.883 -0.3316 -1.2710 -0.0870
  897MOL0     C21017   9.658   7.076   4.798 -0.2093 -0.0437 -0.6394
  897MOL0     O21018   9.769   7.078   4.726  0.3930  0.0427 -0.4640
  897MOL0     C21019   9.852   7.199   4.724 -0.5602 -0.2988  0.1062
  897MOL0     C21020   9.978   7.201   4.794  0.2072 -0.4134 -0.5173
  897MOL0     C21021  10.056   7.330   4.772  0.0028  0.3379 -0.1111
  897MOL0     C21022   9.999   7.459   4.822 -0.1049  0.3128 -0.0469
  897MOL0     C21023  10.092   7.567   4.818 -1.1561 -0.6890 -0.0482
  897MOL0     C21024  10.146   7.674   4.807 -1.0425  0.1702  1.0288
  897MOL0     C21025   9.595   6.954   4.786 -1.1991 -0.0011 -0.3827
  897MOL0     C21026   9.474   6.926   4.841  0.5564  0.5963  0.1681
  897MOL0     C21027   9.415   6.794   4.797  0.9711 -0.3411  0.0705
  897MOL0     H21028   9.240   7.042   5.277 -0.5549 -0.1015  1.3007
  897MOL0     H21029   9.053   7.041   5.444 -1.4656  3.3020  1.1178
  897MOL0     H21030   8.598   7.117   5.352 -0.0163  0.4685 -1.7229
  897MOL0     H21031   8.704   7.001   5.272 -1.6098  1.5942 -0.7767
  897MOL0     H21032   8.587   6.884   5.437  0.4514  1.7761 -1.8167
  897MOL0     H21033   8.620   6.999   5.571  0.1440  3.0882 -0.6508
  897MOL0     H21034   8.746   6.798   5.605  1.6244 -0.5355 -0.3930
  897MOL0     H21035   8.864   6.916   5.560  0.9481 -0.0565 -1.4450
  897MOL0     H21036   8.739   6.687   5.388 -1.1929  0.1803 -0.9890
  897MOL0     H21037   8.822   6.812   5.309 -2.4838 -2.1237 -1.3889
  897MOL0     H21038   9.033   6.769   5.442  0.4097  0.6155 -0.8347
  897MOL0     H21039   8.960   6.619   5.509  2.2738 -0.4916 -0.8044
  897MOL0     H21040   9.091   6.575   5.319 -1.7941 -1.5795  1.3590
  897MOL0     H21041   8.916   6.544   5.280  1.0552 -1.0801 -0.1954
  897MOL0     H21042   9.062   6.812   5.194 -0.7341  0.1215 -1.4419
  897MOL0     H21043   8.911   6.748   5.133 -0.1092  1.1050  0.7943
  897MOL0     H21044   9.127   6.692   4.987  1.4141  1.2942  1.5089
  897MOL0     H21045   9.138   6.568   5.101  0.5234  1.5364 -0.2349
  897MOL0     H21046   8.947   6.380   5.107  3.0965 -0.1545 -0.6956
  897MOL0     H21047   8.782   6.240   4.834  1.3951  1.5347  0.1413
  897MOL0     H21048   8.763   6.213   5.008  1.9512  3.5152  3.0936
  897MOL0     H21049   8.553   6.390   4.883 -2.1759 -0.4153 -0.9882
  897MOL0     H21050   8.566   6.214   4.869 -1.4523 -0.8736  1.1695
  897MOL0     H21051   8.592   6.210   5.122  0.3293  1.5795  2.3432
  897MOL0     H21052   8.429   6.242   5.063  0.6203 -0.3703 -3.0399
  897MOL0     H21053   8.531   6.501   5.108  0.6155  1.3336  3.3813
  897MOL0     H21054   8.661   6.402   5.185 -0.1346  0.5573 -0.4509
  897MOL0     H21055   8.677   6.378   5.494  2.0932  2.0102  2.1277
  897MOL0     H21056   8.651   6.500   5.698 -2.4506 -1.5888  0.7628
  897MOL0     H21057   8.419   6.686   6.019  2.9672  0.4171  4.2260
  897MOL0     H21058   8.354   6.796   6.236 -0.6997  1.7216  1.1084
  897MOL0     H21059   8.259   7.247   6.225  2.4325  0.1639 -0.7758
  897MOL0     H21060   8.271   7.197   6.397 -1.6958  1.0004  0.4793
  897MOL0     H21061   8.497   7.216   6.415 -0.6945  1.7427  0.6105
  897MOL0     H21062   8.536   7.198   6.248 -0.2394  1.1199 -0.6169
  897MOL0     H21063   8.404   7.428   6.378 -1.7891 -0.5123 -1.1154
  897MOL0     H21064   8.574   7.409   6.332  0.1951 -1.2433 -1.6985
  897MOL0     H21065   8.340   7.425   6.129  0.7568 -3.5333 -1.5659
  897MOL0     H21066   8.507   7.407   6.072 -0.0415  3.1818 -2.1534
  897MOL0     H21067   8.544   7.623   6.206 -1.4903 -0.0962  1.2856
  897MOL0     H21068   8.370   7.650   6.180 -0.1222  1.0510  1.6817
  897MOL0     H21069   8.584   7.578   5.961 -1.5261 -1.8017  0.3958
  897MOL0     H21070   8.417   7.620   5.932 -0.5834  1.5043  0.2075
  897MOL0     H21071   8.612   7.804   5.892 -2.1207 -0.6795 -2.3523
  897MOL0     H21072   8.612   7.825   6.071  0.0100 -0.9133 -0.5448
  897MOL0     H21073   8.383   7.830   5.868 -1.4812  0.9436  0.1520
  897MOL0     H21074   8.342   7.856   6.032 -1.1328 -2.6797 -1.4447
  897MOL0     H21075   8.357   7.165   6.014 -5.5812  0.4275 -1.2791
  897MOL0     H21076   8.400   7.058   5.817 -2.7425  2.1744  1.1119
  897MOL0     H21077   8.347   6.750   5.517  2.4922  2.2507 -0.2809
  897MOL0     H21078   8.361   6.605   5.311  2.1722 -1.3676 -2.7196
  897MOL0     H21079   8.811   7.255   5.173  1.0905  2.0512 -2.4090
  897MOL0     H21080   8.995   7.247   5.000  0.6850  1.1252  1.3002
  897MOL0     H21081   9.459   7.231   5.002 -4.1718  1.1253 -3.9110
  897MOL0     H21082   9.636   7.272   4.897 -1.8448 -0.5802 -1.5017
  897MOL0     H21083   9.798   7.285   4.765 -1.8537 -2.3873  3.0873
  897MOL0     H21084   9.875   7.229   4.621  1.7891  3.3288  1.4726
  897MOL0     H21085  10.041   7.115   4.769  0.7361 -1.8044  4.5648
  897MOL0     H21086   9.958   7.185   4.900  2.2352  0.7286  0.0653
  897MOL0     H21087  10.068   7.331   4.664  0.6294  1.4419 -0.0471
  897MOL0     H21088  10.159   7.326   4.809 -1.2420 -0.4867  3.7096
  897MOL0     H21089   9.915   7.495   4.761 -0.9911 -1.1859  0.2475
  897MOL0     H21090   9.958   7.435   4.921 -0.9438  1.8855  0.0316
  897MOL0     H21091  10.187   7.771   4.786 -1.2536 -0.2429 -1.6567
  897MOL0     H21092   9.629   6.874   4.722 -0.0982  0.2175 -0.0998
  897MOL0     H21093   9.466   6.709   4.842  0.7018 -1.0704 -0.9587
  897MOL0     H21094   9.306   6.788   4.810  0.8963  1.5510  0.5823
  897MOL0     H21095   9.423   6.789   4.688 -0.9800 -0.3729 -0.1187
  898MOL0     O21096   1.206  10.187   5.635  0.1380  0.2966  0.3090
  898MOL0     C21097   1.299  10.207   5.560 -0.3854  0.2498 -0.1676
  898MOL0     O21098   1.374  10.318   5.566 -0.3685 -0.9235 -0.3433
  898MOL0     C21099   1.382  10.380   5.688 -0.6540  1.0273 -0.6253
  898MOL0     C21100   1.476  10.348   5.785 -0.5525  0.6844  0.8629
  898MOL0     C21101   1.476  10.402   5.909 -0.6484  0.2328  0.3405
  898MOL0     C21102   1.369  10.487   5.946  0.5238 -0.1006 -0.0122
  898MOL0     O21103   1.360  10.516   6.077  0.7304 -0.3831  0.1242
  898MOL0     C21104   1.244  10.471   6.143  0.1232 -0.7647 -0.1247
  898MOL0     C21105   1.257  10.477   6.301  0.0101  0.3459  0.0211
  898MOL0     C21106   1.126  10.444   6.376 -0.0936  1.3257 -0.1775
  898MOL0     C21107   1.131  10.480   6.524  0.3383  1.0137 -0.1520
  898MOL0     C21108   0.998  10.463   6.582  0.1392 -0.2613  0.4138
  898MOL0     C21109   0.940  10.325   6.586 -0.6367 -0.0831 -0.8351
  898MOL0     C21110   0.818  10.318   6.680  0.6625  0.1332 -0.4751
  898MOL0     C21111   0.764  10.175   6.714 -0.9273  0.7113  0.2631
  898MOL0     N21112   0.666  10.144   6.598 -0.0842  0.7952  0.0464
  898MOL0     C21113   0.543  10.206   6.584  0.0210 -0.0407  0.4137
  898MOL0     C21114   0.513  10.203   6.453 -0.0445 -1.0101  0.0495
  898MOL0     C21115   0.385  10.279   6.401 -0.5006  0.7608 -0.5100
  898MOL0     C21116   0.299  10.210   6.284 -0.3271  0.1631 -0.3791
  898MOL0     C21117   0.365  10.217   6.145 -0.5664  0.6774 -0.9364
  898MOL0     C21118   0.346  10.343   6.065 -0.7992 -0.7147 -0.2027
  898MOL0     O21119   0.202  10.355   6.027 -0.0919 -0.5470 -1.0839
  898MOL0     C21120   0.149  10.471   5.971  0.5828 -0.3350 -0.0328
  898MOL0     C21121   0.232  10.577   5.955 -1.0100 -0.7587  0.4816
  898MOL0     C21122   0.189  10.696   5.898 -0.0327  0.9351 -0.6939
  898MOL0     C21123   0.052  10.704   5.853 -0.0341 -0.2767  0.1445
  898MOL0     C21124   0.005  10.827   5.794 -1.0924 -0.3633 -0.8205
  898MOL0     O21125   0.104  10.892   5.724 -0.3719 -0.6858 -0.4431
  898MOL0     C21126   0.098  11.026   5.700  0.3955 -0.5438  0.5564
  898MOL0     C21127   0.153  11.116   5.778 -0.4767 -0.8817 -0.4234
  898MOL0     C21128   0.157  11.250   5.750  0.6584 -0.1934  0.2654
  898MOL0     C21129   0.088  11.303   5.639  1.1595  0.1246 -0.3339
  898MOL0     O21130   0.062  11.432   5.600 -1.2515  0.5452  0.0721
  898MOL0     C21131   0.147  11.514   5.680 -0.0310 -0.5394 -0.2898
  898MOL0     C21132   0.135  11.645   5.620 -0.8587 -0.9763 -0.3571
  898MOL0     C21133   0.194  11.753   5.707  0.6381 -0.6214 -0.5775
  898MOL0     C21134   0.349  11.732   5.740 -0.7255  0.4198 -0.2692
  898MOL0     C21135   0.446  11.702   5.637 -0.4242 -0.0260  0.7113
  898MOL0     C21136   0.557  11.612   5.687 -0.8552  0.3566  0.1119
  898MOL0     C21137   0.650  11.547   5.597 -0.4230 -0.3501 -0.4987
  898MOL0     C21138   0.804  11.574   5.618  0.1988 -0.0861 -0.2174
  898MOL0    Cl21139   0.851  11.530   5.787  0.1076 -0.5734 -0.8373
  898MOL0     C21140   0.023  11.211   5.557 -0.3479  0.3987 -0.4081
  898MOL0     C21141   0.038  11.071   5.581  0.4482  0.5686  0.2011
  898MOL0     O21142  -0.103  10.869   5.825  0.4094 -0.5336 -0.1366
  898MOL0     C21143  -0.039  10.601   5.885  0.0852  0.6701 -0.0867
  898MOL0     C21144   0.011  10.482   5.935  0.2138 -0.3478  0.0216
  898MOL0     N21145   0.605  10.127   6.387  0.0369  1.1774 -0.1987
  898MOL0     N21146   0.704  10.100   6.472  0.2805  0.2614 -0.0806
  898MOL0     C21147   1.275  10.530   5.853  0.5987  0.5195 -0.0509
  898MOL0     C21148   1.274  10.469   5.723  0.4123  1.0274  0.0262
  898MOL0     C21149   1.296  10.138   5.431 -0.5398  0.1989 -0.3366
  898MOL0     C21150   1.321  10.200   5.313 -0.8393  0.5670 -0.1887
  898MOL0     C21151   1.347  10.126   5.192 -0.4378  0.3293  0.4674
  898MOL0     C21152   1.344   9.989   5.188  0.7163  0.6532  0.3574
  898MOL0     O21153   1.361   9.905   5.081 -0.7015  0.3846  0.4348
  898MOL0     C21154   1.440   9.960   4.974 -0.2890 -0.1927 -0.4348
  898MOL0     C21155   1.492   9.859   4.864  0.9672 -0.7536  0.9067
  898MOL0     C21156   1.581   9.749   4.920 -0.1829 -0.1106 -0.3854
  898MOL0     C21157   1.666   9.695   4.797 -0.1443 -0.7564  0.4330
  898MOL0     C21158   1.796   9.630   4.842  0.5233 -0.7925 -0.5512
  898MOL0     C21159   1.886   9.552   4.859  0.4105  0.0753 -0.0927
  898MOL0     C21160   1.302   9.927   5.306 -1.2012 -0.1462 -0.6553
  898MOL0     C21161   1.292   9.995   5.431  0.0177 -0.2415  1.5863
  898MOL0     C21162   1.284   9.907   5.556  0.1616 -0.0696 -0.3853
  898MOL0     H21163   1.554  10.285   5.744 -2.6051 -1.1513 -0.4726
  898MOL0     H21164   1.557  10.390   5.981 -0.0787 -3.1201 -0.6719
  898MOL0     H21165   1.160  10.529   6.103  3.4115  1.3362 -4.8665
  898MOL0     H21166   1.228  10.364   6.127 -0.9106 -0.4021 -1.7751
  898MOL0     H21167   1.313  10.562   6.340  1.4895 -1.3294  1.7375
  898MOL0     H21168   1.318  10.394   6.337 -2.8130 -1.9627 -0.1159
  898MOL0     H21169   1.107  10.339   6.354  2.1703  0.9639 -0.6312
  898MOL0     H21170   1.041  10.501   6.337 -1.0612  0.2747  0.3515
  898MOL0     H21171   1.201  10.417   6.580 -0.3137  0.9089  0.5738
  898MOL0     H21172   1.175  10.578   6.541 -1.1234  1.6909 -0.1011
  898MOL0     H21173   1.017  10.505   6.681  0.5166  1.9368 -0.5505
  898MOL0     H21174   0.932  10.530   6.526  0.3324  1.2256  1.8971
  898MOL0     H21175   0.920  10.288   6.484  1.0709 -0.0208 -1.2173
  898MOL0     H21176   1.017  10.258   6.626  0.3699  0.0390 -2.4449
  898MOL0     H21177   0.733  10.363   6.627  0.6021 -1.2843 -1.6490
  898MOL0     H21178   0.842  10.364   6.776 -3.0818 -2.8898  2.2109
  898MOL0     H21179   0.847  10.106   6.730 -0.4170  0.9557 -1.1164
  898MOL0     H21180   0.709  10.185   6.808 -1.5190  0.8193 -0.0906
  898MOL0     H21181   0.489  10.261   6.660  1.6118  3.3197 -0.6573
  898MOL0     H21182   0.317  10.303   6.483 -1.2972  0.5163 -1.0743
  898MOL0     H21183   0.424  10.377   6.371 -0.7945  0.8336 -0.6680
  898MOL0     H21184   0.277  10.106   6.309 -0.2859  0.6818  2.0298
  898MOL0     H21185   0.196  10.248   6.278 -1.8196 -3.6541 -2.7168
  898MOL0     H21186   0.323  10.134   6.087  1.7726  0.4238 -2.4033
  898MOL0     H21187   0.473  10.206   6.154 -0.7594 -1.8590 -1.0002
  898MOL0     H21188   0.404  10.337   5.972  1.1196 -0.8396  0.9353
  898MOL0     H21189   0.391  10.409   6.140 -0.1498 -2.5919  1.1412
  898MOL0     H21190   0.335  10.585   5.987 -2.1947  0.6355  4.7348
  898MOL0     H21191   0.266  10.769   5.873  1.9308 -0.5661  0.6986
  898MOL0     H21192   0.207  11.082   5.866 -0.0527 -3.1794 -1.4739
  898MOL0     H21193   0.217  11.321   5.807  0.7042  0.8939 -1.0833
  898MOL0     H21194   0.121  11.514   5.786  1.6229  1.3604  0.1868
  898MOL0     H21195   0.247  11.473   5.664 -1.7558 -6.2163  1.3203
  898MOL0     H21196   0.180  11.645   5.521  0.2328 -1.3329  0.1217
  898MOL0     H21197   0.029  11.667   5.605 -0.6991  0.3306  0.3064
  898MOL0     H21198   0.188  11.844   5.647  1.4667 -0.4801 -0.4491
  898MOL0     H21199   0.141  11.781   5.799 -0.0729  0.8748 -1.4035
  898MOL0     H21200   0.355  11.654   5.816  2.4990  0.7987  0.0347
  898MOL0     H21201   0.383  11.823   5.792  1.6077 -2.6048  4.1124
  898MOL0     H21202   0.488  11.797   5.603 -1.0845 -0.3126 -0.9976
  898MOL0     H21203   0.403  11.652   5.550  3.1087 -1.0570 -0.6126
  898MOL0     H21204   0.621  11.672   5.752  0.1297 -1.1697  0.5962
  898MOL0     H21205   0.506  11.534   5.744 -2.6229  1.1187 -0.3616
  898MOL0     H21206   0.629  11.582   5.495 -0.3626  0.5721 -0.2082
  898MOL0     H21207   0.646  11.438   5.602  0.1506 -0.3430  0.2791
  898MOL0     H21208   0.860  11.508   5.551  1.7106 -1.1516  1.9707
  898MOL0     H21209   0.839  11.671   5.583  1.3548  0.4493  2.1655
  898MOL0     H21210  -0.014  11.245   5.461 -0.5076  0.4014 -0.3462
  898MOL0     H21211   0.006  11.003   5.503 -0.2897  0.8624  0.2440
  898MOL0     H21212  -0.146  10.601   5.873 -0.2144 -2.2016  1.5535
  898MOL0     H21213  -0.061  10.402   5.954 -1.6445  1.1084 -0.6288
  898MOL0     H21214   1.185  10.587   5.873 -0.3969 -0.2067 -2.1615
  898MOL0     H21215   1.207  10.499   5.643 -0.7259  0.0220  0.5689
  898MOL0     H21216   1.325  10.309   5.314 -0.3792  0.5616  1.4516
  898MOL0     H21217   1.369  10.184   5.104 -0.4795 -1.9777 -1.1494
  898MOL0     H21218   1.525  10.002   5.028 -0.9882  0.1235  0.4499
  898MOL0     H21219   1.380  10.046   4.943 -0.0550 -0.1464 -0.7679
  898MOL0     H21220   1.543   9.919   4.788 -2.5038  1.2971 -0.0321
  898MOL0     H21221   1.409   9.817   4.806  0.0118  1.3428  0.6683
  898MOL0     H21222   1.525   9.663   4.957 -2.5585  1.3678 -0.3355
  898MOL0     H21223   1.640   9.799   4.998  1.8912  0.2189 -2.0465
  898MOL0     H21224   1.606   9.629   4.733 -0.6745  0.5086 -0.4255
  898MOL0     H21225   1.709   9.779   4.742 -2.4224  0.3989  0.2849
  898MOL0     H21226   1.949   9.470   4.887  1.6751  0.9787 -0.1720
  898MOL0     H21227   1.291   9.819   5.313  0.9464 -0.3335  0.6201
  898MOL0     H21228   1.270   9.800   5.539  2.1346 -0.8749  2.3532
  898MOL0     H21229   1.379   9.902   5.612 -0.7328 -2.2381  1.0622
  898MOL0     H21230   1.215   9.947   5.630  3.8476  0.2132  3.3241
  899MOL0     O21231   7.759   8.294   6.017  0.9516 -0.1617 -0.2257
  899MOL0     C21232   7.644   8.258   5.977  0.6106  0.9531 -0.3600
  899MOL0     O21233   7.616   8.130   5.950  0.2759 -0.2607  0.2914
  899MOL0     C21234   7.711   8.032   5.961  0.0432  0.3470  0.9768
  899MOL0     C21235   7.802   8.020   5.865  0.3591  0.4796  0.5657
  899MOL0     C21236   7.894   7.916   5.866 -0.3052  0.0303  0.5809
  899MOL0     C21237   7.901   7.824   5.967 -0.2100  0.2458 -0.5241
  899MOL0     O21238   7.996   7.727   5.961 -0.5580 -0.0015  0.1225
  899MOL0     C21239   7.985   7.620   6.059  0.4490 -0.4469  0.3631
  899MOL0     C21240   8.098   7.517   6.024  1.0880 -0.5090  0.0613
  899MOL0     C21241   8.090   7.469   5.882  0.4831 -0.6873 -0.2656
  899MOL0     C21242   8.200   7.368   5.842 -0.0172 -0.6161  0.0219
  899MOL0     C21243   8.189   7.319   5.697  0.6337  0.0809  0.0793
  899MOL0     C21244   8.074   7.222   5.666  0.4642  0.1565  0.7291
  899MOL0     C21245   8.103   7.079   5.715  0.8601 -1.0087 -0.4537
  899MOL0     C21246   7.977   7.002   5.679  0.3319 -0.0187  0.6199
  899MOL0     N21247   7.994   6.861   5.665  0.6625  1.4181 -0.0143
  899MOL0     C21248   8.034   6.786   5.774 -0.6780  0.5168 -0.4472
  899MOL0     C21249   8.099   6.671   5.730  0.1269  0.4478 -0.4554
  899MOL0     C21250   8.135   6.543   5.805  0.3863  0.3415  0.6162
  899MOL0     C21251   8.254   6.460   5.745  0.0489  0.1334  0.6384
  899MOL0     C21252   8.296   6.344   5.833 -0.5884  0.2506 -0.8664
  899MOL0     C21253   8.309   6.365   5.984  0.3565 -0.1124  0.8563
  899MOL0     O21254   8.425   6.439   6.025  0.0695  0.1667  0.2385
  899MOL0     C21255   8.561   6.394   6.002  0.9568  0.2453 -1.0783
  899MOL0     C21256   8.605   6.271   5.958  0.0799 -0.1001 -0.4556
  899MOL0     C21257   8.744   6.237   5.974 -0.3937 -0.0297  0.1204
  899MOL0     C21258   8.834   6.329   6.028  0.0197 -0.0110  0.8935
  899MOL0     C21259   8.976   6.289   6.055  0.0756  0.3462  0.2583
  899MOL0     O21260   9.061   6.382   6.107  0.6418 -0.3512 -0.3378
  899MOL0     C21261   9.193   6.344   6.117  0.7244  0.5838  0.4705
  899MOL0     C21262   9.283   6.393   6.021  0.5486 -0.0688  0.4638
  899MOL0     C21263   9.418   6.366   6.015  0.3379  0.0317 -0.0921
  899MOL0     C21264   9.469   6.271   6.108  0.6443  0.6381  0.3716
  899MOL0     O21265   9.605   6.244   6.109 -0.8279 -0.3033  0.6066
  899MOL0     C21266   9.680   6.228   5.981 -0.0407  0.6953 -0.5123
  899MOL0     C21267   9.632   6.109   5.895 -0.3990  0.0739 -0.5219
  899MOL0     C21268   9.681   6.136   5.745  0.2132 -0.1935  0.3688
  899MOL0     C21269   9.590   6.243   5.674 -1.0631 -0.1306 -0.3456
  899MOL0     C21270   9.655   6.272   5.532  1.1158 -0.7098 -0.0912
  899MOL0     C21271   9.676   6.155   5.446  0.0857 -0.2774  0.4598
  899MOL0     C21272   9.547   6.075   5.427  0.8584 -0.3122 -0.2881
  899MOL0     C21273   9.539   5.968   5.319  0.3709 -0.0474 -0.0385
  899MOL0    Cl21274   9.624   5.821   5.365 -0.2987 -0.5962  0.7270
  899MOL0     C21275   9.386   6.203   6.197  0.6241 -0.1467  0.1536
  899MOL0     C21276   9.252   6.248   6.202  0.6404 -0.8351 -0.6968
  899MOL0     O21277   9.011   6.176   6.022 -0.1578 -0.4964  0.0188
  899MOL0     C21278   8.782   6.455   6.074  0.3799  0.8873 -0.2972
  899MOL0     C21279   8.647   6.492   6.053  0.3143  1.0193 -0.1197
  899MOL0     N21280   8.089   6.676   5.595 -0.4837 -0.3407  0.3960
  899MOL0     N21281   8.035   6.788   5.556 -1.1812  0.0469 -0.4479
  899MOL0     C21282   7.806   7.836   6.063 -0.2296  0.1863 -0.1813
  899MOL0     C21283   7.712   7.938   6.065  0.5298 -0.7841  0.9009
  899MOL0     C21284   7.544   8.363   5.971 -0.6074 -0.4324  0.0277
  899MOL0     C21285   7.546   8.467   6.060 -0.4604 -0.0304 -0.4337
  899MOL0     C21286   7.481   8.591   6.034  0.2617 -0.7722  1.2130
  899MOL0     C21287   7.388   8.602   5.921 -0.3351 -0.5251 -0.5239
  899MOL0     O21288   7.308   8.705   5.903  0.2174  0.3960  0.5826
  899MOL0     C21289   7.335   8.826   5.970 -0.2370 -0.4547  0.0590
  899MOL0     C21290   7.205   8.910   5.968  0.2294 -0.0820 -0.1791
  899MOL0     C21291   7.244   9.054   5.994 -0.5682 -0.3172  0.0421
  899MOL0     C21292   7.122   9.135   5.941  1.0691  0.5906  0.2159
  899MOL0     C21293   7.133   9.278   5.973 -0.7947  0.0572 -0.0201
  899MOL0     C21294   7.143   9.396   5.989  0.0066  0.3209 -0.1598
  899MOL0     C21295   7.374   8.490   5.846  0.4491  0.4259  0.2794
  899MOL0     C21296   7.443   8.367   5.864  0.4498 -0.6045  0.1637
  899MOL0     C21297   7.410   8.256   5.756  0.6245 -0.0524 -0.4682
  899MOL0     H21298   7.806   8.089   5.782  0.0244  0.9162  0.9094
  899MOL0     H21299   7.952   7.891   5.777 -1.5699  2.7258 -1.1218
  899MOL0     H21300   8.005   7.642   6.164  1.4024  3.2524 -0.4346
  899MOL0     H21301   7.889   7.571   6.041  0.2824  0.3192 -1.0488
  899MOL0     H21302   8.096   7.429   6.089 -1.9152 -0.3413  0.3415
  899MOL0     H21303   8.192   7.573   6.030 -0.5813  2.8525 -2.0260
  899MOL0     H21304   8.098   7.551   5.809  3.1514 -0.7730 -0.1610
  899MOL0     H21305   8.000   7.409   5.867  1.1501 -1.3267 -1.9863
  899MOL0     H21306   8.302   7.407   5.846 -0.4805  0.7434 -0.9566
  899MOL0     H21307   8.193   7.281   5.909  1.4581 -0.4782  0.3895
  899MOL0     H21308   8.202   7.406   5.632  3.6531  0.7898  1.4248
  899MOL0     H21309   8.279   7.265   5.669  2.4980  3.2141 -0.5442
  899MOL0     H21310   7.978   7.258   5.704 -2.0243 -1.0573 -3.6996
  899MOL0     H21311   8.057   7.231   5.558  0.0776  2.2047  0.9132
  899MOL0     H21312   8.116   7.073   5.823  0.7909 -2.2157 -0.4939
  899MOL0     H21313   8.193   7.047   5.661  0.5067 -1.2340 -0.9111
  899MOL0     H21314   7.903   7.019   5.758 -0.0372 -1.9206  0.7273
  899MOL0     H21315   7.924   7.037   5.590 -3.5213 -1.6029  2.0491
  899MOL0     H21316   8.028   6.809   5.880  3.2226 -1.3068  0.3612
  899MOL0     H21317   8.158   6.588   5.902  1.3142  3.2621 -0.8318
  899MOL0     H21318   8.047   6.484   5.831 -1.9947  4.0785  1.7515
  899MOL0     H21319   8.215   6.423   5.650 -1.5986  0.2655  1.2304
  899MOL0     H21320   8.342   6.524   5.727  1.1864 -1.8191 -1.2045
  899MOL0     H21321   8.395   6.310   5.803 -1.4743 -2.0321 -1.3983
  899MOL0     H21322   8.235   6.254   5.817  2.7176 -2.6528  1.3813
  899MOL0     H21323   8.320   6.260   6.011  4.9807  0.0703  0.4293
  899MOL0     H21324   8.218   6.405   6.029  0.5999  1.4511  0.0252
  899MOL0     H21325   8.529   6.199   5.927  1.8736 -2.8673  1.2142
  899MOL0     H21326   8.778   6.137   5.948  1.1395 -0.2469  2.6961
  899MOL0     H21327   9.241   6.442   5.934  1.7360 -0.2543 -0.2446
  899MOL0     H21328   9.468   6.418   5.934  0.4337  2.9689  1.6692
  899MOL0     H21329   9.685   6.318   5.918  2.1443  1.5115  0.7294
  899MOL0     H21330   9.784   6.216   6.015  0.0177  1.9430 -0.2056
  899MOL0     H21331   9.667   6.013   5.933  2.5000  0.8939 -0.9102
  899MOL0     H21332   9.522   6.115   5.899 -0.5326 -0.9341 -1.8840
  899MOL0     H21333   9.785   6.168   5.741 -0.1172  0.8621 -2.8030
  899MOL0     H21334   9.670   6.044   5.685 -2.3672 -0.5052  1.1790
  899MOL0     H21335   9.600   6.337   5.728  0.9137  0.0520 -0.9373
  899MOL0     H21336   9.484   6.217   5.674 -0.7641 -1.6020  1.6187
  899MOL0     H21337   9.755   6.317   5.529  1.0597 -0.6597 -1.9787
  899MOL0     H21338   9.582   6.331   5.476 -2.3023 -1.7447  2.9226
  899MOL0     H21339   9.726   6.189   5.355  0.4738  1.2218  1.1950
  899MOL0     H21340   9.749   6.094   5.501 -1.1334 -2.1989  0.0591
  899MOL0     H21341   9.469   6.149   5.409  1.1850  0.7284  2.0794
  899MOL0     H21342   9.525   6.023   5.521 -1.1818  2.1226  0.6788
  899MOL0     H21343   9.437   5.929   5.311  1.1568 -2.2139 -0.1309
  899MOL0     H21344   9.576   5.993   5.219 -0.5735  0.1742 -0.3366
  899MOL0     H21345   9.427   6.137   6.272 -0.8342 -3.0621 -1.4152
  899MOL0     H21346   9.189   6.215   6.284 -2.6698  1.3075 -2.1323
  899MOL0     H21347   8.835   6.541   6.113 -0.5237  1.3737 -0.1116
  899MOL0     H21348   8.604   6.586   6.085  0.7032  2.4514 -3.4597
  899MOL0     H21349   7.799   7.763   6.142 -3.4905  1.3305  0.7830
  899MOL0     H21350   7.631   7.945   6.137 -1.4399  1.0476 -1.3303
  899MOL0     H21351   7.617   8.474   6.142  0.7383 -1.6182 -1.2739
  899MOL0     H21352   7.486   8.666   6.112 -2.0671 -0.5696  1.2412
  899MOL0     H21353   7.421   8.875   5.924 -1.5719  1.7648 -0.2428
  899MOL0     H21354   7.354   8.805   6.076 -2.4326  0.4771  0.6997
  899MOL0     H21355   7.144   8.873   6.051  0.7660  0.9062  0.6749
  899MOL0     H21356   7.150   8.905   5.873  1.4554  2.3166 -1.0846
  899MOL0     H21357   7.331   9.081   5.933 -3.1806  2.0580 -2.9334
  899MOL0     H21358   7.254   9.065   6.103  1.5247 -3.0883  0.2620
  899MOL0     H21359   7.112   9.125   5.832  1.0256  1.6133  0.1161
  899MOL0     H21360   7.030   9.099   5.988  2.7325 -1.4360  2.1417
  899MOL0     H21361   7.142   9.503   5.994 -0.5318  0.4404 -1.9284
  899MOL0     H21362   7.291   8.503   5.777 -0.7410  0.7721  1.7081
  899MOL0     H21363   7.495   8.192   5.729 -2.3522 -2.8951 -4.3053
  899MOL0     H21364   7.331   8.190   5.792 -1.0106  1.1605 -1.6649
  899MOL0     H21365   7.377   8.312   5.668 -2.7256  0.8449  1.1969
  900MOL0     O21366   3.170  10.778   1.744 -1.1496 -0.0951  0.5390
  900MOL0     C21367   3.129  10.793   1.855 -0.0983  0.4970  0.4434
  900MOL0     O21368   3.194  10.847   1.962 -0.4110  0.1139 -0.4704
  900MOL0     C21369   3.330  10.870   1.976 -0.0377 -0.2042 -0.2570
  900MOL0     C21370   3.430  10.837   1.878  0.3107  0.2022 -0.5416
  900MOL0     C21371   3.566  10.866   1.899 -0.1055  0.9415  0.2034
  900MOL0     C21372   3.603  10.938   2.017 -0.3284  0.3715 -0.4001
  900MOL0     O21373   3.733  10.981   2.049 -1.0016  0.6106  0.5479
  900MOL0     C21374   3.832  10.975   1.947  0.0434 -0.0330 -0.5134
  900MOL0     C21375   3.957  10.966   2.018 -0.3778 -0.2860  0.0784
  900MOL0     C21376   4.080  10.969   1.919  0.5983  1.1533  1.3559
  900MOL0     C21377   4.123  10.826   1.875 -0.6758 -0.1970  0.1435
  900MOL0     C21378   4.277  10.829   1.848  0.5218  0.0707  0.2676
  900MOL0     C21379   4.324  10.697   1.769 -0.3878  0.1076  0.8560
  900MOL0     C21380   4.298  10.696   1.622 -0.4752  0.0774  0.6261
  900MOL0     C21381   4.362  10.580   1.544  0.3520  0.3836 -0.2063
  900MOL0     N21382   4.339  10.569   1.399 -0.1427 -0.8208  0.3160
  900MOL0     C21383   4.392  10.476   1.305  0.1541 -0.1638 -0.2928
  900MOL0     C21384   4.318  10.498   1.187  0.1729 -0.6503 -0.3661
  900MOL0     C21385   4.311  10.429   1.057 -0.0041 -0.3795 -0.2219
  900MOL0     C21386   4.446  10.418   0.984 -0.1726  0.5913 -0.4168
  900MOL0     C21387   4.494  10.556   0.938  0.7417 -0.4251  0.5676
  900MOL0     C21388   4.591  10.612   1.039 -0.6555 -0.5357 -0.0331
  900MOL0     O21389   4.551  10.742   1.072  0.0685  0.7611  0.9963
  900MOL0     C21390   4.565  10.850   0.989 -0.2989  1.2604  0.4581
  900MOL0     C21391   4.616  10.841   0.854 -0.0804 -0.1561  0.5253
  900MOL0     C21392   4.598  10.954   0.768 -0.5450 -0.2066  0.0793
  900MOL0     C21393   4.532  11.075   0.798  0.2186 -0.3388 -0.4390
  900MOL0     C21394   4.510  11.175   0.691 -0.2037  0.5400 -0.8836
  900MOL0     O21395   4.545  11.143   0.557 -0.0146 -0.0290 -0.3326
  900MOL0     C21396   4.586  11.246   0.471 -0.1859  0.2251  0.1783
  900MOL0     C21397   4.675  11.343   0.510 -0.2692  0.0283 -0.6444
  900MOL0     C21398   4.732  11.425   0.413 -0.3751 -0.2556 -0.3666
  900MOL0     C21399   4.694  11.422   0.277 -0.0730 -0.1350 -0.5628
  900MOL0     O21400   4.747  11.513   0.192 -0.1333  0.6695  0.2189
  900MOL0     C21401   4.667  11.628   0.161 -0.4024 -0.7558  0.4838
  900MOL0     C21402   4.750  11.715   0.052  0.4219  0.2246 -1.2697
  900MOL0     C21403   4.655  11.826  -0.009 -0.1216 -0.3229  1.2222
  900MOL0     C21404   4.735  11.918  -0.114  1.5085 -0.1060  0.3086
  900MOL0     C21405   4.770  11.856  -0.241 -0.2626 -0.5108  1.1581
  900MOL0     C21406   4.873  11.942  -0.309  0.1821 -0.1097  0.1109
  900MOL0     C21407   4.919  11.902  -0.450  0.3818 -0.0211  0.2375
  900MOL0     C21408   4.963  12.025  -0.534  0.4952 -0.5885  0.3804
  900MOL0    Cl21409   5.117  12.075  -0.454 -0.1986  0.4490 -0.2645
  900MOL0     C21410   4.593  11.328   0.243 -0.0567  0.1932  0.4220
  900MOL0     C21411   4.548  11.233   0.335  0.1981 -0.3302 -0.5970
  900MOL0     O21412   4.470  11.286   0.733  0.2875  0.2136  0.8283
  900MOL0     C21413   4.496  11.083   0.932  0.0100 -0.0966  0.5040
  900MOL0     C21414   4.506  10.978   1.030 -0.4879 -0.0880  0.1795
  900MOL0     N21415   4.217  10.591   1.225 -0.3755 -0.6536 -0.4813
  900MOL0     N21416   4.240  10.644   1.338  0.0086  0.7415 -0.2955
  900MOL0     C21417   3.508  10.970   2.107  0.8861  1.0011 -0.4908
  900MOL0     C21418   3.375  10.942   2.088  1.1817  0.2387 -0.0047
  900MOL0     C21419   2.986  10.775   1.861 -0.0949  1.0705  0.2897
  900MOL0     C21420   2.918  10.812   1.977 -0.7215 -0.0239 -0.3090
  900MOL0     C21421   2.784  10.781   1.999 -0.8980 -1.0027  0.4552
  900MOL0     C21422   2.707  10.720   1.900 -0.3992 -0.0569 -0.0785
  900MOL0     O21423   2.568  10.710   1.927 -0.3206 -0.5022  0.3619
  900MOL0     C21424   2.485  10.671   1.816 -0.7038  0.2631  0.3353
  900MOL0     C21425   2.344  10.673   1.867 -0.7086 -0.3518  0.2597
  900MOL0     C21426   2.318  10.573   1.973 -0.1841  0.6697 -1.0758
  900MOL0     C21427   2.167  10.546   1.994 -0.4969  0.5318 -0.1806
  900MOL0     C21428   2.143  10.436   2.079  0.6962  0.2835 -0.3591
  900MOL0     C21429   2.120  10.347   2.157  0.0190 -0.2199 -0.0262
  900MOL0     C21430   2.773  10.698   1.781 -0.4114 -0.3128 -0.3322
  900MOL0     C21431   2.903  10.716   1.763 -0.9988 -0.5413  0.0033
  900MOL0     C21432   2.954  10.662   1.634 -0.2566  0.2454 -0.6508
  900MOL0     H21433   3.405  10.789   1.784 -0.9724  1.7331 -1.0207
  900MOL0     H21434   3.637  10.831   1.825  0.3605 -2.6882  2.0800
  900MOL0     H21435   3.821  10.887   1.884 -2.1268  1.2801 -2.1416
  900MOL0     H21436   3.846  11.062   1.881  3.3788  1.6354  2.1095
  900MOL0     H21437   3.965  10.870   2.069  1.4278 -0.1512  0.0844
  900MOL0     H21438   3.962  11.048   2.091 -0.2229 -1.0129  0.8931
  900MOL0     H21439   4.151  11.020   1.986  1.2676  0.7687  0.9566
  900MOL0     H21440   4.068  11.015   1.821  0.3881 -2.4505 -0.4737
  900MOL0     H21441   4.104  10.752   1.954  2.1163  0.2160  1.3368
  900MOL0     H21442   4.058  10.797   1.792 -1.2180  1.2929  0.0264
  900MOL0     H21443   4.290  10.925   1.797 -0.6443  0.3976  0.5508
  900MOL0     H21444   4.336  10.833   1.940 -1.5402 -3.7499  1.9869
  900MOL0     H21445   4.430  10.676   1.785 -0.6235 -3.9365 -1.4318
  900MOL0     H21446   4.270  10.615   1.817  3.2685 -2.8257  0.4133
  900MOL0     H21447   4.329  10.789   1.573 -1.2614 -0.7271 -1.5141
  900MOL0     H21448   4.192  10.679   1.604 -0.8410  0.3536  2.3025
  900MOL0     H21449   4.468  10.606   1.540  0.3248  0.4744 -0.3237
  900MOL0     H21450   4.348  10.478   1.582 -0.3464 -0.0437 -1.5525
  900MOL0     H21451   4.464  10.395   1.313  0.6601 -0.0026 -2.4462
  900MOL0     H21452   4.269  10.331   1.084 -1.0080 -0.9286 -3.3914
  900MOL0     H21453   4.247  10.481   0.985  0.7297 -0.5118 -0.9844
  900MOL0     H21454   4.512  10.365   1.053 -2.0459  0.0224  1.0366
  900MOL0     H21455   4.432  10.342   0.906  1.9138 -1.3048  0.9335
  900MOL0     H21456   4.405  10.618   0.923  0.9899 -0.3160 -0.5521
  900MOL0     H21457   4.554  10.534   0.849 -0.0934  1.1595 -0.4266
  900MOL0     H21458   4.693  10.605   1.000  0.3366  0.0679  2.3203
  900MOL0     H21459   4.595  10.555   1.132 -3.4282 -0.1648  0.4257
  900MOL0     H21460   4.677  10.753   0.838 -1.0266 -0.7419  0.0195
  900MOL0     H21461   4.650  10.924   0.678  1.1936 -1.1965  1.3396
  900MOL0     H21462   4.722  11.354   0.607  0.5019  2.6559 -1.2179
  900MOL0     H21463   4.803  11.487   0.468 -0.1576 -1.7814  1.1423
  900MOL0     H21464   4.570  11.613   0.111 -0.0831  2.6903 -1.4994
  900MOL0     H21465   4.643  11.689   0.248  1.8488  0.0366  0.6098
  900MOL0     H21466   4.842  11.755   0.096 -0.4124  1.2120 -0.3732
  900MOL0     H21467   4.776  11.647  -0.030 -1.4498  0.0050 -1.7146
  900MOL0     H21468   4.565  11.783  -0.053 -0.1719 -1.4975  2.4001
  900MOL0     H21469   4.621  11.904   0.058 -0.4805  4.5364 -3.8550
  900MOL0     H21470   4.825  11.950  -0.061  2.6554 -1.4699 -0.7439
  900MOL0     H21471   4.677  12.008  -0.137  0.4610 -0.6437  0.7547
  900MOL0     H21472   4.682  11.831  -0.301  1.7559 -0.9621 -1.8101
  900MOL0     H21473   4.820  11.761  -0.218 -0.8705 -0.9572  0.6562
  900MOL0     H21474   4.817  12.035  -0.324  0.1371 -0.1334  0.1367
  900MOL0     H21475   4.966  11.946  -0.251  2.5914 -4.9058 -2.7705
  900MOL0     H21476   4.834  11.859  -0.504  0.8896 -0.4064 -0.2602
  900MOL0     H21477   5.001  11.830  -0.453 -1.6672 -2.4414 -0.9767
  900MOL0     H21478   4.988  12.009  -0.639 -1.0316  1.6267 -0.4062
  900MOL0     H21479   4.889  12.106  -0.527  1.5544  0.3334  1.3997
  900MOL0     H21480   4.547  11.304   0.147  1.3359  0.6335 -0.3886
  900MOL0     H21481   4.488  11.153   0.294  2.1815 -1.6381 -1.0896
  900MOL0     H21482   4.458  11.179   0.965  2.8112  2.1049 -2.0315
  900MOL0     H21483   4.481  10.981   1.136 -0.5504  0.9153  0.1510
  900MOL0     H21484   3.533  11.027   2.197  2.1787  1.3708 -1.0578
  900MOL0     H21485   3.294  10.965   2.157  0.3999  0.7146 -1.0453
  900MOL0     H21486   2.959  10.873   2.057 -2.5315  0.2537  0.4633
  900MOL0     H21487   2.743  10.805   2.096 -2.6201 -3.4477  0.4194
  900MOL0     H21488   2.505  10.569   1.782 -0.4629  0.7550 -1.0743
  900MOL0     H21489   2.491  10.737   1.729 -1.5453 -1.9002 -1.4778
  900MOL0     H21490   2.284  10.648   1.779 -2.0176 -2.8119  1.7588
  900MOL0     H21491   2.320  10.776   1.895 -0.6395  0.3190 -1.9486
  900MOL0     H21492   2.356  10.609   2.069 -1.1514  0.0621 -0.4502
  900MOL0     H21493   2.378  10.485   1.947 -0.9881  0.2236 -1.4262
  900MOL0     H21494   2.127  10.631   2.051  2.9370  0.3929  2.7808
  900MOL0     H21495   2.121  10.537   1.895  0.5845 -0.3971 -0.6208
  900MOL0     H21496   2.092  10.279   2.235  2.6651  0.1230  1.3181
  900MOL0     H21497   2.718  10.647   1.702  1.9497 -1.4996 -1.3198
  900MOL0     H21498   3.018  10.731   1.578  0.3867  2.7373  2.8332
  900MOL0     H21499   3.020  10.576   1.656 -2.4503 -1.3164  0.2203
  900MOL0     H21500   2.877  10.626   1.566 -1.1539 -0.6878  0.7867
  901MOL0     O21501   8.522   6.240   8.107  0.1695 -0.3127  0.0947
  901MOL0     C21502   8.476   6.335   8.168 -1.0912 -0.4824  0.6673
  901MOL0     O21503   8.451   6.350   8.300  0.2078 -0.3311 -0.2605
  901MOL0     C21504   8.446   6.236   8.363 -0.3344 -0.4070 -0.5207
  901MOL0     C21505   8.323   6.167   8.384 -0.0281 -0.4696  0.4894
  901MOL0     C21506   8.313   6.049   8.463 -0.1730 -0.7475 -0.1517
  901MOL0     C21507   8.429   5.997   8.521 -0.6982  0.7227 -0.9184
  901MOL0     O21508   8.440   5.886   8.592  0.6108  0.5118 -0.0532
  901MOL0     C21509   8.308   5.832   8.619 -0.8125  0.0314  0.2088
  901MOL0     C21510   8.333   5.707   8.709  0.1322 -0.2368  1.0105
  901MOL0     C21511   8.443   5.615   8.642 -0.5169  0.1354 -0.3913
  901MOL0     C21512   8.415   5.466   8.678  0.0437 -0.6086  0.1501
  901MOL0     C21513   8.517   5.367   8.618  0.1645  0.0848  0.2043
  901MOL0     C21514   8.533   5.362   8.466 -0.8065 -0.0687  0.1822
  901MOL0     C21515   8.636   5.248   8.433  0.3555 -0.1260  1.3076
  901MOL0     C21516   8.775   5.302   8.422 -0.8308 -0.8137  0.4915
  901MOL0     N21517   8.881   5.202   8.396 -0.0722 -0.1150 -0.1052
  901MOL0     C21518   8.962   5.195   8.280  0.1452  0.9954  1.0612
  901MOL0     C21519   9.024   5.075   8.297 -1.8845  0.4936 -0.1393
  901MOL0     C21520   9.142   5.025   8.221  0.2870 -0.4070  0.1302
  901MOL0     C21521   9.137   4.864   8.201 -0.3889 -0.1600 -0.5525
  901MOL0     C21522   9.278   4.816   8.158 -0.1101  0.0812 -0.3714
  901MOL0     C21523   9.345   4.732   8.260 -0.2648 -0.8484 -0.7089
  901MOL0     O21524   9.260   4.617   8.295 -0.0671 -0.1655  0.6212
  901MOL0     C21525   9.219   4.512   8.208 -0.0702 -0.2729 -0.3776
  901MOL0     C21526   9.108   4.432   8.245 -0.3652  0.2871  0.5428
  901MOL0     C21527   9.056   4.336   8.153 -0.0362  0.2590  0.4116
  901MOL0     C21528   9.121   4.324   8.027  0.2762 -0.7028 -0.1299
  901MOL0     C21529   9.057   4.217   7.931  0.0590 -1.0069 -0.1574
  901MOL0     O21530   8.953   4.146   7.981  0.4754 -0.1746 -0.0768
  901MOL0     C21531   8.902   4.029   7.932 -0.0345 -0.0687  0.1129
  901MOL0     C21532   8.977   3.942   7.853  0.6997  0.2504 -0.2866
  901MOL0     C21533   8.919   3.818   7.815 -0.2462  0.2185  0.3595
  901MOL0     C21534   8.793   3.786   7.849 -0.0948 -0.2016  0.0113
  901MOL0     O21535   8.736   3.670   7.804 -0.0564 -0.0554  0.5953
  901MOL0     C21536   8.725   3.553   7.892  0.2114 -0.1315 -0.0192
  901MOL0     C21537   8.845   3.464   7.916 -0.2902 -0.5792  1.0306
  901MOL0     C21538   8.901   3.419   7.777 -0.6568 -0.2815  0.0565
  901MOL0     C21539   9.043   3.368   7.784  0.2849  0.5789 -0.3171
  901MOL0     C21540   9.075   3.278   7.652  0.3539 -0.5079 -0.8767
  901MOL0     C21541   9.189   3.168   7.669  0.0461 -0.0402 -0.2678
  901MOL0     C21542   9.231   3.132   7.808  0.4718  0.6650  0.0039
  901MOL0     C21543   9.316   3.010   7.824  0.1784  0.1250 -0.9945
  901MOL0    Cl21544   9.469   3.030   7.731 -0.1407  0.0955  0.4232
  901MOL0     C21545   8.725   3.877   7.927 -0.0383 -0.1608 -0.0312
  901MOL0     C21546   8.783   3.993   7.980 -0.2745 -0.4682  0.5235
  901MOL0     O21547   9.106   4.214   7.819  0.1729  0.0029 -0.2867
  901MOL0     C21548   9.227   4.405   7.992  0.6173  0.0280 -0.4200
  901MOL0     C21549   9.280   4.496   8.079 -0.1000 -0.2894 -1.0840
  901MOL0     N21550   8.984   5.028   8.421  0.2786 -0.1415  0.0222
  901MOL0     N21551   8.893   5.095   8.477 -0.1778 -0.8787 -0.4343
  901MOL0     C21552   8.554   6.052   8.498 -0.3822 -1.0948 -0.6052
  901MOL0     C21553   8.564   6.169   8.411 -0.4360 -0.0110 -0.6555
  901MOL0     C21554   8.442   6.454   8.088  0.6159 -0.1421  0.2338
  901MOL0     C21555   8.510   6.575   8.098 -0.1240 -0.0900  0.4685
  901MOL0     C21556   8.508   6.677   8.007  0.4373  0.6215  1.1750
  901MOL0     C21557   8.412   6.675   7.902  0.3128  0.2550 -0.7370
  901MOL0     O21558   8.413   6.781   7.808 -0.1187  0.5344 -0.5817
  901MOL0     C21559   8.507   6.741   7.696 -0.0369  0.8182 -0.0889
  901MOL0     C21560   8.488   6.827   7.568 -0.4246 -0.1796 -0.1649
  901MOL0     C21561   8.349   6.836   7.509  0.0327 -0.5704  0.4404
  901MOL0     C21562   8.292   6.692   7.497 -0.0803 -0.5045  0.1277
  901MOL0     C21563   8.143   6.705   7.470 -0.8170  0.0734  0.5646
  901MOL0     C21564   8.022   6.695   7.463  0.1311  0.2023 -0.4390
  901MOL0     C21565   8.330   6.562   7.888  0.1011  0.5754 -0.2075
  901MOL0     C21566   8.351   6.452   7.976  0.3071  0.2569  0.2769
  901MOL0     C21567   8.260   6.335   7.951 -0.7778  1.0883  0.4653
  901MOL0     H21568   8.230   6.198   8.337  1.3192  2.8947 -0.2634
  901MOL0     H21569   8.214   6.011   8.483 -1.2753  0.6355 -2.5012
  901MOL0     H21570   8.239   5.904   8.663  0.4495  1.2342  0.3051
  901MOL0     H21571   8.282   5.800   8.517  0.7006  4.8170 -1.9699
  901MOL0     H21572   8.238   5.653   8.704 -0.0300 -0.1313  2.5448
  901MOL0     H21573   8.350   5.736   8.813  0.6927  0.8137  0.6417
  901MOL0     H21574   8.543   5.649   8.670 -1.4756  2.6896  0.1660
  901MOL0     H21575   8.432   5.633   8.535 -0.7221 -0.5620 -0.4923
  901MOL0     H21576   8.430   5.460   8.786 -0.4530  0.4341  0.2896
  901MOL0     H21577   8.314   5.432   8.653  0.1719 -1.0683  0.2593
  901MOL0     H21578   8.613   5.393   8.665 -1.1003  2.3291  1.7084
  901MOL0     H21579   8.489   5.268   8.655 -0.9493  1.0807  2.1692
  901MOL0     H21580   8.435   5.349   8.418 -1.2677 -1.5752  1.4479
  901MOL0     H21581   8.569   5.463   8.445 -0.8917  0.4443  2.3221
  901MOL0     H21582   8.608   5.214   8.333  2.6798 -0.5191  0.7293
  901MOL0     H21583   8.621   5.179   8.516 -0.5133  2.0332  3.0374
  901MOL0     H21584   8.773   5.382   8.348 -1.2297 -0.8490  0.4595
  901MOL0     H21585   8.805   5.350   8.516  0.2156 -2.1459  0.8796
  901MOL0     H21586   8.964   5.273   8.204 -2.2279  0.4885  0.3697
  901MOL0     H21587   9.155   5.076   8.125 -0.4087 -0.4839 -0.0100
  901MOL0     H21588   9.226   5.066   8.278 -0.2135  0.8600 -0.0202
  901MOL0     H21589   9.115   4.826   8.302  0.3514  0.5964 -0.0910
  901MOL0     H21590   9.062   4.828   8.131 -0.9161 -0.3358  0.0863
  901MOL0     H21591   9.339   4.902   8.129  1.0370 -0.7151 -0.3579
  901MOL0     H21592   9.265   4.750   8.072 -0.9185 -1.6097  0.9805
  901MOL0     H21593   9.368   4.802   8.341 -4.2919 -1.0675  0.8569
  901MOL0     H21594   9.436   4.688   8.218  1.0911  1.0643  0.0884
  901MOL0     H21595   9.066   4.451   8.343 -1.3145 -2.3753  0.7417
  901MOL0     H21596   8.975   4.267   8.177  0.8708  0.1044  3.5786
  901MOL0     H21597   9.075   3.967   7.815  0.8385  0.4071  0.1737
  901MOL0     H21598   8.986   3.749   7.765  0.4486  1.0492  0.1209
  901MOL0     H21599   8.686   3.590   7.987 -0.1036  1.7665 -0.8488
  901MOL0     H21600   8.642   3.495   7.850 -2.6227  3.1134  0.7034
  901MOL0     H21601   8.926   3.513   7.971  0.3391 -0.5536  0.0972
  901MOL0     H21602   8.821   3.371   7.967  1.9017 -1.2693  0.8970
  901MOL0     H21603   8.833   3.348   7.728 -1.0413 -0.6710  1.1420
  901MOL0     H21604   8.891   3.513   7.722 -1.4431 -1.4142 -1.8497
  901MOL0     H21605   9.039   3.298   7.869 -3.5902 -0.3218 -1.0647
  901MOL0     H21606   9.123   3.441   7.804  0.0688  0.2889  1.9603
  901MOL0     H21607   9.095   3.349   7.571  2.0889  1.5687  1.2189
  901MOL0     H21608   8.989   3.217   7.625 -0.4930  0.8633 -1.3869
  901MOL0     H21609   9.163   3.074   7.619  4.1634 -1.2975 -0.4444
  901MOL0     H21610   9.272   3.217   7.618 -1.5985  1.9102 -1.2008
  901MOL0     H21611   9.136   3.114   7.859 -0.5579  2.1668 -1.2901
  901MOL0     H21612   9.260   3.226   7.858  0.4449  1.3639 -1.2514
  901MOL0     H21613   9.348   2.991   7.927  0.6206 -0.1450 -1.1755
  901MOL0     H21614   9.246   2.934   7.788  0.5060  0.0102 -1.3955
  901MOL0     H21615   8.626   3.839   7.953 -0.1603  0.1381 -0.0561
  901MOL0     H21616   8.724   4.057   8.046 -0.4798 -0.9142  0.7798
  901MOL0     H21617   9.254   4.410   7.887  2.9834  1.3352  0.1919
  901MOL0     H21618   9.370   4.545   8.044  0.5027 -2.5737 -2.9827
  901MOL0     H21619   8.646   6.020   8.545 -0.0282  1.6004  0.7017
  901MOL0     H21620   8.662   6.212   8.392 -0.0625 -1.4683 -2.3272
  901MOL0     H21621   8.588   6.586   8.173 -0.9956 -2.6767  1.8590
  901MOL0     H21622   8.568   6.767   8.012 -0.6703  1.3904  1.0508
  901MOL0     H21623   8.495   6.635   7.671  2.0291  0.2839  0.9482
  901MOL0     H21624   8.606   6.743   7.743 -0.0416 -1.9702  0.2142
  901MOL0     H21625   8.551   6.784   7.489  2.4134  4.8212 -1.0498
  901MOL0     H21626   8.519   6.932   7.579 -2.9393  0.4242  2.1167
  901MOL0     H21627   8.350   6.887   7.412  0.5715  0.7733  1.1264
  901MOL0     H21628   8.282   6.894   7.573  1.7687 -2.1324  3.9213
  901MOL0     H21629   8.346   6.648   7.413  1.8302  0.8278  0.6111
  901MOL0     H21630   8.295   6.631   7.588  1.1943 -1.5001 -0.5534
  901MOL0     H21631   7.915   6.703   7.457 -0.0793  2.9847  3.4155
  901MOL0     H21632   8.243   6.558   7.824  0.7674 -2.7654 -1.0853
  901MOL0     H21633   8.324   6.252   7.921  0.6203  2.1169  0.5215
  901MOL0     H21634   8.223   6.301   8.049 -1.7360  2.7157  0.7103
  901MOL0     H21635   8.174   6.358   7.888  1.0102  0.9244 -2.1624
  902MOL0     O21636   5.552   3.518   1.528 -0.8408 -0.0201  0.7533
  902MOL0     C21637   5.670   3.519   1.567 -0.0380 -0.0798  0.8454
  902MOL0     O21638   5.758   3.625   1.572 -0.1244  0.9093 -0.0269
  902MOL0     C21639   5.714   3.742   1.520 -0.8044  0.4781  0.7246
  902MOL0     C21640   5.741   3.865   1.582 -0.5000  0.1495  0.4597
  902MOL0     C21641   5.716   3.986   1.521  0.4921  0.3810 -0.6919
  902MOL0     C21642   5.660   3.985   1.389 -0.6277 -1.2848  0.1839
  902MOL0     O21643   5.646   4.104   1.321 -0.5329  0.0012 -1.5092
  902MOL0     C21644   5.699   4.235   1.363  0.0106  0.1201 -0.4373
  902MOL0     C21645   5.855   4.224   1.350 -0.0220 -0.2024 -0.3280
  902MOL0     C21646   5.930   4.343   1.389  0.4551 -0.1667 -0.8275
  902MOL0     C21647   5.909   4.381   1.530 -0.9835  0.2778 -0.8537
  902MOL0     C21648   6.014   4.488   1.573  0.2969 -0.4179 -0.3199
  902MOL0     C21649   5.973   4.521   1.716  0.3788  0.1861  0.9242
  902MOL0     C21650   6.038   4.658   1.762 -0.8524 -0.4442  0.1151
  902MOL0     C21651   5.992   4.691   1.897  0.7061 -0.2446 -0.4430
  902MOL0     N21652   6.017   4.826   1.941  0.3705 -0.6210 -0.3694
  902MOL0     C21653   6.126   4.905   1.906  0.1639 -0.5727 -0.1597
  902MOL0     C21654   6.096   5.031   1.962  0.1725 -0.2289 -0.4711
  902MOL0     C21655   6.178   5.149   1.953 -0.1446 -0.8350  0.0644
  902MOL0     C21656   6.098   5.251   1.876  0.3000  0.0003  0.3364
  902MOL0     C21657   6.194   5.358   1.812 -0.2965  0.0596  0.2414
  902MOL0     C21658   6.165   5.503   1.871 -1.1550  0.3699 -0.1813
  902MOL0     O21659   6.058   5.565   1.790  0.3873  0.1397 -1.1865
  902MOL0     C21660   5.993   5.675   1.849  0.8573  0.2879 -0.0858
  902MOL0     C21661   6.024   5.736   1.978 -0.3545 -0.8195  0.2033
  902MOL0     C21662   5.964   5.846   2.032 -0.6106  0.6695 -0.0800
  902MOL0     C21663   5.863   5.906   1.955  1.1347 -0.7201  0.5860
  902MOL0     C21664   5.798   6.025   1.998  0.7178  0.2615 -0.5547
  902MOL0     O21665   5.661   6.031   1.967 -0.6299 -0.3835 -0.2940
  902MOL0     C21666   5.584   6.146   1.982 -0.1022 -0.8243  0.6771
  902MOL0     C21667   5.448   6.129   2.008  0.5481  0.4791  0.1087
  902MOL0     C21668   5.360   6.241   2.010  0.1664 -0.4541  0.3550
  902MOL0     C21669   5.408   6.372   2.002 -0.4779  1.1090 -0.5046
  902MOL0     O21670   5.334   6.480   2.018  0.2596  0.4088 -0.4588
  902MOL0     C21671   5.286   6.507   2.156 -1.0538  0.4370  0.7973
  902MOL0     C21672   5.191   6.621   2.167  0.8526  0.3716  0.6579
  902MOL0     C21673   5.142   6.660   2.311  0.0433 -0.4043 -0.0562
  902MOL0     C21674   4.984   6.664   2.328 -0.1246 -0.8525  0.3549
  902MOL0     C21675   4.932   6.717   2.452 -0.0576  0.2084  0.5616
  902MOL0     C21676   4.998   6.638   2.572  1.5475 -0.3240  0.0043
  902MOL0     C21677   4.917   6.665   2.698  0.2378 -0.1460 -1.0504
  902MOL0     C21678   4.961   6.562   2.806  0.1815 -1.0882 -0.0762
  902MOL0    Cl21679   4.839   6.585   2.933 -0.0410 -0.1981  0.3056
  902MOL0     C21680   5.541   6.392   1.989 -0.7669 -1.1658  0.7961
  902MOL0     C21681   5.631   6.286   1.974 -0.3372  0.8856 -0.3253
  902MOL0     O21682   5.868   6.102   2.055  0.3318  0.1098  0.0291
  902MOL0     C21683   5.828   5.844   1.824  0.3959  0.0190 -0.5898
  902MOL0     C21684   5.905   5.740   1.776  0.7272 -0.1513  0.8840
  902MOL0     N21685   5.968   5.027   2.019  0.2614 -0.9766 -0.1539
  902MOL0     N21686   5.920   4.903   2.008  0.1187 -0.3393 -0.0469
  902MOL0     C21687   5.639   3.869   1.322 -0.2954  0.2690  0.1712
  902MOL0     C21688   5.682   3.753   1.385  0.2551  0.3468  0.0774
  902MOL0     C21689   5.713   3.384   1.620  0.3758 -0.5769  0.2069
  902MOL0     C21690   5.619   3.278   1.626 -0.1395  0.3753  0.2965
  902MOL0     C21691   5.648   3.148   1.682 -0.0768 -0.4985  0.1251
  902MOL0     C21692   5.774   3.117   1.726 -0.4440  0.3819 -0.5359
  902MOL0     O21693   5.792   3.004   1.794  0.1036  0.4408 -0.9473
  902MOL0     C21694   5.924   2.947   1.828  0.2189  1.0607 -0.3406
  902MOL0     C21695   5.898   2.818   1.915  0.4280 -0.2378  0.3771
  902MOL0     C21696   6.019   2.743   1.965 -0.2384  0.4789 -0.7426
  902MOL0     C21697   6.106   2.692   1.846  0.1657 -1.0396 -0.1190
  902MOL0     C21698   6.052   2.589   1.747 -0.5165  1.3283 -0.2102
  902MOL0     C21699   6.019   2.506   1.664 -1.0348  0.7352 -0.3066
  902MOL0     C21700   5.869   3.221   1.718 -0.4570 -0.3214 -1.1344
  902MOL0     C21701   5.841   3.351   1.668 -0.3613 -0.3505  1.3457
  902MOL0     C21702   5.959   3.445   1.656  0.8557 -0.0064  0.1303
  902MOL0     H21703   5.774   3.864   1.685 -0.5428 -0.8740  0.4792
  902MOL0     H21704   5.755   4.072   1.575 -0.1053 -1.3811  2.8158
  902MOL0     H21705   5.654   4.305   1.292  0.0631  0.2885 -0.3068
  902MOL0     H21706   5.667   4.268   1.462 -1.3901  1.0592 -1.1619
  902MOL0     H21707   5.877   4.212   1.244  0.6036 -0.7685 -0.1432
  902MOL0     H21708   5.896   4.134   1.398 -1.8949 -0.8162  0.2128
  902MOL0     H21709   5.889   4.422   1.325 -2.2272  0.6875  1.7040
  902MOL0     H21710   6.038   4.338   1.374  0.6001 -1.3799  0.3833
  902MOL0     H21711   5.806   4.416   1.540 -0.9804 -0.1956  1.1139
  902MOL0     H21712   5.923   4.288   1.585 -0.9893  1.9655  2.1999
  902MOL0     H21713   6.117   4.450   1.581  0.2922 -0.3195  0.1820
  902MOL0     H21714   5.998   4.565   1.496  1.0988 -2.3503 -2.5549
  902MOL0     H21715   5.864   4.523   1.729  0.4535  0.7159  1.5161
  902MOL0     H21716   6.018   4.441   1.774  0.2549 -0.8090 -0.3091
  902MOL0     H21717   6.010   4.743   1.699  0.4103  0.2473  0.4630
  902MOL0     H21718   6.146   4.648   1.758 -0.7356  0.2632  1.0881
  902MOL0     H21719   5.888   4.659   1.907  1.0778 -1.5376 -0.5747
  902MOL0     H21720   6.053   4.629   1.963  1.6658 -1.8366 -2.6943
  902MOL0     H21721   6.223   4.885   1.863 -1.2739 -3.1319 -2.5722
  902MOL0     H21722   6.213   5.195   2.046  1.3000  2.1413 -1.8096
  902MOL0     H21723   6.271   5.128   1.900  0.7773  2.6513  0.0886
  902MOL0     H21724   6.040   5.203   1.797  1.0473 -0.4577  0.0569
  902MOL0     H21725   6.025   5.301   1.940 -1.0373 -0.9518 -0.4133
  902MOL0     H21726   6.177   5.350   1.704  1.7743  2.7721 -0.3834
  902MOL0     H21727   6.298   5.327   1.820  0.2097  1.4566 -0.6121
  902MOL0     H21728   6.246   5.575   1.860 -2.0872  1.5568  0.3995
  902MOL0     H21729   6.138   5.484   1.976 -2.8992 -1.6326 -0.9116
  902MOL0     H21730   6.113   5.698   2.026  0.1878 -0.4719 -0.4999
  902MOL0     H21731   5.999   5.882   2.128 -0.9049 -1.4852  0.9036
  902MOL0     H21732   5.406   6.030   1.997  1.1611 -0.2803  3.4709
  902MOL0     H21733   5.257   6.230   2.044  0.0547  1.6566  0.8215
  902MOL0     H21734   5.252   6.416   2.206  3.5594 -3.4002 -2.2242
  902MOL0     H21735   5.368   6.555   2.211  0.3659 -0.2075 -0.6538
  902MOL0     H21736   5.237   6.710   2.124  1.1489 -1.1296 -2.3867
  902MOL0     H21737   5.108   6.587   2.104 -0.4496 -1.2226  3.0516
  902MOL0     H21738   5.194   6.596   2.383  0.5330  0.9819  0.8573
  902MOL0     H21739   5.186   6.759   2.327 -0.2751 -0.0338 -1.3728
  902MOL0     H21740   4.952   6.560   2.318  1.2053 -1.1634 -1.0300
  902MOL0     H21741   4.936   6.718   2.245 -1.9294 -0.7689  1.3920
  902MOL0     H21742   4.823   6.712   2.454 -0.2062 -0.7394 -3.2170
  902MOL0     H21743   4.948   6.822   2.478 -4.6590  0.8783  1.4038
  902MOL0     H21744   4.976   6.534   2.546  0.3597 -0.6941  2.2953
  902MOL0     H21745   5.102   6.664   2.596  0.6704  1.8775  1.8032
  902MOL0     H21746   4.810   6.642   2.689 -0.2803 -0.5780  3.6440
  902MOL0     H21747   4.924   6.767   2.736 -0.3214  0.0277 -1.3909
  902MOL0     H21748   4.959   6.460   2.766  0.8586 -0.6923 -1.1622
  902MOL0     H21749   5.065   6.580   2.836  0.8066  0.0638 -2.7068
  902MOL0     H21750   5.592   6.487   1.998 -0.2696 -1.2870 -0.5148
  902MOL0     H21751   5.734   6.308   1.946 -0.0466 -1.7594 -1.5860
  902MOL0     H21752   5.751   5.885   1.760  1.8534  1.2672 -1.6289
  902MOL0     H21753   5.877   5.694   1.681  0.7507 -0.1299  0.8665
  902MOL0     H21754   5.611   3.865   1.217  2.5009 -1.1773 -0.5945
  902MOL0     H21755   5.679   3.662   1.325 -0.4326  0.1858  0.3446
  902MOL0     H21756   5.522   3.293   1.579  0.8131 -1.3860 -2.4526
  902MOL0     H21757   5.579   3.065   1.688  1.9418 -2.1351  2.5984
  902MOL0     H21758   5.992   3.014   1.882  1.3225  0.1583 -0.5783
  902MOL0     H21759   5.968   2.925   1.731 -0.0316  4.0146 -1.2181
  902MOL0     H21760   5.830   2.763   1.850  1.0702  0.1363 -0.6331
  902MOL0     H21761   5.844   2.844   2.007  1.8846  2.4480  0.5789
  902MOL0     H21762   5.980   2.661   2.026 -1.5066  0.0298 -2.1097
  902MOL0     H21763   6.087   2.810   2.019  1.6998 -0.9368 -1.3042
  902MOL0     H21764   6.133   2.780   1.788  1.0880  0.5742  2.5750
  902MOL0     H21765   6.201   2.653   1.885  0.6824 -1.9019 -2.0898
  902MOL0     H21766   5.973   2.442   1.592 -2.7204 -0.0345  1.3973
  902MOL0     H21767   5.967   3.220   1.764 -0.9079  2.2863  0.0484
  902MOL0     H21768   5.933   3.539   1.705 -0.3017  0.8135 -1.9052
  902MOL0     H21769   6.062   3.417   1.679  1.4243  2.6177  1.1176
  902MOL0     H21770   5.960   3.456   1.547  0.8299 -3.8208 -0.3896
  903MOL0     O21771  10.403   0.864   5.639 -0.0765 -0.4891 -0.8611
  903MOL0     C21772  10.497   0.914   5.702  0.0929 -0.2177 -0.4052
  903MOL0     O21773  10.573   1.019   5.671 -1.0103 -0.7380  0.0343
  903MOL0     C21774  10.540   1.100   5.578  0.8329 -0.2355  0.2576
  903MOL0     C21775  10.574   1.060   5.447  0.3167 -0.0960  0.3432
  903MOL0     C21776  10.581   1.161   5.349 -0.3923 -0.1659  0.8128
  903MOL0     C21777  10.531   1.286   5.371  0.2586 -0.0763 -0.1799
  903MOL0     O21778  10.518   1.363   5.255 -0.5053  0.3464 -0.2065
  903MOL0     C21779  10.466   1.481   5.263  0.3176  0.5685 -0.5980
  903MOL0     C21780  10.464   1.546   5.129  0.4879  0.1812  0.2852
  903MOL0     C21781  10.409   1.688   5.151  0.6393  0.5883 -0.2292
  903MOL0     C21782  10.394   1.780   5.030  0.0529  0.1815 -0.0209
  903MOL0     C21783  10.303   1.907   5.054 -0.9317  0.2326 -0.4051
  903MOL0     C21784  10.149   1.890   5.052  0.3699 -0.0706  0.1472
  903MOL0     C21785  10.074   2.020   5.016 -0.1036 -0.4593  0.6159
  903MOL0     C21786   9.939   1.988   4.977 -0.7638  0.2022  0.7085
  903MOL0     N21787   9.886   2.106   4.904 -0.7360  0.0900  0.1950
  903MOL0     C21788   9.866   2.229   4.951  0.7361 -0.7924 -0.0453
  903MOL0     C21789   9.803   2.305   4.849  0.3281 -0.3881 -0.4093
  903MOL0     C21790   9.760   2.454   4.864  0.7162  0.1885 -0.0008
  903MOL0     C21791   9.633   2.457   4.951 -0.1243 -0.9275  0.0139
  903MOL0     C21792   9.523   2.367   4.887 -0.2727  0.2113 -0.5652
  903MOL0     C21793   9.381   2.369   4.963  0.1407 -0.3475 -0.8361
  903MOL0     O21794   9.406   2.365   5.108 -0.3279  0.1216  0.0383
  903MOL0     C21795   9.454   2.250   5.174 -0.1044  0.4450  0.3658
  903MOL0     C21796   9.459   2.130   5.101 -0.2961  1.5193 -0.7075
  903MOL0     C21797   9.501   2.019   5.169  0.0398 -0.1078 -0.6649
  903MOL0     C21798   9.542   2.020   5.310  1.4345  0.9426 -0.7406
  903MOL0     C21799   9.563   1.893   5.375 -0.0420  0.3643  0.6210
  903MOL0     O21800   9.623   1.889   5.496  1.0391 -0.0559  0.5526
  903MOL0     C21801   9.636   1.786   5.584  0.3476 -0.0333  1.0534
  903MOL0     C21802   9.573   1.655   5.571 -0.7516  0.2403 -0.6849
  903MOL0     C21803   9.597   1.549   5.671  0.7154 -0.2821  0.5431
  903MOL0     C21804   9.669   1.586   5.785  0.5120 -0.1161 -0.1085
  903MOL0     O21805   9.672   1.480   5.871  0.0251  0.2065  0.2768
  903MOL0     C21806   9.660   1.514   6.014  0.3203  0.1040  0.5855
  903MOL0     C21807   9.531   1.585   6.052 -0.2035 -1.3501 -1.0824
  903MOL0     C21808   9.500   1.565   6.197  0.6981 -1.0815 -0.0043
  903MOL0     C21809   9.396   1.447   6.212  0.5229  0.9125  0.4296
  903MOL0     C21810   9.374   1.410   6.362 -0.7089  0.3655  0.4594
  903MOL0     C21811   9.307   1.273   6.380 -0.5825  1.4842  0.1797
  903MOL0     C21812   9.268   1.238   6.520 -0.7428 -0.1823 -0.4154
  903MOL0     C21813   9.167   1.126   6.530  0.1252  0.1519 -0.9112
  903MOL0    Cl21814   9.164   1.077   6.712  0.0061 -0.0430  0.4201
  903MOL0     C21815   9.729   1.715   5.796 -0.1246 -0.2294  0.0372
  903MOL0     C21816   9.712   1.814   5.698  0.0803  0.0492 -0.4631
  903MOL0     O21817   9.526   1.793   5.313  0.8254  0.1484  0.1299
  903MOL0     C21818   9.538   2.147   5.368 -0.3057 -0.2056 -0.1551
  903MOL0     C21819   9.502   2.261   5.303 -1.5153  0.4431 -0.4828
  903MOL0     N21820   9.803   2.233   4.738  0.2804 -1.0199  0.2488
  903MOL0     N21821   9.858   2.114   4.763  0.5434  0.2858  0.4646
  903MOL0     C21822  10.466   1.316   5.495  0.0686 -0.1140 -0.6084
  903MOL0     C21823  10.476   1.224   5.603  0.3386  0.0274  0.5103
  903MOL0     C21824  10.534   0.834   5.820  0.0742 -0.2273  0.3753
  903MOL0     C21825  10.588   0.704   5.794  0.0662 -1.0627  0.4124
  903MOL0     C21826  10.611   0.613   5.902  0.9067  0.0805 -0.2381
  903MOL0     C21827  10.596   0.646   6.036 -0.0170  0.6020  0.1455
  903MOL0     O21828  10.635   0.580   6.155  0.0536  0.0429  0.2775
  903MOL0     C21829  10.728   0.471   6.139 -0.7398 -0.8157 -0.1821
  903MOL0     C21830  10.778   0.447   6.282  0.4007 -0.2020  0.5044
  903MOL0     C21831  10.858   0.564   6.344  1.0349  0.3577  0.0240
  903MOL0     C21832  10.945   0.524   6.454  0.9440  0.2974 -0.3628
  903MOL0     C21833  11.016   0.634   6.521 -0.9789  0.0267 -0.0737
  903MOL0     C21834  11.063   0.739   6.566  0.5621  0.3282 -0.2475
  903MOL0     C21835  10.546   0.776   6.057 -0.7851 -0.7113 -0.9555
  903MOL0     C21836  10.517   0.868   5.951  1.2053 -0.6992  0.2140
  903MOL0     C21837  10.448   1.009   5.991 -0.3949 -0.0265  1.2735
  903MOL0     H21838  10.603   0.956   5.436 -1.5773 -0.9821  2.7239
  903MOL0     H21839  10.601   1.132   5.246 -1.2471  0.3908  0.4768
  903MOL0     H21840  10.362   1.460   5.290  0.9169 -3.2392 -0.6389
  903MOL0     H21841  10.518   1.541   5.337  0.7646  1.3760 -1.5404
  903MOL0     H21842  10.398   1.494   5.060  2.5627 -1.0841 -0.8491
  903MOL0     H21843  10.563   1.551   5.084 -0.1253  4.1775 -1.0169
  903MOL0     H21844  10.475   1.751   5.211  0.0598  0.8550  0.1323
  903MOL0     H21845  10.316   1.676   5.207 -0.2250 -2.3346 -2.0454
  903MOL0     H21846  10.492   1.814   4.998 -0.1430 -0.3587 -1.2546
  903MOL0     H21847  10.347   1.725   4.948  1.8628 -1.8969  0.2459
  903MOL0     H21848  10.335   1.964   5.141  1.0884 -1.1102 -0.1965
  903MOL0     H21849  10.337   1.958   4.963  0.3254 -0.5658 -0.4213
  903MOL0     H21850  10.116   1.812   4.982 -1.5435  1.1799 -0.4277
  903MOL0     H21851  10.106   1.858   5.147 -0.3219  0.3190 -0.0259
  903MOL0     H21852  10.121   2.066   4.928 -0.5388 -1.2284 -0.0388
  903MOL0     H21853  10.071   2.076   5.109 -0.6134 -0.5254  0.6397
  903MOL0     H21854   9.949   1.910   4.900 -1.4578 -2.7493  3.3934
  903MOL0     H21855   9.870   1.957   5.056  1.5783 -1.4313  2.2829
  903MOL0     H21856   9.881   2.265   5.053  0.0293  0.6603 -0.4220
  903MOL0     H21857   9.826   2.521   4.920 -1.3315  3.6834 -1.4745
  903MOL0     H21858   9.755   2.500   4.765 -1.6541  0.2741  0.1135
  903MOL0     H21859   9.664   2.420   5.049  3.4360 -3.3737 -1.7841
  903MOL0     H21860   9.588   2.557   4.950 -0.6196 -1.1431 -1.3959
  903MOL0     H21861   9.559   2.263   4.885  2.5254  1.0884 -3.1882
  903MOL0     H21862   9.510   2.403   4.784  1.0076  1.8321 -0.1913
  903MOL0     H21863   9.303   2.299   4.932 -0.4570  0.9348 -2.3805
  903MOL0     H21864   9.340   2.468   4.938  3.0413  0.8435 -1.2455
  903MOL0     H21865   9.412   2.117   5.004  3.9671 -2.0845 -2.6121
  903MOL0     H21866   9.509   1.922   5.122 -2.9070 -1.5629  1.5086
  903MOL0     H21867   9.501   1.635   5.492 -1.5196 -0.9491  0.2710
  903MOL0     H21868   9.548   1.457   5.641  1.3309  0.0856 -1.8014
  903MOL0     H21869   9.693   1.428   6.074  0.5500  1.8519  3.1019
  903MOL0     H21870   9.742   1.582   6.037 -0.4765  1.7795 -1.2550
  903MOL0     H21871   9.546   1.690   6.028  2.1247 -0.2094  3.8806
  903MOL0     H21872   9.450   1.542   5.994 -1.6682 -2.9840  1.9036
  903MOL0     H21873   9.588   1.559   6.262  1.2574  0.4864 -0.5551
  903MOL0     H21874   9.454   1.661   6.220 -0.1857 -0.7337 -2.8682
  903MOL0     H21875   9.428   1.353   6.167 -4.6059 -1.5323  1.1834
  903MOL0     H21876   9.297   1.478   6.178  0.3299  0.7940  0.8816
  903MOL0     H21877   9.320   1.488   6.417  0.1075 -0.8721  3.2299
  903MOL0     H21878   9.468   1.403   6.417 -0.7229 -2.1269  0.2497
  903MOL0     H21879   9.212   1.285   6.328 -0.2371 -0.7494 -1.0896
  903MOL0     H21880   9.370   1.195   6.335 -1.1586  1.5571 -0.7838
  903MOL0     H21881   9.217   1.325   6.560 -1.2255 -0.7416  0.2102
  903MOL0     H21882   9.362   1.222   6.574 -1.8220  0.4542  1.7521
  903MOL0     H21883   9.064   1.156   6.506  0.0447  0.1711 -0.5444
  903MOL0     H21884   9.190   1.037   6.470  1.4655  0.4588 -0.8837
  903MOL0     H21885   9.786   1.737   5.886  0.0367 -2.2339  0.4768
  903MOL0     H21886   9.761   1.911   5.699  0.4617 -0.1462 -0.4396
  903MOL0     H21887   9.550   2.166   5.474 -3.0885  0.1631  0.1599
  903MOL0     H21888   9.503   2.359   5.350 -0.0584  2.6189 -4.5277
  903MOL0     H21889  10.412   1.407   5.520  0.8233  0.0529  0.5010
  903MOL0     H21890  10.439   1.262   5.697 -1.8293 -0.7039  0.0024
  903MOL0     H21891  10.623   0.673   5.696  0.9837  0.4414  0.2257
  903MOL0     H21892  10.649   0.517   5.869  0.5914 -0.4703  0.9623
  903MOL0     H21893  10.804   0.483   6.061 -1.2634 -0.9351 -0.7281
  903MOL0     H21894  10.674   0.386   6.096 -0.3972 -1.4345  0.5948
  903MOL0     H21895  10.844   0.360   6.296  0.6421  0.0453  0.9255
  903MOL0     H21896  10.686   0.432   6.339  0.2136  1.3170  0.6431
  903MOL0     H21897  10.784   0.642   6.365 -0.8282 -0.9911 -1.2349
  903MOL0     H21898  10.930   0.593   6.267 -1.6193 -0.1547 -2.8608
  903MOL0     H21899  10.884   0.460   6.519  1.0741 -0.2165 -0.7415
  903MOL0     H21900  11.006   0.446   6.408 -1.8374 -2.2262 -0.0992
  903MOL0     H21901  11.101   0.830   6.606  0.5159 -0.0338  0.6446
  903MOL0     H21902  10.526   0.822   6.153  1.5347 -1.4506 -0.0736
  903MOL0     H21903  10.340   1.005   5.970 -0.2725  1.1562  0.2969
  903MOL0     H21904  10.455   1.019   6.099  2.4711 -0.5662  1.2075
  903MOL0     H21905  10.500   1.095   5.948  0.0246  0.1180  2.0489
  904MOL0     O21906   6.687  10.481   1.615 -1.4078  0.6188 -0.7740
  904MOL0     C21907   6.770  10.484   1.715  1.2017 -0.0784 -0.1579
  904MOL0     O21908   6.832  10.376   1.770 -0.3608 -0.2978  0.0364
  904MOL0     C21909   6.802  10.255   1.729  0.5588  0.1470 -0.6352
  904MOL0     C21910   6.909  10.161   1.708  0.0504 -0.0606  0.5766
  904MOL0     C21911   6.883  10.023   1.684 -0.6075  0.2307 -0.3264
  904MOL0     C21912   6.749   9.979   1.683  0.1202 -0.2651 -0.2316
  904MOL0     O21913   6.719   9.843   1.667 -0.5391  0.0928 -0.3543
  904MOL0     C21914   6.712   9.791   1.532 -0.3773  0.4777 -0.7734
  904MOL0     C21915   6.793   9.679   1.499  0.9398  0.1888 -1.2933
  904MOL0     C21916   6.761   9.553   1.593 -0.8708 -0.8261  0.0066
  904MOL0     C21917   6.628   9.486   1.572 -0.3516 -0.3133 -0.3161
  904MOL0     C21918   6.639   9.337   1.612 -0.1318 -0.2591  0.1449
  904MOL0     C21919   6.491   9.286   1.631 -0.4645  0.2942  0.5885
  904MOL0     C21920   6.487   9.142   1.664  0.5718 -0.1609  0.7269
  904MOL0     C21921   6.351   9.085   1.694  0.5146  0.4921 -0.3765
  904MOL0     N21922   6.371   8.944   1.758 -0.5278  1.0762 -0.3450
  904MOL0     C21923   6.407   8.831   1.675  0.6624  0.3160 -0.2259
  904MOL0     C21924   6.408   8.725   1.769  0.4712 -0.4073  0.2977
  904MOL0     C21925   6.440   8.586   1.742  0.5135 -0.1262 -0.0036
  904MOL0     C21926   6.311   8.496   1.755 -1.0846 -0.8187  0.1468
  904MOL0     C21927   6.345   8.349   1.724  0.0532 -0.1787 -0.6343
  904MOL0     C21928   6.216   8.267   1.735 -0.0511 -0.2675 -0.9890
  904MOL0     O21929   6.138   8.291   1.620 -0.4294 -0.3134  0.3733
  904MOL0     C21930   6.010   8.242   1.624 -0.4543 -0.1683  0.1593
  904MOL0     C21931   5.929   8.281   1.516  0.6803 -0.2874 -0.0182
  904MOL0     C21932   5.790   8.240   1.498 -0.3617 -0.8903 -0.3296
  904MOL0     C21933   5.727   8.174   1.599 -0.0689 -0.3854  0.4226
  904MOL0     C21934   5.586   8.112   1.597 -0.2297 -0.6011 -0.2868
  904MOL0     O21935   5.534   8.062   1.711 -0.6856 -0.2769 -0.0991
  904MOL0     C21936   5.396   8.035   1.706 -0.3688  0.1750 -0.2667
  904MOL0     C21937   5.351   7.905   1.689 -0.3685  0.3275  1.1243
  904MOL0     C21938   5.214   7.878   1.676  0.2470 -0.6604 -0.0130
  904MOL0     C21939   5.117   7.981   1.691 -0.3694  0.1889 -0.0838
  904MOL0     O21940   4.979   7.977   1.712  0.0798  0.3037 -0.2063
  904MOL0     C21941   4.913   7.858   1.674 -0.7406  0.2987  0.0440
  904MOL0     C21942   4.755   7.866   1.700 -0.1852 -0.5540 -0.4773
  904MOL0     C21943   4.717   7.898   1.843  0.3348 -1.3996 -0.0365
  904MOL0     C21944   4.760   7.797   1.950  0.2838  0.1988  0.6946
  904MOL0     C21945   4.697   7.835   2.086 -0.4176  0.4669 -0.6895
  904MOL0     C21946   4.553   7.788   2.102  0.5533 -0.5251 -0.6238
  904MOL0     C21947   4.490   7.855   2.217  0.2943  0.4911  1.0100
  904MOL0     C21948   4.342   7.812   2.209 -0.3479  0.8785 -0.7400
  904MOL0    Cl21949   4.236   7.908   2.297 -0.0107 -0.1163 -0.3506
  904MOL0     C21950   5.160   8.113   1.704 -0.1391 -0.0078  0.0534
  904MOL0     C21951   5.300   8.138   1.707  1.2174 -0.1732 -0.2146
  904MOL0     O21952   5.526   8.114   1.491 -0.4681 -1.1838  0.0057
  904MOL0     C21953   5.809   8.135   1.707  0.2776 -1.1619 -0.6756
  904MOL0     C21954   5.946   8.172   1.723  0.6979 -0.0916  0.6638
  904MOL0     N21955   6.376   8.766   1.899 -0.1206 -0.3223  0.0553
  904MOL0     N21956   6.339   8.891   1.877 -0.0157 -0.4924  0.0095
  904MOL0     C21957   6.645  10.065   1.709 -0.0113  0.3281  0.2889
  904MOL0     C21958   6.667  10.199   1.730 -0.2718  0.0863 -0.3178
  904MOL0     C21959   6.813  10.612   1.777 -0.2997 -0.5678  0.3474
  904MOL0     C21960   6.947  10.636   1.814 -0.3114  0.4379 -0.7765
  904MOL0     C21961   6.989  10.760   1.854  0.4889  0.5291 -0.5815
  904MOL0     C21962   6.901  10.872   1.852 -0.4068  0.1796  0.1603
  904MOL0     O21963   6.957  10.997   1.854 -0.4917 -0.0108  0.5077
  904MOL0     C21964   6.921  11.067   1.971  0.6531 -0.7281  0.4007
  904MOL0     C21965   6.965  11.213   1.964  0.4051 -0.1958  0.5081
  904MOL0     C21966   6.951  11.289   2.100 -0.1251 -0.0591 -0.2026
  904MOL0     C21967   7.006  11.433   2.080 -0.3231 -0.0090  0.6665
  904MOL0     C21968   7.150  11.428   2.058  0.0994 -0.1449  0.2298
  904MOL0     C21969   7.275  11.420   2.053  0.8343  0.5115 -0.4890
  904MOL0     C21970   6.771  10.839   1.815  0.5071 -0.9101 -0.4512
  904MOL0     C21971   6.719  10.718   1.778 -1.3783  0.9348 -0.0482
  904MOL0     C21972   6.568  10.698   1.763  0.4273  0.7143  0.4479
  904MOL0     H21973   7.010  10.201   1.705  0.1036 -0.0610  1.8093
  904MOL0     H21974   6.964   9.960   1.650 -0.6161  0.8239 -1.4980
  904MOL0     H21975   6.608   9.756   1.528 -0.2359 -0.4702  1.8807
  904MOL0     H21976   6.731   9.872   1.461  2.4686  0.5671 -0.0219
  904MOL0     H21977   6.897   9.711   1.493  0.8366  0.3332 -2.7674
  904MOL0     H21978   6.769   9.645   1.398 -0.5742 -0.2680 -0.8057
  904MOL0     H21979   6.766   9.573   1.700 -2.1779  1.2579 -0.2757
  904MOL0     H21980   6.836   9.475   1.575 -2.3050 -2.0434 -0.9985
  904MOL0     H21981   6.563   9.530   1.648  1.6293 -0.5527  1.6118
  904MOL0     H21982   6.604   9.506   1.467  4.3136 -2.9518 -2.1981
  904MOL0     H21983   6.687   9.277   1.534  0.0775  1.3049 -0.9814
  904MOL0     H21984   6.697   9.328   1.704  1.5317  1.8019 -0.6065
  904MOL0     H21985   6.442   9.326   1.720  1.2477  1.1053  1.2090
  904MOL0     H21986   6.427   9.304   1.544 -3.6751  2.7461  3.1815
  904MOL0     H21987   6.543   9.135   1.757 -1.1131  0.4235  1.8333
  904MOL0     H21988   6.545   9.081   1.595 -0.8876 -1.1544  0.3434
  904MOL0     H21989   6.303   9.148   1.770  0.5534  1.3163 -1.0202
  904MOL0     H21990   6.289   9.075   1.605  1.5293  2.6534 -1.4040
  904MOL0     H21991   6.421   8.821   1.568 -0.2337  0.5718 -0.3718
  904MOL0     H21992   6.466   8.565   1.638 -1.2295 -0.0922 -0.4922
  904MOL0     H21993   6.523   8.569   1.810  0.7988  2.1056  0.2766
  904MOL0     H21994   6.269   8.507   1.856 -1.6343 -0.4139 -0.1204
  904MOL0     H21995   6.247   8.523   1.670 -3.5740  1.7046  2.5767
  904MOL0     H21996   6.422   8.314   1.794 -0.7891  1.5428  1.2699
  904MOL0     H21997   6.382   8.338   1.622  0.3183 -0.4881 -0.5095
  904MOL0     H21998   6.156   8.284   1.825  1.5083 -0.7439  0.1904
  904MOL0     H21999   6.256   8.166   1.739  0.3145 -0.0849  0.2333
  904MOL0     H22000   5.983   8.335   1.439 -2.1873  0.6095 -1.5360
  904MOL0     H22001   5.742   8.262   1.403  0.1114  0.2964 -0.3062
  904MOL0     H22002   5.417   7.820   1.671 -1.6531 -0.2558 -1.3673
  904MOL0     H22003   5.181   7.776   1.658  2.2661 -1.4873  0.6363
  904MOL0     H22004   4.919   7.841   1.566  3.0325  0.7482  0.0586
  904MOL0     H22005   4.945   7.772   1.735 -0.7808 -0.4293 -0.9310
  904MOL0     H22006   4.708   7.934   1.629 -0.5506  1.9322  1.9574
  904MOL0     H22007   4.716   7.767   1.676  2.9261 -1.6531 -1.4990
  904MOL0     H22008   4.762   7.995   1.865  0.5056 -0.3767 -4.0091
  904MOL0     H22009   4.608   7.910   1.852  0.2358 -0.1627 -2.2009
  904MOL0     H22010   4.870   7.794   1.957  0.3468 -1.7774 -0.5133
  904MOL0     H22011   4.728   7.698   1.916 -0.1694  1.5842 -3.4656
  904MOL0     H22012   4.705   7.943   2.097 -1.1969  0.5500 -0.9091
  904MOL0     H22013   4.764   7.782   2.155  2.4227  0.7046 -3.0893
  904MOL0     H22014   4.496   7.810   2.012 -1.3605  1.6193  0.9904
  904MOL0     H22015   4.555   7.682   2.127  1.9035 -0.5187 -0.6381
  904MOL0     H22016   4.494   7.964   2.203  1.7735  0.2514 -0.8298
  904MOL0     H22017   4.527   7.822   2.315 -0.2733 -0.7367  0.8247
  904MOL0     H22018   4.314   7.809   2.104 -0.3227 -5.2993 -0.9734
  904MOL0     H22019   4.338   7.711   2.251  1.9605  0.2901 -1.7991
  904MOL0     H22020   5.096   8.200   1.701 -2.0335 -1.2828 -4.0220
  904MOL0     H22021   5.325   8.244   1.705 -0.7487  0.3205 -0.7273
  904MOL0     H22022   5.778   8.078   1.794  0.8040 -0.1763  0.1885
  904MOL0     H22023   6.005   8.132   1.805 -0.5753 -1.7407  0.8132
  904MOL0     H22024   6.543  10.029   1.709 -1.5253  3.9993 -2.2377
  904MOL0     H22025   6.578  10.258   1.750 -0.2551  0.1303 -0.3699
  904MOL0     H22026   7.010  10.548   1.808 -0.4433  0.3719 -1.2027
  904MOL0     H22027   7.096  10.761   1.871  0.4100 -1.6161  0.3943
  904MOL0     H22028   6.976  11.017   2.052  1.9164 -2.5176 -1.4622
  904MOL0     H22029   6.820  11.044   2.008  0.6601  0.2537  1.0812
  904MOL0     H22030   6.906  11.277   1.898 -0.5684  1.2468  2.6920
  904MOL0     H22031   7.069  11.210   1.929  0.4665 -1.5751  0.7208
  904MOL0     H22032   7.012  11.233   2.171  1.4987  0.1148 -1.4019
  904MOL0     H22033   6.852  11.275   2.144  0.1212  0.8572  0.6926
  904MOL0     H22034   6.956  11.480   1.994 -0.2012 -0.3851  0.3884
  904MOL0     H22035   6.977  11.493   2.167  3.2464 -1.0540  2.7866
  904MOL0     H22036   7.380  11.395   2.050  1.1443  1.7440 -0.5498
  904MOL0     H22037   6.707  10.927   1.820  2.0791  0.2413  0.5821
  904MOL0     H22038   6.528  10.602   1.796  0.1397  0.1587 -1.3916
  904MOL0     H22039   6.516  10.781   1.811  0.8697 -0.1667  2.5760
  904MOL0     H22040   6.553  10.694   1.655 -0.1350  3.8742  0.3138
  905MOL0     O22041   8.031  10.269   4.331  0.1971 -1.0504  0.9744
  905MOL0     C22042   7.960  10.240   4.233 -0.9706 -0.2988  0.8941
  905MOL0     O22043   8.004  10.163   4.124 -0.0407  0.7227  0.6105
  905MOL0     C22044   8.123  10.102   4.146 -0.2531  0.0466  0.3881
  905MOL0     C22045   8.248  10.155   4.092 -0.5618 -0.8534  0.0132
  905MOL0     C22046   8.361  10.075   4.097 -0.1570  0.1325 -0.1670
  905MOL0     C22047   8.364   9.956   4.172 -0.2261 -0.5048 -0.0171
  905MOL0     O22048   8.476   9.880   4.178 -0.8696 -1.1719  0.2316
  905MOL0     C22049   8.526   9.853   4.309  0.2521  0.4337  1.2320
  905MOL0     C22050   8.649   9.761   4.296  0.3542  0.7688  0.9826
  905MOL0     C22051   8.690   9.722   4.439 -0.3761 -0.4380  0.2100
  905MOL0     C22052   8.820   9.633   4.446 -0.4886  0.1129 -0.6194
  905MOL0     C22053   8.792   9.490   4.422 -0.0264  0.0581 -1.4843
  905MOL0     C22054   8.902   9.392   4.460 -0.8396  0.1664 -0.2802
  905MOL0     C22055   9.027   9.403   4.362  0.1148 -0.7986 -0.8202
  905MOL0     C22056   9.006   9.347   4.220  0.6271 -0.1898  0.0800
  905MOL0     N22057   8.995   9.455   4.117  1.0419  0.2602  0.1276
  905MOL0     C22058   8.890   9.472   4.039  0.3581 -0.0002 -0.2526
  905MOL0     C22059   8.920   9.571   3.944  0.4480  0.5392 -0.7986
  905MOL0     C22060   8.844   9.619   3.822 -0.6166 -0.2552  0.0790
  905MOL0     C22061   8.702   9.580   3.833 -0.0688 -0.1001  0.3934
  905MOL0     C22062   8.611   9.676   3.923 -0.0415  0.3841  0.2601
  905MOL0     C22063   8.476   9.623   3.969 -0.5152 -0.1959 -0.9597
  905MOL0     O22064   8.494   9.500   4.040 -0.1848 -0.0674 -0.8894
  905MOL0     C22065   8.382   9.426   4.063  0.2716  1.0005  0.8802
  905MOL0     C22066   8.248   9.454   4.016  0.4383  0.6766 -0.0634
  905MOL0     C22067   8.140   9.384   4.048  0.0416 -0.9560 -1.0494
  905MOL0     C22068   8.154   9.271   4.129  0.5387 -0.8629 -0.4511
  905MOL0     C22069   8.038   9.193   4.170  0.3585 -0.2667 -0.0627
  905MOL0     O22070   8.054   9.061   4.188  0.0402  0.0553  0.4133
  905MOL0     C22071   7.956   8.992   4.255 -0.0854  0.9346  0.3728
  905MOL0     C22072   7.922   8.864   4.190 -1.2214  0.0352 -0.7896
  905MOL0     C22073   7.848   8.771   4.260 -0.1269 -0.0774  0.2941
  905MOL0     C22074   7.788   8.814   4.385  0.7174 -0.3454 -0.6461
  905MOL0     O22075   7.693   8.735   4.445 -0.0513 -0.2022 -0.1297
  905MOL0     C22076   7.634   8.611   4.390 -1.4750  0.1735  0.0679
  905MOL0     C22077   7.531   8.559   4.478  0.5068 -0.6271  0.2155
  905MOL0     C22078   7.594   8.475   4.580 -0.6470  0.6607 -0.0146
  905MOL0     C22079   7.505   8.456   4.703  0.0566 -0.2937 -0.1703
  905MOL0     C22080   7.598   8.410   4.823 -0.6775 -0.3276  0.0996
  905MOL0     C22081   7.525   8.379   4.950 -0.2150 -0.5921  0.5352
  905MOL0     C22082   7.612   8.322   5.059  0.9130 -0.5020 -0.5264
  905MOL0     C22083   7.532   8.323   5.198 -0.1792 -0.0514 -0.7111
  905MOL0    Cl22084   7.403   8.205   5.203  0.5469 -0.2989  0.2482
  905MOL0     C22085   7.823   8.934   4.442  0.7423  0.2450 -0.1763
  905MOL0     C22086   7.912   9.021   4.382 -0.2952  0.0291  1.2970
  905MOL0     O22087   7.932   9.259   4.198 -0.1676  0.4858  0.8239
  905MOL0     C22088   8.284   9.234   4.184  0.6607 -0.3696  0.2573
  905MOL0     C22089   8.398   9.311   4.141 -0.1547 -0.7519 -0.1820
  905MOL0     N22090   9.045   9.621   3.987 -0.6856  0.0607 -0.5463
  905MOL0     N22091   9.086   9.545   4.085  0.3371  0.2990 -0.0513
  905MOL0     C22092   8.243   9.903   4.228 -0.7764  0.0761  0.3333
  905MOL0     C22093   8.121   9.972   4.200  0.8226  0.0677 -0.3731
  905MOL0     C22094   7.820  10.278   4.231  0.7426  0.3187  0.5283
  905MOL0     C22095   7.749  10.262   4.108  0.1546 -0.8535  0.3158
  905MOL0     C22096   7.625  10.326   4.090 -0.4765 -0.4820  0.2173
  905MOL0     C22097   7.567  10.402   4.191 -0.4128  0.3669 -0.1765
  905MOL0     O22098   7.442  10.461   4.190 -0.7422  0.1457 -0.3842
  905MOL0     C22099   7.358  10.433   4.079 -0.3800 -0.8677 -0.4549
  905MOL0     C22100   7.217  10.463   4.123 -0.5652  0.3077 -0.2664
  905MOL0     C22101   7.118  10.391   4.026  0.3812  0.5107 -0.0422
  905MOL0     C22102   6.981  10.470   4.008 -0.4182 -0.1600 -1.1111
  905MOL0     C22103   7.003  10.590   3.925  0.2666  0.2865 -0.4287
  905MOL0     C22104   6.986  10.685   3.845  0.3477  0.2484  0.0197
  905MOL0     C22105   7.642  10.417   4.313 -1.3228 -1.1194 -0.4711
  905MOL0     C22106   7.764  10.353   4.333 -0.1042 -0.5415  1.0627
  905MOL0     C22107   7.830  10.382   4.458 -0.9050 -0.3731 -0.1716
  905MOL0     H22108   8.245  10.242   4.026 -2.7579  1.7848  3.2292
  905MOL0     H22109   8.455  10.090   4.047 -1.1154 -0.1184 -2.1428
  905MOL0     H22110   8.563   9.943   4.358  1.4419 -0.2066  1.5579
  905MOL0     H22111   8.451   9.807   4.374  0.5622 -1.1740  0.5180
  905MOL0     H22112   8.739   9.810   4.257  1.3794 -3.4237 -2.8616
  905MOL0     H22113   8.626   9.679   4.227 -0.0162  3.0239 -1.7909
  905MOL0     H22114   8.601   9.676   4.483  1.1347 -4.0146 -0.0753
  905MOL0     H22115   8.701   9.824   4.477 -0.0489  1.5592 -4.5471
  905MOL0     H22116   8.907   9.660   4.386 -1.0162  1.9371 -0.6099
  905MOL0     H22117   8.851   9.636   4.551 -2.5949 -0.2538  0.0439
  905MOL0     H22118   8.712   9.463   4.492  0.2471 -2.4085 -2.0132
  905MOL0     H22119   8.750   9.459   4.326 -0.3465 -0.2133 -1.2609
  905MOL0     H22120   8.933   9.411   4.563  1.5102 -0.2109 -0.8758
  905MOL0     H22121   8.870   9.287   4.459  0.2636 -0.1783 -1.6103
  905MOL0     H22122   9.104   9.342   4.410  0.8544  1.3121  0.8349
  905MOL0     H22123   9.067   9.505   4.357  5.3392 -2.4878  0.6595
  905MOL0     H22124   9.095   9.289   4.191  2.0544  2.0352 -0.2422
  905MOL0     H22125   8.923   9.275   4.219 -1.4763  2.0431  2.0438
  905MOL0     H22126   8.808   9.402   4.028 -0.4711  1.1529 -1.9160
  905MOL0     H22127   8.846   9.729   3.823  0.0771 -0.2611  0.4731
  905MOL0     H22128   8.890   9.572   3.735 -0.1583 -2.3225  1.3708
  905MOL0     H22129   8.658   9.589   3.733  1.6208 -0.3231 -0.3995
  905MOL0     H22130   8.690   9.478   3.869 -2.1265 -1.4454 -3.4909
  905MOL0     H22131   8.591   9.764   3.860 -0.4771  1.5945  2.0385
  905MOL0     H22132   8.664   9.724   4.006 -2.5608  1.7127  1.1893
  905MOL0     H22133   8.417   9.612   3.878  0.6821  0.5274 -1.8510
  905MOL0     H22134   8.431   9.702   4.031  1.5788  1.8065 -1.8509
  905MOL0     H22135   8.232   9.546   3.961 -0.3772  0.8271  0.4177
  905MOL0     H22136   8.040   9.397   4.007  0.4327 -0.9298 -2.0394
  905MOL0     H22137   7.970   8.843   4.095 -1.5522 -1.9664 -0.5474
  905MOL0     H22138   7.831   8.678   4.208  2.4714 -0.3586 -0.1904
  905MOL0     H22139   7.614   8.615   4.283  0.0853  0.7261 -0.2308
  905MOL0     H22140   7.717   8.541   4.395  0.9119  2.5888 -2.3769
  905MOL0     H22141   7.490   8.653   4.516 -0.8939 -1.3229  0.5072
  905MOL0     H22142   7.462   8.495   4.422 -1.7546  0.8022  1.2070
  905MOL0     H22143   7.619   8.386   4.523  0.4006  1.1467 -0.3348
  905MOL0     H22144   7.685   8.522   4.618  0.9790  0.3907 -3.2008
  905MOL0     H22145   7.426   8.383   4.681  0.5317 -0.6736 -0.6385
  905MOL0     H22146   7.476   8.558   4.732 -0.4556 -0.0294 -1.5335
  905MOL0     H22147   7.665   8.494   4.842  0.6796 -1.3770  0.1507
  905MOL0     H22148   7.658   8.326   4.786 -0.3427  0.4885 -1.2906
  905MOL0     H22149   7.473   8.468   4.986  1.1716 -0.2636  1.8419
  905MOL0     H22150   7.454   8.297   4.938  0.3684 -1.0435  0.0560
  905MOL0     H22151   7.697   8.384   5.088  2.3138 -2.9174  0.7522
  905MOL0     H22152   7.632   8.220   5.027 -1.3354 -0.9784 -0.6208
  905MOL0     H22153   7.598   8.311   5.284 -0.7650  3.3712  0.3504
  905MOL0     H22154   7.475   8.415   5.218 -2.3736 -0.8239 -2.8542
  905MOL0     H22155   7.788   8.959   4.542  2.9119 -1.7135  1.1677
  905MOL0     H22156   7.951   9.113   4.422 -0.6604  1.3615 -1.2200
  905MOL0     H22157   8.291   9.148   4.250  0.4165  0.1641  1.0008
  905MOL0     H22158   8.492   9.264   4.167  0.0245 -0.5273 -0.4176
  905MOL0     H22159   8.247   9.810   4.284 -3.9045 -0.8493 -0.7248
  905MOL0     H22160   8.021   9.935   4.223  1.6206 -1.8605  0.1826
  905MOL0     H22161   7.802  10.227   4.019  0.2815  4.6756 -2.2032
  905MOL0     H22162   7.564  10.309   4.001 -0.4710  1.6877 -0.2378
  905MOL0     H22163   7.367  10.328   4.051 -2.4006 -0.8554 -1.3100
  905MOL0     H22164   7.383  10.496   3.993  2.4656 -0.4414  0.5607
  905MOL0     H22165   7.207  10.571   4.134 -1.7145  0.2696 -0.7910
  905MOL0     H22166   7.189  10.425   4.221  1.0687  3.2195  1.4666
  905MOL0     H22167   7.106  10.293   4.072  0.9069  0.3154 -0.3242
  905MOL0     H22168   7.163  10.369   3.929 -1.3787 -0.2242 -0.7292
  905MOL0     H22169   6.904  10.404   3.966 -0.4681 -0.3257 -0.7675
  905MOL0     H22170   6.949  10.504   4.107  1.9902 -2.1633  0.4830
  905MOL0     H22171   6.960  10.757   3.769 -1.1276  0.2910  0.5243
  905MOL0     H22172   7.603  10.484   4.389 -0.2928 -1.3627  0.2971
  905MOL0     H22173   7.878  10.291   4.494  0.9293 -0.3299 -2.2667
  905MOL0     H22174   7.898  10.466   4.442  0.6780 -0.9323  2.9951
  905MOL0     H22175   7.758  10.410   4.536 -0.1055 -1.2692  0.9121
  906MOL0     O22176   8.281   6.043   4.196 -0.8500  0.5907 -0.0207
  906MOL0     C22177   8.174   6.042   4.143 -0.3870 -1.2793 -0.0756
  906MOL0     O22178   8.142   6.090   4.024  0.3830  0.4358 -0.1663
  906MOL0     C22179   8.241   6.131   3.942 -0.2161  0.7216 -0.8349
  906MOL0     C22180   8.312   6.035   3.860  0.6998 -0.6555  0.3997
  906MOL0     C22181   8.408   6.077   3.770  0.3413  0.0078 -0.3866
  906MOL0     C22182   8.454   6.212   3.779  0.5621 -0.5052 -1.3786
  906MOL0     O22183   8.567   6.266   3.722 -0.3320  0.9019 -0.1396
  906MOL0     C22184   8.643   6.170   3.633 -0.4425 -1.5463  0.6690
  906MOL0     C22185   8.588   6.180   3.484 -0.0983  0.1880  0.5161
  906MOL0     C22186   8.698   6.151   3.388  0.1921  0.3768 -1.5659
  906MOL0     C22187   8.726   5.998   3.370  0.0938 -0.3964 -0.1741
  906MOL0     C22188   8.790   5.977   3.242  0.2021 -0.4734  0.8433
  906MOL0     C22189   8.949   5.987   3.241  1.0781 -0.4263 -0.1734
  906MOL0     C22190   9.018   5.857   3.249  0.0938  0.0771 -0.6812
  906MOL0     C22191   9.160   5.897   3.290 -0.2790  0.2108 -0.4454
  906MOL0     N22192   9.248   5.788   3.267 -0.3272  0.2685 -1.1989
  906MOL0     C22193   9.342   5.775   3.161  0.4054 -0.3482  0.2931
  906MOL0     C22194   9.376   5.642   3.168  0.1053  0.4570 -0.0312
  906MOL0     C22195   9.468   5.579   3.071 -0.5643 -0.0632  0.0487
  906MOL0     C22196   9.411   5.453   3.007 -0.4976 -0.4833 -0.7909
  906MOL0     C22197   9.511   5.347   2.979 -0.3135  0.2210  1.0081
  906MOL0     C22198   9.452   5.231   2.895  0.1018  0.4992  0.5158
  906MOL0     O22199   9.351   5.158   2.967 -0.1667  0.5988  0.4545
  906MOL0     C22200   9.215   5.166   2.935  0.6277 -1.1057  0.0544
  906MOL0     C22201   9.155   5.202   2.809 -0.8411 -1.6413 -0.7228
  906MOL0     C22202   9.020   5.198   2.794  0.5789 -0.9574 -0.5586
  906MOL0     C22203   8.934   5.170   2.898  0.2792  0.8186 -0.6214
  906MOL0     C22204   8.789   5.168   2.872 -0.2580 -0.0122 -0.2534
  906MOL0     O22205   8.759   5.157   2.744  0.1090 -0.3568  0.1698
  906MOL0     C22206   8.649   5.087   2.694  0.6350  0.2836 -0.3052
  906MOL0     C22207   8.617   5.098   2.564  0.0099 -0.2295 -0.5616
  906MOL0     C22208   8.513   5.024   2.506  0.2336  0.1075  0.1036
  906MOL0     C22209   8.446   4.919   2.577 -1.7997 -0.6857 -0.1337
  906MOL0     O22210   8.362   4.831   2.522  0.5836 -0.4265 -0.4842
  906MOL0     C22211   8.396   4.736   2.426  0.5785  0.6847  1.2597
  906MOL0     C22212   8.375   4.777   2.277  1.1584  0.1456  0.7546
  906MOL0     C22213   8.217   4.793   2.248 -0.2276 -0.3894  0.0287
  906MOL0     C22214   8.176   4.719   2.122  1.2331  0.5953 -0.9892
  906MOL0     C22215   8.035   4.743   2.071 -0.0462 -0.5694  0.1203
  906MOL0     C22216   7.924   4.683   2.151  0.0116 -0.2445 -0.1845
  906MOL0     C22217   7.789   4.742   2.101 -0.8487 -0.6824  0.0948
  906MOL0     C22218   7.692   4.650   2.033 -0.6364  0.3615 -0.2500
  906MOL0    Cl22219   7.538   4.727   2.063  0.2095  0.0785  0.3433
  906MOL0     C22220   8.481   4.915   2.714 -0.1925 -0.4760 -1.4655
  906MOL0     C22221   8.574   5.003   2.774 -0.1740  0.4204  0.4450
  906MOL0     O22222   8.711   5.184   2.963  0.3435  0.5527 -0.4938
  906MOL0     C22223   8.988   5.144   3.026  1.0499 -1.1441  0.3772
  906MOL0     C22224   9.128   5.139   3.039  0.2237 -0.2338 -0.3306
  906MOL0     N22225   9.315   5.592   3.286  0.0566  0.2944 -0.5174
  906MOL0     N22226   9.238   5.677   3.338  0.2799 -0.4603  0.8915
  906MOL0     C22227   8.385   6.307   3.856 -0.3282  0.9404 -0.1517
  906MOL0     C22228   8.269   6.268   3.930  0.0465 -0.7514  0.8232
  906MOL0     C22229   8.077   5.970   4.233  0.2994 -0.2849  0.2962
  906MOL0     C22230   8.092   5.959   4.380  0.1589  0.4356  0.9116
  906MOL0     C22231   7.994   5.891   4.451 -0.1213  1.0759 -0.6900
  906MOL0     C22232   7.888   5.818   4.384 -0.9093 -0.1171  0.0856
  906MOL0     O22233   7.814   5.732   4.448 -0.8023 -0.2570 -0.3872
  906MOL0     C22234   7.738   5.792   4.563 -0.8946  0.0139  0.1251
  906MOL0     C22235   7.655   5.905   4.514  0.4678 -0.4714 -1.2307
  906MOL0     C22236   7.559   5.864   4.406  0.3387 -0.9838  0.7531
  906MOL0     C22237   7.452   5.767   4.431 -0.1666  0.1531  0.1654
  906MOL0     C22238   7.343   5.815   4.509  0.6436  0.5963 -0.4733
  906MOL0     C22239   7.244   5.854   4.571 -0.5212 -0.0645 -0.1207
  906MOL0     C22240   7.887   5.814   4.250  0.6875 -1.1754 -0.8375
  906MOL0     C22241   7.979   5.883   4.171  0.4579  0.0375 -0.5804
  906MOL0     C22242   7.969   5.863   4.020 -0.0065  0.2497 -0.0124
  906MOL0     H22243   8.298   5.928   3.862 -1.2262 -0.5490 -2.1021
  906MOL0     H22244   8.466   6.003   3.716  0.3170 -1.8143  1.9401
  906MOL0     H22245   8.748   6.201   3.644 -1.2795  2.3660 -0.6187
  906MOL0     H22246   8.637   6.064   3.658 -5.0501 -1.5125  0.5551
  906MOL0     H22247   8.557   6.283   3.464 -1.9722 -0.1480  1.5213
  906MOL0     H22248   8.499   6.119   3.466 -1.3766  2.0754  0.1934
  906MOL0     H22249   8.782   6.208   3.429 -0.7751  0.1507  0.9109
  906MOL0     H22250   8.678   6.191   3.288 -0.3125 -0.9298 -2.0131
  906MOL0     H22251   8.809   5.974   3.437  1.8918  4.6604 -0.1743
  906MOL0     H22252   8.634   5.940   3.371  0.5636 -1.1464 -0.0152
  906MOL0     H22253   8.756   5.880   3.204  0.6047 -0.6654  0.9681
  906MOL0     H22254   8.739   6.046   3.174 -0.0639 -0.6875  0.8273
  906MOL0     H22255   8.977   6.029   3.143 -2.2042  4.3803  0.5956
  906MOL0     H22256   8.983   6.051   3.322 -4.0833  1.8946  0.5438
  906MOL0     H22257   9.022   5.810   3.150 -4.3870 -0.9773 -0.5711
  906MOL0     H22258   8.969   5.788   3.317 -1.9077 -0.9254 -2.9845
  906MOL0     H22259   9.191   5.985   3.233  1.1613  0.3125  0.4530
  906MOL0     H22260   9.172   5.914   3.398 -1.4907  1.5853 -0.4913
  906MOL0     H22261   9.371   5.832   3.073  1.2785 -1.1172  0.0726
  906MOL0     H22262   9.499   5.648   2.991 -2.0788  2.0549  1.1809
  906MOL0     H22263   9.560   5.572   3.130 -0.3870  0.3432 -0.1695
  906MOL0     H22264   9.341   5.406   3.076 -2.0042  1.9694 -0.5556
  906MOL0     H22265   9.359   5.474   2.913  0.0936  0.5854 -0.8912
  906MOL0     H22266   9.568   5.315   3.067  0.3493 -0.3963  0.3704
  906MOL0     H22267   9.580   5.380   2.901 -3.0336 -0.2760 -1.7914
  906MOL0     H22268   9.533   5.162   2.871  0.5332  0.7412  1.2460
  906MOL0     H22269   9.425   5.275   2.798  0.1169 -0.9515 -0.1620
  906MOL0     H22270   9.224   5.233   2.731 -0.8212  1.6937  0.4376
  906MOL0     H22271   8.977   5.239   2.703  0.8067  2.0733  0.5618
  906MOL0     H22272   8.660   5.175   2.501 -0.7778 -1.7969 -3.1638
  906MOL0     H22273   8.482   5.020   2.402  1.8693 -0.3744 -0.3963
  906MOL0     H22274   8.500   4.703   2.437  0.5475 -0.3314 -0.8646
  906MOL0     H22275   8.326   4.652   2.427  0.4497  0.3963 -4.0510
  906MOL0     H22276   8.428   4.872   2.267 -0.2209  0.9655  0.8632
  906MOL0     H22277   8.402   4.706   2.198 -2.0427 -1.1186  0.6472
  906MOL0     H22278   8.161   4.750   2.331 -0.1407 -3.4268 -1.3617
  906MOL0     H22279   8.190   4.899   2.251 -0.5883 -0.4705 -0.3875
  906MOL0     H22280   8.189   4.613   2.145  2.1334  0.7993 -0.4719
  906MOL0     H22281   8.242   4.745   2.038 -0.2992  1.3674 -1.9968
  906MOL0     H22282   8.040   4.716   1.965  0.3024 -1.1976  0.2931
  906MOL0     H22283   8.024   4.851   2.080  0.1207 -0.7003  2.6194
  906MOL0     H22284   7.918   4.574   2.139  0.8244 -0.4123  0.7510
  906MOL0     H22285   7.944   4.705   2.256  0.6138  0.7089 -0.4817
  906MOL0     H22286   7.815   4.819   2.028 -0.0394 -1.1022 -0.0697
  906MOL0     H22287   7.738   4.795   2.181 -1.6966  3.5528 -2.9033
  906MOL0     H22288   7.715   4.649   1.926  1.0533  1.2568  0.0711
  906MOL0     H22289   7.709   4.552   2.080  0.5644  1.2240  1.2119
  906MOL0     H22290   8.425   4.841   2.770  1.9971 -2.9232 -2.3201
  906MOL0     H22291   8.599   4.976   2.876 -0.6661 -3.4023 -0.3115
  906MOL0     H22292   8.915   5.118   3.101  0.3901  3.6403  1.7006
  906MOL0     H22293   9.165   5.108   3.136 -0.4080  4.5727  1.7843
  906MOL0     H22294   8.420   6.409   3.868  1.9162  0.1543  0.6998
  906MOL0     H22295   8.220   6.344   3.990  1.5242  2.8761 -2.1480
  906MOL0     H22296   8.161   6.030   4.424 -0.3591  0.1831  2.1946
  906MOL0     H22297   8.006   5.901   4.558 -0.2709 -2.2093 -0.2653
  906MOL0     H22298   7.819   5.823   4.630 -0.2150  0.8472 -1.0509
  906MOL0     H22299   7.676   5.720   4.617 -0.0333  0.8244  2.3198
  906MOL0     H22300   7.719   5.991   4.492  1.2927 -0.7609 -0.0646
  906MOL0     H22301   7.592   5.951   4.590 -1.5634  0.2488 -3.2520
  906MOL0     H22302   7.614   5.854   4.312  1.5249  1.0163  1.1653
  906MOL0     H22303   7.508   5.954   4.371  1.0094  0.0329  2.2405
  906MOL0     H22304   7.429   5.726   4.332  2.4269 -3.3187  0.7954
  906MOL0     H22305   7.481   5.674   4.481 -2.7712 -0.7775  0.0943
  906MOL0     H22306   7.155   5.880   4.626  0.9753  2.5101  1.2949
  906MOL0     H22307   7.807   5.762   4.197  1.1462 -0.7447 -1.9881
  906MOL0     H22308   7.934   5.953   3.970  0.2314 -0.5967 -1.7665
  906MOL0     H22309   8.059   5.819   3.975 -1.5248 -4.4728  0.9839
  906MOL0     H22310   7.877   5.805   4.024 -0.8597  1.5693  3.0763
  907MOL0     O22311  11.423   6.320   6.151 -0.4256 -0.6178 -0.4068
  907MOL0     C22312  11.436   6.199   6.177  0.1331 -1.1998 -1.0198
  907MOL0     O22313  11.334   6.105   6.153 -0.1511 -0.0545 -0.2690
  907MOL0     C22314  11.250   6.148   6.052  0.5028  0.1989  0.0934
  907MOL0     C22315  11.133   6.210   6.079 -0.1510 -1.2602 -0.1837
  907MOL0     C22316  11.055   6.254   5.970 -0.3022 -0.3035 -0.5184
  907MOL0     C22317  11.096   6.241   5.836 -1.0406  0.1996 -0.3804
  907MOL0     O22318  11.036   6.276   5.717  0.1543 -0.0074  0.4874
  907MOL0     C22319  10.934   6.384   5.717 -0.1554  0.3102  0.1199
  907MOL0     C22320  10.910   6.445   5.584 -0.5608 -0.9762  0.0507
  907MOL0     C22321  11.040   6.480   5.522  0.1493  0.5210 -0.6498
  907MOL0     C22322  11.018   6.552   5.390 -0.3013 -0.2162  0.0649
  907MOL0     C22323  11.138   6.573   5.298 -0.8335 -0.5746  0.9707
  907MOL0     C22324  11.082   6.639   5.174 -0.0819  1.2509 -0.3925
  907MOL0     C22325  11.188   6.639   5.056 -0.9446 -0.1161 -0.9104
  907MOL0     C22326  11.205   6.501   4.984  0.4093  0.7286 -0.6017
  907MOL0     N22327  11.081   6.427   4.960 -0.0089  0.5144  0.3599
  907MOL0     C22328  10.994   6.434   4.850 -0.2984 -0.3282 -0.1599
  907MOL0     C22329  10.899   6.345   4.888  0.1368  0.4374  0.1301
  907MOL0     C22330  10.791   6.318   4.796  1.0143 -0.4696  0.1729
  907MOL0     C22331  10.830   6.205   4.700 -0.0346  0.4573 -0.3380
  907MOL0     C22332  10.845   6.244   4.558 -0.4593 -0.7825 -0.3154
  907MOL0     C22333  10.852   6.136   4.458 -0.0547  0.2427 -0.9060
  907MOL0     O22334  10.965   6.053   4.467  0.3430  0.8656 -0.4124
  907MOL0     C22335  11.081   6.084   4.404  0.1605 -0.3079  0.5073
  907MOL0     C22336  11.165   5.979   4.369 -0.0100  0.7404  0.5864
  907MOL0     C22337  11.287   5.997   4.306 -0.1075 -0.0152 -0.2086
  907MOL0     C22338  11.320   6.132   4.265 -0.4846  0.0757  1.3479
  907MOL0     C22339  11.449   6.156   4.189  0.1015  1.5529 -0.2480
  907MOL0     O22340  11.514   6.043   4.169 -0.5220  0.5153  0.7465
  907MOL0     C22341  11.656   6.064   4.148  1.1679  0.5854 -0.0780
  907MOL0     C22342  11.705   6.131   4.035  0.2679  0.7457 -0.1930
  907MOL0     C22343  11.839   6.159   4.029  0.1685  1.1713  0.6345
  907MOL0     C22344  11.926   6.129   4.129 -0.0048  0.7729 -0.1652
  907MOL0     O22345  12.057   6.163   4.131 -0.7766  0.4722 -0.2624
  907MOL0     C22346  12.114   6.212   4.008  0.6153  0.0831 -0.4776
  907MOL0     C22347  12.252   6.248   4.044 -0.2263 -0.2315 -0.1976
  907MOL0     C22348  12.270   6.316   4.180 -0.1582  0.8789 -0.1354
  907MOL0     C22349  12.420   6.362   4.191 -0.0631 -0.3133 -0.0957
  907MOL0     C22350  12.435   6.489   4.104 -0.4847  0.2522  0.3228
  907MOL0     C22351  12.576   6.547   4.107 -0.9737 -0.7355 -0.2454
  907MOL0     C22352  12.686   6.454   4.044  0.4838  0.1958 -0.7364
  907MOL0     C22353  12.818   6.523   4.086 -0.6762 -0.5190  0.2243
  907MOL0    Cl22354  12.965   6.446   3.994 -0.0558 -0.5247 -0.7815
  907MOL0     C22355  11.876   6.063   4.234  0.3547 -0.0004 -0.2628
  907MOL0     C22356  11.740   6.041   4.256 -0.2989  0.4831  0.0998
  907MOL0     O22357  11.490   6.272   4.155  0.6894 -0.8100 -0.3341
  907MOL0     C22358  11.233   6.236   4.294 -0.1119 -0.4732  0.3521
  907MOL0     C22359  11.125   6.212   4.379 -0.8044  0.0608  0.2041
  907MOL0     N22360  10.934   6.274   4.994  0.0578  0.5629  0.4238
  907MOL0     N22361  11.035   6.327   5.044 -0.1015  0.2426 -0.2197
  907MOL0     C22362  11.208   6.163   5.820  0.4674  0.1089  0.1890
  907MOL0     C22363  11.284   6.104   5.921  0.2055 -0.2065  0.4209
  907MOL0     C22364  11.553   6.154   6.255  0.2129 -0.2282  0.3787
  907MOL0     C22365  11.585   6.232   6.366 -0.7376  0.0904  0.4699
  907MOL0     C22366  11.688   6.188   6.447 -0.3245 -1.0610  0.1721
  907MOL0     C22367  11.753   6.063   6.428  0.0765 -0.4424 -0.9001
  907MOL0     O22368  11.838   6.009   6.520 -0.0489  0.4411 -0.1339
  907MOL0     C22369  11.871   6.075   6.649  1.2068 -0.1862 -0.2887
  907MOL0     C22370  11.976   6.183   6.618  0.5513 -0.1358  0.4068
  907MOL0     C22371  12.114   6.124   6.558  0.0646 -1.0672 -0.6629
  907MOL0     C22372  12.195   6.047   6.658  0.0831 -0.2345 -1.1766
  907MOL0     C22373  12.236   6.137   6.767 -0.1652 -0.8734 -0.5209
  907MOL0     C22374  12.275   6.209   6.859 -0.5592  0.3813  0.5042
  907MOL0     C22375  11.701   5.983   6.324  0.3395 -0.3740 -0.2355
  907MOL0     C22376  11.609   6.023   6.235  0.1252 -0.3701 -0.3514
  907MOL0     C22377  11.573   5.907   6.139 -0.7629  0.0312 -0.4908
  907MOL0     H22378  11.101   6.234   6.180  2.4588 -0.2485  0.4949
  907MOL0     H22379  10.972   6.321   5.991 -1.2278 -1.7346  0.6247
  907MOL0     H22380  10.837   6.347   5.750 -0.1837 -0.6574 -1.0028
  907MOL0     H22381  10.983   6.463   5.774  1.3261  0.9466 -1.9038
  907MOL0     H22382  10.857   6.540   5.582  0.2194 -0.5439 -1.4740
  907MOL0     H22383  10.857   6.371   5.523  0.7277 -1.1888 -0.8593
  907MOL0     H22384  11.100   6.391   5.502 -0.0081  0.1946  0.2957
  907MOL0     H22385  11.088   6.548   5.593 -2.1221  2.6755 -1.0379
  907MOL0     H22386  10.948   6.490   5.332 -0.9114  2.4925 -2.3001
  907MOL0     H22387  10.970   6.648   5.413  2.6245  1.6385 -1.0531
  907MOL0     H22388  11.212   6.636   5.349  1.5672 -1.3926 -1.2998
  907MOL0     H22389  11.185   6.478   5.269 -0.6522 -0.2833  0.2984
  907MOL0     H22390  10.992   6.585   5.142  0.7781  0.0835 -0.8835
  907MOL0     H22391  11.041   6.737   5.201  2.2738  1.7163  1.9098
  907MOL0     H22392  11.278   6.693   5.089 -1.9768  0.7067  0.7087
  907MOL0     H22393  11.133   6.704   4.988  1.5567  0.5366 -2.4208
  907MOL0     H22394  11.250   6.510   4.885 -0.3336  0.6016 -0.9618
  907MOL0     H22395  11.269   6.435   5.043 -3.0981 -3.0737 -0.6096
  907MOL0     H22396  10.993   6.501   4.764 -1.3759 -0.8299 -0.5580
  907MOL0     H22397  10.701   6.283   4.848  0.4928 -2.1664 -1.7232
  907MOL0     H22398  10.755   6.408   4.747  0.3855 -1.3520 -1.0412
  907MOL0     H22399  10.915   6.144   4.732 -1.2402 -1.5024 -0.7143
  907MOL0     H22400  10.743   6.138   4.699 -1.3805  2.0958 -2.6545
  907MOL0     H22401  10.931   6.310   4.570 -2.2753  1.4461  1.2683
  907MOL0     H22402  10.754   6.300   4.537  1.0018  1.5582 -0.6913
  907MOL0     H22403  10.840   6.178   4.358  1.6370  1.2172 -0.7325
  907MOL0     H22404  10.759   6.080   4.472  0.0946  0.0909 -0.5279
  907MOL0     H22405  11.137   5.879   4.399  0.1100 -0.3280 -2.5178
  907MOL0     H22406  11.352   5.913   4.283  0.0625  0.3187 -0.9835
  907MOL0     H22407  11.629   6.154   3.960  1.1047 -0.9622 -1.6386
  907MOL0     H22408  11.881   6.198   3.937  1.4263 -1.3532  0.0431
  907MOL0     H22409  12.108   6.129   3.938 -1.8059 -0.5571  0.4028
  907MOL0     H22410  12.046   6.287   3.968 -0.7992 -1.2965 -0.7416
  907MOL0     H22411  12.313   6.157   4.050 -1.2578 -0.8293  2.4144
  907MOL0     H22412  12.290   6.316   3.966  3.8484 -1.6988  0.2603
  907MOL0     H22413  12.198   6.395   4.203  0.2522  0.5949  2.4272
  907MOL0     H22414  12.254   6.233   4.248 -0.4580  0.5636 -0.5875
  907MOL0     H22415  12.480   6.286   4.140  1.5983  0.0658  1.1900
  907MOL0     H22416  12.450   6.363   4.296 -3.5119 -2.8210  1.1026
  907MOL0     H22417  12.365   6.561   4.147 -0.9742  0.1110 -0.2243
  907MOL0     H22418  12.411   6.487   3.997 -0.0020  0.5093  0.2068
  907MOL0     H22419  12.572   6.636   4.043 -1.9488 -0.2061  0.5112
  907MOL0     H22420  12.609   6.582   4.206  2.2752  1.3007 -1.8684
  907MOL0     H22421  12.679   6.450   3.935  1.6706 -0.4818 -0.7968
  907MOL0     H22422  12.680   6.353   4.086  1.5430  0.4173 -0.0331
  907MOL0     H22423  12.816   6.629   4.059 -0.7913 -0.8038 -0.9364
  907MOL0     H22424  12.829   6.522   4.195 -1.7484 -3.6351  0.3995
  907MOL0     H22425  11.943   6.053   4.318  0.0940  1.6590  0.1844
  907MOL0     H22426  11.710   6.008   4.354 -0.9071 -1.0589 -0.5727
  907MOL0     H22427  11.248   6.339   4.263 -2.5262 -0.6546 -1.7326
  907MOL0     H22428  11.065   6.301   4.396 -0.9411 -0.2096  1.1923
  907MOL0     H22429  11.232   6.147   5.715 -0.6589 -1.9908  0.1954
  907MOL0     H22430  11.377   6.054   5.899 -0.6247 -0.3801 -3.4422
  907MOL0     H22431  11.556   6.334   6.388  0.2002  0.3846  0.3959
  907MOL0     H22432  11.724   6.266   6.514  2.1955 -0.0423 -2.1549
  907MOL0     H22433  11.917   6.006   6.720  0.0866 -0.1552  0.4997
  907MOL0     H22434  11.780   6.114   6.694  2.0309  1.0348  0.3839
  907MOL0     H22435  12.001   6.230   6.713 -0.1296  3.0449 -0.8858
  907MOL0     H22436  11.940   6.250   6.539 -1.7419  0.1101  1.5779
  907MOL0     H22437  12.177   6.203   6.516 -0.1872  1.1570  2.7355
  907MOL0     H22438  12.097   6.046   6.483  1.7375 -1.4389 -0.7156
  907MOL0     H22439  12.129   5.964   6.686  1.3023 -0.8313  0.0292
  907MOL0     H22440  12.282   6.011   6.603  1.4170 -1.1686  1.3771
  907MOL0     H22441  12.301   6.267   6.946 -0.5708  4.3417 -1.8972
  907MOL0     H22442  11.748   5.886   6.316  1.1666 -0.0556  0.6079
  907MOL0     H22443  11.666   5.868   6.097  0.4954  3.5193 -1.3111
  907MOL0     H22444  11.526   5.824   6.194 -0.2054 -0.2700 -0.4584
  907MOL0     H22445  11.513   5.937   6.053  0.6319 -0.1422 -1.5526
  908MOL0     O22446   5.503   6.125   5.038 -0.3978 -0.3662 -0.7264
  908MOL0     C22447   5.455   6.107   4.927 -0.8074  0.0462 -1.0869
  908MOL0     O22448   5.512   6.156   4.807  1.2807 -0.1192  0.1505
  908MOL0     C22449   5.649   6.164   4.795  0.1325 -0.0167  0.6707
  908MOL0     C22450   5.739   6.091   4.871 -0.2839  0.1539 -0.1284
  908MOL0     C22451   5.874   6.103   4.848  0.1042 -1.8456 -0.5014
  908MOL0     C22452   5.924   6.200   4.758  0.2162 -0.2284  0.9621
  908MOL0     O22453   6.060   6.220   4.749  0.9223 -0.2389 -0.3229
  908MOL0     C22454   6.116   6.314   4.669 -0.1280  0.1686 -0.2163
  908MOL0     C22455   6.267   6.295   4.673  0.8765  0.4906 -0.8169
  908MOL0     C22456   6.344   6.401   4.594  0.2531  0.0014 -0.3388
  908MOL0     C22457   6.492   6.382   4.606  0.1376  0.2355 -0.4220
  908MOL0     C22458   6.580   6.515   4.613  0.3126 -0.2126  0.8341
  908MOL0     C22459   6.557   6.594   4.736  0.6679 -0.7611  0.7725
  908MOL0     C22460   6.665   6.701   4.765 -0.2477  0.1492  0.3266
  908MOL0     C22461   6.650   6.787   4.897  1.0738  0.8947  0.2166
  908MOL0     N22462   6.542   6.881   4.901  0.0119  0.1973  0.3021
  908MOL0     C22463   6.561   7.014   4.920 -0.6641 -0.0672  0.8733
  908MOL0     C22464   6.436   7.061   4.924 -0.3646  0.0360 -0.4220
  908MOL0     C22465   6.421   7.202   4.966  0.0371 -0.0471  0.0297
  908MOL0     C22466   6.286   7.262   4.898 -1.1398  0.4384 -0.4174
  908MOL0     C22467   6.242   7.408   4.925 -0.3681  0.4119 -0.4305
  908MOL0     C22468   6.161   7.464   4.817 -0.3237 -0.0578  0.9621
  908MOL0     O22469   6.245   7.493   4.710 -0.1641 -0.0533 -0.2273
  908MOL0     C22470   6.296   7.622   4.697 -0.2338  0.0379  0.7156
  908MOL0     C22471   6.309   7.717   4.802  0.1630  0.2316 -0.5700
  908MOL0     C22472   6.357   7.849   4.774 -0.3037  0.1915 -0.0520
  908MOL0     C22473   6.393   7.887   4.644  1.7575  0.1372 -0.3727
  908MOL0     C22474   6.440   8.018   4.608  0.0811  0.0969  0.7658
  908MOL0     O22475   6.399   8.077   4.497  0.0418 -0.3032  0.1339
  908MOL0     C22476   6.480   8.177   4.444  0.0050 -0.0497 -0.6626
  908MOL0     C22477   6.495   8.309   4.501  0.6512  0.5820 -0.4155
  908MOL0     C22478   6.580   8.395   4.447 -0.4567 -0.3757 -0.1355
  908MOL0     C22479   6.669   8.349   4.346 -0.1843 -0.2046  0.2787
  908MOL0     O22480   6.774   8.419   4.284 -1.0047  0.1802  0.5303
  908MOL0     C22481   6.852   8.509   4.371  0.3338 -0.6269  1.1635
  908MOL0     C22482   6.938   8.595   4.275 -0.9474 -1.1987 -0.0582
  908MOL0     C22483   6.851   8.698   4.196  0.0159  0.1995  0.7932
  908MOL0     C22484   6.927   8.835   4.181 -0.9459 -0.2086 -0.3905
  908MOL0     C22485   6.829   8.951   4.163 -0.7586 -0.9180  0.2696
  908MOL0     C22486   6.725   8.968   4.274  0.7842  0.0307 -0.3005
  908MOL0     C22487   6.664   9.110   4.238  0.2859 -0.0348 -0.8301
  908MOL0     C22488   6.634   9.189   4.362  0.6543 -0.7139  0.0567
  908MOL0    Cl22489   6.568   9.349   4.333 -0.2741  0.2776 -0.2691
  908MOL0     C22490   6.651   8.226   4.286  0.4045  0.0593 -0.1821
  908MOL0     C22491   6.555   8.143   4.332 -0.4282  0.8401  0.3562
  908MOL0     O22492   6.509   8.067   4.692 -1.0614  0.2812  0.5664
  908MOL0     C22493   6.378   7.791   4.542 -0.4699 -0.0243  0.5147
  908MOL0     C22494   6.338   7.662   4.572  0.2488 -0.6313  0.0869
  908MOL0     N22495   6.345   6.957   4.916 -1.0088  0.0441 -0.2668
  908MOL0     N22496   6.413   6.841   4.890  0.1031 -0.2627 -0.5202
  908MOL0     C22497   5.837   6.283   4.688  0.1680 -0.9735  0.0066
  908MOL0     C22498   5.699   6.268   4.707 -0.3309  0.8345 -0.5023
  908MOL0     C22499   5.333   6.039   4.903 -0.9902  1.3697 -0.0805
  908MOL0     C22500   5.218   6.105   4.901 -0.3373 -0.4550  0.0445
  908MOL0     C22501   5.097   6.048   4.878 -0.1022  0.1680  0.4373
  908MOL0     C22502   5.094   5.910   4.851  0.2307  0.0043 -0.0378
  908MOL0     O22503   4.962   5.864   4.822 -1.2226  0.8785 -1.0364
  908MOL0     C22504   4.951   5.740   4.749 -0.5170 -0.4012  0.2282
  908MOL0     C22505   4.821   5.736   4.676  0.9164 -0.0411  0.3874
  908MOL0     C22506   4.817   5.607   4.596  0.6946 -0.0137 -0.2928
  908MOL0     C22507   4.933   5.599   4.482  0.8137 -0.0748 -0.2853
  908MOL0     C22508   4.931   5.723   4.401 -0.2330 -0.0257 -1.2909
  908MOL0     C22509   4.923   5.826   4.332 -0.2623  0.2572 -0.9164
  908MOL0     C22510   5.208   5.838   4.852 -0.2530  0.0533 -0.1015
  908MOL0     C22511   5.335   5.896   4.872 -0.2126 -0.4786 -0.7139
  908MOL0     C22512   5.462   5.812   4.868 -0.4496  0.0436  0.3331
  908MOL0     H22513   5.703   6.030   4.954  1.7758 -2.3219 -0.8923
  908MOL0     H22514   5.947   6.052   4.910 -1.3384 -1.9908  1.1614
  908MOL0     H22515   6.075   6.302   4.569  0.5107 -0.7758 -0.3785
  908MOL0     H22516   6.077   6.410   4.703 -0.0638  0.7637 -1.7466
  908MOL0     H22517   6.293   6.196   4.633  0.1643  0.5253 -1.3787
  908MOL0     H22518   6.285   6.308   4.780 -1.4793 -0.2939 -0.2705
  908MOL0     H22519   6.315   6.502   4.625  2.2048 -0.0282  1.9040
  908MOL0     H22520   6.315   6.409   4.489 -0.1395  3.4507 -0.0851
  908MOL0     H22521   6.520   6.307   4.681  0.4817 -1.0469 -1.8014
  908MOL0     H22522   6.502   6.333   4.509 -2.9000  1.2441 -1.3725
  908MOL0     H22523   6.685   6.487   4.616  1.1055  2.5367  2.1197
  908MOL0     H22524   6.558   6.585   4.531 -2.0939 -1.0760  0.6572
  908MOL0     H22525   6.455   6.632   4.750  1.3391  1.1891  0.7034
  908MOL0     H22526   6.565   6.539   4.830  0.4318 -0.8189  0.7600
  908MOL0     H22527   6.673   6.766   4.677  3.4507 -0.8311 -0.2379
  908MOL0     H22528   6.762   6.652   4.777 -1.7907 -2.8879  1.5779
  908MOL0     H22529   6.627   6.725   4.984 -0.6128  1.7830  0.4451
  908MOL0     H22530   6.745   6.835   4.924  1.9394 -0.0529 -0.9992
  908MOL0     H22531   6.643   7.080   4.945  0.1078 -0.8740  0.5175
  908MOL0     H22532   6.404   7.194   5.074 -1.0009 -1.9197 -0.2209
  908MOL0     H22533   6.509   7.255   4.929  0.8967 -1.3265  0.1468
  908MOL0     H22534   6.306   7.267   4.791  2.2564  0.4067  0.1283
  908MOL0     H22535   6.205   7.192   4.922 -1.0677  0.5886  0.2825
  908MOL0     H22536   6.328   7.468   4.957 -2.1242  0.9815  3.9529
  908MOL0     H22537   6.178   7.424   5.012 -0.1769 -1.7296  0.1539
  908MOL0     H22538   6.106   7.550   4.856  0.0815  2.1137 -2.7776
  908MOL0     H22539   6.083   7.390   4.794  1.4582 -1.8388  0.2658
  908MOL0     H22540   6.299   7.681   4.904 -1.7952 -0.2788 -0.8941
  908MOL0     H22541   6.373   7.926   4.849  3.2798 -1.0371  0.6468
  908MOL0     H22542   6.437   8.334   4.590 -2.9582 -1.8014 -1.8780
  908MOL0     H22543   6.579   8.497   4.485  0.6093 -0.5038  0.2641
  908MOL0     H22544   6.794   8.577   4.434  1.6159  2.0265 -0.3319
  908MOL0     H22545   6.915   8.450   4.438 -0.1160  0.5680  2.6919
  908MOL0     H22546   7.001   8.657   4.339 -2.2577 -0.0328  0.1491
  908MOL0     H22547   6.996   8.542   4.200  1.3889  2.5349 -1.1480
  908MOL0     H22548   6.827   8.646   4.103 -2.6583 -1.6956  2.3851
  908MOL0     H22549   6.750   8.715   4.236  0.0450  0.1139  0.9061
  908MOL0     H22550   6.987   8.818   4.091 -1.2059  0.7327 -0.7502
  908MOL0     H22551   7.002   8.862   4.256  2.7509  0.3042 -3.9202
  908MOL0     H22552   6.783   8.931   4.067 -2.2162  1.2961  0.4302
  908MOL0     H22553   6.886   9.045   4.166 -0.3054 -1.1105 -1.4348
  908MOL0     H22554   6.643   8.897   4.269  0.1252  0.6867  0.7536
  908MOL0     H22555   6.764   8.956   4.376 -1.3593 -0.9077  0.4598
  908MOL0     H22556   6.570   9.079   4.191 -0.4026 -1.9013  1.5596
  908MOL0     H22557   6.732   9.165   4.174  2.2943 -0.9390  0.4295
  908MOL0     H22558   6.565   9.136   4.430 -0.2536 -2.3343 -2.0179
  908MOL0     H22559   6.735   9.198   4.403  0.9767  0.3217 -0.9127
  908MOL0     H22560   6.713   8.203   4.200 -0.4978  2.4726 -1.5827
  908MOL0     H22561   6.541   8.046   4.285  0.0522  1.0770 -0.3006
  908MOL0     H22562   6.396   7.813   4.438 -0.0949 -0.7860  0.4076
  908MOL0     H22563   6.342   7.587   4.494  0.2001 -1.6593  1.0436
  908MOL0     H22564   5.872   6.367   4.630 -0.1980 -0.6127  0.3035
  908MOL0     H22565   5.629   6.336   4.660 -0.1031  0.7721 -0.9390
  908MOL0     H22566   5.223   6.206   4.941 -0.1753 -0.0149 -1.0573
  908MOL0     H22567   5.001   6.099   4.886 -0.4240 -0.2207 -0.8423
  908MOL0     H22568   4.954   5.659   4.822 -0.9266 -0.4518  0.1963
  908MOL0     H22569   5.038   5.726   4.685 -0.7571  1.9805 -0.7139
  908MOL0     H22570   4.812   5.821   4.608 -0.6497 -1.2033 -0.9151
  908MOL0     H22571   4.737   5.732   4.746  1.1323  0.9732  0.7217
  908MOL0     H22572   4.730   5.585   4.533  1.0729  1.7279 -1.4800
  908MOL0     H22573   4.814   5.519   4.661 -0.8873  0.6540  0.5870
  908MOL0     H22574   5.037   5.588   4.516  0.9535 -0.5291 -0.8457
  908MOL0     H22575   4.913   5.516   4.415 -1.5483 -0.2542  0.5550
  908MOL0     H22576   4.925   5.928   4.297  3.4210  0.2557 -1.0938
  908MOL0     H22577   5.232   5.734   4.832  4.2465  0.4626  1.8039
  908MOL0     H22578   5.541   5.886   4.882  0.1058 -0.8404  2.2574
  908MOL0     H22579   5.466   5.743   4.952  0.3005  0.9504  1.0587
  908MOL0     H22580   5.484   5.764   4.772  0.7203 -0.5838  0.8879
  909MOL0     O22581   8.326   8.130   9.295 -0.1890  0.2120 -0.5274
  909MOL0     C22582   8.269   8.163   9.191 -0.2688 -0.2513  0.3517
  909MOL0     O22583   8.133   8.164   9.177  0.4865 -0.3250 -0.3599
  909MOL0     C22584   8.050   8.189   9.293  0.7615  0.9833  0.4974
  909MOL0     C22585   7.976   8.307   9.300  1.8532 -0.3555 -0.2399
  909MOL0     C22586   7.883   8.325   9.408  0.0179  0.1011 -0.1389
  909MOL0     C22587   7.899   8.232   9.522  0.0309 -0.4514 -0.0758
  909MOL0     O22588   7.827   8.244   9.637  0.8355 -0.0272  0.5049
  909MOL0     C22589   7.689   8.278   9.615  0.4924  0.1733  0.3423
  909MOL0     C22590   7.624   8.252   9.759  0.6803  0.2363  0.7903
  909MOL0     C22591   7.696   8.306   9.890 -0.6836  0.0375  0.0574
  909MOL0     C22592   7.717   8.456   9.883  0.2436 -0.4129  1.0990
  909MOL0     C22593   7.775   8.513  10.010 -1.2048  0.4615  0.8219
  909MOL0     C22594   7.752   8.668  10.033 -1.2126  0.3337 -0.3766
  909MOL0     C22595   7.804   8.711  10.164  0.0567 -0.3057  0.4284
  909MOL0     C22596   7.722   8.659  10.279 -0.2470 -0.1552 -0.3252
  909MOL0     N22597   7.760   8.732  10.402 -0.9643 -0.2649 -0.0554
  909MOL0     C22598   7.794   8.667  10.522 -0.1780 -0.3929  0.2824
  909MOL0     C22599   7.841   8.760  10.613  0.6232 -0.8581 -0.4220
  909MOL0     C22600   7.881   8.739  10.755 -0.2867  0.5097  0.2874
  909MOL0     C22601   7.946   8.847  10.838  0.2981 -0.1656 -0.0410
  909MOL0     C22602   8.089   8.877  10.821 -0.3187  0.8507 -0.6633
  909MOL0     C22603   8.130   8.990  10.921 -0.3282  0.3871  0.1254
  909MOL0     O22604   8.041   9.098  10.906 -0.1989  0.0134  0.2489
  909MOL0     C22605   8.030   9.182  11.011  0.0272  0.3224  0.6615
  909MOL0     C22606   8.124   9.273  11.053  0.2678  0.2167  0.1912
  909MOL0     C22607   8.095   9.347  11.164 -0.4274 -0.4350 -1.4834
  909MOL0     C22608   7.980   9.328  11.242 -0.0438  0.4448 -0.1410
  909MOL0     C22609   7.942   9.397  11.366  1.3951  0.5435 -0.0348
  909MOL0     O22610   8.025   9.495  11.408  0.6024 -0.1596 -0.3875
  909MOL0     C22611   7.986   9.594  11.506  0.4433  0.0115  0.2198
  909MOL0     C22612   8.006   9.727  11.471 -0.1576  0.8795  1.1067
  909MOL0     C22613   7.980   9.833  11.562  0.5286 -0.3996 -0.1942
  909MOL0     C22614   7.915   9.806  11.689  0.3043  0.3971  0.6101
  909MOL0     O22615   7.878   9.902  11.780  0.0936  0.3099  0.2819
  909MOL0     C22616   7.940  10.027  11.777  0.0265 -0.2579  0.0962
  909MOL0     C22617   7.925  10.112  11.911  0.5587 -0.0173 -0.0836
  909MOL0     C22618   8.029  10.221  11.888  0.2459 -1.2229  0.5337
  909MOL0     C22619   8.025  10.318  12.006  0.0021 -0.4803 -0.5116
  909MOL0     C22620   8.151  10.416  11.986 -0.2314 -0.7083 -0.2209
  909MOL0     C22621   8.097  10.526  11.897 -0.1324 -0.4923  0.1481
  909MOL0     C22622   8.189  10.652  11.901  0.3792 -0.6835  0.6310
  909MOL0     C22623   8.136  10.769  11.820  0.5544  0.2734 -0.6950
  909MOL0    Cl22624   8.010  10.861  11.922 -0.6277 -0.1316 -0.5494
  909MOL0     C22625   7.888   9.675  11.716 -1.1603 -0.1800  0.7319
  909MOL0     C22626   7.929   9.575  11.634  0.6838  1.3591  1.2719
  909MOL0     O22627   7.837   9.369  11.421 -0.7223  0.3813  0.5696
  909MOL0     C22628   7.878   9.240  11.190 -1.0324  0.3598  0.2489
  909MOL0     C22629   7.906   9.177  11.070 -1.1204  0.7198  0.3477
  909MOL0     N22630   7.828   8.884  10.544 -0.3101  0.5792  0.0564
  909MOL0     N22631   7.787   8.863  10.420  0.0278 -0.1605 -0.3056
  909MOL0     C22632   7.973   8.121   9.509  0.3515  0.9019  0.1000
  909MOL0     C22633   8.049   8.099   9.396  0.0739  0.0690 -0.5358
  909MOL0     C22634   8.349   8.204   9.079 -0.7218 -0.8942  0.8664
  909MOL0     C22635   8.356   8.130   8.966  0.0590 -0.0360 -0.2587
  909MOL0     C22636   8.429   8.162   8.852  0.6205  0.8805 -0.3843
  909MOL0     C22637   8.499   8.283   8.849  0.1735  0.0600  0.4111
  909MOL0     O22638   8.572   8.293   8.735 -0.0970  0.2308  0.6070
  909MOL0     C22639   8.655   8.409   8.714 -0.2353 -0.7640 -0.0129
  909MOL0     C22640   8.752   8.404   8.600 -0.0784  0.5940  0.7278
  909MOL0     C22641   8.687   8.458   8.477 -0.9086 -0.0106 -0.0037
  909MOL0     C22642   8.779   8.437   8.352 -0.6360  0.5131  0.1552
  909MOL0     C22643   8.746   8.536   8.250 -0.1517 -0.9054  0.0883
  909MOL0     C22644   8.740   8.621   8.162  0.3962  0.5454  0.4274
  909MOL0     C22645   8.487   8.366   8.969 -0.5034 -0.6428  0.1118
  909MOL0     C22646   8.421   8.329   9.078  1.1060  0.3746 -0.7787
  909MOL0     C22647   8.432   8.413   9.200  0.1919 -0.4557 -0.8314
  909MOL0     H22648   7.977   8.368   9.210 -0.7510  0.9710  0.5365
  909MOL0     H22649   7.822   8.414   9.423 -1.0011 -0.4878 -0.6464
  909MOL0     H22650   7.695   8.384   9.589  2.1123  0.2920  1.0263
  909MOL0     H22651   7.644   8.207   9.546 -2.2436  3.3437 -1.4604
  909MOL0     H22652   7.615   8.145   9.776 -1.1987  0.5494  2.2138
  909MOL0     H22653   7.521   8.288   9.768 -0.1225 -1.9676  0.8848
  909MOL0     H22654   7.792   8.255   9.894 -1.4635 -1.9530 -2.9555
  909MOL0     H22655   7.637   8.285   9.980  0.0226  0.5196  0.6356
  909MOL0     H22656   7.782   8.483   9.798  0.2111 -3.7628 -0.1874
  909MOL0     H22657   7.618   8.501   9.872 -0.3065 -0.8056  3.7835
  909MOL0     H22658   7.729   8.458  10.092 -0.5776 -2.9779 -0.9586
  909MOL0     H22659   7.883   8.499  10.007 -0.9103  2.4053 -1.5962
  909MOL0     H22660   7.802   8.722   9.952  0.6997 -0.9665 -0.1147
  909MOL0     H22661   7.645   8.692  10.029 -0.9824  2.3199  2.4806
  909MOL0     H22662   7.796   8.820  10.162 -1.7931 -0.4272 -0.5825
  909MOL0     H22663   7.907   8.680  10.186 -0.7610 -0.7870  4.3198
  909MOL0     H22664   7.620   8.684  10.247 -0.4415 -1.3456 -0.6941
  909MOL0     H22665   7.713   8.551  10.292  1.0159 -0.4886 -1.9352
  909MOL0     H22666   7.788   8.563  10.552 -2.9312  0.6282  4.0357
  909MOL0     H22667   7.785   8.708  10.798 -0.1776 -2.2249 -1.2346
  909MOL0     H22668   7.951   8.655  10.750  0.0063  0.8321 -1.4661
  909MOL0     H22669   7.884   8.935  10.821  1.3546  0.6213  0.1319
  909MOL0     H22670   7.932   8.825  10.945  1.3343  1.5659  0.4845
  909MOL0     H22671   8.100   8.907  10.717  1.7627  3.0581  0.1024
  909MOL0     H22672   8.153   8.790  10.839 -2.1697 -0.2868  0.6628
  909MOL0     H22673   8.235   9.016  10.904 -0.3652  1.5675  1.5283
  909MOL0     H22674   8.113   8.964  11.026 -1.5473 -0.1998 -0.2005
  909MOL0     H22675   8.220   9.293  11.005  1.5297  0.2073  2.5476
  909MOL0     H22676   8.168   9.423  11.192 -0.7806 -0.9249  1.0035
  909MOL0     H22677   8.018   9.751  11.366  0.9726 -1.4310  0.6305
  909MOL0     H22678   8.000   9.937  11.540 -1.6938  0.8803  2.9515
  909MOL0     H22679   8.045  10.015  11.750  0.4350  1.7027  0.6574
  909MOL0     H22680   7.896  10.081  11.693 -1.1830 -2.0929 -0.5064
  909MOL0     H22681   7.827  10.161  11.906 -0.2314 -1.6263 -1.7236
  909MOL0     H22682   7.944  10.049  11.998  0.4031 -1.1060 -0.8200
  909MOL0     H22683   8.129  10.179  11.872  1.6228  1.8258  0.3953
  909MOL0     H22684   8.011  10.264  11.789  3.1122 -0.3526  0.2887
  909MOL0     H22685   8.042  10.251  12.091 -2.0416 -0.5215 -0.0750
  909MOL0     H22686   7.927  10.364  12.019  0.2987 -0.0218  0.1652
  909MOL0     H22687   8.241  10.371  11.942  1.2143 -2.7395  4.2095
  909MOL0     H22688   8.167  10.464  12.083  1.6364 -0.8933 -0.4054
  909MOL0     H22689   8.088  10.487  11.795 -4.1143  1.1225 -0.2919
  909MOL0     H22690   7.998  10.559  11.929  0.1928  1.5103 -0.7906
  909MOL0     H22691   8.281  10.615  11.854  0.8886 -0.3844  1.3757
  909MOL0     H22692   8.209  10.684  12.004 -2.5966  2.5683  0.3514
  909MOL0     H22693   8.209  10.829  11.765  0.1302  0.5361 -0.9777
  909MOL0     H22694   8.080  10.716  11.743  1.2612 -3.3930  1.0923
  909MOL0     H22695   7.859   9.655  11.819  1.5904 -2.9796  1.1035
  909MOL0     H22696   7.919   9.474  11.672  2.7625 -1.1237 -3.7861
  909MOL0     H22697   7.784   9.223  11.242 -0.4933  1.5610  1.6854
  909MOL0     H22698   7.840   9.106  11.021  0.9660 -0.5076 -0.8318
  909MOL0     H22699   7.981   8.054   9.593  0.6174 -0.3775 -0.9109
  909MOL0     H22700   8.105   8.006   9.385  2.2743  0.8808  2.4147
  909MOL0     H22701   8.289   8.045   8.965  0.4780 -0.3678 -1.0592
  909MOL0     H22702   8.443   8.083   8.779 -0.1860 -0.1993  0.5962
  909MOL0     H22703   8.720   8.427   8.801 -0.2981 -2.9709  0.5361
  909MOL0     H22704   8.593   8.499   8.704  2.5561  1.2925  0.0945
  909MOL0     H22705   8.784   8.299   8.591  1.2709  1.0201  0.1813
  909MOL0     H22706   8.840   8.469   8.608 -1.2037  2.0290  1.6621
  909MOL0     H22707   8.653   8.562   8.484 -1.6978 -0.2295 -0.4652
  909MOL0     H22708   8.590   8.408   8.465 -2.2518  2.1748  0.9737
  909MOL0     H22709   8.884   8.457   8.374 -0.4757  0.5578 -0.6121
  909MOL0     H22710   8.776   8.332   8.321  0.4713  0.4231  0.3363
  909MOL0     H22711   8.724   8.705   8.099 -0.3780  1.5096  1.8454
  909MOL0     H22712   8.539   8.462   8.974 -1.9256  0.1548  0.0410
  909MOL0     H22713   8.505   8.366   9.268  0.0750 -1.2632 -1.2516
  909MOL0     H22714   8.471   8.512   9.178  2.9171 -1.0832  0.6608
  909MOL0     H22715   8.336   8.420   9.252  0.9784 -0.6833  0.7211
  910MOL0     O22716  10.988   7.021   9.246  0.1936 -0.2970  0.5969
  910MOL0     C22717  10.994   6.903   9.282 -0.6473  0.8704 -0.8455
  910MOL0     O22718  11.085   6.808   9.250  0.4314 -0.1784  0.0970
  910MOL0     C22719  11.171   6.841   9.157 -0.2420 -0.8069  0.3723
  910MOL0     C22720  11.176   6.777   9.032  0.2988  0.5041  0.5441
  910MOL0     C22721  11.262   6.823   8.932 -0.7019  0.2241 -0.0990
  910MOL0     C22722  11.361   6.923   8.968 -0.9036 -0.0355  1.0754
  910MOL0     O22723  11.475   6.951   8.895  0.3866 -1.1408 -0.0649
  910MOL0     C22724  11.482   6.887   8.763 -0.2375 -0.2057  0.1692
  910MOL0     C22725  11.609   6.922   8.691 -0.3432  0.1836  0.2824
  910MOL0     C22726  11.606   6.983   8.556  0.2132 -0.3417 -0.1023
  910MOL0     C22727  11.659   7.129   8.571  0.0657 -0.2407  0.0006
  910MOL0     C22728  11.677   7.214   8.444 -0.6975 -0.1453  0.8914
  910MOL0     C22729  11.544   7.283   8.396 -0.8309 -0.1952 -0.4432
  910MOL0     C22730  11.577   7.351   8.261  0.1394  0.3568  0.8122
  910MOL0     C22731  11.635   7.484   8.262 -0.0772 -0.0680 -0.1596
  910MOL0     N22732  11.661   7.516   8.118  0.8937 -0.1799 -0.2168
  910MOL0     C22733  11.574   7.550   8.023  1.0189 -0.0380  0.5281
  910MOL0     C22734  11.651   7.552   7.904 -0.5867 -0.0202  0.0305
  910MOL0     C22735  11.595   7.575   7.770 -0.5438 -0.5187  0.1871
  910MOL0     C22736  11.683   7.662   7.678 -0.8146 -0.0425  0.9536
  910MOL0     C22737  11.656   7.813   7.696  0.3293 -0.7730  0.8018
  910MOL0     C22738  11.749   7.900   7.617  0.5018 -0.7516  0.0499
  910MOL0     O22739  11.885   7.856   7.637  0.2133  0.3591 -0.0246
  910MOL0     C22740  11.939   7.919   7.746 -0.2496  0.6615 -0.1870
  910MOL0     C22741  11.970   7.841   7.854 -0.3234  0.6917  0.1482
  910MOL0     C22742  12.019   7.891   7.967  0.0929 -0.7204  1.2375
  910MOL0     C22743  12.054   8.030   7.981  0.9898  0.6285  0.0544
  910MOL0     C22744  12.111   8.077   8.106 -0.2694  0.3011  0.3930
  910MOL0     O22745  12.142   7.986   8.205  0.0278  0.1410 -0.8230
  910MOL0     C22746  12.200   8.025   8.331  0.9705  0.4408  0.0653
  910MOL0     C22747  12.283   8.134   8.364  0.4438  0.9506  0.1840
  910MOL0     C22748  12.342   8.156   8.491  0.2683  0.3791 -0.4959
  910MOL0     C22749  12.303   8.065   8.594 -0.1984  0.1100 -0.2851
  910MOL0     O22750  12.363   8.086   8.717  0.2568  0.4805 -0.2473
  910MOL0     C22751  12.433   8.208   8.747 -0.3091 -0.0948 -0.0153
  910MOL0     C22752  12.450   8.209   8.901 -0.5769  1.0068  0.4785
  910MOL0     C22753  12.516   8.326   8.970 -0.7044 -0.0751 -0.3189
  910MOL0     C22754  12.421   8.448   8.976 -0.9462  0.1439 -1.0452
  910MOL0     C22755  12.492   8.574   9.029 -0.8551  0.5098 -0.8331
  910MOL0     C22756  12.382   8.673   9.067 -0.0858  0.4492  0.3617
  910MOL0     C22757  12.450   8.798   9.140  1.2291 -0.0836 -0.9298
  910MOL0     C22758  12.358   8.926   9.165  0.4160  0.9485  0.0074
  910MOL0    Cl22759  12.439   9.032   9.281  0.3734  0.4176 -0.3277
  910MOL0     C22760  12.230   7.951   8.565  0.4309 -0.1075  0.3534
  910MOL0     C22761  12.188   7.929   8.434  0.0704  0.4365 -0.0333
  910MOL0     O22762  12.135   8.199   8.117 -1.0309  0.2009  0.0309
  910MOL0     C22763  12.016   8.112   7.874 -0.6841 -0.0669 -0.2321
  910MOL0     C22764  11.958   8.057   7.758 -0.6440 -0.1374 -0.3106
  910MOL0     N22765  11.785   7.541   7.933 -0.6120  0.1731  0.5885
  910MOL0     N22766  11.785   7.501   8.061  0.3848 -0.2961  0.0156
  910MOL0     C22767  11.367   6.974   9.095 -0.2581 -0.0005 -1.1841
  910MOL0     C22768  11.273   6.936   9.189  0.2086 -0.0319  0.0474
  910MOL0     C22769  10.879   6.860   9.370  0.4802  0.0242 -0.1087
  910MOL0     C22770  10.754   6.909   9.324 -0.2674 -0.7592  0.9074
  910MOL0     C22771  10.645   6.849   9.374  0.8231 -0.0526 -0.7708
  910MOL0     C22772  10.645   6.765   9.488  0.7873 -0.9379 -0.0670
  910MOL0     O22773  10.521   6.723   9.546 -0.7503  0.0079  0.7784
  910MOL0     C22774  10.522   6.673   9.678 -0.0949  0.2736  0.2765
  910MOL0     C22775  10.380   6.639   9.735 -0.1331  0.2028  0.0225
  910MOL0     C22776  10.302   6.556   9.639 -0.0237 -0.2188  0.2991
  910MOL0     C22777  10.160   6.520   9.689 -0.0497  0.2040 -0.9629
  910MOL0     C22778  10.094   6.418   9.605 -0.2768 -0.7333  0.2862
  910MOL0     C22779  10.048   6.333   9.544  0.3499  0.7813 -0.1561
  910MOL0     C22780  10.770   6.725   9.536 -0.8340  0.7399  0.3669
  910MOL0     C22781  10.885   6.763   9.468 -0.6498 -0.2747 -0.5927
  910MOL0     C22782  11.017   6.689   9.507 -0.1062  0.7839 -0.0975
  910MOL0     H22783  11.099   6.703   9.012 -0.7495  1.3492  1.3336
  910MOL0     H22784  11.257   6.775   8.835  1.0048 -1.2226  0.4847
  910MOL0     H22785  11.476   6.780   8.784 -0.8487 -0.7168 -2.2728
  910MOL0     H22786  11.394   6.910   8.702 -1.2999  1.0214  2.0311
  910MOL0     H22787  11.661   6.828   8.668  0.9733  1.3070 -1.5674
  910MOL0     H22788  11.680   6.981   8.750 -2.0437  2.4833  0.1464
  910MOL0     H22789  11.505   6.985   8.513  1.3073 -1.0059 -2.9422
  910MOL0     H22790  11.653   6.913   8.487 -1.2034 -0.6385 -0.8144
  910MOL0     H22791  11.591   7.178   8.641 -0.4928  0.2726 -0.8854
  910MOL0     H22792  11.759   7.119   8.614 -0.0076  0.9308  0.4949
  910MOL0     H22793  11.758   7.284   8.464 -1.5347  1.1668 -0.1416
  910MOL0     H22794  11.711   7.134   8.377  3.0406  2.6055 -0.8593
  910MOL0     H22795  11.462   7.212   8.382 -1.6372  0.8747 -1.2777
  910MOL0     H22796  11.507   7.359   8.465  0.0226  1.7243 -1.9955
  910MOL0     H22797  11.481   7.358   8.209 -0.1872  2.9054  1.5945
  910MOL0     H22798  11.631   7.276   8.202 -0.2080 -1.2015  2.3747
  910MOL0     H22799  11.560   7.554   8.300 -2.4562 -1.4836 -1.8873
  910MOL0     H22800  11.734   7.487   8.307 -1.0246 -2.2133  2.2895
  910MOL0     H22801  11.465   7.556   8.024  0.9623 -0.7547 -0.4939
  910MOL0     H22802  11.582   7.475   7.726 -0.1014 -2.5296  4.1855
  910MOL0     H22803  11.496   7.620   7.773 -0.5792 -0.5124 -0.7754
  910MOL0     H22804  11.789   7.636   7.681 -0.5889  0.7296  0.2047
  910MOL0     H22805  11.653   7.645   7.574  0.4419  0.6367  0.4541
  910MOL0     H22806  11.666   7.828   7.804 -0.7578 -2.1669  1.1304
  910MOL0     H22807  11.550   7.820   7.672  0.5954 -0.0031 -0.1839
  910MOL0     H22808  11.721   8.004   7.636  0.6307 -1.1138  2.5724
  910MOL0     H22809  11.727   7.892   7.510  2.1734 -3.1143 -0.1926
  910MOL0     H22810  11.965   7.734   7.840 -2.1207  0.8596 -0.8115
  910MOL0     H22811  12.034   7.809   8.036  1.7255 -3.1858 -1.8118
  910MOL0     H22812  12.324   8.201   8.290  3.9035 -0.8797  0.2536
  910MOL0     H22813  12.414   8.236   8.504  1.4995 -0.3061 -2.5215
  910MOL0     H22814  12.523   8.211   8.685  0.4974 -2.2237  0.9441
  910MOL0     H22815  12.361   8.288   8.726 -2.8512 -1.9886  0.9597
  910MOL0     H22816  12.352   8.206   8.948 -2.4854  1.8652 -3.0855
  910MOL0     H22817  12.501   8.121   8.942  0.9302  2.2163  1.3011
  910MOL0     H22818  12.544   8.301   9.073  3.1769 -1.2629 -1.5075
  910MOL0     H22819  12.611   8.338   8.918  0.1646 -0.0920  1.2105
  910MOL0     H22820  12.334   8.432   9.041 -1.4351  0.4038 -1.6250
  910MOL0     H22821  12.407   8.470   8.870 -0.9323  0.0029 -1.0764
  910MOL0     H22822  12.550   8.609   8.943 -1.0209 -1.9904 -2.0418
  910MOL0     H22823  12.561   8.560   9.113  1.4061  0.7773 -2.5458
  910MOL0     H22824  12.336   8.716   8.977  1.2118 -0.4235 -0.7596
  910MOL0     H22825  12.295   8.626   9.113 -0.5298 -0.7738 -1.5933
  910MOL0     H22826  12.519   8.838   9.064 -0.5224  0.4514 -2.2952
  910MOL0     H22827  12.481   8.753   9.235  2.0547  1.5987 -0.3512
  910MOL0     H22828  12.344   8.979   9.071  5.0389  2.0451 -0.2894
  910MOL0     H22829  12.260   8.908   9.211  0.0822  3.6660  0.5487
  910MOL0     H22830  12.215   7.883   8.648  1.1615  1.7144  2.0743
  910MOL0     H22831  12.155   7.827   8.417  2.3552 -0.5195  0.8961
  910MOL0     H22832  12.036   8.217   7.891  2.9355 -0.3899 -1.6333
  910MOL0     H22833  11.943   8.125   7.674 -1.9145 -2.9040 -2.5095
  910MOL0     H22834  11.431   7.060   9.112  2.6129 -1.7945 -2.2184
  910MOL0     H22835  11.279   6.971   9.291  1.0224  1.5386 -0.4943
  910MOL0     H22836  10.736   6.971   9.237  0.8423  0.6545  1.6429
  910MOL0     H22837  10.547   6.853   9.328  2.0906 -0.8863 -3.7606
  910MOL0     H22838  10.563   6.752   9.741  0.8363 -0.2260  0.3080
  910MOL0     H22839  10.584   6.583   9.682 -1.0422 -0.3624  3.5597
  910MOL0     H22840  10.321   6.729   9.752 -0.7930 -0.5217  1.7840
  910MOL0     H22841  10.379   6.590   9.832 -2.1353  1.3273  0.6326
  910MOL0     H22842  10.360   6.466   9.616 -0.7104 -0.0500 -2.4304
  910MOL0     H22843  10.293   6.612   9.546  2.2078 -1.4718 -0.7242
  910MOL0     H22844  10.169   6.474   9.787 -0.4812  1.8389 -0.1139
  910MOL0     H22845  10.079   6.594   9.691 -2.3073 -2.1420 -0.6223
  910MOL0     H22846   9.998   6.250   9.498  0.5550  1.3323 -1.4157
  910MOL0     H22847  10.790   6.658   9.619 -2.7262 -0.0693  0.2296
  910MOL0     H22848  11.103   6.756   9.517  2.7570 -2.2286 -2.4975
  910MOL0     H22849  11.015   6.629   9.599  1.7955 -3.9319 -2.7903
  910MOL0     H22850  11.051   6.619   9.431 -0.1117 -0.5413  1.0667
  911MOL0     O22851   4.190   0.834   6.352  0.5817  0.7051 -0.2754
  911MOL0     C22852   4.126   0.760   6.272  0.0105 -0.8772 -0.2560
  911MOL0     O22853   4.190   0.679   6.180 -0.5106  0.1588 -0.5893
  911MOL0     C22854   4.320   0.718   6.144  0.7693 -0.0256  0.4205
  911MOL0     C22855   4.350   0.716   6.010  0.5839  0.0407 -0.6853
  911MOL0     C22856   4.470   0.746   5.953  0.4962 -1.0906  0.5112
  911MOL0     C22857   4.579   0.792   6.039  0.3043  0.0179  1.1253
  911MOL0     O22858   4.696   0.839   5.984  0.4177 -0.6064  0.0574
  911MOL0     C22859   4.684   0.893   5.847  0.0124 -0.5588 -0.5017
  911MOL0     C22860   4.792   1.006   5.829 -0.6044  0.1116 -0.4153
  911MOL0     C22861   4.764   1.130   5.913  0.1291 -0.0516  0.0979
  911MOL0     C22862   4.798   1.118   6.063  0.3740  0.1796 -0.1996
  911MOL0     C22863   4.857   1.246   6.120  0.3218 -0.2508  0.2359
  911MOL0     C22864   4.748   1.354   6.152 -0.9293 -1.0068 -0.4235
  911MOL0     C22865   4.817   1.487   6.198  1.0507  0.5479 -0.7301
  911MOL0     C22866   4.727   1.568   6.290 -0.3979  0.5040 -0.0844
  911MOL0     N22867   4.621   1.637   6.209 -0.3811 -0.0017  0.1568
  911MOL0     C22868   4.494   1.649   6.252  0.7925  0.3097  0.8417
  911MOL0     C22869   4.438   1.721   6.154  0.5712  0.7098 -0.1768
  911MOL0     C22870   4.285   1.757   6.155 -1.2342 -0.0442 -0.2031
  911MOL0     C22871   4.194   1.641   6.173  0.0691  0.4805 -0.1436
  911MOL0     C22872   4.055   1.693   6.166  0.9389  0.3546 -0.9857
  911MOL0     C22873   3.945   1.574   6.161 -0.5208 -0.9446  0.2751
  911MOL0     O22874   3.817   1.627   6.169  0.0911  0.4469  0.2907
  911MOL0     C22875   3.698   1.554   6.171  0.6514 -0.1719  0.2233
  911MOL0     C22876   3.677   1.433   6.108  0.3180  0.2660 -0.8276
  911MOL0     C22877   3.563   1.354   6.135  0.5327 -0.0448  0.8109
  911MOL0     C22878   3.453   1.412   6.209 -0.5576 -0.6100  0.1424
  911MOL0     C22879   3.324   1.347   6.233  0.3731  0.5529  1.0699
  911MOL0     O22880   3.314   1.207   6.227 -0.0764  0.5827 -0.2208
  911MOL0     C22881   3.205   1.153   6.287 -0.2975 -0.8700 -0.4646
  911MOL0     C22882   3.143   1.190   6.413  0.6304  0.5826 -1.2557
  911MOL0     C22883   3.022   1.135   6.457 -0.3172 -1.3831  0.0233
  911MOL0     C22884   2.959   1.042   6.371  0.4456 -0.7995 -0.9582
  911MOL0     O22885   2.849   0.979   6.413  0.8328  0.2453  0.0622
  911MOL0     C22886   2.749   0.961   6.309 -0.1815 -1.4758 -0.4821
  911MOL0     C22887   2.615   0.910   6.367  0.5962  0.2364  0.1386
  911MOL0     C22888   2.623   0.763   6.409 -0.1830  0.2224 -1.1207
  911MOL0     C22889   2.633   0.679   6.289  1.2779  0.6399  1.5126
  911MOL0     C22890   2.591   0.524   6.313  0.9985  0.2997 -0.1359
  911MOL0     C22891   2.427   0.528   6.299 -0.0912 -1.1768 -0.0915
  911MOL0     C22892   2.353   0.398   6.363 -0.1915 -0.3313 -0.6401
  911MOL0     C22893   2.318   0.288   6.263  0.2054 -0.0393 -0.6863
  911MOL0    Cl22894   2.218   0.151   6.335 -0.6320  0.2727 -0.1224
  911MOL0     C22895   3.024   1.000   6.256 -0.3359 -0.6478 -0.1068
  911MOL0     C22896   3.141   1.050   6.216 -0.6702  0.4890  0.3854
  911MOL0     O22897   3.229   1.421   6.257  0.1075 -0.2565  0.1245
  911MOL0     C22898   3.471   1.541   6.270  0.3237 -0.4958  0.3723
  911MOL0     C22899   3.593   1.607   6.250  0.1748  0.4797 -0.3877
  911MOL0     N22900   4.534   1.745   6.055  0.1592  0.1095  0.3427
  911MOL0     N22901   4.646   1.702   6.088  0.0616  0.2560  0.7148
  911MOL0     C22902   4.557   0.783   6.180  0.0659  0.5947  0.4618
  911MOL0     C22903   4.429   0.744   6.219 -0.5220 -0.1333 -1.1099
  911MOL0     C22904   3.982   0.745   6.273  0.3865 -0.6517 -1.0722
  911MOL0     C22905   3.926   0.627   6.234  0.5286 -0.3989  0.0583
  911MOL0     C22906   3.789   0.600   6.249 -0.0480  0.2762 -1.6492
  911MOL0     C22907   3.710   0.685   6.320 -0.6082  0.9782 -0.1328
  911MOL0     O22908   3.574   0.664   6.348 -0.4059  1.0037 -0.8831
  911MOL0     C22909   3.496   0.693   6.241  0.1580 -0.6174  0.9358
  911MOL0     C22910   3.353   0.702   6.283 -0.0848  0.2473  0.3188
  911MOL0     C22911   3.270   0.706   6.155 -0.6654  0.6021  0.3060
  911MOL0     C22912   3.248   0.574   6.090 -0.0069 -0.4792  0.1609
  911MOL0     C22913   3.190   0.579   5.953  0.0809 -0.3514 -0.1927
  911MOL0     C22914   3.152   0.583   5.842 -0.0974 -0.3248  0.2615
  911MOL0     C22915   3.770   0.804   6.362 -0.2284 -0.3800  0.1562
  911MOL0     C22916   3.901   0.844   6.342  0.4036 -0.0966  0.6578
  911MOL0     C22917   3.946   0.980   6.400 -0.0300  0.3888 -0.0579
  911MOL0     H22918   4.270   0.687   5.943  0.8017  1.2236 -1.4978
  911MOL0     H22919   4.486   0.747   5.846  2.5406  2.5196  0.6977
  911MOL0     H22920   4.697   0.815   5.771 -0.5969  0.0585 -1.2522
  911MOL0     H22921   4.591   0.946   5.826 -0.6339 -0.1137  2.8727
  911MOL0     H22922   4.791   1.036   5.723 -1.5197 -1.5977 -0.9386
  911MOL0     H22923   4.894   0.979   5.859 -0.4072  1.8409  0.5438
  911MOL0     H22924   4.662   1.153   5.880  1.5867  2.0163 -3.6199
  911MOL0     H22925   4.818   1.216   5.871 -0.2024  0.8861  1.5196
  911MOL0     H22926   4.702   1.093   6.107  0.5332 -3.5591 -1.6021
  911MOL0     H22927   4.861   1.031   6.086 -0.0190  0.5575  2.6858
  911MOL0     H22928   4.902   1.235   6.219  3.1230  1.7630 -0.6896
  911MOL0     H22929   4.929   1.278   6.044 -0.4659  1.5599  0.2064
  911MOL0     H22930   4.676   1.369   6.070 -3.1259 -1.4015  1.3294
  911MOL0     H22931   4.692   1.296   6.225 -1.8516  0.3027 -0.0400
  911MOL0     H22932   4.836   1.549   6.110 -2.1605  1.4819 -0.8733
  911MOL0     H22933   4.913   1.467   6.246 -0.0605  0.4477  1.5704
  911MOL0     H22934   4.678   1.509   6.368  1.0062 -1.6188 -0.6930
  911MOL0     H22935   4.801   1.633   6.338 -0.9579  0.6823  0.5441
  911MOL0     H22936   4.447   1.613   6.343 -0.4849 -0.3225 -0.0438
  911MOL0     H22937   4.270   1.824   6.240  1.5696 -1.1455  1.3209
  911MOL0     H22938   4.269   1.823   6.070  2.5750 -0.6047 -1.5753
  911MOL0     H22939   4.222   1.573   6.092  1.5153  0.3684  0.4331
  911MOL0     H22940   4.207   1.597   6.272 -2.3773  2.5434  1.2316
  911MOL0     H22941   4.047   1.747   6.071 -6.1953  2.1133  0.0437
  911MOL0     H22942   4.021   1.758   6.247 -0.0322 -0.3198 -0.8394
  911MOL0     H22943   3.964   1.507   6.245 -1.5189  1.5175  2.6218
  911MOL0     H22944   3.965   1.536   6.061 -1.0633  2.0854 -1.1126
  911MOL0     H22945   3.748   1.389   6.039  2.9946  3.7846 -0.6239
  911MOL0     H22946   3.536   1.266   6.077 -3.0346  0.6645  1.1900
  911MOL0     H22947   3.186   1.270   6.472 -0.5043  1.7729 -1.9689
  911MOL0     H22948   2.973   1.153   6.552  1.2343  3.5035  0.1842
  911MOL0     H22949   2.731   1.059   6.264  0.8905 -1.8374 -1.7477
  911MOL0     H22950   2.788   0.889   6.237  0.0448 -2.2344  0.3681
  911MOL0     H22951   2.584   0.976   6.448 -2.6169  1.0276 -1.5815
  911MOL0     H22952   2.537   0.922   6.291  0.8796 -0.6454 -0.3123
  911MOL0     H22953   2.706   0.746   6.478 -0.6135  1.2643 -0.3167
  911MOL0     H22954   2.526   0.741   6.454 -1.8479  2.1601 -3.5287
  911MOL0     H22955   2.740   0.685   6.263  1.1408  1.6856  1.1280
  911MOL0     H22956   2.575   0.710   6.202  0.9882 -0.2321  1.3876
  911MOL0     H22957   2.620   0.496   6.415 -0.1216 -0.4154  0.0041
  911MOL0     H22958   2.632   0.444   6.251  1.7817 -0.3274  1.1407
  911MOL0     H22959   2.395   0.611   6.363  2.0535 -1.3230  1.2645
  911MOL0     H22960   2.398   0.530   6.193  1.0376  1.4851 -0.4359
  911MOL0     H22961   2.264   0.439   6.413 -1.6174 -0.1979 -3.1007
  911MOL0     H22962   2.424   0.352   6.431  1.0156  1.1621 -0.8392
  911MOL0     H22963   2.262   0.333   6.181  2.3845  0.4034 -1.9995
  911MOL0     H22964   2.406   0.244   6.216 -2.5003 -3.6442 -2.8414
  911MOL0     H22965   2.980   0.919   6.198  0.8029  0.4993 -2.6936
  911MOL0     H22966   3.188   1.012   6.126  0.9189 -1.2824  1.8604
  911MOL0     H22967   3.391   1.598   6.317 -0.4785  0.0631 -1.5793
  911MOL0     H22968   3.604   1.701   6.302 -1.7962 -0.7560  2.5476
  911MOL0     H22969   4.639   0.799   6.249  2.3962 -3.5932 -0.9432
  911MOL0     H22970   4.418   0.728   6.326  0.1304  3.7551 -0.2848
  911MOL0     H22971   3.985   0.543   6.198  0.8184 -0.2501  0.1795
  911MOL0     H22972   3.750   0.501   6.224  1.3686 -0.4976 -0.9223
  911MOL0     H22973   3.508   0.630   6.152  1.8403  1.9812 -0.8163
  911MOL0     H22974   3.518   0.794   6.206 -1.3341 -0.9776 -1.2007
  911MOL0     H22975   3.325   0.795   6.332 -0.3170  0.9071 -1.0299
  911MOL0     H22976   3.327   0.611   6.337 -2.2790  0.0815 -0.9193
  911MOL0     H22977   3.314   0.779   6.087  1.3547 -1.3541 -0.6307
  911MOL0     H22978   3.169   0.742   6.177 -1.4709 -0.7149 -1.0262
  911MOL0     H22979   3.336   0.509   6.079  0.3397  0.2122 -1.3455
  911MOL0     H22980   3.170   0.523   6.147 -1.0034 -0.5040 -1.1880
  911MOL0     H22981   3.115   0.585   5.741 -2.8929 -3.4032  1.0373
  911MOL0     H22982   3.713   0.877   6.418  0.8653  0.5035  0.1444
  911MOL0     H22983   3.965   1.056   6.324  0.3386 -1.2586 -1.6650
  911MOL0     H22984   3.864   1.018   6.463 -0.6930 -2.6988  1.1183
  911MOL0     H22985   4.037   0.985   6.461 -0.0389 -1.3698  0.1382
  912MOL0     O22986   1.709   6.859   6.967  0.1443 -1.0551 -0.1662
  912MOL0     C22987   1.770   6.904   7.062  1.1449  1.1724 -0.1781
  912MOL0     O22988   1.765   7.030   7.109  0.2308  1.0026  1.0419
  912MOL0     C22989   1.653   7.105   7.091  0.6774  0.2406 -0.1594
  912MOL0     C22990   1.605   7.135   6.962  0.9365  0.1036 -0.2005
  912MOL0     C22991   1.493   7.229   6.956 -0.6093 -0.4191  0.4235
  912MOL0     C22992   1.442   7.281   7.078  0.2613  0.5815  0.1938
  912MOL0     O22993   1.337   7.377   7.087  0.1726  0.4496 -0.3206
  912MOL0     C22994   1.216   7.333   7.022  0.1358 -0.0721  0.4389
  912MOL0     C22995   1.138   7.461   7.029 -0.5042  0.2692  0.1593
  912MOL0     C22996   1.016   7.446   6.953  0.3577  0.6209  0.3584
  912MOL0     C22997   0.898   7.385   7.031 -0.4940  1.3501  0.7139
  912MOL0     C22998   0.760   7.412   6.959 -0.3087  0.3157  0.1519
  912MOL0     C22999   0.636   7.354   7.023 -0.4494  0.1560 -0.1456
  912MOL0     C23000   0.512   7.405   6.948 -0.3227 -0.2634 -1.0596
  912MOL0     C23001   0.388   7.378   7.028 -0.1300  0.6400 -0.4822
  912MOL0     N23002   0.341   7.241   6.992 -1.2868  0.5648 -0.3296
  912MOL0     C23003   0.375   7.117   7.031 -0.1788 -0.1981 -0.3400
  912MOL0     C23004   0.287   7.033   6.977  0.1241 -1.2561  0.6417
  912MOL0     C23005   0.272   6.885   6.979  0.7683  0.1899  0.9702
  912MOL0     C23006   0.261   6.842   7.134 -0.0498 -0.3638 -0.7576
  912MOL0     C23007   0.118   6.867   7.198  0.5225  0.7804  0.6181
  912MOL0     C23008   0.098   6.796   7.332  0.8687  0.9330 -0.0400
  912MOL0     O23009   0.209   6.780   7.423 -0.5710  0.2080  0.2166
  912MOL0     C23010   0.227   6.654   7.492 -0.1738  0.1590 -0.8154
  912MOL0     C23011   0.235   6.659   7.632  0.6132 -0.0807 -0.6078
  912MOL0     C23012   0.243   6.535   7.701 -0.5119  0.9363  0.4412
  912MOL0     C23013   0.268   6.417   7.638 -0.2470 -0.5304  0.2680
  912MOL0     C23014   0.278   6.289   7.720  0.3415 -0.3464  0.6949
  912MOL0     O23015   0.270   6.281   7.853 -0.1653 -0.3113 -0.1873
  912MOL0     C23016   0.255   6.166   7.923 -0.6217  1.4563 -0.1224
  912MOL0     C23017   0.129   6.109   7.941  0.4740  0.1138  0.9260
  912MOL0     C23018   0.113   5.996   8.020 -0.7978  0.1742  0.0093
  912MOL0     C23019   0.218   5.937   8.093 -0.8738  0.5825  0.2649
  912MOL0     O23020   0.195   5.817   8.159  0.5041  0.1336 -0.5870
  912MOL0     C23021   0.303   5.757   8.244  0.3242 -0.0652  0.1172
  912MOL0     C23022   0.257   5.615   8.280  0.0524 -0.3656 -0.1434
  912MOL0     C23023   0.123   5.637   8.367 -0.2062  0.0054 -0.4609
  912MOL0     C23024   0.157   5.663   8.518 -0.2528 -0.1398  1.3049
  912MOL0     C23025   0.037   5.697   8.605  0.5845 -0.3673  0.3788
  912MOL0     C23026   0.082   5.697   8.759  0.4900 -0.1322  0.8307
  912MOL0     C23027  -0.031   5.742   8.852 -0.4466 -0.0636  0.6860
  912MOL0     C23028   0.005   5.750   9.003 -0.0311 -0.8193  0.3601
  912MOL0    Cl23029   0.034   5.596   9.072  0.0443 -0.6438  0.1172
  912MOL0     C23030   0.343   5.990   8.078  0.6296 -0.5310  0.3158
  912MOL0     C23031   0.359   6.105   7.999  0.9023  0.2323  0.3513
  912MOL0     O23032   0.313   6.192   7.646 -0.0168  0.6617  0.1027
  912MOL0     C23033   0.264   6.412   7.495  0.7131 -0.3049  0.3457
  912MOL0     C23034   0.243   6.531   7.425  0.3720  0.5821 -0.0113
  912MOL0     N23035   0.188   7.110   6.914 -0.5923 -0.2057  0.1196
  912MOL0     N23036   0.234   7.236   6.910  0.4562  0.7774 -0.4914
  912MOL0     C23037   1.490   7.241   7.201 -0.4405  0.1348  0.3285
  912MOL0     C23038   1.605   7.158   7.205  0.7105 -0.1172 -0.7803
  912MOL0     C23039   1.872   6.815   7.133  0.3564  0.0299  0.4470
  912MOL0     C23040   1.976   6.882   7.203  0.4244  0.1488 -0.7793
  912MOL0     C23041   2.074   6.815   7.257 -0.8282  0.7363 -0.1702
  912MOL0     C23042   2.087   6.678   7.260 -0.0172  0.9131  0.8072
  912MOL0     O23043   2.197   6.619   7.318 -0.4445  0.2932 -0.4506
  912MOL0     C23044   2.326   6.625   7.257 -0.3117 -0.3331 -0.4441
  912MOL0     C23045   2.331   6.521   7.150  0.0619 -0.0779 -0.8466
  912MOL0     C23046   2.349   6.386   7.220  0.0677  0.5547 -0.0970
  912MOL0     C23047   2.360   6.262   7.144  0.6380  0.0915 -0.5471
  912MOL0     C23048   2.491   6.249   7.074 -0.6217 -0.3574  0.5358
  912MOL0     C23049   2.591   6.258   7.002 -0.2391 -0.7431  0.3329
  912MOL0     C23050   1.981   6.605   7.209 -0.1525  0.0695  0.4214
  912MOL0     C23051   1.869   6.676   7.148 -0.4250 -0.3081 -0.0313
  912MOL0     C23052   1.754   6.591   7.097 -0.4035  0.3617 -0.3862
  912MOL0     H23053   1.655   7.093   6.875  2.3388 -2.4121  1.6861
  912MOL0     H23054   1.445   7.257   6.863 -1.9932 -0.9886  0.9481
  912MOL0     H23055   1.231   7.295   6.921  0.4622  0.6825  0.1913
  912MOL0     H23056   1.166   7.250   7.072  1.5541 -0.4609  1.2381
  912MOL0     H23057   1.198   7.536   6.977  0.2761 -0.2454  0.2985
  912MOL0     H23058   1.126   7.510   7.126  2.7126  1.2185  0.1788
  912MOL0     H23059   1.032   7.372   6.875 -1.7348  0.5045 -0.0329
  912MOL0     H23060   0.984   7.535   6.898  1.8685 -1.0677 -3.5628
  912MOL0     H23061   0.926   7.284   7.061 -2.0068  1.5206  2.9125
  912MOL0     H23062   0.888   7.436   7.127 -1.1170 -0.7697  1.8053
  912MOL0     H23063   0.755   7.521   6.947  2.1672  0.5892  0.9544
  912MOL0     H23064   0.769   7.361   6.863 -0.0970  0.0597  0.3047
  912MOL0     H23065   0.645   7.247   7.003 -0.3137  0.4201 -1.6483
  912MOL0     H23066   0.631   7.385   7.128 -0.4673  2.6933 -0.8199
  912MOL0     H23067   0.500   7.362   6.848 -5.6489  4.8107 -3.1998
  912MOL0     H23068   0.514   7.512   6.923 -0.7775 -0.0251 -0.1363
  912MOL0     H23069   0.391   7.390   7.137 -2.1459 -3.5979  0.2403
  912MOL0     H23070   0.318   7.451   6.985  2.4466  3.8734  0.3774
  912MOL0     H23071   0.457   7.084   7.094 -0.3411 -0.3987 -0.2314
  912MOL0     H23072   0.185   6.854   6.919 -0.3428  2.0513  1.5379
  912MOL0     H23073   0.357   6.828   6.940  1.3500  1.4239  0.3954
  912MOL0     H23074   0.278   6.735   7.145  0.9796 -0.5359 -3.3254
  912MOL0     H23075   0.335   6.883   7.203 -0.2043 -2.3901  0.6844
  912MOL0     H23076   0.036   6.837   7.132  1.6436 -1.3996  0.1411
  912MOL0     H23077   0.110   6.976   7.204  1.7584  1.1650 -2.7730
  912MOL0     H23078   0.077   6.692   7.306  1.9023  0.9023 -0.8073
  912MOL0     H23079   0.004   6.832   7.376  1.1019 -0.3390  1.6228
  912MOL0     H23080   0.218   6.755   7.681  0.2500 -2.1410  3.8036
  912MOL0     H23081   0.243   6.542   7.810  3.6418  0.4637  0.6114
  912MOL0     H23082   0.044   6.156   7.892  2.4898  2.3746 -0.6304
  912MOL0     H23083   0.017   5.947   8.033 -0.1962 -0.8601  0.7951
  912MOL0     H23084   0.399   5.742   8.194  0.6486  2.4991 -0.1867
  912MOL0     H23085   0.315   5.815   8.336  0.0094  0.3104 -0.0751
  912MOL0     H23086   0.236   5.568   8.184 -1.1182  1.4590 -0.8424
  912MOL0     H23087   0.327   5.552   8.336  0.6299 -0.4951 -0.9952
  912MOL0     H23088   0.063   5.722   8.334 -1.8774 -1.6475 -1.8778
  912MOL0     H23089   0.057   5.550   8.375  2.0887 -1.8620 -0.7979
  912MOL0     H23090   0.240   5.734   8.523 -0.2173  0.0056 -0.7372
  912MOL0     H23091   0.195   5.572   8.566  0.9693  0.8749  2.3431
  912MOL0     H23092  -0.032   5.613   8.595  0.9965 -0.7419  0.6175
  912MOL0     H23093  -0.015   5.788   8.573  1.1101 -0.1338  0.1605
  912MOL0     H23094   0.102   5.593   8.785  0.9266 -0.4494 -0.6856
  912MOL0     H23095   0.171   5.757   8.778 -0.2135  0.7926  1.3460
  912MOL0     H23096  -0.114   5.671   8.849  0.9690 -1.7824  0.9649
  912MOL0     H23097  -0.066   5.836   8.808 -1.3593 -2.1021 -3.4308
  912MOL0     H23098   0.090   5.819   9.002  1.9426 -3.1073  0.7569
  912MOL0     H23099  -0.084   5.788   9.055  0.6529 -0.5496  1.3628
  912MOL0     H23100   0.426   5.947   8.134 -0.6891 -0.3615  2.5239
  912MOL0     H23101   0.459   6.146   7.995  1.8620 -2.0197 -2.3281
  912MOL0     H23102   0.247   6.321   7.438 -5.1327  0.8540 -0.4089
  912MOL0     H23103   0.229   6.539   7.318 -0.4850  0.5435  0.0920
  912MOL0     H23104   1.443   7.281   7.290 -2.1258 -1.7330  0.3555
  912MOL0     H23105   1.651   7.113   7.292 -0.9060 -0.5586 -0.1090
  912MOL0     H23106   1.983   6.990   7.197  2.3414  0.0144 -1.9005
  912MOL0     H23107   2.161   6.872   7.288 -0.8329  0.0844  1.1364
  912MOL0     H23108   2.408   6.609   7.326  0.0332  2.6337 -0.0383
  912MOL0     H23109   2.342   6.726   7.217  1.0918  0.6492  2.3778
  912MOL0     H23110   2.411   6.539   7.077  0.7624 -0.3929 -0.1765
  912MOL0     H23111   2.233   6.530   7.102  0.6857 -0.2404 -2.1911
  912MOL0     H23112   2.269   6.376   7.295 -1.0054 -3.1095 -1.5336
  912MOL0     H23113   2.439   6.395   7.282  1.1238 -2.8639 -0.9359
  912MOL0     H23114   2.348   6.180   7.215  0.8696  0.2264 -0.3503
  912MOL0     H23115   2.279   6.250   7.072 -1.2372  1.7093  1.1729
  912MOL0     H23116   2.684   6.262   6.949 -0.6107 -0.9954 -0.3460
  912MOL0     H23117   1.966   6.498   7.206 -2.2161  0.3419 -0.3790
  912MOL0     H23118   1.747   6.485   7.122 -1.4781  1.2294  3.6531
  912MOL0     H23119   1.663   6.624   7.146 -0.9064  0.1944 -1.1820
  912MOL0     H23120   1.760   6.595   6.987 -1.4197 -3.3137 -0.7046
  913MOL0     O23121   6.821   6.701  11.497 -0.1027  0.3900  0.7801
  913MOL0     C23122   6.799   6.577  11.508 -0.2849 -1.3282 -0.6526
  913MOL0     O23123   6.790   6.494  11.404  1.2550  0.9950  0.1345
  913MOL0     C23124   6.821   6.509  11.265  0.3115  0.0296 -0.8237
  913MOL0     C23125   6.827   6.391  11.180 -0.5640 -0.6114 -0.2481
  913MOL0     C23126   6.858   6.414  11.048  0.3096  0.0024  0.6462
  913MOL0     C23127   6.869   6.544  10.995  0.5076  0.2791 -0.8080
  913MOL0     O23128   6.900   6.570  10.866  0.1174 -0.9447 -0.0962
  913MOL0     C23129   6.856   6.489  10.758 -0.2465 -1.0387 -0.1861
  913MOL0     C23130   6.852   6.553  10.619 -0.2702  0.4139 -0.1369
  913MOL0     C23131   6.766   6.682  10.599  0.4661 -0.1031  0.8618
  913MOL0     C23132   6.818   6.812  10.669 -0.1049 -0.2649  1.1128
  913MOL0     C23133   6.723   6.928  10.652  0.1465 -0.7186  0.7360
  913MOL0     C23134   6.780   7.060  10.702 -0.4708  0.4385 -0.1325
  913MOL0     C23135   6.846   7.065  10.846 -0.3073 -1.0789 -0.7248
  913MOL0     C23136   6.733   7.045  10.958 -0.0783  0.2368  0.1877
  913MOL0     N23137   6.795   7.062  11.088  0.1869  0.3367 -0.6611
  913MOL0     C23138   6.846   7.174  11.146 -0.2078 -0.5831 -0.2834
  913MOL0     C23139   6.875   7.144  11.275  0.3173 -0.4568  0.5862
  913MOL0     C23140   6.954   7.230  11.370 -0.7673 -0.3874  0.3793
  913MOL0     C23141   6.891   7.371  11.386  0.0627  0.3623  0.0858
  913MOL0     C23142   6.740   7.364  11.430 -0.0695  0.2802 -0.4626
  913MOL0     C23143   6.701   7.507  11.476  0.1563  0.1817 -0.3900
  913MOL0     O23144   6.728   7.602  11.367  0.4427  0.6277 -0.7661
  913MOL0     C23145   6.784   7.714  11.408 -0.5606 -0.7104  0.4497
  913MOL0     C23146   6.744   7.785  11.525 -0.5667  0.0007  0.3633
  913MOL0     C23147   6.802   7.906  11.556  0.5799 -0.3620 -0.2811
  913MOL0     C23148   6.899   7.964  11.479 -0.4567 -0.1979  0.0512
  913MOL0     C23149   6.950   8.101  11.518 -0.8258  0.5464 -0.0549
  913MOL0     O23150   7.059   8.129  11.450 -0.3014  0.6379 -0.3143
  913MOL0     C23151   7.131   8.244  11.483  0.0266  0.5613 -0.0026
  913MOL0     C23152   7.174   8.323  11.366 -1.0821 -1.0087  0.4347
  913MOL0     C23153   7.280   8.424  11.382  0.0291  0.1649 -0.0867
  913MOL0     C23154   7.319   8.459  11.518  0.2624  0.1534 -0.4694
  913MOL0     O23155   7.410   8.563  11.529  0.8782 -0.9149 -0.5365
  913MOL0     C23156   7.360   8.659  11.634  0.0840  0.0362  0.9980
  913MOL0     C23157   7.424   8.798  11.589 -0.4194  0.2812  0.0056
  913MOL0     C23158   7.585   8.790  11.565 -0.5605 -0.3724  0.0194
  913MOL0     C23159   7.667   8.739  11.693  0.6797 -0.3408  0.9262
  913MOL0     C23160   7.816   8.776  11.688  0.3942  0.4343  0.5501
  913MOL0     C23161   7.905   8.682  11.769  0.2306  0.6696  0.2163
  913MOL0     C23162   8.051   8.704  11.739  0.3981 -0.3141 -0.1238
  913MOL0     C23163   8.133   8.620  11.838  0.4809  0.3778  0.8319
  913MOL0    Cl23164   8.304   8.645  11.781  0.4390  0.1701  0.0687
  913MOL0     C23165   7.256   8.397  11.623  0.4427  0.2204 -1.2162
  913MOL0     C23166   7.158   8.294  11.610 -0.7937 -0.8072  0.2725
  913MOL0     O23167   6.897   8.174  11.601  0.5255  0.1989  0.1582
  913MOL0     C23168   6.946   7.893  11.368 -0.6266 -1.1961 -0.0297
  913MOL0     C23169   6.889   7.774  11.325  0.2789  0.6027  0.0395
  913MOL0     N23170   6.841   7.005  11.292  0.1121  0.6800 -1.0045
  913MOL0     N23171   6.795   6.965  11.181  0.2291 -0.5801  0.2051
  913MOL0     C23172   6.844   6.654  11.070  0.3643  0.5321 -0.5808
  913MOL0     C23173   6.810   6.636  11.207 -0.7699 -0.0074 -0.8993
  913MOL0     C23174   6.767   6.533  11.651 -0.4913  0.2388 -0.3243
  913MOL0     C23175   6.826   6.591  11.771 -0.1622  0.0216  0.1629
  913MOL0     C23176   6.791   6.556  11.895 -0.5728  0.8521 -0.2449
  913MOL0     C23177   6.685   6.462  11.912 -0.0541  1.2410  0.4394
  913MOL0     O23178   6.637   6.464  12.041  0.1561  0.5094  0.2295
  913MOL0     C23179   6.536   6.368  12.077 -0.7018  0.0341  0.1017
  913MOL0     C23180   6.594   6.236  12.114 -0.2276 -0.3453 -0.2874
  913MOL0     C23181   6.501   6.133  12.196 -0.1723 -0.7618 -0.5299
  913MOL0     C23182   6.561   5.997  12.212  0.1754  0.4471  0.0260
  913MOL0     C23183   6.710   5.993  12.253 -0.0909 -1.1181 -0.0282
  913MOL0     C23184   6.830   5.973  12.276 -0.4026 -0.2935 -1.2070
  913MOL0     C23185   6.640   6.391  11.805 -0.5842  0.8304  0.7251
  913MOL0     C23186   6.674   6.426  11.670 -0.2991  0.2085 -0.6637
  913MOL0     C23187   6.602   6.346  11.562  0.1680  0.8974  0.0349
  913MOL0     H23188   6.813   6.288  11.212 -0.3713 -0.7313 -0.5517
  913MOL0     H23189   6.867   6.328  10.982 -1.3163 -1.6534  2.4691
  913MOL0     H23190   6.920   6.403  10.738 -3.4660 -3.7719  0.3985
  913MOL0     H23191   6.767   6.435  10.793  0.5322 -2.2401  0.0108
  913MOL0     H23192   6.794   6.494  10.547 -0.9197  0.8358  0.0265
  913MOL0     H23193   6.951   6.577  10.581 -0.2083 -0.1082 -0.3133
  913MOL0     H23194   6.670   6.659  10.647  1.3273 -0.9182  2.2837
  913MOL0     H23195   6.756   6.697  10.491 -0.2666 -0.9579  0.7921
  913MOL0     H23196   6.831   6.791  10.776 -0.1311 -2.3534  0.7442
  913MOL0     H23197   6.917   6.835  10.628  0.8137 -2.0771  2.1701
  913MOL0     H23198   6.708   6.924  10.544  1.3394 -0.0993  0.5321
  913MOL0     H23199   6.626   6.899  10.692  0.0604 -1.5484 -0.0231
  913MOL0     H23200   6.867   7.080  10.638 -0.2100  3.2634  0.9730
  913MOL0     H23201   6.710   7.140  10.675  1.6889  2.2649 -0.5766
  913MOL0     H23202   6.881   7.168  10.858 -3.0606 -0.3081  2.2379
  913MOL0     H23203   6.930   6.996  10.852 -1.8855 -3.6093 -4.1447
  913MOL0     H23204   6.651   7.115  10.941  2.0418  2.4598 -1.5671
  913MOL0     H23205   6.702   6.942  10.940  2.3370 -0.0679 -3.1792
  913MOL0     H23206   6.856   7.268  11.093 -2.1684  0.3177  0.8280
  913MOL0     H23207   6.953   7.187  11.471  4.5838  1.4574  1.5489
  913MOL0     H23208   7.056   7.236  11.330 -2.1451  2.8899 -3.3385
  913MOL0     H23209   6.952   7.419  11.463  0.6729 -1.9512  1.1529
  913MOL0     H23210   6.892   7.424  11.291  3.9868  0.8895  0.2472
  913MOL0     H23211   6.725   7.300  11.517  0.1292 -0.7694 -1.1778
  913MOL0     H23212   6.669   7.342  11.349  1.9304 -3.1404 -1.5047
  913MOL0     H23213   6.771   7.518  11.559  1.6438 -2.2971 -1.1806
  913MOL0     H23214   6.598   7.512  11.514  0.6235  0.9986  0.8005
  913MOL0     H23215   6.667   7.751  11.593  0.6559  1.3663  2.5777
  913MOL0     H23216   6.765   7.946  11.650 -1.0883 -2.9609  0.3071
  913MOL0     H23217   7.140   8.282  11.271 -1.2899  1.9035 -0.8518
  913MOL0     H23218   7.330   8.479  11.302  2.6682 -0.3631  1.1071
  913MOL0     H23219   7.252   8.676  11.628 -0.2096 -1.9868 -0.3033
  913MOL0     H23220   7.394   8.630  11.734  2.5746  0.0380  0.2145
  913MOL0     H23221   7.379   8.839  11.498  2.3214  1.9149 -0.7404
  913MOL0     H23222   7.401   8.864  11.674 -4.0606  0.6195 -1.1028
  913MOL0     H23223   7.606   8.721  11.482 -2.1385  0.8511 -1.4549
  913MOL0     H23224   7.621   8.887  11.530  3.6389 -0.8764  2.2060
  913MOL0     H23225   7.647   8.632  11.685  2.0556 -0.5463 -0.1749
  913MOL0     H23226   7.611   8.778  11.779 -0.5486  0.8550 -0.3536
  913MOL0     H23227   7.822   8.877  11.730  0.4359  0.8026 -0.3223
  913MOL0     H23228   7.847   8.782  11.583  0.2512  1.7102  0.5704
  913MOL0     H23229   7.875   8.689  11.874 -0.1565  1.2128  0.0770
  913MOL0     H23230   7.873   8.583  11.734  0.0205  0.4602  0.9860
  913MOL0     H23231   8.078   8.809  11.744  0.3323 -0.2120 -1.5374
  913MOL0     H23232   8.071   8.670  11.636 -2.4420 -0.5196 -0.6785
  913MOL0     H23233   8.124   8.643  11.945  1.4695 -2.0765  1.5231
  913MOL0     H23234   8.104   8.515  11.829  3.5628 -0.3763 -2.2745
  913MOL0     H23235   7.271   8.420  11.728  0.1779 -1.2816 -0.8238
  913MOL0     H23236   7.126   8.256  11.706  3.7068 -2.5096  1.3609
  913MOL0     H23237   7.025   7.931  11.305 -0.4343 -3.5142 -1.2838
  913MOL0     H23238   6.935   7.717  11.245  1.7840  4.4181 -2.0523
  913MOL0     H23239   6.844   6.752  11.023 -0.2589  1.5328  1.4130
  913MOL0     H23240   6.781   6.723  11.266 -0.5647 -0.8401  0.4925
  913MOL0     H23241   6.905   6.664  11.751 -2.4183  1.8624 -2.8058
  913MOL0     H23242   6.833   6.610  11.979  3.7392  0.9402 -2.2377
  913MOL0     H23243   6.466   6.360  11.993 -1.2971 -1.9176  0.7211
  913MOL0     H23244   6.481   6.407  12.163 -1.3231  3.0049 -1.5179
  913MOL0     H23245   6.682   6.260  12.174 -0.1774 -3.1202  0.9385
  913MOL0     H23246   6.633   6.187  12.024 -2.7851 -1.5040 -0.8635
  913MOL0     H23247   6.406   6.128  12.142 -1.2574 -0.7942  1.3175
  913MOL0     H23248   6.490   6.174  12.297  0.8565 -1.4622 -0.1148
  913MOL0     H23249   6.497   5.930  12.271 -0.8791  3.5486  2.6724
  913MOL0     H23250   6.571   5.961  12.109 -1.1550  0.3075 -0.0691
  913MOL0     H23251   6.929   5.940  12.300 -0.1694  1.2807  0.2309
  913MOL0     H23252   6.551   6.330  11.817 -1.3318  1.8162  0.2940
  913MOL0     H23253   6.659   6.306  11.477  0.3684  0.3283  0.4321
  913MOL0     H23254   6.549   6.258  11.600 -1.0336  1.0626 -1.1521
  913MOL0     H23255   6.527   6.405  11.508 -1.2091 -0.7181  0.0645
  914MOL0     O23256   8.965   7.363   2.566 -0.0115 -0.0527 -1.4426
  914MOL0     C23257   8.883   7.346   2.655  0.6663  0.0851  1.1872
  914MOL0     O23258   8.896   7.344   2.789 -1.1020  0.4547 -1.2458
  914MOL0     C23259   9.017   7.325   2.847  0.3347 -0.1161 -0.0993
  914MOL0     C23260   9.052   7.403   2.959 -1.1983 -1.0809 -0.0325
  914MOL0     C23261   9.180   7.399   3.014  0.1148 -0.8059  0.3478
  914MOL0     C23262   9.262   7.296   2.969  0.1931 -0.8692 -0.4744
  914MOL0     O23263   9.391   7.281   3.022  0.3646  0.1400  0.3620
  914MOL0     C23264   9.472   7.394   3.037  0.5746 -0.1566 -0.5668
  914MOL0     C23265   9.605   7.370   2.985 -0.9054 -0.3783  0.8533
  914MOL0     C23266   9.674   7.241   3.042  0.0864 -1.1088 -0.4230
  914MOL0     C23267   9.823   7.237   3.022 -0.1363  0.1243 -0.1177
  914MOL0     C23268   9.862   7.243   2.871 -1.9493 -0.8805  0.9057
  914MOL0     C23269   9.807   7.133   2.778 -0.6855  2.0371 -0.0474
  914MOL0     C23270   9.881   7.004   2.812 -0.2866 -0.3304  0.3678
  914MOL0     C23271   9.812   6.875   2.754 -0.2000  0.4399  0.2538
  914MOL0     N23272   9.704   6.806   2.829 -0.4643 -0.4511  0.4255
  914MOL0     C23273   9.599   6.870   2.891 -0.1905  0.1654  0.0094
  914MOL0     C23274   9.532   6.781   2.951 -0.3009  0.4623 -0.4114
  914MOL0     C23275   9.411   6.804   3.030 -0.6655  0.2623 -0.5145
  914MOL0     C23276   9.291   6.785   2.936 -0.3368 -0.4400 -0.2381
  914MOL0     C23277   9.264   6.637   2.900  0.1139 -0.1282  0.3374
  914MOL0     C23278   9.152   6.619   2.790  0.0494 -0.0061 -0.2488
  914MOL0     O23279   9.210   6.658   2.667  0.1596 -0.0316  0.1137
  914MOL0     C23280   9.120   6.664   2.567 -0.2622  0.0851 -0.3035
  914MOL0     C23281   9.070   6.554   2.509  0.0224 -0.2254 -0.0549
  914MOL0     C23282   8.984   6.562   2.406 -0.0333  0.4910 -1.1312
  914MOL0     C23283   8.942   6.677   2.347 -0.1553  0.2302  0.4572
  914MOL0     C23284   8.841   6.678   2.235  0.0683 -0.5103  0.0957
  914MOL0     O23285   8.827   6.561   2.177 -0.3855  0.2685  0.1461
  914MOL0     C23286   8.737   6.552   2.084 -0.6854 -0.1458  0.7031
  914MOL0     C23287   8.775   6.554   1.948 -0.4916  0.3111  0.2154
  914MOL0     C23288   8.686   6.552   1.841  0.6922 -0.4545 -0.7206
  914MOL0     C23289   8.551   6.561   1.866  0.0227 -0.1091 -0.1918
  914MOL0     O23290   8.461   6.578   1.767 -0.1815 -0.6271 -0.1590
  914MOL0     C23291   8.509   6.597   1.625  0.7920 -0.4234 -0.7504
  914MOL0     C23292   8.381   6.644   1.544 -0.0735 -0.0573  0.4778
  914MOL0     C23293   8.341   6.791   1.571  0.7478 -0.4045 -0.8501
  914MOL0     C23294   8.451   6.894   1.591 -0.2586  0.6024  0.8145
  914MOL0     C23295   8.394   7.023   1.652  0.0106 -0.2018 -0.1712
  914MOL0     C23296   8.311   7.110   1.557 -0.2858  0.1528  0.2366
  914MOL0     C23297   8.292   7.249   1.611  0.0785 -0.6336  0.0116
  914MOL0     C23298   8.184   7.333   1.554  0.3463 -1.1978 -0.0746
  914MOL0    Cl23299   8.257   7.460   1.440 -0.4042 -0.3313 -0.1242
  914MOL0     C23300   8.510   6.536   1.999 -0.4470  0.0397 -0.1563
  914MOL0     C23301   8.606   6.545   2.108  0.9298  0.0935  0.3791
  914MOL0     O23302   8.763   6.771   2.226  0.4859  0.2406  0.1903
  914MOL0     C23303   9.002   6.797   2.410 -0.0759  0.0909  1.0864
  914MOL0     C23304   9.089   6.784   2.517  0.4933 -0.3058 -0.5748
  914MOL0     N23305   9.600   6.662   2.960  0.6028  0.4703 -0.3730
  914MOL0     N23306   9.701   6.674   2.875 -1.0501  0.6192 -0.2249
  914MOL0     C23307   9.218   7.199   2.875 -0.4567  0.1168  0.2995
  914MOL0     C23308   9.097   7.216   2.805  0.7649 -0.4708 -0.4602
  914MOL0     C23309   8.743   7.319   2.603 -0.6527  0.3028 -0.3671
  914MOL0     C23310   8.630   7.350   2.689 -0.5604  0.8211 -0.3671
  914MOL0     C23311   8.503   7.340   2.646 -0.4562  1.0536 -1.2346
  914MOL0     C23312   8.482   7.280   2.526  0.8727  0.5949 -0.3235
  914MOL0     O23313   8.364   7.260   2.464 -0.0089 -0.6432 -0.2495
  914MOL0     C23314   8.253   7.242   2.543 -0.3245  0.1633 -0.8452
  914MOL0     C23315   8.132   7.259   2.464 -0.2057  0.4166  0.6041
  914MOL0     C23316   8.116   7.150   2.359 -0.1603 -0.3460 -0.4932
  914MOL0     C23317   7.968   7.113   2.343 -0.7373 -0.5601 -0.1459
  914MOL0     C23318   7.912   7.042   2.457  0.5122  0.2075 -0.5760
  914MOL0     C23319   7.850   6.996   2.548 -0.6511 -0.0706  0.4669
  914MOL0     C23320   8.583   7.231   2.445  0.3734 -0.4497  0.0642
  914MOL0     C23321   8.713   7.249   2.479  0.4632 -1.0643 -0.2827
  914MOL0     C23322   8.813   7.202   2.375 -0.9370 -0.1209  0.4104
  914MOL0     H23323   8.996   7.488   2.997  0.0470  1.2180 -2.8971
  914MOL0     H23324   9.200   7.471   3.092 -0.3248 -0.3172  0.0118
  914MOL0     H23325   9.436   7.491   3.000 -0.5246 -0.7787 -1.1847
  914MOL0     H23326   9.481   7.405   3.145  0.5524 -1.1959 -0.4491
  914MOL0     H23327   9.671   7.451   3.017 -0.0234 -0.7250 -0.0514
  914MOL0     H23328   9.601   7.355   2.877 -2.5261 -1.6222  1.0392
  914MOL0     H23329   9.630   7.153   2.993 -0.1843 -1.8386  1.0703
  914MOL0     H23330   9.643   7.226   3.145  2.6552 -2.9821  0.1794
  914MOL0     H23331   9.864   7.326   3.071 -2.1776  0.9320  0.2302
  914MOL0     H23332   9.859   7.139   3.055  1.3274  0.2721 -1.2126
  914MOL0     H23333   9.838   7.339   2.825  0.7045  0.1762  1.5128
  914MOL0     H23334   9.970   7.239   2.856 -2.2787 -1.1199 -1.9089
  914MOL0     H23335   9.699   7.120   2.782 -0.7885  3.0331  1.0744
  914MOL0     H23336   9.818   7.163   2.673 -1.3627 -1.1934 -1.1553
  914MOL0     H23337   9.891   6.987   2.919  2.8585 -0.0188  0.2245
  914MOL0     H23338   9.981   7.020   2.770 -0.0950  2.0197  1.5631
  914MOL0     H23339   9.772   6.906   2.657 -0.6971 -0.3226  0.2106
  914MOL0     H23340   9.885   6.794   2.746 -2.6050 -1.9809  1.3238
  914MOL0     H23341   9.565   6.973   2.889  1.7546  0.8722  1.1351
  914MOL0     H23342   9.408   6.736   3.116  1.0692 -0.8120 -1.2536
  914MOL0     H23343   9.411   6.903   3.075 -1.6043 -0.0779  0.2684
  914MOL0     H23344   9.205   6.823   2.992 -0.3240 -2.7155  1.4872
  914MOL0     H23345   9.298   6.841   2.843  1.4213  0.2981  0.2822
  914MOL0     H23346   9.239   6.582   2.991  2.4565  3.2062  3.2742
  914MOL0     H23347   9.349   6.580   2.860  3.4339  1.6153  4.1760
  914MOL0     H23348   9.068   6.684   2.818 -1.4455 -2.8444  2.5188
  914MOL0     H23349   9.113   6.517   2.790 -2.0377  0.6466 -3.1016
  914MOL0     H23350   9.093   6.451   2.535 -1.4755 -0.2649  1.2779
  914MOL0     H23351   8.946   6.470   2.363 -3.2829  2.0692 -1.9651
  914MOL0     H23352   8.881   6.531   1.937 -0.5205 -1.2179  2.4850
  914MOL0     H23353   8.739   6.528   1.750  0.7403  1.9650 -1.4211
  914MOL0     H23354   8.588   6.667   1.598 -0.5665  2.0279  1.2445
  914MOL0     H23355   8.542   6.501   1.584  2.3198 -0.8612  1.3372
  914MOL0     H23356   8.391   6.623   1.437 -0.0218 -0.8111  0.6243
  914MOL0     H23357   8.299   6.572   1.550  1.1350 -1.5741 -0.2890
  914MOL0     H23358   8.266   6.827   1.501  1.6140  1.7609 -0.7454
  914MOL0     H23359   8.275   6.777   1.657  0.4655 -2.3781 -1.3384
  914MOL0     H23360   8.479   6.918   1.488 -0.3146  0.6719  0.8152
  914MOL0     H23361   8.531   6.852   1.653  0.3493  0.4075 -0.0734
  914MOL0     H23362   8.476   7.076   1.703 -0.8011 -1.4026  2.5963
  914MOL0     H23363   8.327   7.012   1.738 -1.1005  1.8559 -0.7130
  914MOL0     H23364   8.352   7.117   1.456  0.5342 -0.9061  0.4745
  914MOL0     H23365   8.213   7.059   1.560  0.8005 -2.2075 -1.3639
  914MOL0     H23366   8.386   7.304   1.599 -0.5620  0.7178  0.9393
  914MOL0     H23367   8.278   7.235   1.718  1.8082 -0.1193  0.3275
  914MOL0     H23368   8.105   7.273   1.509  1.0401 -1.3077 -1.1732
  914MOL0     H23369   8.133   7.384   1.636  2.2121 -2.1625  1.8101
  914MOL0     H23370   8.405   6.530   2.027 -0.2715  2.8660  1.5393
  914MOL0     H23371   8.579   6.542   2.213 -0.6882  0.4926 -0.0025
  914MOL0     H23372   8.982   6.900   2.382 -0.8272 -0.0498  1.0722
  914MOL0     H23373   9.116   6.870   2.577 -0.8260  0.3050 -0.8385
  914MOL0     H23374   9.273   7.106   2.860  0.1418  0.5594 -0.2884
  914MOL0     H23375   9.057   7.156   2.724 -1.7046  1.5005 -0.8031
  914MOL0     H23376   8.648   7.396   2.785  1.1050  1.3822 -0.9037
  914MOL0     H23377   8.418   7.370   2.707 -1.1404  0.1891 -1.7422
  914MOL0     H23378   8.242   7.320   2.619  0.0465 -0.7568  0.1723
  914MOL0     H23379   8.247   7.145   2.592  2.7666  0.0028 -0.5747
  914MOL0     H23380   8.140   7.353   2.407  4.6772 -0.5215 -0.7660
  914MOL0     H23381   8.051   7.256   2.536 -1.6698  1.0146 -0.9535
  914MOL0     H23382   8.163   7.057   2.392  2.4958  0.6869 -1.0886
  914MOL0     H23383   8.160   7.179   2.263  1.5510  0.9139  0.6013
  914MOL0     H23384   7.895   7.188   2.311 -2.8808 -1.1002  3.0038
  914MOL0     H23385   7.965   7.045   2.257  1.5143  1.5746 -2.0457
  914MOL0     H23386   7.807   6.974   2.643  1.4733 -0.3285  1.4313
  914MOL0     H23387   8.549   7.191   2.350 -1.3396 -1.3954  1.0264
  914MOL0     H23388   8.760   7.112   2.343 -1.7978 -0.3051  2.2267
  914MOL0     H23389   8.837   7.268   2.291  1.8698  2.3514  2.9196
  914MOL0     H23390   8.908   7.165   2.414  1.2739  0.0046 -4.1571
  915MOL0     O23391   3.939   6.953   7.011 -0.1737  0.8378  0.6451
  915MOL0     C23392   3.884   7.063   6.987  0.1299 -0.6155  0.5341
  915MOL0     O23393   3.751   7.086   6.950  0.0620  0.1460 -0.2158
  915MOL0     C23394   3.667   6.977   6.952 -1.3102  0.0588  0.5972
  915MOL0     C23395   3.645   6.895   7.065  1.5240  0.5330  0.3155
  915MOL0     C23396   3.594   6.761   7.051  0.8909  0.6360  0.0612
  915MOL0     C23397   3.531   6.720   6.932 -0.0757  1.2136  0.6440
  915MOL0     O23398   3.447   6.607   6.915 -0.6768  0.2315  0.0256
  915MOL0     C23399   3.495   6.484   6.973 -0.0175 -0.3169 -0.3042
  915MOL0     C23400   3.416   6.371   6.916 -0.6980 -0.1856  0.6659
  915MOL0     C23401   3.428   6.336   6.764 -0.3786  0.4977  0.4416
  915MOL0     C23402   3.324   6.228   6.712  0.2657 -0.9732  0.1605
  915MOL0     C23403   3.357   6.089   6.766 -0.1933  0.0704  0.8033
  915MOL0     C23404   3.491   6.029   6.703 -0.3837 -0.3657  0.9236
  915MOL0     C23405   3.512   5.874   6.730  0.4336  0.0962 -0.5094
  915MOL0     C23406   3.501   5.839   6.884  0.5040  0.3526  0.6163
  915MOL0     N23407   3.633   5.817   6.943 -0.0990  0.1678 -0.2462
  915MOL0     C23408   3.716   5.915   6.990  0.3397 -0.1040 -0.3245
  915MOL0     C23409   3.819   5.854   7.045 -0.4042 -0.1132 -0.7020
  915MOL0     C23410   3.945   5.918   7.103  0.5543 -0.0078 -0.0108
  915MOL0     C23411   3.926   6.011   7.222 -0.5550 -0.0464 -0.1921
  915MOL0     C23412   3.867   6.149   7.192 -1.5423 -0.0717 -0.2637
  915MOL0     C23413   3.934   6.226   7.077 -0.3739 -0.1506  1.0024
  915MOL0     O23414   3.893   6.363   7.075  0.4625 -0.4918 -0.1022
  915MOL0     C23415   3.942   6.459   7.162 -0.1796 -0.4045  0.4613
  915MOL0     C23416   3.889   6.594   7.151  0.1644 -0.0853 -0.3860
  915MOL0     C23417   3.929   6.691   7.241  0.8167  0.4530 -0.4530
  915MOL0     C23418   3.999   6.666   7.353  0.2187  0.2956 -0.2517
  915MOL0     C23419   4.019   6.766   7.454 -0.1005  0.3468  0.0948
  915MOL0     O23420   3.937   6.875   7.456 -0.0224  0.6921 -0.1647
  915MOL0     C23421   3.996   7.001   7.485  0.7014 -0.4953 -1.1844
  915MOL0     C23422   3.904   7.077   7.570  0.5211  0.1176  0.6549
  915MOL0     C23423   3.946   7.200   7.631  0.0961  0.0963 -0.8227
  915MOL0     C23424   4.068   7.260   7.602  0.0614  0.0101 -0.7611
  915MOL0     O23425   4.110   7.378   7.656  0.1113 -0.0186 -0.0264
  915MOL0     C23426   4.149   7.484   7.569 -0.1348  0.0039  0.5115
  915MOL0     C23427   4.044   7.599   7.557  0.0216 -0.2728  1.0091
  915MOL0     C23428   3.915   7.549   7.483  0.5173  0.7432  0.5068
  915MOL0     C23429   3.902   7.523   7.328 -0.1039 -0.1084 -0.3832
  915MOL0     C23430   3.757   7.479   7.304 -0.2202 -0.2511 -0.0775
  915MOL0     C23431   3.731   7.422   7.163  0.1808 -0.5218 -0.1932
  915MOL0     C23432   3.588   7.422   7.116 -0.0946 -0.0060 -0.9298
  915MOL0     C23433   3.551   7.334   6.991 -0.9378  0.1007 -0.7356
  915MOL0    Cl23434   3.440   7.432   6.905 -0.3812  0.1107  0.3933
  915MOL0     C23435   4.150   7.195   7.506 -0.2066  0.0383  1.0763
  915MOL0     C23436   4.119   7.059   7.457 -0.7718 -0.2679 -0.6118
  915MOL0     O23437   4.123   6.757   7.527 -0.7368 -0.7654 -0.1709
  915MOL0     C23438   4.061   6.536   7.358 -0.5240  0.1327 -0.8739
  915MOL0     C23439   4.030   6.439   7.266 -0.1837 -0.1835 -0.3585
  915MOL0     N23440   3.792   5.715   7.050  0.4706  1.0483 -0.2036
  915MOL0     N23441   3.680   5.697   6.986  1.0254  0.1616 -0.9541
  915MOL0     C23442   3.546   6.800   6.826 -0.2295  0.0062 -0.4309
  915MOL0     C23443   3.618   6.927   6.836  0.2857 -0.7744  0.2198
  915MOL0     C23444   3.969   7.186   6.995  0.2694  0.3658 -0.1456
  915MOL0     C23445   4.055   7.184   7.112  0.6276 -0.1384 -0.3471
  915MOL0     C23446   4.134   7.294   7.140 -0.2126  0.5990  0.7489
  915MOL0     C23447   4.140   7.400   7.053 -0.5260  0.2479 -0.3526
  915MOL0     O23448   4.220   7.504   7.094 -0.6686  0.1396 -0.1395
  915MOL0     C23449   4.262   7.582   6.986 -0.2190  0.7217  0.8682
  915MOL0     C23450   4.412   7.635   7.001 -1.0521 -0.8081  0.1380
  915MOL0     C23451   4.434   7.718   7.126 -0.1089 -0.6043  0.1988
  915MOL0     C23452   4.574   7.792   7.126 -0.1402 -0.0297  0.4403
  915MOL0     C23453   4.583   7.904   7.216 -0.4648 -0.4682 -0.2779
  915MOL0     C23454   4.591   8.006   7.285  0.7063  0.5251  0.0467
  915MOL0     C23455   4.061   7.404   6.935  0.8781  0.1489 -0.5920
  915MOL0     C23456   3.963   7.297   6.909 -0.0122 -0.4837  0.1552
  915MOL0     C23457   3.885   7.315   6.788  0.2427  0.3755  0.1503
  915MOL0     H23458   3.661   6.936   7.164 -1.6649 -0.9874  1.6027
  915MOL0     H23459   3.560   6.702   7.136 -0.6081 -1.8266 -2.1122
  915MOL0     H23460   3.599   6.476   6.942 -0.3635  2.7812 -2.8383
  915MOL0     H23461   3.482   6.468   7.080 -2.3663  0.5579 -0.3952
  915MOL0     H23462   3.309   6.381   6.938 -0.9207  0.9943 -0.7694
  915MOL0     H23463   3.457   6.287   6.973 -1.0260 -0.0345  1.1270
  915MOL0     H23464   3.533   6.313   6.744  0.5452  4.1161  0.4544
  915MOL0     H23465   3.413   6.425   6.702 -0.9448 -1.1635 -1.9761
  915MOL0     H23466   3.223   6.256   6.745 -0.0239 -1.7854 -0.0246
  915MOL0     H23467   3.323   6.224   6.603 -0.9521  0.0679  0.0998
  915MOL0     H23468   3.348   6.076   6.874  0.3607 -3.1649  0.5874
  915MOL0     H23469   3.272   6.027   6.735  1.3704 -0.8994 -1.9620
  915MOL0     H23470   3.488   6.048   6.595 -0.1104  1.4780  1.2073
  915MOL0     H23471   3.581   6.081   6.736  1.1564  1.4335 -4.8496
  915MOL0     H23472   3.605   5.823   6.703  1.4303 -0.1064  2.7916
  915MOL0     H23473   3.434   5.822   6.675  0.0790 -1.8283  1.6646
  915MOL0     H23474   3.454   5.917   6.946  0.8887  0.0857  1.2566
  915MOL0     H23475   3.439   5.749   6.890 -1.6640  1.7477  0.2464
  915MOL0     H23476   3.724   6.023   6.999  2.6190 -0.3119  1.2157
  915MOL0     H23477   4.020   5.843   7.130 -0.3331 -0.2064  2.0212
  915MOL0     H23478   3.993   5.971   7.019  0.4962  1.5523  0.9021
  915MOL0     H23479   3.851   5.966   7.288 -0.8889 -0.9712 -1.1743
  915MOL0     H23480   4.014   6.032   7.283 -1.1188 -2.3677  1.5906
  915MOL0     H23481   3.869   6.206   7.286  0.1879 -0.0523 -0.2817
  915MOL0     H23482   3.760   6.146   7.170 -1.2391  0.7721 -2.0175
  915MOL0     H23483   3.907   6.189   6.978 -2.0191  0.5376  1.1521
  915MOL0     H23484   4.041   6.203   7.082 -0.8536 -3.1173 -0.1787
  915MOL0     H23485   3.817   6.620   7.074 -0.5417 -1.6767 -0.3126
  915MOL0     H23486   3.884   6.789   7.225  2.4088  1.6780  1.8751
  915MOL0     H23487   3.805   7.039   7.592  1.0039 -3.5154 -2.3193
  915MOL0     H23488   3.864   7.249   7.683 -0.7088 -2.9022  0.9638
  915MOL0     H23489   4.229   7.541   7.617  0.2384 -2.7506  3.5466
  915MOL0     H23490   4.169   7.455   7.466 -1.2730  0.5841  0.1054
  915MOL0     H23491   4.016   7.638   7.656 -0.2041  2.5636 -0.0769
  915MOL0     H23492   4.089   7.677   7.495 -0.6271 -0.4975  0.2417
  915MOL0     H23493   3.892   7.451   7.525 -0.1148  0.5863 -0.1721
  915MOL0     H23494   3.825   7.610   7.497 -0.1688  0.2711 -1.4897
  915MOL0     H23495   3.966   7.445   7.285 -1.1965 -2.2775  1.7554
  915MOL0     H23496   3.922   7.620   7.281  0.4603 -0.1776 -0.2985
  915MOL0     H23497   3.695   7.569   7.313 -2.5078 -1.8514  1.2081
  915MOL0     H23498   3.719   7.406   7.377 -3.0980 -1.4793 -2.6076
  915MOL0     H23499   3.782   7.488   7.093  0.4905  0.2278  0.7130
  915MOL0     H23500   3.782   7.325   7.157 -0.6912 -0.9401 -1.0439
  915MOL0     H23501   3.552   7.524   7.100 -1.2214 -0.5029 -1.6550
  915MOL0     H23502   3.529   7.388   7.201  1.8962  1.6363  1.2684
  915MOL0     H23503   3.646   7.331   6.938  0.4494  2.9777  1.3200
  915MOL0     H23504   3.512   7.237   7.023  1.1614  0.2492  2.7613
  915MOL0     H23505   4.239   7.245   7.469  1.6619 -2.9895  1.1240
  915MOL0     H23506   4.199   7.016   7.397 -0.2255  0.5080 -0.4475
  915MOL0     H23507   4.139   6.512   7.429 -1.5989 -3.0077 -0.5917
  915MOL0     H23508   4.077   6.341   7.264 -1.0574 -0.6089 -0.5522
  915MOL0     H23509   3.497   6.770   6.734 -2.9279  0.1957  0.8246
  915MOL0     H23510   3.632   6.995   6.753  1.0479  0.6615  1.4888
  915MOL0     H23511   4.058   7.097   7.176  1.6657 -1.5209 -2.1729
  915MOL0     H23512   4.193   7.303   7.231  1.3202 -0.6483 -0.0591
  915MOL0     H23513   4.185   7.657   6.966  1.0542  1.9319  0.3726
  915MOL0     H23514   4.273   7.528   6.891 -1.6434  2.1859 -0.1810
  915MOL0     H23515   4.436   7.698   6.916  3.9263 -0.5954  1.3921
  915MOL0     H23516   4.482   7.550   6.996  0.0884 -0.0430  1.9288
  915MOL0     H23517   4.426   7.658   7.217  1.6679 -1.4448 -0.1517
  915MOL0     H23518   4.358   7.796   7.121 -0.1521 -0.6045  0.8523
  915MOL0     H23519   4.659   7.724   7.119 -0.1992  0.0355 -1.4176
  915MOL0     H23520   4.582   7.821   7.021 -2.5106 -3.8803 -1.0243
  915MOL0     H23521   4.618   8.093   7.341  2.7333 -0.6076  0.9148
  915MOL0     H23522   4.048   7.487   6.866 -4.4318  1.8225  1.8832
  915MOL0     H23523   3.833   7.227   6.750  1.9115 -0.7683  0.3724
  915MOL0     H23524   3.814   7.396   6.802  0.2425  0.3941  0.0428
  915MOL0     H23525   3.956   7.345   6.710  2.7351  0.3056  2.2373
  916MOL0     O23526   7.492   5.205   4.198 -0.3075 -0.0988 -0.7263
  916MOL0     C23527   7.395   5.199   4.277 -0.9168 -0.0437  0.2973
  916MOL0     O23528   7.273   5.140   4.245 -0.0877  0.5128 -0.1430
  916MOL0     C23529   7.237   5.155   4.115 -0.0206  0.0343  0.6125
  916MOL0     C23530   7.143   5.257   4.071 -0.9430 -0.2199 -0.5815
  916MOL0     C23531   7.127   5.288   3.941  0.0162  0.1237  0.0216
  916MOL0     C23532   7.196   5.219   3.833 -0.1677  0.2131 -0.8786
  916MOL0     O23533   7.189   5.243   3.701  0.0655  0.4364 -0.5419
  916MOL0     C23534   7.263   5.351   3.645 -0.2291  0.1389  0.1682
  916MOL0     C23535   7.196   5.395   3.512 -0.0800 -0.8197 -0.8657
  916MOL0     C23536   7.238   5.293   3.406  0.4145  0.2026 -0.1853
  916MOL0     C23537   7.356   5.354   3.325  0.1112 -0.0070  0.2277
  916MOL0     C23538   7.476   5.389   3.400 -0.8799  0.8429 -0.9003
  916MOL0     C23539   7.606   5.410   3.311  0.0181 -0.1118  1.2714
  916MOL0     C23540   7.664   5.555   3.306 -0.2876 -0.1779  0.9030
  916MOL0     C23541   7.749   5.561   3.167  0.0191  0.3764 -0.0325
  916MOL0     N23542   7.685   5.652   3.074  0.1746  0.3076 -1.1971
  916MOL0     C23543   7.594   5.597   2.986 -0.2314 -0.5737  0.1399
  916MOL0     C23544   7.589   5.691   2.887 -0.3529 -0.7901 -0.6534
  916MOL0     C23545   7.508   5.676   2.762 -0.2487 -0.3844  0.2289
  916MOL0     C23546   7.361   5.688   2.818  0.0005  0.5858 -0.1475
  916MOL0     C23547   7.250   5.752   2.731 -0.3631  0.2421  0.5337
  916MOL0     C23548   7.231   5.672   2.602 -0.1616 -0.2352 -0.7806
  916MOL0     O23549   7.130   5.733   2.513 -0.1748 -0.0402  0.3690
  916MOL0     C23550   6.993   5.718   2.533 -0.7931  0.0840  0.3118
  916MOL0     C23551   6.910   5.806   2.472 -0.2511 -0.5723  0.3119
  916MOL0     C23552   6.779   5.824   2.504  0.8239  0.1782 -0.8587
  916MOL0     C23553   6.713   5.731   2.588 -0.1109 -0.8272  0.1665
  916MOL0     C23554   6.568   5.726   2.608 -0.4395  0.3456 -0.4354
  916MOL0     O23555   6.510   5.634   2.694 -0.6064  0.4540  0.1945
  916MOL0     C23556   6.373   5.638   2.698 -0.3705 -0.1365  1.0580
  916MOL0     C23557   6.301   5.542   2.628  0.0342 -0.0800  0.1169
  916MOL0     C23558   6.167   5.540   2.638  1.2275 -0.6930  0.1140
  916MOL0     C23559   6.099   5.640   2.707 -1.1427 -0.1875 -0.0535
  916MOL0     O23560   5.968   5.636   2.707 -0.0474 -0.1868  0.1125
  916MOL0     C23561   5.901   5.744   2.779 -0.2911  0.0987  0.1894
  916MOL0     C23562   5.752   5.724   2.749 -0.0210  0.1744 -0.3215
  916MOL0     C23563   5.708   5.580   2.780  0.5792 -0.0802  0.4337
  916MOL0     C23564   5.551   5.549   2.749  0.1152  0.7520  0.7202
  916MOL0     C23565   5.524   5.404   2.800 -0.2242  0.1498  0.1671
  916MOL0     C23566   5.373   5.378   2.831 -0.2371 -0.7345  0.0462
  916MOL0     C23567   5.302   5.379   2.688 -0.4249 -0.2121 -0.0436
  916MOL0     C23568   5.320   5.242   2.625  0.2428 -0.2849 -0.6308
  916MOL0    Cl23569   5.290   5.262   2.450  0.2871  0.0287  0.1516
  916MOL0     C23570   6.172   5.751   2.759  1.4283  0.3587 -0.2154
  916MOL0     C23571   6.311   5.750   2.752  0.1908  0.2010 -0.3985
  916MOL0     O23572   6.505   5.794   2.528  0.3182 -0.7110 -0.0039
  916MOL0     C23573   6.800   5.641   2.652 -0.7504 -0.7312  0.4349
  916MOL0     C23574   6.931   5.633   2.622 -1.2386 -0.8004  0.0196
  916MOL0     N23575   7.673   5.797   2.921  0.6440  0.2236  0.4355
  916MOL0     N23576   7.729   5.779   3.037  0.1667 -0.7384 -0.0415
  916MOL0     C23577   7.285   5.121   3.872 -0.2907 -0.7638 -1.0802
  916MOL0     C23578   7.306   5.097   4.015  0.3231  0.6598  0.3656
  916MOL0     C23579   7.401   5.262   4.412 -0.5601 -0.3266  0.8674
  916MOL0     C23580   7.293   5.229   4.500  0.2363  0.4297 -0.7580
  916MOL0     C23581   7.270   5.303   4.616 -0.7592 -0.0699  0.6504
  916MOL0     C23582   7.367   5.388   4.659  0.1377 -0.0048 -0.1979
  916MOL0     O23583   7.369   5.452   4.779 -0.5819  0.4115  0.1616
  916MOL0     C23584   7.256   5.449   4.869  0.9356 -0.0412 -0.0385
  916MOL0     C23585   7.279   5.550   4.975  0.4540 -0.2192 -0.9602
  916MOL0     C23586   7.168   5.536   5.093 -0.6571 -0.0730 -0.5847
  916MOL0     C23587   7.151   5.662   5.188  0.0058  0.5324  0.5685
  916MOL0     C23588   7.030   5.727   5.156  0.2617  0.6240  0.2542
  916MOL0     C23589   6.924   5.775   5.136  0.1386 -0.1173 -0.0418
  916MOL0     C23590   7.475   5.423   4.576  0.4664 -0.8013 -0.7550
  916MOL0     C23591   7.501   5.355   4.459  0.4007 -0.5060 -0.1965
  916MOL0     C23592   7.632   5.388   4.395  0.1192 -0.7857 -0.1619
  916MOL0     H23593   7.098   5.316   4.150  1.7613  1.7311 -0.3737
  916MOL0     H23594   7.073   5.379   3.918  3.4532  3.2494  2.8410
  916MOL0     H23595   7.263   5.432   3.719 -0.4266  1.0220 -0.7735
  916MOL0     H23596   7.367   5.333   3.614 -0.2361  1.2006 -0.5488
  916MOL0     H23597   7.218   5.499   3.487 -2.9659  0.2386  0.5748
  916MOL0     H23598   7.089   5.392   3.531  0.2724 -0.8670  1.3639
  916MOL0     H23599   7.150   5.274   3.343 -1.0101 -2.0596  2.2560
  916MOL0     H23600   7.262   5.199   3.456 -3.7462 -1.2082 -0.4342
  916MOL0     H23601   7.381   5.282   3.247  0.0618  0.3257 -0.0974
  916MOL0     H23602   7.322   5.449   3.284 -2.2382 -0.7032  0.4352
  916MOL0     H23603   7.464   5.476   3.465  1.6498  1.9585 -1.7931
  916MOL0     H23604   7.509   5.324   3.481  3.0712  3.7856  0.1963
  916MOL0     H23605   7.693   5.348   3.336 -1.2641 -1.7292  1.9078
  916MOL0     H23606   7.574   5.381   3.211 -1.3027 -2.5371  2.2997
  916MOL0     H23607   7.722   5.571   3.398  2.4138 -1.1881 -0.5025
  916MOL0     H23608   7.583   5.628   3.304 -0.3128 -0.2265  0.1359
  916MOL0     H23609   7.852   5.596   3.178  1.4119 -1.3704 -4.7190
  916MOL0     H23610   7.759   5.456   3.136  3.2105 -0.4217  3.0656
  916MOL0     H23611   7.551   5.498   2.986  0.2415 -0.7903  1.2019
  916MOL0     H23612   7.530   5.755   2.690 -1.5406 -2.2155 -2.3793
  916MOL0     H23613   7.541   5.580   2.720  1.3781  1.4825 -3.1642
  916MOL0     H23614   7.331   5.585   2.839 -1.4007  0.9527 -0.3133
  916MOL0     H23615   7.356   5.753   2.905 -4.3658  1.2115 -0.6466
  916MOL0     H23616   7.262   5.860   2.720 -1.0446  0.2404 -0.3331
  916MOL0     H23617   7.159   5.747   2.792 -0.6183 -1.2671  0.0668
  916MOL0     H23618   7.207   5.569   2.627 -0.8432 -0.3902 -2.0037
  916MOL0     H23619   7.323   5.656   2.544  0.5787 -1.6586  0.7153
  916MOL0     H23620   6.943   5.883   2.402 -0.3665  0.3039  1.1912
  916MOL0     H23621   6.736   5.908   2.450 -1.0710  1.5120  2.4545
  916MOL0     H23622   6.352   5.466   2.570  1.3203  0.8694 -0.0477
  916MOL0     H23623   6.109   5.467   2.582  1.9378 -1.3495  0.2178
  916MOL0     H23624   5.922   5.739   2.886 -1.2708 -0.0926  0.3779
  916MOL0     H23625   5.930   5.837   2.729 -1.6119  0.8233  0.7377
  916MOL0     H23626   5.696   5.783   2.822 -2.2755 -0.7998 -1.1816
  916MOL0     H23627   5.730   5.765   2.650 -2.1832  0.1293  0.0989
  916MOL0     H23628   5.774   5.513   2.723  1.2356 -0.1978  1.3010
  916MOL0     H23629   5.721   5.553   2.885  1.7745  0.7225  0.5121
  916MOL0     H23630   5.536   5.548   2.641 -1.6618 -0.8997  0.9249
  916MOL0     H23631   5.490   5.627   2.797  2.8308  3.0511  0.6631
  916MOL0     H23632   5.579   5.392   2.893 -0.8117 -1.2707  0.3552
  916MOL0     H23633   5.559   5.330   2.728 -2.6002  1.6829 -2.8094
  916MOL0     H23634   5.359   5.275   2.865 -0.7030 -2.5174 -4.7351
  916MOL0     H23635   5.338   5.450   2.906 -0.2515  1.2469 -1.7627
  916MOL0     H23636   5.339   5.456   2.620 -2.3600  1.1441  0.3653
  916MOL0     H23637   5.196   5.406   2.694  0.2347  2.5078  0.7535
  916MOL0     H23638   5.422   5.205   2.636 -0.5512 -2.5961 -0.2736
  916MOL0     H23639   5.257   5.162   2.666  0.4069 -0.6537 -1.0939
  916MOL0     H23640   6.121   5.839   2.797  2.1626  0.9388 -0.5343
  916MOL0     H23641   6.369   5.828   2.801  1.0848 -0.3717 -0.5392
  916MOL0     H23642   6.771   5.556   2.714 -2.7824 -1.1197 -0.9410
  916MOL0     H23643   6.981   5.542   2.654  0.4860  0.4143  0.9239
  916MOL0     H23644   7.352   5.081   3.796 -0.9825  1.2537 -2.8449
  916MOL0     H23645   7.396   5.038   4.029  0.4761  0.9757  0.7216
  916MOL0     H23646   7.212   5.165   4.465  0.9039  1.0990 -3.8415
  916MOL0     H23647   7.180   5.287   4.675  0.6538 -0.1570  2.9135
  916MOL0     H23648   7.243   5.344   4.897 -2.2706 -0.3843 -2.3039
  916MOL0     H23649   7.169   5.473   4.808  1.7068  1.2756 -0.6699
  916MOL0     H23650   7.280   5.654   4.939  1.5981  0.7016  1.5146
  916MOL0     H23651   7.380   5.540   5.014 -0.0648 -0.3282  0.3972
  916MOL0     H23652   7.193   5.449   5.155  0.2362 -2.6640 -4.2918
  916MOL0     H23653   7.071   5.517   5.047 -0.8464  0.0522 -0.2452
  916MOL0     H23654   7.149   5.630   5.293 -1.6434 -0.7027  0.2220
  916MOL0     H23655   7.222   5.739   5.158 -0.0321 -0.5964 -2.8883
  916MOL0     H23656   6.833   5.831   5.126  0.1485 -0.2199 -0.7763
  916MOL0     H23657   7.544   5.499   4.611 -0.6254 -0.0707 -0.1042
  916MOL0     H23658   7.713   5.393   4.468  1.1726 -2.3511 -1.1658
  916MOL0     H23659   7.664   5.313   4.322  1.1222 -0.2710 -0.2799
  916MOL0     H23660   7.634   5.487   4.348  0.0753 -0.9589 -0.5343
  917MOL0     O23661   3.812   0.642   2.123  0.2171  0.4763  0.1222
  917MOL0     C23662   3.785   0.614   2.004 -1.0837 -0.5912  0.2531
  917MOL0     O23663   3.665   0.573   1.963 -0.1570  0.4271  0.2702
  917MOL0     C23664   3.578   0.520   2.053  0.4362  0.0321  0.2049
  917MOL0     C23665   3.503   0.605   2.142 -0.1697  0.4609 -0.3247
  917MOL0     C23666   3.406   0.530   2.224 -1.4820 -0.2074  0.2074
  917MOL0     C23667   3.389   0.395   2.227 -1.0229  0.0920 -0.0555
  917MOL0     O23668   3.314   0.339   2.322  0.0850 -0.0562  0.5009
  917MOL0     C23669   3.297   0.196   2.320  0.2407 -0.4855  0.8790
  917MOL0     C23670   3.221   0.151   2.442  0.0882 -0.4767 -0.2505
  917MOL0     C23671   3.178   0.006   2.413 -0.3390 -0.1706 -0.3972
  917MOL0     C23672   3.112  -0.048   2.548  0.0283  0.6427 -0.2413
  917MOL0     C23673   3.042  -0.187   2.523  0.7079  0.4287  0.2737
  917MOL0     C23674   3.141  -0.295   2.551 -0.0670  0.7516 -1.0311
  917MOL0     C23675   3.086  -0.432   2.526 -0.4436 -0.2478 -0.3286
  917MOL0     C23676   3.028  -0.458   2.384 -0.6566 -0.5720  0.0530
  917MOL0     N23677   3.001  -0.599   2.368 -0.1259  0.2832  0.2783
  917MOL0     C23678   3.105  -0.690   2.341 -0.4802 -0.3887 -0.2138
  917MOL0     C23679   3.032  -0.807   2.308  0.4123  0.0610 -0.8317
  917MOL0     C23680   3.086  -0.938   2.253  0.3828 -0.4734 -0.3866
  917MOL0     C23681   3.031  -1.068   2.313  0.2571  0.3951  0.1271
  917MOL0     C23682   3.077  -1.092   2.459 -0.2424 -0.1372  0.3195
  917MOL0     C23683   3.019  -1.228   2.498  0.2732 -0.7779 -1.1635
  917MOL0     O23684   3.065  -1.258   2.629  0.6538  0.0815 -0.5365
  917MOL0     C23685   3.176  -1.334   2.634  0.3865  0.0518  0.4333
  917MOL0     C23686   3.212  -1.380   2.762  0.0641 -0.3050 -0.7048
  917MOL0     C23687   3.315  -1.476   2.792 -0.7853 -0.8428  0.0640
  917MOL0     C23688   3.404  -1.511   2.693  1.0079 -0.6597  0.7058
  917MOL0     C23689   3.502  -1.614   2.726 -0.5324 -0.7815 -0.0800
  917MOL0     O23690   3.449  -1.735   2.772 -0.1602  0.5036 -0.2694
  917MOL0     C23691   3.543  -1.834   2.798 -0.5069  0.4346 -0.0960
  917MOL0     C23692   3.562  -1.891   2.926 -0.5063 -0.3911  0.0658
  917MOL0     C23693   3.653  -1.992   2.943  0.2861  0.0465  0.1917
  917MOL0     C23694   3.734  -2.050   2.844 -0.2810  0.3986 -1.3474
  917MOL0     O23695   3.813  -2.166   2.849 -0.3647 -0.0805 -0.6723
  917MOL0     C23696   3.792  -2.260   2.961  0.5498  0.9526 -0.4522
  917MOL0     C23697   3.929  -2.317   3.004 -0.1130  0.3107  0.1443
  917MOL0     C23698   4.023  -2.199   3.050  0.1344 -0.1778  0.0815
  917MOL0     C23699   4.150  -2.253   3.114  0.8549  0.1124  1.0715
  917MOL0     C23700   4.222  -2.319   3.001 -1.1293  0.3376 -0.0845
  917MOL0     C23701   4.375  -2.317   3.042  0.7607 -0.5923 -0.0957
  917MOL0     C23702   4.461  -2.394   2.935 -0.1713 -0.1315 -0.7051
  917MOL0     C23703   4.604  -2.332   2.904  1.2257  0.0418  0.2804
  917MOL0    Cl23704   4.670  -2.302   3.071 -0.0062 -0.3988  0.1104
  917MOL0     C23705   3.717  -1.989   2.724  0.2024  0.9307  0.1701
  917MOL0     C23706   3.626  -1.884   2.701 -0.9059 -0.1105  0.2158
  917MOL0     O23707   3.619  -1.585   2.708 -0.5096 -0.0526 -0.5077
  917MOL0     C23708   3.374  -1.465   2.564 -0.6498  0.3420  0.6084
  917MOL0     C23709   3.262  -1.381   2.529  0.1489  0.2142 -0.0378
  917MOL0     N23710   2.894  -0.791   2.335 -0.0493 -0.4844  0.1305
  917MOL0     N23711   2.880  -0.670   2.377 -0.5010 -0.7350  0.1466
  917MOL0     C23712   3.461   0.319   2.133 -0.4858 -0.1092  0.3173
  917MOL0     C23713   3.552   0.381   2.048 -0.4531  0.4162 -0.5962
  917MOL0     C23714   3.875   0.654   1.891  0.3550 -0.1315 -0.0268
  917MOL0     C23715   3.825   0.702   1.767  0.8556 -0.2549 -0.8315
  917MOL0     C23716   3.913   0.748   1.669 -0.0306 -0.3359 -0.3203
  917MOL0     C23717   4.054   0.752   1.680 -0.5063 -0.5037  0.4332
  917MOL0     O23718   4.141   0.813   1.591  0.2013  0.0371  0.4675
  917MOL0     C23719   4.087   0.918   1.509 -0.2671  0.8363 -1.3391
  917MOL0     C23720   4.198   0.965   1.413  0.1949  0.1971  0.0992
  917MOL0     C23721   4.232   0.861   1.307 -0.4596 -0.1266  0.6498
  917MOL0     C23722   4.362   0.900   1.219  0.2635 -0.8108  0.3110
  917MOL0     C23723   4.369   1.043   1.185 -0.5453  0.1327  0.2698
  917MOL0     C23724   4.369   1.161   1.152 -0.7510 -0.5283 -1.4357
  917MOL0     C23725   4.101   0.702   1.802 -0.1731 -0.0055  0.1965
  917MOL0     C23726   4.017   0.647   1.898 -0.0108  0.0491 -0.1975
  917MOL0     C23727   4.086   0.566   2.010  0.0178 -0.3217 -0.0309
  917MOL0     H23728   3.518   0.711   2.130  1.7174  0.3751  0.7924
  917MOL0     H23729   3.337   0.589   2.284  1.7725  2.8054  1.3345
  917MOL0     H23730   3.239   0.163   2.234 -0.6605 -0.2673  1.3876
  917MOL0     H23731   3.394   0.148   2.339  0.5036  1.2631  4.8930
  917MOL0     H23732   3.133   0.214   2.459  1.4452  2.0137 -1.9196
  917MOL0     H23733   3.286   0.175   2.527 -0.3572  3.0328 -0.7508
  917MOL0     H23734   3.257  -0.060   2.376 -2.4110 -1.1491 -3.5221
  917MOL0     H23735   3.112   0.004   2.326  3.1758  2.2373 -3.4433
  917MOL0     H23736   3.193  -0.066   2.619 -0.4150  0.4577  0.2224
  917MOL0     H23737   3.040   0.018   2.595  0.4847  0.9295  0.0611
  917MOL0     H23738   2.969  -0.211   2.600  1.4399 -1.9688  0.2824
  917MOL0     H23739   2.996  -0.200   2.424  1.2416 -2.1066  0.2997
  917MOL0     H23740   3.236  -0.290   2.496 -0.0670 -2.2854 -1.5099
  917MOL0     H23741   3.166  -0.316   2.655  0.1501 -3.5307 -1.7713
  917MOL0     H23742   3.002  -0.465   2.589 -0.5838 -1.8227 -1.2978
  917MOL0     H23743   3.161  -0.507   2.551 -0.8972 -0.0062  2.0983
  917MOL0     H23744   2.938  -0.397   2.375 -0.5230 -0.2147  1.0535
  917MOL0     H23745   3.086  -0.429   2.295 -1.5660  0.3638 -0.2566
  917MOL0     H23746   3.212  -0.674   2.328 -0.2280 -1.2404  0.7144
  917MOL0     H23747   3.053  -0.939   2.148 -1.1290  2.5108 -0.0400
  917MOL0     H23748   3.195  -0.939   2.245  0.3638  0.4618 -1.0369
  917MOL0     H23749   2.922  -1.062   2.313  0.0767 -2.0184  0.5340
  917MOL0     H23750   3.054  -1.154   2.250 -2.0130  2.9702 -4.7670
  917MOL0     H23751   3.049  -1.009   2.524  2.1557  1.5698 -0.7253
  917MOL0     H23752   3.185  -1.108   2.464 -0.4053 -1.4415  0.1506
  917MOL0     H23753   3.027  -1.310   2.426 -1.3694 -0.0181 -2.2907
  917MOL0     H23754   2.910  -1.222   2.490 -0.0137 -1.9717  1.0815
  917MOL0     H23755   3.167  -1.325   2.844  1.5394  5.5557 -3.2840
  917MOL0     H23756   3.331  -1.509   2.894 -0.2187  4.2815  1.8868
  917MOL0     H23757   3.514  -1.840   3.010  1.0166  0.0094  0.7350
  917MOL0     H23758   3.657  -2.038   3.041 -3.3012 -3.4731 -1.0315
  917MOL0     H23759   3.757  -2.222   3.057 -3.8706 -0.0123 -1.4844
  917MOL0     H23760   3.729  -2.345   2.934 -1.9380  0.9430  4.4350
  917MOL0     H23761   3.912  -2.396   3.078 -0.7435  1.4813  1.3080
  917MOL0     H23762   3.978  -2.366   2.920 -2.5260 -0.0553 -1.1668
  917MOL0     H23763   4.051  -2.138   2.963  2.2428  0.8899  1.4314
  917MOL0     H23764   3.962  -2.146   3.123  1.5949  3.1324 -0.9469
  917MOL0     H23765   4.129  -2.327   3.191  2.0207 -1.5216 -0.1246
  917MOL0     H23766   4.214  -2.171   3.147  2.9267 -0.8544 -0.3157
  917MOL0     H23767   4.216  -2.269   2.904  2.4096 -0.4427 -0.8388
  917MOL0     H23768   4.197  -2.424   2.988 -0.5184  0.1114  0.5534
  917MOL0     H23769   4.415  -2.215   3.052 -1.1110  0.0471  1.6182
  917MOL0     H23770   4.387  -2.371   3.136  2.9180 -1.5560 -0.8795
  917MOL0     H23771   4.404  -2.403   2.842 -2.0840 -0.0967  0.4038
  917MOL0     H23772   4.469  -2.496   2.975 -2.3855  0.0438  0.3290
  917MOL0     H23773   4.667  -2.398   2.844  1.6772  2.1260 -1.6436
  917MOL0     H23774   4.593  -2.245   2.838  3.1509 -0.5896 -0.9374
  917MOL0     H23775   3.763  -2.037   2.638 -0.0764  0.8869  0.0418
  917MOL0     H23776   3.621  -1.849   2.598 -4.2522 -0.8526 -0.0164
  917MOL0     H23777   3.446  -1.486   2.486  0.7579  6.1114 -0.1103
  917MOL0     H23778   3.245  -1.370   2.422 -0.0215 -1.8327 -0.2623
  917MOL0     H23779   3.459   0.213   2.113 -2.4427  0.0243 -0.4437
  917MOL0     H23780   3.613   0.327   1.976  1.8142  0.3981  1.2080
  917MOL0     H23781   3.719   0.720   1.749  0.0393 -2.0999  1.4372
  917MOL0     H23782   3.859   0.788   1.583 -0.9833 -1.6278 -0.3545
  917MOL0     H23783   4.045   0.993   1.577  0.0807 -1.3240  1.4638
  917MOL0     H23784   4.009   0.871   1.449 -1.8404 -3.7144  3.4427
  917MOL0     H23785   4.289   0.999   1.463 -0.1114  0.5206  0.4432
  917MOL0     H23786   4.148   1.055   1.378 -2.7946 -0.0403  3.2162
  917MOL0     H23787   4.146   0.855   1.239  2.4318 -1.4739 -3.3116
  917MOL0     H23788   4.254   0.765   1.356  2.3686 -0.1648 -0.4737
  917MOL0     H23789   4.453   0.871   1.272 -1.1643 -1.7127  2.4222
  917MOL0     H23790   4.352   0.851   1.121 -1.8814 -1.8153  0.9578
  917MOL0     H23791   4.367   1.265   1.127  0.6752  0.2614  1.3179
  917MOL0     H23792   4.208   0.684   1.808  0.1706  1.4691 -0.9307
  917MOL0     H23793   4.043   0.466   2.020  1.9535 -0.9749  3.0444
  917MOL0     H23794   4.194   0.560   1.995  0.2320 -1.7128  1.7331
  917MOL0     H23795   4.071   0.623   2.101 -1.0589 -0.8265  0.1163
  918MOL0     O23796   2.963   2.359   3.598  0.1240  0.0615  0.2692
  918MOL0     C23797   3.025   2.395   3.500  0.3057  0.7695  0.6621
  918MOL0     O23798   3.002   2.509   3.424  0.9511 -0.4747  0.5183
  918MOL0     C23799   2.874   2.562   3.405  0.2092  0.1925  0.1475
  918MOL0     C23800   2.752   2.510   3.445  1.3774 -0.4159 -0.5869
  918MOL0     C23801   2.629   2.578   3.428  0.3310 -0.4437 -0.6820
  918MOL0     C23802   2.621   2.695   3.350  0.4324  0.0417 -0.7426
  918MOL0     O23803   2.499   2.758   3.330 -0.3427  0.1893 -0.8853
  918MOL0     C23804   2.499   2.893   3.267  0.7057  0.6055 -0.1836
  918MOL0     C23805   2.358   2.926   3.222  0.5333  0.2064 -0.0573
  918MOL0     C23806   2.328   3.048   3.129 -0.7734  0.2306 -1.2844
  918MOL0     C23807   2.386   3.167   3.210 -0.5343  0.6387  0.2035
  918MOL0     C23808   2.374   3.291   3.125  0.0798  0.2699  0.0871
  918MOL0     C23809   2.395   3.423   3.208 -1.2010 -0.4588  0.0485
  918MOL0     C23810   2.548   3.434   3.247  0.5136 -0.2071 -0.2865
  918MOL0     C23811   2.657   3.458   3.133  0.0305 -0.0755 -0.1774
  918MOL0     N23812   2.717   3.331   3.099  0.1562 -0.1542 -0.4269
  918MOL0     C23813   2.718   3.265   2.977  0.3925 -0.3746  0.7615
  918MOL0     C23814   2.769   3.146   3.004  1.1328  0.8095  0.8990
  918MOL0     C23815   2.765   3.037   2.896  0.3119 -0.3022  0.2647
  918MOL0     C23816   2.905   2.969   2.894 -0.2103 -0.2941  0.3668
  918MOL0     C23817   2.920   2.888   2.765  0.9834 -0.0028 -0.0498
  918MOL0     C23818   3.064   2.840   2.753 -0.0162 -0.3211  0.2444
  918MOL0     O23819   3.147   2.818   2.876  0.1064 -0.4119  0.2004
  918MOL0     C23820   3.229   2.711   2.880 -0.2557  0.4270  0.2125
  918MOL0     C23821   3.270   2.625   2.777  0.3890  0.6938  0.0142
  918MOL0     C23822   3.344   2.510   2.801 -0.1611  0.2917 -0.7550
  918MOL0     C23823   3.380   2.470   2.932  0.4306  0.7031  0.0111
  918MOL0     C23824   3.465   2.344   2.951 -0.1647  0.7917 -0.1478
  918MOL0     O23825   3.466   2.292   3.076  0.6346  0.1254 -0.2232
  918MOL0     C23826   3.505   2.154   3.073 -0.3511  0.7961  0.2922
  918MOL0     C23827   3.639   2.103   3.033 -0.1590 -0.6335 -0.0488
  918MOL0     C23828   3.671   1.969   3.048 -0.0614 -0.0747 -0.1214
  918MOL0     C23829   3.586   1.882   3.112  0.0331  0.2406 -0.0129
  918MOL0     O23830   3.635   1.757   3.121  0.1961  0.1890 -0.0406
  918MOL0     C23831   3.549   1.647   3.120  0.6542 -1.0457  0.5234
  918MOL0     C23832   3.623   1.518   3.166  0.4001 -0.1277  0.5316
  918MOL0     C23833   3.637   1.504   3.321  1.2215 -0.6983 -0.1859
  918MOL0     C23834   3.657   1.641   3.387 -1.3540 -0.2195 -0.7673
  918MOL0     C23835   3.726   1.629   3.536 -0.1489 -0.0811 -0.5086
  918MOL0     C23836   3.754   1.761   3.605 -0.3401  0.6171 -0.0402
  918MOL0     C23837   3.817   1.733   3.747  0.2066 -0.0002  0.2632
  918MOL0     C23838   3.836   1.850   3.844  0.0691  0.2645 -0.6224
  918MOL0    Cl23839   3.938   1.972   3.786  0.0631  0.0670  0.0896
  918MOL0     C23840   3.464   1.929   3.152  0.1202  0.4236 -0.1810
  918MOL0     C23841   3.418   2.058   3.124 -0.9036 -0.0164 -0.1586
  918MOL0     O23842   3.503   2.287   2.851  0.0260 -0.1137  0.3696
  918MOL0     C23843   3.341   2.555   3.039 -1.5826 -0.6415 -0.0577
  918MOL0     C23844   3.272   2.671   3.014  0.1338 -0.8280 -0.2529
  918MOL0     N23845   2.824   3.146   3.125  0.8062 -0.1579 -0.1507
  918MOL0     N23846   2.791   3.256   3.179  0.7544 -0.2314  0.1678
  918MOL0     C23847   2.736   2.745   3.298  0.1231  0.1675  0.1944
  918MOL0     C23848   2.864   2.680   3.321  0.5330 -0.2568  0.1968
  918MOL0     C23849   3.167   2.342   3.478  0.6029 -0.3083 -0.1085
  918MOL0     C23850   3.262   2.436   3.432 -0.1429  0.5806  0.1077
  918MOL0     C23851   3.391   2.385   3.398  0.0991  0.9109 -0.4713
  918MOL0     C23852   3.434   2.255   3.424  0.5429  0.6766 -0.6228
  918MOL0     O23853   3.563   2.222   3.393 -0.0509  0.1034 -0.3349
  918MOL0     C23854   3.622   2.116   3.474  0.2282  0.2684  0.5993
  918MOL0     C23855   3.770   2.130   3.491  0.7241 -1.1128  0.1778
  918MOL0     C23856   3.848   2.104   3.356 -0.6059 -0.4459  0.6849
  918MOL0     C23857   3.899   2.228   3.287  0.0267  0.6019 -0.8296
  918MOL0     C23858   4.027   2.284   3.344  0.2064  0.3609  1.3775
  918MOL0     C23859   4.114   2.342   3.393  0.2682  0.2257  0.3132
  918MOL0     C23860   3.340   2.166   3.480  0.2562 -0.2085  0.8682
  918MOL0     C23861   3.205   2.207   3.501 -0.5631  0.3881  0.8133
  918MOL0     C23862   3.113   2.092   3.544  0.7717  0.1235  0.6211
  918MOL0     H23863   2.764   2.409   3.482 -0.9417 -0.1210  1.2890
  918MOL0     H23864   2.537   2.533   3.466  0.9001 -0.9152  0.1593
  918MOL0     H23865   2.543   2.970   3.332 -0.1189 -0.6040  1.9256
  918MOL0     H23866   2.550   2.886   3.171  0.0701  4.0927 -0.9187
  918MOL0     H23867   2.306   2.938   3.318  0.2796 -2.7235  0.2750
  918MOL0     H23868   2.323   2.833   3.177 -0.0391  0.2380  0.3127
  918MOL0     H23869   2.222   3.076   3.122 -0.4831  2.1774  1.0899
  918MOL0     H23870   2.380   3.037   3.033  1.0824  2.5291 -0.6242
  918MOL0     H23871   2.345   3.175   3.311 -0.7339 -2.4031  0.4609
  918MOL0     H23872   2.493   3.143   3.217 -1.0702 -2.0098  0.4240
  918MOL0     H23873   2.443   3.284   3.040  0.9391 -3.1869  0.9271
  918MOL0     H23874   2.269   3.294   3.094 -0.3072 -2.7929  0.7847
  918MOL0     H23875   2.364   3.507   3.145  0.5614  1.6775  1.8325
  918MOL0     H23876   2.329   3.420   3.295 -2.9283  0.0104 -1.2170
  918MOL0     H23877   2.582   3.356   3.314  2.3576 -1.0212 -2.0696
  918MOL0     H23878   2.560   3.525   3.307  0.8424 -0.2705 -0.2550
  918MOL0     H23879   2.612   3.510   3.048 -0.0234 -0.8540 -0.6274
  918MOL0     H23880   2.729   3.526   3.180 -1.4566  0.5114  1.3685
  918MOL0     H23881   2.675   3.308   2.888 -0.7475  1.7271  2.2557
  918MOL0     H23882   2.695   2.955   2.914 -0.4237  0.2467 -0.0131
  918MOL0     H23883   2.742   3.090   2.803  0.5485  0.5309  0.6743
  918MOL0     H23884   2.988   3.039   2.898  0.1410 -0.7523  1.6005
  918MOL0     H23885   2.917   2.910   2.986  3.9445 -1.3461 -0.6281
  918MOL0     H23886   2.890   2.952   2.682 -0.8961  1.8621  1.9347
  918MOL0     H23887   2.850   2.803   2.762  0.6010  0.3201 -0.4753
  918MOL0     H23888   3.112   2.905   2.679  0.2742 -0.1462  0.5841
  918MOL0     H23889   3.054   2.745   2.698 -2.1325 -0.3174  0.5585
  918MOL0     H23890   3.246   2.640   2.672  3.7247 -2.6089 -1.4392
  918MOL0     H23891   3.381   2.455   2.715 -0.3948  1.3717 -1.5752
  918MOL0     H23892   3.709   2.181   3.005 -0.2094 -0.2672  0.8273
  918MOL0     H23893   3.761   1.923   3.008 -0.0958 -0.6323  0.4198
  918MOL0     H23894   3.465   1.673   3.185  1.4209 -0.7608  1.4090
  918MOL0     H23895   3.514   1.644   3.016  0.6741  2.2543  0.2976
  918MOL0     H23896   3.559   1.436   3.133 -1.2129  2.1025 -2.3031
  918MOL0     H23897   3.722   1.518   3.120 -0.1611  2.0235 -0.8302
  918MOL0     H23898   3.544   1.463   3.363  0.9175 -1.8073 -1.8234
  918MOL0     H23899   3.731   1.457   3.351  2.8124  1.6474 -1.1788
  918MOL0     H23900   3.556   1.681   3.402 -2.2133 -2.3517 -0.5018
  918MOL0     H23901   3.720   1.714   3.337 -0.0413  1.1567  2.6133
  918MOL0     H23902   3.827   1.591   3.520  1.2356  2.9527  0.4253
  918MOL0     H23903   3.656   1.569   3.595  2.3411 -0.8546  1.8321
  918MOL0     H23904   3.829   1.828   3.564  3.5671 -2.0206  2.0881
  918MOL0     H23905   3.655   1.806   3.619  0.2402  1.3729  1.9414
  918MOL0     H23906   3.919   1.697   3.730 -0.0210  0.3863 -2.3348
  918MOL0     H23907   3.758   1.659   3.802  1.3585 -0.5808  0.7547
  918MOL0     H23908   3.742   1.888   3.885  1.0995  0.5927  1.5766
  918MOL0     H23909   3.890   1.809   3.930  0.2536  0.8654 -0.4485
  918MOL0     H23910   3.397   1.868   3.212 -1.2509 -1.2649 -3.1787
  918MOL0     H23911   3.322   2.092   3.161 -0.4814  0.3924  0.5911
  918MOL0     H23912   3.378   2.521   3.135  1.8403  0.8388 -0.7103
  918MOL0     H23913   3.250   2.738   3.096  0.8550  0.9840 -1.4614
  918MOL0     H23914   2.736   2.831   3.231 -1.6289 -0.5624 -0.8062
  918MOL0     H23915   2.956   2.720   3.279 -0.7203  2.0127 -0.5450
  918MOL0     H23916   3.251   2.542   3.411  2.2286  0.6598 -1.0542
  918MOL0     H23917   3.463   2.448   3.346  0.4821  0.9888  0.1406
  918MOL0     H23918   3.595   2.024   3.423 -0.1610  1.0549 -0.6507
  918MOL0     H23919   3.573   2.104   3.572 -2.2111 -1.1551 -0.7098
  918MOL0     H23920   3.806   2.060   3.568 -3.5584 -1.6418  1.9555
  918MOL0     H23921   3.781   2.232   3.528 -0.8283 -0.3451 -1.3644
  918MOL0     H23922   3.769   2.064   3.292 -0.8519  0.6185  0.2852
  918MOL0     H23923   3.925   2.027   3.360 -0.7623 -0.6117  0.4925
  918MOL0     H23924   3.904   2.207   3.180  0.0827 -2.8160 -0.2759
  918MOL0     H23925   3.822   2.305   3.298 -0.6731  0.0862 -1.9237
  918MOL0     H23926   4.198   2.391   3.438 -0.2900 -1.3486  3.4059
  918MOL0     H23927   3.357   2.060   3.491 -0.8809 -0.2650  2.3931
  918MOL0     H23928   3.134   2.001   3.488 -2.2339 -2.5740  3.4403
  918MOL0     H23929   3.129   2.049   3.643  1.7270 -1.4706 -0.1957
  918MOL0     H23930   3.008   2.098   3.511  1.5050  0.1872 -1.9107
  919MOL0     O23931   4.664   2.411   3.316  1.0756 -0.1853  0.3221
  919MOL0     C23932   4.554   2.352   3.302 -0.3792 -0.9487  0.4748
  919MOL0     O23933   4.522   2.229   3.354 -0.8826 -0.5257  0.4750
  919MOL0     C23934   4.605   2.179   3.448 -1.1674  0.0839  0.4830
  919MOL0     C23935   4.624   2.242   3.577 -0.8583 -0.3138 -0.2262
  919MOL0     C23936   4.689   2.176   3.682 -1.2093 -0.1650  0.2520
  919MOL0     C23937   4.758   2.052   3.651  0.8722 -0.1673 -0.5268
  919MOL0     O23938   4.827   1.975   3.743  0.3851 -0.1668  0.4498
  919MOL0     C23939   4.965   2.020   3.758  0.6081  0.2140  0.3303
  919MOL0     C23940   5.058   1.936   3.681  0.2782  0.6014 -0.6271
  919MOL0     C23941   5.079   1.802   3.749  0.4565  0.3403 -0.3868
  919MOL0     C23942   5.207   1.734   3.701 -0.2340  0.7791  1.2136
  919MOL0     C23943   5.198   1.657   3.562  0.4720 -0.1778 -0.5417
  919MOL0     C23944   5.284   1.528   3.554  0.2468  0.5280 -0.8508
  919MOL0     C23945   5.225   1.450   3.435  0.6298  0.3481 -0.2544
  919MOL0     C23946   5.307   1.331   3.389 -1.0516 -0.0582  0.4038
  919MOL0     N23947   5.327   1.232   3.497 -0.2623  0.2004  0.5888
  919MOL0     C23948   5.413   1.230   3.599  0.2352  0.4108 -0.3867
  919MOL0     C23949   5.392   1.122   3.681 -0.9190  0.4327 -0.9710
  919MOL0     C23950   5.472   1.078   3.807  0.1574 -0.4418 -0.0996
  919MOL0     C23951   5.614   1.047   3.758  0.1819 -0.1280 -0.1972
  919MOL0     C23952   5.711   1.003   3.862 -0.6513  0.4393  1.1927
  919MOL0     C23953   5.844   0.977   3.785  0.5997  0.2133  0.3216
  919MOL0     O23954   5.944   0.949   3.874  0.7897  0.4425 -0.1524
  919MOL0     C23955   6.067   0.914   3.812  0.3101 -0.5975 -0.4006
  919MOL0     C23956   6.109   0.950   3.682  0.5873  0.2577  0.8080
  919MOL0     C23957   6.223   0.904   3.614 -0.5924  0.1621  0.3329
  919MOL0     C23958   6.317   0.814   3.687  0.2973  0.8835 -0.4085
  919MOL0     C23959   6.449   0.769   3.637  0.4345 -0.2873  0.1667
  919MOL0     O23960   6.530   0.688   3.712  0.1674 -0.1345 -0.3794
  919MOL0     C23961   6.641   0.624   3.659 -0.3205  0.0563  0.8425
  919MOL0     C23962   6.758   0.607   3.729 -0.4733  0.4605 -0.2374
  919MOL0     C23963   6.860   0.520   3.681 -1.1777  0.2757 -0.9017
  919MOL0     C23964   6.855   0.465   3.552  0.1073  0.0570 -0.4597
  919MOL0     O23965   6.947   0.392   3.489 -0.4835 -1.4186  0.1517
  919MOL0     C23966   7.066   0.367   3.557 -0.1156 -0.3582  1.0591
  919MOL0     C23967   7.170   0.320   3.455 -0.2583  0.8693  0.8824
  919MOL0     C23968   7.124   0.191   3.366  0.5396  0.1054  1.0686
  919MOL0     C23969   6.998   0.205   3.268  0.3329 -1.0964  0.3965
  919MOL0     C23970   7.003   0.102   3.163 -0.7355 -0.7117  1.1978
  919MOL0     C23971   7.088   0.137   3.035  0.4128 -0.0299  0.4883
  919MOL0     C23972   7.027   0.058   2.909 -0.2025  0.2385 -0.0023
  919MOL0     C23973   6.878   0.082   2.886 -0.1286  0.0165  0.9019
  919MOL0    Cl23974   6.855   0.110   2.712 -0.3499 -0.2128  0.1090
  919MOL0     C23975   6.734   0.478   3.484  0.9630  0.9843  0.3766
  919MOL0     C23976   6.625   0.550   3.542  0.3625 -1.0222  0.5806
  919MOL0     O23977   6.488   0.830   3.534 -0.1516  0.0393  0.2314
  919MOL0     C23978   6.277   0.783   3.824  0.3166 -0.2900 -0.2246
  919MOL0     C23979   6.161   0.835   3.875  0.0275  0.3162 -0.0931
  919MOL0     N23980   5.283   1.057   3.636 -0.0944  0.3009 -0.2894
  919MOL0     N23981   5.246   1.124   3.531 -0.0450 -0.6209  0.4370
  919MOL0     C23982   4.750   1.999   3.524 -0.1281 -0.1610  0.0055
  919MOL0     C23983   4.670   2.052   3.426 -0.3430 -0.3327  0.3891
  919MOL0     C23984   4.438   2.390   3.220 -0.1337  0.0253  1.0078
  919MOL0     C23985   4.374   2.286   3.141  0.6051 -0.5876  0.3468
  919MOL0     C23986   4.254   2.321   3.077 -0.7553 -0.0796  0.0046
  919MOL0     C23987   4.199   2.449   3.086 -0.2141  0.1063  0.7718
  919MOL0     O23988   4.086   2.487   3.010 -0.2766  0.9204 -0.4158
  919MOL0     C23989   4.046   2.621   2.991 -0.4460  0.9211  0.6739
  919MOL0     C23990   3.941   2.650   3.096 -0.3156 -1.1217  0.1947
  919MOL0     C23991   3.817   2.563   3.065  0.2106  0.5875 -0.5804
  919MOL0     C23992   3.701   2.597   3.165  0.5500  0.1967  0.1962
  919MOL0     C23993   3.753   2.600   3.306 -0.0031 -0.6272  0.2734
  919MOL0     C23994   3.786   2.600   3.423  0.1860  0.4697 -0.4147
  919MOL0     C23995   4.257   2.540   3.173 -0.4242  0.2636  0.4472
  919MOL0     C23996   4.379   2.519   3.239  0.5138  0.5636  0.5653
  919MOL0     C23997   4.438   2.625   3.327  0.6298  0.0620 -0.7368
  919MOL0     H23998   4.569   2.331   3.605 -3.0714 -2.2261  2.0831
  919MOL0     H23999   4.700   2.226   3.778 -1.0002  1.1180 -0.4193
  919MOL0     H24000   4.978   2.124   3.726 -0.5253  0.8853  1.9217
  919MOL0     H24001   4.992   2.021   3.864  1.2855  0.0437  0.1663
  919MOL0     H24002   5.151   1.994   3.679  0.7846  0.0406  2.1447
  919MOL0     H24003   5.035   1.932   3.574  0.1192  2.3456 -0.6729
  919MOL0     H24004   4.993   1.737   3.729  1.0336 -1.1881  1.8306
  919MOL0     H24005   5.079   1.821   3.857  0.3140 -1.6441 -0.0125
  919MOL0     H24006   5.293   1.801   3.701  1.8407 -1.6978  2.4981
  919MOL0     H24007   5.232   1.659   3.777 -0.4097  2.7048  3.2818
  919MOL0     H24008   5.095   1.627   3.545  0.3706  0.7868 -1.7299
  919MOL0     H24009   5.220   1.730   3.484  1.7711  0.3234  0.2430
  919MOL0     H24010   5.391   1.540   3.537  0.1853  0.8342 -1.0182
  919MOL0     H24011   5.276   1.470   3.647 -0.3249  4.3321  1.6818
  919MOL0     H24012   5.230   1.530   3.361 -1.8138 -0.4178 -1.3517
  919MOL0     H24013   5.123   1.415   3.457  0.9653 -0.0684  0.6766
  919MOL0     H24014   5.257   1.277   3.309  0.2175 -0.8027  0.0841
  919MOL0     H24015   5.400   1.367   3.344 -1.9253  0.8570 -0.7356
  919MOL0     H24016   5.492   1.304   3.610 -0.9710  2.4767 -3.7486
  919MOL0     H24017   5.481   1.170   3.864  1.7467 -1.3713  1.2252
  919MOL0     H24018   5.443   0.989   3.863  2.6337 -1.6073 -0.5495
  919MOL0     H24019   5.618   0.978   3.673 -0.1434  0.8410 -1.0264
  919MOL0     H24020   5.658   1.142   3.725  0.8865 -0.5844 -0.6049
  919MOL0     H24021   5.674   0.915   3.915  2.6502 -4.9069 -4.1538
  919MOL0     H24022   5.729   1.086   3.931 -0.5711  3.0420 -1.7392
  919MOL0     H24023   5.877   1.062   3.724  0.0934 -0.0170 -0.2919
  919MOL0     H24024   5.824   0.885   3.729 -1.2843 -0.0558  1.3411
  919MOL0     H24025   6.053   1.026   3.628  0.2320 -1.5693 -1.5847
  919MOL0     H24026   6.260   0.958   3.528  4.6458 -1.5432  1.1605
  919MOL0     H24027   6.781   0.660   3.821  1.0122 -4.1363  2.3806
  919MOL0     H24028   6.949   0.512   3.743 -0.9186  0.3582 -1.2635
  919MOL0     H24029   7.093   0.463   3.604  1.2007 -0.2441  0.1080
  919MOL0     H24030   7.052   0.285   3.628  0.8647 -5.3366 -3.8212
  919MOL0     H24031   7.205   0.398   3.387  3.0823  1.5494  3.1686
  919MOL0     H24032   7.258   0.289   3.511 -0.3002 -1.7125 -0.3253
  919MOL0     H24033   7.211   0.165   3.306  0.2072  1.6167 -0.1318
  919MOL0     H24034   7.095   0.115   3.439  0.0795  0.8735  1.7070
  919MOL0     H24035   6.977   0.303   3.225 -0.2068 -1.1039  0.6288
  919MOL0     H24036   6.904   0.191   3.323 -0.7393  1.9580 -0.4455
  919MOL0     H24037   6.900   0.097   3.126 -1.2588  1.8342  2.0778
  919MOL0     H24038   7.037   0.004   3.195  0.2070 -1.2772 -1.2902
  919MOL0     H24039   7.088   0.245   3.020 -1.8073 -0.0853 -0.1922
  919MOL0     H24040   7.197   0.123   3.038  0.5052 -0.1346 -1.4768
  919MOL0     H24041   7.039  -0.049   2.931 -1.7731  0.4301  2.1642
  919MOL0     H24042   7.093   0.078   2.824  1.0873  1.3910  1.2079
  919MOL0     H24043   6.822  -0.008   2.914 -0.9305  1.0968  2.9048
  919MOL0     H24044   6.845   0.172   2.938 -3.1707 -1.5766  1.9956
  919MOL0     H24045   6.722   0.436   3.385  0.7788 -2.1249  1.6058
  919MOL0     H24046   6.523   0.551   3.505  1.1086  2.5942 -1.8824
  919MOL0     H24047   6.339   0.726   3.893  0.6528 -0.5628 -0.7403
  919MOL0     H24048   6.131   0.786   3.968 -0.2039  0.8792  0.1311
  919MOL0     H24049   4.795   1.901   3.508  0.2812 -0.2525  1.5944
  919MOL0     H24050   4.670   2.015   3.324  3.4086  0.1264  0.0885
  919MOL0     H24051   4.411   2.185   3.133 -0.0500 -1.1482  3.1361
  919MOL0     H24052   4.208   2.249   3.010 -0.5630 -0.8392  0.6714
  919MOL0     H24053   4.016   2.619   2.886  3.6798  0.9099 -0.7030
  919MOL0     H24054   4.122   2.700   2.991 -0.6265  1.1785 -2.1202
  919MOL0     H24055   3.907   2.754   3.093 -0.5378 -1.1900  0.2963
  919MOL0     H24056   3.982   2.631   3.196 -1.5501 -0.3078  0.8876
  919MOL0     H24057   3.846   2.461   3.093  2.7633  2.1531  3.4473
  919MOL0     H24058   3.784   2.564   2.961  1.9032 -1.0202 -1.2021
  919MOL0     H24059   3.646   2.689   3.144 -0.5727 -0.1171  1.5461
  919MOL0     H24060   3.630   2.514   3.155 -0.2752  0.8994  0.1374
  919MOL0     H24061   3.806   2.589   3.527  1.1194  0.3634 -0.6017
  919MOL0     H24062   4.213   2.635   3.201 -0.6222 -0.0423  1.1772
  919MOL0     H24063   4.544   2.618   3.354  0.3713  0.3704  0.4276
  919MOL0     H24064   4.433   2.721   3.275  2.5510  0.7863  0.3068
  919MOL0     H24065   4.377   2.649   3.414 -2.2671 -0.2081 -2.5604
  920MOL0     O24066   6.980   0.971   0.300  0.0043  0.4814 -0.4377
  920MOL0     C24067   7.048   0.998   0.207 -0.1653 -0.2607  0.7204
  920MOL0     O24068   7.129   0.919   0.130 -0.0250  0.6024 -0.0880
  920MOL0     C24069   7.159   0.786   0.162 -0.2390  0.8044 -0.8212
  920MOL0     C24070   7.226   0.711   0.064  0.4054 -0.1539 -0.9932
  920MOL0     C24071   7.273   0.581   0.097 -0.3765 -0.1497 -0.9110
  920MOL0     C24072   7.262   0.520   0.216  0.1830  1.2788 -0.6258
  920MOL0     O24073   7.310   0.395   0.250  0.1143 -0.2456 -0.7683
  920MOL0     C24074   7.396   0.324   0.151 -0.0612 -0.5841 -0.3472
  920MOL0     C24075   7.462   0.202   0.219 -0.8570  0.5152  0.9873
  920MOL0     C24076   7.508   0.113   0.096  0.0831 -0.3320  0.3906
  920MOL0     C24077   7.615   0.003   0.123 -0.3302 -0.3973 -0.6435
  920MOL0     C24078   7.562  -0.083   0.234 -0.8314  1.0604  0.7299
  920MOL0     C24079   7.631  -0.218   0.227 -0.7870  0.4116 -0.1974
  920MOL0     C24080   7.577  -0.309   0.334  0.1509  0.3097 -0.2755
  920MOL0     C24081   7.637  -0.453   0.318  0.0762 -0.3130  0.2009
  920MOL0     N24082   7.556  -0.535   0.408  0.3266 -0.0668 -0.0297
  920MOL0     C24083   7.545  -0.519   0.545 -0.1155  0.1885  0.6592
  920MOL0     C24084   7.457  -0.612   0.577  0.3513  0.0745 -0.4354
  920MOL0     C24085   7.396  -0.644   0.712  0.2317  0.8095  0.0987
  920MOL0     C24086   7.249  -0.599   0.719 -0.6485 -0.8333 -0.3948
  920MOL0     C24087   7.180  -0.603   0.852 -0.2359  0.2338 -0.6078
  920MOL0     C24088   7.188  -0.733   0.929 -0.3736 -0.7000  0.2827
  920MOL0     O24089   7.062  -0.775   0.964 -0.4405  0.2941  0.2892
  920MOL0     C24090   7.032  -0.898   0.923 -0.8606  0.3971 -0.1396
  920MOL0     C24091   7.008  -0.996   1.018 -0.4824 -0.0406  0.2895
  920MOL0     C24092   6.950  -1.123   0.979 -0.2631 -0.5962 -1.1489
  920MOL0     C24093   6.931  -1.146   0.845  0.1652  0.9908  0.0420
  920MOL0     C24094   6.878  -1.283   0.799 -0.3481 -0.0621  0.1795
  920MOL0     O24095   6.873  -1.378   0.897  0.0786 -0.5713  0.1620
  920MOL0     C24096   6.828  -1.499   0.860  0.0756 -0.0525 -0.4826
  920MOL0     C24097   6.925  -1.581   0.803  0.2495  0.9776 -1.2245
  920MOL0     C24098   6.896  -1.715   0.759  0.1421  0.2873  1.0565
  920MOL0     C24099   6.761  -1.767   0.770  0.5618  0.3481  0.6656
  920MOL0     O24100   6.715  -1.889   0.732  0.3886 -1.1594 -0.0486
  920MOL0     C24101   6.782  -1.945   0.626 -1.2463  0.5695 -0.1082
  920MOL0     C24102   6.718  -2.082   0.596 -0.0121  0.1889 -0.3326
  920MOL0     C24103   6.708  -2.173   0.721  0.0721  0.5405 -0.7920
  920MOL0     C24104   6.829  -2.262   0.737  0.1782 -0.3470 -0.1866
  920MOL0     C24105   6.811  -2.391   0.648  1.0696 -0.2225 -0.4183
  920MOL0     C24106   6.924  -2.496   0.635 -0.9412 -0.1506  0.5780
  920MOL0     C24107   7.060  -2.424   0.574  0.5576 -0.0196 -0.3155
  920MOL0     C24108   7.142  -2.527   0.501 -0.7900 -0.0321  1.1126
  920MOL0    Cl24109   7.240  -2.633   0.601 -0.3113 -0.1571 -0.7710
  920MOL0     C24110   6.673  -1.686   0.845 -0.1638 -0.0640 -1.0924
  920MOL0     C24111   6.704  -1.552   0.892 -1.1904 -0.1539  0.3152
  920MOL0     O24112   6.834  -1.294   0.683 -0.4069 -0.3805 -0.2867
  920MOL0     C24113   6.974  -1.050   0.750  0.1381 -0.2595  0.2788
  920MOL0     C24114   7.021  -0.927   0.786 -0.4673 -1.0505 -0.3059
  920MOL0     N24115   7.402  -0.676   0.465  0.8649 -0.5596 -0.2089
  920MOL0     N24116   7.461  -0.622   0.360 -0.1514  0.5678 -0.5356
  920MOL0     C24117   7.201   0.597   0.323 -0.7345 -0.2119 -0.3376
  920MOL0     C24118   7.144   0.726   0.291 -0.4213  0.2138  0.4504
  920MOL0     C24119   7.034   1.136   0.154  0.3993 -0.3243  0.1766
  920MOL0     C24120   7.120   1.235   0.196  0.3967 -0.1307 -0.0571
  920MOL0     C24121   7.116   1.365   0.149  1.2412 -0.3008 -0.1807
  920MOL0     C24122   7.024   1.397   0.045 -1.1687  0.1389 -0.1798
  920MOL0     O24123   7.026   1.517  -0.019  0.3994  0.5021 -1.3380
  920MOL0     C24124   6.905   1.575  -0.079 -0.4739 -0.5361 -0.1427
  920MOL0     C24125   6.898   1.545  -0.237 -0.2974  0.7947 -0.3318
  920MOL0     C24126   7.028   1.572  -0.304 -1.3885 -0.1489 -0.1447
  920MOL0     C24127   7.058   1.715  -0.331 -0.4127 -0.0514  0.5193
  920MOL0     C24128   7.158   1.786  -0.244 -0.4570 -0.2203  0.1452
  920MOL0     C24129   7.225   1.853  -0.171  0.8780 -0.4704 -0.9902
  920MOL0     C24130   6.953   1.287  -0.012 -0.7563  0.6270  0.0033
  920MOL0     C24131   6.945   1.162   0.045  1.0476 -0.2351 -0.2428
  920MOL0     C24132   6.843   1.069  -0.016  0.1226  0.3494 -1.9264
  920MOL0     H24133   7.248   0.759  -0.031 -0.5178  1.3349 -0.4733
  920MOL0     H24134   7.333   0.538   0.018  0.7887  0.7719 -0.5584
  920MOL0     H24135   7.349   0.298   0.056  1.0924  2.7090 -1.9764
  920MOL0     H24136   7.473   0.397   0.124 -2.6943  2.1759 -0.9476
  920MOL0     H24137   7.395   0.148   0.286 -0.7560  0.4980  1.0750
  920MOL0     H24138   7.551   0.232   0.274  0.0979 -0.8593  0.2441
  920MOL0     H24139   7.536   0.174   0.010  2.5082  0.0419  1.3503
  920MOL0     H24140   7.419   0.055   0.070 -1.6438  2.0057  0.7809
  920MOL0     H24141   7.638  -0.053   0.032  2.9426  0.3625 -0.4233
  920MOL0     H24142   7.712   0.043   0.153  1.4144 -3.9425 -1.0533
  920MOL0     H24143   7.594  -0.044   0.331 -3.9509 -0.1103  2.3519
  920MOL0     H24144   7.454  -0.097   0.239 -0.4325 -2.1070  3.1602
  920MOL0     H24145   7.627  -0.259   0.126 -0.9574 -0.4958  0.1646
  920MOL0     H24146   7.735  -0.201   0.256 -1.2204  1.1735  1.0000
  920MOL0     H24147   7.470  -0.330   0.326  0.0325  0.5271  0.6281
  920MOL0     H24148   7.585  -0.270   0.437  2.3104  0.5858 -0.5036
  920MOL0     H24149   7.623  -0.481   0.213  0.5898  2.0908 -0.5928
  920MOL0     H24150   7.743  -0.470   0.336 -0.3934 -1.2912  2.2604
  920MOL0     H24151   7.599  -0.465   0.623  4.0109 -4.1944  1.3214
  920MOL0     H24152   7.406  -0.753   0.713  0.0339  0.7474 -1.6433
  920MOL0     H24153   7.465  -0.606   0.788  2.5842  0.0791 -1.5539
  920MOL0     H24154   7.240  -0.497   0.681 -2.5934 -0.5333  0.7844
  920MOL0     H24155   7.189  -0.660   0.651 -1.1715 -1.4263  0.5758
  920MOL0     H24156   7.073  -0.597   0.831 -0.4548  0.6752  0.5626
  920MOL0     H24157   7.205  -0.518   0.917  0.5602  0.9808 -1.8296
  920MOL0     H24158   7.257  -0.705   1.009  1.6291 -0.0270 -1.5722
  920MOL0     H24159   7.237  -0.815   0.876  0.7455  0.0836  0.0632
  920MOL0     H24160   7.006  -0.974   1.124  0.6452 -0.4225  0.4017
  920MOL0     H24161   6.911  -1.194   1.051  0.1858  0.9143  0.6824
  920MOL0     H24162   7.029  -1.553   0.787  0.9610  0.5718  1.9967
  920MOL0     H24163   6.975  -1.782   0.728  1.5262  2.4050 -0.3061
  920MOL0     H24164   6.785  -1.881   0.537 -0.8565 -0.1726 -0.6417
  920MOL0     H24165   6.884  -1.965   0.660 -1.4645 -0.2887  0.0663
  920MOL0     H24166   6.615  -2.057   0.571 -0.1500 -0.9335 -0.9313
  920MOL0     H24167   6.760  -2.135   0.511  0.6260 -0.8392  0.5925
  920MOL0     H24168   6.718  -2.111   0.810  3.2104 -0.7146 -0.1403
  920MOL0     H24169   6.618  -2.233   0.739 -0.1145  1.7470  3.2771
  920MOL0     H24170   6.842  -2.296   0.840 -1.4912  0.3739  0.2866
  920MOL0     H24171   6.921  -2.215   0.701 -2.1803  3.9461 -1.2648
  920MOL0     H24172   6.797  -2.355   0.546 -0.3905 -2.5300 -1.1208
  920MOL0     H24173   6.719  -2.444   0.676 -0.5421  2.0387 -1.1336
  920MOL0     H24174   6.954  -2.546   0.728  1.4043 -3.0170 -1.5182
  920MOL0     H24175   6.898  -2.587   0.579  1.4867 -0.4097 -0.2535
  920MOL0     H24176   7.124  -2.387   0.654  1.6509 -1.3123 -0.5643
  920MOL0     H24177   7.025  -2.345   0.507 -0.7442  1.0229  1.4932
  920MOL0     H24178   7.086  -2.582   0.426  2.6259 -2.0020 -0.2100
  920MOL0     H24179   7.217  -2.463   0.453  3.0607 -1.5358  4.4513
  920MOL0     H24180   6.582  -1.732   0.882 -1.0866  1.2953 -1.6046
  920MOL0     H24181   6.632  -1.501   0.955  0.4052  1.4958  0.8950
  920MOL0     H24182   6.961  -1.074   0.645 -0.4755  2.0209 -0.2243
  920MOL0     H24183   7.037  -0.850   0.711 -0.8698 -1.2339 -0.5849
  920MOL0     H24184   7.200   0.553   0.422 -0.0406 -2.1118 -1.1285
  920MOL0     H24185   7.107   0.784   0.375  1.3300  0.7413  0.9083
  920MOL0     H24186   7.187   1.214   0.278  1.0800 -1.3103 -0.8883
  920MOL0     H24187   7.169   1.452   0.188  1.4592  0.5339 -2.2360
  920MOL0     H24188   6.907   1.682  -0.057 -1.1586 -0.1467 -1.8099
  920MOL0     H24189   6.807   1.539  -0.049  0.3131 -3.6142 -0.9077
  920MOL0     H24190   6.826   1.611  -0.285  1.0576  2.6282  0.0442
  920MOL0     H24191   6.877   1.438  -0.243  1.4776  0.3728  0.3683
  920MOL0     H24192   7.016   1.538  -0.407 -3.3103  1.2586 -0.4343
  920MOL0     H24193   7.108   1.518  -0.253 -3.0396 -1.0782  1.5905
  920MOL0     H24194   7.107   1.714  -0.429 -0.7945 -6.4401 -0.0056
  920MOL0     H24195   6.968   1.774  -0.349  0.9569  1.4899 -2.0732
  920MOL0     H24196   7.265   1.930  -0.108 -3.5865  0.3030  1.3192
  920MOL0     H24197   6.891   1.305  -0.099  1.7877 -0.1804 -2.1106
  920MOL0     H24198   6.849   0.964   0.014  1.3036  0.6448 -1.0327
  920MOL0     H24199   6.747   1.115   0.007 -0.1849 -0.5354 -1.3892
  920MOL0     H24200   6.841   1.068  -0.125 -1.7537  0.0886 -1.9198
  921MOL0     O24201   5.278   1.513   6.767  0.5468  0.0960 -0.0858
  921MOL0     C24202   5.161   1.482   6.744 -0.2664  0.3123  0.1641
  921MOL0     O24203   5.124   1.354   6.725  0.1720 -0.0271 -0.6928
  921MOL0     C24204   5.214   1.260   6.684 -0.3778  1.2474 -0.1767
  921MOL0     C24205   5.204   1.130   6.736 -0.4782 -0.5746 -0.2681
  921MOL0     C24206   5.285   1.036   6.683  0.3999 -0.0591 -0.2661
  921MOL0     C24207   5.383   1.057   6.587  1.2568 -0.6287  0.0829
  921MOL0     O24208   5.457   0.951   6.550  0.2696 -0.1177  0.2885
  921MOL0     C24209   5.495   0.946   6.416  0.7731  0.1309  0.7209
  921MOL0     C24210   5.394   0.894   6.318 -0.7957  0.5375  0.0259
  921MOL0     C24211   5.253   0.953   6.326 -0.5512  0.5762 -0.1179
  921MOL0     C24212   5.177   0.936   6.188 -0.4386  0.3536 -0.2287
  921MOL0     C24213   5.120   0.795   6.172  0.4151  0.2395  0.0055
  921MOL0     C24214   5.022   0.756   6.288 -0.3598 -0.8272  0.0286
  921MOL0     C24215   4.966   0.617   6.285  0.1742  0.1291 -0.5600
  921MOL0     C24216   5.074   0.505   6.273  1.3170 -1.1632  0.3871
  921MOL0     N24217   5.140   0.482   6.396  0.6414 -0.2889 -0.1180
  921MOL0     C24218   5.257   0.540   6.426  0.4337 -0.6197 -1.0717
  921MOL0     C24219   5.276   0.500   6.556  0.1064 -0.0539  0.8962
  921MOL0     C24220   5.398   0.544   6.639  0.6791 -0.2866 -0.2399
  921MOL0     C24221   5.366   0.650   6.753  0.1087  0.2544 -0.5994
  921MOL0     C24222   5.501   0.672   6.837  0.4766 -0.7350  0.7611
  921MOL0     C24223   5.501   0.812   6.908 -0.0179 -0.5471  0.0172
  921MOL0     O24224   5.391   0.823   6.988  0.0634 -0.3238  0.1015
  921MOL0     C24225   5.375   0.937   7.059  0.2092 -0.4448  0.4141
  921MOL0     C24226   5.412   1.065   7.014  0.4240 -0.0693  1.1684
  921MOL0     C24227   5.393   1.185   7.092 -0.5620  0.6538 -0.0489
  921MOL0     C24228   5.325   1.183   7.215  0.4382 -0.6596 -0.8049
  921MOL0     C24229   5.295   1.306   7.295  0.1863 -0.2041 -0.6918
  921MOL0     O24230   5.335   1.427   7.248 -0.8645  0.5045 -0.2824
  921MOL0     C24231   5.286   1.536   7.310  0.0445  0.3128  0.0254
  921MOL0     C24232   5.178   1.601   7.243 -0.3721  0.2177  0.7708
  921MOL0     C24233   5.163   1.741   7.272  0.0606 -0.4802  0.3790
  921MOL0     C24234   5.248   1.812   7.358  0.2788  0.3328 -0.8852
  921MOL0     O24235   5.209   1.939   7.377  0.2939 -0.5325  0.6585
  921MOL0     C24236   5.219   1.995   7.504  0.4908 -0.6601 -0.0928
  921MOL0     C24237   5.138   2.124   7.502  0.3292  0.4162 -1.1469
  921MOL0     C24238   5.144   2.208   7.371 -0.2599 -0.6167  0.5089
  921MOL0     C24239   5.064   2.337   7.390 -1.1405 -0.5390 -0.2385
  921MOL0     C24240   5.077   2.413   7.261 -0.5777  0.2055  0.1016
  921MOL0     C24241   5.008   2.550   7.259 -0.9132 -0.2745  0.8577
  921MOL0     C24242   5.073   2.659   7.178  1.0364 -0.1120  0.5418
  921MOL0     C24243   5.058   2.636   7.033 -0.0920  0.7374  0.3016
  921MOL0    Cl24244   5.193   2.532   6.966  0.1901  0.0058 -0.1392
  921MOL0     C24245   5.337   1.742   7.436 -0.7751 -1.0075 -1.0677
  921MOL0     C24246   5.362   1.600   7.416 -0.0904  0.0381 -0.5527
  921MOL0     O24247   5.229   1.285   7.401  0.4260 -0.2845 -0.1220
  921MOL0     C24248   5.278   1.057   7.261 -0.0440  0.0881  0.4071
  921MOL0     C24249   5.313   0.938   7.185  0.2296 -0.5005 -0.4162
  921MOL0     N24250   5.181   0.408   6.594  1.0580  0.0814 -0.0269
  921MOL0     N24251   5.100   0.396   6.492 -1.1216  0.1723 -0.0939
  921MOL0     C24252   5.395   1.186   6.533 -0.8521  0.4893 -0.2735
  921MOL0     C24253   5.313   1.286   6.588  0.3870 -0.3688 -0.0346
  921MOL0     C24254   5.060   1.577   6.709 -0.7330  0.5032  0.0169
  921MOL0     C24255   5.109   1.708   6.684 -0.5992  0.3769  0.5633
  921MOL0     C24256   5.016   1.806   6.642  0.2666 -0.9158  0.0118
  921MOL0     C24257   4.883   1.774   6.616 -0.3249  0.1530 -0.2326
  921MOL0     O24258   4.782   1.862   6.565  0.2616 -0.3203  0.4243
  921MOL0     C24259   4.807   2.001   6.571  0.3792  0.0569 -1.4803
  921MOL0     C24260   4.842   2.055   6.428  0.1211 -0.0279 -0.7761
  921MOL0     C24261   4.720   2.030   6.338 -0.1097 -0.7354 -0.7507
  921MOL0     C24262   4.763   1.991   6.199 -0.0419  0.1462  0.7176
  921MOL0     C24263   4.812   2.110   6.135  0.4017 -0.1992 -0.7745
  921MOL0     C24264   4.863   2.208   6.083  0.5888  0.0900  1.1539
  921MOL0     C24265   4.838   1.644   6.645  0.1761 -0.6286 -0.5390
  921MOL0     C24266   4.923   1.550   6.706 -0.6776  0.1706  0.2168
  921MOL0     C24267   4.853   1.415   6.749 -0.4552 -0.2077 -0.0233
  921MOL0     H24268   5.126   1.108   6.808 -1.1122  1.9314 -0.1009
  921MOL0     H24269   5.270   0.931   6.707 -4.0500  0.7113  1.1966
  921MOL0     H24270   5.520   1.043   6.372 -1.5128  0.6295  0.3822
  921MOL0     H24271   5.583   0.882   6.401 -1.6931 -2.8493 -2.6026
  921MOL0     H24272   5.372   0.789   6.337 -1.4306  0.8993  1.3967
  921MOL0     H24273   5.429   0.913   6.216 -0.6755  0.4368  0.0477
  921MOL0     H24274   5.280   1.059   6.323  0.0346  0.4220 -0.4759
  921MOL0     H24275   5.197   0.927   6.416  1.7269 -0.2333  1.1710
  921MOL0     H24276   5.089   1.001   6.185 -3.5948 -3.5033 -0.1355
  921MOL0     H24277   5.246   0.960   6.107  2.4941  1.1124  2.3160
  921MOL0     H24278   5.069   0.776   6.077  0.8978 -2.8447  0.2574
  921MOL0     H24279   5.214   0.739   6.176  0.2496 -0.0135  0.3153
  921MOL0     H24280   5.054   0.775   6.391  0.5547  0.0001 -0.3875
  921MOL0     H24281   4.931   0.813   6.270 -0.7594  0.4113  4.7630
  921MOL0     H24282   4.885   0.612   6.212 -0.2894  2.6780 -0.3216
  921MOL0     H24283   4.917   0.586   6.378  1.9666 -1.4934 -0.0986
  921MOL0     H24284   5.023   0.416   6.235 -1.0267  1.4202 -3.1784
  921MOL0     H24285   5.148   0.530   6.196  1.8022  1.1897  1.5048
  921MOL0     H24286   5.321   0.609   6.373  0.0349  1.7052  1.2960
  921MOL0     H24287   5.444   0.457   6.685  2.2179 -0.6666 -2.3373
  921MOL0     H24288   5.467   0.573   6.559 -0.7936 -3.7880 -3.0782
  921MOL0     H24289   5.332   0.735   6.694  0.2142  0.2521 -0.6644
  921MOL0     H24290   5.281   0.610   6.808 -0.4915  4.0948  1.5782
  921MOL0     H24291   5.574   0.676   6.756 -1.0269 -1.3143 -0.6776
  921MOL0     H24292   5.526   0.592   6.907  0.1329 -0.7807  0.8359
  921MOL0     H24293   5.500   0.888   6.829  1.7437  2.2127  2.4599
  921MOL0     H24294   5.596   0.830   6.959  1.1131 -1.3343 -1.7110
  921MOL0     H24295   5.471   1.072   6.923  2.0700  0.2901  2.2217
  921MOL0     H24296   5.435   1.276   7.050 -0.9986  1.5356  1.3642
  921MOL0     H24297   5.120   1.555   7.164  1.6620  2.1778 -2.0545
  921MOL0     H24298   5.097   1.806   7.215  0.3884  0.8901  1.5305
  921MOL0     H24299   5.180   1.921   7.575  0.0341  0.9499  1.3858
  921MOL0     H24300   5.325   2.012   7.529 -0.3160 -0.5054  3.8231
  921MOL0     H24301   5.031   2.111   7.521  0.4860 -0.0707 -0.5739
  921MOL0     H24302   5.186   2.188   7.577 -1.4171  1.3013 -0.7339
  921MOL0     H24303   5.248   2.233   7.350 -0.6251  1.6451  1.0833
  921MOL0     H24304   5.104   2.163   7.279 -3.2086  2.6531 -0.0572
  921MOL0     H24305   5.113   2.389   7.473  0.3265 -2.2708  0.0415
  921MOL0     H24306   4.959   2.325   7.420 -0.8035  1.7993  2.2295
  921MOL0     H24307   5.034   2.351   7.182  3.6344 -2.2299 -0.5994
  921MOL0     H24308   5.181   2.428   7.229 -0.8704  1.2788 -0.3623
  921MOL0     H24309   4.903   2.537   7.231 -0.3844  1.7827 -2.5945
  921MOL0     H24310   5.017   2.593   7.359 -0.1312  1.4663  0.0806
  921MOL0     H24311   5.179   2.668   7.203  0.6200 -0.5326  2.6314
  921MOL0     H24312   5.026   2.756   7.199  1.5588  0.3501 -0.3379
  921MOL0     H24313   4.959   2.594   7.014 -0.1860  0.9458  0.3212
  921MOL0     H24314   5.064   2.728   6.973  3.7397 -1.3297 -2.8837
  921MOL0     H24315   5.387   1.780   7.525 -0.5432 -1.4324 -1.0124
  921MOL0     H24316   5.433   1.537   7.470 -2.5238 -1.6909  0.8314
  921MOL0     H24317   5.224   1.046   7.354 -0.0364 -0.9493  0.3027
  921MOL0     H24318   5.290   0.850   7.244 -2.3343  1.9211  2.5288
  921MOL0     H24319   5.485   1.214   6.478  0.6242  1.8680  2.6173
  921MOL0     H24320   5.313   1.385   6.544  0.0891 -0.2930  0.1326
  921MOL0     H24321   5.211   1.732   6.715 -0.5675  0.2985  0.5213
  921MOL0     H24322   5.059   1.904   6.627 -1.0732 -0.4041 -0.5497
  921MOL0     H24323   4.889   2.020   6.640 -1.1047 -3.5865  1.6757
  921MOL0     H24324   4.724   2.052   6.620 -0.0645 -1.5540 -0.4794
  921MOL0     H24325   4.936   2.014   6.392  1.3049 -0.7732  2.7229
  921MOL0     H24326   4.864   2.161   6.447 -0.0107 -0.4514  2.3998
  921MOL0     H24327   4.653   2.116   6.346 -0.9620 -1.0557 -3.3885
  921MOL0     H24328   4.663   1.944   6.373 -1.5789  0.9746  1.3747
  921MOL0     H24329   4.840   1.914   6.205 -2.3702 -2.3678  0.1931
  921MOL0     H24330   4.684   1.954   6.133 -2.0600  2.9736  1.3148
  921MOL0     H24331   4.904   2.290   6.028 -2.7194  1.8749  1.0767
  921MOL0     H24332   4.733   1.625   6.628  0.0242  0.6574 -1.2143
  921MOL0     H24333   4.752   1.430   6.788  0.2662 -0.4754  2.0715
  921MOL0     H24334   4.850   1.356   6.657  0.3140  0.2425 -0.3394
  921MOL0     H24335   4.914   1.372   6.829 -0.2879  1.5740  0.8498
  922MOL0     O24336   2.072  11.418   7.110 -0.5663  0.1933 -0.8549
  922MOL0     C24337   2.074  11.311   7.171  0.5364  0.4726  0.1384
  922MOL0     O24338   2.165  11.283   7.272  0.1310  0.1726  0.1646
  922MOL0     C24339   2.273  11.371   7.286  0.0944  0.9155  0.2282
  922MOL0     C24340   2.296  11.425   7.407  0.3775  0.7350 -0.6354
  922MOL0     C24341   2.407  11.497   7.433  1.2729 -0.3145  0.0071
  922MOL0     C24342   2.501  11.523   7.337  0.6346  0.4643  0.6774
  922MOL0     O24343   2.611  11.590   7.374  0.5740 -0.5346  0.0706
  922MOL0     C24344   2.725  11.586   7.285  0.2529  0.6316  0.3703
  922MOL0     C24345   2.831  11.630   7.377 -0.0139  0.3756 -0.1239
  922MOL0     C24346   2.965  11.642   7.299 -0.7133 -0.0898 -0.4941
  922MOL0     C24347   3.090  11.629   7.391  0.3817  1.2415 -1.1690
  922MOL0     C24348   3.211  11.641   7.307 -0.5302  0.6040 -0.2420
  922MOL0     C24349   3.342  11.666   7.396 -0.5492  0.1333 -0.0384
  922MOL0     C24350   3.456  11.694   7.297 -1.0457 -0.2838  0.9570
  922MOL0     C24351   3.568  11.781   7.349 -0.8684  0.3442  0.8467
  922MOL0     N24352   3.701  11.781   7.277 -0.8443 -0.2794  0.4698
  922MOL0     C24353   3.711  11.765   7.137  0.2452 -0.4530  0.0183
  922MOL0     C24354   3.842  11.763   7.111 -0.9103 -0.3885  0.1423
  922MOL0     C24355   3.916  11.758   6.984 -0.5769 -0.5003 -0.1385
  922MOL0     C24356   4.007  11.638   6.984  0.0045  0.7803  0.5239
  922MOL0     C24357   3.934  11.504   7.001  0.3901  0.6269 -1.2142
  922MOL0     C24358   3.871  11.447   6.871 -0.6400 -0.3073  0.4125
  922MOL0     O24359   3.786  11.547   6.817  0.4469 -0.0121 -0.3125
  922MOL0     C24360   3.648  11.526   6.831 -0.3111 -0.5924 -0.0892
  922MOL0     C24361   3.592  11.527   6.960  0.1179 -0.0876  0.0165
  922MOL0     C24362   3.452  11.530   6.964 -1.2588 -0.0400 -0.0552
  922MOL0     C24363   3.372  11.506   6.847  0.4588 -0.5455 -1.1181
  922MOL0     C24364   3.225  11.505   6.861 -0.0004  0.1558 -1.3254
  922MOL0     O24365   3.151  11.511   6.739  0.1646 -0.4858  0.2670
  922MOL0     C24366   3.017  11.548   6.731  0.4059  0.8104 -0.5665
  922MOL0     C24367   2.950  11.494   6.618 -0.4195 -0.8285  0.9136
  922MOL0     C24368   2.807  11.513   6.596  0.4693 -0.2187  0.2867
  922MOL0     C24369   2.744  11.605   6.679 -0.9454  0.3292  0.8989
  922MOL0     O24370   2.601  11.628   6.679  0.1425 -0.4102 -0.4184
  922MOL0     C24371   2.507  11.550   6.607  0.5564 -0.9598 -0.4519
  922MOL0     C24372   2.365  11.550   6.662  0.3576 -0.1540  0.4722
  922MOL0     C24373   2.285  11.431   6.607 -1.7924 -0.1521  0.5301
  922MOL0     C24374   2.153  11.423   6.675 -0.2448 -0.6624  0.2873
  922MOL0     C24375   2.044  11.482   6.589 -0.2356 -0.0671  1.3293
  922MOL0     C24376   1.909  11.453   6.660  0.6773  0.2435 -0.5340
  922MOL0     C24377   1.799  11.477   6.564  0.2310  0.2882  0.0669
  922MOL0     C24378   1.681  11.513   6.645  0.2968 -0.6845 -0.1248
  922MOL0    Cl24379   1.688  11.675   6.724  0.1208 -0.1652  0.4065
  922MOL0     C24380   2.816  11.662   6.783  0.6716 -0.1567  0.1586
  922MOL0     C24381   2.948  11.640   6.813  0.3105 -0.0798 -0.6876
  922MOL0     O24382   3.184  11.490   6.972  0.2012 -0.0472 -0.5496
  922MOL0     C24383   3.435  11.501   6.725 -0.7698 -0.1473  0.6388
  922MOL0     C24384   3.572  11.508   6.716 -0.7160 -0.2278 -0.4376
  922MOL0     N24385   3.911  11.779   7.227  0.1986 -0.5354 -0.0861
  922MOL0     N24386   3.827  11.793   7.327 -0.1491  0.5154 -0.5230
  922MOL0     C24387   2.483  11.472   7.202  0.4005 -0.3135 -1.3248
  922MOL0     C24388   2.367  11.385   7.182 -0.0230 -0.5258 -0.1026
  922MOL0     C24389   1.987  11.205   7.114 -0.7262 -0.8498 -0.1941
  922MOL0     C24390   2.037  11.070   7.121  0.2183 -1.3352 -0.8558
  922MOL0     C24391   1.975  10.959   7.055  0.2354  0.1909  0.2161
  922MOL0     C24392   1.864  10.987   6.984  0.8298 -1.0843  0.1054
  922MOL0     O24393   1.798  10.893   6.912 -0.2187 -0.0770 -0.2618
  922MOL0     C24394   1.869  10.760   6.877 -0.1169 -1.1631  0.1533
  922MOL0     C24395   1.788  10.675   6.779  0.0692 -0.1768  0.5393
  922MOL0     C24396   1.643  10.632   6.817 -0.4286  0.6611 -0.0024
  922MOL0     C24397   1.550  10.594   6.702 -0.0529  0.5728  0.1407
  922MOL0     C24398   1.506  10.711   6.620  0.0542 -1.0326 -0.4586
  922MOL0     C24399   1.473  10.798   6.544  0.4752 -0.4429 -0.1195
  922MOL0     C24400   1.804  11.112   6.985  0.0512 -0.3882  0.0977
  922MOL0     C24401   1.862  11.221   7.047 -0.2042  0.3633 -0.4256
  922MOL0     C24402   1.786  11.356   7.054 -0.9157  0.0435  0.4407
  922MOL0     H24403   2.223  11.398   7.483  0.8847 -1.6450 -0.8886
  922MOL0     H24404   2.429  11.538   7.531  0.1259  2.1528 -0.6908
  922MOL0     H24405   2.756  11.485   7.256 -0.7089  1.5720 -4.9220
  922MOL0     H24406   2.716  11.642   7.192  1.3252  0.6207  0.2478
  922MOL0     H24407   2.852  11.568   7.465  2.5459  2.0448  0.5389
  922MOL0     H24408   2.802  11.732   7.403 -0.8317  0.9515 -2.8712
  922MOL0     H24409   2.971  11.744   7.259  2.0047 -0.3391 -0.9319
  922MOL0     H24410   2.964  11.574   7.213 -3.4831 -1.0418  0.1829
  922MOL0     H24411   3.086  11.700   7.474  0.9213 -0.1253  0.0617
  922MOL0     H24412   3.085  11.528   7.433 -1.6813  1.5447 -0.5653
  922MOL0     H24413   3.221  11.547   7.251 -1.1292  0.4469 -0.0930
  922MOL0     H24414   3.186  11.726   7.243 -0.1916  2.2542  1.7268
  922MOL0     H24415   3.323  11.745   7.469  1.7809 -0.0611  0.8628
  922MOL0     H24416   3.379  11.570   7.434  3.9927  0.4361 -2.8976
  922MOL0     H24417   3.420  11.728   7.199 -0.4208  1.1847  1.2107
  922MOL0     H24418   3.501  11.596   7.279  0.8319  1.2201 -4.5146
  922MOL0     H24419   3.527  11.882   7.357  0.9570  1.1536  0.4449
  922MOL0     H24420   3.594  11.758   7.453  0.2958  1.8142  0.9226
  922MOL0     H24421   3.634  11.771   7.061 -1.0316  0.4336  1.3329
  922MOL0     H24422   3.850  11.749   6.896 -3.6560 -0.1723  1.9786
  922MOL0     H24423   3.989  11.838   6.975  0.8900 -1.9322 -1.8815
  922MOL0     H24424   4.060  11.643   6.889  0.7683  1.1777  0.9549
  922MOL0     H24425   4.080  11.644   7.066  0.2738 -0.0863  0.3582
  922MOL0     H24426   3.857  11.518   7.077 -1.4514  0.5989 -2.9916
  922MOL0     H24427   4.001  11.424   7.033  0.4568  0.9804 -0.4309
  922MOL0     H24428   3.818  11.354   6.893  0.3585 -0.3995  2.7289
  922MOL0     H24429   3.952  11.419   6.804 -0.4768 -0.7477  0.7842
  922MOL0     H24430   3.646  11.542   7.053 -1.2638  2.1649  0.5200
  922MOL0     H24431   3.403  11.551   7.059  0.6056  0.1965  0.8817
  922MOL0     H24432   3.000  11.429   6.547 -2.0881 -2.0668  0.8077
  922MOL0     H24433   2.750  11.472   6.513  2.4375 -0.4548 -1.0440
  922MOL0     H24434   2.499  11.571   6.500  1.5816 -2.0540 -0.7529
  922MOL0     H24435   2.544  11.448   6.613  1.0539 -0.6853  2.3865
  922MOL0     H24436   2.375  11.540   6.771 -1.4831 -4.4401  0.4599
  922MOL0     H24437   2.321  11.649   6.650  2.4328  0.7190 -0.5050
  922MOL0     H24438   2.272  11.430   6.498  1.5821  0.3074  0.0206
  922MOL0     H24439   2.337  11.336   6.615 -2.1223 -0.5261 -1.2639
  922MOL0     H24440   2.150  11.458   6.779 -1.2459 -2.4613  0.9001
  922MOL0     H24441   2.129  11.317   6.681 -2.7701 -0.2601 -1.1602
  922MOL0     H24442   2.038  11.421   6.499 -1.0503  0.2948  1.1371
  922MOL0     H24443   2.056  11.584   6.552 -1.6287 -1.7096 -4.6316
  922MOL0     H24444   1.909  11.346   6.681 -0.1702  0.3012 -0.2215
  922MOL0     H24445   1.892  11.504   6.756 -0.7434 -4.1393  1.8254
  922MOL0     H24446   1.793  11.396   6.490  3.6984  1.9906 -2.3948
  922MOL0     H24447   1.830  11.564   6.505  2.0924 -0.8552 -0.7341
  922MOL0     H24448   1.592  11.506   6.583 -0.6871 -1.0040  1.2683
  922MOL0     H24449   1.678  11.439   6.726 -2.2845  1.4869  1.9761
  922MOL0     H24450   2.757  11.724   6.850 -1.8297 -2.1440 -0.0810
  922MOL0     H24451   3.000  11.681   6.899 -0.1276  3.0712 -1.7981
  922MOL0     H24452   3.387  11.494   6.628  0.3136  2.2383 -0.1479
  922MOL0     H24453   3.617  11.495   6.618  1.5129  2.0235  0.2052
  922MOL0     H24454   2.556  11.487   7.124  2.4313  3.0733  0.9365
  922MOL0     H24455   2.369  11.320   7.095 -0.9735 -0.7378  0.0290
  922MOL0     H24456   2.127  11.061   7.180  1.5680 -0.8216 -2.7076
  922MOL0     H24457   2.012  10.858   7.071  0.0617  0.1678  0.4844
  922MOL0     H24458   1.893  10.707   6.969  1.0386 -0.8562  0.0450
  922MOL0     H24459   1.948  10.784   6.805  0.2189 -3.8161 -0.4408
  922MOL0     H24460   1.850  10.595   6.737 -0.8592  0.5845 -2.5771
  922MOL0     H24461   1.771  10.739   6.692  2.7456  1.2766  0.9790
  922MOL0     H24462   1.596  10.698   6.890 -0.9988 -1.8767  2.0874
  922MOL0     H24463   1.648  10.534   6.867  1.1822  1.9685  2.6448
  922MOL0     H24464   1.601  10.511   6.652 -3.1539 -1.1687 -0.3703
  922MOL0     H24465   1.466  10.535   6.740  2.2080 -2.3356  0.9227
  922MOL0     H24466   1.438  10.866   6.469 -1.3703 -3.5648 -2.3252
  922MOL0     H24467   1.711  11.130   6.933 -2.1306  0.5608  3.9375
  922MOL0     H24468   1.677  11.352   7.058 -1.3205  2.6249 -3.4325
  922MOL0     H24469   1.832  11.421   7.129  1.8078 -0.6402 -0.5162
  922MOL0     H24470   1.799  11.400   6.955 -0.9197  3.2398  1.7311
  923MOL0     O24471   3.111   9.019   7.407 -0.1571  0.8943 -0.0270
  923MOL0     C24472   3.005   8.962   7.449 -0.4257 -1.2827  0.8561
  923MOL0     O24473   2.885   8.943   7.379 -1.1369 -0.3297 -0.6977
  923MOL0     C24474   2.872   9.018   7.261 -0.1125  0.0688 -0.6274
  923MOL0     C24475   2.905   9.157   7.247 -1.1447 -0.0445  0.0892
  923MOL0     C24476   2.905   9.213   7.117  0.1187  0.1681 -0.3228
  923MOL0     C24477   2.877   9.124   7.002 -0.8953 -0.2383  0.1650
  923MOL0     O24478   2.869   9.165   6.871 -0.5868  0.2864 -0.3511
  923MOL0     C24479   2.952   9.276   6.839 -1.1547  0.0532  0.0280
  923MOL0     C24480   2.964   9.275   6.691  0.0790  0.9177 -0.5109
  923MOL0     C24481   2.826   9.278   6.608 -0.1812 -0.4721 -0.3279
  923MOL0     C24482   2.832   9.260   6.458  0.4683 -0.1246 -0.1561
  923MOL0     C24483   2.703   9.309   6.389  0.0070  1.0949 -0.6671
  923MOL0     C24484   2.734   9.300   6.235 -0.2391  0.5790 -0.3141
  923MOL0     C24485   2.749   9.167   6.157  0.6992  0.3034 -0.5861
  923MOL0     C24486   2.635   9.057   6.158 -0.1256  1.6264  0.5882
  923MOL0     N24487   2.547   9.050   6.041  0.6910  0.4586  0.1062
  923MOL0     C24488   2.571   9.045   5.904 -0.0264  0.6033  0.0857
  923MOL0     C24489   2.450   9.052   5.843 -0.3937  0.4780 -0.0002
  923MOL0     C24490   2.412   9.066   5.698  0.2258 -0.1595  0.1208
  923MOL0     C24491   2.521   8.997   5.617 -0.3642  1.1365  0.1501
  923MOL0     C24492   2.492   9.012   5.469  0.9135 -0.4059  0.4593
  923MOL0     C24493   2.598   8.951   5.368 -0.9773 -0.4511  1.3194
  923MOL0     O24494   2.618   8.811   5.396  0.6213  0.3289  0.2362
  923MOL0     C24495   2.670   8.734   5.301  0.9576 -0.1654  0.5338
  923MOL0     C24496   2.773   8.782   5.211 -0.3167 -0.7031  0.2708
  923MOL0     C24497   2.827   8.692   5.110 -0.0942 -0.1432 -0.4970
  923MOL0     C24498   2.790   8.561   5.106  0.2062 -0.2413  0.2064
  923MOL0     C24499   2.864   8.469   5.005  0.0412 -0.1010  0.0282
  923MOL0     O24500   2.977   8.520   4.938  0.4403  0.7569 -0.0949
  923MOL0     C24501   3.016   8.453   4.818  0.1250  0.8047 -0.3767
  923MOL0     C24502   3.052   8.534   4.713 -0.0731  1.1808  0.3724
  923MOL0     C24503   3.067   8.479   4.591  0.4155 -0.0288 -0.1987
  923MOL0     C24504   3.046   8.341   4.574  0.0772 -0.2758 -0.2863
  923MOL0     O24505   3.064   8.284   4.449  0.3141 -0.3629 -0.3302
  923MOL0     C24506   3.142   8.336   4.347  0.3726 -0.3389 -0.6577
  923MOL0     C24507   3.165   8.220   4.248 -1.4658  0.3221  0.2722
  923MOL0     C24508   3.210   8.092   4.318 -0.0030 -0.2653 -0.1269
  923MOL0     C24509   3.231   7.976   4.216 -0.3084  0.3495  0.1850
  923MOL0     C24510   3.356   7.880   4.252  0.3313 -0.7695 -0.5535
  923MOL0     C24511   3.314   7.753   4.320  0.6647  0.1342 -0.2890
  923MOL0     C24512   3.438   7.684   4.385 -0.9317 -0.4867 -0.0311
  923MOL0     C24513   3.432   7.533   4.423  0.3321 -1.3670  0.1864
  923MOL0    Cl24514   3.397   7.449   4.266 -0.2659 -0.4176  0.6134
  923MOL0     C24515   3.016   8.256   4.675 -0.2135 -0.2661 -0.5503
  923MOL0     C24516   3.009   8.314   4.803 -0.2740 -1.0278  0.6220
  923MOL0     O24517   2.800   8.362   4.973 -0.5290 -0.7169 -0.4550
  923MOL0     C24518   2.684   8.516   5.187 -0.3123 -0.9109  0.4092
  923MOL0     C24519   2.627   8.599   5.283 -0.0951 -0.1036  0.8330
  923MOL0     N24520   2.352   9.045   5.938 -1.0563 -0.3816  0.4081
  923MOL0     N24521   2.405   9.052   6.054  0.3564  1.0578 -0.8704
  923MOL0     C24522   2.838   8.993   7.017 -0.9172  0.8358  0.1846
  923MOL0     C24523   2.832   8.942   7.141  0.1600 -0.2768  0.0810
  923MOL0     C24524   3.014   8.895   7.580  0.2018 -0.2415  1.2075
  923MOL0     C24525   2.945   8.781   7.597  0.2133 -0.2302  0.2570
  923MOL0     C24526   2.968   8.702   7.709 -0.1333  0.3468  0.1297
  923MOL0     C24527   3.037   8.743   7.814  0.2511 -0.3072 -0.9147
  923MOL0     O24528   3.020   8.665   7.934  0.0289 -0.0007 -0.0323
  923MOL0     C24529   3.021   8.731   8.051  0.5930  0.0930 -0.8407
  923MOL0     C24530   2.982   8.611   8.154  1.3232 -0.3567  0.0361
  923MOL0     C24531   3.084   8.488   8.149  0.9193  0.3047  0.0845
  923MOL0     C24532   3.083   8.392   8.267  0.5986 -1.2397 -0.4602
  923MOL0     C24533   3.172   8.433   8.373 -0.2311  0.0956 -0.4417
  923MOL0     C24534   3.228   8.453   8.476 -0.1207  0.4473 -0.2452
  923MOL0     C24535   3.111   8.858   7.807  0.2070 -0.0834  0.2673
  923MOL0     C24536   3.090   8.934   7.688 -0.1858 -0.0193 -0.2909
  923MOL0     C24537   3.152   9.064   7.701 -0.0655 -0.7653 -0.3618
  923MOL0     H24538   2.920   9.221   7.332  1.6816  1.9500 -1.7291
  923MOL0     H24539   2.913   9.320   7.102 -1.8775  0.3501 -0.3536
  923MOL0     H24540   2.892   9.365   6.863 -2.7723 -1.6465  2.8390
  923MOL0     H24541   3.044   9.259   6.897 -0.1203  0.0033 -1.5739
  923MOL0     H24542   3.009   9.178   6.667 -1.9747  0.1917 -1.7325
  923MOL0     H24543   3.033   9.357   6.667  1.9069 -0.0048  1.3232
  923MOL0     H24544   2.769   9.368   6.632 -1.8509 -1.2175 -1.3153
  923MOL0     H24545   2.766   9.193   6.642 -0.4169  0.2421  1.1189
  923MOL0     H24546   2.920   9.319   6.431  0.2554 -0.6367 -2.1296
  923MOL0     H24547   2.861   9.156   6.440  1.8532 -0.0832  1.5675
  923MOL0     H24548   2.621   9.244   6.421 -1.6763  2.9140 -1.1039
  923MOL0     H24549   2.666   9.409   6.412 -0.0480  0.3864  2.9460
  923MOL0     H24550   2.648   9.354   6.195  2.5060  3.6706 -2.6443
  923MOL0     H24551   2.825   9.359   6.219  1.3017 -1.0177  1.8950
  923MOL0     H24552   2.835   9.125   6.209  0.7063  1.5888  0.5151
  923MOL0     H24553   2.790   9.176   6.056 -1.9341 -2.1541 -2.0428
  923MOL0     H24554   2.688   8.962   6.144 -0.0472  1.9722 -2.0072
  923MOL0     H24555   2.585   9.058   6.255  0.1327 -3.7333  1.1015
  923MOL0     H24556   2.668   9.052   5.856  0.6541  1.8359  1.5751
  923MOL0     H24557   2.311   9.031   5.679 -0.9435  3.8432 -2.3876
  923MOL0     H24558   2.412   9.170   5.662 -3.2500  0.5486  1.7925
  923MOL0     H24559   2.620   9.034   5.643  0.2349 -1.7331  2.4587
  923MOL0     H24560   2.527   8.894   5.653  1.5196  1.3551  0.5275
  923MOL0     H24561   2.478   9.117   5.441  0.1170 -0.3610  1.0050
  923MOL0     H24562   2.403   8.954   5.446  1.5179 -1.7526  1.4205
  923MOL0     H24563   2.694   9.001   5.388 -1.4761  0.1104  2.3666
  923MOL0     H24564   2.568   8.978   5.267  2.2050  3.5114  1.1844
  923MOL0     H24565   2.817   8.881   5.212 -0.8487 -0.4590  1.2417
  923MOL0     H24566   2.886   8.740   5.032  0.6720 -0.0819  0.1062
  923MOL0     H24567   3.048   8.643   4.721 -0.4686  1.1281  0.9288
  923MOL0     H24568   3.071   8.545   4.506  2.1141 -1.0982 -1.0102
  923MOL0     H24569   3.079   8.412   4.299  0.6824  2.7330  3.2059
  923MOL0     H24570   3.232   8.380   4.391 -0.7146  0.3265  1.0039
  923MOL0     H24571   3.071   8.208   4.194 -1.2000  1.2019 -0.4112
  923MOL0     H24572   3.246   8.242   4.178  0.5474 -1.6481  1.8320
  923MOL0     H24573   3.307   8.116   4.362  0.7153 -1.9962 -0.7007
  923MOL0     H24574   3.141   8.066   4.398  0.0120 -1.1967 -0.4093
  923MOL0     H24575   3.252   8.014   4.116  1.7043 -0.7194  0.1619
  923MOL0     H24576   3.134   7.926   4.211  1.4298 -3.5051  0.9490
  923MOL0     H24577   3.423   7.927   4.325  2.0930 -2.8424 -0.7239
  923MOL0     H24578   3.408   7.877   4.156 -0.2660 -0.4914 -0.8895
  923MOL0     H24579   3.232   7.769   4.391 -0.0328 -0.6946 -0.8863
  923MOL0     H24580   3.285   7.679   4.245  0.5400 -2.9514  2.5721
  923MOL0     H24581   3.455   7.739   4.478 -4.4053  3.1181 -1.2391
  923MOL0     H24582   3.524   7.692   4.317 -2.0526  1.5344 -1.3044
  923MOL0     H24583   3.527   7.508   4.471  2.1312 -2.0389 -3.3867
  923MOL0     H24584   3.346   7.518   4.489  2.0320  0.4789  3.0168
  923MOL0     H24585   2.993   8.151   4.656 -1.6332 -0.5469  2.1434
  923MOL0     H24586   2.996   8.249   4.888  0.1590 -2.1433 -0.1423
  923MOL0     H24587   2.628   8.425   5.169 -0.5115 -0.3795 -2.1648
  923MOL0     H24588   2.547   8.561   5.347 -0.4423 -0.8242 -0.0080
  923MOL0     H24589   2.805   8.926   6.938  1.6219 -0.5337  0.1603
  923MOL0     H24590   2.797   8.841   7.160 -2.7106  0.5813 -0.1684
  923MOL0     H24591   2.870   8.744   7.528 -0.9906 -2.2821  2.5224
  923MOL0     H24592   2.931   8.599   7.708  0.9782 -0.1314  2.4211
  923MOL0     H24593   2.942   8.806   8.059  1.6470  1.0742  1.2836
  923MOL0     H24594   3.116   8.768   8.089  1.0762 -1.3939 -0.5485
  923MOL0     H24595   2.886   8.566   8.124  0.9036  0.9438 -0.6901
  923MOL0     H24596   2.978   8.655   8.254  3.2504  0.6347 -0.2809
  923MOL0     H24597   3.187   8.524   8.135  1.0522  0.4522  1.2743
  923MOL0     H24598   3.055   8.431   8.061 -3.7238 -1.7152  2.5467
  923MOL0     H24599   2.978   8.387   8.299  0.6291 -2.6092 -0.5206
  923MOL0     H24600   3.102   8.290   8.234 -2.8853 -2.3829  0.5638
  923MOL0     H24601   3.295   8.432   8.557  3.4878 -0.9786 -3.3334
  923MOL0     H24602   3.170   8.902   7.887  2.1125  0.3567 -1.2989
  923MOL0     H24603   3.257   9.065   7.669  0.2238  0.2831  0.5590
  923MOL0     H24604   3.107   9.140   7.637 -1.9769 -3.5183 -2.4801
  923MOL0     H24605   3.149   9.093   7.807  0.2466  0.6530 -0.7134
  924MOL0     O24606   7.708   4.235   5.795 -0.0793  0.0458  0.8050
  924MOL0     C24607   7.805   4.168   5.763  0.1393 -0.7745 -0.7587
  924MOL0     O24608   7.810   4.038   5.783  0.2811 -0.4552 -0.1588
  924MOL0     C24609   7.843   3.952   5.670  0.1508 -0.4378 -0.2264
  924MOL0     C24610   7.824   3.986   5.539 -1.1176  0.3122 -0.2906
  924MOL0     C24611   7.829   3.892   5.446  0.3635 -0.7884 -0.0770
  924MOL0     C24612   7.876   3.767   5.483 -0.2067 -0.7138  0.2293
  924MOL0     O24613   7.900   3.677   5.388 -0.6047 -0.3516 -0.3411
  924MOL0     C24614   7.957   3.726   5.262  0.1844  0.0958 -0.1283
  924MOL0     C24615   7.960   3.626   5.157  0.4557 -0.1552  0.4557
  924MOL0     C24616   8.071   3.517   5.193  0.5078 -0.5321  0.5031
  924MOL0     C24617   8.082   3.407   5.095  0.6053 -0.3066  0.2169
  924MOL0     C24618   8.172   3.296   5.131 -0.5065 -0.4617  0.7185
  924MOL0     C24619   8.173   3.202   5.012  0.0333 -0.0381 -0.0827
  924MOL0     C24620   8.193   3.055   5.048 -0.4886 -0.0668  0.3707
  924MOL0     C24621   8.129   3.003   5.173  0.4931 -0.0871 -0.9058
  924MOL0     N24622   8.137   2.857   5.187  0.3261 -0.7500  0.6230
  924MOL0     C24623   8.113   2.754   5.099 -0.2987  0.0384 -0.5495
  924MOL0     C24624   8.110   2.634   5.174 -0.0760  0.2104  0.1596
  924MOL0     C24625   8.091   2.495   5.128  1.2421 -0.2997  0.1691
  924MOL0     C24626   8.233   2.419   5.132 -1.2764  0.4423  0.0311
  924MOL0     C24627   8.353   2.492   5.058  0.1292  0.3657  0.4641
  924MOL0     C24628   8.487   2.476   5.130  0.2435  0.9641  0.4351
  924MOL0     O24629   8.538   2.337   5.113  0.3953 -0.2374  0.2540
  924MOL0     C24630   8.590   2.288   5.234 -0.3105  0.2768 -0.3725
  924MOL0     C24631   8.503   2.232   5.322  0.5990  0.7639  1.0805
  924MOL0     C24632   8.540   2.180   5.442 -0.2153  0.0259 -1.3223
  924MOL0     C24633   8.678   2.201   5.478 -0.4392  0.8558 -1.0206
  924MOL0     C24634   8.728   2.149   5.602  0.4761  0.3130 -0.0299
  924MOL0     O24635   8.632   2.138   5.698  0.8162 -0.4327 -0.4248
  924MOL0     C24636   8.675   2.097   5.825 -0.0856  0.6112  0.3100
  924MOL0     C24637   8.705   1.965   5.862  1.0584 -0.0502 -0.3478
  924MOL0     C24638   8.750   1.939   5.994 -0.2653  1.5543 -0.1814
  924MOL0     C24639   8.738   2.038   6.086 -0.8174  0.1804 -0.7092
  924MOL0     O24640   8.783   2.005   6.217  0.1432 -0.2598  0.7705
  924MOL0     C24641   8.683   1.956   6.314 -0.0883 -0.1544 -0.1678
  924MOL0     C24642   8.741   1.971   6.451  0.3661  0.0114  0.3340
  924MOL0     C24643   8.754   2.113   6.491  0.3094  0.3492  1.1451
  924MOL0     C24644   8.837   2.125   6.611  0.0541  1.0600  0.2686
  924MOL0     C24645   8.848   2.273   6.664  0.2204  0.1411 -0.5096
  924MOL0     C24646   8.944   2.303   6.780 -0.0068 -0.1633 -0.1564
  924MOL0     C24647   9.086   2.240   6.768  0.3702 -0.5576 -0.8919
  924MOL0     C24648   9.107   2.097   6.811 -0.1457 -0.6546  0.0769
  924MOL0    Cl24649   9.083   2.066   6.983  0.6780 -0.2913 -0.1024
  924MOL0     C24650   8.685   2.165   6.057  0.1909 -0.1184 -0.1112
  924MOL0     C24651   8.660   2.196   5.921 -0.1426 -0.4718  0.5200
  924MOL0     O24652   8.849   2.122   5.615 -0.3415 -0.0391 -0.2705
  924MOL0     C24653   8.776   2.238   5.380  0.5828 -1.1389 -0.7801
  924MOL0     C24654   8.728   2.294   5.261  0.9234 -0.0802  0.2351
  924MOL0     N24655   8.109   2.680   5.303  0.0479  0.3842 -0.5688
  924MOL0     N24656   8.132   2.798   5.309  0.5330  0.4163 -0.8584
  924MOL0     C24657   7.890   3.732   5.617  0.8684  0.7186  0.0475
  924MOL0     C24658   7.869   3.821   5.715 -0.0653 -1.0676 -0.0785
  924MOL0     C24659   7.919   4.242   5.708  0.0493  0.9225  0.2484
  924MOL0     C24660   8.042   4.199   5.746 -0.8534  0.3605  0.0143
  924MOL0     C24661   8.160   4.253   5.703 -0.3165  0.3594  0.5041
  924MOL0     C24662   8.150   4.363   5.620 -0.0671  0.5976  0.0169
  924MOL0     O24663   8.273   4.428   5.601  0.5917  0.6631 -0.2100
  924MOL0     C24664   8.276   4.560   5.656 -0.0814  0.6401  0.5297
  924MOL0     C24665   8.304   4.561   5.800 -0.0184  0.0156  0.0854
  924MOL0     C24666   8.298   4.699   5.848 -0.4566 -0.0615  0.6455
  924MOL0     C24667   8.301   4.705   6.004 -0.2809  0.0901  0.1598
  924MOL0     C24668   8.342   4.842   6.036  0.6974 -0.9048  0.1362
  924MOL0     C24669   8.388   4.955   6.064  0.6460  0.5142 -0.6179
  924MOL0     C24670   8.031   4.401   5.568 -0.5070 -1.0615 -0.2689
  924MOL0     C24671   7.909   4.349   5.617  0.6022  0.1099 -0.0468
  924MOL0     C24672   7.780   4.399   5.551 -0.2404 -0.2255 -0.5724
  924MOL0     H24673   7.776   4.082   5.519 -1.0150  0.7421  1.4166
  924MOL0     H24674   7.791   3.914   5.347  0.5877  0.1152  0.0334
  924MOL0     H24675   7.892   3.809   5.232 -2.3877 -2.2552 -1.4400
  924MOL0     H24676   8.056   3.765   5.289 -0.3693  1.1551  0.4359
  924MOL0     H24677   7.985   3.679   5.064 -1.6090 -0.8939 -0.5918
  924MOL0     H24678   7.861   3.584   5.136 -0.1146  2.2710 -2.5775
  924MOL0     H24679   8.052   3.480   5.295  0.1015 -0.0774  0.5980
  924MOL0     H24680   8.169   3.559   5.214  1.5877 -2.3396 -0.6205
  924MOL0     H24681   7.985   3.357   5.083  1.7530 -2.5304 -0.3864
  924MOL0     H24682   8.109   3.446   4.997 -3.9306  0.8130 -0.8215
  924MOL0     H24683   8.267   3.346   5.152  0.2239 -2.0015  1.2614
  924MOL0     H24684   8.125   3.255   5.221 -2.3457  2.5231  1.2784
  924MOL0     H24685   8.084   3.211   4.950 -1.7391  0.9867  2.4518
  924MOL0     H24686   8.245   3.237   4.937  0.5849  2.3706  1.4709
  924MOL0     H24687   8.300   3.038   5.060 -0.2799  0.8508 -0.0737
  924MOL0     H24688   8.162   2.999   4.960 -1.0054 -0.0081  0.5124
  924MOL0     H24689   8.184   3.050   5.255 -1.2150 -0.6611  0.6616
  924MOL0     H24690   8.024   3.035   5.172  0.5537  0.1588 -0.1981
  924MOL0     H24691   8.097   2.746   4.992 -2.2701 -1.4125 -0.2069
  924MOL0     H24692   8.037   2.439   5.204  1.5626  0.8294  1.2666
  924MOL0     H24693   8.038   2.496   5.033 -0.9846 -0.7341  1.3488
  924MOL0     H24694   8.263   2.426   5.237  2.3411 -1.5242 -0.6957
  924MOL0     H24695   8.224   2.325   5.076 -0.6595  1.9013 -2.7342
  924MOL0     H24696   8.322   2.596   5.050  0.8743  0.5217 -0.7323
  924MOL0     H24697   8.372   2.445   4.960  0.1153 -1.5851  1.3432
  924MOL0     H24698   8.476   2.507   5.234 -3.2376 -1.9870  1.1346
  924MOL0     H24699   8.560   2.544   5.086 -0.0480  0.8433 -0.2508
  924MOL0     H24700   8.404   2.235   5.277  1.1072  0.1201 -0.1124
  924MOL0     H24701   8.476   2.136   5.518 -1.9023  4.4057  0.1767
  924MOL0     H24702   8.706   1.886   5.787  3.7335 -1.0984  0.6736
  924MOL0     H24703   8.767   1.837   6.028  0.7858  1.6971 -0.2414
  924MOL0     H24704   8.588   2.007   6.293 -2.8778 -4.8230 -0.2690
  924MOL0     H24705   8.661   1.854   6.281 -2.9270  0.5421 -0.6609
  924MOL0     H24706   8.688   1.905   6.520  2.4715 -4.0437 -1.5532
  924MOL0     H24707   8.845   1.937   6.441 -0.1606 -1.4653 -0.4208
  924MOL0     H24708   8.815   2.160   6.414  3.1281 -1.4184  2.1487
  924MOL0     H24709   8.654   2.156   6.502 -1.3683 -2.3512 -1.8369
  924MOL0     H24710   8.940   2.096   6.586  0.5411  1.8892  1.2653
  924MOL0     H24711   8.786   2.060   6.684 -0.2817 -0.6722 -1.4133
  924MOL0     H24712   8.749   2.298   6.704  0.3314  0.1842 -0.2640
  924MOL0     H24713   8.886   2.335   6.583  2.8470  0.7051  1.0436
  924MOL0     H24714   8.958   2.412   6.789 -1.4309  0.0486 -0.3547
  924MOL0     H24715   8.906   2.276   6.879 -1.5047 -0.0502 -0.6742
  924MOL0     H24716   9.135   2.299   6.846 -1.7644  0.7523 -0.4513
  924MOL0     H24717   9.121   2.265   6.668 -5.8557  1.4021 -3.0419
  924MOL0     H24718   9.044   2.033   6.749 -2.1707  0.3493  1.0118
  924MOL0     H24719   9.212   2.080   6.786 -0.9717 -0.7413 -3.9686
  924MOL0     H24720   8.661   2.238   6.134 -1.2822 -0.2070 -0.4397
  924MOL0     H24721   8.629   2.299   5.906  0.4148 -0.0618  1.9510
  924MOL0     H24722   8.882   2.243   5.399  0.3752 -1.5476  0.5742
  924MOL0     H24723   8.801   2.321   5.186 -0.3727 -2.5399 -2.0727
  924MOL0     H24724   7.921   3.628   5.626  0.2115  0.5381  0.2892
  924MOL0     H24725   7.890   3.804   5.820  0.1906  2.7785  0.6445
  924MOL0     H24726   8.052   4.126   5.826 -1.7086  0.7488  0.4887
  924MOL0     H24727   8.254   4.232   5.752  0.5017  3.8615  0.6582
  924MOL0     H24728   8.182   4.610   5.633 -0.9590 -0.6837  1.1049
  924MOL0     H24729   8.363   4.613   5.615  1.0202 -0.4224  1.3789
  924MOL0     H24730   8.395   4.508   5.831 -1.2323 -1.5718  1.0435
  924MOL0     H24731   8.228   4.493   5.840 -0.1073 -0.8200 -1.4303
  924MOL0     H24732   8.213   4.758   5.813  0.3427  2.0760  2.0815
  924MOL0     H24733   8.392   4.750   5.824 -0.5481  0.2644  0.9594
  924MOL0     H24734   8.203   4.685   6.048 -0.6008  3.8824  1.5676
  924MOL0     H24735   8.379   4.644   6.050  0.9079  0.2006 -1.5963
  924MOL0     H24736   8.428   5.049   6.096  0.4493  0.1510  0.7481
  924MOL0     H24737   8.019   4.483   5.499  0.9936 -1.5658 -1.1758
  924MOL0     H24738   7.703   4.322   5.539  0.4719 -0.6521 -3.0062
  924MOL0     H24739   7.738   4.482   5.610 -0.1968 -1.2780  0.9837
  924MOL0     H24740   7.804   4.435   5.450 -0.2527 -1.1368 -0.9022
  925MOL0     O24741   3.775  10.216   7.456 -0.1990  0.1042  0.3185
  925MOL0     C24742   3.723  10.106   7.439 -0.7984 -0.1795  0.8381
  925MOL0     O24743   3.779   9.994   7.490 -0.6834 -0.0266 -0.0251
  925MOL0     C24744   3.915   9.982   7.528 -0.0285 -0.2683 -0.0191
  925MOL0     C24745   3.967   9.875   7.606 -0.0582 -0.1203 -0.5654
  925MOL0     C24746   4.100   9.867   7.648  0.6783  0.5540  0.0838
  925MOL0     C24747   4.196   9.964   7.596 -0.4561 -0.6437  0.1690
  925MOL0     O24748   4.329   9.940   7.632  0.2561  0.4211 -0.5808
  925MOL0     C24749   4.430  10.033   7.573  0.0169 -0.0919 -0.0861
  925MOL0     C24750   4.454   9.995   7.434  0.3952 -0.9857 -0.0169
  925MOL0     C24751   4.590  10.047   7.394 -0.3408 -0.7466  0.4237
  925MOL0     C24752   4.597  10.044   7.237  1.1106 -0.2735  0.5200
  925MOL0     C24753   4.546  10.180   7.185 -0.2349 -0.5450  0.5648
  925MOL0     C24754   4.561  10.214   7.040  0.2889  0.4471  0.8615
  925MOL0     C24755   4.467  10.323   6.993  0.1901  1.3949 -1.4955
  925MOL0     C24756   4.465  10.319   6.848 -0.1269  0.0985 -0.4504
  925MOL0     N24757   4.367  10.420   6.802 -0.3527  0.3794 -0.7260
  925MOL0     C24758   4.227  10.414   6.804  1.0652  0.1587 -0.4097
  925MOL0     C24759   4.192  10.538   6.746 -0.4956 -0.8506  0.2716
  925MOL0     C24760   4.055  10.600   6.739 -0.4002 -0.5269 -0.3043
  925MOL0     C24761   4.010  10.635   6.591 -1.6249  0.5008 -0.0949
  925MOL0     C24762   4.105  10.746   6.540 -0.0957  0.1976  0.4850
  925MOL0     C24763   4.047  10.810   6.414 -0.4782 -0.2138 -0.6701
  925MOL0     O24764   4.107  10.936   6.377 -0.0225 -0.2154 -0.2175
  925MOL0     C24765   4.210  10.933   6.288  1.1289  0.4213 -1.3184
  925MOL0     C24766   4.307  10.840   6.275  0.4891  0.7785 -1.0708
  925MOL0     C24767   4.413  10.852   6.184  0.2286  0.3444 -0.1589
  925MOL0     C24768   4.407  10.960   6.097  0.0915 -0.6341  0.3440
  925MOL0     C24769   4.528  10.975   6.017  0.1915  0.2234 -0.5274
  925MOL0     O24770   4.582  10.866   5.944 -0.6380  0.3191 -0.5136
  925MOL0     C24771   4.669  10.867   5.835  0.1648 -0.3956  0.1791
  925MOL0     C24772   4.731  10.981   5.787 -0.4588 -0.4667  0.3899
  925MOL0     C24773   4.835  10.964   5.685  0.6996  0.6847  0.1368
  925MOL0     C24774   4.878  10.839   5.639 -0.3977  0.5049  0.4188
  925MOL0     O24775   4.983  10.834   5.549 -1.5226  0.4288  0.0094
  925MOL0     C24776   5.029  10.702   5.515 -1.1798 -0.7224 -0.9494
  925MOL0     C24777   5.157  10.712   5.430 -0.1189 -0.2038  0.3679
  925MOL0     C24778   5.216  10.562   5.408  1.0207 -0.2459 -0.5377
  925MOL0     C24779   5.200  10.530   5.260  0.3855  0.1985 -0.0140
  925MOL0     C24780   5.284  10.412   5.215  0.5406 -0.6267 -0.1252
  925MOL0     C24781   5.284  10.369   5.065 -0.1041 -0.1863 -1.2193
  925MOL0     C24782   5.336  10.487   4.978 -0.4538 -1.2136  0.5831
  925MOL0     C24783   5.481  10.522   5.013  0.0723 -0.1356 -1.3323
  925MOL0    Cl24784   5.543  10.653   4.894 -0.7146  0.6997 -0.3164
  925MOL0     C24785   4.802  10.730   5.677 -0.8202 -0.4952 -0.0755
  925MOL0     C24786   4.697  10.747   5.775  0.8767  0.6367 -0.7243
  925MOL0     O24787   4.578  11.088   6.009  0.0139  0.5499 -0.2921
  925MOL0     C24788   4.306  11.057   6.104 -0.4019 -0.4596 -0.9390
  925MOL0     C24789   4.205  11.035   6.202  0.0382 -0.4139 -0.2557
  925MOL0     N24790   4.308  10.608   6.728  0.8443  0.3811  0.0938
  925MOL0     N24791   4.410  10.541   6.762  0.2902 -0.2259 -0.1445
  925MOL0     C24792   4.148  10.072   7.523  0.5459  0.4388 -0.4038
  925MOL0     C24793   4.013  10.080   7.489 -0.2950  0.3044  0.1390
  925MOL0     C24794   3.582  10.104   7.378 -0.2586 -0.0352  0.2028
  925MOL0     C24795   3.520   9.981   7.364  0.0980 -0.0765  0.4829
  925MOL0     C24796   3.381   9.974   7.320 -0.9067 -0.1402 -1.3451
  925MOL0     C24797   3.314  10.080   7.268  0.3143  0.6398 -0.0449
  925MOL0     O24798   3.195  10.077   7.193 -0.3405 -0.0080  0.7603
  925MOL0     C24799   3.097   9.968   7.206  0.2754  0.1981  0.1173
  925MOL0     C24800   2.997  10.007   7.313 -0.2477  0.7408 -0.5576
  925MOL0     C24801   2.893   9.898   7.348 -0.3891  0.0811 -0.1904
  925MOL0     C24802   2.958   9.783   7.425  0.1020  0.7836 -0.5487
  925MOL0     C24803   2.983   9.792   7.578 -0.2137  0.0263  1.3082
  925MOL0     C24804   3.005   9.812   7.692  0.6216  0.4987 -0.6483
  925MOL0     C24805   3.383  10.203   7.265 -0.7298 -0.4689 -0.2598
  925MOL0     C24806   3.517  10.217   7.319  0.4389  0.0611  0.2546
  925MOL0     C24807   3.585  10.360   7.299  0.4951 -0.7570  0.4881
  925MOL0     H24808   3.890   9.804   7.634 -1.9145  1.5539 -1.1575
  925MOL0     H24809   4.125   9.782   7.710 -1.0504  0.9200  1.3481
  925MOL0     H24810   4.394  10.136   7.577 -2.0196 -0.7474 -0.2838
  925MOL0     H24811   4.518  10.009   7.632 -2.0647 -2.0781  2.4586
  925MOL0     H24812   4.374  10.025   7.366  2.0528  0.9761 -1.2056
  925MOL0     H24813   4.465   9.886   7.440  4.0185 -0.7841 -0.9693
  925MOL0     H24814   4.672   9.985   7.430 -1.1044 -2.8979 -1.3447
  925MOL0     H24815   4.597  10.150   7.430 -0.9839 -0.3920 -0.4349
  925MOL0     H24816   4.699  10.025   7.205  0.4464 -0.9694 -1.2677
  925MOL0     H24817   4.525   9.974   7.195 -0.3339  0.8671  0.9952
  925MOL0     H24818   4.442  10.196   7.215  0.6199  4.1370  1.7795
  925MOL0     H24819   4.602  10.259   7.234 -4.7266  3.4952 -0.0571
  925MOL0     H24820   4.663  10.244   7.015  0.6826 -2.0363 -0.7905
  925MOL0     H24821   4.542  10.119   6.990 -1.8752  1.0134  0.5334
  925MOL0     H24822   4.504  10.423   7.016  3.5165 -0.0351  0.0417
  925MOL0     H24823   4.363  10.310   7.025  0.7038  1.1822  0.1541
  925MOL0     H24824   4.567  10.339   6.816  0.2034  2.2500  1.5831
  925MOL0     H24825   4.432  10.223   6.807 -0.9244  0.3194 -0.3636
  925MOL0     H24826   4.162  10.342   6.852 -1.1854  2.7510  0.7423
  925MOL0     H24827   3.989  10.522   6.777  1.1860 -0.5783  2.6996
  925MOL0     H24828   4.038  10.688   6.801  0.7102  1.0123 -2.0615
  925MOL0     H24829   4.025  10.547   6.528 -1.5772  0.8812 -0.6187
  925MOL0     H24830   3.908  10.674   6.595 -1.0766  1.9643  2.5071
  925MOL0     H24831   4.209  10.714   6.532 -0.0919  0.5609 -1.1049
  925MOL0     H24832   4.109  10.827   6.614  2.5224  1.7852 -1.2241
  925MOL0     H24833   3.945  10.847   6.426  0.3552  2.4517 -1.1738
  925MOL0     H24834   4.041  10.737   6.332  0.0800  0.6464 -1.4988
  925MOL0     H24835   4.303  10.756   6.345  0.0495  1.8214  0.2074
  925MOL0     H24836   4.501  10.789   6.192 -0.3263 -0.3070  1.2044
  925MOL0     H24837   4.715  11.083   5.821  3.4037  1.1482 -1.9679
  925MOL0     H24838   4.895  11.053   5.669  0.7541  0.9307  1.5825
  925MOL0     H24839   5.044  10.643   5.606 -0.7976 -1.1913 -1.3088
  925MOL0     H24840   4.946  10.652   5.464 -0.1305 -1.3458 -2.0855
  925MOL0     H24841   5.143  10.760   5.333 -2.4377 -1.8921 -0.2248
  925MOL0     H24842   5.219  10.769   5.500 -1.0961 -0.4822  1.4955
  925MOL0     H24843   5.318  10.557   5.448  0.9400 -0.8032 -0.4031
  925MOL0     H24844   5.174  10.486   5.474  1.7411  0.3052  0.5946
  925MOL0     H24845   5.226  10.613   5.194 -2.0143  1.4772  0.5385
  925MOL0     H24846   5.094  10.516   5.237 -0.2306  0.5284  2.2962
  925MOL0     H24847   5.242  10.331   5.276  0.7140 -0.8654 -0.3235
  925MOL0     H24848   5.386  10.431   5.250  0.5362  3.3318 -1.8181
  925MOL0     H24849   5.347  10.285   5.034  0.5828 -0.2123  0.1748
  925MOL0     H24850   5.181  10.344   5.037 -0.1773 -0.6458 -0.5768
  925MOL0     H24851   5.273  10.576   4.990  1.5437 -0.1223  4.7237
  925MOL0     H24852   5.333  10.459   4.872 -3.0416 -0.2300  0.3080
  925MOL0     H24853   5.474  10.562   5.114 -4.0549 -2.8490 -0.2963
  925MOL0     H24854   5.551  10.438   5.012  0.3226  0.0591 -2.4531
  925MOL0     H24855   4.831  10.628   5.653 -0.9852 -0.2933 -1.1779
  925MOL0     H24856   4.651  10.660   5.822  4.5240 -0.3350  1.4781
  925MOL0     H24857   4.312  11.141   6.035 -0.6214 -0.4121 -0.9043
  925MOL0     H24858   4.126  11.108   6.211  1.1173  0.8574 -0.8573
  925MOL0     H24859   4.206  10.151   7.476 -0.5983  2.1690  0.9298
  925MOL0     H24860   3.993  10.166   7.426  1.8418  1.8918  1.4677
  925MOL0     H24861   3.573   9.889   7.389  2.2644  1.6183  2.6479
  925MOL0     H24862   3.343   9.874   7.305 -3.8573  0.5957  0.4156
  925MOL0     H24863   3.133   9.867   7.230 -2.1922 -1.1765 -1.5257
  925MOL0     H24864   3.052   9.949   7.108  0.5461 -2.3806  0.4110
  925MOL0     H24865   2.948  10.091   7.263 -3.6663 -1.4358 -1.2089
  925MOL0     H24866   3.050  10.049   7.400  1.1638 -1.4345 -0.3041
  925MOL0     H24867   2.855   9.875   7.248 -0.4232  1.1593 -0.4367
  925MOL0     H24868   2.810   9.932   7.410  1.3547  1.6813  1.4441
  925MOL0     H24869   2.905   9.689   7.409  0.3465  0.6175 -0.3946
  925MOL0     H24870   3.057   9.758   7.387  0.3774 -0.4809  0.9061
  925MOL0     H24871   3.027   9.837   7.793 -0.4176  0.6064 -0.4387
  925MOL0     H24872   3.341  10.283   7.204 -1.6237 -0.2261  0.6464
  925MOL0     H24873   3.515  10.431   7.254 -0.1993 -1.2417  0.7839
  925MOL0     H24874   3.616  10.399   7.396  5.2289  1.7342 -1.6473
  925MOL0     H24875   3.676  10.359   7.238 -0.8319 -1.0528 -1.5852
  926MOL0     O24876   7.018   3.456   6.977 -0.3894  0.5215  1.2919
  926MOL0     C24877   7.007   3.559   7.050 -0.4368  0.7526 -0.0142
  926MOL0     O24878   6.980   3.688   7.021 -0.0952 -0.7780  0.6566
  926MOL0     C24879   6.938   3.733   6.895 -0.3420  0.2026  0.6683
  926MOL0     C24880   6.986   3.688   6.766  1.0553 -0.0437 -0.3596
  926MOL0     C24881   6.949   3.743   6.655  0.0021  0.1940  0.4206
  926MOL0     C24882   6.861   3.852   6.650 -0.4103 -0.2010  0.7279
  926MOL0     O24883   6.804   3.885   6.525  0.8657 -0.3651 -0.7416
  926MOL0     C24884   6.660   3.879   6.515  1.1778  0.0459  0.5926
  926MOL0     C24885   6.634   3.871   6.359 -0.1108  0.0841 -1.0566
  926MOL0     C24886   6.678   3.746   6.278  0.1698 -1.2464  0.6376
  926MOL0     C24887   6.622   3.750   6.136 -0.5202  0.2767 -0.4993
  926MOL0     C24888   6.688   3.625   6.061  0.9511 -0.5486 -1.0339
  926MOL0     C24889   6.826   3.679   6.015 -0.0316 -0.6597  0.6827
  926MOL0     C24890   6.907   3.552   5.984  0.4520 -0.6090  0.8876
  926MOL0     C24891   6.900   3.492   5.840  0.2678  0.3775  0.3025
  926MOL0     N24892   6.978   3.575   5.738 -0.0061 -0.1813  0.3946
  926MOL0     C24893   6.927   3.602   5.617 -0.6388  0.2657  1.2034
  926MOL0     C24894   7.013   3.698   5.570 -0.2080 -0.2767 -0.5497
  926MOL0     C24895   7.000   3.770   5.432  0.2091  0.8347 -0.0479
  926MOL0     C24896   7.004   3.921   5.458  0.5478  0.6501  0.9452
  926MOL0     C24897   6.943   3.998   5.350  0.0052  0.8912 -0.1263
  926MOL0     C24898   7.012   3.998   5.221  0.1568  0.0159 -0.1758
  926MOL0     O24899   7.014   3.872   5.148  0.2346  0.2627 -0.8915
  926MOL0     C24900   7.092   3.874   5.040 -0.1013 -0.4128  0.5324
  926MOL0     C24901   7.146   3.753   4.999  0.5912  0.5977  0.6396
  926MOL0     C24902   7.224   3.729   4.883  0.2540 -0.4138 -0.6097
  926MOL0     C24903   7.248   3.837   4.799  0.0892 -0.4384  0.1488
  926MOL0     C24904   7.324   3.817   4.673  0.4958  0.0161 -0.3509
  926MOL0     O24905   7.348   3.929   4.592  0.1265  0.2392  0.2806
  926MOL0     C24906   7.423   3.932   4.472 -0.0690 -0.4636  0.6978
  926MOL0     C24907   7.489   4.048   4.451 -0.3508 -1.1021 -0.2366
  926MOL0     C24908   7.570   4.063   4.340  0.2071 -0.3075 -0.2929
  926MOL0     C24909   7.586   3.956   4.251  0.5675 -1.0480 -0.9981
  926MOL0     O24910   7.652   3.966   4.131  1.0251 -0.3549  0.6214
  926MOL0     C24911   7.701   4.091   4.083  0.4993  0.6020 -0.4847
  926MOL0     C24912   7.795   4.060   3.962  0.5324  0.3006 -1.0066
  926MOL0     C24913   7.940   4.033   4.029  0.2434  0.7903  0.0494
  926MOL0     C24914   8.036   4.139   3.953 -0.1317 -1.5514  0.0115
  926MOL0     C24915   8.176   4.113   4.010 -0.3398 -0.4275 -0.8359
  926MOL0     C24916   8.282   4.167   3.923 -0.9447  0.0922  0.1890
  926MOL0     C24917   8.301   4.323   3.964  0.7744  1.0191 -0.1117
  926MOL0     C24918   8.393   4.387   3.859 -0.2776  0.8718 -0.7797
  926MOL0    Cl24919   8.333   4.373   3.695 -0.0352 -0.1879 -0.3446
  926MOL0     C24920   7.508   3.842   4.272  0.3520  0.6796 -0.4477
  926MOL0     C24921   7.419   3.825   4.380  0.1039 -0.2783 -0.2284
  926MOL0     O24922   7.347   3.703   4.645  0.1296  0.8934 -0.1157
  926MOL0     C24923   7.197   3.962   4.833  0.2494 -0.4013 -0.0844
  926MOL0     C24924   7.116   3.984   4.951  0.1513 -0.4671 -0.0434
  926MOL0     N24925   7.107   3.728   5.672  0.4014 -0.1183 -0.0243
  926MOL0     N24926   7.072   3.665   5.780 -0.6675 -0.2216  1.2019
  926MOL0     C24927   6.823   3.906   6.771 -0.1091 -0.4786 -0.0992
  926MOL0     C24928   6.852   3.842   6.889 -0.5919  0.5143  0.3560
  926MOL0     C24929   7.024   3.518   7.191 -0.3215 -0.7361  1.5682
  926MOL0     C24930   7.051   3.384   7.221 -0.5486  0.5853  0.7965
  926MOL0     C24931   7.065   3.341   7.350 -0.1470  0.6431 -0.2068
  926MOL0     C24932   7.071   3.427   7.458  0.4039  0.3951 -0.2333
  926MOL0     O24933   7.103   3.375   7.582 -0.5209 -0.7132  0.1986
  926MOL0     C24934   7.119   3.461   7.690 -0.2503 -0.4846 -0.2038
  926MOL0     C24935   7.167   3.383   7.804  0.7012  0.3446 -0.3396
  926MOL0     C24936   7.153   3.446   7.938 -0.0574 -0.7290 -0.3602
  926MOL0     C24937   7.258   3.567   7.943  0.9154 -0.4725  0.0268
  926MOL0     C24938   7.220   3.698   7.893  0.3847 -0.0010  0.5348
  926MOL0     C24939   7.183   3.802   7.842  0.8745  0.2611 -0.1053
  926MOL0     C24940   7.050   3.558   7.431  0.3404 -0.1814  0.0495
  926MOL0     C24941   7.029   3.609   7.299 -0.6495 -0.3643 -0.3844
  926MOL0     C24942   7.023   3.756   7.301  0.5784 -0.4619  0.1308
  926MOL0     H24943   7.054   3.604   6.777  0.5783 -0.1633  2.7176
  926MOL0     H24944   6.981   3.687   6.568 -1.8566  0.0164 -0.2133
  926MOL0     H24945   6.627   3.785   6.560  0.0597 -1.0923 -2.3764
  926MOL0     H24946   6.610   3.968   6.555  0.9814  1.3515 -2.3028
  926MOL0     H24947   6.696   3.947   6.311  1.0643 -1.2816 -1.7671
  926MOL0     H24948   6.531   3.901   6.337  0.7683  4.5267 -0.1710
  926MOL0     H24949   6.638   3.656   6.325 -2.8260  0.5415  1.7868
  926MOL0     H24950   6.786   3.730   6.282  0.6177 -0.6284 -3.6007
  926MOL0     H24951   6.515   3.728   6.143 -1.1278  2.7408 -1.1606
  926MOL0     H24952   6.629   3.851   6.097 -0.1399  0.3654 -0.2129
  926MOL0     H24953   6.693   3.541   6.131 -4.3638 -1.7451 -1.7256
  926MOL0     H24954   6.629   3.589   5.977 -0.7801 -1.8285  0.6269
  926MOL0     H24955   6.824   3.748   5.930 -0.6289  1.1357  2.0708
  926MOL0     H24956   6.879   3.737   6.092 -0.2088  0.9787 -0.3647
  926MOL0     H24957   6.882   3.466   6.047 -0.4347 -1.8173 -1.0086
  926MOL0     H24958   7.011   3.564   6.017  0.7580 -3.9610  1.5151
  926MOL0     H24959   6.956   3.398   5.830 -0.2982  0.2359 -1.9804
  926MOL0     H24960   6.792   3.486   5.826 -0.0574  5.6119 -1.6943
  926MOL0     H24961   6.846   3.557   5.560 -0.5630  3.6101 -1.9597
  926MOL0     H24962   7.071   3.732   5.357 -0.2800  2.5746 -1.4758
  926MOL0     H24963   6.901   3.744   5.395  1.8076  0.5371 -4.7811
  926MOL0     H24964   6.951   3.950   5.549 -2.4554 -2.9743  0.6046
  926MOL0     H24965   7.112   3.938   5.461  1.1914 -1.9924 -1.7136
  926MOL0     H24966   6.955   4.101   5.384  0.7993  0.4359  1.0563
  926MOL0     H24967   6.836   3.973   5.348  0.4069 -1.0503  0.2868
  926MOL0     H24968   7.113   4.034   5.241 -0.3788 -0.2720  3.7016
  926MOL0     H24969   6.969   4.077   5.159  0.2780 -0.9729 -1.5674
  926MOL0     H24970   7.117   3.661   5.048  2.4415 -1.1450 -1.3358
  926MOL0     H24971   7.283   3.639   4.870  0.5785 -0.5878  1.6196
  926MOL0     H24972   7.487   4.122   4.531 -2.5945 -0.7772 -0.5341
  926MOL0     H24973   7.617   4.159   4.323  0.2481 -0.6400 -2.2645
  926MOL0     H24974   7.615   4.144   4.041 -0.1727  0.8041  1.0555
  926MOL0     H24975   7.757   4.156   4.151  1.8991  1.1051 -2.0454
  926MOL0     H24976   7.754   3.969   3.918  1.8988 -0.2429 -1.2196
  926MOL0     H24977   7.797   4.130   3.878 -1.3530 -0.5144 -1.7845
  926MOL0     H24978   7.930   4.036   4.138 -2.3525  1.9896 -0.1558
  926MOL0     H24979   7.964   3.933   3.992  2.1759  1.1069  0.3283
  926MOL0     H24980   8.008   4.241   3.981 -2.5440 -1.7674 -1.3788
  926MOL0     H24981   8.023   4.126   3.845 -1.6841 -1.3915  0.1593
  926MOL0     H24982   8.210   4.009   4.010 -1.3587 -0.7657  0.1837
  926MOL0     H24983   8.194   4.154   4.110 -3.8945 -2.9350  1.0247
  926MOL0     H24984   8.380   4.123   3.943 -0.4857  0.8144 -0.3790
  926MOL0     H24985   8.270   4.164   3.814 -3.1566  2.3375  0.2885
  926MOL0     H24986   8.359   4.314   4.057  0.2923 -0.8685  0.0512
  926MOL0     H24987   8.207   4.377   3.982  0.2997 -0.7624  3.8265
  926MOL0     H24988   8.412   4.489   3.893  4.0878 -0.3060  1.0371
  926MOL0     H24989   8.488   4.332   3.856  0.6138  1.7968  3.4665
  926MOL0     H24990   7.527   3.760   4.204 -2.1531  0.8784 -1.4831
  926MOL0     H24991   7.369   3.729   4.389 -0.1209 -0.2490 -1.1326
  926MOL0     H24992   7.207   4.053   4.775  2.2948 -1.9603 -2.3655
  926MOL0     H24993   7.071   4.079   4.976 -1.8522 -0.7859 -2.0622
  926MOL0     H24994   6.748   3.984   6.783 -0.5829 -0.9769  0.2655
  926MOL0     H24995   6.810   3.862   6.987 -0.6137 -3.3020  1.2753
  926MOL0     H24996   7.060   3.301   7.151 -0.4347 -0.1719  1.7021
  926MOL0     H24997   7.079   3.235   7.370  0.0591  0.8953  1.0759
  926MOL0     H24998   7.019   3.498   7.714  0.3703 -0.2373  2.2346
  926MOL0     H24999   7.197   3.535   7.672  0.9858 -1.0694  2.2953
  926MOL0     H25000   7.271   3.365   7.777  0.3238  0.4037 -1.9520
  926MOL0     H25001   7.104   3.293   7.804 -2.9575  2.6352 -2.1676
  926MOL0     H25002   7.191   3.371   8.007 -1.6702 -1.3339 -0.0766
  926MOL0     H25003   7.051   3.483   7.958 -0.6702 -2.6529  0.3483
  926MOL0     H25004   7.278   3.578   8.050 -0.2846  1.0743  0.1396
  926MOL0     H25005   7.352   3.550   7.889  0.8733 -0.1088 -0.1657
  926MOL0     H25006   7.130   3.884   7.797  1.1102  1.6717  2.0788
  926MOL0     H25007   7.060   3.633   7.509  2.7439  0.1827 -0.5391
  926MOL0     H25008   7.059   3.807   7.391  0.4819  2.7248 -1.4922
  926MOL0     H25009   7.080   3.805   7.221 -0.0364  0.7321  0.3879
  926MOL0     H25010   6.917   3.781   7.285  1.0597  0.2078 -2.5115
  927MOL0     O25011   0.523   5.732   4.748  0.0709  0.4926  0.4825
  927MOL0     C25012   0.587   5.837   4.779 -0.5452  0.0199  0.3326
  927MOL0     O25013   0.719   5.858   4.788  0.2712 -0.0555 -0.0137
  927MOL0     C25014   0.808   5.763   4.743 -0.4175 -2.1143  0.2443
  927MOL0     C25015   0.907   5.724   4.828  0.8325  0.7703  0.1642
  927MOL0     C25016   1.011   5.639   4.784  0.2513  0.5171  0.2015
  927MOL0     C25017   1.009   5.584   4.648  1.0950 -0.3088  0.1372
  927MOL0     O25018   1.103   5.497   4.600 -0.6256  0.3133  0.6558
  927MOL0     C25019   1.158   5.498   4.471 -0.2314 -0.6312  0.9019
  927MOL0     C25020   1.173   5.363   4.400  0.2385  0.1674 -0.6460
  927MOL0     C25021   1.257   5.387   4.274  0.5808 -0.3471  0.1039
  927MOL0     C25022   1.254   5.267   4.176  0.3158 -1.0907 -0.7532
  927MOL0     C25023   1.340   5.284   4.050  0.4349  0.2727 -0.0773
  927MOL0     C25024   1.491   5.263   4.071  0.3936 -1.2769  0.6628
  927MOL0     C25025   1.530   5.140   4.156  0.5990 -0.3629  0.2078
  927MOL0     C25026   1.684   5.121   4.149  0.4462 -0.1167 -0.2479
  927MOL0     N25027   1.723   5.026   4.035  0.5454  0.8060 -0.5029
  927MOL0     C25028   1.739   5.060   3.903 -0.6886 -0.3681  0.5965
  927MOL0     C25029   1.739   4.943   3.826  0.9101 -0.0047  0.3403
  927MOL0     C25030   1.772   4.946   3.681 -0.0670 -0.0627 -0.4153
  927MOL0     C25031   1.647   5.013   3.603  0.7896  0.8319  0.5837
  927MOL0     C25032   1.581   4.921   3.504 -0.3324 -0.6850 -0.3099
  927MOL0     C25033   1.484   4.808   3.557 -0.8183  0.2334  0.1967
  927MOL0     O25034   1.457   4.702   3.460 -0.5815 -0.7471 -0.0285
  927MOL0     C25035   1.562   4.623   3.414  0.1988 -0.7229 -0.3028
  927MOL0     C25036   1.535   4.562   3.291  0.4115  1.0440 -1.5363
  927MOL0     C25037   1.634   4.493   3.226  0.3303 -0.2825  0.0944
  927MOL0     C25038   1.766   4.489   3.286  0.2963  0.4797  0.2905
  927MOL0     C25039   1.884   4.439   3.204  1.2261  0.6263 -0.2572
  927MOL0     O25040   1.873   4.423   3.075  0.6077  0.2693  0.5935
  927MOL0     C25041   1.982   4.390   3.005  0.7129 -0.7372  0.0696
  927MOL0     C25042   2.071   4.492   2.964  0.1694  0.3647  0.1235
  927MOL0     C25043   2.185   4.466   2.878  0.7564  0.6522  0.3706
  927MOL0     C25044   2.210   4.332   2.841  0.2529 -0.0176 -0.8398
  927MOL0     O25045   2.316   4.305   2.765 -0.1916 -0.0846 -0.9834
  927MOL0     C25046   2.415   4.207   2.802 -0.4670  0.6181  0.2480
  927MOL0     C25047   2.560   4.252   2.804 -0.2857  0.4710  0.1834
  927MOL0     C25048   2.599   4.377   2.716 -0.3010 -0.1149 -0.5124
  927MOL0     C25049   2.554   4.354   2.571 -0.2647  0.4816 -0.3675
  927MOL0     C25050   2.626   4.450   2.477 -0.2779  0.0392 -0.0850
  927MOL0     C25051   2.589   4.428   2.327  0.1719  0.3555  0.3871
  927MOL0     C25052   2.661   4.533   2.228  0.3558 -0.6854  0.0309
  927MOL0     C25053   2.683   4.475   2.093  0.4864  0.2827 -0.4074
  927MOL0    Cl25054   2.801   4.564   1.992  0.0754 -0.1048  0.2165
  927MOL0     C25055   2.123   4.233   2.880  0.5117 -0.3239  0.4174
  927MOL0     C25056   2.008   4.262   2.962  0.5557 -0.1799 -0.4352
  927MOL0     O25057   1.979   4.401   3.274 -0.0227  1.3544 -0.8138
  927MOL0     C25058   1.790   4.533   3.419  0.0383 -0.8339  0.1808
  927MOL0     C25059   1.682   4.598   3.487  0.1655 -0.0223  0.4546
  927MOL0     N25060   1.713   4.842   3.927 -0.2622 -0.2973  0.3809
  927MOL0     N25061   1.698   4.894   4.044 -0.3969 -0.1320  0.1302
  927MOL0     C25062   0.891   5.608   4.572 -0.9928  0.1032  0.1824
  927MOL0     C25063   0.801   5.704   4.616  0.9980  0.1963  0.5425
  927MOL0     C25064   0.501   5.955   4.799 -0.7370  0.3844 -0.5875
  927MOL0     C25065   0.427   5.958   4.914 -0.5181  0.4415  0.0469
  927MOL0     C25066   0.351   6.070   4.948  0.0058 -1.4166  0.3890
  927MOL0     C25067   0.353   6.181   4.861 -0.0436 -1.0286 -0.5866
  927MOL0     O25068   0.274   6.288   4.906  0.2163 -0.8548  0.2780
  927MOL0     C25069   0.167   6.339   4.819 -0.2077  0.9721  0.4466
  927MOL0     C25070   0.053   6.241   4.797  0.9399 -0.5978  0.3810
  927MOL0     C25071  -0.063   6.314   4.723  0.9560 -0.9843  0.6001
  927MOL0     C25072  -0.149   6.219   4.628  0.2638 -0.7010 -0.1067
  927MOL0     C25073  -0.251   6.151   4.708 -0.2983  0.2898 -0.2460
  927MOL0     C25074  -0.333   6.115   4.785 -0.2807  0.2829  0.9066
  927MOL0     C25075   0.416   6.179   4.736 -0.7707  0.3666  0.5914
  927MOL0     C25076   0.503   6.065   4.708 -0.7990 -0.0656  0.2051
  927MOL0     C25077   0.569   6.055   4.580 -0.1790  0.4960 -0.5995
  927MOL0     H25078   0.922   5.751   4.932  2.5850 -3.7563  1.3645
  927MOL0     H25079   1.103   5.608   4.833  1.6089  2.4929 -0.9665
  927MOL0     H25080   1.099   5.569   4.413 -0.7171 -0.5482  1.4919
  927MOL0     H25081   1.256   5.544   4.487  0.2826 -0.6128 -1.7464
  927MOL0     H25082   1.079   5.325   4.360  0.4845  0.7961 -1.8572
  927MOL0     H25083   1.235   5.286   4.448 -0.0250  0.8164  0.7848
  927MOL0     H25084   1.363   5.407   4.294  1.3284 -3.4522 -0.1542
  927MOL0     H25085   1.211   5.467   4.216 -1.1438 -0.6015  1.0476
  927MOL0     H25086   1.274   5.171   4.225 -1.1400 -0.5706  0.9852
  927MOL0     H25087   1.151   5.265   4.138  1.3408  2.1696 -4.3052
  927MOL0     H25088   1.296   5.216   3.977 -0.6907 -0.1064  0.9149
  927MOL0     H25089   1.339   5.383   4.003 -1.9233 -0.3028 -1.4012
  927MOL0     H25090   1.535   5.253   3.971 -1.6431 -2.3353 -0.1933
  927MOL0     H25091   1.527   5.357   4.114 -2.1117 -0.0339  0.2165
  927MOL0     H25092   1.476   5.049   4.132  2.2764 -1.3150 -0.0879
  927MOL0     H25093   1.507   5.165   4.261 -2.5634  0.3432 -0.5456
  927MOL0     H25094   1.742   5.214   4.147 -0.5566  0.5581  0.8183
  927MOL0     H25095   1.717   5.077   4.244  0.3516  2.4457  1.0595
  927MOL0     H25096   1.748   5.159   3.860 -2.7637  0.0765  1.0626
  927MOL0     H25097   1.864   5.004   3.668  0.6346 -1.4579 -1.9796
  927MOL0     H25098   1.786   4.844   3.645 -1.0190  0.3316 -1.9896
  927MOL0     H25099   1.579   5.052   3.680 -0.3324  1.1610 -0.5462
  927MOL0     H25100   1.694   5.101   3.559  0.9300  0.9404  0.9473
  927MOL0     H25101   1.666   4.863   3.467  0.9550  0.4751  0.6907
  927MOL0     H25102   1.542   4.972   3.416  1.5825  0.5672 -0.5104
  927MOL0     H25103   1.392   4.854   3.593 -1.0662 -1.8090  2.3889
  927MOL0     H25104   1.535   4.766   3.644  1.3544 -0.3724 -1.2712
  927MOL0     H25105   1.438   4.583   3.248  0.6354  1.2609 -1.9416
  927MOL0     H25106   1.623   4.449   3.128  1.3053  2.5503 -1.3794
  927MOL0     H25107   2.047   4.596   2.985 -0.3380  0.0231  1.3012
  927MOL0     H25108   2.238   4.549   2.834 -2.4413  2.0792 -1.0752
  927MOL0     H25109   2.389   4.168   2.901 -1.2879  1.5158  0.3944
  927MOL0     H25110   2.398   4.129   2.727 -3.1813  1.2041  0.1373
  927MOL0     H25111   2.580   4.279   2.908 -0.0114  0.9787  0.0023
  927MOL0     H25112   2.629   4.169   2.785 -1.1593  0.0450 -1.3955
  927MOL0     H25113   2.555   4.459   2.774 -0.7558 -0.8409  0.1994
  927MOL0     H25114   2.708   4.381   2.709 -0.1021 -0.2467  1.6943
  927MOL0     H25115   2.449   4.376   2.548 -0.2711 -0.7893 -1.7176
  927MOL0     H25116   2.579   4.249   2.551 -0.3137  0.3603  0.1978
  927MOL0     H25117   2.733   4.439   2.493 -0.2225 -0.6878 -0.8644
  927MOL0     H25118   2.601   4.555   2.496  4.3986  1.1981  0.8478
  927MOL0     H25119   2.623   4.328   2.296  0.5504  0.1816  1.3314
  927MOL0     H25120   2.479   4.432   2.325  0.1253 -0.5547 -1.5363
  927MOL0     H25121   2.756   4.564   2.272  0.9404 -2.2041 -0.0854
  927MOL0     H25122   2.590   4.614   2.210 -0.7082 -1.7293 -0.6115
  927MOL0     H25123   2.723   4.373   2.103  1.8171  0.7643 -0.5795
  927MOL0     H25124   2.587   4.480   2.042  0.2956 -0.1965 -0.1032
  927MOL0     H25125   2.141   4.129   2.852  2.5599 -1.4858  4.9503
  927MOL0     H25126   1.945   4.180   2.991  1.2943 -0.5065  0.2935
  927MOL0     H25127   1.880   4.539   3.480 -1.1312  1.4950  1.8466
  927MOL0     H25128   1.684   4.635   3.589 -2.0460  0.2072  0.4583
  927MOL0     H25129   0.899   5.553   4.480  1.5246  0.0270  0.3821
  927MOL0     H25130   0.718   5.717   4.548 -0.8014 -1.9028  2.2054
  927MOL0     H25131   0.432   5.873   4.981  0.6897  0.1498 -0.3987
  927MOL0     H25132   0.296   6.082   5.041  0.5689 -2.9009  0.9446
  927MOL0     H25133   0.204   6.371   4.722  1.0652 -0.3733  0.4592
  927MOL0     H25134   0.112   6.427   4.854 -1.7616 -0.5042  1.9661
  927MOL0     H25135   0.022   6.202   4.894  2.2158 -3.7460 -0.3474
  927MOL0     H25136   0.082   6.152   4.741 -1.5633 -0.9208 -0.5051
  927MOL0     H25137  -0.018   6.388   4.657  0.9485 -1.2116  0.3369
  927MOL0     H25138  -0.133   6.361   4.792 -1.4902 -0.6938 -1.9290
  927MOL0     H25139  -0.202   6.280   4.553 -1.1941  0.0254  1.4504
  927MOL0     H25140  -0.088   6.146   4.575 -3.1348 -4.0973  0.2421
  927MOL0     H25141  -0.413   6.084   4.850 -0.6220 -2.4595 -0.6620
  927MOL0     H25142   0.399   6.256   4.661 -4.0761 -0.0744  0.7018
  927MOL0     H25143   0.674   6.026   4.594 -0.5983  0.1806  2.6276
  927MOL0     H25144   0.509   5.977   4.531 -2.4383  1.3649  0.6465
  927MOL0     H25145   0.571   6.149   4.524  2.3896 -0.6853 -2.7550
  928MOL0     O25146   0.273  10.346  10.054 -1.2464 -0.5675 -0.0158
  928MOL0     C25147   0.371  10.371  10.124  0.2018 -0.5577  0.0846
  928MOL0     O25148   0.458  10.476  10.096 -0.5911  0.2655  0.2099
  928MOL0     C25149   0.398  10.594  10.054  0.0305  0.0929 -0.2740
  928MOL0     C25150   0.447  10.656   9.938  0.2094 -0.3980 -0.1199
  928MOL0     C25151   0.372  10.763   9.883 -0.4458 -0.0565 -1.0110
  928MOL0     C25152   0.259  10.807   9.935  0.1519  0.8098 -0.5756
  928MOL0     O25153   0.202  10.908   9.857  0.8816  0.0575 -0.3307
  928MOL0     C25154   0.129  10.999   9.945  0.2491 -0.4223 -0.3644
  928MOL0     C25155   0.058  11.128   9.891 -0.4926  0.1546 -0.0546
  928MOL0     C25156  -0.021  11.098   9.758 -0.1413 -0.3614  0.0948
  928MOL0     C25157  -0.184  11.107   9.779 -1.1740  0.4870 -0.4209
  928MOL0     C25158  -0.254  11.167   9.657 -0.0592  0.4517 -0.3747
  928MOL0     C25159  -0.410  11.163   9.664 -0.1811 -0.4307  0.4437
  928MOL0     C25160  -0.468  11.228   9.792  0.1134  0.5570  0.4946
  928MOL0     C25161  -0.600  11.292   9.754 -0.0176 -0.5433 -0.2305
  928MOL0     N25162  -0.674  11.346   9.872  0.2401  0.0498 -0.5916
  928MOL0     C25163  -0.760  11.261   9.941 -0.5088 -0.4943 -0.1204
  928MOL0     C25164  -0.782  11.343  10.055  0.1732  0.4506  0.2117
  928MOL0     C25165  -0.857  11.301  10.172 -0.1353 -1.2490  0.8568
  928MOL0     C25166  -0.983  11.378  10.197  0.8874 -0.5057  0.0629
  928MOL0     C25167  -1.049  11.321  10.322 -0.2701  0.1198 -0.2720
  928MOL0     C25168  -1.186  11.394  10.353 -0.3669 -0.0346  0.7988
  928MOL0     O25169  -1.261  11.369  10.471  0.6195  0.5788 -0.2588
  928MOL0     C25170  -1.227  11.436  10.593 -0.2086  0.2179  0.1520
  928MOL0     C25171  -1.325  11.451  10.690  0.6579  0.4753 -0.4747
  928MOL0     C25172  -1.300  11.507  10.816  0.0045 -0.7957  0.3500
  928MOL0     C25173  -1.168  11.525  10.853 -0.5346 -0.0629  0.1893
  928MOL0     C25174  -1.128  11.562  10.994 -0.4818 -0.1035  1.1270
  928MOL0     O25175  -1.224  11.530  11.092 -0.5511  1.0248  0.7518
  928MOL0     C25176  -1.182  11.562  11.219  0.9431 -0.0535 -0.1134
  928MOL0     C25177  -1.099  11.470  11.290 -0.0853  0.3229 -0.4819
  928MOL0     C25178  -1.078  11.512  11.420  0.1478  0.4056 -0.7271
  928MOL0     C25179  -1.126  11.638  11.474 -0.1406  0.4361  0.2455
  928MOL0     O25180  -1.111  11.687  11.604  0.3861  0.1579 -0.6552
  928MOL0     C25181  -1.002  11.628  11.685  0.9961  0.9052  0.2327
  928MOL0     C25182  -0.863  11.689  11.642 -0.9332 -0.8961  0.7116
  928MOL0     C25183  -0.877  11.843  11.645 -0.8257  0.3601 -0.3135
  928MOL0     C25184  -0.743  11.915  11.642 -0.7296  0.4529 -0.3673
  928MOL0     C25185  -0.748  12.070  11.650  0.0295 -0.5843 -0.1103
  928MOL0     C25186  -0.795  12.136  11.784 -0.4193 -0.7329 -0.7466
  928MOL0     C25187  -0.784  12.292  11.762 -1.2753  0.9134  0.8100
  928MOL0     C25188  -0.819  12.381  11.883 -0.9430 -0.5408  1.0654
  928MOL0    Cl25189  -0.995  12.376  11.911 -0.1097  0.2311 -0.7337
  928MOL0     C25190  -1.196  11.725  11.390 -0.8686 -0.5987 -0.4903
  928MOL0     C25191  -1.226  11.686  11.261 -0.2319  0.0170 -1.5938
  928MOL0     O25192  -1.014  11.600  11.013 -0.2942  0.3966  0.0381
  928MOL0     C25193  -1.066  11.524  10.755  0.4952  0.2196  0.1165
  928MOL0     C25194  -1.101  11.480  10.621 -0.5266  0.0566  0.0446
  928MOL0     N25195  -0.711  11.455  10.051  0.5674 -0.0424  1.1012
  928MOL0     N25196  -0.648  11.455   9.943 -0.1085 -0.9683 -0.0130
  928MOL0     C25197   0.206  10.739  10.048 -0.3298  1.0372 -0.9050
  928MOL0     C25198   0.271  10.632  10.105 -0.5435 -0.5231 -0.1522
  928MOL0     C25199   0.386  10.308  10.256 -0.0819  0.3960 -0.0343
  928MOL0     C25200   0.436  10.381  10.361 -0.0456  0.4692 -0.9791
  928MOL0     C25201   0.430  10.329  10.492 -0.1926 -0.3106 -0.5500
  928MOL0     C25202   0.381  10.202  10.520  0.1161 -0.5495 -0.5260
  928MOL0     O25203   0.355  10.140  10.642  0.0669 -0.0001 -0.2081
  928MOL0     C25204   0.453  10.176  10.739  1.2555  1.1809  0.5617
  928MOL0     C25205   0.457  10.058  10.847  0.1973 -0.4221 -1.0529
  928MOL0     C25206   0.313  10.026  10.902 -0.1595  0.2428 -0.2823
  928MOL0     C25207   0.333   9.903  11.003 -0.7337 -0.4905 -0.2502
  928MOL0     C25208   0.402   9.795  10.949 -0.0616 -0.2956 -0.5267
  928MOL0     C25209   0.477   9.702  10.924 -0.4116  0.0983  0.1508
  928MOL0     C25210   0.344  10.127  10.410 -0.1564  1.2592  0.3827
  928MOL0     C25211   0.336  10.175  10.277  0.6334 -0.5244  0.3865
  928MOL0     C25212   0.275  10.084  10.182  0.2361 -0.0780 -0.5226
  928MOL0     H25213   0.532  10.621   9.881  0.8835 -1.2264  1.3364
  928MOL0     H25214   0.412  10.816   9.797  2.6604  0.7620  0.7731
  928MOL0     H25215   0.046  10.945   9.993  0.9063  0.5946  2.0470
  928MOL0     H25216   0.205  11.039  10.012 -1.9694  1.7395  1.0650
  928MOL0     H25217   0.149  11.185   9.871 -1.1298  2.1925  2.3252
  928MOL0     H25218  -0.000  11.191   9.959 -0.8794 -2.0023  1.7128
  928MOL0     H25219  -0.006  11.002   9.708 -0.1769  0.6682 -2.0156
  928MOL0     H25220   0.005  11.179   9.689  0.1071  0.7989  1.4897
  928MOL0     H25221  -0.217  11.003   9.786  1.2757 -0.2148  2.8204
  928MOL0     H25222  -0.207  11.156   9.874 -0.5984  0.5707 -0.3209
  928MOL0     H25223  -0.245  11.276   9.659 -2.9808  0.7836 -1.1305
  928MOL0     H25224  -0.199  11.137   9.568  0.1096  1.0248 -0.4661
  928MOL0     H25225  -0.445  11.229   9.584 -0.9505  2.0356  2.6659
  928MOL0     H25226  -0.446  11.062   9.640 -3.0078  0.6008 -0.0036
  928MOL0     H25227  -0.403  11.297   9.847 -1.6410  1.1618  1.8981
  928MOL0     H25228  -0.477  11.141   9.859  2.1479  2.4391  3.4660
  928MOL0     H25229  -0.583  11.381   9.694  1.2243 -1.1014 -0.7562
  928MOL0     H25230  -0.656  11.214   9.702 -0.5454 -0.2771 -0.0638
  928MOL0     H25231  -0.789  11.161   9.909  0.9883 -1.0360  0.1528
  928MOL0     H25232  -0.885  11.195  10.164 -1.2338 -1.0816  2.0985
  928MOL0     H25233  -0.788  11.308  10.256 -0.2931  0.0806  0.8981
  928MOL0     H25234  -0.960  11.485  10.201  0.2719 -0.4087  1.5103
  928MOL0     H25235  -1.048  11.373  10.110 -0.7769  1.7886  1.0890
  928MOL0     H25236  -0.976  11.327  10.403 -0.5968 -1.9855  0.2377
  928MOL0     H25237  -1.080  11.221  10.292 -2.2926  1.4727 -3.2351
  928MOL0     H25238  -1.258  11.375  10.273  1.3816 -0.4856 -0.7506
  928MOL0     H25239  -1.171  11.502  10.358 -1.4374  0.0847  1.6541
  928MOL0     H25240  -1.429  11.424  10.676 -0.1201  0.4601  3.9242
  928MOL0     H25241  -1.371  11.512  10.898  0.2443 -2.7835  0.7227
  928MOL0     H25242  -1.079  11.365  11.270 -1.2651 -0.7271  3.0864
  928MOL0     H25243  -1.025  11.443  11.484  1.2811  1.5679 -0.3599
  928MOL0     H25244  -1.039  11.651  11.785 -1.3688 -0.4050 -0.2803
  928MOL0     H25245  -0.996  11.520  11.672 -0.5361  0.6404  1.5306
  928MOL0     H25246  -0.784  11.657  11.711 -0.8255  0.6300  1.3459
  928MOL0     H25247  -0.822  11.649  11.548  0.7851 -2.6669  2.1181
  928MOL0     H25248  -0.927  11.880  11.555 -1.8998 -0.0095  0.1137
  928MOL0     H25249  -0.932  11.871  11.735 -2.1006 -3.4204  0.2614
  928MOL0     H25250  -0.691  11.887  11.550  2.3950 -2.5580  2.0232
  928MOL0     H25251  -0.687  11.876  11.728 -0.8306  4.7757  1.9551
  928MOL0     H25252  -0.814  12.106  11.570 -0.6629  1.6152  1.3521
  928MOL0     H25253  -0.651  12.112  11.623  0.7697  0.3417  3.4546
  928MOL0     H25254  -0.900  12.106  11.791 -0.5266 -0.0784  0.8378
  928MOL0     H25255  -0.758  12.098  11.880  0.7326 -0.2418 -0.9854
  928MOL0     H25256  -0.852  12.324  11.682  0.7921  1.3103 -0.8690
  928MOL0     H25257  -0.677  12.308  11.745 -0.8050 -1.3735  1.3051
  928MOL0     H25258  -0.760  12.350  11.969  1.3577  2.4650  0.7390
  928MOL0     H25259  -0.776  12.480  11.865  3.0878 -2.2211  0.2964
  928MOL0     H25260  -1.227  11.824  11.421  0.5220 -0.2473 -0.1584
  928MOL0     H25261  -1.283  11.756  11.200 -0.3579  0.0876 -1.3949
  928MOL0     H25262  -0.962  11.538  10.781  0.7339 -0.7138 -0.3038
  928MOL0     H25263  -1.022  11.486  10.547 -2.1663 -1.0532 -1.9041
  928MOL0     H25264   0.107  10.765  10.084 -0.0754 -0.3805  0.9751
  928MOL0     H25265   0.229  10.564  10.179  2.0049 -1.1790  0.7886
  928MOL0     H25266   0.468  10.483  10.343  2.9716 -0.1374  0.3006
  928MOL0     H25267   0.469  10.388  10.574  1.0633 -1.9389  0.0703
  928MOL0     H25268   0.435  10.279  10.772  1.4678  2.3361 -2.5248
  928MOL0     H25269   0.552  10.175  10.692  2.5765  2.4517  3.0909
  928MOL0     H25270   0.522  10.077  10.933 -4.4006  1.9693  2.2964
  928MOL0     H25271   0.494   9.971  10.791  0.0281 -0.3147 -1.3352
  928MOL0     H25272   0.251   9.994  10.818 -0.8109  1.8421 -0.4528
  928MOL0     H25273   0.276  10.122  10.941 -1.7850 -0.6544  0.4800
  928MOL0     H25274   0.385   9.947  11.088 -3.2714  2.9233 -0.2600
  928MOL0     H25275   0.232   9.876  11.037 -0.7577  1.4274  1.3494
  928MOL0     H25276   0.541   9.620  10.898 -1.6822 -1.2995  1.2022
  928MOL0     H25277   0.312  10.029  10.443  0.9378 -0.5323 -3.3064
  928MOL0     H25278   0.172  10.114  10.163  0.2574  1.7334  1.6474
  928MOL0     H25279   0.344  10.084  10.098 -0.4532 -1.2643 -1.1051
  928MOL0     H25280   0.284   9.980  10.215 -2.5794 -1.3171 -3.2282
  929MOL0     O25281   6.302   4.942   5.668  0.4725 -0.2543  0.8409
  929MOL0     C25282   6.391   4.900   5.735 -0.1975  0.5588 -0.1437
  929MOL0     O25283   6.494   4.971   5.773 -0.0525 -0.6319  0.2936
  929MOL0     C25284   6.489   5.106   5.744 -0.2787  0.3273  0.2849
  929MOL0     C25285   6.554   5.155   5.626  0.2652 -0.2676  0.5539
  929MOL0     C25286   6.529   5.289   5.596 -0.8502  0.6298 -0.3008
  929MOL0     C25287   6.455   5.366   5.675 -0.7079  0.2531 -0.0444
  929MOL0     O25288   6.440   5.503   5.659  0.5091  0.3865  0.1257
  929MOL0     C25289   6.433   5.528   5.516 -0.3510 -0.1324  0.2588
  929MOL0     C25290   6.367   5.669   5.488 -1.0494  0.0057 -0.0470
  929MOL0     C25291   6.377   5.699   5.347 -1.2362  0.9766  0.3957
  929MOL0     C25292   6.285   5.820   5.300 -0.4102  0.1018 -0.4908
  929MOL0     C25293   6.252   5.813   5.153  0.0616 -0.6229 -0.0104
  929MOL0     C25294   6.151   5.922   5.121  0.7697 -0.2047  0.6877
  929MOL0     C25295   6.007   5.889   5.179  0.4682 -0.3185 -0.0403
  929MOL0     C25296   5.951   5.747   5.135 -0.3208 -0.4465  0.4800
  929MOL0     N25297   5.810   5.734   5.174  0.0774 -0.4037  0.2205
  929MOL0     C25298   5.767   5.781   5.296  0.4095  1.4356 -1.5588
  929MOL0     C25299   5.633   5.749   5.299 -0.2909 -0.4225 -0.1639
  929MOL0     C25300   5.517   5.752   5.407  0.4243 -0.5103  0.2355
  929MOL0     C25301   5.495   5.896   5.458  0.1502 -1.2814  0.4057
  929MOL0     C25302   5.433   5.992   5.351 -0.2708 -0.3748 -0.2364
  929MOL0     C25303   5.290   5.979   5.318  1.1775  0.4450 -0.3083
  929MOL0     O25304   5.229   6.031   5.438 -0.1728 -0.0522  0.1196
  929MOL0     C25305   5.093   6.035   5.462  0.3743  0.5321  0.2603
  929MOL0     C25306   5.045   6.068   5.594  0.5531 -0.6065  0.4299
  929MOL0     C25307   4.913   6.061   5.624  0.6270 -0.3117  0.3469
  929MOL0     C25308   4.812   6.028   5.526 -0.5357  0.7432 -0.9582
  929MOL0     C25309   4.668   6.019   5.558  0.1493 -0.6732  0.5383
  929MOL0     O25310   4.580   5.999   5.444 -0.5494  0.0870  0.0454
  929MOL0     C25311   4.440   5.987   5.458 -0.3843  0.1485 -0.1754
  929MOL0     C25312   4.390   5.856   5.450  0.4753 -0.0962 -0.1659
  929MOL0     C25313   4.260   5.827   5.479  0.4727  0.0617  0.4812
  929MOL0     C25314   4.165   5.933   5.487  0.4492  0.2351 -0.3230
  929MOL0     O25315   4.035   5.890   5.533 -0.3980 -0.3030  0.2552
  929MOL0     C25316   3.959   5.970   5.610 -0.1485  0.1923  0.2169
  929MOL0     C25317   3.890   5.888   5.726 -0.6381 -0.5408 -0.1313
  929MOL0     C25318   3.808   5.783   5.658 -0.8379  0.7024  0.0265
  929MOL0     C25319   3.726   5.712   5.764 -0.0481 -0.4597  0.1087
  929MOL0     C25320   3.597   5.654   5.701  0.1932  0.3492  0.4949
  929MOL0     C25321   3.502   5.578   5.807  0.1212  0.3219 -0.2760
  929MOL0     C25322   3.353   5.554   5.761 -0.6435 -0.3391  0.9693
  929MOL0     C25323   3.263   5.520   5.879  0.0901 -0.0404 -0.6073
  929MOL0    Cl25324   3.283   5.354   5.938  0.4065  0.0071 -0.3781
  929MOL0     C25325   4.221   6.064   5.494  0.1993 -0.4428  1.0244
  929MOL0     C25326   4.357   6.094   5.480  1.1406  0.9567  0.2880
  929MOL0     O25327   4.625   6.015   5.672  0.6498 -0.2736 -0.2694
  929MOL0     C25328   4.865   6.025   5.396  0.2970  0.5422 -0.5699
  929MOL0     C25329   4.998   6.012   5.361 -0.1134  0.0609  0.7978
  929MOL0     N25330   5.599   5.703   5.173  0.0480 -0.0208 -0.0250
  929MOL0     N25331   5.705   5.699   5.096 -0.5592 -1.0731  0.4471
  929MOL0     C25332   6.406   5.321   5.804 -0.6218 -0.2499  1.2475
  929MOL0     C25333   6.420   5.190   5.828 -0.0436  1.5213  0.2979
  929MOL0     C25334   6.387   4.759   5.794  0.1973 -0.2166  0.4859
  929MOL0     C25335   6.470   4.717   5.905  0.2999  0.5890 -1.0696
  929MOL0     C25336   6.446   4.594   5.958  0.5517 -0.2573 -0.4587
  929MOL0     C25337   6.348   4.511   5.920  0.7259  0.2310 -0.3934
  929MOL0     O25338   6.332   4.398   5.997 -1.0445 -1.0128 -0.1729
  929MOL0     C25339   6.212   4.330   6.000  0.3403  0.5274 -0.0839
  929MOL0     C25340   6.184   4.262   6.132  0.3389 -0.4552 -0.1771
  929MOL0     C25341   6.291   4.178   6.193 -0.9801 -0.2028  0.2359
  929MOL0     C25342   6.335   4.063   6.092 -0.2751 -0.7065 -0.0889
  929MOL0     C25343   6.222   3.963   6.055  0.2612 -1.2404  0.4958
  929MOL0     C25344   6.135   3.883   6.017  1.0137 -0.6839  1.6809
  929MOL0     C25345   6.264   4.549   5.817 -0.8519  0.1299  0.0217
  929MOL0     C25346   6.283   4.672   5.752  0.7233  0.7889  0.2741
  929MOL0     C25347   6.182   4.691   5.631 -0.6323 -0.1816  0.5912
  929MOL0     H25348   6.610   5.097   5.554 -1.9570 -0.6627 -0.9569
  929MOL0     H25349   6.574   5.327   5.504  1.8430 -0.2915  0.5461
  929MOL0     H25350   6.539   5.517   5.494 -0.0781 -1.2172  1.9413
  929MOL0     H25351   6.376   5.448   5.468  0.5149 -1.4355  1.3533
  929MOL0     H25352   6.412   5.749   5.548 -1.6953  0.0557  0.3825
  929MOL0     H25353   6.262   5.660   5.515 -1.1763  0.7615 -0.2575
  929MOL0     H25354   6.338   5.613   5.293  1.8419 -1.7125  2.0727
  929MOL0     H25355   6.483   5.709   5.324 -0.6265 -0.8738  2.0791
  929MOL0     H25356   6.190   5.821   5.355 -0.9074 -2.2271 -1.2212
  929MOL0     H25357   6.334   5.916   5.322 -0.2725 -0.5682  2.6446
  929MOL0     H25358   6.333   5.849   5.089 -0.5940  4.8784  1.7806
  929MOL0     H25359   6.217   5.717   5.113  1.4383 -1.0859 -0.1703
  929MOL0     H25360   6.191   6.020   5.149  1.5114  0.1692 -1.5509
  929MOL0     H25361   6.140   5.937   5.013  1.4553 -0.9005  0.5150
  929MOL0     H25362   5.936   5.968   5.152  2.8675  1.6733 -0.9267
  929MOL0     H25363   6.002   5.903   5.287  0.0997 -0.9787  0.0353
  929MOL0     H25364   5.960   5.736   5.026 -0.6607  3.9327 -0.1888
  929MOL0     H25365   6.008   5.665   5.179 -2.4909 -1.2443  2.0017
  929MOL0     H25366   5.822   5.815   5.383 -0.5830 -1.0601  0.1348
  929MOL0     H25367   5.427   5.704   5.368 -1.5051  1.0056  2.4829
  929MOL0     H25368   5.536   5.692   5.496 -0.6241  0.3408  1.0697
  929MOL0     H25369   5.428   5.901   5.545 -0.9042  1.5164 -0.4431
  929MOL0     H25370   5.589   5.935   5.498 -0.1946  0.1179 -0.0733
  929MOL0     H25371   5.496   5.992   5.262 -2.8293  1.3018 -2.1656
  929MOL0     H25372   5.454   6.094   5.384  1.9108 -0.7070 -0.4683
  929MOL0     H25373   5.269   5.877   5.284 -1.7559  0.5847  0.7709
  929MOL0     H25374   5.260   6.050   5.240 -1.5207 -1.6135 -1.3106
  929MOL0     H25375   5.108   6.081   5.682  0.2534 -3.7381  1.2358
  929MOL0     H25376   4.876   6.086   5.723  2.8615  2.8451  0.5298
  929MOL0     H25377   4.465   5.778   5.445  0.7961  0.1878  0.2216
  929MOL0     H25378   4.224   5.726   5.498  0.1422 -0.0882 -0.8922
  929MOL0     H25379   4.014   6.050   5.661 -0.6026  1.6670 -1.5224
  929MOL0     H25380   3.883   6.022   5.551 -2.5441 -1.9340  1.2358
  929MOL0     H25381   3.963   5.853   5.800  4.0057  0.5991 -3.6427
  929MOL0     H25382   3.811   5.949   5.769 -2.5928 -0.1125 -3.8970
  929MOL0     H25383   3.746   5.834   5.584 -1.4632 -0.1361 -0.0372
  929MOL0     H25384   3.864   5.707   5.602 -2.6630  0.3185 -1.3680
  929MOL0     H25385   3.694   5.776   5.847  0.2327 -0.5768  0.3077
  929MOL0     H25386   3.791   5.632   5.800  0.8918  0.3880  0.3480
  929MOL0     H25387   3.625   5.583   5.623  2.0864 -0.1953  1.5967
  929MOL0     H25388   3.532   5.731   5.659  3.0680  2.1953 -0.8740
  929MOL0     H25389   3.525   5.476   5.840 -3.9905 -0.5168  0.4307
  929MOL0     H25390   3.507   5.631   5.903 -2.3587  0.8399 -0.3853
  929MOL0     H25391   3.354   5.474   5.686 -0.4714  1.8220 -1.4923
  929MOL0     H25392   3.312   5.643   5.711 -0.1977  0.2157  1.5756
  929MOL0     H25393   3.278   5.598   5.955  0.0383 -2.2157  1.7652
  929MOL0     H25394   3.156   5.527   5.858 -0.6571 -0.7675  2.4833
  929MOL0     H25395   4.159   6.153   5.495  1.4067  0.4307  0.6096
  929MOL0     H25396   4.379   6.200   5.486 -0.0743  1.6321 -4.0250
  929MOL0     H25397   4.795   6.000   5.317 -1.4552 -0.9000  1.3268
  929MOL0     H25398   5.029   5.982   5.262 -2.5984  0.7671 -0.2688
  929MOL0     H25399   6.360   5.380   5.883  0.6718 -0.7809  2.4510
  929MOL0     H25400   6.375   5.147   5.918  0.2711  3.5624  1.4968
  929MOL0     H25401   6.540   4.786   5.951 -1.2420  2.4383 -1.3399
  929MOL0     H25402   6.505   4.561   6.043  1.8257 -1.3756 -1.7306
  929MOL0     H25403   6.216   4.247   5.930 -2.0876 -0.1896  0.5409
  929MOL0     H25404   6.124   4.393   5.983  1.9631  2.4464 -2.0137
  929MOL0     H25405   6.092   4.205   6.118  2.0163 -2.7581 -2.7176
  929MOL0     H25406   6.156   4.342   6.202  0.8128  1.0877 -1.6717
  929MOL0     H25407   6.257   4.124   6.282 -0.0542  0.1943  0.8521
  929MOL0     H25408   6.375   4.244   6.219 -0.3782 -0.3994 -1.1563
  929MOL0     H25409   6.385   4.095   6.000  0.0622 -0.9630  0.0067
  929MOL0     H25410   6.412   4.010   6.148 -0.1607  2.3803  2.9547
  929MOL0     H25411   6.072   3.801   5.991 -0.1213  0.1103  1.8427
  929MOL0     H25412   6.193   4.482   5.770 -0.3496  2.5892 -4.8669
  929MOL0     H25413   6.123   4.602   5.608 -1.7768 -0.0563  2.7596
  929MOL0     H25414   6.125   4.779   5.664 -0.1263  0.6153 -0.5737
  929MOL0     H25415   6.234   4.715   5.538 -0.0427 -2.8059  0.1869
  930MOL0     O25416   0.370   9.322   7.478  0.4838 -0.3566  0.0594
  930MOL0     C25417   0.451   9.320   7.384  0.7742  0.2060  0.1867
  930MOL0     O25418   0.566   9.380   7.385 -0.3245 -0.0332  0.6996
  930MOL0     C25419   0.569   9.517   7.418 -0.0141  1.2933  0.4059
  930MOL0     C25420   0.667   9.557   7.510 -0.1943 -0.2142 -0.8922
  930MOL0     C25421   0.675   9.694   7.547 -0.4536 -0.2962 -0.1499
  930MOL0     C25422   0.591   9.788   7.483 -0.1242 -0.5302 -0.7086
  930MOL0     O25423   0.622   9.923   7.503 -0.1467  0.6541 -0.2030
  930MOL0     C25424   0.509  10.012   7.542 -0.1786 -0.0982  0.3134
  930MOL0     C25425   0.556  10.101   7.660 -1.1178  0.3989  0.6196
  930MOL0     C25426   0.562  10.003   7.787  0.0239 -0.1969  0.0844
  930MOL0     C25427   0.622  10.096   7.904  0.2585  0.1405  0.1433
  930MOL0     C25428   0.678  10.012   8.023 -0.7132 -0.4778  0.7079
  930MOL0     C25429   0.723  10.117   8.120  0.3511  0.6732  0.1590
  930MOL0     C25430   0.780  10.037   8.240 -0.5395 -0.0245 -0.2794
  930MOL0     C25431   0.912   9.981   8.231 -0.3138 -0.0243 -1.0764
  930MOL0     N25432   1.020  10.057   8.301  0.9945  0.1048 -0.2207
  930MOL0     C25433   1.086   9.999   8.410 -0.0267  0.8173  0.5639
  930MOL0     C25434   1.197  10.073   8.419 -0.0094  0.1384  0.7116
  930MOL0     C25435   1.323  10.058   8.508  0.6349 -0.4685  0.3180
  930MOL0     C25436   1.294  10.095   8.657 -0.0820 -0.2203 -0.7312
  930MOL0     C25437   1.410  10.123   8.748 -0.5206  0.4610 -0.8568
  930MOL0     C25438   1.381  10.079   8.895 -0.7699 -1.2148  0.2562
  930MOL0     O25439   1.381   9.938   8.882  0.1189 -0.4232 -0.4225
  930MOL0     C25440   1.270   9.865   8.904  0.8881 -0.4838  1.2811
  930MOL0     C25441   1.277   9.730   8.865 -0.5579  0.1471  0.0608
  930MOL0     C25442   1.176   9.636   8.892  0.7503 -0.1038  0.1001
  930MOL0     C25443   1.058   9.684   8.953  0.1615  0.5658  0.0033
  930MOL0     C25444   0.950   9.587   8.984  0.5987 -0.0052 -0.0519
  930MOL0     O25445   0.856   9.631   9.059  0.1280  0.4059  0.4493
  930MOL0     C25446   0.747   9.548   9.096 -0.2178  0.3036  0.1039
  930MOL0     C25447   0.623   9.566   9.039 -0.0677 -0.0959 -0.0391
  930MOL0     C25448   0.523   9.488   9.075 -0.0982  0.0892 -0.1740
  930MOL0     C25449   0.538   9.393   9.173  0.3415 -0.0190 -0.1697
  930MOL0     O25450   0.416   9.343   9.220 -0.0566  0.6620 -0.0102
  930MOL0     C25451   0.409   9.273   9.346  0.2883  0.2549  0.1082
  930MOL0     C25452   0.277   9.204   9.354  0.9892 -0.1304 -0.1164
  930MOL0     C25453   0.204   9.235   9.485 -0.3574  0.3811 -1.7477
  930MOL0     C25454   0.061   9.209   9.484 -0.3864  0.4127 -1.2044
  930MOL0     C25455  -0.012   9.231   9.634 -0.1808  0.2829  0.0472
  930MOL0     C25456  -0.144   9.164   9.660  0.2176  0.4838  0.3011
  930MOL0     C25457  -0.208   9.204   9.786 -0.0609  0.9597 -0.5281
  930MOL0     C25458  -0.135   9.139   9.901  0.1582  0.4568  0.4163
  930MOL0    Cl25459  -0.047   8.987   9.866  0.6215  0.5727  0.3496
  930MOL0     C25460   0.670   9.373   9.240  0.6145  0.4709  0.7542
  930MOL0     C25461   0.765   9.453   9.203  0.3298 -0.6200 -0.2095
  930MOL0     O25462   0.970   9.473   8.946  0.3459  0.5276 -0.2502
  930MOL0     C25463   1.048   9.822   8.998  0.2785  0.9287  0.0428
  930MOL0     C25464   1.154   9.915   8.969  0.3975  0.3954  0.8528
  930MOL0     N25465   1.183  10.183   8.339 -0.0589  0.4418 -0.3135
  930MOL0     N25466   1.076  10.171   8.263 -0.2290 -0.5727 -0.0742
  930MOL0     C25467   0.489   9.743   7.400 -0.1844  0.4692 -0.4338
  930MOL0     C25468   0.477   9.608   7.373  0.6581 -0.0514 -0.5774
  930MOL0     C25469   0.432   9.219   7.272 -0.5291 -0.6326  1.1060
  930MOL0     C25470   0.482   9.263   7.144  0.2384 -0.1993 -0.1792
  930MOL0     C25471   0.475   9.180   7.031 -0.0729  0.0857 -0.0199
  930MOL0     C25472   0.403   9.062   7.046  0.5013  0.1352  0.2422
  930MOL0     O25473   0.381   8.977   6.942  0.5909 -0.6516  0.1430
  930MOL0     C25474   0.429   8.991   6.810  0.1020 -0.5127  0.1793
  930MOL0     C25475   0.317   9.017   6.712  0.1455  0.2955  0.9407
  930MOL0     C25476   0.211   8.900   6.692 -1.0893  0.4426 -0.4133
  930MOL0     C25477   0.108   8.936   6.590 -0.5724  0.1701  0.8333
  930MOL0     C25478   0.023   9.049   6.641 -0.8753 -0.3269 -0.1640
  930MOL0     C25479  -0.043   9.149   6.672  0.4510  0.7924 -0.7147
  930MOL0     C25480   0.339   9.027   7.163  0.3463 -0.1327 -1.0939
  930MOL0     C25481   0.354   9.106   7.278  0.9187 -0.2980 -0.2588
  930MOL0     C25482   0.290   9.054   7.398 -0.7526  0.4922 -0.5318
  930MOL0     H25483   0.749   9.495   7.545  1.2828  0.3703 -3.1190
  930MOL0     H25484   0.758   9.738   7.602  0.6781 -0.0007 -2.0144
  930MOL0     H25485   0.468  10.065   7.456  0.7406  1.2819  0.6921
  930MOL0     H25486   0.425   9.951   7.576  0.3762  0.2932  2.6102
  930MOL0     H25487   0.483  10.179   7.681 -0.4720  1.6458 -1.4963
  930MOL0     H25488   0.650  10.147   7.628 -2.9757  1.7044 -3.6806
  930MOL0     H25489   0.608   9.906   7.770  0.3103 -0.1526  0.5920
  930MOL0     H25490   0.459   9.993   7.822  1.0108 -1.0112  3.0558
  930MOL0     H25491   0.704  10.159   7.869  0.6571  0.1623  1.0960
  930MOL0     H25492   0.538  10.163   7.929  0.0749  0.2903 -0.8317
  930MOL0     H25493   0.598   9.949   8.063 -2.0917  1.1299  0.6167
  930MOL0     H25494   0.767   9.956   7.995 -1.3084 -0.7121 -0.7982
  930MOL0     H25495   0.792  10.190   8.076 -0.4816  0.3053 -1.8383
  930MOL0     H25496   0.636  10.176   8.149 -0.5186 -0.5062  0.0124
  930MOL0     H25497   0.713   9.956   8.271 -1.3588  0.6735 -0.1795
  930MOL0     H25498   0.783  10.116   8.316 -0.6386  1.1291 -1.4367
  930MOL0     H25499   0.916   9.883   8.279 -0.4265  0.4491 -0.0759
  930MOL0     H25500   0.942   9.976   8.126  3.8871  1.1445 -0.1317
  930MOL0     H25501   1.054   9.904   8.452  0.9701 -0.3257 -1.1786
  930MOL0     H25502   1.355   9.954   8.496  0.5254 -0.2954 -1.7768
  930MOL0     H25503   1.396  10.129   8.466 -1.7077  0.1904 -3.0530
  930MOL0     H25504   1.237  10.188   8.668  1.7161  0.9460 -0.8062
  930MOL0     H25505   1.226  10.017   8.691 -0.5070  0.5379  0.1812
  930MOL0     H25506   1.434  10.229   8.740 -1.3295  0.6396 -0.9490
  930MOL0     H25507   1.500  10.069   8.715 -0.1642  0.3307  0.2934
  930MOL0     H25508   1.283  10.120   8.922  0.0693  0.5469  0.7645
  930MOL0     H25509   1.443  10.111   8.979  0.4494 -0.9157 -0.7203
  930MOL0     H25510   1.362   9.697   8.806 -0.6775 -0.9617  0.4867
  930MOL0     H25511   1.199   9.541   8.845 -0.4806  0.0361 -0.8012
  930MOL0     H25512   0.606   9.635   8.957  1.2486 -0.3144 -0.5086
  930MOL0     H25513   0.428   9.521   9.034  1.3841  3.2863 -1.3365
  930MOL0     H25514   0.492   9.202   9.351 -0.1024 -0.3113 -1.0368
  930MOL0     H25515   0.406   9.348   9.426 -6.1146 -0.6968  1.2800
  930MOL0     H25516   0.216   9.226   9.266 -2.4999 -4.2017  0.9627
  930MOL0     H25517   0.308   9.099   9.353 -0.3562 -0.5433 -0.0989
  930MOL0     H25518   0.254   9.168   9.556 -1.4144 -0.4573 -1.7843
  930MOL0     H25519   0.220   9.338   9.519  3.2403 -0.9750  1.3826
  930MOL0     H25520   0.055   9.102   9.461  0.1314  0.2601 -0.6582
  930MOL0     H25521   0.003   9.260   9.406  0.2944 -0.1619 -2.1101
  930MOL0     H25522  -0.016   9.337   9.663 -0.0223 -0.1389  1.6961
  930MOL0     H25523   0.056   9.188   9.708 -0.5618 -0.9896 -0.3200
  930MOL0     H25524  -0.211   9.189   9.578  1.2580  0.3860 -0.6046
  930MOL0     H25525  -0.138   9.055   9.656  2.0517  0.4515  2.1074
  930MOL0     H25526  -0.312   9.170   9.793  0.6052 -0.9212  1.5767
  930MOL0     H25527  -0.204   9.312   9.800  2.7549  0.5191  5.0953
  930MOL0     H25528  -0.059   9.210   9.935 -0.0553  0.5132  0.7733
  930MOL0     H25529  -0.204   9.133   9.985  1.3475  0.5905  1.4252
  930MOL0     H25530   0.674   9.303   9.322 -4.9037 -1.3964 -0.1637
  930MOL0     H25531   0.856   9.457   9.262 -1.5125 -0.8021  2.8259
  930MOL0     H25532   0.957   9.858   9.045  0.1807  0.9116 -0.1334
  930MOL0     H25533   1.152  10.014   9.013  0.4562  0.3785  0.8934
  930MOL0     H25534   0.423   9.821   7.362 -1.0617  1.2460  2.4615
  930MOL0     H25535   0.391   9.577   7.315 -1.4456  1.8885  1.3079
  930MOL0     H25536   0.533   9.358   7.125  0.4733 -0.7105 -2.3785
  930MOL0     H25537   0.521   9.222   6.942 -0.1604 -1.1178 -0.6596
  930MOL0     H25538   0.480   8.899   6.781 -2.2099 -1.7971 -0.0774
  930MOL0     H25539   0.498   9.072   6.788  1.6157 -2.5108 -3.2668
  930MOL0     H25540   0.359   9.029   6.612 -0.5988 -1.2939  0.4126
  930MOL0     H25541   0.256   9.104   6.740 -0.4511 -0.2634  1.4123
  930MOL0     H25542   0.168   8.881   6.791  2.7192  0.1617  1.3625
  930MOL0     H25543   0.264   8.808   6.667  0.3618  1.2085 -0.2413
  930MOL0     H25544   0.164   8.952   6.497 -1.5151  1.3245  0.4435
  930MOL0     H25545   0.042   8.851   6.572 -1.5069  0.7986  1.2499
  930MOL0     H25546  -0.101   9.231   6.710  1.1785  1.4923 -1.0849
  930MOL0     H25547   0.275   8.940   7.177 -1.3428  1.1132 -0.6809
  930MOL0     H25548   0.215   9.126   7.433  2.3301  2.6143  2.3361
  930MOL0     H25549   0.261   8.948   7.389 -0.8568  0.4706  0.0193
  930MOL0     H25550   0.366   9.031   7.474 -0.1537  2.1125 -0.6149
  931MOL0     O25551   0.774  10.740   2.924  0.2995  0.1784 -0.7310
  931MOL0     C25552   0.825  10.775   2.819  0.2995  0.3302 -0.1213
  931MOL0     O25553   0.830  10.704   2.700 -0.4270  1.3184  0.4889
  931MOL0     C25554   0.770  10.586   2.675 -0.0070  1.2389 -0.6244
  931MOL0     C25555   0.673  10.527   2.758  0.4128  0.4139  0.6176
  931MOL0     C25556   0.592  10.419   2.715 -1.0538 -0.0046  0.4118
  931MOL0     C25557   0.621  10.349   2.596  0.6136 -0.5715 -0.4903
  931MOL0     O25558   0.549  10.233   2.570  0.5183 -0.9280  0.2256
  931MOL0     C25559   0.552  10.194   2.431  0.3755  0.2289 -0.2311
  931MOL0     C25560   0.418  10.129   2.385 -0.3073 -0.3142 -0.4282
  931MOL0     C25561   0.288  10.212   2.398  0.2961 -0.5715  0.3508
  931MOL0     C25562   0.271  10.303   2.283 -0.2252 -0.3208 -0.2272
  931MOL0     C25563   0.136  10.370   2.267 -0.1225  0.2304  0.0883
  931MOL0     C25564   0.107  10.473   2.376 -0.1603  0.6953  0.6570
  931MOL0     C25565  -0.018  10.552   2.333 -0.0592  0.2853  0.3145
  931MOL0     C25566  -0.145  10.458   2.324 -0.8493 -0.4488 -0.6411
  931MOL0     N25567  -0.252  10.524   2.257 -0.1330 -0.7019  0.3105
  931MOL0     C25568  -0.368  10.558   2.324 -1.0733  0.7683 -0.0998
  931MOL0     C25569  -0.448  10.603   2.225  0.1489  0.2383  0.3395
  931MOL0     C25570  -0.584  10.662   2.257  0.0860  0.1481 -0.1573
  931MOL0     C25571  -0.684  10.565   2.318 -0.4792 -0.1103  0.7235
  931MOL0     C25572  -0.726  10.453   2.217  0.4327  0.0083 -0.6024
  931MOL0     C25573  -0.839  10.496   2.127  0.1023 -0.2686  1.2826
  931MOL0     O25574  -0.889  10.379   2.057 -0.0872  0.4642  0.3799
  931MOL0     C25575  -0.986  10.297   2.110 -0.1673 -0.4033 -0.3725
  931MOL0     C25576  -1.047  10.320   2.236  0.3499 -0.1205 -0.3220
  931MOL0     C25577  -1.137  10.221   2.290 -0.5581  0.1659 -0.1401
  931MOL0     C25578  -1.187  10.112   2.214  0.5005 -0.4977 -0.1389
  931MOL0     C25579  -1.291  10.024   2.268 -0.4425  0.9067 -0.8489
  931MOL0     O25580  -1.312   9.899   2.202  0.3633 -0.2733 -0.0190
  931MOL0     C25581  -1.403   9.812   2.264 -0.6457  0.6247  0.3930
  931MOL0     C25582  -1.357   9.677   2.280 -0.1332  0.4547  0.4439
  931MOL0     C25583  -1.451   9.583   2.328  1.0619  0.2997 -0.5266
  931MOL0     C25584  -1.574   9.623   2.384  0.1572  0.1885  0.1369
  931MOL0     O25585  -1.646   9.531   2.449  0.5122 -0.3543  0.1346
  931MOL0     C25586  -1.686   9.399   2.398  0.2271 -1.2682 -0.4960
  931MOL0     C25587  -1.746   9.334   2.522 -0.0712 -0.4045 -0.5932
  931MOL0     C25588  -1.893   9.381   2.560 -0.0103  1.0915 -0.2354
  931MOL0     C25589  -1.972   9.287   2.661  0.4601 -0.0997  0.8914
  931MOL0     C25590  -2.103   9.354   2.717 -0.0306 -0.3240  0.1704
  931MOL0     C25591  -2.184   9.239   2.782 -0.2108  0.4105 -0.2775
  931MOL0     C25592  -2.332   9.285   2.817 -0.9851  1.2372 -0.2545
  931MOL0     C25593  -2.417   9.197   2.903  0.5402  0.6437 -0.4403
  931MOL0    Cl25594  -2.371   9.188   3.067 -0.1704 -0.2126  0.0229
  931MOL0     C25595  -1.603   9.759   2.390  0.2531 -0.2893 -0.3625
  931MOL0     C25596  -1.517   9.857   2.328 -0.2670 -0.2779 -0.3976
  931MOL0     O25597  -1.332  10.061   2.379 -0.3119  0.7360  0.5205
  931MOL0     C25598  -1.118  10.091   2.092  0.8441 -0.7762 -0.3063
  931MOL0     C25599  -1.021  10.180   2.041  0.7936  0.2104 -0.5794
  931MOL0     N25600  -0.382  10.581   2.106  0.6927 -0.9237  0.0378
  931MOL0     N25601  -0.269  10.533   2.118  0.1842  0.0720 -0.0448
  931MOL0     C25602   0.730  10.401   2.527  0.0604 -0.0452 -0.6170
  931MOL0     C25603   0.806  10.506   2.566 -0.0652  0.0608  0.4951
  931MOL0     C25604   0.894  10.916   2.815 -0.2208  0.0504  0.2084
  931MOL0     C25605   0.935  10.962   2.693 -0.8052 -0.3861  0.3940
  931MOL0     C25606   0.991  11.099   2.673  0.0637  0.7825  0.1508
  931MOL0     C25607   0.999  11.184   2.778  0.3803  0.4831 -0.3979
  931MOL0     O25608   1.045  11.309   2.769  0.1518  0.1780 -1.0258
  931MOL0     C25609   1.168  11.316   2.696  0.4422  0.0306 -1.0674
  931MOL0     C25610   1.276  11.221   2.759 -0.2877  0.6332  0.0950
  931MOL0     C25611   1.421  11.246   2.733 -0.1788  0.1858  0.1466
  931MOL0     C25612   1.477  11.380   2.756 -0.0321 -0.1227 -0.7460
  931MOL0     C25613   1.467  11.471   2.637 -0.3217  0.3579 -0.0862
  931MOL0     C25614   1.449  11.538   2.538  0.7981 -1.1085 -0.1838
  931MOL0     C25615   0.938  11.140   2.901 -0.0566 -0.0573 -0.0397
  931MOL0     C25616   0.898  11.007   2.915  0.1643  0.2247 -0.8733
  931MOL0     C25617   0.854  10.970   3.057 -0.5134  1.4551 -0.0884
  931MOL0     H25618   0.660  10.561   2.860  0.4895  0.1841  0.7065
  931MOL0     H25619   0.520  10.375   2.784 -0.6578  2.8917  2.8793
  931MOL0     H25620   0.571  10.278   2.364  1.3456  0.6738  0.5685
  931MOL0     H25621   0.637  10.127   2.420  0.3583  0.2973 -0.8196
  931MOL0     H25622   0.412  10.039   2.447  1.5761 -1.0966 -1.2801
  931MOL0     H25623   0.419  10.098   2.280 -2.6719 -1.0107 -0.3012
  931MOL0     H25624   0.294  10.271   2.490  0.0264  0.7758 -0.4623
  931MOL0     H25625   0.201  10.146   2.404 -0.9996  1.1745  3.7591
  931MOL0     H25626   0.349  10.379   2.292 -2.2474  2.0226 -1.5025
  931MOL0     H25627   0.291  10.241   2.195  2.8160  1.4346 -0.9228
  931MOL0     H25628   0.130  10.416   2.168  1.1031  1.4897  0.5513
  931MOL0     H25629   0.064  10.288   2.277 -0.3593  0.2719 -1.1070
  931MOL0     H25630   0.091  10.424   2.473  0.2317  0.0626  0.4095
  931MOL0     H25631   0.197  10.535   2.376  1.0497 -0.9485  1.9034
  931MOL0     H25632   0.004  10.601   2.237 -2.2335 -2.0645 -1.4955
  931MOL0     H25633  -0.034  10.638   2.399 -0.4248  0.2675  0.2506
  931MOL0     H25634  -0.117  10.369   2.267 -0.3795 -1.7029  1.4320
  931MOL0     H25635  -0.173  10.426   2.425  0.1504  3.4294  1.0987
  931MOL0     H25636  -0.388  10.576   2.429 -0.9478  2.1388 -0.2933
  931MOL0     H25637  -0.572  10.743   2.330 -2.4756 -0.3739  0.9467
  931MOL0     H25638  -0.622  10.709   2.166 -2.8896  0.5571  1.1863
  931MOL0     H25639  -0.638  10.530   2.411 -0.4418 -0.5989  0.5262
  931MOL0     H25640  -0.776  10.612   2.353  0.0050 -0.4509  2.5449
  931MOL0     H25641  -0.751  10.368   2.282  0.5350  1.1735  1.0264
  931MOL0     H25642  -0.640  10.410   2.164  2.1119  1.6906  0.6387
  931MOL0     H25643  -0.806  10.560   2.045 -1.8079  0.9353  1.3823
  931MOL0     H25644  -0.913  10.555   2.181 -0.7944  1.0176 -1.2000
  931MOL0     H25645  -1.031  10.401   2.306  0.6764 -1.7659  1.6034
  931MOL0     H25646  -1.168  10.231   2.393 -3.2995 -0.1780 -0.8527
  931MOL0     H25647  -1.263   9.653   2.231 -0.0547  0.0346  0.7862
  931MOL0     H25648  -1.414   9.481   2.329  2.9851  0.9605  0.7314
  931MOL0     H25649  -1.753   9.403   2.312  1.0232 -1.5331 -1.1510
  931MOL0     H25650  -1.599   9.344   2.359  0.2320 -1.7409  0.1706
  931MOL0     H25651  -1.741   9.226   2.511  1.4357 -0.7851  2.5310
  931MOL0     H25652  -1.686   9.348   2.613 -2.2141 -3.5109  1.4699
  931MOL0     H25653  -1.890   9.480   2.606  1.0010  0.1818  1.7690
  931MOL0     H25654  -1.950   9.392   2.468  0.2143  1.1858 -0.3664
  931MOL0     H25655  -1.896   9.262   2.735  3.6877 -2.3976 -2.7871
  931MOL0     H25656  -1.991   9.197   2.602 -0.8678 -0.9827  2.5583
  931MOL0     H25657  -2.161   9.405   2.639  1.0982 -1.0773 -1.2059
  931MOL0     H25658  -2.093   9.430   2.795  0.4959  1.3433 -1.4181
  931MOL0     H25659  -2.197   9.154   2.714  0.4720  0.9295 -1.0647
  931MOL0     H25660  -2.132   9.212   2.874  0.9474  1.4980 -0.5946
  931MOL0     H25661  -2.387   9.302   2.724 -1.2118 -1.4457 -0.6954
  931MOL0     H25662  -2.325   9.378   2.875  2.6435  1.2897 -0.5783
  931MOL0     H25663  -2.518   9.238   2.887  1.1414  2.4494  0.1773
  931MOL0     H25664  -2.407   9.092   2.872  1.7635 -0.0042  1.9184
  931MOL0     H25665  -1.688   9.793   2.447  0.7427  3.4331 -1.5541
  931MOL0     H25666  -1.550   9.960   2.330  0.8509  0.0873  1.3099
  931MOL0     H25667  -1.148  10.001   2.039 -0.2002  0.0619 -1.1689
  931MOL0     H25668  -0.990  10.163   1.939  1.1309 -0.9175 -0.2938
  931MOL0     H25669   0.770  10.345   2.443  4.1641  1.3226  0.2210
  931MOL0     H25670   0.897  10.532   2.514  0.5231 -1.5820  0.6713
  931MOL0     H25671   0.933  10.908   2.599  2.7428  1.6432 -1.0530
  931MOL0     H25672   1.031  11.134   2.578 -0.1087  1.9634  0.4961
  931MOL0     H25673   1.191  11.421   2.714  0.9011 -0.3566  0.8019
  931MOL0     H25674   1.159  11.319   2.587  0.7202  1.0689 -1.0731
  931MOL0     H25675   1.248  11.121   2.724 -1.0908  0.6325  0.7210
  931MOL0     H25676   1.278  11.231   2.868  0.9868  0.6111  0.0827
  931MOL0     H25677   1.450  11.205   2.636 -0.9169 -2.6661  1.0310
  931MOL0     H25678   1.469  11.175   2.802  1.6944  0.2015 -1.0747
  931MOL0     H25679   1.426  11.428   2.840  1.3839 -2.2982  1.4867
  931MOL0     H25680   1.583  11.372   2.780  0.3380  3.5098 -0.6064
  931MOL0     H25681   1.447  11.601   2.452  1.2083 -1.7466 -0.6753
  931MOL0     H25682   0.933  11.217   2.977 -0.7200 -0.5619  0.4402
  931MOL0     H25683   0.909  10.881   3.087 -1.4092  1.5136  1.8162
  931MOL0     H25684   0.885  11.044   3.132  1.0710  1.4527 -0.7072
  931MOL0     H25685   0.751  10.950   3.087  0.4277 -0.0137  2.4445
  932MOL0     O25686   8.960  10.542  11.230  0.5801 -0.0382  0.0330
  932MOL0     C25687   8.962  10.602  11.335  0.2586  0.5040  0.2910
  932MOL0     O25688   8.998  10.733  11.349  0.3319 -0.4817 -0.1468
  932MOL0     C25689   9.016  10.807  11.234 -0.3740 -1.2501 -0.6587
  932MOL0     C25690   9.120  10.790  11.142 -0.7349  0.5674 -0.4541
  932MOL0     C25691   9.120  10.867  11.028 -0.9429 -0.5790 -0.4628
  932MOL0     C25692   9.019  10.959  11.003 -0.1496  0.5172 -0.1104
  932MOL0     O25693   9.017  11.036  10.886  0.5621  0.2568 -0.2075
  932MOL0     C25694   9.071  10.975  10.768  0.2127  1.3972  1.1924
  932MOL0     C25695   9.021  11.054  10.651 -0.1969 -0.6842 -0.3354
  932MOL0     C25696   9.083  11.019  10.511  0.0071  0.4834 -0.1718
  932MOL0     C25697   9.201  10.928  10.522 -0.5419  0.3561  0.1060
  932MOL0     C25698   9.281  10.925  10.392 -0.4063  0.3265 -0.3937
  932MOL0     C25699   9.427  10.896  10.418  0.0634 -0.0314  0.8001
  932MOL0     C25700   9.503  10.980  10.510 -0.1593  0.0642  0.0616
  932MOL0     C25701   9.464  11.123  10.507 -0.2963 -0.5198  0.2106
  932MOL0     N25702   9.577  11.217  10.548 -0.1728  0.3272 -0.1177
  932MOL0     C25703   9.602  11.265  10.675 -1.0354  1.1712 -0.4601
  932MOL0     C25704   9.713  11.334  10.662 -0.3515 -0.2038 -0.2867
  932MOL0     C25705   9.786  11.408  10.769  0.0204  0.3609 -0.4101
  932MOL0     C25706   9.698  11.527  10.811  0.3781 -0.4317  0.6955
  932MOL0     C25707   9.785  11.607  10.902  0.0006  0.0957  0.1272
  932MOL0     C25708   9.684  11.714  10.952 -0.5886  0.4808 -0.1114
  932MOL0     O25709   9.650  11.807  10.846  1.0033  0.1229 -0.5596
  932MOL0     C25710   9.540  11.884  10.883 -0.3447 -0.0809  0.4357
  932MOL0     C25711   9.437  11.916  10.793 -0.7705 -0.3288 -0.1799
  932MOL0     C25712   9.330  12.000  10.822  0.1201 -0.3163  0.0973
  932MOL0     C25713   9.321  12.066  10.944 -0.6376  0.1551  0.1265
  932MOL0     C25714   9.205  12.146  10.992  0.2645 -0.6179  0.5158
  932MOL0     O25715   9.198  12.184  11.124 -1.0257 -0.5306  0.1393
  932MOL0     C25716   9.084  12.236  11.170  0.5361 -0.2679 -1.5703
  932MOL0     C25717   8.998  12.320  11.105  0.3719 -0.1607 -0.6269
  932MOL0     C25718   8.889  12.383  11.174 -0.0891  0.4718  0.9472
  932MOL0     C25719   8.865  12.356  11.310 -0.0498 -0.0505  0.0189
  932MOL0     O25720   8.764  12.408  11.385 -0.8603 -0.1391  0.2228
  932MOL0     C25721   8.689  12.515  11.336  0.0235 -0.2482  0.6644
  932MOL0     C25722   8.582  12.570  11.427 -0.1396 -0.0978 -0.4666
  932MOL0     C25723   8.628  12.606  11.572  0.5984  0.0223 -0.6457
  932MOL0     C25724   8.519  12.650  11.658 -0.8383  0.3012  0.1707
  932MOL0     C25725   8.547  12.687  11.801  0.3924 -1.4587  0.2923
  932MOL0     C25726   8.647  12.805  11.816 -1.1344  0.5943 -1.1585
  932MOL0     C25727   8.664  12.819  11.963 -0.3256 -0.7808  0.1329
  932MOL0     C25728   8.719  12.954  12.011  0.3091 -0.1968 -0.0296
  932MOL0    Cl25729   8.578  13.062  11.995 -0.4284  0.0005  0.1467
  932MOL0     C25730   8.950  12.264  11.377 -0.4861  0.0040 -0.1890
  932MOL0     C25731   9.060  12.217  11.311 -0.1238  0.2801  0.0573
  932MOL0     O25732   9.126  12.166  10.898  0.4131 -0.2406 -0.8723
  932MOL0     C25733   9.429  12.035  11.035  1.1916 -0.0557 -0.2176
  932MOL0     C25734   9.537  11.948  11.006  0.3942 -0.3531 -0.2393
  932MOL0     N25735   9.754  11.335  10.525  0.1872 -0.3964 -0.0681
  932MOL0     N25736   9.668  11.268  10.462  0.3652 -0.0474 -0.3959
  932MOL0     C25737   8.923  10.981  11.100 -0.3708 -0.2015  0.6009
  932MOL0     C25738   8.912  10.898  11.214 -0.0345  0.5686 -0.1145
  932MOL0     C25739   8.923  10.534  11.460  0.5542 -0.1908  0.8873
  932MOL0     C25740   8.907  10.620  11.573 -0.6029  0.6602 -0.2178
  932MOL0     C25741   8.869  10.570  11.692 -0.7273 -0.5882  0.7220
  932MOL0     C25742   8.845  10.436  11.707 -0.5316  1.1145  0.7105
  932MOL0     O25743   8.793  10.390  11.827 -0.2119  0.2348 -0.6556
  932MOL0     C25744   8.845  10.269  11.886  0.1142 -0.2852  0.2686
  932MOL0     C25745   8.981  10.317  11.955 -0.6944 -1.5331 -0.2071
  932MOL0     C25746   9.033  10.222  12.060 -0.6837 -0.6317  0.1617
  932MOL0     C25747   9.149  10.285  12.143 -0.3563  0.5680 -0.5272
  932MOL0     C25748   9.275  10.292  12.065  0.1004 -0.5663 -0.0461
  932MOL0     C25749   9.364  10.321  11.988 -0.0422 -0.1255  0.6272
  932MOL0     C25750   8.850  10.355  11.592  0.3115 -1.2903  0.0599
  932MOL0     C25751   8.886  10.401  11.470  1.0606  0.6882  0.3395
  932MOL0     C25752   8.887  10.305  11.347 -0.4239  0.0525 -0.6318
  932MOL0     H25753   9.203  10.720  11.142 -1.2218 -0.0129 -0.9675
  932MOL0     H25754   9.202  10.865  10.957 -1.2271  2.7719 -1.0606
  932MOL0     H25755   9.180  10.968  10.774  0.4255 -1.4819 -2.3529
  932MOL0     H25756   9.038  10.872  10.750  5.2143 -0.6792  1.9842
  932MOL0     H25757   9.048  11.160  10.656  0.0152 -0.5211 -3.3040
  932MOL0     H25758   8.912  11.047  10.648 -0.4116  1.4851  0.4207
  932MOL0     H25759   9.105  11.110  10.455  1.1899 -0.4183 -1.2293
  932MOL0     H25760   9.009  10.965  10.451 -3.2665  3.0688  1.1953
  932MOL0     H25761   9.267  10.962  10.603  1.0319 -1.7772 -0.2039
  932MOL0     H25762   9.169  10.824  10.534  1.7228 -0.7161 -2.2810
  932MOL0     H25763   9.238  10.854  10.321  2.7202 -1.2145 -0.8974
  932MOL0     H25764   9.274  11.022  10.342 -1.4912 -1.2026 -3.4592
  932MOL0     H25765   9.425  10.794  10.457  1.0589  0.4519  2.1954
  932MOL0     H25766   9.492  10.884  10.331  1.7827  4.7269  1.1382
  932MOL0     H25767   9.607  10.975  10.476 -0.4493 -1.5160 -0.7009
  932MOL0     H25768   9.498  10.954  10.616  1.1772  2.1456  0.6934
  932MOL0     H25769   9.425  11.156  10.410 -2.5449 -0.6662  1.0115
  932MOL0     H25770   9.379  11.131  10.575 -0.6121 -3.4717  0.2823
  932MOL0     H25771   9.550  11.247  10.769  0.0969 -1.6400 -0.2766
  932MOL0     H25772   9.818  11.346  10.853  2.3633  3.6212  1.3735
  932MOL0     H25773   9.874  11.456  10.725  0.7279 -0.0051  0.5840
  932MOL0     H25774   9.673  11.581  10.719  0.1367  0.9590  1.5426
  932MOL0     H25775   9.604  11.500  10.859  1.8657 -3.9715  2.0056
  932MOL0     H25776   9.873  11.645  10.851 -1.5308  1.7596 -1.4174
  932MOL0     H25777   9.818  11.552  10.990 -1.2358 -1.5911 -0.4065
  932MOL0     H25778   9.739  11.765  11.032  5.1711 -0.7507 -2.7153
  932MOL0     H25779   9.592  11.667  10.988 -1.8707  1.0564 -2.4711
  932MOL0     H25780   9.435  11.874  10.693 -0.0087 -3.1296  0.9029
  932MOL0     H25781   9.258  12.025  10.745 -0.7853 -1.4298  0.5557
  932MOL0     H25782   9.005  12.348  11.000  2.9370  1.3410 -0.1457
  932MOL0     H25783   8.816  12.446  11.125 -2.1527 -0.5649  2.5096
  932MOL0     H25784   8.758  12.598  11.322  1.2138 -1.1469  1.0805
  932MOL0     H25785   8.637  12.488  11.243 -2.5780 -0.5916  2.1274
  932MOL0     H25786   8.538  12.654  11.372 -2.0502 -0.1742  0.8604
  932MOL0     H25787   8.503  12.494  11.423  0.2983 -0.6185  0.4967
  932MOL0     H25788   8.673  12.520  11.621  2.5576  1.8158  0.9207
  932MOL0     H25789   8.709  12.680  11.569  3.0713 -2.2436  2.7209
  932MOL0     H25790   8.454  12.562  11.659 -0.1531 -0.2275  1.5487
  932MOL0     H25791   8.472  12.733  11.605 -0.5743  0.4834  0.2245
  932MOL0     H25792   8.592  12.601  11.851  2.1817 -0.3023  0.7529
  932MOL0     H25793   8.450  12.723  11.838  0.8195 -0.5561  0.5571
  932MOL0     H25794   8.739  12.782  11.762 -1.8930 -0.6006 -1.9773
  932MOL0     H25795   8.614  12.896  11.765 -0.2010  1.6066 -0.0204
  932MOL0     H25796   8.737  12.742  11.993  1.7665 -0.5038 -3.6589
  932MOL0     H25797   8.571  12.802  12.018 -2.1087  0.8948 -2.1722
  932MOL0     H25798   8.752  12.951  12.115 -2.4789  3.3759  1.1721
  932MOL0     H25799   8.801  12.986  11.947  0.6954  3.5742  2.0984
  932MOL0     H25800   8.938  12.247  11.483  0.7716  1.1901  0.1679
  932MOL0     H25801   9.130  12.156  11.366 -0.8586 -0.9470 -0.3155
  932MOL0     H25802   9.423  12.082  11.132 -1.6754 -0.1691 -0.2602
  932MOL0     H25803   9.616  11.936  11.079 -0.5992 -0.3702  0.8589
  932MOL0     H25804   8.863  11.068  11.076  1.5000  0.9542 -0.0639
  932MOL0     H25805   8.833  10.914  11.286  1.8791  1.4918  1.8966
  932MOL0     H25806   8.926  10.727  11.570 -0.6366  0.6779  0.2093
  932MOL0     H25807   8.862  10.642  11.774  1.3867 -0.0057  0.4364
  932MOL0     H25808   8.845  10.183  11.818 -1.7147 -0.6032  0.6353
  932MOL0     H25809   8.784  10.234  11.969 -1.4126 -0.3243 -0.8299
  932MOL0     H25810   8.963  10.410  12.009 -0.5148 -1.1901 -0.7310
  932MOL0     H25811   9.059  10.346  11.884  1.7985  1.5203  3.3698
  932MOL0     H25812   9.079  10.141  12.003  0.2747 -0.3925  0.5710
  932MOL0     H25813   8.953  10.186  12.126 -1.8497 -2.0229 -1.8929
  932MOL0     H25814   9.129  10.379  12.195  1.6897 -0.9902  3.4991
  932MOL0     H25815   9.168  10.215  12.224 -0.2825  0.9484 -0.2108
  932MOL0     H25816   9.435  10.357  11.915  2.4719 -0.3271  2.8152
  932MOL0     H25817   8.828  10.250  11.603 -0.4786 -1.5053 -2.8460
  932MOL0     H25818   8.990  10.303  11.312  0.8052  2.3897  2.3311
  932MOL0     H25819   8.855  10.204  11.374 -0.0638 -1.0718 -3.9918
  932MOL0     H25820   8.820  10.346  11.271  2.0206  1.8041 -1.9770
  933MOL0     O25821  11.047   1.994   6.016 -0.9666  0.0749  0.5949
  933MOL0     C25822  10.943   2.036   6.066  0.1024  0.0301  0.5704
  933MOL0     O25823  10.820   2.001   6.023  0.2065  0.2962 -0.7943
  933MOL0     C25824  10.809   1.910   5.923  0.3395 -0.1341  0.7898
  933MOL0     C25825  10.825   1.938   5.788  0.5220  0.2413  1.0240
  933MOL0     C25826  10.826   1.831   5.697 -0.4121 -0.0988  0.5981
  933MOL0     C25827  10.792   1.705   5.736  0.1953  0.5020  0.2588
  933MOL0     O25828  10.807   1.632   5.621 -0.0798 -0.6128  0.3224
  933MOL0     C25829  10.766   1.492   5.627  1.0867  0.4163 -0.2779
  933MOL0     C25830  10.877   1.410   5.688 -0.0911  0.0978  0.0921
  933MOL0     C25831  10.847   1.253   5.660  0.6880  0.4778 -1.0609
  933MOL0     C25832  10.972   1.176   5.705 -0.2858 -0.0563 -1.3924
  933MOL0     C25833  10.945   1.027   5.717 -0.5157 -0.6430  0.5898
  933MOL0     C25834  11.070   0.935   5.715 -0.0709 -0.3082 -0.4864
  933MOL0     C25835  11.045   0.787   5.687 -0.2351 -0.5765  0.0574
  933MOL0     C25836  10.940   0.722   5.766 -0.1423 -0.7934  1.2997
  933MOL0     N25837  10.919   0.580   5.729  0.3279  0.5477  1.0138
  933MOL0     C25838  10.884   0.523   5.610  0.3353 -0.3708  0.9716
  933MOL0     C25839  10.863   0.392   5.634 -0.1208  0.2388 -0.7935
  933MOL0     C25840  10.800   0.304   5.536 -0.7113  0.5977 -0.3284
  933MOL0     C25841  10.642   0.288   5.554  0.1984 -0.4710  0.5054
  933MOL0     C25842  10.606   0.231   5.685 -0.0131  0.1205  0.2869
  933MOL0     C25843  10.465   0.174   5.679  0.0988 -0.1306  0.0084
  933MOL0     O25844  10.377   0.288   5.687  0.0180 -0.3558  0.4329
  933MOL0     C25845  10.344   0.348   5.802 -0.6710  0.1386 -0.2212
  933MOL0     C25846  10.289   0.482   5.796  0.3267  0.0314  0.2487
  933MOL0     C25847  10.259   0.543   5.918  0.6164 -0.2396  0.2446
  933MOL0     C25848  10.286   0.481   6.039 -0.1342  0.3608  0.3740
  933MOL0     C25849  10.267   0.559   6.164  0.7898 -0.1044 -0.0488
  933MOL0     O25850  10.226   0.692   6.151  0.1930 -0.4386  0.3899
  933MOL0     C25851  10.234   0.776   6.259  0.0927  0.2597  0.0744
  933MOL0     C25852  10.157   0.893   6.260 -0.1206 -0.9868  0.4854
  933MOL0     C25853  10.145   0.973   6.377 -0.0268 -0.1862  0.4029
  933MOL0     C25854  10.220   0.947   6.497 -0.6948  0.1508  0.7496
  933MOL0     O25855  10.215   1.035   6.602  1.0361  0.4401 -0.8688
  933MOL0     C25856  10.252   1.164   6.562 -0.3025 -0.2935 -0.8075
  933MOL0     C25857  10.343   1.209   6.678 -0.1606  0.0870 -0.4613
  933MOL0     C25858  10.497   1.176   6.637 -0.5019  0.4493 -1.1926
  933MOL0     C25859  10.588   1.205   6.758  0.0039  0.0632 -0.3277
  933MOL0     C25860  10.737   1.179   6.739  0.3388  0.4721  0.1990
  933MOL0     C25861  10.805   1.289   6.653 -0.7096 -0.4208 -0.1708
  933MOL0     C25862  10.960   1.270   6.621  0.9521 -0.9853 -0.6182
  933MOL0     C25863  11.047   1.246   6.732 -0.5405  0.8758  0.5123
  933MOL0    Cl25864  11.215   1.182   6.681 -0.8394 -0.5069  0.0596
  933MOL0     C25865  10.308   0.841   6.483  0.4093 -0.3508 -0.7481
  933MOL0     C25866  10.308   0.756   6.375 -0.0157  1.0407  0.3002
  933MOL0     O25867  10.276   0.484   6.264 -0.6068  0.0146 -0.5778
  933MOL0     C25868  10.348   0.356   6.043 -0.2172  0.2297 -0.0976
  933MOL0     C25869  10.362   0.287   5.924  0.3245  0.7698  0.6157
  933MOL0     N25870  10.897   0.367   5.769  0.2503  0.1462  0.0454
  933MOL0     N25871  10.941   0.474   5.816  0.3554 -0.8925 -0.3481
  933MOL0     C25872  10.762   1.674   5.874  1.2864  0.5136 -0.0313
  933MOL0     C25873  10.775   1.782   5.972 -0.1403 -0.4415 -0.4022
  933MOL0     C25874  10.960   2.136   6.173 -0.0617 -0.0208 -0.6570
  933MOL0     C25875  11.068   2.119   6.261 -0.1831 -0.0799  0.4721
  933MOL0     C25876  11.094   2.204   6.360  0.4850  0.4579 -0.2351
  933MOL0     C25877  11.013   2.309   6.381  0.7685 -0.0868 -0.0944
  933MOL0     O25878  11.029   2.363   6.507 -1.0451 -0.4765  0.3758
  933MOL0     C25879  10.951   2.468   6.567 -0.4682 -0.0305 -0.2149
  933MOL0     C25880  11.031   2.599   6.528 -0.6828  0.2452  0.2151
  933MOL0     C25881  11.179   2.604   6.564  0.8119  0.3887 -1.0220
  933MOL0     C25882  11.277   2.557   6.453 -0.0021  0.2635  0.0846
  933MOL0     C25883  11.276   2.646   6.337 -0.2006  0.2720  0.0514
  933MOL0     C25884  11.277   2.727   6.250 -0.4608 -0.6989 -0.2177
  933MOL0     C25885  10.912   2.332   6.287  0.8147 -0.3579  0.5581
  933MOL0     C25886  10.881   2.255   6.182 -0.1058  1.0851 -0.2500
  933MOL0     C25887  10.765   2.281   6.086 -0.2730  0.4555  0.6262
  933MOL0     H25888  10.856   2.037   5.756 -2.6946  1.8638  2.4207
  933MOL0     H25889  10.854   1.855   5.595  0.6980  0.8324  1.0994
  933MOL0     H25890  10.673   1.485   5.684 -0.1966 -1.2183 -2.4211
  933MOL0     H25891  10.751   1.448   5.527  0.8275 -0.6554  0.2162
  933MOL0     H25892  10.892   1.426   5.795  0.1843 -0.8920  0.2104
  933MOL0     H25893  10.968   1.444   5.638  0.6692 -2.4630 -0.3890
  933MOL0     H25894  10.823   1.236   5.554 -3.1474 -2.6440  0.0728
  933MOL0     H25895  10.758   1.222   5.715  1.7586 -2.1101 -0.6466
  933MOL0     H25896  11.051   1.193   5.631 -1.9343  1.7638 -2.8354
  933MOL0     H25897  11.003   1.210   5.804  0.0675  2.2298 -2.2193
  933MOL0     H25898  10.900   1.021   5.816 -0.1743  1.0664  0.8824
  933MOL0     H25899  10.871   0.996   5.642 -2.9042  2.1102  1.6198
  933MOL0     H25900  11.132   0.959   5.628  4.5698 -3.3914  1.6048
  933MOL0     H25901  11.123   0.947   5.810 -0.1476  0.0840 -0.4932
  933MOL0     H25902  11.140   0.734   5.699  0.0544  0.1395  1.0506
  933MOL0     H25903  11.017   0.777   5.582 -0.1123 -2.4463  0.1633
  933MOL0     H25904  10.953   0.731   5.874 -2.0647  0.5078  1.4826
  933MOL0     H25905  10.845   0.774   5.750  1.1607  1.8687  1.6666
  933MOL0     H25906  10.872   0.584   5.521  0.3398 -1.2309  0.3724
  933MOL0     H25907  10.802   0.340   5.433 -3.1868 -0.4789 -0.8125
  933MOL0     H25908  10.850   0.208   5.547 -0.3110  0.8005 -0.3249
  933MOL0     H25909  10.592   0.383   5.533  3.1174  1.2866  0.9729
  933MOL0     H25910  10.617   0.224   5.468  0.5313  2.5621 -2.0650
  933MOL0     H25911  10.612   0.303   5.767  0.2473  1.9200 -1.2535
  933MOL0     H25912  10.670   0.145   5.709 -0.7639 -0.0568  1.8083
  933MOL0     H25913  10.438   0.094   5.748 -0.3083 -1.2158 -1.3645
  933MOL0     H25914  10.448   0.126   5.582  0.1685  1.0840 -0.6265
  933MOL0     H25915  10.276   0.532   5.700 -1.2928 -3.0255 -1.2723
  933MOL0     H25916  10.216   0.643   5.925 -2.1087 -1.4401  2.5799
  933MOL0     H25917  10.096   0.909   6.171  1.3022 -1.9688 -0.7061
  933MOL0     H25918  10.076   1.056   6.379 -1.0928 -1.0726  1.1654
  933MOL0     H25919  10.320   1.159   6.476 -0.1027 -0.6616 -0.6288
  933MOL0     H25920  10.166   1.231   6.555  0.3588  0.8737  1.2745
  933MOL0     H25921  10.338   1.317   6.693  1.4165  0.1090  0.1909
  933MOL0     H25922  10.309   1.174   6.775 -1.9073  0.7420 -0.7975
  933MOL0     H25923  10.509   1.070   6.614  2.4767  0.8647 -1.9669
  933MOL0     H25924  10.530   1.221   6.544 -0.2997 -1.8415 -2.2895
  933MOL0     H25925  10.558   1.158   6.852  1.7721 -2.3639 -0.9048
  933MOL0     H25926  10.585   1.313   6.777 -0.5009  0.3671 -1.9238
  933MOL0     H25927  10.743   1.074   6.706 -0.6639  0.0898  1.1900
  933MOL0     H25928  10.796   1.189   6.831  1.6071  1.9573 -0.7140
  933MOL0     H25929  10.760   1.301   6.554  0.8077 -0.2284 -0.8682
  933MOL0     H25930  10.787   1.383   6.705 -4.3353  0.1688 -2.1529
  933MOL0     H25931  10.998   1.360   6.572 -2.6983  0.4072 -1.1639
  933MOL0     H25932  10.974   1.200   6.538  0.5797  1.7821 -3.1552
  933MOL0     H25933  11.054   1.331   6.800 -0.3314  0.1985  1.3632
  933MOL0     H25934  11.003   1.164   6.789 -3.1113  0.7428 -1.4998
  933MOL0     H25935  10.373   0.829   6.569 -1.6448  1.1173  1.1205
  933MOL0     H25936  10.384   0.680   6.365 -2.8048 -1.6707 -3.7178
  933MOL0     H25937  10.375   0.291   6.125 -2.7924  0.8893  1.3713
  933MOL0     H25938  10.387   0.183   5.943  0.9222  0.8482  0.2809
  933MOL0     H25939  10.744   1.573   5.907  0.0343  1.0481  0.9820
  933MOL0     H25940  10.759   1.759   6.077  2.0791  1.0045  0.3336
  933MOL0     H25941  11.142   2.040   6.251 -0.3057  0.0141 -1.6972
  933MOL0     H25942  11.173   2.173   6.428 -0.6414 -0.0225  0.8861
  933MOL0     H25943  10.954   2.464   6.676  1.5765  1.2941 -0.1631
  933MOL0     H25944  10.851   2.479   6.525  0.0623  1.5907 -1.1547
  933MOL0     H25945  10.990   2.693   6.566  2.5547  1.0531  2.1693
  933MOL0     H25946  11.027   2.609   6.420  2.0680  2.4054  0.2056
  933MOL0     H25947  11.197   2.555   6.660 -1.2450  0.7724 -0.3965
  933MOL0     H25948  11.208   2.703   6.601  2.4090 -0.5886  0.4894
  933MOL0     H25949  11.374   2.562   6.502 -0.6346 -2.1683  1.8071
  933MOL0     H25950  11.264   2.453   6.420  2.6994 -1.1342  2.9424
  933MOL0     H25951  11.290   2.800   6.173  1.0376 -0.0230  0.6361
  933MOL0     H25952  10.853   2.423   6.297  1.3972  0.2161 -0.9787
  933MOL0     H25953  10.679   2.215   6.103  0.4698 -0.5399  0.5924
  933MOL0     H25954  10.722   2.380   6.106  2.0265  1.3538  1.4265
  933MOL0     H25955  10.793   2.278   5.981  1.6745  2.7856  0.9872
  934MOL0     O25956   0.588   1.527   6.783  0.3460  0.3382  0.3922
  934MOL0     C25957   0.654   1.636   6.768  0.6976 -0.4128  0.7760
  934MOL0     O25958   0.730   1.691   6.872  0.3792 -0.3366 -0.3434
  934MOL0     C25959   0.750   1.601   6.974 -0.1230 -0.3242 -0.5230
  934MOL0     C25960   0.881   1.570   6.999  0.3799 -0.3828 -0.8618
  934MOL0     C25961   0.908   1.504   7.113 -0.2632  0.2470 -0.2812
  934MOL0     C25962   0.818   1.464   7.213  0.6301  0.2052 -0.7234
  934MOL0     O25963   0.849   1.399   7.328 -0.2396  0.0718  0.3969
  934MOL0     C25964   0.957   1.305   7.319  0.6701  0.2592  0.4499
  934MOL0     C25965   0.927   1.184   7.407 -0.1948 -1.1285  0.7996
  934MOL0     C25966   0.797   1.125   7.345 -0.3006  0.6675 -0.8543
  934MOL0     C25967   0.752   1.019   7.437  0.3645 -0.7580  0.3951
  934MOL0     C25968   0.621   0.950   7.381 -1.1999 -0.0337  0.1026
  934MOL0     C25969   0.601   0.805   7.455  0.1108 -0.1572  1.3437
  934MOL0     C25970   0.571   0.817   7.604 -0.5817  0.5037 -0.8504
  934MOL0     C25971   0.594   0.684   7.674  0.6497 -0.5256  0.3433
  934MOL0     N25972   0.578   0.689   7.826 -0.3792 -0.2892  0.6140
  934MOL0     C25973   0.470   0.728   7.901  0.1444  0.3378  0.1129
  934MOL0     C25974   0.501   0.707   8.023 -0.4905  0.0745 -0.6464
  934MOL0     C25975   0.403   0.720   8.141 -0.0776  0.5470  0.0576
  934MOL0     C25976   0.479   0.685   8.270 -0.2205  0.1427  0.3139
  934MOL0     C25977   0.394   0.659   8.394  0.3306  0.0087  0.3166
  934MOL0     C25978   0.465   0.643   8.524  0.3224  0.5923  0.2854
  934MOL0     O25979   0.373   0.614   8.623  0.2084 -0.1305  0.4359
  934MOL0     C25980   0.350   0.485   8.675 -0.6014 -0.7630 -0.4814
  934MOL0     C25981   0.232   0.455   8.749  0.1501  0.2329 -0.7712
  934MOL0     C25982   0.198   0.323   8.779 -0.4498  0.0671  0.1959
  934MOL0     C25983   0.284   0.221   8.738  0.3133 -0.3683  0.2361
  934MOL0     C25984   0.253   0.078   8.777  1.3187 -0.6573  0.5554
  934MOL0     O25985   0.358  -0.008   8.781 -0.8918  0.3475 -0.1065
  934MOL0     C25986   0.350  -0.129   8.848 -0.0918 -0.7991 -0.3424
  934MOL0     C25987   0.237  -0.218   8.854 -0.5648  0.4902  0.6529
  934MOL0     C25988   0.242  -0.336   8.930 -0.0839 -0.5166 -0.4799
  934MOL0     C25989   0.366  -0.380   8.996  0.0076 -0.5351 -1.0990
  934MOL0     O25990   0.390  -0.503   9.059 -0.0305  0.4079  0.8902
  934MOL0     C25991   0.270  -0.571   9.109 -0.2715 -0.8845 -0.7302
  934MOL0     C25992   0.320  -0.683   9.201  0.0043 -0.7316 -0.7689
  934MOL0     C25993   0.430  -0.772   9.134 -1.0081  0.2505  0.6590
  934MOL0     C25994   0.388  -0.922   9.128 -0.3190 -0.1492  0.1758
  934MOL0     C25995   0.501  -0.998   9.052  0.5017  1.8169  0.3409
  934MOL0     C25996   0.569  -1.100   9.136  0.3280 -0.2903 -0.1005
  934MOL0     C25997   0.684  -1.162   9.048 -0.4770  0.5915  0.3084
  934MOL0     C25998   0.782  -1.261   9.119 -0.9016 -1.3651 -0.1637
  934MOL0    Cl25999   0.925  -1.311   9.021  0.3198  0.2645 -0.4649
  934MOL0     C26000   0.479  -0.297   8.978  0.7833 -0.0609 -0.0627
  934MOL0     C26001   0.465  -0.167   8.918 -0.9350 -0.7320  0.7915
  934MOL0     O26002   0.137   0.055   8.806 -0.6560  0.2534 -0.2285
  934MOL0     C26003   0.406   0.256   8.674  1.2296 -0.1339  0.5709
  934MOL0     C26004   0.435   0.384   8.642 -0.9999  1.0226 -0.9250
  934MOL0     N26005   0.634   0.680   8.026  0.6520  0.4464 -0.4046
  934MOL0     N26006   0.680   0.649   7.912  0.7387  0.1183 -0.0249
  934MOL0     C26007   0.680   1.504   7.190 -0.6888  0.3944  0.2784
  934MOL0     C26008   0.651   1.568   7.062  0.7987  0.6518 -0.1760
  934MOL0     C26009   0.659   1.700   6.633 -0.0893 -0.7190  0.6824
  934MOL0     C26010   0.596   1.825   6.614  0.2898  0.3644 -0.1726
  934MOL0     C26011   0.563   1.874   6.494  0.5967  0.6825  0.7614
  934MOL0     C26012   0.593   1.806   6.373 -0.4941 -0.4295 -0.8361
  934MOL0     O26013   0.581   1.852   6.242 -0.3449  0.6827  0.6471
  934MOL0     C26014   0.592   1.993   6.217 -0.0944  0.4029 -0.2832
  934MOL0     C26015   0.737   2.044   6.239 -0.4141  0.5028  0.2358
  934MOL0     C26016   0.746   2.186   6.290  0.1654 -0.0077 -0.3901
  934MOL0     C26017   0.885   2.245   6.280  0.6430 -0.5771 -0.3685
  934MOL0     C26018   0.917   2.277   6.139 -0.1681 -0.3883 -0.4546
  934MOL0     C26019   0.932   2.310   6.022  0.5573 -0.2267 -0.0625
  934MOL0     C26020   0.655   1.685   6.390  0.1622  0.6043 -0.2140
  934MOL0     C26021   0.696   1.628   6.511 -0.1968 -0.9068  0.1263
  934MOL0     C26022   0.761   1.495   6.511  0.7388  0.4793 -0.3028
  934MOL0     H26023   0.966   1.599   6.938  0.4670 -0.8327 -0.9614
  934MOL0     H26024   1.014   1.484   7.126 -0.0918  0.7669 -0.8132
  934MOL0     H26025   0.962   1.266   7.217 -0.5757  3.0114 -0.7668
  934MOL0     H26026   1.043   1.361   7.359  0.9700 -0.8915  1.4764
  934MOL0     H26027   0.898   1.214   7.508  0.2487 -1.1546  0.9380
  934MOL0     H26028   1.020   1.128   7.422  1.6301  1.9159  1.7919
  934MOL0     H26029   0.816   1.076   7.249  0.8102 -3.5325  1.2609
  934MOL0     H26030   0.726   1.207   7.328 -2.5377 -0.7214  1.1721
  934MOL0     H26031   0.835   0.948   7.441  1.2821  0.3296  0.9166
  934MOL0     H26032   0.739   1.054   7.539 -0.0481 -0.1798  0.1506
  934MOL0     H26033   0.540   1.023   7.381 -0.2732  1.0327  1.3256
  934MOL0     H26034   0.637   0.928   7.275 -1.1701  2.8886 -0.5724
  934MOL0     H26035   0.523   0.747   7.404  2.0958 -0.2046 -1.9619
  934MOL0     H26036   0.694   0.748   7.440  0.4762  0.7537  0.0506
  934MOL0     H26037   0.465   0.839   7.624 -1.5221 -2.8910 -1.3910
  934MOL0     H26038   0.635   0.897   7.642  2.0178 -1.3942 -0.9878
  934MOL0     H26039   0.511   0.619   7.647  2.2534 -1.5199 -2.6074
  934MOL0     H26040   0.689   0.637   7.647  1.1114  1.1359 -1.0844
  934MOL0     H26041   0.371   0.759   7.869  0.1662 -0.1163 -0.4203
  934MOL0     H26042   0.359   0.820   8.146  0.0631  0.6465 -0.5308
  934MOL0     H26043   0.320   0.650   8.128 -2.6951  3.3622  0.2827
  934MOL0     H26044   0.543   0.598   8.256  0.9291  1.2759 -2.0196
  934MOL0     H26045   0.549   0.764   8.299 -0.0413  1.2884 -2.8152
  934MOL0     H26046   0.344   0.564   8.373  2.4624 -0.7178 -2.1179
  934MOL0     H26047   0.315   0.733   8.407  2.1732  2.7681 -2.6681
  934MOL0     H26048   0.519   0.731   8.561  0.4353  0.3845  0.6229
  934MOL0     H26049   0.550   0.576   8.512  0.3228  0.4071  1.2249
  934MOL0     H26050   0.169   0.533   8.791  0.0322  2.0648 -4.0632
  934MOL0     H26051   0.113   0.312   8.846  1.9267 -2.7159  3.0500
  934MOL0     H26052   0.153  -0.204   8.787  0.0883 -2.8363 -1.1061
  934MOL0     H26053   0.146  -0.384   8.945  0.5527 -1.4349  0.8176
  934MOL0     H26054   0.208  -0.504   9.170 -2.8389 -1.4220 -2.6071
  934MOL0     H26055   0.214  -0.616   9.027  3.2621 -2.4334 -2.5314
  934MOL0     H26056   0.368  -0.630   9.284  0.3623 -0.3213 -1.2296
  934MOL0     H26057   0.249  -0.756   9.239 -0.0619 -0.2210  0.1376
  934MOL0     H26058   0.480  -0.737   9.043 -0.7817 -0.5361  0.4727
  934MOL0     H26059   0.511  -0.775   9.207 -1.2164 -0.2377  0.8707
  934MOL0     H26060   0.295  -0.927   9.070  1.0764  1.5152 -2.4277
  934MOL0     H26061   0.376  -0.974   9.224  3.1674 -3.5193 -0.9657
  934MOL0     H26062   0.582  -0.931   9.020 -1.1456  2.8789 -1.9633
  934MOL0     H26063   0.461  -1.046   8.962 -0.1514  1.7535  0.6583
  934MOL0     H26064   0.634  -1.063   9.216  0.1387 -1.3531  0.5610
  934MOL0     H26065   0.504  -1.183   9.163  0.1103 -1.2979 -3.3254
  934MOL0     H26066   0.746  -1.079   9.012 -1.1865  2.3399  2.8334
  934MOL0     H26067   0.636  -1.200   8.958 -0.8961  1.2919  0.2251
  934MOL0     H26068   0.815  -1.210   9.210 -2.1333  1.4033 -1.1536
  934MOL0     H26069   0.727  -1.347   9.158 -3.8658  0.9825  1.2296
  934MOL0     H26070   0.573  -0.342   9.008 -0.2719 -2.6549 -0.3930
  934MOL0     H26071   0.550  -0.099   8.924 -0.8249 -1.0061  3.4072
  934MOL0     H26072   0.470   0.177   8.637  1.1735 -0.8478  1.9384
  934MOL0     H26073   0.523   0.403   8.580 -0.8163  2.0151 -0.3868
  934MOL0     H26074   0.596   1.491   7.257 -0.9264  1.3159  0.1704
  934MOL0     H26075   0.548   1.584   7.032  0.5620 -1.3810 -0.5696
  934MOL0     H26076   0.566   1.894   6.693  2.2494  1.0125  0.0407
  934MOL0     H26077   0.502   1.964   6.491  0.5189  0.6122  0.0259
  934MOL0     H26078   0.512   2.042   6.273  0.7208  0.1510  1.1483
  934MOL0     H26079   0.562   2.015   6.114 -1.4946 -0.8582 -0.1681
  934MOL0     H26080   0.790   2.036   6.143  0.9167 -1.7822  1.0531
  934MOL0     H26081   0.791   1.976   6.307  1.1869  0.4667 -1.0026
  934MOL0     H26082   0.702   2.190   6.390  1.3791  0.8803  0.1356
  934MOL0     H26083   0.685   2.252   6.227  0.7475  2.8784  1.8535
  934MOL0     H26084   0.878   2.337   6.339  1.7520 -0.1751 -0.8398
  934MOL0     H26085   0.971   2.196   6.327  0.0673 -0.1358  1.2210
  934MOL0     H26086   0.951   2.348   5.924 -1.9346  0.5368 -0.3394
  934MOL0     H26087   0.685   1.624   6.305 -2.8039 -0.1113 -0.8778
  934MOL0     H26088   0.744   1.441   6.605 -3.1057  0.2092 -1.0081
  934MOL0     H26089   0.712   1.434   6.435  2.7910  0.5001 -1.7098
  934MOL0     H26090   0.866   1.511   6.485  0.3164  0.7402 -1.9106
  935MOL0     O26091   4.449   2.958  10.907  0.6498 -0.1274  0.0107
  935MOL0     C26092   4.480   2.972  11.028  0.3115  0.4328  0.0801
  935MOL0     O26093   4.470   3.095  11.100 -0.2363  1.0108  0.6115
  935MOL0     C26094   4.405   3.202  11.045  0.3235  0.1718  0.1834
  935MOL0     C26095   4.271   3.185  11.008 -0.3526 -0.3766 -0.5814
  935MOL0     C26096   4.196   3.292  10.962 -0.2841  1.2671  0.4139
  935MOL0     C26097   4.263   3.418  10.946  0.4190 -0.5535 -0.1134
  935MOL0     O26098   4.215   3.533  10.906 -0.2811  0.2067  0.0680
  935MOL0     C26099   4.084   3.575  10.952  0.8182  0.2311 -0.6812
  935MOL0     C26100   4.073   3.565  11.097 -0.3162  0.2702 -0.2504
  935MOL0     C26101   3.925   3.604  11.131 -0.9021 -0.0009  0.3439
  935MOL0     C26102   3.827   3.490  11.101 -0.6181  1.1324 -1.4332
  935MOL0     C26103   3.681   3.537  11.110  0.2880  0.3267 -0.0047
  935MOL0     C26104   3.595   3.421  11.166  0.6925 -0.5915 -0.2628
  935MOL0     C26105   3.451   3.450  11.181  1.4321  0.5410 -0.6851
  935MOL0     C26106   3.385   3.487  11.050 -1.0128  1.0760  0.4452
  935MOL0     N26107   3.244   3.505  11.064  0.5102  0.1894 -0.7559
  935MOL0     C26108   3.149   3.427  10.989 -1.1618 -0.2085 -0.6181
  935MOL0     C26109   3.025   3.479  11.002 -0.6653 -0.9226 -0.0078
  935MOL0     C26110   2.894   3.444  10.938 -0.0970  0.7340 -0.3547
  935MOL0     C26111   2.840   3.554  10.847 -0.2112 -0.1160  1.0583
  935MOL0     C26112   2.875   3.530  10.700  0.7866 -0.2768  0.3005
  935MOL0     C26113   2.850   3.652  10.603  0.5686 -0.3952 -0.4928
  935MOL0     O26114   2.894   3.766  10.676  0.3224  0.1909 -0.4518
  935MOL0     C26115   2.949   3.884  10.628  0.2313 -0.3355  0.2553
  935MOL0     C26116   2.948   4.008  10.702  0.5484 -0.7086 -0.4900
  935MOL0     C26117   3.010   4.124  10.653 -0.4384 -0.1538  0.5656
  935MOL0     C26118   3.083   4.112  10.535  0.5514  0.9514  0.1428
  935MOL0     C26119   3.144   4.235  10.480  0.4363  0.1673  0.6635
  935MOL0     O26120   3.157   4.337  10.573  0.2519  0.0887 -0.4955
  935MOL0     C26121   3.166   4.468  10.532  1.1580  0.6074 -0.1703
  935MOL0     C26122   3.157   4.517  10.407  0.7460 -0.0558 -0.0879
  935MOL0     C26123   3.169   4.651  10.369  0.7040 -0.0825 -0.0278
  935MOL0     C26124   3.174   4.746  10.472 -0.0501  0.3234 -0.9191
  935MOL0     O26125   3.164   4.879  10.436 -0.3889 -0.0975 -0.2519
  935MOL0     C26126   3.190   4.983  10.531 -0.0407  0.5121 -0.4306
  935MOL0     C26127   3.337   4.973  10.589 -0.2907  0.2583 -1.4575
  935MOL0     C26128   3.446   4.924  10.486  0.4708 -0.2870  1.0734
  935MOL0     C26129   3.580   4.887  10.556 -0.9762 -0.2498 -1.3040
  935MOL0     C26130   3.565   4.736  10.590 -0.6450  0.5310 -0.8578
  935MOL0     C26131   3.699   4.670  10.553 -0.5671  0.2746 -0.6828
  935MOL0     C26132   3.705   4.605  10.409 -0.1605  0.9272  0.1305
  935MOL0     C26133   3.823   4.502  10.386  0.2374 -0.0574 -0.2915
  935MOL0    Cl26134   3.970   4.597  10.428 -0.2946 -0.1353  0.3977
  935MOL0     C26135   3.183   4.689  10.605 -0.0802 -0.2431 -0.4891
  935MOL0     C26136   3.183   4.553  10.633  0.2784 -0.7882  1.2380
  935MOL0     O26137   3.175   4.234  10.360 -0.2009 -0.1084  0.0262
  935MOL0     C26138   3.084   3.988  10.465 -0.2128  0.0906 -0.0737
  935MOL0     C26139   3.022   3.877  10.515 -0.0495  0.0280  0.0639
  935MOL0     N26140   3.043   3.587  11.089 -0.1009  0.0718 -0.8427
  935MOL0     N26141   3.170   3.608  11.113 -0.2235  0.1249 -0.1645
  935MOL0     C26142   4.401   3.425  10.962  0.9059  0.0448 -0.2783
  935MOL0     C26143   4.469   3.322  11.027 -0.2970 -0.7412  0.0741
  935MOL0     C26144   4.532   2.855  11.102  0.1606  0.2331  0.7612
  935MOL0     C26145   4.485   2.726  11.075 -0.0878 -0.0390 -0.5161
  935MOL0     C26146   4.539   2.608  11.129  0.4316 -0.0902 -0.8551
  935MOL0     C26147   4.623   2.629  11.238 -0.9477 -1.6298  0.2764
  935MOL0     O26148   4.673   2.530  11.305  0.1963  1.1587 -0.7384
  935MOL0     C26149   4.590   2.493  11.415  0.3982 -0.6681  0.0518
  935MOL0     C26150   4.543   2.343  11.389  0.2899  0.9354 -0.3592
  935MOL0     C26151   4.443   2.294  11.488 -0.7403 -0.4213  0.2251
  935MOL0     C26152   4.411   2.142  11.484 -0.6727 -0.4043 -0.7670
  935MOL0     C26153   4.496   2.066  11.566 -1.0165 -0.3228 -0.2174
  935MOL0     C26154   4.550   1.982  11.641  0.2205 -0.1313  0.4459
  935MOL0     C26155   4.653   2.760  11.282 -0.5883 -0.2874  0.7890
  935MOL0     C26156   4.616   2.873  11.212  0.9012 -0.4405  0.9641
  935MOL0     C26157   4.687   2.996  11.243  0.2041 -0.4838 -1.0626
  935MOL0     H26158   4.232   3.086  11.032  0.4900 -0.4475  0.5771
  935MOL0     H26159   4.094   3.269  10.932  0.2442 -1.8566  0.7301
  935MOL0     H26160   4.066   3.676  10.917 -1.0956  0.3001  0.3553
  935MOL0     H26161   4.019   3.501  10.906 -1.5122  0.8874  1.3525
  935MOL0     H26162   4.143   3.621  11.160 -2.6332  0.7612  2.1085
  935MOL0     H26163   4.089   3.460  11.125 -1.5943 -0.6485 -2.6429
  935MOL0     H26164   3.894   3.695  11.079 -1.5827 -0.6364 -0.4221
  935MOL0     H26165   3.924   3.635  11.236  2.1163  1.4604  0.0417
  935MOL0     H26166   3.839   3.435  11.007  3.4564 -4.4249  1.7233
  935MOL0     H26167   3.844   3.419  11.183 -3.5811  1.3572 -0.4986
  935MOL0     H26168   3.677   3.630  11.169 -0.8130 -0.0190  0.4876
  935MOL0     H26169   3.646   3.556  11.008 -1.0064  2.1247  0.7216
  935MOL0     H26170   3.607   3.337  11.097  2.4817  0.5335 -1.4214
  935MOL0     H26171   3.630   3.397  11.266 -0.2566  1.5944  0.6587
  935MOL0     H26172   3.431   3.535  11.246 -1.5896  0.3036 -1.1413
  935MOL0     H26173   3.408   3.358  11.223 -0.4110  0.6155 -2.2495
  935MOL0     H26174   3.415   3.586  11.016  1.3705  0.2009 -0.2066
  935MOL0     H26175   3.407   3.407  10.978 -0.9751  0.9806  0.5623
  935MOL0     H26176   3.171   3.331  10.944 -2.7783 -1.6499  1.4414
  935MOL0     H26177   2.911   3.343  10.899  0.3192  0.0780  1.4120
  935MOL0     H26178   2.819   3.421  11.014 -1.3378  0.0956 -1.7363
  935MOL0     H26179   2.731   3.558  10.852 -0.2964  0.4572 -0.7280
  935MOL0     H26180   2.884   3.651  10.874  1.0798 -0.6377  0.9069
  935MOL0     H26181   2.805   3.454  10.663  2.0096 -1.8334  1.0453
  935MOL0     H26182   2.972   3.482  10.690 -0.0506 -2.2836  1.1347
  935MOL0     H26183   2.741   3.661  10.591  0.7535  2.7252 -0.6351
  935MOL0     H26184   2.891   3.642  10.503 -0.2934  1.6268 -1.0915
  935MOL0     H26185   2.881   4.018  10.787 -0.1495 -0.9511 -1.0000
  935MOL0     H26186   3.008   4.211  10.718 -1.7311 -0.4655  0.9755
  935MOL0     H26187   3.145   4.462  10.314 -4.0054  1.1061 -0.3910
  935MOL0     H26188   3.150   4.673  10.265 -1.5882  0.1116  0.3742
  935MOL0     H26189   3.198   5.071  10.465  1.8178  0.4335 -0.3338
  935MOL0     H26190   3.111   4.989  10.606  1.0949  0.2929  0.8087
  935MOL0     H26191   3.366   5.068  10.635  0.9563 -0.9294  0.3569
  935MOL0     H26192   3.335   4.909  10.678 -1.4011  2.1520 -0.0646
  935MOL0     H26193   3.406   4.847  10.419 -0.8761  1.3312 -0.0726
  935MOL0     H26194   3.469   5.005  10.417  3.0778 -1.3307  0.5951
  935MOL0     H26195   3.601   4.939  10.650 -1.7250 -1.9088 -0.1766
  935MOL0     H26196   3.666   4.914  10.495 -0.3082 -0.1765 -0.3607
  935MOL0     H26197   3.495   4.671  10.537  0.2203 -3.2667  2.1881
  935MOL0     H26198   3.560   4.716  10.697  1.4965  0.5154 -0.7110
  935MOL0     H26199   3.783   4.737  10.572 -1.0810  0.6667  0.2652
  935MOL0     H26200   3.716   4.589  10.625 -0.8508 -0.5507 -1.5347
  935MOL0     H26201   3.705   4.684  10.334  3.7431  2.8204  1.8476
  935MOL0     H26202   3.618   4.541  10.390  1.0300 -1.7055  2.7499
  935MOL0     H26203   3.813   4.412  10.447  2.3620  0.7732  1.4517
  935MOL0     H26204   3.838   4.474  10.282 -0.4720 -0.1651 -0.3681
  935MOL0     H26205   3.187   4.755  10.692  1.1665 -0.7468 -0.1390
  935MOL0     H26206   3.202   4.505  10.729  1.8763 -1.5442  0.5885
  935MOL0     H26207   3.129   3.979  10.366  1.7645 -2.8396  0.9386
  935MOL0     H26208   3.019   3.793  10.447 -0.4857  0.2800 -0.2367
  935MOL0     H26209   4.452   3.517  10.934  0.4378  0.8080  1.2191
  935MOL0     H26210   4.577   3.326  11.038 -0.0599  0.3454 -2.1054
  935MOL0     H26211   4.420   2.715  10.989  0.5487  0.5047 -1.0776
  935MOL0     H26212   4.509   2.507  11.105  0.0927  0.8275 -5.0519
  935MOL0     H26213   4.509   2.564  11.435  0.5949 -0.6117  0.6687
  935MOL0     H26214   4.647   2.488  11.508  0.2417 -2.4148  0.0946
  935MOL0     H26215   4.625   2.271  11.390 -1.0970 -0.7103  0.9332
  935MOL0     H26216   4.491   2.331  11.293 -0.1020  0.0416 -0.0418
  935MOL0     H26217   4.344   2.330  11.461 -1.9984 -5.2919 -3.0360
  935MOL0     H26218   4.477   2.322  11.588  1.1586 -1.1223 -0.1699
  935MOL0     H26219   4.318   2.102  11.526  1.5140 -3.0448  1.9510
  935MOL0     H26220   4.411   2.117  11.377  0.8426 -0.2193 -0.8286
  935MOL0     H26221   4.604   1.913  11.703  0.0272 -4.1800 -3.3718
  935MOL0     H26222   4.718   2.759  11.369  1.1504  0.1616 -0.4416
  935MOL0     H26223   4.779   2.976  11.299  0.4181 -0.3946 -1.3821
  935MOL0     H26224   4.705   3.054  11.153  2.0818  0.3667 -0.1953
  935MOL0     H26225   4.629   3.063  11.307 -1.2207 -0.1795 -2.6380
  936MOL0     O26226   8.226  11.228   6.895  0.7869 -0.0560 -0.3043
  936MOL0     C26227   8.170  11.311   6.808 -0.1623  0.3380 -0.3461
  936MOL0     O26228   8.191  11.450   6.809  0.7597  0.2289  1.5847
  936MOL0     C26229   8.230  11.517   6.926 -0.2100  0.2844 -0.2723
  936MOL0     C26230   8.224  11.650   6.916 -0.0587 -0.3740  0.6175
  936MOL0     C26231   8.272  11.734   7.025 -1.2450 -1.1272  0.1568
  936MOL0     C26232   8.320  11.687   7.149  0.7446 -0.0477 -0.0194
  936MOL0     O26233   8.369  11.778   7.238  0.7244  0.5879 -0.2505
  936MOL0     C26234   8.494  11.732   7.305 -0.3274  0.8146 -0.1420
  936MOL0     C26235   8.575  11.845   7.363 -0.2475 -0.8637 -0.3772
  936MOL0     C26236   8.507  11.894   7.490 -0.1577  1.0620 -0.8760
  936MOL0     C26237   8.593  11.995   7.570 -0.5175  0.2547  0.5488
  936MOL0     C26238   8.556  12.043   7.715  0.3023  0.5818 -0.1892
  936MOL0     C26239   8.670  12.118   7.777 -0.5270  0.4715  0.0367
  936MOL0     C26240   8.656  12.136   7.926  0.2532 -0.2877 -0.3031
  936MOL0     C26241   8.748  12.243   7.989 -0.2478 -0.0406  0.6158
  936MOL0     N26242   8.699  12.383   7.958 -0.4586  0.2509 -0.2906
  936MOL0     C26243   8.717  12.456   7.843  1.0139 -0.5341  0.1184
  936MOL0     C26244   8.672  12.578   7.876 -0.0431 -0.4556  0.9896
  936MOL0     C26245   8.670  12.701   7.769 -0.1158  0.0109 -0.1352
  936MOL0     C26246   8.642  12.840   7.843 -0.6806 -0.3561  0.5460
  936MOL0     C26247   8.767  12.880   7.921 -0.2112 -0.4976  0.0627
  936MOL0     C26248   8.740  12.998   8.013 -0.5018 -0.0769  0.1831
  936MOL0     O26249   8.702  13.111   7.934  0.8121 -0.3720 -0.2748
  936MOL0     C26250   8.752  13.224   7.995  0.3086 -0.0653  0.1464
  936MOL0     C26251   8.840  13.304   7.916 -0.0036 -0.4050 -0.6980
  936MOL0     C26252   8.903  13.412   7.974 -0.5782 -1.1801 -0.0884
  936MOL0     C26253   8.887  13.444   8.118 -1.2284 -0.1993  0.3710
  936MOL0     C26254   8.979  13.555   8.177  0.7395  0.3399 -0.0737
  936MOL0     O26255   9.077  13.597   8.099  0.7671 -0.1553  0.4191
  936MOL0     C26256   9.155  13.703   8.145  0.7961  0.9116 -0.1446
  936MOL0     C26257   9.113  13.835   8.183  1.0795  0.5049  0.3475
  936MOL0     C26258   9.222  13.928   8.209 -0.5570  0.3025  0.2133
  936MOL0     C26259   9.357  13.892   8.225 -0.8305  1.5004 -0.7121
  936MOL0     O26260   9.447  13.986   8.264  1.5437  0.4160 -0.6882
  936MOL0     C26261   9.553  13.965   8.355 -0.3339  0.6626  0.1446
  936MOL0     C26262   9.670  14.067   8.343  0.5619  0.3688  0.3431
  936MOL0     C26263   9.778  14.045   8.451 -0.2128  0.2029 -0.4950
  936MOL0     C26264   9.887  14.160   8.428 -0.0066  0.2140  0.6148
  936MOL0     C26265   9.994  14.177   8.536 -0.0974 -0.0673  0.2051
  936MOL0     C26266  10.064  14.051   8.579  1.0434 -0.2779 -1.4873
  936MOL0     C26267  10.203  14.086   8.640 -0.1618  0.1706 -0.4619
  936MOL0     C26268  10.269  13.960   8.668 -0.1938 -0.1136  0.7935
  936MOL0    Cl26269  10.317  13.879   8.518  0.0187 -0.2012 -0.1087
  936MOL0     C26270   9.390  13.764   8.201  0.4505 -0.9975 -0.1632
  936MOL0     C26271   9.293  13.672   8.158 -1.1519 -0.3593  0.4210
  936MOL0     O26272   8.952  13.583   8.293 -0.3443  0.4504  0.7147
  936MOL0     C26273   8.803  13.369   8.196 -0.6031 -0.9539  0.0284
  936MOL0     C26274   8.738  13.262   8.131 -0.2102  0.1444 -0.5439
  936MOL0     N26275   8.617  12.578   8.005 -0.4522 -0.3373 -0.1840
  936MOL0     N26276   8.642  12.464   8.054 -0.0607 -0.9149 -0.3868
  936MOL0     C26277   8.317  11.544   7.163 -0.2566 -0.4763 -0.1328
  936MOL0     C26278   8.264  11.464   7.057 -0.2556 -0.0889 -0.2075
  936MOL0     C26279   8.063  11.266   6.717  0.4937 -0.8702  0.2096
  936MOL0     C26280   7.990  11.362   6.642  0.9556 -0.1565 -0.3060
  936MOL0     C26281   7.890  11.324   6.545 -0.0323 -0.6482  0.1335
  936MOL0     C26282   7.866  11.183   6.522 -0.2082 -0.6859 -0.1972
  936MOL0     O26283   7.766  11.151   6.428  0.3407 -0.7354 -0.5507
  936MOL0     C26284   7.720  11.018   6.404 -0.1368  0.3191 -0.1739
  936MOL0     C26285   7.637  11.024   6.281  0.6547 -0.4452 -1.0276
  936MOL0     C26286   7.563  10.889   6.247  0.6072  0.3201  0.3590
  936MOL0     C26287   7.450  10.841   6.348  0.3297 -0.7429  0.6159
  936MOL0     C26288   7.522  10.777   6.462  0.4323 -0.1284 -0.6630
  936MOL0     C26289   7.572  10.716   6.553 -0.4119 -0.6604 -0.7788
  936MOL0     C26290   7.945  11.087   6.593  0.3788  0.0295  1.1295
  936MOL0     C26291   8.044  11.127   6.692 -0.3752 -0.6097  0.1127
  936MOL0     C26292   8.104  11.006   6.759  0.3736  0.0254 -0.1186
  936MOL0     H26293   8.203  11.695   6.820  3.0833 -0.0519 -0.0105
  936MOL0     H26294   8.280  11.840   7.004 -2.3757 -0.8826  0.8559
  936MOL0     H26295   8.467  11.662   7.384  2.5548  1.2316  1.3567
  936MOL0     H26296   8.559  11.679   7.235 -2.1249 -0.2440 -1.0962
  936MOL0     H26297   8.569  11.918   7.283 -1.8724 -0.8139 -0.2394
  936MOL0     H26298   8.675  11.806   7.382 -0.2811 -0.0787  1.6758
  936MOL0     H26299   8.482  11.807   7.551  1.8463  0.4152 -0.9288
  936MOL0     H26300   8.412  11.948   7.474 -2.3564 -2.3350 -0.3084
  936MOL0     H26301   8.685  11.936   7.574 -0.3408  0.5285  0.4436
  936MOL0     H26302   8.621  12.081   7.510  1.4251 -0.1808  0.7631
  936MOL0     H26303   8.469  12.109   7.706  1.4143  1.9941 -0.9644
  936MOL0     H26304   8.519  11.963   7.780  1.4384 -1.4687 -1.9373
  936MOL0     H26305   8.772  12.080   7.769  0.6600  2.1826  4.3037
  936MOL0     H26306   8.666  12.210   7.717  0.8980  1.1234  0.8899
  936MOL0     H26307   8.679  12.052   7.992  0.9367  0.6363  0.6789
  936MOL0     H26308   8.554  12.164   7.953  1.3622  2.6913  1.3704
  936MOL0     H26309   8.764  12.233   8.097 -0.3896  5.3557  1.4451
  936MOL0     H26310   8.851  12.236   7.953 -0.6845 -2.8247 -0.3299
  936MOL0     H26311   8.765  12.436   7.748  3.4686  1.9913  0.7091
  936MOL0     H26312   8.769  12.720   7.729  0.4683  3.5095  2.5042
  936MOL0     H26313   8.596  12.684   7.690 -3.3023  1.8531  2.2096
  936MOL0     H26314   8.615  12.929   7.786 -0.2267 -0.5953 -0.0537
  936MOL0     H26315   8.561  12.824   7.915 -1.6303 -4.4853 -1.1552
  936MOL0     H26316   8.840  12.901   7.842 -1.6471 -2.5539 -1.9395
  936MOL0     H26317   8.802  12.807   7.994  1.1324 -0.5365 -0.5795
  936MOL0     H26318   8.830  13.002   8.076 -0.0486 -2.2994 -0.2572
  936MOL0     H26319   8.658  12.969   8.079 -1.4031 -0.9391 -1.2680
  936MOL0     H26320   8.858  13.283   7.812 -0.3832 -0.2375 -0.7986
  936MOL0     H26321   8.963  13.483   7.917 -0.0971 -0.8045  0.8627
  936MOL0     H26322   9.010  13.867   8.172  1.0996  0.6003  0.4387
  936MOL0     H26323   9.186  14.029   8.222  3.3761  2.0665 -1.1120
  936MOL0     H26324   9.521  13.956   8.460 -2.4245 -1.7488 -0.5840
  936MOL0     H26325   9.597  13.866   8.343  3.9082  2.0701  2.2701
  936MOL0     H26326   9.712  14.046   8.244  0.0216 -0.8232  0.3424
  936MOL0     H26327   9.621  14.163   8.361  0.1770  0.8746 -2.8410
  936MOL0     H26328   9.741  14.064   8.552 -2.6267  5.5338 -1.9781
  936MOL0     H26329   9.827  13.947   8.451  2.6493  1.5641 -0.1448
  936MOL0     H26330   9.847  14.262   8.421  3.8411  1.8267 -2.0850
  936MOL0     H26331   9.928  14.156   8.326 -1.5613  0.8061 -0.0693
  936MOL0     H26332   9.934  14.204   8.623  1.6444  0.5367  1.2741
  936MOL0     H26333  10.060  14.262   8.517 -1.5057  1.3292  1.2299
  936MOL0     H26334   9.992  14.015   8.653  2.0940  2.2761  0.9789
  936MOL0     H26335  10.084  13.982   8.497  1.2819  1.4859 -2.9943
  936MOL0     H26336  10.197  14.127   8.741  0.8799  0.9577 -0.7094
  936MOL0     H26337  10.270  14.130   8.566 -1.3259  0.3847 -1.4242
  936MOL0     H26338  10.360  13.975   8.726 -0.2021 -1.2406  1.1235
  936MOL0     H26339  10.205  13.891   8.724  0.8770 -2.1372 -0.3378
  936MOL0     H26340   9.491  13.726   8.214 -0.5872 -3.3952  1.7721
  936MOL0     H26341   9.332  13.579   8.119  3.1344  1.5687 -0.4945
  936MOL0     H26342   8.801  13.388   8.303 -2.0282  0.2114 -0.1725
  936MOL0     H26343   8.675  13.192   8.186  0.2481 -1.0566 -1.4836
  936MOL0     H26344   8.344  11.493   7.255 -1.5388 -1.4742 -0.2776
  936MOL0     H26345   8.257  11.357   7.076 -1.4979 -0.4810 -2.5093
  936MOL0     H26346   7.995  11.470   6.652 -3.9258  0.2595 -0.0113
  936MOL0     H26347   7.825  11.399   6.501  0.1784 -0.4677  0.1341
  936MOL0     H26348   7.657  10.991   6.489  0.5046 -0.8877 -0.0648
  936MOL0     H26349   7.806  10.952   6.392  0.5676  1.1533  0.1183
  936MOL0     H26350   7.701  11.036   6.193 -0.3497  4.1236 -1.3642
  936MOL0     H26351   7.553  11.094   6.292  0.1748 -1.3736  2.6775
  936MOL0     H26352   7.632  10.807   6.225  0.8810  0.1452  1.7272
  936MOL0     H26353   7.514  10.899   6.150  1.6073  0.4359 -0.1453
  936MOL0     H26354   7.397  10.928   6.386 -1.0748 -1.0614 -0.5445
  936MOL0     H26355   7.378  10.771   6.305  0.9834 -1.1122  0.1117
  936MOL0     H26356   7.626  10.686   6.641 -1.3292 -2.9733 -0.9444
  936MOL0     H26357   7.943  10.982   6.565  0.8959  0.4886 -0.7795
  936MOL0     H26358   8.213  11.009   6.750  0.4612 -0.6175  0.6437
  936MOL0     H26359   8.077  10.998   6.865 -4.4532  2.8583 -0.8447
  936MOL0     H26360   8.076  10.909   6.716 -0.5460 -0.8538  2.3131
  937MOL0     O26361   9.125   6.260   0.276 -0.2394  0.0322  0.1190
  937MOL0     C26362   9.040   6.304   0.201  0.8477 -0.2093  1.2402
  937MOL0     O26363   8.916   6.363   0.233 -0.0004 -0.1097 -0.3454
  937MOL0     C26364   8.899   6.387   0.370 -0.3630  0.1844 -0.1011
  937MOL0     C26365   8.825   6.302   0.457  1.4288 -0.6987  0.4871
  937MOL0     C26366   8.827   6.320   0.593  0.4613  0.0349 -0.9187
  937MOL0     C26367   8.912   6.415   0.652  0.5307  0.2712  0.2158
  937MOL0     O26368   8.931   6.445   0.786  0.2206 -0.3158 -0.0958
  937MOL0     C26369   8.884   6.356   0.886  0.2709  0.1015  0.0179
  937MOL0     C26370   8.986   6.253   0.940  0.2629  0.1685  0.5390
  937MOL0     C26371   9.073   6.313   1.050 -0.0219  0.0901 -0.1578
  937MOL0     C26372   9.203   6.235   1.092  0.8519 -0.1463  0.3392
  937MOL0     C26373   9.155   6.143   1.206 -0.7397 -0.4228  0.2716
  937MOL0     C26374   9.277   6.059   1.262 -0.3027 -0.1529  0.1688
  937MOL0     C26375   9.401   6.136   1.301  0.1278 -0.7408 -0.1837
  937MOL0     C26376   9.509   6.153   1.197  0.1597 -0.2451  1.0769
  937MOL0     N26377   9.592   6.034   1.204  0.4364  0.4358 -1.1559
  937MOL0     C26378   9.709   6.033   1.272  0.2100 -0.6636 -0.5086
  937MOL0     C26379   9.770   5.916   1.231  0.0235  0.5377 -1.2120
  937MOL0     C26380   9.907   5.874   1.282  0.0133 -0.0406  0.1358
  937MOL0     C26381  10.016   5.916   1.186  0.1307 -0.2759 -0.0607
  937MOL0     C26382  10.154   5.889   1.240  0.1106  0.9296 -0.0000
  937MOL0     C26383  10.259   5.910   1.129  0.2439  0.1789 -0.5538
  937MOL0     O26384  10.282   6.047   1.097  0.5107  0.6734  1.4423
  937MOL0     C26385  10.393   6.073   1.018 -0.0624  0.8836 -0.4660
  937MOL0     C26386  10.432   6.205   1.002  0.2812 -0.4888  0.3522
  937MOL0     C26387  10.542   6.237   0.924  0.8609  0.4943 -0.1794
  937MOL0     C26388  10.625   6.141   0.859 -0.8266  0.1268  0.2512
  937MOL0     C26389  10.729   6.179   0.768 -0.0391  0.3642 -0.2118
  937MOL0     O26390  10.779   6.080   0.685  0.0461  0.2608  0.2599
  937MOL0     C26391  10.896   6.108   0.611  0.0390 -1.4804 -0.2688
  937MOL0     C26392  10.924   6.231   0.550 -0.5347  0.4782  0.1599
  937MOL0     C26393  11.042   6.261   0.478 -0.5985 -0.3715  0.6472
  937MOL0     C26394  11.147   6.166   0.482 -0.0971  0.4956  0.8126
  937MOL0     O26395  11.277   6.194   0.434 -0.1434  0.4624 -0.3137
  937MOL0     C26396  11.293   6.275   0.325  0.3617 -0.5242  0.6885
  937MOL0     C26397  11.444   6.288   0.307  0.4213 -0.6004 -0.2304
  937MOL0     C26398  11.498   6.398   0.218 -0.7865 -0.1515 -0.0303
  937MOL0     C26399  11.649   6.401   0.221 -0.7514  0.1682  0.4382
  937MOL0     C26400  11.721   6.424   0.086 -0.7874  0.2917 -0.2880
  937MOL0     C26401  11.865   6.461   0.091 -0.4060 -0.7407 -0.6920
  937MOL0     C26402  11.922   6.529  -0.036  0.3428  0.2997  0.9080
  937MOL0     C26403  12.068   6.570  -0.029  0.3536  0.5624  0.5810
  937MOL0    Cl26404  12.118   6.587  -0.189  0.2240 -0.2433  0.6421
  937MOL0     C26405  11.118   6.047   0.549 -0.2044  0.0015  0.1628
  937MOL0     C26406  10.998   6.017   0.611 -0.0753  0.3424 -0.2471
  937MOL0     O26407  10.772   6.296   0.768  0.6742  0.4996 -0.0489
  937MOL0     C26408  10.587   6.008   0.886  0.2092  0.0012  0.1665
  937MOL0     C26409  10.478   5.974   0.970 -0.8027  0.0977 -0.6966
  937MOL0     N26410   9.689   5.855   1.136  0.9327 -0.4527 -0.2270
  937MOL0     N26411   9.584   5.935   1.119  0.4799  0.6647  0.5223
  937MOL0     C26412   8.975   6.501   0.569  0.1342 -0.7904  0.2546
  937MOL0     C26413   8.980   6.477   0.434 -0.0454  0.0055 -1.1796
  937MOL0     C26414   9.058   6.277   0.051  1.3947  0.4178 -0.5993
  937MOL0     C26415   8.980   6.358  -0.040 -0.8776 -0.9058 -0.0214
  937MOL0     C26416   8.996   6.349  -0.177  0.5281  0.1967 -0.3270
  937MOL0     C26417   9.075   6.246  -0.232 -0.1895 -0.7752  0.6223
  937MOL0     O26418   9.093   6.233  -0.368 -0.6742 -0.7410  0.2204
  937MOL0     C26419   8.975   6.213  -0.442 -0.5262 -0.2148 -0.5555
  937MOL0     C26420   8.910   6.079  -0.414  0.0700  0.6833 -0.2859
  937MOL0     C26421   8.837   6.023  -0.539  0.4052  0.4918  0.2147
  937MOL0     C26422   8.784   5.891  -0.504  0.6710 -0.1751 -0.0178
  937MOL0     C26423   8.715   5.823  -0.610  0.6155  0.1459 -0.7044
  937MOL0     C26424   8.677   5.754  -0.705  0.2877 -0.5320 -0.1231
  937MOL0     C26425   9.144   6.164  -0.137 -0.0563 -0.1206  1.1191
  937MOL0     C26426   9.137   6.172   0.003  0.0370 -0.0494 -0.9678
  937MOL0     C26427   9.197   6.058   0.082 -0.9451 -0.0390 -0.8098
  937MOL0     H26428   8.764   6.233   0.401 -0.0293  1.5173 -0.7841
  937MOL0     H26429   8.775   6.252   0.660  0.1042  2.4649  1.3850
  937MOL0     H26430   8.858   6.415   0.974 -0.9101 -0.0935 -0.1691
  937MOL0     H26431   8.787   6.311   0.861 -0.1391  1.9674 -2.1496
  937MOL0     H26432   9.047   6.214   0.858  4.2653  3.2055  1.7351
  937MOL0     H26433   8.935   6.171   0.990 -3.2199  1.4316 -0.6427
  937MOL0     H26434   9.016   6.315   1.143  1.4931 -1.2855  0.8591
  937MOL0     H26435   9.102   6.414   1.023 -0.7351 -0.4479 -3.3095
  937MOL0     H26436   9.262   6.178   1.020 -0.3436 -1.1613  0.1062
  937MOL0     H26437   9.268   6.316   1.126 -1.6695  1.5571  1.4200
  937MOL0     H26438   9.129   6.199   1.296  3.7038 -2.6974  3.3643
  937MOL0     H26439   9.077   6.073   1.177 -0.6689 -0.9701  1.3621
  937MOL0     H26440   9.242   6.010   1.353  2.8194  1.5541  2.4771
  937MOL0     H26441   9.303   5.978   1.192  2.8745  1.8868 -1.2732
  937MOL0     H26442   9.440   6.095   1.395  1.3213  0.6236 -0.0626
  937MOL0     H26443   9.367   6.238   1.319  1.1959  0.3719 -3.6913
  937MOL0     H26444   9.468   6.162   1.096  0.8784 -1.7854  0.6179
  937MOL0     H26445   9.580   6.235   1.210 -0.8715  0.8050  0.3097
  937MOL0     H26446   9.767   6.113   1.317 -0.6026  2.1883 -4.1193
  937MOL0     H26447   9.913   5.917   1.382 -2.1323 -0.8258  0.6476
  937MOL0     H26448   9.903   5.765   1.291 -2.3625 -0.3079 -2.6156
  937MOL0     H26449  10.000   5.873   1.087  1.2257 -0.1727 -0.2968
  937MOL0     H26450  10.002   6.024   1.170 -1.4900 -0.0133  2.6099
  937MOL0     H26451  10.166   5.781   1.258  1.8746  0.3109 -3.8911
  937MOL0     H26452  10.170   5.941   1.335 -0.6538  0.3467  0.4724
  937MOL0     H26453  10.212   5.867   1.039 -3.7198  3.1058 -0.1360
  937MOL0     H26454  10.349   5.858   1.163 -0.8847  0.3877  3.1833
  937MOL0     H26455  10.375   6.293   1.030  2.5804  1.2457 -0.1389
  937MOL0     H26456  10.567   6.341   0.908  0.3899  0.4470 -1.3472
  937MOL0     H26457  10.836   6.295   0.539 -1.1677 -0.3116  0.5496
  937MOL0     H26458  11.054   6.359   0.433 -0.3149  0.4475  2.3942
  937MOL0     H26459  11.253   6.230   0.233  1.5905 -0.3962  0.0737
  937MOL0     H26460  11.253   6.375   0.340  1.8161 -0.2915  3.5548
  937MOL0     H26461  11.482   6.325   0.403  0.5857  1.7212 -1.1102
  937MOL0     H26462  11.471   6.186   0.280 -2.4574 -1.8283  1.0485
  937MOL0     H26463  11.462   6.382   0.115  0.6772 -3.0355 -0.2115
  937MOL0     H26464  11.464   6.494   0.255  0.6829  1.0877 -1.6946
  937MOL0     H26465  11.693   6.311   0.264  1.5979  1.8879  1.8446
  937MOL0     H26466  11.687   6.477   0.290  1.1872 -1.9696  1.8744
  937MOL0     H26467  11.661   6.502   0.039  0.2439 -0.5285 -3.1387
  937MOL0     H26468  11.713   6.334   0.024  1.8215 -1.1590  1.2752
  937MOL0     H26469  11.887   6.533   0.170  2.3974 -1.9017 -0.2829
  937MOL0     H26470  11.916   6.366   0.112 -0.7321 -0.4772  1.5342
  937MOL0     H26471  11.868   6.625  -0.035  2.2241  1.4854 -1.0260
  937MOL0     H26472  11.889   6.463  -0.117 -1.4722  0.6955  1.2757
  937MOL0     H26473  12.085   6.663   0.026  3.6637 -1.1776  2.9030
  937MOL0     H26474  12.130   6.495   0.022  0.3644  0.0822 -0.1157
  937MOL0     H26475  11.198   5.974   0.549  0.8701  0.8042 -4.9573
  937MOL0     H26476  10.968   5.925   0.660 -1.3655  0.8080 -0.1421
  937MOL0     H26477  10.653   5.929   0.851 -0.6746 -1.4430  1.6025
  937MOL0     H26478  10.468   5.866   0.981 -1.1621  0.3921  2.7983
  937MOL0     H26479   9.029   6.577   0.624 -0.1812 -1.4478  1.5270
  937MOL0     H26480   9.043   6.546   0.379  0.4323 -0.2267 -0.9223
  937MOL0     H26481   8.911   6.431   0.002  0.3815 -0.7475  1.8931
  937MOL0     H26482   8.933   6.417  -0.233 -0.2985  0.5938  1.0406
  937MOL0     H26483   9.011   6.223  -0.545 -1.1495 -1.1143 -0.8724
  937MOL0     H26484   8.901   6.293  -0.433  0.9815  1.2114 -0.1660
  937MOL0     H26485   8.837   6.082  -0.333 -3.0873 -2.5106 -2.6597
  937MOL0     H26486   8.981   6.004  -0.379 -2.3629 -0.5823  2.2702
  937MOL0     H26487   8.917   6.013  -0.613  3.1202  0.6174  2.9259
  937MOL0     H26488   8.759   6.095  -0.565  0.1350 -0.6166 -2.3345
  937MOL0     H26489   8.873   5.833  -0.479  1.4906  0.9473 -0.2532
  937MOL0     H26490   8.712   5.892  -0.422  0.3713  0.4889 -0.2790
  937MOL0     H26491   8.639   5.689  -0.782  1.4762 -3.8781  1.8864
  937MOL0     H26492   9.200   6.078  -0.172  2.8546  2.0748 -0.0197
  937MOL0     H26493   9.212   5.970   0.018 -1.6510 -0.5669 -0.2676
  937MOL0     H26494   9.287   6.090   0.135 -0.9954 -3.4671  1.7244
  937MOL0     H26495   9.127   6.016   0.155  1.3719 -1.6194  0.6041
  938MOL0     O26496   5.827  11.315   5.314 -0.4096 -0.3422  0.0154
  938MOL0     C26497   5.843  11.217   5.238 -0.2312 -0.1971 -0.0104
  938MOL0     O26498   5.941  11.121   5.250 -0.7499  0.2075  0.7673
  938MOL0     C26499   6.022  11.109   5.364  0.2818  0.1343 -0.4196
  938MOL0     C26500   5.982  11.145   5.502 -0.9759  1.0320  0.3838
  938MOL0     C26501   6.065  11.104   5.609  0.1040  0.0421  0.1484
  938MOL0     C26502   6.187  11.038   5.589  0.2412  0.4397 -0.5771
  938MOL0     O26503   6.235  11.002   5.713  0.0777  0.5697 -0.2245
  938MOL0     C26504   6.346  10.906   5.710 -0.7767 -0.7249 -0.2701
  938MOL0     C26505   6.393  10.867   5.860 -1.2451  0.2341  0.3697
  938MOL0     C26506   6.305  10.757   5.908 -0.3556  0.1716 -1.3016
  938MOL0     C26507   6.171  10.816   5.950  0.2893  0.0174 -0.5535
  938MOL0     C26508   6.074  10.703   6.011 -0.8382  0.3664 -0.3695
  938MOL0     C26509   5.957  10.770   6.073 -1.1584  0.2291 -0.9592
  938MOL0     C26510   5.829  10.681   6.117 -0.5457  0.2352 -0.9649
  938MOL0     C26511   5.855  10.598   6.230 -0.5561 -0.4071  0.3115
  938MOL0     N26512   5.869  10.678   6.357  0.4329  0.0500 -0.0935
  938MOL0     C26513   5.766  10.694   6.452  0.6104  0.0056  0.7002
  938MOL0     C26514   5.827  10.731   6.563  0.5228  0.1508  0.6881
  938MOL0     C26515   5.757  10.736   6.702  0.0440  0.4302  0.8522
  938MOL0     C26516   5.703  10.597   6.739 -0.0717 -0.6610 -0.1245
  938MOL0     C26517   5.826  10.498   6.759  0.4610 -0.1178 -0.3725
  938MOL0     C26518   5.795  10.363   6.701 -0.5284  0.0268 -0.0525
  938MOL0     O26519   5.665  10.310   6.731 -0.6614 -0.2842 -0.4103
  938MOL0     C26520   5.640  10.260   6.857 -0.5116  0.3733 -0.2804
  938MOL0     C26521   5.508  10.226   6.885 -0.3112 -0.1243  0.7108
  938MOL0     C26522   5.460  10.179   7.008  0.0774 -1.0251  0.0104
  938MOL0     C26523   5.547  10.164   7.114  0.0531 -0.4238 -0.5723
  938MOL0     C26524   5.490  10.109   7.235 -0.3821  0.3950 -0.1084
  938MOL0     O26525   5.354  10.076   7.225 -0.2744  0.2587 -0.0872
  938MOL0     C26526   5.283   9.999   7.317 -0.1922  0.0289  0.5921
  938MOL0     C26527   5.146  10.033   7.317 -0.8561  0.9432  0.5684
  938MOL0     C26528   5.052   9.962   7.390  0.3771 -0.1157  0.6760
  938MOL0     C26529   5.093   9.855   7.463 -0.0408 -0.0603 -0.1221
  938MOL0     O26530   4.998   9.794   7.542 -0.2711  0.3030  0.6485
  938MOL0     C26531   5.051   9.740   7.666 -0.5767  0.3207 -0.2204
  938MOL0     C26532   5.058   9.585   7.651 -0.6528  0.2518  0.2463
  938MOL0     C26533   5.157   9.525   7.760  0.1900  0.2762 -0.1054
  938MOL0     C26534   5.160   9.378   7.731  0.9594 -0.2751 -0.0071
  938MOL0     C26535   5.231   9.289   7.834  0.0511  0.2214  0.2110
  938MOL0     C26536   5.143   9.272   7.952  0.1744  0.0723 -0.9762
  938MOL0     C26537   5.174   9.143   8.029 -0.6257 -0.1205 -0.7289
  938MOL0     C26538   5.094   9.135   8.154 -0.1603 -0.2845  0.4692
  938MOL0    Cl26539   5.102   9.278   8.242  0.4474 -0.1056 -0.5188
  938MOL0     C26540   5.234   9.808   7.454  0.0057  0.8812 -0.2036
  938MOL0     C26541   5.321   9.884   7.387 -0.9963  0.3479  0.2792
  938MOL0     O26542   5.547  10.117   7.337 -0.5824  0.6589  0.6937
  938MOL0     C26543   5.685  10.185   7.091 -0.2485 -0.5592 -0.1552
  938MOL0     C26544   5.729  10.232   6.962 -0.3419  0.0105 -0.2553
  938MOL0     N26545   5.962  10.721   6.540 -0.2616  1.1736  0.2418
  938MOL0     N26546   5.989  10.694   6.414  0.4210  0.1324 -0.9308
  938MOL0     C26547   6.216  10.986   5.462  1.0764  0.0040 -0.3097
  938MOL0     C26548   6.140  11.031   5.350  0.6336  0.6398  0.4668
  938MOL0     C26549   5.760  11.206   5.110 -0.9401 -0.1661 -1.0255
  938MOL0     C26550   5.833  11.208   4.994  0.2445  0.7159 -1.1876
  938MOL0     C26551   5.770  11.196   4.868 -0.5337 -0.1571 -1.0949
  938MOL0     C26552   5.632  11.207   4.866  0.1612  0.7655 -0.4145
  938MOL0     O26553   5.551  11.223   4.754 -0.4528  0.5861 -0.2881
  938MOL0     C26554   5.607  11.253   4.624 -1.0446 -0.1471 -0.4001
  938MOL0     C26555   5.507  11.302   4.530 -0.3203  0.9786  0.0447
  938MOL0     C26556   5.549  11.359   4.393 -0.3548  0.1512 -0.1443
  938MOL0     C26557   5.620  11.262   4.303 -0.2814  0.3704 -0.8172
  938MOL0     C26558   5.770  11.265   4.316  1.0716  0.0437 -0.3793
  938MOL0     C26559   5.886  11.269   4.342 -0.3027  0.9050  0.3816
  938MOL0     C26560   5.555  11.192   4.984 -0.2495 -0.9102 -0.0163
  938MOL0     C26561   5.619  11.187   5.109  0.5803 -0.0133  0.4421
  938MOL0     C26562   5.541  11.173   5.239  0.0797  0.2373  0.6475
  938MOL0     H26563   5.884  11.191   5.516 -1.9558 -1.5275  3.0882
  938MOL0     H26564   6.014  11.116   5.704 -1.0330  3.8104 -0.7671
  938MOL0     H26565   6.299  10.824   5.654 -0.8503 -0.3249 -0.7958
  938MOL0     H26566   6.432  10.942   5.654  1.1312 -0.5788  2.5233
  938MOL0     H26567   6.382  10.953   5.926 -0.5562  0.0306  0.7535
  938MOL0     H26568   6.496  10.831   5.861 -1.6958 -1.2365 -1.2515
  938MOL0     H26569   6.347  10.713   5.998 -4.6397  1.0136  1.3779
  938MOL0     H26570   6.287  10.686   5.827  0.4748  1.6421 -2.8684
  938MOL0     H26571   6.182  10.890   6.029 -1.0852 -0.5404  0.1859
  938MOL0     H26572   6.121  10.859   5.863 -2.3734  3.3998  2.3657
  938MOL0     H26573   6.042  10.632   5.935  0.5639 -0.8752  0.1487
  938MOL0     H26574   6.123  10.638   6.084 -0.7299  0.4310 -0.3844
  938MOL0     H26575   6.003  10.813   6.163  3.3447 -1.2690 -2.2863
  938MOL0     H26576   5.926  10.848   6.003 -1.8092 -1.5042 -2.7190
  938MOL0     H26577   5.803  10.617   6.033  0.7104 -1.7082  0.0680
  938MOL0     H26578   5.752  10.750   6.153  0.4620  0.8918  0.0125
  938MOL0     H26579   5.766  10.535   6.239  0.4011 -1.8323  0.0706
  938MOL0     H26580   5.939  10.530   6.217 -2.8034 -3.2575 -0.4648
  938MOL0     H26581   5.662  10.669   6.436  1.4226 -3.0025 -0.5637
  938MOL0     H26582   5.831  10.779   6.770 -1.2304  1.4754  1.6424
  938MOL0     H26583   5.669  10.802   6.701 -1.2247 -1.1941  1.2196
  938MOL0     H26584   5.642  10.599   6.830  0.0883 -0.8255 -0.0121
  938MOL0     H26585   5.632  10.560   6.665 -4.9397 -2.0940  4.5769
  938MOL0     H26586   5.835  10.485   6.867  0.1133 -0.2326 -0.3565
  938MOL0     H26587   5.925  10.532   6.727  0.5675 -2.1096 -2.4704
  938MOL0     H26588   5.865  10.286   6.736 -0.0780 -0.5063 -1.9766
  938MOL0     H26589   5.803  10.357   6.592  0.6076 -3.1575  0.0993
  938MOL0     H26590   5.448  10.241   6.796 -0.1422  1.8311  0.8966
  938MOL0     H26591   5.354  10.160   7.018  0.2112 -2.1224 -0.5062
  938MOL0     H26592   5.107  10.122   7.268 -4.7511  0.4430  2.3301
  938MOL0     H26593   4.951   9.998   7.403  0.7790  0.0648  4.3516
  938MOL0     H26594   5.155   9.768   7.688  0.0457 -1.8615 -0.1309
  938MOL0     H26595   4.996   9.771   7.756  1.0604 -0.4792  1.1224
  938MOL0     H26596   4.961   9.533   7.648  1.3481 -3.9448  0.9803
  938MOL0     H26597   5.091   9.564   7.549 -0.2677  2.4467 -0.1235
  938MOL0     H26598   5.249   9.582   7.743 -1.0962  2.0263 -1.6398
  938MOL0     H26599   5.122   9.539   7.862 -1.2102  0.2766 -0.5721
  938MOL0     H26600   5.213   9.368   7.635  0.5757  0.2036 -0.2716
  938MOL0     H26601   5.057   9.344   7.721  0.1923  0.4621  3.8725
  938MOL0     H26602   5.322   9.341   7.866  1.2903 -1.3947 -0.5168
  938MOL0     H26603   5.258   9.191   7.793 -2.4266  0.2749 -1.7696
  938MOL0     H26604   5.152   9.357   8.020 -1.5637  0.5500 -1.2898
  938MOL0     H26605   5.039   9.258   7.918 -1.1505  2.9518  1.4340
  938MOL0     H26606   5.279   9.150   8.059 -0.7683 -1.6161  0.2413
  938MOL0     H26607   5.160   9.049   7.974 -0.4252 -0.8265  0.3872
  938MOL0     H26608   4.987   9.121   8.137  0.5883 -1.9031 -4.5035
  938MOL0     H26609   5.135   9.055   8.218  2.9563 -1.3937 -2.6322
  938MOL0     H26610   5.279   9.726   7.509  0.4477  0.6515 -0.8794
  938MOL0     H26611   5.427   9.867   7.372 -1.4437 -0.2405 -3.0592
  938MOL0     H26612   5.753  10.176   7.175 -1.4419  2.5140  1.3048
  938MOL0     H26613   5.836  10.246   6.961 -0.1353 -1.4403 -1.1833
  938MOL0     H26614   6.286  10.902   5.463 -1.5446 -2.3203  0.4224
  938MOL0     H26615   6.164  10.991   5.252  1.3323 -0.7129  1.1632
  938MOL0     H26616   5.942  11.217   4.995  0.2115  1.1237 -0.3873
  938MOL0     H26617   5.821  11.211   4.773  3.5478  0.1362  0.9173
  938MOL0     H26618   5.646  11.158   4.586 -1.0413 -0.8711  1.3529
  938MOL0     H26619   5.688  11.327   4.623 -0.8754 -0.2526  1.4845
  938MOL0     H26620   5.441  11.368   4.587  1.9382  1.8330  1.7761
  938MOL0     H26621   5.447  11.212   4.509  3.0736 -0.9962 -2.1746
  938MOL0     H26622   5.603  11.452   4.415 -2.2423  1.1060  0.7658
  938MOL0     H26623   5.468  11.400   4.332  1.2038 -0.6490 -2.9048
  938MOL0     H26624   5.580  11.160   4.303 -2.9792  1.3325 -1.6728
  938MOL0     H26625   5.599  11.293   4.200  1.7328 -1.1394 -1.7506
  938MOL0     H26626   5.975  11.287   4.398 -1.3659  1.7388  1.8839
  938MOL0     H26627   5.447  11.185   4.997  0.0566 -0.9128  3.4978
  938MOL0     H26628   5.433  11.189   5.228 -0.2956 -1.4863  1.4546
  938MOL0     H26629   5.557  11.072   5.278  1.7090 -1.8572 -4.5740
  938MOL0     H26630   5.572  11.242   5.318 -0.2463 -0.1289  1.1054
  939MOL0     O26631   0.921   2.982   2.994 -0.4930  0.4443  1.0837
  939MOL0     C26632   0.829   2.914   3.035  0.2290 -1.4941 -0.2894
  939MOL0     O26633   0.710   2.908   2.974  0.1820  0.2975 -0.4441
  939MOL0     C26634   0.643   3.000   2.895 -0.2966 -0.6768 -0.1505
  939MOL0     C26635   0.642   3.133   2.896 -1.1845  0.2673 -0.3635
  939MOL0     C26636   0.557   3.206   2.819  0.2169 -0.7841 -0.3114
  939MOL0     C26637   0.456   3.154   2.741 -0.5083 -0.2140 -0.3481
  939MOL0     O26638   0.390   3.228   2.652 -0.3690 -1.0162 -0.4836
  939MOL0     C26639   0.305   3.169   2.554 -0.1151 -0.3349 -0.0021
  939MOL0     C26640   0.272   3.272   2.443  0.5440 -0.4537  0.2673
  939MOL0     C26641   0.397   3.300   2.355  0.4133  0.3159 -1.2095
  939MOL0     C26642   0.368   3.369   2.224 -0.1263  0.3421 -0.3049
  939MOL0     C26643   0.351   3.523   2.233 -0.7317 -0.3279 -0.0186
  939MOL0     C26644   0.320   3.587   2.094 -1.0472  0.4518 -0.2356
  939MOL0     C26645   0.299   3.741   2.105 -0.3767  0.2124  0.7798
  939MOL0     C26646   0.164   3.767   2.174  0.0576  0.6540 -0.2158
  939MOL0     N26647   0.152   3.909   2.198  0.2714 -0.5526  0.8266
  939MOL0     C26648   0.060   4.002   2.145 -0.0944 -0.4526 -0.1548
  939MOL0     C26649   0.109   4.127   2.182 -0.8660  0.7980 -0.7679
  939MOL0     C26650   0.064   4.272   2.147 -0.2534  0.5931  0.8736
  939MOL0     C26651  -0.087   4.294   2.139 -1.3620  0.9593 -0.3240
  939MOL0     C26652  -0.159   4.263   2.267  0.7697  0.8526  0.0810
  939MOL0     C26653  -0.307   4.307   2.269 -0.2266  0.8206  0.5251
  939MOL0     O26654  -0.327   4.438   2.319  0.1739 -0.0736 -0.4950
  939MOL0     C26655  -0.368   4.456   2.451  0.0032  0.9292  0.1799
  939MOL0     C26656  -0.301   4.564   2.516  0.1402 -0.7652 -0.8501
  939MOL0     C26657  -0.342   4.579   2.650  0.1331 -0.3978  0.4919
  939MOL0     C26658  -0.445   4.501   2.712 -0.4562  0.2497  0.1176
  939MOL0     C26659  -0.483   4.531   2.848  0.0201  0.3079 -0.2601
  939MOL0     O26660  -0.587   4.459   2.886  1.2158  0.5170 -0.1757
  939MOL0     C26661  -0.633   4.483   3.017 -0.9919  0.5054 -0.7627
  939MOL0     C26662  -0.743   4.569   3.032 -1.1622 -0.0428  0.8907
  939MOL0     C26663  -0.802   4.587   3.163  0.3989  0.3133  0.8527
  939MOL0     C26664  -0.759   4.497   3.267 -0.7155 -0.4418  0.1836
  939MOL0     O26665  -0.810   4.495   3.395  0.0794 -0.2066  0.1668
  939MOL0     C26666  -0.895   4.598   3.439  0.2482 -0.5755  0.4961
  939MOL0     C26667  -0.913   4.600   3.595 -0.4514 -0.2318  0.2161
  939MOL0     C26668  -0.976   4.728   3.642 -0.6596 -0.9222 -1.0326
  939MOL0     C26669  -1.098   4.780   3.570 -0.1389 -0.0771 -1.2318
  939MOL0     C26670  -1.184   4.863   3.660 -0.7343 -0.2475  0.8526
  939MOL0     C26671  -1.322   4.911   3.608  0.3267 -0.0686 -0.0484
  939MOL0     C26672  -1.411   4.974   3.722 -1.3582 -0.9692  0.1363
  939MOL0     C26673  -1.534   5.034   3.666 -0.0490 -0.0706  0.7254
  939MOL0    Cl26674  -1.682   4.924   3.652 -0.2886 -0.0038  0.0975
  939MOL0     C26675  -0.657   4.412   3.242 -0.6676  0.2373  0.6710
  939MOL0     C26676  -0.581   4.414   3.122  0.8101  0.0685  0.3226
  939MOL0     O26677  -0.424   4.622   2.914  0.1906  0.8774  0.3940
  939MOL0     C26678  -0.508   4.398   2.635 -1.0691  0.1812  0.0988
  939MOL0     C26679  -0.468   4.379   2.506  0.1054  0.5347 -0.8149
  939MOL0     N26680   0.219   4.095   2.262  0.2062 -1.3370  0.3532
  939MOL0     N26681   0.246   3.971   2.265  0.0327 -0.2016  0.2972
  939MOL0     C26682   0.451   3.010   2.737  0.3275  0.0327  0.3382
  939MOL0     C26683   0.550   2.944   2.814 -0.0404 -0.5318  0.8023
  939MOL0     C26684   0.850   2.809   3.145  0.2485  0.3440 -0.6534
  939MOL0     C26685   0.755   2.701   3.160 -0.7904  0.1813  0.4782
  939MOL0     C26686   0.784   2.586   3.238 -0.0909  0.1501 -0.5994
  939MOL0     C26687   0.898   2.575   3.318  0.2343  0.3090 -0.0084
  939MOL0     O26688   0.933   2.469   3.378  0.0181  0.9174 -0.5953
  939MOL0     C26689   1.027   2.389   3.306 -0.3160 -0.2962  0.8011
  939MOL0     C26690   1.019   2.245   3.334 -0.0861 -0.2141  0.0543
  939MOL0     C26691   1.142   2.168   3.282  1.0578 -0.4604  0.2639
  939MOL0     C26692   1.141   2.019   3.310  0.8585 -0.1268 -0.1352
  939MOL0     C26693   1.276   1.972   3.299 -0.4068 -0.5432  0.0877
  939MOL0     C26694   1.386   1.927   3.275 -0.1005  0.2048 -0.4055
  939MOL0     C26695   0.984   2.688   3.320  0.5162  0.7269  0.4322
  939MOL0     C26696   0.963   2.804   3.237 -0.0613  0.1574 -0.8094
  939MOL0     C26697   1.058   2.910   3.252 -0.7567 -0.3042 -0.6255
  939MOL0     H26698   0.714   3.181   2.962 -0.9204 -2.7603  1.7668
  939MOL0     H26699   0.574   3.313   2.824  0.8559 -0.9204  0.6847
  939MOL0     H26700   0.352   3.087   2.499 -1.3290 -3.9037  3.7249
  939MOL0     H26701   0.223   3.128   2.614  1.3433 -0.6604  1.8532
  939MOL0     H26702   0.228   3.361   2.488 -0.0710 -1.1371  1.0694
  939MOL0     H26703   0.210   3.217   2.371 -0.1408  0.2893  0.2808
  939MOL0     H26704   0.435   3.201   2.329  0.7986  0.0789  0.1524
  939MOL0     H26705   0.471   3.357   2.413  0.6792 -0.8476 -0.3700
  939MOL0     H26706   0.459   3.350   2.166  1.4532 -0.8503  2.3832
  939MOL0     H26707   0.282   3.337   2.165  0.7664  4.5460 -4.4501
  939MOL0     H26708   0.275   3.551   2.306 -2.4159  1.5170 -2.3363
  939MOL0     H26709   0.440   3.567   2.278  0.7441 -0.9046 -2.1819
  939MOL0     H26710   0.406   3.569   2.029 -1.5601  2.3259 -1.4898
  939MOL0     H26711   0.235   3.540   2.043  1.2336 -2.8971 -1.3025
  939MOL0     H26712   0.306   3.790   2.007 -1.2545 -1.6055 -0.2516
  939MOL0     H26713   0.378   3.782   2.168 -2.2065 -1.1755  4.3138
  939MOL0     H26714   0.087   3.724   2.110  0.5060  1.1297 -1.0976
  939MOL0     H26715   0.167   3.730   2.277 -0.9216  1.6776  0.2110
  939MOL0     H26716  -0.008   3.970   2.066  0.5130  1.8363 -1.7104
  939MOL0     H26717   0.115   4.335   2.220  1.2252 -1.0639  1.3584
  939MOL0     H26718   0.112   4.285   2.049  0.6367 -1.1752  1.0124
  939MOL0     H26719  -0.100   4.401   2.120 -2.1830  1.3222  1.8797
  939MOL0     H26720  -0.140   4.235   2.064  0.4205 -3.6234  1.6373
  939MOL0     H26721  -0.098   4.297   2.351  1.2812  1.9583 -0.7176
  939MOL0     H26722  -0.157   4.153   2.267  3.4241  0.7711 -2.8480
  939MOL0     H26723  -0.360   4.226   2.319 -3.2850  1.9583 -0.6159
  939MOL0     H26724  -0.358   4.300   2.173  0.3147  0.3200  0.2674
  939MOL0     H26725  -0.238   4.633   2.461 -0.0678 -0.4181 -0.6548
  939MOL0     H26726  -0.306   4.667   2.701 -0.3343  0.3204 -0.3920
  939MOL0     H26727  -0.773   4.619   2.941  0.8217  1.5767  1.0527
  939MOL0     H26728  -0.880   4.661   3.180 -0.1801 -0.0066 -0.2948
  939MOL0     H26729  -0.849   4.694   3.418  1.8326 -1.6550 -1.2597
  939MOL0     H26730  -0.987   4.589   3.381  0.5638  2.1724 -0.5497
  939MOL0     H26731  -0.965   4.513   3.636  3.6614 -2.2591  1.5769
  939MOL0     H26732  -0.816   4.587   3.642 -1.4302 -1.4508  2.0071
  939MOL0     H26733  -0.994   4.710   3.749 -1.1582  2.5224 -0.3894
  939MOL0     H26734  -0.893   4.800   3.636 -0.9253 -0.1736  2.2664
  939MOL0     H26735  -1.158   4.700   3.527 -0.5913  0.6944 -2.0698
  939MOL0     H26736  -1.063   4.832   3.481 -2.1898 -0.2489 -2.2007
  939MOL0     H26737  -1.118   4.937   3.706  3.2084 -1.2229 -2.5507
  939MOL0     H26738  -1.207   4.793   3.740 -3.6786  2.0050  2.1314
  939MOL0     H26739  -1.319   4.994   3.536 -0.5884  2.3020  2.4485
  939MOL0     H26740  -1.370   4.831   3.552  3.2808 -2.5077  0.6639
  939MOL0     H26741  -1.372   5.056   3.783 -0.2874 -1.2825 -0.0944
  939MOL0     H26742  -1.437   4.893   3.790 -1.9269 -0.6887  0.2548
  939MOL0     H26743  -1.554   5.129   3.718  0.8857 -0.5283  1.9733
  939MOL0     H26744  -1.531   5.063   3.560 -0.3332  2.6197  1.3615
  939MOL0     H26745  -0.644   4.330   3.312  1.3080 -3.6882 -3.7312
  939MOL0     H26746  -0.513   4.330   3.114 -0.8414 -1.2523 -0.4695
  939MOL0     H26747  -0.591   4.343   2.677  0.3424 -2.4826 -0.4275
  939MOL0     H26748  -0.511   4.295   2.452  0.1331 -0.5209  0.7332
  939MOL0     H26749   0.375   2.960   2.678 -1.5378 -0.4548  2.9957
  939MOL0     H26750   0.553   2.836   2.807 -0.4471 -0.5278  0.5106
  939MOL0     H26751   0.663   2.692   3.103 -0.5044 -0.2461  0.0626
  939MOL0     H26752   0.714   2.504   3.251 -0.7480  0.7388 -0.3704
  939MOL0     H26753   1.131   2.423   3.313  0.1326 -1.4084 -0.1521
  939MOL0     H26754   0.999   2.389   3.200 -0.3408 -3.2200  0.7239
  939MOL0     H26755   0.938   2.192   3.285  0.3492 -1.4148  0.5790
  939MOL0     H26756   1.001   2.229   3.441 -0.9893 -0.4167 -0.1264
  939MOL0     H26757   1.231   2.209   3.330 -0.8977  2.1744  1.9525
  939MOL0     H26758   1.157   2.193   3.176  1.0457 -0.4239  0.2707
  939MOL0     H26759   1.100   1.993   3.408  2.7344 -0.6729  0.5510
  939MOL0     H26760   1.081   1.967   3.234  2.0895 -0.6488 -0.7806
  939MOL0     H26761   1.487   1.892   3.262  0.4585  0.9790  1.4961
  939MOL0     H26762   1.074   2.680   3.380  0.7342 -2.0679 -0.1674
  939MOL0     H26763   1.134   2.881   3.325 -2.3578  0.3599  1.4019
  939MOL0     H26764   1.101   2.933   3.154 -0.0751 -0.9229 -0.4773
  939MOL0     H26765   1.009   3.002   3.286  1.4055  0.3917  0.8118
  940MOL0     O26766   5.795   3.262   4.308 -0.9578 -0.4664 -0.0085
  940MOL0     C26767   5.868   3.311   4.220 -0.5180 -0.5465 -0.4085
  940MOL0     O26768   5.974   3.397   4.253  0.5198 -0.6789  0.0937
  940MOL0     C26769   5.978   3.432   4.389  0.0272 -0.2117  0.3786
  940MOL0     C26770   5.879   3.531   4.422 -0.1238  0.4713  0.0892
  940MOL0     C26771   5.870   3.584   4.543 -0.8051 -1.0191 -0.0642
  940MOL0     C26772   5.970   3.552   4.635 -0.1697 -0.2346 -0.6295
  940MOL0     O26773   5.957   3.625   4.755 -0.3966 -0.6481  0.7150
  940MOL0     C26774   6.071   3.658   4.830 -0.9976  0.0045 -0.2514
  940MOL0     C26775   6.081   3.808   4.857  0.4263  0.0604 -0.5469
  940MOL0     C26776   6.200   3.853   4.936 -0.0395  0.4615  0.4063
  940MOL0     C26777   6.197   3.998   4.980  0.2261 -0.7701  0.2473
  940MOL0     C26778   6.310   4.058   5.063 -0.1942  0.5315 -1.0531
  940MOL0     C26779   6.454   4.020   5.006  0.5275  0.1819 -0.2163
  940MOL0     C26780   6.576   4.073   5.094  0.4369 -0.4822 -0.3278
  940MOL0     C26781   6.582   4.230   5.108  0.3616  0.0161  0.1773
  940MOL0     N26782   6.675   4.264   5.211 -0.0838  0.1827  0.1857
  940MOL0     C26783   6.647   4.267   5.349 -0.1308 -0.3126  0.7742
  940MOL0     C26784   6.752   4.322   5.411  0.3882  0.1356 -0.9453
  940MOL0     C26785   6.752   4.353   5.554 -0.7671  0.3055  0.0924
  940MOL0     C26786   6.837   4.269   5.649 -0.0727 -0.2021  0.4416
  940MOL0     C26787   6.984   4.321   5.662 -0.0721 -0.3529  0.9612
  940MOL0     C26788   7.009   4.427   5.768 -0.1601  0.2757 -0.4894
  940MOL0     O26789   6.939   4.546   5.740  0.5242 -0.0548 -0.5475
  940MOL0     C26790   6.952   4.647   5.831 -1.7820  1.3071 -0.4564
  940MOL0     C26791   7.051   4.642   5.933  0.6836  0.2788  0.3276
  940MOL0     C26792   7.079   4.758   6.005 -0.1015 -0.0935 -0.2053
  940MOL0     C26793   6.988   4.862   6.014 -1.4698 -0.3259  0.2585
  940MOL0     C26794   7.019   4.980   6.105  1.0510  0.6897  0.4958
  940MOL0     O26795   7.132   4.980   6.181  0.2190 -0.2050 -0.3548
  940MOL0     C26796   7.137   5.094   6.264  0.1742 -0.1672 -1.2221
  940MOL0     C26797   7.137   5.066   6.404 -0.4332  0.5228  0.4209
  940MOL0     C26798   7.145   5.162   6.507 -0.2179  0.6405  0.1829
  940MOL0     C26799   7.146   5.298   6.465 -0.3206  0.1928 -0.2257
  940MOL0     O26800   7.171   5.387   6.570 -0.0604 -0.1455  0.0856
  940MOL0     C26801   7.105   5.516   6.566  0.4040  0.9118  0.1680
  940MOL0     C26802   6.959   5.506   6.622 -1.0246  0.0495 -0.0931
  940MOL0     C26803   6.874   5.634   6.573 -0.3428  0.1481 -0.0812
  940MOL0     C26804   6.918   5.776   6.627 -0.1257  0.3042  0.7901
  940MOL0     C26805   6.830   5.889   6.597 -0.5643  0.3160 -0.3126
  940MOL0     C26806   6.710   5.891   6.703 -0.9183 -0.4187  1.1671
  940MOL0     C26807   6.639   6.025   6.680 -0.8160  1.3067  0.5154
  940MOL0     C26808   6.496   6.029   6.747 -1.1079 -0.0849 -0.5706
  940MOL0    Cl26809   6.495   6.058   6.932  0.0784  0.1742  0.0374
  940MOL0     C26810   7.160   5.330   6.333  0.2820  0.0950  0.8979
  940MOL0     C26811   7.157   5.229   6.230  0.6739  0.3285  0.0088
  940MOL0     O26812   6.938   5.068   6.103  0.7814  0.0597  0.9709
  940MOL0     C26813   6.885   4.860   5.915 -0.3741  0.3993  0.9249
  940MOL0     C26814   6.867   4.756   5.827  0.3529 -0.3654 -0.7323
  940MOL0     N26815   6.846   4.353   5.310 -0.7872 -0.4709 -0.6437
  940MOL0     N26816   6.787   4.340   5.194 -0.6601  0.2075  0.3543
  940MOL0     C26817   6.068   3.454   4.602  0.1023 -0.4529 -0.1555
  940MOL0     C26818   6.074   3.400   4.477 -0.3351  0.7910 -0.4017
  940MOL0     C26819   5.836   3.282   4.077  0.7326  0.3892 -0.2081
  940MOL0     C26820   5.721   3.198   4.051 -0.6575  0.4926 -0.5943
  940MOL0     C26821   5.679   3.176   3.923  0.1329  0.6110 -0.6589
  940MOL0     C26822   5.736   3.231   3.808 -0.3734 -0.2178 -0.2803
  940MOL0     O26823   5.715   3.194   3.671  0.5414 -0.5506  0.2064
  940MOL0     C26824   5.702   3.054   3.637 -0.6424  0.7116 -0.8110
  940MOL0     C26825   5.709   3.030   3.484  0.6558  0.9680 -1.0237
  940MOL0     C26826   5.821   3.105   3.418  0.5395 -0.1593 -0.1575
  940MOL0     C26827   5.862   3.060   3.275  0.1104  0.3339  0.7561
  940MOL0     C26828   5.749   3.069   3.188 -0.0122 -0.1354  0.3787
  940MOL0     C26829   5.634   3.074   3.138 -0.9368 -0.2311  0.9760
  940MOL0     C26830   5.848   3.311   3.838 -0.3889  0.4049  0.0573
  940MOL0     C26831   5.901   3.340   3.969  0.0050  0.2531  0.4524
  940MOL0     C26832   6.025   3.418   3.975 -0.3312 -0.3005 -0.4430
  940MOL0     H26833   5.792   3.554   4.361 -0.6097 -1.7213 -0.1152
  940MOL0     H26834   5.792   3.657   4.560 -0.6379 -0.5015 -1.4411
  940MOL0     H26835   6.066   3.609   4.927 -1.5329  2.8992  1.3198
  940MOL0     H26836   6.162   3.641   4.772 -2.0036  0.1924 -1.9696
  940MOL0     H26837   5.990   3.850   4.901 -0.0404 -2.3931  0.9845
  940MOL0     H26838   6.092   3.853   4.757 -0.4802 -3.7337 -2.5501
  940MOL0     H26839   6.293   3.835   4.880  1.1906  1.4474  2.0159
  940MOL0     H26840   6.213   3.788   5.023  3.0805  0.9758  0.4500
  940MOL0     H26841   6.190   4.064   4.893 -3.2817  1.0918  1.7330
  940MOL0     H26842   6.101   4.012   5.030  0.1184  0.0447 -0.1700
  940MOL0     H26843   6.296   4.167   5.063 -0.1853  0.5633  0.9975
  940MOL0     H26844   6.292   4.016   5.162 -2.8366  2.6346 -0.5270
  940MOL0     H26845   6.460   3.911   4.999  1.2726  0.2763 -1.2355
  940MOL0     H26846   6.455   4.051   4.901 -0.8555  2.4430  0.3726
  940MOL0     H26847   6.664   4.036   5.042  1.2155 -3.3735  2.7008
  940MOL0     H26848   6.579   4.021   5.190 -1.3056 -1.2537 -0.6529
  940MOL0     H26849   6.603   4.295   5.024  0.1347 -2.0287 -1.5497
  940MOL0     H26850   6.483   4.252   5.149 -0.7969 -3.6028 -0.3145
  940MOL0     H26851   6.557   4.233   5.399 -0.7015  1.9873  1.4133
  940MOL0     H26852   6.786   4.457   5.556  1.0566 -0.2506 -0.3029
  940MOL0     H26853   6.649   4.340   5.591 -1.0865  1.2360 -0.4420
  940MOL0     H26854   6.800   4.272   5.752 -0.2842 -3.0184  0.5450
  940MOL0     H26855   6.828   4.165   5.617 -2.8512  0.0021  0.2481
  940MOL0     H26856   7.016   4.345   5.560 -2.4410  1.2504  0.5007
  940MOL0     H26857   7.045   4.235   5.689  0.7896 -0.7066 -1.7624
  940MOL0     H26858   7.117   4.442   5.768  0.1992 -1.9077 -1.3257
  940MOL0     H26859   6.982   4.376   5.861 -0.0597 -0.4343 -0.8399
  940MOL0     H26860   7.115   4.556   5.949 -0.6993 -1.6700 -3.3825
  940MOL0     H26861   7.167   4.765   6.068  0.8808 -2.0472 -1.2786
  940MOL0     H26862   7.122   4.961   6.427 -0.3013  0.1936 -0.9122
  940MOL0     H26863   7.148   5.148   6.615  1.5416 -0.9008 -0.0047
  940MOL0     H26864   7.159   5.584   6.633  0.9527  2.6236 -1.8757
  940MOL0     H26865   7.099   5.552   6.463  1.2631 -2.0587 -1.0113
  940MOL0     H26866   6.913   5.412   6.589 -1.5172  1.1283 -2.7450
  940MOL0     H26867   6.948   5.503   6.731 -0.1574  0.2864  0.0093
  940MOL0     H26868   6.868   5.642   6.464 -2.4017  3.7678  0.1381
  940MOL0     H26869   6.771   5.618   6.603 -0.4260  1.8870  0.6768
  940MOL0     H26870   7.012   5.803   6.579 -2.7448  3.0232 -3.5405
  940MOL0     H26871   6.938   5.772   6.735  1.3473  2.5350  0.6657
  940MOL0     H26872   6.780   5.881   6.499  0.6940  3.9969 -1.4324
  940MOL0     H26873   6.888   5.982   6.596  0.6447 -0.4099 -1.8518
  940MOL0     H26874   6.641   5.809   6.679  0.1020 -0.3745 -2.4709
  940MOL0     H26875   6.745   5.887   6.807 -0.9748 -0.2401  1.1922
  940MOL0     H26876   6.629   6.050   6.574 -3.6880  3.2464  1.1199
  940MOL0     H26877   6.699   6.103   6.728 -1.8840  1.6760  1.3077
  940MOL0     H26878   6.440   6.111   6.699 -0.8640  0.5437  0.1999
  940MOL0     H26879   6.433   5.941   6.728 -0.0406 -1.0891  0.4217
  940MOL0     H26880   7.175   5.436   6.318  0.4314 -0.1859 -1.2447
  940MOL0     H26881   7.179   5.249   6.126  2.1587 -1.7916 -0.1464
  940MOL0     H26882   6.816   4.943   5.923 -1.1832 -0.3776  2.5183
  940MOL0     H26883   6.789   4.749   5.753  0.2079 -0.5805 -0.5590
  940MOL0     H26884   6.156   3.428   4.660  1.0301  1.1483 -0.7908
  940MOL0     H26885   6.164   3.342   4.458  1.2252  2.3662  1.6200
  940MOL0     H26886   5.672   3.151   4.135 -1.9151 -1.4079 -2.2838
  940MOL0     H26887   5.590   3.117   3.904  0.9346  0.1686 -3.6140
  940MOL0     H26888   5.601   3.021   3.661  0.1531 -2.0010 -0.8963
  940MOL0     H26889   5.778   2.993   3.686 -1.9634  0.8652  1.5499
  940MOL0     H26890   5.608   3.053   3.450  0.5545  2.1715  0.0298
  940MOL0     H26891   5.728   2.922   3.474 -0.7899  0.1042  3.4561
  940MOL0     H26892   5.913   3.112   3.477  0.7995 -0.7710 -0.4841
  940MOL0     H26893   5.793   3.211   3.421 -1.4036 -0.6535  0.1444
  940MOL0     H26894   5.948   3.119   3.243 -0.3711 -0.5901 -2.6360
  940MOL0     H26895   5.903   2.959   3.287  2.3728  0.6206 -3.0072
  940MOL0     H26896   5.536   3.068   3.095  0.0665 -0.7122 -1.4033
  940MOL0     H26897   5.898   3.353   3.751  1.5378 -0.5101  0.6918
  940MOL0     H26898   6.088   3.409   3.887  3.0223 -0.5061  1.7858
  940MOL0     H26899   6.000   3.523   3.994  0.2654  0.0208 -1.3862
  940MOL0     H26900   6.092   3.378   4.052  0.1708  0.6486 -0.3756
  941MOL0     O26901   3.587  11.161   6.423 -0.0900 -0.5659 -1.1519
  941MOL0     C26902   3.584  11.164   6.549  0.5237  0.1201  0.8120
  941MOL0     O26903   3.484  11.219   6.627  0.4451 -0.2306  0.0947
  941MOL0     C26904   3.349  11.213   6.600  0.4349  0.0375  0.1773
  941MOL0     C26905   3.260  11.127   6.662 -0.3854  0.2099  0.2236
  941MOL0     C26906   3.129  11.097   6.615  1.1587 -0.3627  0.1089
  941MOL0     C26907   3.085  11.178   6.506  0.7388 -0.1279 -0.3003
  941MOL0     O26908   2.950  11.158   6.481 -0.1750 -0.4305 -0.1043
  941MOL0     C26909   2.900  11.225   6.364 -0.1225 -0.5907 -1.0255
  941MOL0     C26910   2.751  11.187   6.352 -0.2353 -0.4315 -0.1438
  941MOL0     C26911   2.718  11.042   6.370  0.8250  0.3477 -0.1180
  941MOL0     C26912   2.568  11.013   6.335 -0.8563  0.2125  0.1497
  941MOL0     C26913   2.527  10.864   6.322 -0.3111 -0.0762 -0.0681
  941MOL0     C26914   2.384  10.849   6.380 -0.5077 -0.0815 -0.6657
  941MOL0     C26915   2.297  10.753   6.291  0.0226 -0.1893 -0.6201
  941MOL0     C26916   2.151  10.763   6.332  0.3571  0.2133  0.1244
  941MOL0     N26917   2.064  10.655   6.280 -0.1413  0.6199  0.7617
  941MOL0     C26918   1.927  10.639   6.304  0.9368 -0.1748 -0.4147
  941MOL0     C26919   1.894  10.534   6.225  0.6146 -0.6017 -1.1668
  941MOL0     C26920   1.748  10.477   6.227 -0.7154  0.2124 -0.5369
  941MOL0     C26921   1.699  10.439   6.368  0.3196 -0.1101  0.1738
  941MOL0     C26922   1.735  10.300   6.404  0.6268  0.1774  0.2452
  941MOL0     C26923   1.884  10.276   6.412  1.3739 -0.5664 -0.3563
  941MOL0     O26924   1.935  10.340   6.532 -0.3494 -1.0934 -0.5163
  941MOL0     C26925   2.070  10.368   6.524 -0.2095  0.6980  0.3615
  941MOL0     C26926   2.120  10.453   6.628  1.2098 -0.0845  0.4345
  941MOL0     C26927   2.244  10.492   6.626  0.6005  0.7548 -0.1260
  941MOL0     C26928   2.339  10.448   6.537  0.3155  0.3870  0.0976
  941MOL0     C26929   2.476  10.502   6.531  0.2976  0.2576 -0.6164
  941MOL0     O26930   2.510  10.578   6.644  0.4299  0.4379  0.6722
  941MOL0     C26931   2.638  10.604   6.686  0.2065 -0.9207  0.0665
  941MOL0     C26932   2.678  10.739   6.677  0.1224  0.5992  0.9081
  941MOL0     C26933   2.809  10.771   6.705  1.3371 -0.1605  0.3928
  941MOL0     C26934   2.900  10.677   6.751 -0.3945 -0.4826  0.3182
  941MOL0     O26935   3.019  10.731   6.775  0.0275  0.0503 -0.0533
  941MOL0     C26936   3.137  10.669   6.732 -0.2581  0.4192 -0.1389
  941MOL0     C26937   3.231  10.784   6.688  0.1541  0.0850 -0.1267
  941MOL0     C26938   3.375  10.747   6.638 -0.8241  0.5671  0.4220
  941MOL0     C26939   3.369  10.707   6.488 -0.1788 -0.0248 -0.3743
  941MOL0     C26940   3.507  10.700   6.413 -0.9670  0.8910  0.4283
  941MOL0     C26941   3.492  10.627   6.278 -0.7563 -0.0621  0.1175
  941MOL0     C26942   3.626  10.634   6.198  0.1622 -0.2212  0.2415
  941MOL0     C26943   3.624  10.557   6.066 -0.4266 -0.1212  0.5289
  941MOL0    Cl26944   3.522  10.645   5.940 -0.3496 -0.5485  0.0668
  941MOL0     C26945   2.866  10.542   6.749 -0.7844 -0.5225 -0.2937
  941MOL0     C26946   2.730  10.504   6.713 -0.5004 -0.1610  0.6256
  941MOL0     O26947   2.552  10.485   6.440  0.1993 -0.9048  0.1515
  941MOL0     C26948   2.289  10.381   6.424  0.0145 -0.5611 -0.1421
  941MOL0     C26949   2.159  10.332   6.423  0.1081 -0.0176  0.6289
  941MOL0     N26950   2.010  10.472   6.176 -0.4258 -1.2583  0.7097
  941MOL0     N26951   2.108  10.556   6.195  0.3202 -0.8875  0.5602
  941MOL0     C26952   3.171  11.255   6.439 -0.7968 -0.0533  0.2141
  941MOL0     C26953   3.306  11.285   6.486 -0.5740  0.0797 -0.6995
  941MOL0     C26954   3.712  11.128   6.625  0.4885  1.1786  0.4081
  941MOL0     C26955   3.836  11.116   6.547 -0.4231 -0.2140 -0.9075
  941MOL0     C26956   3.953  11.078   6.607  0.0527 -0.8162  0.3241
  941MOL0     C26957   3.947  11.044   6.739 -0.6632  0.3690 -1.2848
  941MOL0     O26958   4.067  11.011   6.794  0.3459  0.2434 -0.2073
  941MOL0     C26959   4.080  10.940   6.918 -0.5810  0.1056  0.5523
  941MOL0     C26960   4.224  10.896   6.932 -0.2813 -0.0689 -0.3299
  941MOL0     C26961   4.239  10.779   7.028  0.2296  0.6911 -0.2745
  941MOL0     C26962   4.189  10.818   7.175  0.1766  0.6490  0.2767
  941MOL0     C26963   4.045  10.784   7.203  0.1984  0.9122  0.6986
  941MOL0     C26964   3.929  10.759   7.242  0.8205 -0.5520  0.0008
  941MOL0     C26965   3.828  11.048   6.812 -1.5531  0.0422 -0.0129
  941MOL0     C26966   3.711  11.094   6.759  0.5528 -0.2065 -1.1283
  941MOL0     C26967   3.596  11.101   6.858 -0.0395 -0.9296 -0.3405
  941MOL0     H26968   3.300  11.071   6.746 -2.3520  2.4128  2.7740
  941MOL0     H26969   3.052  11.041   6.667  0.9330  0.0059  0.1743
  941MOL0     H26970   2.919  11.333   6.372  0.5401 -0.8467  1.9698
  941MOL0     H26971   2.955  11.201   6.273  2.1520 -2.6136  0.7502
  941MOL0     H26972   2.720  11.227   6.255 -0.7129 -1.0768 -0.2617
  941MOL0     H26973   2.706  11.244   6.433 -1.3319  1.0635 -1.7335
  941MOL0     H26974   2.732  11.016   6.475  3.2926 -2.2029 -0.9621
  941MOL0     H26975   2.786  10.972   6.320 -0.5400  0.3223 -2.0404
  941MOL0     H26976   2.512  11.079   6.402  3.3906  3.4361  0.9203
  941MOL0     H26977   2.538  11.041   6.234 -0.5643 -0.1585 -0.0410
  941MOL0     H26978   2.521  10.838   6.216 -0.1429  0.2245 -0.1512
  941MOL0     H26979   2.592  10.796   6.377 -2.4546  0.0277  2.8329
  941MOL0     H26980   2.402  10.826   6.485  1.0718  2.1490 -0.3940
  941MOL0     H26981   2.323  10.940   6.377 -0.4307  0.0642  1.2276
  941MOL0     H26982   2.318  10.646   6.299 -1.3107 -0.4814 -0.7954
  941MOL0     H26983   2.292  10.786   6.186  1.3063 -0.8979 -0.9253
  941MOL0     H26984   2.141  10.756   6.440 -0.8210  0.7209  0.0704
  941MOL0     H26985   2.114  10.859   6.295  2.1426  0.0195 -2.4518
  941MOL0     H26986   1.868  10.692   6.378 -0.4102 -3.0095  0.6884
  941MOL0     H26987   1.676  10.548   6.185 -1.6753  1.9462  3.4914
  941MOL0     H26988   1.761  10.386   6.168 -1.2207 -2.3690  2.9888
  941MOL0     H26989   1.721  10.509   6.450  0.9381 -2.7908  2.4537
  941MOL0     H26990   1.590  10.445   6.366  0.0214 -1.3383  3.8972
  941MOL0     H26991   1.688  10.247   6.320  2.3416 -1.5987  0.3447
  941MOL0     H26992   1.691  10.266   6.498 -1.3647 -0.6214 -0.9010
  941MOL0     H26993   1.926  10.297   6.314 -0.6325 -0.4272 -1.2344
  941MOL0     H26994   1.908  10.171   6.430 -0.4971 -0.5411  3.2706
  941MOL0     H26995   2.056  10.492   6.707  1.6268  0.1643  0.6520
  941MOL0     H26996   2.274  10.547   6.714  0.1661  0.3795  0.2637
  941MOL0     H26997   2.608  10.819   6.659  0.6526  1.7740  3.5465
  941MOL0     H26998   2.834  10.876   6.700 -0.2054  0.2194 -0.1600
  941MOL0     H26999   3.204  10.621   6.804 -0.6478 -2.0943 -1.3666
  941MOL0     H27000   3.129  10.601   6.647  5.0683 -0.8617  0.0408
  941MOL0     H27001   3.189  10.845   6.608  2.1667  0.0409 -1.2770
  941MOL0     H27002   3.241  10.854   6.772 -1.8242  1.0064 -0.5924
  941MOL0     H27003   3.431  10.839   6.655 -0.5999  0.1420  2.0992
  941MOL0     H27004   3.418  10.676   6.709 -1.9256  3.3125  4.1148
  941MOL0     H27005   3.310  10.782   6.435  0.4956  0.0614 -1.0217
  941MOL0     H27006   3.308  10.617   6.474  0.1697 -0.1362 -1.2311
  941MOL0     H27007   3.566  10.641   6.484 -0.3712 -1.1158 -1.6203
  941MOL0     H27008   3.551  10.795   6.381 -0.6603  0.8672  0.7615
  941MOL0     H27009   3.467  10.527   6.315 -1.9892  0.3566  0.4282
  941MOL0     H27010   3.411  10.675   6.223 -2.1850 -0.3061  1.9002
  941MOL0     H27011   3.698  10.577   6.257  0.0851 -3.7514 -2.6997
  941MOL0     H27012   3.679  10.728   6.180 -1.6194  0.5517 -1.4367
  941MOL0     H27013   3.723  10.544   6.021 -0.1469 -3.8732  1.8278
  941MOL0     H27014   3.565  10.465   6.080 -2.6506  1.2043  0.3477
  941MOL0     H27015   2.932  10.466   6.790 -1.1171 -0.4859  0.3179
  941MOL0     H27016   2.693  10.402   6.705 -4.9318  1.0168  2.8780
  941MOL0     H27017   2.363  10.339   6.356  0.9949  0.2174  0.3967
  941MOL0     H27018   2.139  10.264   6.342 -0.3280  1.0074 -0.1460
  941MOL0     H27019   3.151  11.303   6.344  3.7905  2.1400  0.0772
  941MOL0     H27020   3.368  11.351   6.427 -0.2678 -0.3639 -0.8771
  941MOL0     H27021   3.847  11.130   6.440  1.3656  0.1132 -0.7223
  941MOL0     H27022   4.054  11.066   6.570  0.4148  1.7815  0.2904
  941MOL0     H27023   4.004  10.863   6.933 -1.1081  0.3947 -0.5149
  941MOL0     H27024   4.072  11.009   7.002  3.8771 -0.0628  1.3464
  941MOL0     H27025   4.281  10.985   6.961  0.3936 -1.2125  2.0871
  941MOL0     H27026   4.258  10.854   6.837  1.1640 -0.8822  0.5137
  941MOL0     H27027   4.344  10.752   7.043 -0.6211 -3.0408  0.0582
  941MOL0     H27028   4.193  10.693   6.979  1.4076  0.3093 -0.7398
  941MOL0     H27029   4.256  10.771   7.247 -1.0505  2.2241  2.5830
  941MOL0     H27030   4.198  10.926   7.189 -0.0844  0.5546  1.2046
  941MOL0     H27031   3.830  10.741   7.277 -0.4850  3.9376 -0.7724
  941MOL0     H27032   3.823  11.005   6.912  1.1487 -0.3277  0.0517
  941MOL0     H27033   3.558  11.204   6.864  0.2379 -0.8627  0.3496
  941MOL0     H27034   3.511  11.037   6.830  0.1656  0.1331 -3.8636
  941MOL0     H27035   3.637  11.086   6.958  1.5212  1.9885 -0.4462
  942MOL0     O27036   5.854   1.610   0.908  0.1485 -0.2154 -0.3177
  942MOL0     C27037   5.810   1.500   0.884 -0.2499 -0.1267 -0.6183
  942MOL0     O27038   5.865   1.384   0.937  0.5801 -0.3034 -0.3262
  942MOL0     C27039   5.967   1.400   1.016 -0.8856 -0.7476 -0.0412
  942MOL0     C27040   5.970   1.321   1.137  0.5191 -0.0633 -0.4692
  942MOL0     C27041   6.073   1.321   1.229 -0.2425 -0.4419  0.0619
  942MOL0     C27042   6.189   1.395   1.201 -0.5370  0.7872 -0.4505
  942MOL0     O27043   6.304   1.408   1.278 -0.3836  0.3801 -0.1190
  942MOL0     C27044   6.308   1.341   1.409  0.3324 -0.0264  0.2942
  942MOL0     C27045   6.459   1.312   1.451  0.5953 -0.0802  0.5576
  942MOL0     C27046   6.531   1.229   1.344 -0.1005 -0.5465 -1.2450
  942MOL0     C27047   6.682   1.209   1.387  0.6267 -0.0529 -0.0444
  942MOL0     C27048   6.756   1.131   1.282  0.6200 -0.3164  0.3784
  942MOL0     C27049   6.907   1.120   1.312 -0.0095 -0.1765  0.8302
  942MOL0     C27050   6.985   1.047   1.193 -0.6376  0.1653  0.0753
  942MOL0     C27051   7.134   1.062   1.207 -0.7634 -0.1049  0.6278
  942MOL0     N27052   7.210   0.990   1.101  0.0037  0.5065  0.4133
  942MOL0     C27053   7.231   1.032   0.968 -0.4002 -0.1034  0.1924
  942MOL0     C27054   7.327   0.947   0.914  0.4159  0.1843  0.3480
  942MOL0     C27055   7.395   0.952   0.783 -0.1048  0.9247 -0.4943
  942MOL0     C27056   7.522   0.873   0.780  0.1725  0.0593 -0.7884
  942MOL0     C27057   7.610   0.920   0.657  0.4625 -0.1753  0.3902
  942MOL0     C27058   7.750   0.860   0.649  0.4722  0.1881 -0.5191
  942MOL0     O27059   7.847   0.946   0.585  0.1115  0.7105 -0.5866
  942MOL0     C27060   7.954   0.893   0.516 -0.9608  0.9608 -0.7393
  942MOL0     C27061   7.932   0.803   0.417  0.4221  0.4468  0.9193
  942MOL0     C27062   8.038   0.764   0.332  0.3360 -0.3847  0.0030
  942MOL0     C27063   8.164   0.799   0.359 -0.6048 -0.0427 -0.0966
  942MOL0     C27064   8.276   0.750   0.273  0.4821  0.0380  0.3970
  942MOL0     O27065   8.401   0.742   0.330  0.2217 -0.1212  0.4099
  942MOL0     C27066   8.493   0.659   0.259 -0.3333 -0.0131 -0.5603
  942MOL0     C27067   8.473   0.520   0.256  0.6150 -0.6545  0.4136
  942MOL0     C27068   8.561   0.429   0.195 -0.5728 -0.0667 -0.7286
  942MOL0     C27069   8.667   0.478   0.129 -0.2068  0.1952  0.5905
  942MOL0     O27070   8.752   0.386   0.069 -0.4844 -0.1080 -1.1657
  942MOL0     C27071   8.847   0.450  -0.022 -0.5479  1.1341 -0.6587
  942MOL0     C27072   8.939   0.336  -0.076  0.2294  0.4721 -0.6410
  942MOL0     C27073   9.042   0.300   0.031 -0.9715  0.2256 -1.2133
  942MOL0     C27074   9.159   0.213  -0.019 -0.1882  0.1391  0.4902
  942MOL0     C27075   9.213   0.119   0.080 -0.0648 -0.6856 -0.5161
  942MOL0     C27076   9.339   0.035   0.027 -0.1139  0.0573 -0.5494
  942MOL0     C27077   9.414  -0.041   0.138 -0.4789 -0.5973  0.2967
  942MOL0     C27078   9.522  -0.133   0.095  0.6074  0.2748  0.9239
  942MOL0    Cl27079   9.479  -0.302   0.165 -0.0733  0.1729 -0.2030
  942MOL0     C27080   8.690   0.614   0.122 -0.2790 -0.9339 -0.1418
  942MOL0     C27081   8.609   0.700   0.191  0.0753  0.0442  0.5058
  942MOL0     O27082   8.251   0.714   0.155 -0.2538  0.4932 -0.2561
  942MOL0     C27083   8.194   0.883   0.469 -0.1467  0.0367  0.6758
  942MOL0     C27084   8.086   0.934   0.541  0.8466  0.9810  0.1078
  942MOL0     N27085   7.349   0.846   1.008  0.3182  0.4510 -0.3175
  942MOL0     N27086   7.300   0.882   1.127  1.1178 -0.3404  0.9468
  942MOL0     C27087   6.187   1.462   1.085 -0.0528 -1.3806 -0.4226
  942MOL0     C27088   6.087   1.469   0.990  0.0806 -0.2130 -0.2881
  942MOL0     C27089   5.692   1.501   0.788 -0.7718  0.4824  0.6331
  942MOL0     C27090   5.622   1.619   0.773 -0.3769 -0.0937 -0.2449
  942MOL0     C27091   5.511   1.627   0.682  0.5470 -0.4033 -0.1801
  942MOL0     C27092   5.464   1.513   0.607 -0.1140 -0.0801  0.5972
  942MOL0     O27093   5.364   1.509   0.517 -0.6678  0.1297 -1.1776
  942MOL0     C27094   5.270   1.612   0.513 -0.2980  0.6413  0.3574
  942MOL0     C27095   5.320   1.725   0.413 -0.5607  0.3698  0.1504
  942MOL0     C27096   5.248   1.864   0.421  0.0676 -0.9643  0.3154
  942MOL0     C27097   5.246   1.914   0.560  0.5837 -0.6125 -0.4014
  942MOL0     C27098   5.187   2.052   0.562 -0.0983  1.0323 -0.1246
  942MOL0     C27099   5.136   2.166   0.552  0.9988 -0.6033  0.5033
  942MOL0     C27100   5.540   1.392   0.629 -0.5880  0.6513 -0.1451
  942MOL0     C27101   5.657   1.389   0.712 -0.3478 -0.3159  0.2451
  942MOL0     C27102   5.751   1.277   0.697 -0.1251  0.2023  0.2839
  942MOL0     H27103   5.884   1.256   1.155 -1.0060  2.0261  0.1982
  942MOL0     H27104   6.068   1.254   1.314 -1.3440  0.2749  0.5774
  942MOL0     H27105   6.266   1.416   1.477  1.2641  0.0323  0.8174
  942MOL0     H27106   6.254   1.246   1.417 -1.3776  0.8851  0.0937
  942MOL0     H27107   6.459   1.258   1.547 -1.4896 -0.1831  0.5413
  942MOL0     H27108   6.512   1.408   1.456  2.2951 -0.8707 -1.0211
  942MOL0     H27109   6.526   1.282   1.248  1.5801 -1.9745 -2.1815
  942MOL0     H27110   6.473   1.136   1.337 -1.2193  0.0496 -0.3036
  942MOL0     H27111   6.726   1.308   1.404  1.0458  0.5552 -3.7161
  942MOL0     H27112   6.684   1.140   1.472 -1.9208 -2.0450 -1.4459
  942MOL0     H27113   6.712   1.031   1.274 -1.2970  0.2562  2.8032
  942MOL0     H27114   6.758   1.190   1.190  2.3149 -1.0657 -0.1142
  942MOL0     H27115   6.958   1.217   1.308  3.9534 -2.0641 -3.6007
  942MOL0     H27116   6.934   1.063   1.400  1.1345 -1.8049 -0.5177
  942MOL0     H27117   6.971   1.101   1.099  4.3383 -3.2040 -3.1141
  942MOL0     H27118   6.965   0.939   1.190 -0.4341  0.1212  0.2894
  942MOL0     H27119   7.150   1.171   1.209  0.1663 -0.1157 -2.2641
  942MOL0     H27120   7.168   1.029   1.306  0.7887 -1.0014 -0.1683
  942MOL0     H27121   7.196   1.127   0.929 -0.6336  0.7889  2.4664
  942MOL0     H27122   7.318   0.924   0.710  1.4190  0.2172 -1.8923
  942MOL0     H27123   7.418   1.057   0.762  2.5776  0.5700  0.3970
  942MOL0     H27124   7.578   0.883   0.873 -2.0161  1.0241  0.5122
  942MOL0     H27125   7.506   0.765   0.771 -2.3134  0.4768 -2.3623
  942MOL0     H27126   7.613   1.029   0.649 -1.4400 -0.0195  1.1956
  942MOL0     H27127   7.566   0.880   0.565  1.5541 -0.7244  0.0964
  942MOL0     H27128   7.763   0.762   0.602 -0.1871  0.6623 -1.7240
  942MOL0     H27129   7.776   0.834   0.753 -0.0063  1.4733 -0.0572
  942MOL0     H27130   7.832   0.774   0.385  0.6228 -1.9428  2.2121
  942MOL0     H27131   8.018   0.713   0.239 -2.0302  0.6419 -0.1283
  942MOL0     H27132   8.383   0.483   0.304 -0.3756 -0.6651 -1.3861
  942MOL0     H27133   8.533   0.325   0.181  1.3595 -0.7347 -0.0076
  942MOL0     H27134   8.794   0.491  -0.109 -2.6050 -0.3880 -0.2192
  942MOL0     H27135   8.898   0.526   0.037  0.3918 -1.1993  1.7570
  942MOL0     H27136   8.884   0.248  -0.108  0.5812 -0.7711  1.9418
  942MOL0     H27137   8.995   0.384  -0.157  1.8515 -0.9063 -0.4008
  942MOL0     H27138   9.065   0.391   0.086 -2.2637  1.8070 -3.1335
  942MOL0     H27139   8.995   0.237   0.107 -1.8953 -0.0718 -2.0012
  942MOL0     H27140   9.230   0.280  -0.068 -0.7409  0.5292  0.2158
  942MOL0     H27141   9.122   0.154  -0.104 -2.1653  3.4696 -1.1420
  942MOL0     H27142   9.135   0.045   0.101  0.5245 -1.3694 -0.6665
  942MOL0     H27143   9.256   0.162   0.170  1.7563  0.5323 -1.8957
  942MOL0     H27144   9.313  -0.030  -0.057  1.0114  3.2087 -3.6010
  942MOL0     H27145   9.410   0.110  -0.009  0.9334 -1.3548 -1.4981
  942MOL0     H27146   9.343  -0.095   0.202 -0.8426  0.9419  1.2469
  942MOL0     H27147   9.461   0.037   0.199 -0.9866 -0.9959  1.2334
  942MOL0     H27148   9.520  -0.156  -0.012  3.9803 -4.3635  1.5801
  942MOL0     H27149   9.616  -0.086   0.123  1.2222 -0.2775 -0.1677
  942MOL0     H27150   8.765   0.671   0.067 -0.5274  0.7724  1.1966
  942MOL0     H27151   8.638   0.804   0.183  1.0904 -0.3182 -0.6835
  942MOL0     H27152   8.294   0.917   0.492 -0.4099  1.4043 -0.0700
  942MOL0     H27153   8.125   0.987   0.627 -2.4879  0.7635  1.9121
  942MOL0     H27154   6.284   1.501   1.054 -0.3003 -0.3615  0.0386
  942MOL0     H27155   6.110   1.507   0.892  0.4208 -2.0796 -0.9726
  942MOL0     H27156   5.639   1.707   0.834  1.7178 -1.1607  0.8256
  942MOL0     H27157   5.446   1.714   0.681 -1.3946 -1.7574 -2.5136
  942MOL0     H27158   5.251   1.650   0.614  1.3230 -2.0171  1.7977
  942MOL0     H27159   5.177   1.565   0.480  0.7213  1.4737 -4.4334
  942MOL0     H27160   5.311   1.681   0.313 -4.9472 -1.2041  0.9714
  942MOL0     H27161   5.424   1.754   0.425 -0.0066  0.1794 -3.2744
  942MOL0     H27162   5.148   1.852   0.378  1.3309 -4.0115 -2.1698
  942MOL0     H27163   5.288   1.934   0.347 -1.0421 -0.5815  0.0608
  942MOL0     H27164   5.191   1.847   0.627  1.3049 -2.3557 -1.4843
  942MOL0     H27165   5.349   1.923   0.597 -0.1293  0.7911  1.4055
  942MOL0     H27166   5.094   2.265   0.543  2.3915 -0.1399 -1.6988
  942MOL0     H27167   5.505   1.304   0.577  1.6666 -1.1846  1.2628
  942MOL0     H27168   5.859   1.285   0.708  0.3760 -1.7169 -2.3838
  942MOL0     H27169   5.715   1.203   0.769  1.0582  0.1811  0.8826
  942MOL0     H27170   5.749   1.235   0.596  0.4431  0.9828 -0.0618
  943MOL0     O27171   2.101   2.752   6.325  0.4209  0.5340  0.2176
  943MOL0     C27172   2.217   2.784   6.364  0.5139 -0.0276 -0.2507
  943MOL0     O27173   2.270   2.752   6.485 -0.3309  0.3808 -0.1029
  943MOL0     C27174   2.183   2.678   6.570  0.1944  0.2130  0.9029
  943MOL0     C27175   2.133   2.747   6.679  0.1226  0.6405 -0.5127
  943MOL0     C27176   2.051   2.670   6.773  0.2609  0.3088 -0.3414
  943MOL0     C27177   1.996   2.548   6.738  0.6759 -0.0611  0.1623
  943MOL0     O27178   1.908   2.473   6.824 -0.3402 -0.4964  0.1870
  943MOL0     C27179   1.795   2.545   6.884  0.3645 -0.3767 -0.8322
  943MOL0     C27180   1.678   2.449   6.916  0.4227 -0.5632 -0.8648
  943MOL0     C27181   1.584   2.419   6.803 -0.0149  0.3111 -0.9358
  943MOL0     C27182   1.459   2.357   6.858  0.0364  0.2001 -0.8284
  943MOL0     C27183   1.404   2.239   6.774 -0.3258  0.5911  0.3668
  943MOL0     C27184   1.486   2.113   6.776 -0.0586 -0.1805  0.0021
  943MOL0     C27185   1.404   1.988   6.739 -0.3122  0.4267 -0.4092
  943MOL0     C27186   1.492   1.869   6.721 -0.4904 -0.1948  1.8191
  943MOL0     N27187   1.535   1.834   6.859 -0.5850  0.6636  0.2323
  943MOL0     C27188   1.664   1.842   6.906  0.3474  0.0801 -0.1869
  943MOL0     C27189   1.664   1.771   7.027 -0.4577  0.3428  0.1651
  943MOL0     C27190   1.785   1.758   7.110  0.3625  0.7358 -0.4568
  943MOL0     C27191   1.891   1.868   7.099  1.0187  1.2190 -0.3340
  943MOL0     C27192   2.004   1.844   7.212  0.2396  0.1144 -0.4386
  943MOL0     C27193   2.142   1.907   7.187  0.1164 -0.2697 -0.3689
  943MOL0     O27194   2.146   2.052   7.187  0.0323  0.6944 -0.2179
  943MOL0     C27195   2.240   2.112   7.117 -0.9184 -0.3539 -0.1770
  943MOL0     C27196   2.366   2.065   7.066  0.3141  0.6118  0.1578
  943MOL0     C27197   2.442   2.156   6.994 -0.1546  0.1622 -0.3105
  943MOL0     C27198   2.400   2.288   6.971 -0.2870  0.1331 -0.0318
  943MOL0     C27199   2.484   2.393   6.908  0.5049 -0.4416  0.4176
  943MOL0     O27200   2.473   2.515   6.946 -0.0014 -0.5161  0.2426
  943MOL0     C27201   2.543   2.608   6.868 -0.3864 -0.4281 -1.1581
  943MOL0     C27202   2.677   2.645   6.898 -0.5143  0.1948 -0.6200
  943MOL0     C27203   2.735   2.764   6.843  0.5273  0.7747 -1.1849
  943MOL0     C27204   2.664   2.833   6.749  1.2484 -0.4951  0.0016
  943MOL0     O27205   2.715   2.950   6.680 -0.2322 -0.2300 -0.2233
  943MOL0     C27206   2.636   3.064   6.668  0.5514 -0.0324  0.1193
  943MOL0     C27207   2.701   3.187   6.729 -0.3766  0.8907 -0.0607
  943MOL0     C27208   2.734   3.170   6.877  0.1577 -0.0178 -0.4461
  943MOL0     C27209   2.789   3.298   6.938  0.6756  0.8460  0.6951
  943MOL0     C27210   2.814   3.270   7.085 -1.3403 -0.4279 -0.5382
  943MOL0     C27211   2.856   3.410   7.153  0.1557  0.6053 -0.1886
  943MOL0     C27212   2.877   3.386   7.298  0.1081 -0.2242 -0.9932
  943MOL0     C27213   2.933   3.514   7.358  0.9772 -0.5572 -0.0727
  943MOL0    Cl27214   2.992   3.483   7.526 -0.5693  0.2455  0.1163
  943MOL0     C27215   2.534   2.792   6.708 -0.6987 -0.7738 -0.7768
  943MOL0     C27216   2.473   2.686   6.772 -0.0200  0.0629  0.0455
  943MOL0     O27217   2.559   2.345   6.827  0.5916  0.7276  0.1440
  943MOL0     C27218   2.280   2.329   7.019  0.4023 -0.2857 -1.0077
  943MOL0     C27219   2.203   2.244   7.096 -0.1510  0.1940  0.1430
  943MOL0     N27220   1.547   1.706   7.047  0.6864 -0.3334 -0.2056
  943MOL0     N27221   1.458   1.760   6.945  0.1753 -0.8123 -0.2185
  943MOL0     C27222   2.049   2.482   6.631 -0.4083 -0.7764  0.0735
  943MOL0     C27223   2.142   2.545   6.551 -0.0390 -0.8756  0.8572
  943MOL0     C27224   2.312   2.849   6.270  0.4461  0.4500 -1.1092
  943MOL0     C27225   2.433   2.905   6.325 -0.6683 -0.7036  0.6980
  943MOL0     C27226   2.513   2.990   6.240 -0.8873 -0.0598  0.1176
  943MOL0     C27227   2.476   3.020   6.103 -0.5871  0.2279  0.1421
  943MOL0     O27228   2.548   3.101   6.017 -0.3611  0.5047  0.5385
  943MOL0     C27229   2.690   3.062   6.003 -0.0075 -0.2869 -0.3728
  943MOL0     C27230   2.715   3.095   5.856 -0.0133 -0.0092 -0.5167
  943MOL0     C27231   2.859   3.061   5.820 -0.0875  0.5894  0.2142
  943MOL0     C27232   2.880   3.064   5.677  0.3103  0.1042  0.0522
  943MOL0     C27233   3.014   3.021   5.646  0.0405  0.2151  0.2339
  943MOL0     C27234   3.137   2.988   5.643 -0.1646 -0.8782 -0.3756
  943MOL0     C27235   2.357   2.953   6.057 -0.0892 -0.1235  0.8034
  943MOL0     C27236   2.280   2.869   6.134 -0.1674 -0.0689  0.1321
  943MOL0     C27237   2.160   2.812   6.069  1.2700 -0.9024 -1.1815
  943MOL0     H27238   2.163   2.850   6.697 -0.9661  1.2609 -1.9820
  943MOL0     H27239   2.015   2.720   6.862  2.8022 -0.1034  0.9899
  943MOL0     H27240   1.839   2.572   6.981 -2.6312 -0.0205  0.5342
  943MOL0     H27241   1.765   2.637   6.833  0.4461  2.9366  4.2856
  943MOL0     H27242   1.614   2.500   6.988 -3.8951  0.3280 -4.8301
  943MOL0     H27243   1.717   2.352   6.949 -1.8895 -1.3513 -0.2270
  943MOL0     H27244   1.642   2.354   6.737  0.5834 -1.5282  1.3057
  943MOL0     H27245   1.553   2.512   6.753 -3.7495  0.4584  1.2825
  943MOL0     H27246   1.476   2.325   6.961  0.6806  1.1367 -0.6325
  943MOL0     H27247   1.388   2.439   6.873  0.5022  0.1702  2.0440
  943MOL0     H27248   1.306   2.218   6.818  0.0407  0.8452  1.3291
  943MOL0     H27249   1.392   2.263   6.668 -1.2203  0.3621  0.4125
  943MOL0     H27250   1.574   2.116   6.710  0.2012 -2.2935  0.1801
  943MOL0     H27251   1.517   2.097   6.880  1.5811 -0.3892 -0.4882
  943MOL0     H27252   1.348   2.018   6.650  0.8184  0.7561 -1.0175
  943MOL0     H27253   1.332   1.964   6.818 -0.2385  1.1794 -0.1008
  943MOL0     H27254   1.445   1.788   6.665  0.8820  0.2646 -0.0974
  943MOL0     H27255   1.578   1.903   6.663 -1.1555  0.3290  1.1234
  943MOL0     H27256   1.740   1.901   6.856 -1.1668  3.9058  1.5859
  943MOL0     H27257   1.752   1.747   7.214 -2.7885 -2.0766 -1.5553
  943MOL0     H27258   1.832   1.662   7.089 -0.6673 -0.4263  2.0741
  943MOL0     H27259   1.942   1.852   7.004  2.8587  0.5724  0.6914
  943MOL0     H27260   1.847   1.968   7.093  0.1162  0.8920  0.5968
  943MOL0     H27261   2.022   1.737   7.220  2.0458  0.4287 -0.0548
  943MOL0     H27262   1.970   1.888   7.307 -0.2743  2.6716 -1.7010
  943MOL0     H27263   2.183   1.878   7.090  0.4500 -0.1930 -0.2522
  943MOL0     H27264   2.213   1.866   7.260  1.1649  1.4620 -0.3754
  943MOL0     H27265   2.391   1.961   7.084 -0.9524 -0.3176 -2.8302
  943MOL0     H27266   2.541   2.121   6.962  0.3439  3.6896 -3.2469
  943MOL0     H27267   2.732   2.582   6.967 -0.0425 -1.2340 -2.2496
  943MOL0     H27268   2.837   2.795   6.861  0.1494  0.7599  1.3476
  943MOL0     H27269   2.604   3.080   6.564 -1.1186 -1.6457  0.3452
  943MOL0     H27270   2.543   3.053   6.725  2.5209 -0.8693  3.4104
  943MOL0     H27271   2.791   3.208   6.670 -0.5207  3.1019  0.3976
  943MOL0     H27272   2.630   3.270   6.717 -1.6878  0.1104  1.8507
  943MOL0     H27273   2.641   3.130   6.917 -0.4616  0.7968 -1.0442
  943MOL0     H27274   2.798   3.082   6.892 -1.9523 -2.0294 -2.3857
  943MOL0     H27275   2.702   3.365   6.933  0.7742  1.0560  1.5808
  943MOL0     H27276   2.871   3.343   6.882 -0.9158  3.4443  0.2601
  943MOL0     H27277   2.900   3.207   7.108 -0.9005  0.9594  1.9865
  943MOL0     H27278   2.719   3.239   7.128 -1.2047  2.2260  1.9844
  943MOL0     H27279   2.945   3.453   7.107  2.7192 -0.7483  3.1195
  943MOL0     H27280   2.772   3.481   7.151 -0.6554 -0.3111 -2.6755
  943MOL0     H27281   2.944   3.301   7.314 -1.0791 -0.5729  3.3780
  943MOL0     H27282   2.788   3.352   7.352  0.9256  1.4772  1.5849
  943MOL0     H27283   3.008   3.545   7.285  1.1313  0.2219  0.4023
  943MOL0     H27284   2.856   3.592   7.358  2.4545  0.9806 -1.1118
  943MOL0     H27285   2.483   2.849   6.631  0.4493 -1.0275 -1.7530
  943MOL0     H27286   2.375   2.658   6.736  0.0053  0.6760 -0.5297
  943MOL0     H27287   2.243   2.425   6.985  1.0406  0.5110  0.4492
  943MOL0     H27288   2.104   2.268   7.135 -1.2022 -2.8392 -0.3882
  943MOL0     H27289   2.027   2.376   6.622  1.8306 -1.3701  0.9268
  943MOL0     H27290   2.188   2.488   6.471 -1.9269  0.7794 -1.5493
  943MOL0     H27291   2.469   2.879   6.425 -1.1370  0.6292  1.2327
  943MOL0     H27292   2.606   3.040   6.266  0.3202 -1.4732 -1.3126
  943MOL0     H27293   2.701   2.956   6.026  3.1076  0.6834  3.8697
  943MOL0     H27294   2.752   3.121   6.071 -0.7223 -0.3979  0.3899
  943MOL0     H27295   2.698   3.203   5.847 -0.1382  0.0345  0.2131
  943MOL0     H27296   2.645   3.042   5.792 -1.5661 -1.5656  2.2914
  943MOL0     H27297   2.871   2.962   5.865  1.0333  0.7543  0.2994
  943MOL0     H27298   2.927   3.137   5.860 -1.2996  1.7003  0.2338
  943MOL0     H27299   2.803   3.001   5.631  1.7816 -0.4667 -1.7526
  943MOL0     H27300   2.846   3.162   5.641  0.3447 -1.0922 -3.6721
  943MOL0     H27301   3.236   2.953   5.626  1.1606  2.0905  0.6181
  943MOL0     H27302   2.322   2.979   5.958  1.7596  0.6742  0.3064
  943MOL0     H27303   2.143   2.707   6.095 -1.2598 -0.3866 -0.4283
  943MOL0     H27304   2.070   2.869   6.095  0.8989 -2.5242  1.4954
  943MOL0     H27305   2.180   2.818   5.962 -1.1326  1.7400 -1.6209
  944MOL0     O27306  11.488   9.871   5.846 -0.1155  0.0785  0.6800
  944MOL0     C27307  11.379   9.884   5.788  0.0760  0.0695  0.1163
  944MOL0     O27308  11.363   9.956   5.678 -0.2918  0.2724  0.3724
  944MOL0     C27309  11.414  10.086   5.678  0.0027  0.4292 -0.5200
  944MOL0     C27310  11.325  10.164   5.609  0.0392  0.2886  0.6599
  944MOL0     C27311  11.349  10.299   5.575 -0.2996 -0.1076  1.1199
  944MOL0     C27312  11.474  10.351   5.614 -1.2483  0.0330  0.0522
  944MOL0     O27313  11.500  10.486   5.604  0.1948  0.0891  0.0600
  944MOL0     C27314  11.522  10.551   5.477  0.4273  0.6100  0.4410
  944MOL0     C27315  11.397  10.596   5.412  0.3937 -0.6035 -0.8313
  944MOL0     C27316  11.289  10.659   5.500 -0.4043  0.1661 -0.4036
  944MOL0     C27317  11.184  10.758   5.440 -0.4119 -0.1099  0.2108
  944MOL0     C27318  11.251  10.896   5.414 -0.2737 -0.0132  0.5542
  944MOL0     C27319  11.152  10.981   5.330 -0.2563  0.0591 -0.1157
  944MOL0     C27320  11.199  11.128   5.319 -0.5327 -0.2703  0.2468
  944MOL0     C27321  11.335  11.153   5.256  0.0792 -1.2080 -0.5003
  944MOL0     N27322  11.342  11.294   5.205  0.7972 -0.7070  0.9640
  944MOL0     C27323  11.397  11.407   5.277 -0.4079 -0.0771  0.0227
  944MOL0     C27324  11.343  11.513   5.219  0.3073  0.0043  0.8284
  944MOL0     C27325  11.373  11.659   5.234 -0.8025 -1.0179 -0.1726
  944MOL0     C27326  11.513  11.710   5.187 -0.6193  0.3497  0.0443
  944MOL0     C27327  11.544  11.660   5.044  1.3670 -0.0153 -1.0974
  944MOL0     C27328  11.682  11.690   4.998 -0.0974  0.1932  0.1048
  944MOL0     O27329  11.772  11.660   5.106  0.3035  0.4694  0.0051
  944MOL0     C27330  11.786  11.530   5.150 -0.2007 -0.8959 -0.9386
  944MOL0     C27331  11.730  11.414   5.089 -1.1123  0.6114 -0.2103
  944MOL0     C27332  11.745  11.288   5.157 -0.1830  0.3258 -1.7532
  944MOL0     C27333  11.819  11.276   5.283 -0.6716 -1.2213  0.2860
  944MOL0     C27334  11.828  11.145   5.341  0.0963  0.0088  1.0050
  944MOL0     O27335  11.918  11.124   5.428 -0.4139 -0.1774  0.2842
  944MOL0     C27336  11.960  11.004   5.455  0.2931 -0.0358  0.3758
  944MOL0     C27337  11.938  10.943   5.578 -0.0622  0.8692 -0.2805
  944MOL0     C27338  11.965  10.803   5.603 -0.4173 -0.1920 -0.2134
  944MOL0     C27339  12.020  10.729   5.497  0.1130  0.2540  0.3838
  944MOL0     O27340  12.053  10.603   5.516 -0.3574 -0.4936  0.6269
  944MOL0     C27341  11.943  10.513   5.520 -0.0684 -0.1485  0.2447
  944MOL0     C27342  11.967  10.365   5.525  0.0647 -0.0379 -0.2949
  944MOL0     C27343  12.050  10.311   5.645 -0.7833 -0.4985 -0.2732
  944MOL0     C27344  12.064  10.154   5.652 -0.3177  0.1927  0.0691
  944MOL0     C27345  12.163  10.133   5.772 -0.1067 -0.5363  0.2895
  944MOL0     C27346  12.176   9.988   5.808  0.6541 -0.3434 -0.1429
  944MOL0     C27347  12.278   9.973   5.915 -0.5068  0.3193 -0.0956
  944MOL0     C27348  12.333   9.831   5.902 -0.0064 -0.4910 -0.2030
  944MOL0    Cl27349  12.448   9.830   5.766  0.0198 -0.3456  0.2432
  944MOL0     C27350  12.037  10.782   5.371  0.9375 -0.8724 -0.6812
  944MOL0     C27351  12.020  10.925   5.355 -0.4128  0.4698 -0.0429
  944MOL0     O27352  11.756  11.056   5.291 -0.1869  0.9896 -0.5075
  944MOL0     C27353  11.882  11.387   5.330  0.3931  0.3272 -0.5166
  944MOL0     C27354  11.859  11.515   5.278 -0.6631  0.0355  0.1927
  944MOL0     N27355  11.267  11.472   5.108 -0.2088  0.0150  1.0981
  944MOL0     N27356  11.271  11.343   5.095  0.8701  0.9248  0.3030
  944MOL0     C27357  11.564  10.275   5.699  1.2489  0.0031  0.6810
  944MOL0     C27358  11.530  10.146   5.732  0.2604 -0.1987  0.9530
  944MOL0     C27359  11.268   9.828   5.859 -0.0579  0.3894  0.1292
  944MOL0     C27360  11.149   9.903   5.851  0.1111  0.5108  0.8983
  944MOL0     C27361  11.046   9.870   5.929  0.4855  0.4736  0.8028
  944MOL0     C27362  11.044   9.756   6.006  0.0665  0.1951 -0.4767
  944MOL0     O27363  10.933   9.709   6.075 -0.5065  0.2658  0.2313
  944MOL0     C27364  10.819   9.799   6.098 -0.3240 -0.8824 -0.1300
  944MOL0     C27365  10.842   9.894   6.215 -0.3489  0.3194  0.2277
  944MOL0     C27366  10.801   9.833   6.347  0.5881 -0.5049 -0.5476
  944MOL0     C27367  10.908   9.869   6.448  0.0224  0.1039 -0.3880
  944MOL0     C27368  10.868   9.842   6.578 -0.0425 -0.3501  0.2625
  944MOL0     C27369  10.825   9.789   6.685 -0.9932 -0.1257 -0.1295
  944MOL0     C27370  11.155   9.680   6.012 -0.5244 -0.0245 -0.2837
  944MOL0     C27371  11.272   9.711   5.944 -0.8833 -0.4494  0.0964
  944MOL0     C27372  11.396   9.615   5.959 -0.2980 -0.2024 -0.1163
  944MOL0     H27373  11.231  10.116   5.584 -0.8343  0.2531  3.6444
  944MOL0     H27374  11.279  10.342   5.504 -0.0494 -0.9758  0.3300
  944MOL0     H27375  11.587  10.639   5.483  0.6371  0.4617  0.3371
  944MOL0     H27376  11.576  10.479   5.415 -1.7399 -0.4503 -0.3125
  944MOL0     H27377  11.360  10.504   5.367  3.9728 -2.4789 -0.2335
  944MOL0     H27378  11.412  10.657   5.323 -1.6584 -2.2688 -2.4000
  944MOL0     H27379  11.327  10.697   5.595 -2.1348 -3.3049  1.8923
  944MOL0     H27380  11.231  10.569   5.521  0.5823 -0.3102  0.3425
  944MOL0     H27381  11.154  10.716   5.344 -3.1024  1.4667  0.2570
  944MOL0     H27382  11.090  10.767   5.495 -0.8614 -0.6024 -0.4656
  944MOL0     H27383  11.271  10.948   5.508 -0.3438 -0.9707  1.1068
  944MOL0     H27384  11.345  10.885   5.359 -0.2106 -1.2027  0.8707
  944MOL0     H27385  11.133  10.944   5.229 -2.0521 -0.5105  0.3913
  944MOL0     H27386  11.059  10.978   5.389 -0.9702  0.9757 -1.1426
  944MOL0     H27387  11.200  11.173   5.419  0.9937  2.2600 -0.7989
  944MOL0     H27388  11.120  11.175   5.260  0.5254 -0.5623 -1.4671
  944MOL0     H27389  11.406  11.142   5.339 -0.1562  2.6213  0.3701
  944MOL0     H27390  11.356  11.088   5.171 -0.4465  0.3280 -1.8430
  944MOL0     H27391  11.475  11.408   5.353  1.6135 -0.0507 -1.9747
  944MOL0     H27392  11.293  11.700   5.171  0.2873  2.2062  0.3661
  944MOL0     H27393  11.355  11.689   5.337  3.7332  0.2672  0.4703
  944MOL0     H27394  11.503  11.818   5.177 -0.0218  0.6232  1.9167
  944MOL0     H27395  11.589  11.682   5.260  0.2991 -2.8931 -1.9628
  944MOL0     H27396  11.471  11.705   4.976  1.3496  2.2075  0.3117
  944MOL0     H27397  11.513  11.555   5.036 -1.0390  0.6505 -1.1287
  944MOL0     H27398  11.702  11.791   4.963 -1.2445  0.0035 -1.1640
  944MOL0     H27399  11.704  11.624   4.914  1.8676 -2.0822  2.2174
  944MOL0     H27400  11.687  11.422   4.989 -2.8822 -3.0440  0.0932
  944MOL0     H27401  11.700  11.203   5.107  0.3281 -1.8373  1.1895
  944MOL0     H27402  11.879  11.002   5.646 -1.6838  2.9436 -3.2411
  944MOL0     H27403  11.930  10.756   5.694  0.4918 -0.1015  0.1966
  944MOL0     H27404  11.883  10.530   5.610  0.0262 -0.2915  0.3336
  944MOL0     H27405  11.880  10.520   5.431 -1.7788 -1.6113  1.2761
  944MOL0     H27406  11.871  10.313   5.534  1.0631 -1.6733  1.7712
  944MOL0     H27407  12.020  10.337   5.433  1.1505  2.2881 -0.4306
  944MOL0     H27408  12.150  10.354   5.638 -1.2167  0.5349 -0.4128
  944MOL0     H27409  12.003  10.348   5.737 -0.3381 -0.8147  0.0825
  944MOL0     H27410  12.091  10.107   5.557 -1.8687  0.1327 -0.3708
  944MOL0     H27411  11.970  10.104   5.676  1.2486 -2.7375  0.6758
  944MOL0     H27412  12.129  10.196   5.854 -0.2772 -0.0313 -0.1677
  944MOL0     H27413  12.265  10.171   5.763 -0.7077  0.7551 -1.5528
  944MOL0     H27414  12.082   9.959   5.856 -0.5582 -1.1843 -2.8195
  944MOL0     H27415  12.192   9.923   5.721 -1.2596 -1.4604  0.2668
  944MOL0     H27416  12.251   9.990   6.020  1.4982 -0.4422  0.6006
  944MOL0     H27417  12.359  10.045   5.899 -0.2573  0.2929  0.9694
  944MOL0     H27418  12.387   9.808   5.994 -0.9468  0.5295  0.6217
  944MOL0     H27419  12.257   9.752   5.902  0.4672 -1.0008 -1.9911
  944MOL0     H27420  12.061  10.715   5.290  0.1410  1.8060 -3.3285
  944MOL0     H27421  12.062  10.963   5.263  1.4936 -2.1365 -0.3686
  944MOL0     H27422  11.945  11.385   5.419 -1.6639  1.5543  1.0826
  944MOL0     H27423  11.908  11.602   5.321 -2.1392  2.6765 -3.0124
  944MOL0     H27424  11.653  10.332   5.719  2.6077 -1.5968 -0.5022
  944MOL0     H27425  11.607  10.093   5.787  1.5043 -2.0065 -2.2114
  944MOL0     H27426  11.146   9.998   5.798 -0.8693 -0.3218 -0.6098
  944MOL0     H27427  10.975   9.952   5.932  2.1531  1.9904  0.8654
  944MOL0     H27428  10.731   9.738   6.120 -2.3863  1.5477 -1.1142
  944MOL0     H27429  10.796   9.874   6.022  1.1648  2.2536  2.2893
  944MOL0     H27430  10.792   9.989   6.194  1.4395  1.0760 -0.8982
  944MOL0     H27431  10.948   9.920   6.216  0.1496 -1.3086 -1.8282
  944MOL0     H27432  10.797   9.725   6.333 -1.2764 -0.4078 -1.0546
  944MOL0     H27433  10.696   9.853   6.372  0.0218 -0.3690 -2.8054
  944MOL0     H27434  11.008   9.830   6.427  0.7348 -0.0941  2.8245
  944MOL0     H27435  10.929   9.977   6.449  0.5594  0.0136  1.1483
  944MOL0     H27436  10.804   9.757   6.785 -2.3273 -1.2924 -0.7465
  944MOL0     H27437  11.139   9.587   6.064 -0.6170 -0.4631 -1.0786
  944MOL0     H27438  11.460   9.603   5.871 -0.0191 -2.2373  0.3148
  944MOL0     H27439  11.469   9.660   6.026  0.2683  1.2372 -1.6222
  944MOL0     H27440  11.374   9.511   5.984 -1.0640 -0.7624 -2.7884
  945MOL0     O27441   6.320   6.978   8.238  0.1854 -0.1492  0.4848
  945MOL0     C27442   6.389   6.928   8.149 -0.6814  0.0780 -0.8366
  945MOL0     O27443   6.493   6.988   8.085 -0.1363 -0.3535 -0.9501
  945MOL0     C27444   6.482   7.131   8.073  0.5175 -0.3754  0.0235
  945MOL0     C27445   6.603   7.202   8.055 -0.0711 -0.3716  0.7731
  945MOL0     C27446   6.594   7.339   8.049 -0.3303 -0.7988 -0.0880
  945MOL0     C27447   6.473   7.413   8.050  0.2718 -0.0380 -0.6074
  945MOL0     O27448   6.468   7.554   8.028 -0.1093  0.5869 -0.9683
  945MOL0     C27449   6.595   7.623   8.008  0.1472 -0.7753  0.3149
  945MOL0     C27450   6.557   7.761   7.946  0.6759  0.2161  0.0731
  945MOL0     C27451   6.515   7.736   7.794 -1.8854  0.1847 -0.1245
  945MOL0     C27452   6.636   7.693   7.704  0.6270  0.1857  0.0856
  945MOL0     C27453   6.588   7.653   7.571  0.0756 -0.2042  1.0255
  945MOL0     C27454   6.708   7.615   7.495 -0.2784 -0.2286  0.2771
  945MOL0     C27455   6.681   7.569   7.349 -0.0591  0.7141  0.3144
  945MOL0     C27456   6.660   7.419   7.345  0.2999 -1.3307  1.2231
  945MOL0     N27457   6.789   7.347   7.357  0.3543  0.2310 -0.5648
  945MOL0     C27458   6.888   7.341   7.258 -0.3961  0.3727 -1.0482
  945MOL0     C27459   6.980   7.249   7.301  0.9926 -0.0413 -0.1371
  945MOL0     C27460   7.072   7.168   7.215  0.7088  0.7495  0.2895
  945MOL0     C27461   6.997   7.077   7.110  0.3255  1.1707 -0.6242
  945MOL0     C27462   7.082   7.047   6.989  0.8855  0.1398 -0.6798
  945MOL0     C27463   7.210   6.973   7.043  0.1373  0.0165  0.4910
  945MOL0     O27464   7.176   6.835   7.030 -0.4109 -0.2502  0.0096
  945MOL0     C27465   7.230   6.769   7.128 -0.5642 -0.2347 -0.2569
  945MOL0     C27466   7.368   6.759   7.147  0.4230 -0.1175 -0.1449
  945MOL0     C27467   7.429   6.704   7.260 -0.0796 -0.5381  0.7493
  945MOL0     C27468   7.357   6.634   7.354  0.3898 -0.3304 -0.2159
  945MOL0     C27469   7.424   6.578   7.468 -0.1421 -0.6523  0.4491
  945MOL0     O27470   7.550   6.554   7.449 -0.0287 -0.2184 -0.3490
  945MOL0     C27471   7.615   6.478   7.546 -0.0002  0.6137  0.4791
  945MOL0     C27472   7.715   6.537   7.626 -0.3203  0.5263  0.5716
  945MOL0     C27473   7.771   6.454   7.718  0.0690  0.8381 -1.1724
  945MOL0     C27474   7.721   6.327   7.749 -0.6737  1.2161 -0.1466
  945MOL0     O27475   7.779   6.250   7.858  0.3005 -0.3056 -0.1601
  945MOL0     C27476   7.834   6.327   7.963 -0.3090  0.2673 -0.3487
  945MOL0     C27477   7.856   6.227   8.077  0.5243 -0.5614 -0.0975
  945MOL0     C27478   7.725   6.176   8.144 -0.5400 -0.4772 -0.1322
  945MOL0     C27479   7.644   6.286   8.213  0.5537 -0.6991 -0.1771
  945MOL0     C27480   7.507   6.237   8.236  0.1694  0.8752  0.1237
  945MOL0     C27481   7.437   6.331   8.324  0.6159  0.3814  0.0582
  945MOL0     C27482   7.467   6.316   8.475  0.3468  0.6109 -0.8388
  945MOL0     C27483   7.412   6.442   8.549  0.3412 -0.2399 -0.0229
  945MOL0    Cl27484   7.439   6.404   8.730  0.0071  0.0410  0.6074
  945MOL0     C27485   7.615   6.270   7.675 -1.1977  0.2081  0.8637
  945MOL0     C27486   7.572   6.349   7.568 -0.0129  0.3027 -0.2252
  945MOL0     O27487   7.360   6.544   7.570 -0.0126  0.4069  0.5031
  945MOL0     C27488   7.215   6.634   7.329  0.4336 -0.0100 -0.8120
  945MOL0     C27489   7.153   6.703   7.222 -0.0284 -0.5786 -0.4871
  945MOL0     N27490   6.933   7.193   7.417  0.2737  1.5181  0.4238
  945MOL0     N27491   6.812   7.247   7.447 -0.7557 -0.7588 -0.1220
  945MOL0     C27492   6.359   7.331   8.050  0.7625  0.1781 -0.0882
  945MOL0     C27493   6.358   7.200   8.057 -0.7780  0.1383  0.2049
  945MOL0     C27494   6.371   6.787   8.120 -0.2029 -0.1928 -0.0404
  945MOL0     C27495   6.380   6.697   8.225  0.4611  0.1161 -0.6255
  945MOL0     C27496   6.358   6.563   8.213  0.8811 -0.1651 -0.0604
  945MOL0     C27497   6.321   6.510   8.085 -0.1528  0.2855  0.1047
  945MOL0     O27498   6.302   6.381   8.055  0.1388  0.4713  0.1689
  945MOL0     C27499   6.294   6.281   8.157  0.7475  0.3938  0.0029
  945MOL0     C27500   6.205   6.169   8.113  0.1342  0.0599 -0.3260
  945MOL0     C27501   6.218   6.137   7.958 -0.1083 -0.3620  0.1727
  945MOL0     C27502   6.103   6.046   7.901  0.0597 -0.5960  0.2949
  945MOL0     C27503   6.043   6.084   7.772  0.2361 -0.9106  0.6774
  945MOL0     C27504   5.992   6.128   7.672  0.3618  0.0439  0.6419
  945MOL0     C27505   6.313   6.603   7.975 -1.0953 -0.7867 -0.4808
  945MOL0     C27506   6.337   6.742   7.995  0.6686  0.1455 -0.2053
  945MOL0     C27507   6.326   6.820   7.862  0.4454 -0.1045  0.3291
  945MOL0     H27508   6.696   7.147   8.061 -0.0737 -0.2006  3.3324
  945MOL0     H27509   6.689   7.390   8.046  0.2308 -1.8479 -0.6666
  945MOL0     H27510   6.652   7.641   8.099  0.0547 -0.2526  0.2709
  945MOL0     H27511   6.651   7.568   7.932 -0.0976  2.1969 -2.2206
  945MOL0     H27512   6.646   7.824   7.932 -0.3262  1.5230 -0.5797
  945MOL0     H27513   6.479   7.807   8.006  1.4660  2.5906 -0.5988
  945MOL0     H27514   6.492   7.836   7.756  0.6890  0.2207 -1.8182
  945MOL0     H27515   6.434   7.663   7.783 -0.8284 -0.8746 -1.1399
  945MOL0     H27516   6.687   7.789   7.697  2.9438 -0.9757  0.2290
  945MOL0     H27517   6.709   7.621   7.741 -0.5385 -1.8666 -1.3438
  945MOL0     H27518   6.532   7.559   7.573 -0.8199  0.3049  0.2644
  945MOL0     H27519   6.526   7.724   7.517  0.1714 -0.8677  0.0152
  945MOL0     H27520   6.766   7.708   7.488  1.9362 -1.5057  0.7352
  945MOL0     H27521   6.763   7.540   7.553 -0.9968 -0.1036  1.1327
  945MOL0     H27522   6.773   7.589   7.292 -0.3948  0.8574 -0.1827
  945MOL0     H27523   6.607   7.638   7.308 -0.6393 -0.0850  0.0202
  945MOL0     H27524   6.589   7.382   7.420 -0.5528  0.6798  1.4647
  945MOL0     H27525   6.618   7.392   7.248 -0.1966 -3.5475  2.0004
  945MOL0     H27526   6.886   7.396   7.164 -1.4400 -0.2400 -1.4038
  945MOL0     H27527   7.139   7.242   7.172 -0.6769 -0.0987 -3.8144
  945MOL0     H27528   7.135   7.115   7.287 -2.4047 -1.7173  1.4354
  945MOL0     H27529   6.970   6.981   7.155  0.4814  0.7345 -1.4434
  945MOL0     H27530   6.903   7.130   7.092 -0.4514 -0.6591 -2.3420
  945MOL0     H27531   7.110   7.139   6.937  1.7901 -0.5377 -1.4344
  945MOL0     H27532   7.029   6.992   6.911 -1.1548  0.5348  0.3708
  945MOL0     H27533   7.244   6.993   7.145 -0.1547  1.7142  0.2969
  945MOL0     H27534   7.293   7.005   6.980  0.4391  0.1474  0.9434
  945MOL0     H27535   7.440   6.804   7.080  0.5164  2.0778  1.3159
  945MOL0     H27536   7.536   6.712   7.247 -0.0059 -2.0027  0.2642
  945MOL0     H27537   7.756   6.636   7.606  0.3770  0.0578 -0.4519
  945MOL0     H27538   7.852   6.506   7.769 -1.2064  0.8812  0.9475
  945MOL0     H27539   7.930   6.375   7.943 -1.0212  2.0943  0.3365
  945MOL0     H27540   7.778   6.415   7.995  1.6669  1.7474 -0.7739
  945MOL0     H27541   7.917   6.143   8.043  4.7371  2.4170 -0.7589
  945MOL0     H27542   7.922   6.273   8.151  2.7626 -2.1961 -0.9605
  945MOL0     H27543   7.664   6.128   8.067  1.3261 -1.2931 -1.1432
  945MOL0     H27544   7.749   6.103   8.222 -1.0878 -0.7865 -0.2517
  945MOL0     H27545   7.644   6.378   8.154  8.4981 -0.5941 -1.1697
  945MOL0     H27546   7.701   6.307   8.305 -0.7916  1.5363  0.2243
  945MOL0     H27547   7.509   6.135   8.274 -3.4002  1.3063  1.8596
  945MOL0     H27548   7.455   6.235   8.140  1.3721  2.2518 -0.6114
  945MOL0     H27549   7.465   6.433   8.296  0.8339  0.1973 -0.4114
  945MOL0     H27550   7.333   6.326   8.290  1.8367 -0.7179 -4.2056
  945MOL0     H27551   7.576   6.309   8.477  0.4037  1.0276 -1.7703
  945MOL0     H27552   7.415   6.225   8.506 -1.5806  2.0925  0.5645
  945MOL0     H27553   7.458   6.538   8.524  0.5960  0.1910  1.9172
  945MOL0     H27554   7.303   6.449   8.546  0.1794 -2.4461 -1.4457
  945MOL0     H27555   7.562   6.178   7.699  0.3081 -0.6339  1.0753
  945MOL0     H27556   7.493   6.304   7.509 -0.9839 -1.6309  2.3260
  945MOL0     H27557   7.162   6.599   7.417 -1.2356  1.6901 -1.0730
  945MOL0     H27558   7.046   6.713   7.212  0.0407  0.7125 -0.1044
  945MOL0     H27559   6.266   7.381   8.027  2.4968  2.8546 -1.8860
  945MOL0     H27560   6.267   7.141   8.058 -0.4165 -0.5706 -2.2599
  945MOL0     H27561   6.398   6.741   8.322 -1.0534 -1.8291  0.6203
  945MOL0     H27562   6.373   6.501   8.301 -0.3922  0.0274  0.3172
  945MOL0     H27563   6.248   6.317   8.250  2.4921  1.4274  0.5261
  945MOL0     H27564   6.392   6.237   8.180 -0.7332 -2.1984  1.9535
  945MOL0     H27565   6.101   6.195   8.133  1.1724  3.3934  1.4827
  945MOL0     H27566   6.219   6.077   8.172 -2.9677  0.1926  0.8004
  945MOL0     H27567   6.301   6.069   7.937 -1.3724 -1.7114 -0.6115
  945MOL0     H27568   6.239   6.224   7.895 -0.4055 -0.9109 -0.7073
  945MOL0     H27569   6.141   5.947   7.877 -0.1014 -0.6346  0.1970
  945MOL0     H27570   6.016   6.035   7.965  1.1188  2.5899  2.5212
  945MOL0     H27571   5.955   6.162   7.577  1.2851 -1.8276 -0.4542
  945MOL0     H27572   6.295   6.566   7.875  0.0423 -0.1353 -0.9513
  945MOL0     H27573   6.375   6.758   7.786  1.4075 -3.0628  3.1184
  945MOL0     H27574   6.221   6.825   7.830  0.9613  1.6359 -1.2802
  945MOL0     H27575   6.373   6.919   7.861 -0.1049  0.1677  1.0356
  946MOL0     O27576   6.219   1.766   7.309 -0.4799 -0.0882 -0.0439
  946MOL0     C27577   6.297   1.730   7.228 -0.1846  0.4579 -0.4984
  946MOL0     O27578   6.408   1.659   7.257 -0.3054  0.2023 -0.0847
  946MOL0     C27579   6.436   1.638   7.395  0.6509  0.9774 -0.2014
  946MOL0     C27580   6.561   1.677   7.433  1.3040 -0.2000 -0.4780
  946MOL0     C27581   6.602   1.675   7.568 -0.3466 -0.4266 -0.4268
  946MOL0     C27582   6.516   1.631   7.669 -0.6034  0.3321 -0.1378
  946MOL0     O27583   6.574   1.635   7.799  0.4605 -0.1941  0.5469
  946MOL0     C27584   6.488   1.627   7.911  0.2345 -0.3401  0.3952
  946MOL0     C27585   6.565   1.666   8.033 -0.9332 -0.5464  0.5177
  946MOL0     C27586   6.497   1.603   8.157  0.6185 -0.0357  0.1009
  946MOL0     C27587   6.432   1.707   8.248  0.3662 -0.1494  0.1198
  946MOL0     C27588   6.365   1.648   8.374  0.8893 -1.1438  0.0048
  946MOL0     C27589   6.256   1.547   8.358 -0.4146 -0.5477  0.2080
  946MOL0     C27590   6.198   1.506   8.492  0.0286  0.8454 -0.1494
  946MOL0     C27591   6.107   1.394   8.482 -1.1616 -0.0707 -0.0642
  946MOL0     N27592   5.993   1.427   8.397  1.4641  0.1449 -0.4454
  946MOL0     C27593   5.901   1.512   8.450  0.1056 -0.2282  0.6051
  946MOL0     C27594   5.811   1.531   8.341  0.4382 -1.1553 -0.3359
  946MOL0     C27595   5.703   1.635   8.316  1.0372  0.7137  0.0259
  946MOL0     C27596   5.753   1.715   8.199  1.2898  0.5556  0.4277
  946MOL0     C27597   5.643   1.830   8.193 -0.6628 -1.6117 -0.4361
  946MOL0     C27598   5.692   1.940   8.092 -0.5038  0.0008  0.3260
  946MOL0     O27599   5.621   2.063   8.128 -0.8809  0.2377  0.2687
  946MOL0     C27600   5.589   2.148   8.027 -0.1482 -0.9064  0.1757
  946MOL0     C27601   5.550   2.270   8.078  0.3523  0.2996  0.1482
  946MOL0     C27602   5.495   2.367   8.001  1.0750 -0.1095 -0.4098
  946MOL0     C27603   5.467   2.340   7.866  0.3443 -0.2744 -0.2284
  946MOL0     C27604   5.362   2.429   7.804 -0.4451  0.6054  0.5193
  946MOL0     O27605   5.328   2.554   7.869 -0.0299 -0.5743  0.1913
  946MOL0     C27606   5.237   2.633   7.799  0.7934 -0.4769 -0.8064
  946MOL0     C27607   5.133   2.597   7.705  0.1368  0.1600  0.1264
  946MOL0     C27608   5.053   2.692   7.642  0.3150  0.8630  0.3672
  946MOL0     C27609   5.091   2.831   7.649  0.4108  0.2570  0.9203
  946MOL0     O27610   5.022   2.934   7.598  0.2743  0.7795  0.1043
  946MOL0     C27611   4.901   2.915   7.529 -0.1213 -0.2521  0.4606
  946MOL0     C27612   4.820   3.038   7.522 -0.1262 -0.4689  0.5438
  946MOL0     C27613   4.714   3.033   7.421  0.5804  0.2526  1.1749
  946MOL0     C27614   4.642   3.167   7.422  0.3996 -0.6380 -0.3363
  946MOL0     C27615   4.530   3.200   7.323 -0.2351 -0.2987 -0.3689
  946MOL0     C27616   4.586   3.213   7.185 -0.5622  0.6235  0.0067
  946MOL0     C27617   4.689   3.333   7.167 -0.9155 -0.4440  0.6120
  946MOL0     C27618   4.703   3.374   7.017 -0.8856  0.6324 -0.0784
  946MOL0    Cl27619   4.545   3.427   6.955  0.2053  0.1621 -0.0432
  946MOL0     C27620   5.195   2.869   7.733 -0.1298  0.1260  0.1193
  946MOL0     C27621   5.266   2.768   7.804 -0.4587 -0.5523 -0.0846
  946MOL0     O27622   5.317   2.383   7.699  0.5424 -0.1557  0.6104
  946MOL0     C27623   5.517   2.224   7.813 -0.8330 -0.0305 -0.3069
  946MOL0     C27624   5.587   2.128   7.889 -0.6058  0.5043 -0.0830
  946MOL0     N27625   5.849   1.453   8.229 -0.4949  0.3212 -0.3482
  946MOL0     N27626   5.956   1.395   8.270 -0.0510 -0.0958 -0.7612
  946MOL0     C27627   6.388   1.578   7.631 -0.5245 -0.4955  0.5924
  946MOL0     C27628   6.343   1.583   7.498  0.5764 -0.1376  0.3458
  946MOL0     C27629   6.249   1.724   7.090  0.6717  0.1282 -0.0393
  946MOL0     C27630   6.336   1.665   6.998 -0.7210  0.3684  0.2721
  946MOL0     C27631   6.308   1.653   6.868 -0.6392 -0.1294  0.0513
  946MOL0     C27632   6.195   1.703   6.814  0.9880 -0.2279  0.0472
  946MOL0     O27633   6.175   1.684   6.683  0.0672  0.4017  0.0906
  946MOL0     C27634   6.038   1.656   6.653 -0.1334  0.5255  0.0993
  946MOL0     C27635   6.016   1.570   6.525  0.1806  0.3874 -0.7793
  946MOL0     C27636   6.104   1.631   6.419 -0.1302 -0.1630  0.3701
  946MOL0     C27637   6.054   1.599   6.279 -0.3106  0.9832  0.4185
  946MOL0     C27638   5.920   1.672   6.260 -0.5671  0.5334 -0.5806
  946MOL0     C27639   5.809   1.718   6.246 -0.3054 -0.5862 -0.6694
  946MOL0     C27640   6.106   1.781   6.903  0.2916  1.1544 -0.6505
  946MOL0     C27641   6.134   1.795   7.041 -0.7158 -0.3105  0.8433
  946MOL0     C27642   6.034   1.867   7.113  0.2606 -0.0096 -0.1100
  946MOL0     H27643   6.616   1.728   7.354 -2.1362  3.2857 -0.8988
  946MOL0     H27644   6.705   1.705   7.587  0.5350 -3.2538 -0.2417
  946MOL0     H27645   6.399   1.689   7.895  0.7828  0.3077 -0.1903
  946MOL0     H27646   6.458   1.522   7.920 -2.0136 -0.0486 -2.2388
  946MOL0     H27647   6.566   1.774   8.046  1.4770 -0.5321  0.7089
  946MOL0     H27648   6.661   1.618   8.012 -1.5447 -1.3034 -0.6963
  946MOL0     H27649   6.574   1.542   8.205  2.6362 -1.1440 -3.9987
  946MOL0     H27650   6.425   1.527   8.125  0.8222  0.4082 -1.5093
  946MOL0     H27651   6.505   1.783   8.279 -0.3801  0.4321  0.4909
  946MOL0     H27652   6.356   1.769   8.199  1.7119  1.9058  0.4880
  946MOL0     H27653   6.443   1.603   8.437  0.5589  0.2836  1.5035
  946MOL0     H27654   6.324   1.734   8.428  0.4124  0.7342 -3.0683
  946MOL0     H27655   6.185   1.601   8.296  1.8741  2.0674 -0.3581
  946MOL0     H27656   6.292   1.464   8.295 -1.5636  0.2311 -1.5487
  946MOL0     H27657   6.154   1.585   8.554 -1.3811 -1.8544  2.5656
  946MOL0     H27658   6.279   1.457   8.547 -1.6846 -2.1863 -0.1375
  946MOL0     H27659   6.174   1.314   8.449 -1.6583 -0.9184  0.9376
  946MOL0     H27660   6.075   1.360   8.580 -0.0910 -2.2700 -0.4117
  946MOL0     H27661   5.922   1.563   8.543 -0.2165  2.3900 -0.6891
  946MOL0     H27662   5.609   1.584   8.292  0.9087  1.6266 -1.5382
  946MOL0     H27663   5.694   1.693   8.408  1.1234  0.6985  0.0445
  946MOL0     H27664   5.850   1.757   8.225  0.8202  1.0873  1.3642
  946MOL0     H27665   5.767   1.666   8.102 -1.5128  1.4880 -0.5550
  946MOL0     H27666   5.618   1.866   8.293  0.7909  0.2857 -0.6906
  946MOL0     H27667   5.551   1.791   8.149 -0.1879 -1.1598 -1.9106
  946MOL0     H27668   5.658   1.905   7.994 -0.1693 -0.6990  0.4545
  946MOL0     H27669   5.800   1.956   8.100 -0.8384  1.9098  1.8558
  946MOL0     H27670   5.567   2.284   8.184  4.7550 -5.1972  0.6471
  946MOL0     H27671   5.477   2.465   8.046 -0.3346 -0.1280 -0.8780
  946MOL0     H27672   5.102   2.494   7.692  0.9820 -0.1453  0.4359
  946MOL0     H27673   4.964   2.669   7.584  0.0516  1.4007  0.5546
  946MOL0     H27674   4.928   2.880   7.429  0.4138  0.1204  0.4729
  946MOL0     H27675   4.840   2.842   7.582  4.0098 -3.0049  1.8714
  946MOL0     H27676   4.774   3.042   7.621 -0.4963 -3.1698  0.5574
  946MOL0     H27677   4.885   3.124   7.506  0.1367 -0.3752  2.0008
  946MOL0     H27678   4.759   2.998   7.327  1.0852  2.9538  0.3172
  946MOL0     H27679   4.653   2.949   7.454  1.7954 -1.4065 -0.5097
  946MOL0     H27680   4.711   3.252   7.416  0.5576 -0.6935  0.5841
  946MOL0     H27681   4.600   3.178   7.522  1.6265 -0.0834  0.1358
  946MOL0     H27682   4.477   3.289   7.357 -0.2228 -0.3140 -0.3094
  946MOL0     H27683   4.462   3.114   7.310 -1.3444  0.6119 -0.7737
  946MOL0     H27684   4.638   3.124   7.148 -6.1114 -2.5560 -1.4104
  946MOL0     H27685   4.497   3.228   7.122 -0.6727  1.3978  0.3378
  946MOL0     H27686   4.790   3.313   7.202 -1.0008 -2.4829 -0.2193
  946MOL0     H27687   4.649   3.421   7.219 -1.4505 -1.4070  1.8933
  946MOL0     H27688   4.772   3.459   7.012 -0.1532  0.0878  0.5459
  946MOL0     H27689   4.744   3.287   6.965  2.1476 -1.1068  4.6165
  946MOL0     H27690   5.225   2.973   7.732 -1.6609  0.5985 -1.4471
  946MOL0     H27691   5.348   2.790   7.872  1.7724 -4.3527 -1.2420
  946MOL0     H27692   5.509   2.211   7.706 -2.3972  4.2017 -0.8856
  946MOL0     H27693   5.611   2.030   7.849  1.6204  1.2348 -0.6752
  946MOL0     H27694   6.331   1.537   7.714  3.6018 -3.0639  2.4486
  946MOL0     H27695   6.244   1.543   7.480 -0.5302 -0.1155  5.1720
  946MOL0     H27696   6.415   1.597   7.028  0.2303  0.1878 -2.4107
  946MOL0     H27697   6.371   1.592   6.804  2.0647 -0.7661  3.0467
  946MOL0     H27698   5.970   1.740   6.637  0.2060  1.6478  3.6391
  946MOL0     H27699   5.993   1.590   6.729 -0.6067 -0.9624 -1.4117
  946MOL0     H27700   5.916   1.578   6.482  0.4509  2.0295 -1.1791
  946MOL0     H27701   6.037   1.465   6.544  4.8073  1.5090  1.8368
  946MOL0     H27702   6.206   1.592   6.423  0.5360  1.3518 -0.6248
  946MOL0     H27703   6.107   1.741   6.422 -0.6276 -0.1461  0.2737
  946MOL0     H27704   6.122   1.635   6.201 -2.0008  0.2291 -1.4861
  946MOL0     H27705   6.032   1.492   6.266  1.1906  0.6258  0.6343
  946MOL0     H27706   5.714   1.766   6.234  0.0667  1.7118  3.6528
  946MOL0     H27707   6.017   1.827   6.861 -1.8410 -0.8071  1.4627
  946MOL0     H27708   5.940   1.860   7.056 -1.0370  3.0017  1.4176
  946MOL0     H27709   6.008   1.813   7.205 -2.4864  1.7904  0.2829
  946MOL0     H27710   6.058   1.972   7.129  0.2920  0.3643 -2.3183
  947MOL0     O27711   1.443   2.721   0.204 -0.4768 -0.1798 -0.2920
  947MOL0     C27712   1.361   2.816   0.210 -0.2680  0.0523  0.2666
  947MOL0     O27713   1.236   2.810   0.261 -0.3381  0.5781  0.6596
  947MOL0     C27714   1.199   2.684   0.299  0.8798 -0.3527 -0.7529
  947MOL0     C27715   1.137   2.597   0.201 -0.1866 -0.5260 -0.3508
  947MOL0     C27716   1.095   2.470   0.243  0.8874  0.0698 -0.1358
  947MOL0     C27717   1.108   2.429   0.377 -0.7405  0.7249 -0.4242
  947MOL0     O27718   1.066   2.314   0.442 -0.9087  0.9625  1.2089
  947MOL0     C27719   1.029   2.221   0.350 -0.4686  0.6571 -0.2557
  947MOL0     C27720   1.019   2.088   0.439 -0.0892  0.2526  1.0083
  947MOL0     C27721   0.951   1.966   0.371  0.1724  0.2447  0.2076
  947MOL0     C27722   1.054   1.865   0.332  0.7220  0.2184  0.0950
  947MOL0     C27723   0.975   1.755   0.258  0.3168 -0.4730 -0.6536
  947MOL0     C27724   1.059   1.674   0.174  0.5500 -0.1989  0.0398
  947MOL0     C27725   1.157   1.589   0.250 -0.1415  0.6515  0.1599
  947MOL0     C27726   1.205   1.467   0.162 -0.3840 -0.1231 -0.4505
  947MOL0     N27727   1.217   1.487   0.019  0.9506  0.3442  0.3170
  947MOL0     C27728   1.313   1.561  -0.040 -0.8230  0.6752 -1.0867
  947MOL0     C27729   1.292   1.534  -0.168 -1.5950  0.4260  0.2280
  947MOL0     C27730   1.384   1.585  -0.284  1.0441 -0.5368  0.3720
  947MOL0     C27731   1.458   1.718  -0.247  0.7476  0.0395  0.8393
  947MOL0     C27732   1.364   1.835  -0.227 -1.7308  0.1550  0.1599
  947MOL0     C27733   1.442   1.968  -0.254 -0.0407 -0.5044 -0.3455
  947MOL0     O27734   1.509   1.987  -0.382 -0.3200 -0.1435  0.0934
  947MOL0     C27735   1.577   2.104  -0.395 -0.2958 -0.1197  0.4806
  947MOL0     C27736   1.600   2.207  -0.294 -0.4845 -0.1653 -1.1084
  947MOL0     C27737   1.662   2.327  -0.329  0.4749  0.3784  1.3859
  947MOL0     C27738   1.719   2.342  -0.461 -0.1228 -0.1605 -0.7558
  947MOL0     C27739   1.774   2.475  -0.493  0.4065  0.9669 -0.6360
  947MOL0     O27740   1.835   2.497  -0.612 -0.1010 -0.7027  1.2734
  947MOL0     C27741   1.887   2.630  -0.633 -0.1307  0.7591 -0.7316
  947MOL0     C27742   1.804   2.720  -0.704  0.0145  0.7470  1.1106
  947MOL0     C27743   1.842   2.844  -0.748 -0.5504 -0.0570 -0.5317
  947MOL0     C27744   1.973   2.892  -0.696  0.1122 -0.3018  0.0794
  947MOL0     O27745   2.026   3.025  -0.716  0.0884 -0.0340  0.6366
  947MOL0     C27746   1.993   3.077  -0.843  0.5056  0.0719 -0.3736
  947MOL0     C27747   2.062   3.210  -0.873  0.5653  0.2352 -1.0622
  947MOL0     C27748   2.212   3.199  -0.850 -0.0914 -0.0751 -0.3835
  947MOL0     C27749   2.279   3.171  -0.991  0.3151 -0.4709 -0.9596
  947MOL0     C27750   2.432   3.187  -0.987 -0.7480 -0.4892 -0.0303
  947MOL0     C27751   2.508   3.064  -0.934 -0.0606 -0.5657 -0.6344
  947MOL0     C27752   2.656   3.096  -0.919 -0.3624 -0.6532  0.4848
  947MOL0     C27753   2.727   2.984  -0.840  0.0940 -0.5402 -0.4336
  947MOL0    Cl27754   2.735   2.821  -0.914  0.1996  0.0787 -0.1362
  947MOL0     C27755   2.052   2.801  -0.627  0.0809  0.2993 -0.3527
  947MOL0     C27756   2.009   2.673  -0.598 -0.7816 -0.1367  0.0256
  947MOL0     O27757   1.759   2.564  -0.410 -0.1369 -0.2547 -0.0757
  947MOL0     C27758   1.698   2.239  -0.562  0.0129 -0.2821  0.7334
  947MOL0     C27759   1.636   2.124  -0.520 -0.6162 -0.3925  0.4563
  947MOL0     N27760   1.183   1.458  -0.189  0.0884  0.2901  1.1278
  947MOL0     N27761   1.131   1.437  -0.074  0.7909 -1.3111 -0.2930
  947MOL0     C27762   1.166   2.517   0.469 -0.5515 -0.0494 -0.0008
  947MOL0     C27763   1.210   2.640   0.428 -0.3217 -0.3047 -0.1346
  947MOL0     C27764   1.415   2.946   0.166 -1.7066  0.4970  0.4712
  947MOL0     C27765   1.331   3.054   0.172 -0.9795 -0.2182 -0.5176
  947MOL0     C27766   1.360   3.182   0.131  0.4634  0.3955 -0.2637
  947MOL0     C27767   1.486   3.202   0.075 -0.6236 -0.1691 -0.4653
  947MOL0     O27768   1.529   3.327   0.042  0.1522  0.1394  0.3259
  947MOL0     C27769   1.658   3.346  -0.018 -0.5583 -0.9894 -0.2946
  947MOL0     C27770   1.669   3.495  -0.060 -0.2392 -0.6510 -0.1947
  947MOL0     C27771   1.821   3.534  -0.054  0.6190 -1.0274  0.4771
  947MOL0     C27772   1.843   3.665  -0.139  1.3867  0.1806  1.0652
  947MOL0     C27773   1.990   3.681  -0.124  0.2250 -0.2348 -1.0970
  947MOL0     C27774   2.106   3.699  -0.084  0.3465 -1.0035  0.6615
  947MOL0     C27775   1.579   3.086   0.071  0.1363 -0.0105 -0.1975
  947MOL0     C27776   1.549   2.964   0.119  0.4726  0.0350  0.1246
  947MOL0     C27777   1.656   2.865   0.093 -0.2254  0.4301  0.1565
  947MOL0     H27778   1.119   2.621   0.097  2.6130  1.3530 -0.4935
  947MOL0     H27779   1.039   2.411   0.171  0.6472  1.8277 -1.4745
  947MOL0     H27780   0.928   2.237   0.312 -0.2022  1.7865 -0.5149
  947MOL0     H27781   1.104   2.212   0.271 -1.4652 -2.0417 -0.9889
  947MOL0     H27782   0.963   2.116   0.529 -1.1596  0.2434  0.3661
  947MOL0     H27783   1.125   2.070   0.456  0.8470  4.1480  0.3818
  947MOL0     H27784   0.898   2.001   0.282 -0.5096  2.6824  1.4807
  947MOL0     H27785   0.891   1.904   0.439 -0.0799 -2.9118 -2.6360
  947MOL0     H27786   1.135   1.913   0.277  0.1072  1.4975  0.2837
  947MOL0     H27787   1.102   1.823   0.420  1.0547  2.3219  0.9688
  947MOL0     H27788   0.928   1.690   0.332  1.0599 -1.0470 -0.6859
  947MOL0     H27789   0.887   1.802   0.211  1.3092  2.4306  0.1395
  947MOL0     H27790   0.991   1.599   0.132 -1.5044  1.9152 -0.6719
  947MOL0     H27791   1.101   1.736   0.095 -0.7467  0.8607  0.1375
  947MOL0     H27792   1.119   1.555   0.347 -4.9788 -1.3692 -2.1647
  947MOL0     H27793   1.237   1.659   0.278 -0.2383 -0.0082  2.3149
  947MOL0     H27794   1.308   1.436   0.183 -0.1033 -0.8909 -2.7073
  947MOL0     H27795   1.149   1.377   0.189  0.8755 -1.1317 -1.1040
  947MOL0     H27796   1.385   1.626   0.008 -0.6419 -0.7068  0.5653
  947MOL0     H27797   1.453   1.504  -0.308 -2.2191 -2.2393 -5.2485
  947MOL0     H27798   1.307   1.606  -0.360 -0.9036 -1.0187  2.1214
  947MOL0     H27799   1.527   1.708  -0.163  3.1291  2.9034 -0.5590
  947MOL0     H27800   1.513   1.745  -0.338 -1.9795  1.7610 -0.4184
  947MOL0     H27801   1.304   1.845  -0.136 -4.6417  1.0582 -1.7184
  947MOL0     H27802   1.291   1.816  -0.307  1.6195  0.0988 -3.1539
  947MOL0     H27803   1.516   1.971  -0.174  1.6410 -2.9024 -1.7146
  947MOL0     H27804   1.360   2.041  -0.246 -4.7188 -4.6787 -3.8010
  947MOL0     H27805   1.559   2.183  -0.197 -1.3231 -0.9907 -1.6431
  947MOL0     H27806   1.659   2.400  -0.250 -2.4858  1.1947  0.6214
  947MOL0     H27807   1.705   2.695  -0.742 -0.3516  2.1464  1.0956
  947MOL0     H27808   1.780   2.902  -0.814  0.4631  2.0949  0.3261
  947MOL0     H27809   2.009   2.995  -0.914  0.2832 -1.5499  1.3723
  947MOL0     H27810   1.887   3.106  -0.842  0.6574  0.6210  0.5628
  947MOL0     H27811   2.030   3.259  -0.966  2.6445  2.3537 -0.7591
  947MOL0     H27812   2.033   3.272  -0.788  3.4042  0.4946 -0.1841
  947MOL0     H27813   2.255   3.295  -0.820  2.6072 -0.7849 -1.6555
  947MOL0     H27814   2.231   3.128  -0.770  0.6437  1.3498  0.7456
  947MOL0     H27815   2.234   3.246  -1.057 -1.0565 -1.2916 -0.9952
  947MOL0     H27816   2.254   3.075  -1.036  2.2539 -1.7142  0.4479
  947MOL0     H27817   2.446   3.269  -0.917 -2.0911 -1.9934  2.1385
  947MOL0     H27818   2.459   3.205  -1.091  0.5231  2.5472  0.7203
  947MOL0     H27819   2.470   3.047  -0.833 -0.4026  0.9179 -0.4940
  947MOL0     H27820   2.494   2.978  -1.000 -0.3498 -2.0153  1.2434
  947MOL0     H27821   2.677   3.188  -0.863 -0.5352 -0.2372 -0.1260
  947MOL0     H27822   2.699   3.104  -1.020 -0.0460 -0.4047  0.6371
  947MOL0     H27823   2.829   3.014  -0.813 -0.5497  0.4554  1.0155
  947MOL0     H27824   2.668   2.971  -0.749 -0.0689 -1.0334 -0.6070
  947MOL0     H27825   2.156   2.827  -0.611 -0.1298 -0.1142  2.0484
  947MOL0     H27826   2.080   2.605  -0.551  0.0911  1.2626  0.7988
  947MOL0     H27827   1.736   2.242  -0.663  0.7390 -2.1155  0.9243
  947MOL0     H27828   1.620   2.036  -0.583 -0.8750  0.5841 -0.9036
  947MOL0     H27829   1.173   2.482   0.572  2.7601 -0.0346 -0.1103
  947MOL0     H27830   1.242   2.711   0.504 -2.1931 -0.5335  0.9094
  947MOL0     H27831   1.231   3.037   0.210  0.4531 -3.2360  2.3610
  947MOL0     H27832   1.281   3.255   0.139 -2.7665 -2.9388  1.3429
  947MOL0     H27833   1.667   3.286  -0.109  1.8919 -0.2577 -0.6217
  947MOL0     H27834   1.743   3.308   0.039 -0.4073  0.6219  0.6279
  947MOL0     H27835   1.614   3.564   0.004 -1.2246 -1.7681  0.1776
  947MOL0     H27836   1.628   3.500  -0.161  0.4254 -0.0568 -0.4516
  947MOL0     H27837   1.883   3.458  -0.102 -2.8254 -1.6569 -3.5954
  947MOL0     H27838   1.832   3.562   0.052 -3.2570  1.4053  0.4514
  947MOL0     H27839   1.807   3.648  -0.241 -2.1768  1.4759  1.9742
  947MOL0     H27840   1.783   3.748  -0.102 -0.1418 -0.8840  1.0609
  947MOL0     H27841   2.205   3.724  -0.053 -0.2193  2.8032 -0.0392
  947MOL0     H27842   1.676   3.082   0.022 -0.1226 -1.1621 -0.6372
  947MOL0     H27843   1.629   2.760   0.081  2.9465 -0.9348  3.2405
  947MOL0     H27844   1.716   2.890   0.004 -1.6515  0.9995 -0.6724
  947MOL0     H27845   1.722   2.869   0.180  2.2670 -1.7147 -1.4520
  948MOL0     O27846   7.674   8.427   2.237  0.5486  0.2281 -0.0305
  948MOL0     C27847   7.551   8.420   2.218  0.1641 -0.6741 -0.3913
  948MOL0     O27848   7.495   8.458   2.106  0.0825 -0.5051  0.8062
  948MOL0     C27849   7.574   8.513   2.010  1.5426  0.2234  0.2388
  948MOL0     C27850   7.596   8.657   2.016  0.2512  0.4354 -1.1538
  948MOL0     C27851   7.671   8.710   1.924 -1.5689 -0.1572  0.5116
  948MOL0     C27852   7.724   8.646   1.819 -0.4537 -0.2875  0.4000
  948MOL0     O27853   7.799   8.714   1.727  0.4707  0.2363  0.2957
  948MOL0     C27854   7.839   8.645   1.605  0.5078  0.3040  1.2875
  948MOL0     C27855   7.935   8.724   1.524  0.1914 -0.5370 -0.0767
  948MOL0     C27856   8.085   8.719   1.558  0.0189  0.0214 -0.8443
  948MOL0     C27857   8.119   8.811   1.677 -0.2905  0.2295  1.4382
  948MOL0     C27858   8.240   8.769   1.753  0.0241  0.4120 -0.0635
  948MOL0     C27859   8.262   8.864   1.869  1.1170  0.1203  0.7627
  948MOL0     C27860   8.382   8.837   1.959 -0.0672 -0.3752  1.1350
  948MOL0     C27861   8.386   8.929   2.079 -0.1645  0.0555 -0.2010
  948MOL0     N27862   8.487   8.879   2.169 -0.5923  0.2854  0.8295
  948MOL0     C27863   8.473   8.771   2.243 -0.3267  0.6050 -1.0989
  948MOL0     C27864   8.585   8.759   2.316 -0.3382 -0.3900  0.8246
  948MOL0     C27865   8.632   8.632   2.393 -0.5060  0.0021  0.6172
  948MOL0     C27866   8.761   8.575   2.344  0.0411  0.1816  0.1113
  948MOL0     C27867   8.872   8.659   2.395 -0.3839 -0.7099  0.2351
  948MOL0     C27868   9.007   8.605   2.363 -0.2871  0.3736  0.9976
  948MOL0     O27869   9.020   8.613   2.223  0.4180 -0.3686  1.0785
  948MOL0     C27870   9.131   8.548   2.176 -0.5747  0.2783  0.8160
  948MOL0     C27871   9.115   8.413   2.125  0.4614  1.0688 -0.6162
  948MOL0     C27872   9.227   8.339   2.076  0.8215 -0.6307  0.5613
  948MOL0     C27873   9.348   8.392   2.087 -1.4964 -0.0401 -0.0387
  948MOL0     C27874   9.462   8.317   2.032  0.0918  0.6209 -0.7286
  948MOL0     O27875   9.429   8.199   1.956  0.5543 -0.3458  0.0812
  948MOL0     C27876   9.523   8.137   1.879 -0.1986 -0.7536  0.2555
  948MOL0     C27877   9.655   8.111   1.912  0.1601  0.1122 -0.8525
  948MOL0     C27878   9.743   8.050   1.815  0.0485 -0.7449 -0.8472
  948MOL0     C27879   9.702   8.021   1.681  0.3217  0.1067  0.0565
  948MOL0     O27880   9.775   7.988   1.576  0.3831  0.0660 -0.1050
  948MOL0     C27881   9.834   7.863   1.585  0.1378  0.0993 -0.2946
  948MOL0     C27882   9.936   7.859   1.478 -0.1443 -0.5945 -0.7707
  948MOL0     C27883   9.872   7.812   1.346 -0.2107  0.1883 -0.8228
  948MOL0     C27884   9.966   7.836   1.230  0.2597 -0.0313  0.0840
  948MOL0     C27885   9.924   7.748   1.108  0.6667 -0.5589  0.5449
  948MOL0     C27886  10.019   7.775   0.995  0.7265 -0.4263 -0.1423
  948MOL0     C27887   9.962   7.900   0.917 -0.1948 -1.1689 -0.2944
  948MOL0     C27888  10.058   7.958   0.812 -0.5950  0.1894  0.5983
  948MOL0    Cl27889  10.091   7.849   0.675  0.4243  0.0997 -0.0225
  948MOL0     C27890   9.566   8.045   1.655 -0.0081  0.1411 -0.6584
  948MOL0     C27891   9.486   8.110   1.748  0.7456  0.0607 -1.5702
  948MOL0     O27892   9.579   8.364   2.037  0.3168  0.4632  0.3325
  948MOL0     C27893   9.368   8.518   2.135 -0.5787 -0.3660  0.1562
  948MOL0     C27894   9.257   8.598   2.184  0.7198  0.1783  0.2342
  948MOL0     N27895   8.660   8.872   2.291 -0.5935 -0.1607 -0.1021
  948MOL0     N27896   8.589   8.952   2.209 -0.2504 -0.3390 -0.5371
  948MOL0     C27897   7.686   8.510   1.799 -0.3858  0.4179 -0.2352
  948MOL0     C27898   7.620   8.446   1.900  0.2199 -0.0204 -0.3698
  948MOL0     C27899   7.464   8.381   2.332 -0.6030 -0.2198 -0.1579
  948MOL0     C27900   7.448   8.245   2.365  1.0402 -0.2605 -0.7159
  948MOL0     C27901   7.357   8.206   2.465  0.1816 -0.7909  0.3565
  948MOL0     C27902   7.287   8.309   2.532  0.0737 -0.7430  0.2169
  948MOL0     O27903   7.223   8.257   2.639  0.0351  0.1745 -0.7733
  948MOL0     C27904   7.148   8.343   2.726 -0.0377  0.2256  0.9404
  948MOL0     C27905   7.117   8.266   2.862  0.0519  0.0746  0.2016
  948MOL0     C27906   7.032   8.347   2.964  0.4745 -0.1760  0.6041
  948MOL0     C27907   6.904   8.417   2.912 -0.7032  0.1361  0.6925
  948MOL0     C27908   6.820   8.325   2.831  0.6588  0.1633 -0.7376
  948MOL0     C27909   6.743   8.261   2.766  0.8894  0.1269  0.0206
  948MOL0     C27910   7.281   8.440   2.486 -0.2673  0.6706  0.4632
  948MOL0     C27911   7.374   8.473   2.386 -0.8720 -0.4764  0.0152
  948MOL0     C27912   7.376   8.617   2.336 -0.3500 -0.2103 -0.1813
  948MOL0     H27913   7.550   8.699   2.105 -1.1702  1.5749 -2.3699
  948MOL0     H27914   7.690   8.816   1.934  0.5405 -0.1317 -2.4471
  948MOL0     H27915   7.884   8.547   1.618 -0.4194 -0.3791 -0.2619
  948MOL0     H27916   7.761   8.618   1.533  1.5662 -1.2261  0.6803
  948MOL0     H27917   7.899   8.826   1.506  0.7054 -0.1125  1.1423
  948MOL0     H27918   7.937   8.668   1.430  1.8219 -1.6576  0.5932
  948MOL0     H27919   8.150   8.734   1.472  0.0732 -2.3925 -1.2948
  948MOL0     H27920   8.112   8.615   1.578 -2.2279 -0.8000 -1.7960
  948MOL0     H27921   8.127   8.913   1.638 -1.1668  0.1934  1.1427
  948MOL0     H27922   8.038   8.818   1.751 -1.3470  1.3455  0.2532
  948MOL0     H27923   8.239   8.666   1.790  0.4684  0.0772 -0.9504
  948MOL0     H27924   8.325   8.771   1.684 -1.3034 -0.9909 -1.8419
  948MOL0     H27925   8.261   8.968   1.834  1.1995 -0.2355 -0.3159
  948MOL0     H27926   8.172   8.844   1.928 -1.5245  0.9844 -2.6641
  948MOL0     H27927   8.479   8.854   1.911  1.6593 -4.6142  2.6369
  948MOL0     H27928   8.385   8.733   1.992 -0.0833 -1.1829 -1.1964
  948MOL0     H27929   8.401   9.036   2.061  0.4729  0.2486  1.2892
  948MOL0     H27930   8.289   8.918   2.127  0.3419  1.7828  1.3006
  948MOL0     H27931   8.383   8.714   2.262 -0.7564  1.9570  1.4244
  948MOL0     H27932   8.643   8.667   2.496  0.7190  0.1447  0.4530
  948MOL0     H27933   8.552   8.557   2.394  1.9590 -2.8581  0.3282
  948MOL0     H27934   8.768   8.476   2.389 -3.7219 -0.6454 -0.7436
  948MOL0     H27935   8.763   8.567   2.235 -1.6346  5.1192 -0.5212
  948MOL0     H27936   8.861   8.656   2.504 -1.2130 -0.6264  0.1540
  948MOL0     H27937   8.861   8.760   2.353 -2.2556 -0.3253  1.5582
  948MOL0     H27938   9.013   8.502   2.399  0.1512  0.4887  1.2696
  948MOL0     H27939   9.084   8.666   2.411  1.1175 -1.5809  1.3696
  948MOL0     H27940   9.019   8.368   2.107  0.9314  0.9171 -3.1171
  948MOL0     H27941   9.203   8.236   2.049 -2.2433 -0.5608  2.5660
  948MOL0     H27942   9.678   8.134   2.016 -2.4107 -1.4484  0.1547
  948MOL0     H27943   9.847   8.032   1.839 -0.1772 -2.3236 -0.9305
  948MOL0     H27944   9.884   7.862   1.682  1.2131  2.5896 -0.7401
  948MOL0     H27945   9.765   7.779   1.581 -1.9084  1.6599  0.5159
  948MOL0     H27946   9.997   7.950   1.476 -0.2431 -0.4962  0.1754
  948MOL0     H27947  10.005   7.781   1.510  1.2217  1.3901  1.5183
  948MOL0     H27948   9.857   7.705   1.359 -0.8795  0.5157  1.8577
  948MOL0     H27949   9.778   7.864   1.325 -1.2122 -1.1934  0.0776
  948MOL0     H27950  10.065   7.795   1.253 -0.1703 -0.3772  1.4671
  948MOL0     H27951   9.997   7.938   1.207 -0.2589  0.1884  0.3441
  948MOL0     H27952   9.817   7.765   1.092  0.6154  0.0718  1.4815
  948MOL0     H27953   9.916   7.644   1.138 -5.0840 -0.6991 -0.2675
  948MOL0     H27954  10.118   7.784   1.040  1.1890 -2.2951 -0.6974
  948MOL0     H27955  10.012   7.696   0.920 -0.2524 -0.1802 -0.3191
  948MOL0     H27956   9.926   7.978   0.985 -2.8818 -4.0573  1.9512
  948MOL0     H27957   9.874   7.879   0.854  0.2012  0.4369 -1.4327
  948MOL0     H27958  10.009   8.044   0.767  1.1874  1.8661  1.7311
  948MOL0     H27959  10.145   7.984   0.872 -1.2834 -2.6345  3.0866
  948MOL0     H27960   9.524   8.027   1.556 -0.1854  0.6898 -0.6836
  948MOL0     H27961   9.390   8.137   1.705  0.0750 -3.1451 -2.3275
  948MOL0     H27962   9.468   8.562   2.140 -1.1397  0.9037  0.8008
  948MOL0     H27963   9.271   8.700   2.218 -2.6705  2.1634 -3.3925
  948MOL0     H27964   7.718   8.446   1.717 -1.3006 -2.8565  1.7734
  948MOL0     H27965   7.590   8.342   1.892 -3.8228  0.9614 -0.0113
  948MOL0     H27966   7.486   8.159   2.311 -3.5089 -3.3391  0.3921
  948MOL0     H27967   7.344   8.099   2.478  0.4410 -0.8848 -0.1513
  948MOL0     H27968   7.055   8.381   2.682  2.7992  3.8282 -2.7464
  948MOL0     H27969   7.208   8.430   2.754  1.8487 -0.0202 -1.9931
  948MOL0     H27970   7.212   8.237   2.908  2.4164  4.2609 -1.4785
  948MOL0     H27971   7.061   8.180   2.823 -1.8330  0.0562  2.6735
  948MOL0     H27972   7.097   8.422   3.009  2.0667 -1.0973 -0.0798
  948MOL0     H27973   6.999   8.272   3.037  1.4731 -1.4921 -0.2409
  948MOL0     H27974   6.849   8.470   2.990 -1.3244  2.5363 -1.2590
  948MOL0     H27975   6.937   8.482   2.830  3.0404 -2.8978 -0.5167
  948MOL0     H27976   6.680   8.212   2.694  0.2826  1.7931 -0.6195
  948MOL0     H27977   7.208   8.510   2.525 -3.1072 -1.1455 -1.2066
  948MOL0     H27978   7.475   8.653   2.307  0.6230 -1.4776  1.4685
  948MOL0     H27979   7.317   8.617   2.243 -1.3686  1.5834  0.4194
  948MOL0     H27980   7.330   8.689   2.404  2.5860  1.5943  0.0757
  949MOL0     O27981   1.423   5.865   0.070 -0.0070 -0.1748 -0.3248
  949MOL0     C27982   1.321   5.795   0.099 -0.5650 -0.2962  0.5551
  949MOL0     O27983   1.264   5.686   0.032  0.6455 -0.4775  0.3184
  949MOL0     C27984   1.311   5.668  -0.095  0.5845  0.5439 -0.4790
  949MOL0     C27985   1.330   5.765  -0.193 -0.1824  1.0074 -0.7968
  949MOL0     C27986   1.377   5.738  -0.316 -0.4486  0.3112 -0.0932
  949MOL0     C27987   1.402   5.608  -0.354  0.7051  0.3124 -0.2207
  949MOL0     O27988   1.474   5.573  -0.475 -0.0067 -0.3013 -0.6272
  949MOL0     C27989   1.581   5.475  -0.447  0.3996 -0.0919  0.1773
  949MOL0     C27990   1.595   5.381  -0.566  0.7811  0.5199 -0.3789
  949MOL0     C27991   1.700   5.265  -0.549  0.2072 -0.4421 -0.8788
  949MOL0     C27992   1.684   5.183  -0.428  0.0320 -0.3835  0.6436
  949MOL0     C27993   1.779   5.056  -0.419  0.2765  0.1061  0.1772
  949MOL0     C27994   1.760   4.997  -0.274 -0.1145  0.7764 -0.0556
  949MOL0     C27995   1.804   4.850  -0.270  0.1537 -0.4782  0.2532
  949MOL0     C27996   1.739   4.780  -0.149  0.3594  0.8351 -0.2082
  949MOL0     N27997   1.813   4.784  -0.030 -0.1443 -0.6031 -0.5684
  949MOL0     C27998   1.809   4.897   0.053 -0.5566 -0.2730 -0.6052
  949MOL0     C27999   1.908   4.870   0.143 -0.9404  1.0295  0.0256
  949MOL0     C28000   1.938   4.944   0.266  0.3238 -0.2277 -1.3423
  949MOL0     C28001   2.041   4.874   0.365 -0.0658 -0.3511 -0.5666
  949MOL0     C28002   2.174   4.886   0.300  0.1924  0.3991  0.1151
  949MOL0     C28003   2.256   4.788   0.363  0.1758  0.4023  0.0304
  949MOL0     O28004   2.393   4.805   0.317 -0.5429  0.2352  0.6604
  949MOL0     C28005   2.427   4.761   0.193 -0.1500 -0.1978 -0.0526
  949MOL0     C28006   2.345   4.682   0.098 -0.9225 -0.6803  0.6306
  949MOL0     C28007   2.389   4.658  -0.036 -0.6314 -0.1747 -1.3434
  949MOL0     C28008   2.509   4.703  -0.085  0.5522  0.5690 -0.7082
  949MOL0     C28009   2.568   4.673  -0.218 -0.0393 -0.0816 -0.1733
  949MOL0     O28010   2.679   4.739  -0.246  0.4321  1.2550  0.9100
  949MOL0     C28011   2.704   4.767  -0.375  0.3351 -0.2561 -0.4607
  949MOL0     C28012   2.806   4.698  -0.437 -0.5855 -0.3316 -0.6502
  949MOL0     C28013   2.844   4.735  -0.568  0.4525  0.9271 -0.1864
  949MOL0     C28014   2.769   4.829  -0.646 -0.2368  0.2989 -0.0537
  949MOL0     O28015   2.791   4.864  -0.780 -0.1139 -0.3952 -0.1754
  949MOL0     C28016   2.865   4.763  -0.844 -0.0882  0.0717 -0.3353
  949MOL0     C28017   2.799   4.736  -0.974 -0.0509  0.1782 -0.3584
  949MOL0     C28018   2.807   4.588  -1.023  0.2896  0.7052 -0.6018
  949MOL0     C28019   2.786   4.575  -1.177  0.6367 -0.0003 -0.0923
  949MOL0     C28020   2.826   4.432  -1.227 -0.6384 -0.4779 -0.9825
  949MOL0     C28021   2.824   4.432  -1.376 -0.0092  0.2053  1.1913
  949MOL0     C28022   2.930   4.510  -1.441  0.4707  0.6137  0.5904
  949MOL0     C28023   2.969   4.455  -1.573  0.4738 -0.0320  1.6718
  949MOL0    Cl28024   2.847   4.489  -1.707 -0.0095  0.1079  0.1007
  949MOL0     C28025   2.674   4.903  -0.573 -0.2320 -0.9999  0.2637
  949MOL0     C28026   2.638   4.868  -0.441  0.5008 -0.8321  0.0514
  949MOL0     O28027   2.517   4.582  -0.283  0.5843 -0.7232  0.4858
  949MOL0     C28028   2.596   4.762   0.015 -0.5872  0.7598 -0.0522
  949MOL0     C28029   2.553   4.801   0.147 -0.0866  0.8327  0.9764
  949MOL0     N28030   1.965   4.753   0.098  0.4409  0.4781 -0.7475
  949MOL0     N28031   1.918   4.706  -0.005  0.8489  0.3121  0.1463
  949MOL0     C28032   1.366   5.499  -0.262  0.6873 -0.3497  0.4737
  949MOL0     C28033   1.326   5.535  -0.135  0.0494 -0.1656 -0.3457
  949MOL0     C28034   1.264   5.823   0.229 -0.4770  0.3736 -1.0455
  949MOL0     C28035   1.331   5.783   0.354  0.5171 -0.1453 -0.0136
  949MOL0     C28036   1.265   5.801   0.476 -0.8695  1.2115  0.6630
  949MOL0     C28037   1.140   5.858   0.486 -0.7259 -0.5880 -0.3726
  949MOL0     O28038   1.062   5.852   0.594  0.1261 -0.5986  0.2895
  949MOL0     C28039   1.113   5.782   0.716 -0.1582  0.1842  0.5570
  949MOL0     C28040   1.109   5.625   0.706  0.4147 -0.7549  0.3349
  949MOL0     C28041   0.968   5.568   0.703 -0.3191  0.0327  0.2278
  949MOL0     C28042   0.966   5.411   0.717  0.4420  0.7568  0.2407
  949MOL0     C28043   1.002   5.373   0.856  0.7783 -0.7298  0.0018
  949MOL0     C28044   1.045   5.341   0.964  0.4267  1.1024  0.6187
  949MOL0     C28045   1.089   5.918   0.367  0.3485 -0.3227 -1.0578
  949MOL0     C28046   1.148   5.896   0.241  0.4031 -0.0620 -1.0621
  949MOL0     C28047   1.086   5.954   0.118  0.7927 -0.6252 -0.5879
  949MOL0     H28048   1.308   5.869  -0.171 -0.0569  1.0427 -0.8331
  949MOL0     H28049   1.391   5.819  -0.387 -3.6199  1.2036  0.1289
  949MOL0     H28050   1.674   5.534  -0.444 -0.9726  2.1368  1.0809
  949MOL0     H28051   1.575   5.408  -0.361 -1.7258  0.6100  0.6256
  949MOL0     H28052   1.619   5.439  -0.656  1.7209  0.7283  0.0009
  949MOL0     H28053   1.494   5.340  -0.570 -0.5257  3.3813  0.3553
  949MOL0     H28054   1.794   5.320  -0.560 -0.5995  0.8107 -1.8886
  949MOL0     H28055   1.676   5.200  -0.633 -1.6644 -3.5308  1.8415
  949MOL0     H28056   1.712   5.240  -0.339  0.1976 -2.2636  1.8468
  949MOL0     H28057   1.580   5.149  -0.431  0.7961 -3.1212 -3.7542
  949MOL0     H28058   1.742   4.988  -0.497  1.0856 -1.4458  1.0879
  949MOL0     H28059   1.882   5.080  -0.447 -0.2218 -2.0664 -4.3640
  949MOL0     H28060   1.817   5.059  -0.204 -0.5681  1.5325 -0.3444
  949MOL0     H28061   1.654   5.016  -0.259  0.5261  2.8089  2.5613
  949MOL0     H28062   1.913   4.840  -0.257  0.2719  1.3086  0.9851
  949MOL0     H28063   1.768   4.806  -0.363 -0.7083 -0.7824  0.7228
  949MOL0     H28064   1.639   4.820  -0.131  0.5115 -0.1549  3.8216
  949MOL0     H28065   1.729   4.675  -0.180  1.3741 -0.1558  2.5315
  949MOL0     H28066   1.727   4.968   0.052 -1.1474 -0.9438 -0.5003
  949MOL0     H28067   1.980   5.042   0.240 -1.6179  1.3954  1.2486
  949MOL0     H28068   1.846   4.954   0.323  0.8027  1.4006 -0.8122
  949MOL0     H28069   2.045   4.926   0.461  0.5702  1.5917 -1.5876
  949MOL0     H28070   1.998   4.776   0.386  0.0841  0.2357  3.2170
  949MOL0     H28071   2.212   4.988   0.313 -0.4920  0.4640  1.8031
  949MOL0     H28072   2.173   4.851   0.196 -3.1124 -1.0711  0.5222
  949MOL0     H28073   2.228   4.684   0.344  1.0582 -0.3684  2.5423
  949MOL0     H28074   2.247   4.802   0.471 -2.6778 -0.2029 -0.0601
  949MOL0     H28075   2.249   4.641   0.130 -1.5561  1.2729  1.4088
  949MOL0     H28076   2.332   4.605  -0.112 -2.6809  1.6767 -1.1885
  949MOL0     H28077   2.866   4.627  -0.381 -0.5064  0.1691 -0.0982
  949MOL0     H28078   2.940   4.693  -0.596 -0.1651  0.2380 -1.3642
  949MOL0     H28079   2.956   4.819  -0.870 -0.2127 -0.5773 -2.3195
  949MOL0     H28080   2.880   4.662  -0.805 -2.5388 -0.4275 -0.5449
  949MOL0     H28081   2.698   4.777  -0.980 -0.3027 -0.2717  0.6841
  949MOL0     H28082   2.860   4.793  -1.045  0.7121 -2.0218 -1.5639
  949MOL0     H28083   2.909   4.556  -1.001 -0.8553 -3.2094 -0.1145
  949MOL0     H28084   2.730   4.524  -0.979 -0.2370  1.2937 -0.6441
  949MOL0     H28085   2.849   4.648  -1.230  2.3122 -1.1810  0.2014
  949MOL0     H28086   2.684   4.598  -1.209 -0.5103 -2.6156  1.3660
  949MOL0     H28087   2.757   4.356  -1.189  1.8694 -2.5725 -0.3239
  949MOL0     H28088   2.921   4.414  -1.177 -1.4017 -0.6814  0.4625
  949MOL0     H28089   2.827   4.333  -1.424  3.1283 -0.2754  2.1260
  949MOL0     H28090   2.728   4.477  -1.401 -0.7960 -0.2347  3.2614
  949MOL0     H28091   3.012   4.494  -1.371 -0.1055 -1.3001  0.8775
  949MOL0     H28092   2.901   4.615  -1.457 -1.5956 -0.2520 -2.2251
  949MOL0     H28093   3.074   4.482  -1.588 -0.5262  3.8588  0.6489
  949MOL0     H28094   2.970   4.345  -1.568  2.0437 -0.3351 -1.8869
  949MOL0     H28095   2.631   4.990  -0.620  6.2557  2.4394 -0.5344
  949MOL0     H28096   2.561   4.929  -0.396  1.5094  1.9017 -1.6819
  949MOL0     H28097   2.698   4.786  -0.014 -1.2842  1.2962 -2.2844
  949MOL0     H28098   2.603   4.875   0.209 -0.8079  2.5150 -0.3688
  949MOL0     H28099   1.376   5.393  -0.278  1.3744 -0.2288  0.0612
  949MOL0     H28100   1.316   5.458  -0.059  1.9793  3.0149  3.4666
  949MOL0     H28101   1.424   5.728   0.355  0.5681 -0.1663 -1.8683
  949MOL0     H28102   1.323   5.765   0.560 -1.0513  1.0572  0.7233
  949MOL0     H28103   1.051   5.818   0.799  1.5459  1.3159  1.3958
  949MOL0     H28104   1.214   5.813   0.742 -0.4423  1.5149  0.1513
  949MOL0     H28105   1.168   5.584   0.788  2.3387  4.1639  1.8003
  949MOL0     H28106   1.166   5.608   0.614 -0.7037 -0.0982 -0.5146
  949MOL0     H28107   0.918   5.611   0.616  0.6297 -0.5123 -0.6149
  949MOL0     H28108   0.922   5.608   0.793  0.5788  2.5026 -0.3153
  949MOL0     H28109   0.859   5.392   0.709 -0.2289  2.3801  3.6626
  949MOL0     H28110   1.023   5.350   0.646 -1.5390 -1.8512  0.7356
  949MOL0     H28111   1.086   5.322   1.061  2.2259  0.1244 -0.3023
  949MOL0     H28112   0.988   5.952   0.386  0.8140  0.5260 -0.0213
  949MOL0     H28113   1.158   5.995   0.047 -1.1714  0.5574 -1.9815
  949MOL0     H28114   1.026   5.877   0.069  1.7807 -3.1577  1.8494
  949MOL0     H28115   1.023   6.038   0.147 -0.4958 -2.0794  1.0892
  950MOL0     O28116   8.237   8.366  11.309 -0.1742  0.1514 -0.7210
  950MOL0     C28117   8.193   8.473  11.345 -0.2772  0.5030  0.2686
  950MOL0     O28118   8.090   8.487  11.433 -0.5239 -0.5604  0.1509
  950MOL0     C28119   8.023   8.385  11.484  0.6911  0.4808  0.2223
  950MOL0     C28120   8.073   8.301  11.584 -0.2217  0.0439 -0.5791
  950MOL0     C28121   7.989   8.190  11.637 -1.0146  0.0849  0.1503
  950MOL0     C28122   7.864   8.158  11.575 -0.3778  0.9131 -0.5185
  950MOL0     O28123   7.788   8.056  11.611  0.5451 -0.2586  0.9279
  950MOL0     C28124   7.834   7.934  11.681  0.1278 -0.7512 -0.4108
  950MOL0     C28125   7.820   7.934  11.834 -0.2708  0.3184  0.3873
  950MOL0     C28126   7.910   7.825  11.895 -0.0131  0.0137  1.1911
  950MOL0     C28127   8.059   7.848  11.900  0.1006  0.2927 -0.6820
  950MOL0     C28128   8.138   7.723  11.937  1.0093  0.6208 -0.1991
  950MOL0     C28129   8.290   7.738  11.927  0.8850 -0.0054  0.5803
  950MOL0     C28130   8.352   7.837  12.026  0.5685 -0.2513 -0.7492
  950MOL0     C28131   8.502   7.829  12.033 -0.2380 -0.3644  0.7433
  950MOL0     N28132   8.570   7.878  11.906  0.8851 -0.8942  0.0086
  950MOL0     C28133   8.674   7.818  11.835  0.4135  0.2174 -0.0267
  950MOL0     C28134   8.653   7.870  11.717  0.3312 -1.4005  0.8349
  950MOL0     C28135   8.747   7.864  11.591  0.4975 -0.7373  1.1460
  950MOL0     C28136   8.739   7.726  11.527  1.0479  0.3072 -0.1247
  950MOL0     C28137   8.872   7.706  11.458  0.5105  0.0725  0.0943
  950MOL0     C28138   8.855   7.735  11.304 -1.1743  0.5157 -0.1968
  950MOL0     O28139   8.813   7.871  11.281 -0.1068  0.3829 -1.3461
  950MOL0     C28140   8.904   7.973  11.303  1.1841  0.1611  0.0308
  950MOL0     C28141   9.035   7.959  11.334 -0.3337 -0.7361 -0.1857
  950MOL0     C28142   9.113   8.065  11.379 -0.4891 -0.5115  0.2017
  950MOL0     C28143   9.058   8.194  11.383  0.2411 -1.1636 -0.4837
  950MOL0     C28144   9.133   8.303  11.456 -0.0502  0.4984 -0.8892
  950MOL0     O28145   9.087   8.429  11.449  0.0242  0.5155  1.7046
  950MOL0     C28146   9.138   8.526  11.529  0.1971  0.2466 -1.2464
  950MOL0     C28147   9.147   8.655  11.467 -0.4429 -0.7246 -0.0071
  950MOL0     C28148   9.205   8.759  11.530 -1.0769 -0.9721  0.1601
  950MOL0     C28149   9.273   8.733  11.658 -0.1295 -0.1637  0.9566
  950MOL0     O28150   9.347   8.837  11.705 -0.0009  0.9469 -0.0716
  950MOL0     C28151   9.352   8.863  11.853  0.1980 -0.6916 -0.3077
  950MOL0     C28152   9.444   8.975  11.879  1.1724 -0.0058 -0.4083
  950MOL0     C28153   9.382   9.106  11.839  1.0636 -0.8685  1.3491
  950MOL0     C28154   9.479   9.226  11.839 -0.5960 -0.7217 -0.0964
  950MOL0     C28155   9.422   9.356  11.775 -0.1886 -0.4052 -0.7396
  950MOL0     C28156   9.285   9.389  11.828  0.2259 -0.3062 -0.0427
  950MOL0     C28157   9.241   9.528  11.785 -1.0458 -0.2344  0.5630
  950MOL0     C28158   9.198   9.534  11.644  0.7299  0.8320  0.2142
  950MOL0    Cl28159   9.062   9.631  11.624  0.6698 -0.1185 -0.0874
  950MOL0     C28160   9.258   8.611  11.724  0.4169 -0.3410  0.4976
  950MOL0     C28161   9.186   8.507  11.663 -0.8074 -0.0154 -0.3509
  950MOL0     O28162   9.232   8.271  11.514 -0.2895  0.3583 -0.2323
  950MOL0     C28163   8.920   8.213  11.352  0.2893 -0.1590  0.5503
  950MOL0     C28164   8.843   8.104  11.309 -0.0188 -0.0395 -0.2165
  950MOL0     N28165   8.540   7.953  11.715  0.2941  1.0673 -0.7196
  950MOL0     N28166   8.499   7.960  11.830 -0.9440 -0.1204  0.3438
  950MOL0     C28167   7.817   8.251  11.484  0.1730  0.0451  0.6717
  950MOL0     C28168   7.892   8.361  11.442  0.1228 -0.6297  0.1913
  950MOL0     C28169   8.252   8.592  11.294  0.7965  0.4159 -0.1465
  950MOL0     C28170   8.273   8.694  11.381  0.9465  0.1049 -0.3442
  950MOL0     C28171   8.330   8.820  11.338 -0.3583 -0.6003  0.4138
  950MOL0     C28172   8.356   8.842  11.201 -0.7446  0.1697 -1.1258
  950MOL0     O28173   8.402   8.969  11.161 -0.5875 -0.2570  0.6004
  950MOL0     C28174   8.476   9.048  11.254 -1.2447 -0.1303  0.2663
  950MOL0     C28175   8.511   9.182  11.189 -0.4430 -0.1285 -0.6444
  950MOL0     C28176   8.576   9.167  11.053  0.9500 -0.3991 -0.2605
  950MOL0     C28177   8.626   9.303  10.994 -0.6526 -0.0843 -0.0292
  950MOL0     C28178   8.673   9.276  10.862 -0.2235 -0.6124 -0.8766
  950MOL0     C28179   8.716   9.280  10.748 -1.1502  0.9643 -0.1130
  950MOL0     C28180   8.332   8.746  11.109  0.4202 -0.5778  0.8647
  950MOL0     C28181   8.270   8.623  11.147 -0.6506  0.1860  0.0488
  950MOL0     C28182   8.223   8.529  11.040 -0.4492 -0.5208  0.4575
  950MOL0     H28183   8.164   8.331  11.634 -0.2025  0.2958 -0.7595
  950MOL0     H28184   8.032   8.126  11.714  0.9251  2.9237  1.5878
  950MOL0     H28185   7.784   7.847  11.637  0.5476 -1.0804 -0.2415
  950MOL0     H28186   7.940   7.923  11.657  1.2727  3.9082  1.3982
  950MOL0     H28187   7.716   7.908  11.854  0.3574 -1.5996  1.3284
  950MOL0     H28188   7.846   8.029  11.882  3.2528  0.1079 -0.8016
  950MOL0     H28189   7.908   7.739  11.827  0.2887  1.9738 -1.4380
  950MOL0     H28190   7.859   7.801  11.989 -2.8528 -0.4244 -0.3641
  950MOL0     H28191   8.090   7.874  11.799  1.2008 -1.3399 -0.7907
  950MOL0     H28192   8.082   7.928  11.971 -0.3231  0.6133 -0.9005
  950MOL0     H28193   8.113   7.691  12.039 -0.2336 -0.0416 -0.6959
  950MOL0     H28194   8.114   7.634  11.879 -1.0313 -0.7306  2.4992
  950MOL0     H28195   8.315   7.633  11.943 -4.5555 -1.7976 -0.4393
  950MOL0     H28196   8.310   7.775  11.827 -0.6803  1.8416  0.8738
  950MOL0     H28197   8.313   7.804  12.123 -2.1387 -1.4168 -2.1150
  950MOL0     H28198   8.318   7.940  12.012  2.7013  0.2283 -3.1819
  950MOL0     H28199   8.540   7.883  12.120 -0.5450  1.1154 -0.0224
  950MOL0     H28200   8.527   7.725  12.059 -1.0226 -0.1875  2.3243
  950MOL0     H28201   8.760   7.756  11.856 -0.0767 -0.0365  1.3217
  950MOL0     H28202   8.718   7.940  11.518 -0.6672 -0.4583  1.8711
  950MOL0     H28203   8.844   7.888  11.635  1.8047 -2.2445 -0.7532
  950MOL0     H28204   8.735   7.653  11.608  3.4257 -0.4550 -0.6245
  950MOL0     H28205   8.654   7.707  11.461 -0.1038  1.4063  0.9900
  950MOL0     H28206   8.898   7.600  11.463  0.2072  0.0511  1.7454
  950MOL0     H28207   8.957   7.760  11.500 -1.1841  2.0182  1.1940
  950MOL0     H28208   8.772   7.677  11.264 -1.5993  1.4495 -0.6820
  950MOL0     H28209   8.945   7.722  11.242  0.4166 -1.2920  2.2945
  950MOL0     H28210   9.077   7.860  11.347 -1.6526 -1.2155  0.5998
  950MOL0     H28211   9.214   8.059  11.418  0.2633  2.8911 -0.8918
  950MOL0     H28212   9.102   8.675  11.370  0.1794  1.1267  0.0528
  950MOL0     H28213   9.213   8.849  11.470  1.9984  0.1415  2.0151
  950MOL0     H28214   9.248   8.872  11.884  0.3668  0.2475  0.0384
  950MOL0     H28215   9.409   8.787  11.908 -0.0628  0.9860  2.5087
  950MOL0     H28216   9.469   8.980  11.986 -4.0570  1.3175  1.0736
  950MOL0     H28217   9.541   8.955  11.834  2.3277  2.5152  0.7545
  950MOL0     H28218   9.344   9.098  11.736  4.4490 -1.5732  0.0096
  950MOL0     H28219   9.292   9.130  11.896  0.7998 -0.1798  0.6727
  950MOL0     H28220   9.573   9.197  11.792 -0.6008 -2.3778  0.8315
  950MOL0     H28221   9.498   9.233  11.947  3.1368 -2.2280 -0.5214
  950MOL0     H28222   9.410   9.327  11.670  0.9830  2.0254 -1.6022
  950MOL0     H28223   9.491   9.440  11.784  2.1830 -2.2336 -0.9074
  950MOL0     H28224   9.212   9.315  11.795 -0.2088 -0.0806  0.4057
  950MOL0     H28225   9.275   9.382  11.937 -0.5555 -2.5439 -0.2161
  950MOL0     H28226   9.323   9.597  11.808 -1.7307  0.1216  1.9980
  950MOL0     H28227   9.156   9.554  11.848 -0.6351 -1.9672  1.8877
  950MOL0     H28228   9.284   9.562  11.582 -0.0808  0.6141 -1.0424
  950MOL0     H28229   9.165   9.437  11.607 -0.2463  1.7883 -1.5791
  950MOL0     H28230   9.299   8.606  11.825  0.6470 -1.2371  0.3667
  950MOL0     H28231   9.174   8.412  11.715  0.1551  1.5860  3.1201
  950MOL0     H28232   8.891   8.317  11.354 -1.7471 -0.6767  0.3742
  950MOL0     H28233   8.735   8.104  11.301 -0.0601 -2.1827 -0.0615
  950MOL0     H28234   7.713   8.227  11.464 -0.8483  3.6070  1.0977
  950MOL0     H28235   7.843   8.436  11.381  0.6695  1.6982  2.4638
  950MOL0     H28236   8.250   8.676  11.486 -0.8704 -0.6950 -0.8323
  950MOL0     H28237   8.336   8.896  11.416  3.2290  0.6641 -0.8936
  950MOL0     H28238   8.555   8.989  11.301 -1.2503  0.6084  1.2275
  950MOL0     H28239   8.406   9.088  11.328 -1.6621  1.4966 -0.9426
  950MOL0     H28240   8.578   9.232  11.260  0.3337 -0.5164 -1.0928
  950MOL0     H28241   8.422   9.243  11.173 -1.0134 -0.8655 -0.3285
  950MOL0     H28242   8.503   9.122  10.985  2.2628 -1.2317 -1.1590
  950MOL0     H28243   8.655   9.093  11.062  0.9807 -0.3800 -0.3657
  950MOL0     H28244   8.553   9.383  10.976  1.4176  1.4386 -2.3080
  950MOL0     H28245   8.703   9.346  11.058 -1.3947  0.5021  0.4936
  950MOL0     H28246   8.744   9.285  10.644  2.9012  0.4531  0.7882
  950MOL0     H28247   8.350   8.772  11.005 -1.4970  2.1038  1.1138
  950MOL0     H28248   8.122   8.496  11.062 -0.1689 -0.5482  1.7682
  950MOL0     H28249   8.209   8.577  10.943 -2.2159  0.4872  1.1658
  950MOL0     H28250   8.292   8.444  11.037 -0.6836 -0.7276  0.9714
  951MOL0     O28251   5.099   6.180   7.739 -0.1935  0.3302  0.0350
  951MOL0     C28252   4.992   6.159   7.808  0.7311 -0.1739 -0.3555
  951MOL0     O28253   4.858   6.181   7.766 -0.5495 -0.4621 -0.3466
  951MOL0     C28254   4.837   6.233   7.643  0.2048  0.0555 -0.1441
  951MOL0     C28255   4.885   6.367   7.614  0.1250 -0.0951 -0.3922
  951MOL0     C28256   4.862   6.412   7.484  0.2191  0.3009 -0.6715
  951MOL0     C28257   4.809   6.331   7.380  0.5320 -0.6950 -0.1820
  951MOL0     O28258   4.789   6.389   7.259 -0.2647 -0.9732 -0.4167
  951MOL0     C28259   4.775   6.532   7.238 -0.5688  0.7412  0.4196
  951MOL0     C28260   4.735   6.564   7.092 -0.1095 -0.6680  0.6242
  951MOL0     C28261   4.728   6.722   7.065  0.1218  0.5000  0.2567
  951MOL0     C28262   4.720   6.760   6.915  0.9140  0.4747  0.4036
  951MOL0     C28263   4.619   6.678   6.843 -0.1340 -0.9881 -0.2644
  951MOL0     C28264   4.588   6.732   6.705  0.4182  0.2627  1.5082
  951MOL0     C28265   4.682   6.832   6.635  0.0701  0.0067  0.3510
  951MOL0     C28266   4.658   6.824   6.482  0.2118 -0.9971 -0.1690
  951MOL0     N28267   4.715   6.947   6.431  0.3177  0.2129  0.3912
  951MOL0     C28268   4.648   7.067   6.441  0.3197  0.1450  0.1863
  951MOL0     C28269   4.735   7.150   6.376 -0.7922  0.0179  0.0896
  951MOL0     C28270   4.733   7.299   6.357 -0.1118  0.0558  0.0478
  951MOL0     C28271   4.792   7.360   6.231  0.7997 -0.4839  0.0076
  951MOL0     C28272   4.769   7.518   6.242 -0.4237 -0.0153 -1.0118
  951MOL0     C28273   4.859   7.593   6.137  0.0218  0.6781  0.4608
  951MOL0     O28274   4.793   7.716   6.086 -0.5853 -0.4139 -0.9299
  951MOL0     C28275   4.728   7.800   6.178  0.2209  0.0664  0.1930
  951MOL0     C28276   4.609   7.865   6.149  0.0262  0.1161 -0.3896
  951MOL0     C28277   4.541   7.950   6.234 -0.7281  1.1934  0.7496
  951MOL0     C28278   4.591   7.979   6.356 -0.2175 -0.5891 -0.0079
  951MOL0     C28279   4.518   8.077   6.445 -0.3703  0.2332  0.0105
  951MOL0     O28280   4.568   8.089   6.567  0.1611  0.1219  0.4454
  951MOL0     C28281   4.507   8.171   6.665 -0.7249  0.4408  0.8901
  951MOL0     C28282   4.517   8.309   6.668  0.0182  0.1613  0.0768
  951MOL0     C28283   4.452   8.372   6.765 -0.8070  0.1506  0.3673
  951MOL0     C28284   4.398   8.303   6.875 -0.7258  0.0061  0.2399
  951MOL0     O28285   4.338   8.372   6.977 -0.0809 -1.0236  0.6145
  951MOL0     C28286   4.416   8.421   7.085 -0.6630  0.4098 -0.4659
  951MOL0     C28287   4.446   8.312   7.189 -0.1444 -0.9088 -0.0600
  951MOL0     C28288   4.507   8.386   7.309 -0.0364  0.1582 -0.3782
  951MOL0     C28289   4.401   8.434   7.401  0.6664  0.4089  0.7390
  951MOL0     C28290   4.471   8.460   7.529 -0.1902 -1.1994  0.2571
  951MOL0     C28291   4.394   8.562   7.612 -0.6801 -0.0768 -0.0782
  951MOL0     C28292   4.467   8.593   7.747 -0.0057 -0.2587 -1.0655
  951MOL0     C28293   4.399   8.696   7.825  0.4003  0.3149  0.0032
  951MOL0    Cl28294   4.478   8.778   7.957 -0.1059 -0.1710  0.0486
  951MOL0     C28295   4.388   8.167   6.881 -0.3146  0.7864 -0.4275
  951MOL0     C28296   4.441   8.099   6.770 -0.0245 -0.1576  0.7532
  951MOL0     O28297   4.418   8.127   6.403  0.5815  0.9681 -0.0114
  951MOL0     C28298   4.712   7.916   6.394  0.4305  0.3058 -0.0534
  951MOL0     C28299   4.783   7.830   6.308 -1.3791  0.0658 -0.3691
  951MOL0     N28300   4.850   7.070   6.352  0.8823 -0.3351  1.1413
  951MOL0     N28301   4.840   6.949   6.381 -0.4870  0.3343 -0.4274
  951MOL0     C28302   4.780   6.204   7.411 -1.2947  0.0524  0.5489
  951MOL0     C28303   4.790   6.152   7.544 -0.3217 -0.0299  0.2512
  951MOL0     C28304   4.997   6.091   7.929 -1.0986  0.4751 -0.9010
  951MOL0     C28305   5.069   5.973   7.949  0.1117 -0.1828 -0.7334
  951MOL0     C28306   5.066   5.906   8.072 -0.5440 -0.7308 -0.6636
  951MOL0     C28307   4.997   5.958   8.188 -0.5652  0.5993 -0.4441
  951MOL0     O28308   5.003   5.887   8.309  0.5111  0.0628 -0.4614
  951MOL0     C28309   4.958   5.959   8.429  0.0974 -0.1468 -0.1131
  951MOL0     C28310   4.971   5.877   8.555  0.0468 -0.8270 -0.6560
  951MOL0     C28311   4.884   5.746   8.566 -0.8137 -0.0496  0.8025
  951MOL0     C28312   4.925   5.642   8.670  0.7398  0.9593 -0.0625
  951MOL0     C28313   4.812   5.556   8.697 -0.3893 -0.5505  0.2870
  951MOL0     C28314   4.718   5.489   8.696 -0.3943  0.2472  0.1133
  951MOL0     C28315   4.920   6.071   8.168 -0.2014 -0.4315 -0.3122
  951MOL0     C28316   4.919   6.146   8.039 -0.9035  0.1230  1.0107
  951MOL0     C28317   4.849   6.272   8.028 -0.6828  0.5163 -0.3308
  951MOL0     H28318   4.945   6.429   7.681  2.3610 -1.5575 -0.9551
  951MOL0     H28319   4.874   6.519   7.471 -0.3457  0.0051 -4.7184
  951MOL0     H28320   4.692   6.572   7.296  0.4123  1.3594  1.4486
  951MOL0     H28321   4.876   6.560   7.270 -0.7060  1.2579  0.4171
  951MOL0     H28322   4.637   6.521   7.072 -0.7787  1.5478 -1.1514
  951MOL0     H28323   4.807   6.525   7.020  2.6341  0.2541  2.6665
  951MOL0     H28324   4.813   6.772   7.113  2.7510 -1.9965 -1.4782
  951MOL0     H28325   4.640   6.762   7.116 -0.1896  1.5139 -1.0364
  951MOL0     H28326   4.682   6.862   6.908 -2.7906 -0.8662 -2.2395
  951MOL0     H28327   4.819   6.744   6.870  0.1223 -2.2487 -0.5808
  951MOL0     H28328   4.637   6.571   6.857  0.6264 -0.7538  0.6740
  951MOL0     H28329   4.527   6.702   6.896 -0.0527  1.1927 -1.0283
  951MOL0     H28330   4.594   6.645   6.638  1.3590  2.4778 -1.5133
  951MOL0     H28331   4.486   6.771   6.696  0.2123 -0.3379  1.1526
  951MOL0     H28332   4.788   6.829   6.662  0.0574  2.2762  0.8878
  951MOL0     H28333   4.645   6.925   6.679  0.7630  0.9978 -1.0852
  951MOL0     H28334   4.725   6.746   6.446 -0.2399 -0.2865 -2.7601
  951MOL0     H28335   4.558   6.792   6.453 -0.2321 -1.4615  1.7596
  951MOL0     H28336   4.552   7.088   6.487 -0.1337  3.7647 -1.9163
  951MOL0     H28337   4.627   7.321   6.366  0.1154  0.7122  1.4772
  951MOL0     H28338   4.784   7.356   6.435 -0.6120 -0.4116  0.7292
  951MOL0     H28339   4.900   7.341   6.228  1.4643  2.6844  0.4358
  951MOL0     H28340   4.752   7.327   6.135  2.2641  0.7569 -1.0892
  951MOL0     H28341   4.793   7.556   6.342 -0.2547  1.0663 -1.4404
  951MOL0     H28342   4.667   7.549   6.217 -1.4062  0.1023  2.5734
  951MOL0     H28343   4.885   7.525   6.056 -2.3453  0.7624 -0.4639
  951MOL0     H28344   4.954   7.635   6.171  0.3517  0.5668 -0.3093
  951MOL0     H28345   4.568   7.845   6.050  2.2735 -3.5544 -0.7970
  951MOL0     H28346   4.449   7.989   6.192 -0.7210  0.1163 -0.3190
  951MOL0     H28347   4.569   8.361   6.588 -0.7682 -0.6187 -0.9845
  951MOL0     H28348   4.458   8.481   6.760  0.3151  0.0392 -2.3185
  951MOL0     H28349   4.508   8.467   7.048  1.3893 -3.3581 -0.5582
  951MOL0     H28350   4.355   8.494   7.138  0.6978  1.4145 -0.2373
  951MOL0     H28351   4.357   8.252   7.210 -0.1493 -0.0524  2.6554
  951MOL0     H28352   4.518   8.234   7.161  0.0739 -0.5613 -0.4863
  951MOL0     H28353   4.560   8.306   7.363 -0.5625 -0.4379 -0.7428
  951MOL0     H28354   4.586   8.458   7.286  0.3527  0.7024  2.2469
  951MOL0     H28355   4.331   8.353   7.419  1.1090 -0.0895  0.2749
  951MOL0     H28356   4.349   8.522   7.362 -1.2723 -0.5149  1.1564
  951MOL0     H28357   4.563   8.514   7.504 -1.7992 -0.9842 -7.4206
  951MOL0     H28358   4.476   8.371   7.592 -0.5502 -0.1772  1.7925
  951MOL0     H28359   4.369   8.646   7.547 -0.3381  3.8621  4.3634
  951MOL0     H28360   4.297   8.524   7.645 -0.4256 -0.6262  0.0427
  951MOL0     H28361   4.562   8.640   7.719 -1.2969  4.3714  1.2194
  951MOL0     H28362   4.495   8.500   7.797 -1.1610 -1.0173 -1.7807
  951MOL0     H28363   4.350   8.772   7.763 -1.0629 -1.3431 -0.9380
  951MOL0     H28364   4.318   8.631   7.858  0.1282 -0.0031 -1.2534
  951MOL0     H28365   4.341   8.105   6.956 -1.7399  1.0383 -1.0793
  951MOL0     H28366   4.444   7.991   6.753  0.3026  0.1867 -1.7542
  951MOL0     H28367   4.766   7.944   6.484 -0.1442  0.6107  0.1997
  951MOL0     H28368   4.885   7.809   6.339 -0.1339  3.7300 -1.4054
  951MOL0     H28369   4.739   6.160   7.321  1.2719 -0.5164 -0.4273
  951MOL0     H28370   4.761   6.049   7.562  1.3258 -1.1495 -2.7578
  951MOL0     H28371   5.142   5.944   7.874  1.3290 -0.1079  0.3932
  951MOL0     H28372   5.119   5.811   8.070  1.1358  0.1880 -1.7454
  951MOL0     H28373   4.851   5.981   8.429 -0.4103 -2.3635  0.6621
  951MOL0     H28374   5.019   6.048   8.445 -1.4938  1.1346 -0.9425
  951MOL0     H28375   4.949   5.931   8.648 -0.3382 -3.0223  0.5802
  951MOL0     H28376   5.072   5.834   8.554  0.5240 -0.0069  2.0603
  951MOL0     H28377   4.902   5.698   8.469  0.3037 -0.3969  1.1645
  951MOL0     H28378   4.780   5.780   8.570 -0.9032  0.0173 -1.2796
  951MOL0     H28379   5.001   5.571   8.636  0.1829  1.1568 -1.8373
  951MOL0     H28380   4.956   5.702   8.756  1.8754 -0.7056  0.7311
  951MOL0     H28381   4.632   5.427   8.684 -0.6996  0.7344 -0.2356
  951MOL0     H28382   4.858   6.110   8.248  1.1145  2.2304 -0.4857
  951MOL0     H28383   4.872   6.334   8.115 -0.8653  3.1197 -2.0431
  951MOL0     H28384   4.878   6.327   7.938  1.7041 -0.4598 -0.2471
  951MOL0     H28385   4.741   6.256   8.025 -0.6224  0.1729 -1.1609
  952MOL0     O28386   5.750   0.236   2.319  0.2492  0.5006  0.4562
  952MOL0     C28387   5.816   0.225   2.218 -0.3818 -0.1917 -0.2736
  952MOL0     O28388   5.787   0.138   2.115 -0.3547  0.2893 -0.3471
  952MOL0     C28389   5.677   0.052   2.115  0.9316  1.5791 -0.4390
  952MOL0     C28390   5.615   0.004   2.226  0.7549  0.5906 -0.4820
  952MOL0     C28391   5.494  -0.071   2.206 -0.4382  0.0020 -0.8160
  952MOL0     C28392   5.436  -0.096   2.078 -1.2104 -0.0645 -0.3331
  952MOL0     O28393   5.328  -0.179   2.095 -0.0927 -0.6536  0.0655
  952MOL0     C28394   5.290  -0.261   1.986  0.5869  0.0269 -0.0847
  952MOL0     C28395   5.175  -0.359   2.019 -0.4322 -0.0705  1.1058
  952MOL0     C28396   5.123  -0.337   2.162  0.7077 -0.0426  0.3665
  952MOL0     C28397   5.031  -0.462   2.197  0.2738 -0.0660  0.0421
  952MOL0     C28398   4.975  -0.462   2.344 -0.0556  0.5911  0.3118
  952MOL0     C28399   4.950  -0.608   2.395  0.0270 -0.4749 -0.2045
  952MOL0     C28400   4.913  -0.604   2.540  0.0274  0.5053  0.0544
  952MOL0     C28401   4.758  -0.572   2.567 -0.5897  0.2403 -0.1845
  952MOL0     N28402   4.719  -0.611   2.704 -0.3257  1.0043  0.0460
  952MOL0     C28403   4.750  -0.533   2.813 -0.3754 -0.1806 -0.2361
  952MOL0     C28404   4.712  -0.612   2.913  0.2849 -0.0283  1.1730
  952MOL0     C28405   4.712  -0.606   3.064  1.0258  0.4981 -0.5797
  952MOL0     C28406   4.665  -0.463   3.106 -0.6497 -0.9912  0.2993
  952MOL0     C28407   4.519  -0.446   3.073 -0.6762 -0.0990  0.1361
  952MOL0     C28408   4.423  -0.550   3.118 -0.1493  0.7639 -1.2692
  952MOL0     O28409   4.436  -0.588   3.259  0.7606  0.3710 -0.2767
  952MOL0     C28410   4.331  -0.650   3.333 -0.2173 -1.0747  0.2611
  952MOL0     C28411   4.350  -0.663   3.472  0.8340  0.6336 -0.7337
  952MOL0     C28412   4.240  -0.716   3.553 -0.2323 -0.5724  0.5106
  952MOL0     C28413   4.113  -0.750   3.497 -0.8602  0.3865 -0.6040
  952MOL0     C28414   4.017  -0.818   3.586 -0.1654  0.2275 -0.6028
  952MOL0     O28415   3.910  -0.868   3.520  0.9261  0.8794  0.2073
  952MOL0     C28416   3.806  -0.924   3.583 -0.0108 -0.1158 -0.1173
  952MOL0     C28417   3.681  -0.852   3.569 -0.7775 -0.0930  0.1448
  952MOL0     C28418   3.568  -0.911   3.627 -0.2145 -1.2112  0.2285
  952MOL0     C28419   3.570  -1.034   3.685  0.3932  0.5223  0.2381
  952MOL0     O28420   3.464  -1.093   3.760 -0.4625  0.3646 -0.0293
  952MOL0     C28421   3.334  -1.034   3.737  0.4597 -0.7303  0.2925
  952MOL0     C28422   3.217  -1.126   3.770  0.6805 -0.1320  0.2513
  952MOL0     C28423   3.091  -1.048   3.723  0.2421 -0.2655  0.2985
  952MOL0     C28424   2.984  -1.087   3.824  0.5458 -0.1680  0.9437
  952MOL0     C28425   2.853  -1.024   3.790  0.3501  0.3226 -0.4944
  952MOL0     C28426   2.743  -1.042   3.902 -0.6323  0.2411  0.6325
  952MOL0     C28427   2.615  -0.959   3.863  1.2301  0.5206 -0.2332
  952MOL0     C28428   2.521  -1.030   3.759  0.0394  0.4907 -0.1090
  952MOL0    Cl28429   2.492  -1.208   3.795  0.0013  0.0405 -0.3927
  952MOL0     C28430   3.688  -1.105   3.696  0.8200  0.8833 -1.4509
  952MOL0     C28431   3.813  -1.050   3.646 -0.4142 -1.0327 -0.1380
  952MOL0     O28432   4.025  -0.814   3.712 -0.0203 -0.8370 -0.4141
  952MOL0     C28433   4.105  -0.749   3.360 -0.3965  0.5384 -0.4454
  952MOL0     C28434   4.211  -0.700   3.281 -0.2469  0.1702  0.1610
  952MOL0     N28435   4.652  -0.729   2.864  0.0492  0.0204  0.3049
  952MOL0     N28436   4.656  -0.727   2.735 -0.0012  0.3611  0.6222
  952MOL0     C28437   5.506  -0.045   1.963 -0.0967 -0.1675  0.3402
  952MOL0     C28438   5.626   0.024   1.996  0.8011  0.5784 -0.4013
  952MOL0     C28439   5.921   0.330   2.204  0.4300  0.4719 -0.1047
  952MOL0     C28440   5.942   0.428   2.306  0.6201 -0.1776  0.6646
  952MOL0     C28441   6.025   0.535   2.289  0.1126 -0.8981  0.3010
  952MOL0     C28442   6.092   0.563   2.171 -0.1002 -0.8539  0.2541
  952MOL0     O28443   6.163   0.681   2.149  0.6802 -0.2865  1.0607
  952MOL0     C28444   6.179   0.779   2.259  0.1232 -0.4309 -0.8464
  952MOL0     C28445   6.269   0.905   2.223 -0.4839  0.9687  0.4764
  952MOL0     C28446   6.406   0.853   2.183 -0.3123 -0.3728  0.6799
  952MOL0     C28447   6.507   0.964   2.135  0.1400 -0.1481  0.9389
  952MOL0     C28448   6.536   1.080   2.216 -0.4443  0.1279  0.3903
  952MOL0     C28449   6.527   1.171   2.286  0.4719 -0.2559  0.3988
  952MOL0     C28450   6.065   0.484   2.063 -0.5909 -0.9441 -0.7379
  952MOL0     C28451   5.987   0.364   2.082 -0.0661  0.3793 -0.5886
  952MOL0     C28452   5.963   0.274   1.964  0.5263 -0.2942  0.3747
  952MOL0     H28453   5.661   0.009   2.324  0.5225  0.5584 -0.3723
  952MOL0     H28454   5.452  -0.111   2.298  1.7343  0.7656  0.6081
  952MOL0     H28455   5.246  -0.193   1.912  0.1451  0.5292  0.6358
  952MOL0     H28456   5.374  -0.322   1.951  0.0326 -0.4696 -0.5893
  952MOL0     H28457   5.218  -0.460   2.015 -3.3083 -1.3701 -0.2130
  952MOL0     H28458   5.093  -0.354   1.947  0.9756 -1.0732 -0.6641
  952MOL0     H28459   5.072  -0.241   2.172 -4.1968 -1.8328 -3.5876
  952MOL0     H28460   5.203  -0.359   2.233 -0.1017 -5.1668  0.0954
  952MOL0     H28461   4.958  -0.468   2.116 -0.2242  1.9500  0.3037
  952MOL0     H28462   5.093  -0.551   2.181 -1.0219 -0.7465 -1.5071
  952MOL0     H28463   5.037  -0.409   2.417  0.7043  0.1011  0.0360
  952MOL0     H28464   4.878  -0.413   2.332 -0.2521  0.1875  0.2283
  952MOL0     H28465   4.883  -0.673   2.338 -1.2741  0.3229  0.3739
  952MOL0     H28466   5.043  -0.661   2.373  0.2424  0.9571 -3.4216
  952MOL0     H28467   4.975  -0.542   2.606  0.4280  1.7847 -1.4618
  952MOL0     H28468   4.933  -0.709   2.567  0.8999  0.5060 -0.5515
  952MOL0     H28469   4.740  -0.467   2.543  2.9099  1.3193  1.2822
  952MOL0     H28470   4.700  -0.637   2.499 -0.8283 -2.2781  2.2548
  952MOL0     H28471   4.791  -0.433   2.808  0.3528 -0.4620  0.0302
  952MOL0     H28472   4.656  -0.675   3.127  1.9580  1.2470  1.1490
  952MOL0     H28473   4.816  -0.609   3.099  0.1798  2.4895  2.4266
  952MOL0     H28474   4.687  -0.445   3.211 -0.8615  4.8389 -0.3245
  952MOL0     H28475   4.718  -0.383   3.052 -0.4752 -1.2390  0.1050
  952MOL0     H28476   4.506  -0.426   2.966 -2.1794 -3.2579 -0.3956
  952MOL0     H28477   4.475  -0.356   3.115 -0.6779  0.4161 -0.9260
  952MOL0     H28478   4.442  -0.639   3.056  0.5535  0.9790 -1.3741
  952MOL0     H28479   4.323  -0.507   3.103  1.0182  3.5062 -1.6751
  952MOL0     H28480   4.438  -0.645   3.533 -0.9684  0.0903  2.1704
  952MOL0     H28481   4.266  -0.730   3.657  0.6625 -3.0829  0.0373
  952MOL0     H28482   3.678  -0.747   3.543  0.7763  0.3983  1.8029
  952MOL0     H28483   3.480  -0.848   3.637  0.5484  0.0148 -0.4654
  952MOL0     H28484   3.336  -0.940   3.793  3.1614 -1.3589  1.4670
  952MOL0     H28485   3.329  -1.012   3.630 -0.6847 -0.8057  0.3245
  952MOL0     H28486   3.231  -1.208   3.699 -0.3307  0.1651 -0.3043
  952MOL0     H28487   3.218  -1.140   3.878  1.2501 -0.1029  0.2546
  952MOL0     H28488   3.110  -0.940   3.720  0.9338 -0.3493  1.0673
  952MOL0     H28489   3.065  -1.083   3.622 -1.0637 -0.5796  0.7325
  952MOL0     H28490   3.013  -1.052   3.924 -2.3013 -2.3615  2.6938
  952MOL0     H28491   2.968  -1.191   3.853 -1.9823 -0.1495 -0.1102
  952MOL0     H28492   2.809  -1.075   3.703 -1.2812  2.8375 -1.2237
  952MOL0     H28493   2.862  -0.919   3.761 -2.3501  0.2305 -2.0362
  952MOL0     H28494   2.728  -1.147   3.926  0.1876  0.5448  2.7662
  952MOL0     H28495   2.789  -1.004   3.994 -0.9043 -0.6183  1.1296
  952MOL0     H28496   2.643  -0.861   3.823 -3.2767  2.2740  0.2803
  952MOL0     H28497   2.553  -0.947   3.952 -0.1334 -1.3907 -0.8336
  952MOL0     H28498   2.426  -0.976   3.753  0.4279  1.1659 -0.2268
  952MOL0     H28499   2.566  -1.042   3.660 -0.6404 -1.5254 -0.2289
  952MOL0     H28500   3.684  -1.196   3.755 -3.2790 -0.3669 -3.2752
  952MOL0     H28501   3.908  -1.103   3.643 -0.9073 -1.9266 -0.4385
  952MOL0     H28502   4.010  -0.790   3.326  1.0522 -3.6031 -0.1271
  952MOL0     H28503   4.183  -0.703   3.176 -0.0408  0.6675  0.0882
  952MOL0     H28504   5.470  -0.067   1.863 -1.6516 -1.0684  1.0588
  952MOL0     H28505   5.688   0.055   1.912  0.2014  0.5783 -0.8521
  952MOL0     H28506   5.895   0.414   2.403 -0.5442 -1.2083 -0.0096
  952MOL0     H28507   6.040   0.599   2.375  0.0768 -1.1682  0.5111
  952MOL0     H28508   6.226   0.723   2.341  1.6676  0.6938 -0.9095
  952MOL0     H28509   6.084   0.818   2.296  0.1361  0.0360 -1.2914
  952MOL0     H28510   6.280   0.978   2.304  4.5242  0.0302  0.9659
  952MOL0     H28511   6.227   0.961   2.139  1.0538 -2.2841 -2.7542
  952MOL0     H28512   6.397   0.781   2.101  4.7514  0.3436 -0.9074
  952MOL0     H28513   6.445   0.806   2.273 -2.3202  0.4519  2.0318
  952MOL0     H28514   6.602   0.909   2.127  0.9825  1.1838  1.4599
  952MOL0     H28515   6.466   0.989   2.036 -1.1810 -2.5489  0.8050
  952MOL0     H28516   6.503   1.242   2.363 -3.3297 -2.2291  1.3054
  952MOL0     H28517   6.115   0.521   1.974 -0.0652  2.5029  0.8418
  952MOL0     H28518   6.026   0.316   1.885 -2.7397  2.2980 -1.1287
  952MOL0     H28519   5.996   0.170   1.973  0.9054 -0.2308 -0.2341
  952MOL0     H28520   5.859   0.272   1.931  0.4509 -0.3224  0.6121
  953MOL0     O28521   8.913   9.955   4.301 -0.2913  0.5626 -0.2839
  953MOL0     C28522   8.970   9.996   4.399  0.3005 -0.2279  0.4490
  953MOL0     O28523   8.947  10.116   4.460 -0.3513  0.4382 -0.2086
  953MOL0     C28524   8.864  10.211   4.409 -0.0881  0.4212  1.1588
  953MOL0     C28525   8.748  10.186   4.330 -1.0056  0.1094 -0.0005
  953MOL0     C28526   8.650  10.284   4.296 -0.3243  0.3869  0.4247
  953MOL0     C28527   8.670  10.413   4.340 -0.5806  0.7143 -1.2489
  953MOL0     O28528   8.576  10.505   4.317  0.9189  0.2221  0.5907
  953MOL0     C28529   8.589  10.635   4.372 -0.5366  0.7806  1.4534
  953MOL0     C28530   8.456  10.700   4.363  0.0205 -0.5726  0.1037
  953MOL0     C28531   8.382  10.689   4.223  0.0661  0.4505  0.1502
  953MOL0     C28532   8.437  10.763   4.115 -0.0066  0.0112  0.2428
  953MOL0     C28533   8.350  10.765   3.983  0.7627 -0.7778  0.7892
  953MOL0     C28534   8.365  10.886   3.890 -0.1554 -0.2562 -0.7264
  953MOL0     C28535   8.245  10.938   3.811  0.0385  0.3078 -0.8341
  953MOL0     C28536   8.144  11.029   3.884  0.0140 -0.0937  0.4474
  953MOL0     N28537   8.193  11.109   3.995 -0.2494 -0.3258  0.4765
  953MOL0     C28538   8.249  11.064   4.109  0.2207  0.1867  0.5320
  953MOL0     C28539   8.271  11.168   4.184 -0.1486 -0.2594  1.0288
  953MOL0     C28540   8.302  11.165   4.333 -0.1949 -0.1971  0.5394
  953MOL0     C28541   8.450  11.119   4.363 -0.5153 -0.3265  0.5680
  953MOL0     C28542   8.470  11.088   4.504  0.0958  0.2086  0.2918
  953MOL0     C28543   8.616  11.026   4.525  0.2235 -0.3469 -0.3739
  953MOL0     O28544   8.626  10.998   4.659  0.4381 -0.5128 -0.6591
  953MOL0     C28545   8.696  10.888   4.698  0.1119 -0.6316 -0.5974
  953MOL0     C28546   8.801  10.831   4.630  0.4701  0.0988  0.5138
  953MOL0     C28547   8.863  10.713   4.681 -0.1603 -0.8796  0.9592
  953MOL0     C28548   8.829  10.652   4.803  0.4293  0.3430 -0.4007
  953MOL0     C28549   8.886  10.528   4.852  0.0938 -0.3739 -0.0879
  953MOL0     O28550   8.909  10.431   4.758  0.0745 -0.2221 -0.6894
  953MOL0     C28551   8.954  10.317   4.803 -1.0051 -0.8842  0.0640
  953MOL0     C28552   8.887  10.198   4.799  0.4999  0.1990  0.3804
  953MOL0     C28553   8.938  10.084   4.863  0.4181 -0.5111  0.4506
  953MOL0     C28554   9.069  10.085   4.909 -0.2908 -0.0868 -0.5547
  953MOL0     O28555   9.113   9.968   4.960 -0.5972  0.9621  0.8734
  953MOL0     C28556   9.182   9.969   5.082 -0.8744 -0.0095  0.2054
  953MOL0     C28557   9.217   9.827   5.107  0.4649  0.6879  0.4374
  953MOL0     C28558   9.281   9.808   5.243 -0.2895  0.3573 -0.2422
  953MOL0     C28559   9.385   9.686   5.254  0.9314 -0.1508 -0.2214
  953MOL0     C28560   9.513   9.701   5.168 -0.1593 -1.1455  0.6653
  953MOL0     C28561   9.645   9.646   5.224 -0.2369  0.4552  1.0266
  953MOL0     C28562   9.761   9.619   5.131 -0.7578 -0.2014  0.4214
  953MOL0     C28563   9.894   9.633   5.202 -0.0496 -0.7078  0.0041
  953MOL0    Cl28564   9.918   9.810   5.219  0.3339 -0.2087  0.1677
  953MOL0     C28565   9.151  10.203   4.887  0.3496  0.3652 -0.4128
  953MOL0     C28566   9.095  10.320   4.844 -0.9666  0.2738 -0.1345
  953MOL0     O28567   8.895  10.522   4.978 -0.2336 -0.0447 -0.5205
  953MOL0     C28568   8.731  10.723   4.876 -0.2074  0.4569  0.2784
  953MOL0     C28569   8.669  10.836   4.820  0.3208 -0.3533 -0.1896
  953MOL0     N28570   8.240  11.282   4.107 -0.1660 -0.4363  0.1566
  953MOL0     N28571   8.195  11.241   4.001  0.6000 -0.4531  0.6115
  953MOL0     C28572   8.792  10.436   4.404 -0.3072 -0.8659  0.3296
  953MOL0     C28573   8.876  10.342   4.440 -1.3911 -0.0270 -0.3106
  953MOL0     C28574   9.057   9.901   4.473  1.2605 -0.8376  0.3989
  953MOL0     C28575   9.019   9.872   4.606 -0.1633 -0.0755  0.2803
  953MOL0     C28576   9.077   9.772   4.679  0.4554  0.8636  0.1951
  953MOL0     C28577   9.182   9.694   4.623  0.1846  0.1271  0.0193
  953MOL0     O28578   9.247   9.585   4.680  0.2314  0.2069 -0.5099
  953MOL0     C28579   9.261   9.583   4.825 -0.2874 -0.3124 -0.2230
  953MOL0     C28580   9.331   9.454   4.855 -1.2871 -0.2080  0.4947
  953MOL0     C28581   9.468   9.435   4.785  0.1875  0.3040  0.1615
  953MOL0     C28582   9.535   9.319   4.853  0.1042  0.4665 -0.3971
  953MOL0     C28583   9.663   9.295   4.789 -0.5006  0.1684  0.3209
  953MOL0     C28584   9.770   9.288   4.737 -0.3712  0.1848 -0.1255
  953MOL0     C28585   9.219   9.718   4.488 -0.7647 -0.6122 -0.3476
  953MOL0     C28586   9.161   9.824   4.413  1.0582  0.9649 -0.6480
  953MOL0     C28587   9.184   9.818   4.265 -0.8264 -0.5761 -0.5657
  953MOL0     H28588   8.729  10.085   4.296  0.2679  0.1346 -0.8802
  953MOL0     H28589   8.554  10.252   4.258 -1.5781  2.3181  1.7032
  953MOL0     H28590   8.620  10.622   4.476  1.2492 -0.1894  0.8558
  953MOL0     H28591   8.670  10.679   4.312  0.1091 -1.8856  0.2240
  953MOL0     H28592   8.466  10.807   4.380  0.3164 -0.4999 -0.5051
  953MOL0     H28593   8.386  10.673   4.442 -1.3880 -0.1680 -0.9609
  953MOL0     H28594   8.281  10.728   4.242 -1.5162 -2.8041 -0.8512
  953MOL0     H28595   8.371  10.585   4.190  3.4412  0.2628 -0.7186
  953MOL0     H28596   8.458  10.868   4.141  1.0834  0.6921 -2.9521
  953MOL0     H28597   8.536  10.728   4.085  0.5942  0.6409  1.3801
  953MOL0     H28598   8.374  10.682   3.915 -1.6359  0.4813 -1.8193
  953MOL0     H28599   8.245  10.766   4.013  0.6642  1.2120  0.4841
  953MOL0     H28600   8.425  10.970   3.927  2.4398 -1.1858 -2.5331
  953MOL0     H28601   8.442  10.848   3.822  0.7236 -1.4188  0.8465
  953MOL0     H28602   8.202  10.850   3.763 -2.3623  1.2514 -0.5338
  953MOL0     H28603   8.294  11.000   3.735 -0.4297  0.7332 -0.7948
  953MOL0     H28604   8.108  11.087   3.798  1.6512 -0.4436 -0.5125
  953MOL0     H28605   8.065  10.976   3.938  0.3463  0.8561  1.9061
  953MOL0     H28606   8.254  10.960   4.139 -0.1889 -0.9644 -2.8932
  953MOL0     H28607   8.286  11.269   4.363 -0.9529  1.2480 -4.0719
  953MOL0     H28608   8.230  11.097   4.378 -0.1060  0.6714  2.0406
  953MOL0     H28609   8.476  11.026   4.313  1.1310 -0.8055  2.2059
  953MOL0     H28610   8.528  11.190   4.336  0.9660 -2.2698 -0.4889
  953MOL0     H28611   8.383  11.036   4.545  0.8221  0.3135  2.0879
  953MOL0     H28612   8.471  11.182   4.560 -4.1465  1.5924 -1.5596
  953MOL0     H28613   8.685  11.109   4.507 -0.6810 -0.1039 -3.3763
  953MOL0     H28614   8.631  10.938   4.462  0.2869 -0.4697 -0.1888
  953MOL0     H28615   8.829  10.879   4.537 -0.9040  0.8212  0.4489
  953MOL0     H28616   8.939  10.662   4.623 -1.2516 -1.9759  0.4415
  953MOL0     H28617   8.789  10.193   4.752  0.4957 -0.9137  0.4789
  953MOL0     H28618   8.885   9.992   4.885  2.5327 -1.5961  1.2978
  953MOL0     H28619   9.277  10.024   5.078 -0.3217 -1.0014 -2.2091
  953MOL0     H28620   9.105  10.006   5.150 -3.5301 -0.7337 -2.2073
  953MOL0     H28621   9.130   9.760   5.103  0.3250  0.8650  0.5242
  953MOL0     H28622   9.287   9.798   5.027  0.4521  1.2143  0.2323
  953MOL0     H28623   9.340   9.897   5.266 -1.2464  1.1729 -0.8808
  953MOL0     H28624   9.202   9.793   5.316  0.5360 -3.6694  0.0362
  953MOL0     H28625   9.337   9.590   5.231  0.0625 -0.8314  3.6873
  953MOL0     H28626   9.412   9.681   5.360  3.3733 -2.3013 -0.8596
  953MOL0     H28627   9.532   9.807   5.150 -0.5746 -1.5082 -2.4103
  953MOL0     H28628   9.487   9.668   5.067 -0.4524 -0.1211  0.3969
  953MOL0     H28629   9.673   9.710   5.307  1.3501 -0.5892  1.3518
  953MOL0     H28630   9.623   9.547   5.267  1.4578  0.6880  2.5485
  953MOL0     H28631   9.754   9.691   5.049  2.3844  0.3297  0.4901
  953MOL0     H28632   9.742   9.524   5.080  0.3351 -0.3230  0.2066
  953MOL0     H28633   9.885   9.581   5.298 -0.4452  1.4820  1.2248
  953MOL0     H28634   9.972   9.583   5.144  0.1903  0.7494 -0.9854
  953MOL0     H28635   9.258  10.195   4.904  0.2010 -1.9043 -0.2472
  953MOL0     H28636   9.165  10.402   4.846 -1.8278  1.0001  1.3748
  953MOL0     H28637   8.691  10.691   4.972  1.4951 -1.6344  0.3397
  953MOL0     H28638   8.575  10.872   4.861 -0.5514 -0.2623 -2.1537
  953MOL0     H28639   8.816  10.537   4.436  0.7159 -1.3287  1.1176
  953MOL0     H28640   8.960  10.380   4.498 -2.0844 -0.5253  1.0652
  953MOL0     H28641   8.941   9.929   4.656 -0.3698 -1.5164  1.6942
  953MOL0     H28642   9.049   9.780   4.784  0.7613  0.4922  0.3106
  953MOL0     H28643   9.165   9.598   4.875  0.8127  6.1280  0.8541
  953MOL0     H28644   9.316   9.674   4.853  0.5994 -0.6046 -0.9513
  953MOL0     H28645   9.276   9.362   4.838 -0.3072 -0.8826  0.8868
  953MOL0     H28646   9.349   9.456   4.963  0.2641  2.9279  0.2937
  953MOL0     H28647   9.538   9.518   4.790  2.3580 -1.3076 -1.5528
  953MOL0     H28648   9.467   9.418   4.677  1.6984  1.2816 -0.0294
  953MOL0     H28649   9.571   9.347   4.952  2.5615  0.0290 -1.1007
  953MOL0     H28650   9.482   9.223   4.854 -0.5011  0.7849 -0.8454
  953MOL0     H28651   9.860   9.288   4.678 -0.7511 -3.0595 -0.9026
  953MOL0     H28652   9.285   9.651   4.434 -2.6438 -2.3704 -0.5898
  953MOL0     H28653   9.250   9.902   4.242  1.0600 -2.1231 -1.1665
  953MOL0     H28654   9.234   9.723   4.242 -1.9234 -2.6807  4.4745
  953MOL0     H28655   9.091   9.822   4.207  1.2493 -1.6445 -4.2954
  954MOL0     O28656  11.302   5.775   2.820  0.7039  0.0190  0.1448
  954MOL0     C28657  11.339   5.730   2.711  1.5862 -0.6229  0.2585
  954MOL0     O28658  11.469   5.729   2.671  0.4366 -0.4127 -0.3649
  954MOL0     C28659  11.569   5.737   2.759  0.4511 -0.4153 -0.8534
  954MOL0     C28660  11.589   5.837   2.853 -0.5026 -0.5716  0.3720
  954MOL0     C28661  11.702   5.851   2.926 -0.0072 -0.2295  0.0229
  954MOL0     C28662  11.814   5.768   2.901 -0.4064  0.3482 -0.4146
  954MOL0     O28663  11.940   5.804   2.948 -0.2468  0.1835  0.3628
  954MOL0     C28664  12.049   5.709   2.953  0.4315  0.9807  0.8397
  954MOL0     C28665  12.160   5.763   3.036  0.1654 -0.5711  0.6449
  954MOL0     C28666  12.267   5.829   2.948 -0.4272 -0.1013  0.5922
  954MOL0     C28667  12.403   5.830   3.012  0.3752 -0.5119  0.1246
  954MOL0     C28668  12.508   5.900   2.920 -0.4333 -0.5142 -0.1656
  954MOL0     C28669  12.546   5.797   2.811  0.2204 -0.5306  0.3609
  954MOL0     C28670  12.685   5.835   2.754 -0.6330  0.3967  0.0933
  954MOL0     C28671  12.803   5.791   2.839 -0.0555  0.0579  0.3491
  954MOL0     N28672  12.923   5.793   2.759  1.0401  0.8411 -0.3751
  954MOL0     C28673  13.012   5.889   2.743  0.3694 -0.4516  0.9606
  954MOL0     C28674  13.133   5.832   2.702  0.4023  0.1554  1.6564
  954MOL0     C28675  13.263   5.893   2.666 -0.3629  0.2425 -0.3507
  954MOL0     C28676  13.265   5.961   2.532  0.5448  0.1675  0.3912
  954MOL0     C28677  13.373   5.901   2.450 -0.4110  1.0386  0.7335
  954MOL0     C28678  13.373   5.960   2.304  0.9776 -0.6939 -0.9176
  954MOL0     O28679  13.295   5.896   2.211 -0.0584 -0.6845 -0.0320
  954MOL0     C28680  13.301   5.940   2.084 -0.8738 -0.9023  0.2833
  954MOL0     C28681  13.215   5.866   1.999  0.3489 -0.1685  0.3204
  954MOL0     C28682  13.199   5.901   1.864 -0.6793 -0.9151 -0.4565
  954MOL0     C28683  13.283   5.996   1.805 -1.7750  0.3136 -0.8407
  954MOL0     C28684  13.280   6.031   1.661  0.1014 -0.1262 -0.3618
  954MOL0     O28685  13.190   5.968   1.587  0.0426 -0.3217  0.1412
  954MOL0     C28686  13.164   6.018   1.464  0.9156 -0.2699  0.2726
  954MOL0     C28687  13.267   6.033   1.365 -0.1025  0.1739  0.3753
  954MOL0     C28688  13.234   6.070   1.236 -1.2467 -0.1484 -0.4364
  954MOL0     C28689  13.111   6.125   1.207 -0.4138  0.5265  0.2349
  954MOL0     O28690  13.076   6.189   1.091 -0.2274  0.5091  0.2115
  954MOL0     C28691  13.174   6.200   0.982 -0.9580 -0.5374  0.4821
  954MOL0     C28692  13.116   6.300   0.878 -0.9633  0.1613  0.0582
  954MOL0     C28693  13.211   6.323   0.764 -0.0766  0.2979 -0.0782
  954MOL0     C28694  13.172   6.455   0.696  0.1815 -0.2900  0.1470
  954MOL0     C28695  13.231   6.579   0.766 -0.5044  0.1156  0.1579
  954MOL0     C28696  13.166   6.708   0.720 -0.0643 -0.0455 -0.4780
  954MOL0     C28697  13.182   6.716   0.565 -0.5582  0.9341 -0.2565
  954MOL0     C28698  13.082   6.816   0.501 -0.9496 -0.8978 -0.5804
  954MOL0    Cl28699  13.103   6.826   0.321 -0.3223  0.1083 -0.3448
  954MOL0     C28700  13.016   6.114   1.302 -0.2097  0.4083  0.2294
  954MOL0     C28701  13.031   6.056   1.427 -0.3885 -0.8580 -0.1834
  954MOL0     O28702  13.368   6.100   1.617 -0.3958  0.0904 -0.6153
  954MOL0     C28703  13.375   6.064   1.888 -0.5980 -0.5435  0.5834
  954MOL0     C28704  13.389   6.040   2.024  0.0831 -0.0566  0.0842
  954MOL0     N28705  13.096   5.697   2.677  0.1296 -0.1024  0.5605
  954MOL0     N28706  12.980   5.672   2.722  0.0547  0.5624 -0.0026
  954MOL0     C28707  11.796   5.658   2.819  0.0106  0.3195 -0.6521
  954MOL0     C28708  11.679   5.646   2.738  0.2179 -0.0620 -0.8967
  954MOL0     C28709  11.231   5.695   2.616  0.9159 -0.2917  0.2653
  954MOL0     C28710  11.265   5.605   2.509  0.0763  0.0047  0.5026
  954MOL0     C28711  11.165   5.574   2.409  0.3323 -0.5017  0.0404
  954MOL0     C28712  11.031   5.621   2.427  0.6773  0.1509  0.5035
  954MOL0     O28713  10.926   5.617   2.337  0.6990 -0.1989  0.2869
  954MOL0     C28714  10.939   5.539   2.210 -0.0429 -1.0838 -0.2992
  954MOL0     C28715  10.953   5.632   2.090 -0.3308  0.1582  0.6808
  954MOL0     C28716  11.098   5.694   2.082 -0.3009 -0.7174 -0.0738
  954MOL0     C28717  11.102   5.794   1.967  0.1140  0.2922 -0.6090
  954MOL0     C28718  11.141   5.749   1.831  0.1093 -1.3435  0.1756
  954MOL0     C28719  11.185   5.712   1.722 -0.0026 -0.1638  0.8662
  954MOL0     C28720  11.007   5.704   2.532  0.2855 -0.8103  0.4127
  954MOL0     C28721  11.106   5.744   2.626  0.5573  0.2709  0.1458
  954MOL0     C28722  11.047   5.844   2.715  0.6329  0.9761 -0.1327
  954MOL0     H28723  11.503   5.902   2.868  1.2255  1.6522  1.1107
  954MOL0     H28724  11.714   5.932   2.997 -1.9338  0.5842 -0.5278
  954MOL0     H28725  12.021   5.612   2.996  0.9639  0.5884  0.3222
  954MOL0     H28726  12.088   5.680   2.855  2.5642 -0.7392  2.0958
  954MOL0     H28727  12.221   5.684   3.080  1.5739  0.2489  0.2376
  954MOL0     H28728  12.124   5.831   3.114  0.7964 -0.6654  1.0176
  954MOL0     H28729  12.241   5.935   2.937  1.8592  0.5517  0.9273
  954MOL0     H28730  12.282   5.785   2.849  6.5912  3.3012 -0.4630
  954MOL0     H28731  12.399   5.886   3.106 -1.1205  0.0670 -0.2589
  954MOL0     H28732  12.431   5.726   3.032 -1.1617 -0.9584  0.0937
  954MOL0     H28733  12.461   5.988   2.876  2.0962  0.4321 -1.1943
  954MOL0     H28734  12.595   5.941   2.972  0.2924  1.3997 -2.6963
  954MOL0     H28735  12.548   5.697   2.854 -2.7700  0.4741  3.2794
  954MOL0     H28736  12.475   5.809   2.728 -0.2454  0.7109  0.9108
  954MOL0     H28737  12.685   5.941   2.725 -1.8772 -0.6301 -4.2938
  954MOL0     H28738  12.695   5.780   2.661  0.2425  3.1492 -1.5787
  954MOL0     H28739  12.807   5.853   2.929  1.4693 -2.9537  2.5265
  954MOL0     H28740  12.784   5.688   2.871  0.1865 -1.0449 -2.7807
  954MOL0     H28741  13.004   5.995   2.764  1.2636 -0.1295 -0.2281
  954MOL0     H28742  13.264   5.970   2.743 -0.2226  0.4088 -0.5198
  954MOL0     H28743  13.342   5.819   2.681 -1.9310 -1.8734 -1.9378
  954MOL0     H28744  13.171   5.941   2.481  0.8771  0.8998 -0.5424
  954MOL0     H28745  13.269   6.069   2.545 -0.5748  0.1789  0.7336
  954MOL0     H28746  13.360   5.792   2.448  0.0827  0.9608  1.5830
  954MOL0     H28747  13.464   5.939   2.496  0.5894  1.3777 -1.4099
  954MOL0     H28748  13.473   5.959   2.259  0.7465  0.8173 -1.5405
  954MOL0     H28749  13.352   6.066   2.321 -0.7534 -1.5340  3.6441
  954MOL0     H28750  13.155   5.793   2.053  2.3399 -1.8539  0.3901
  954MOL0     H28751  13.117   5.849   1.814 -2.1746 -1.8184  2.6666
  954MOL0     H28752  13.369   6.002   1.383  0.0041 -0.3920 -1.0641
  954MOL0     H28753  13.314   6.081   1.163 -0.1761 -4.6928 -0.2640
  954MOL0     H28754  13.274   6.238   1.005 -0.8087  0.4908 -1.6973
  954MOL0     H28755  13.190   6.103   0.933  4.8528 -0.5050  1.6588
  954MOL0     H28756  13.022   6.256   0.842  0.8905 -2.4435 -1.9863
  954MOL0     H28757  13.094   6.393   0.932  1.5368 -0.6103  2.6316
  954MOL0     H28758  13.313   6.327   0.804  0.6398 -1.2667 -1.6298
  954MOL0     H28759  13.205   6.243   0.690 -1.5792 -0.7993  1.1593
  954MOL0     H28760  13.064   6.462   0.682  0.4191  0.5587 -1.6317
  954MOL0     H28761  13.204   6.449   0.591 -0.7978  0.1998 -0.1986
  954MOL0     H28762  13.339   6.586   0.747  0.1431 -0.6797  3.0225
  954MOL0     H28763  13.215   6.578   0.874 -1.6208 -0.7569  0.0029
  954MOL0     H28764  13.060   6.700   0.745  0.3354  0.5543  1.6198
  954MOL0     H28765  13.219   6.798   0.755  1.6041 -0.2930 -2.1957
  954MOL0     H28766  13.160   6.622   0.514  3.6886  0.1435 -1.0516
  954MOL0     H28767  13.287   6.739   0.545  0.0272 -2.1811 -1.2379
  954MOL0     H28768  12.981   6.790   0.532 -1.8264  1.7997 -0.9244
  954MOL0     H28769  13.103   6.916   0.540 -3.5342 -1.4764  2.6994
  954MOL0     H28770  12.924   6.158   1.264  0.3934 -0.8133 -2.9633
  954MOL0     H28771  12.943   6.042   1.489 -0.2620  0.4471  0.3253
  954MOL0     H28772  13.419   6.154   1.846 -3.2396  0.1554 -0.9261
  954MOL0     H28773  13.469   6.104   2.062  0.6446  0.1192 -1.3238
  954MOL0     H28774  11.882   5.594   2.801 -0.0313  0.6156 -2.0406
  954MOL0     H28775  11.670   5.575   2.657  1.7378  0.2471 -1.3785
  954MOL0     H28776  11.365   5.570   2.486  0.2000  1.0555 -0.6876
  954MOL0     H28777  11.197   5.524   2.319  2.3256  0.2944  0.2692
  954MOL0     H28778  10.853   5.474   2.193  0.4179 -1.7591 -0.0471
  954MOL0     H28779  11.020   5.466   2.211  0.1327 -0.9234  1.9188
  954MOL0     H28780  10.873   5.701   2.116 -0.6764 -0.8891  2.6488
  954MOL0     H28781  10.927   5.584   1.995 -2.4696  0.5591  1.0131
  954MOL0     H28782  11.177   5.623   2.056  0.2901  0.6673 -2.4082
  954MOL0     H28783  11.122   5.741   2.178 -3.3496 -2.6536  1.7777
  954MOL0     H28784  11.002   5.835   1.956 -1.5140 -2.9339  0.6804
  954MOL0     H28785  11.173   5.871   1.998 -0.8494  0.2778  1.8660
  954MOL0     H28786  11.234   5.689   1.630 -2.0516  2.4703 -1.0112
  954MOL0     H28787  10.903   5.731   2.552  0.4705  0.3568 -0.1137
  954MOL0     H28788  11.120   5.914   2.755  0.6002  0.5363  0.7149
  954MOL0     H28789  10.964   5.900   2.669 -1.3326  2.2806  4.4217
  954MOL0     H28790  11.004   5.791   2.800  0.9234 -0.8289 -1.0778
  955MOL0     O28791  11.311   0.828   8.738 -0.1911  0.2595 -0.3243
  955MOL0     C28792  11.397   0.784   8.816  0.0658  0.9767  1.4350
  955MOL0     O28793  11.402   0.653   8.849 -0.4951 -0.4722  0.6599
  955MOL0     C28794  11.334   0.554   8.792  0.5351 -0.0434  0.8426
  955MOL0     C28795  11.349   0.426   8.853  0.2985 -0.6145 -1.1156
  955MOL0     C28796  11.287   0.308   8.808 -0.2039 -0.2296  0.7902
  955MOL0     C28797  11.192   0.313   8.704  0.2963 -0.2560 -0.7784
  955MOL0     O28798  11.126   0.208   8.644  0.2676 -0.4752 -0.2899
  955MOL0     C28799  11.208   0.093   8.630 -0.5286 -0.2588  0.8948
  955MOL0     C28800  11.111  -0.004   8.547 -0.2116  0.7652  0.0678
  955MOL0     C28801  11.170  -0.147   8.535 -0.8899  0.0327 -0.5276
  955MOL0     C28802  11.150  -0.232   8.666 -0.7456  0.6927 -0.0045
  955MOL0     C28803  11.246  -0.345   8.688  0.6466  0.0684  0.0519
  955MOL0     C28804  11.240  -0.420   8.828  0.2072 -0.3559 -0.1813
  955MOL0     C28805  11.370  -0.483   8.866  0.3226  0.6709  0.5995
  955MOL0     C28806  11.389  -0.613   8.773  0.2141 -0.1264 -0.2981
  955MOL0     N28807  11.524  -0.666   8.788 -0.3746 -0.0940  0.0213
  955MOL0     C28808  11.636  -0.615   8.729  0.0533 -1.0178  0.3983
  955MOL0     C28809  11.735  -0.706   8.755  0.0665  0.6595 -0.3133
  955MOL0     C28810  11.886  -0.679   8.729  0.1199  0.9052 -0.0623
  955MOL0     C28811  11.887  -0.642   8.580 -0.5470  0.0510 -0.6078
  955MOL0     C28812  11.907  -0.765   8.489 -0.7479  0.4300 -0.4315
  955MOL0     C28813  11.911  -0.731   8.339  0.1854 -0.5906 -0.0321
  955MOL0     O28814  11.790  -0.660   8.289  0.3067 -1.3892  0.1336
  955MOL0     C28815  11.788  -0.628   8.155 -0.7136 -0.6328  0.3072
  955MOL0     C28816  11.893  -0.623   8.079 -0.7479  0.1699 -0.1447
  955MOL0     C28817  11.892  -0.591   7.941 -0.3302  0.2816  0.3566
  955MOL0     C28818  11.770  -0.547   7.883 -0.7129  0.5616  0.4782
  955MOL0     C28819  11.746  -0.530   7.738 -0.5357  1.0424 -0.3535
  955MOL0     O28820  11.630  -0.569   7.682 -0.1677 -0.9025 -0.5863
  955MOL0     C28821  11.586  -0.566   7.546 -1.0548 -0.8349  0.3660
  955MOL0     C28822  11.474  -0.635   7.505  0.5639  0.0669  0.5903
  955MOL0     C28823  11.429  -0.619   7.375 -0.0679 -0.5747  1.0506
  955MOL0     C28824  11.494  -0.535   7.279  0.1341 -0.0424 -0.3518
  955MOL0     O28825  11.441  -0.528   7.147 -0.4655  0.1422 -0.1956
  955MOL0     C28826  11.534  -0.486   7.046 -0.1600 -0.0077 -1.1032
  955MOL0     C28827  11.463  -0.487   6.907 -0.2302  0.3648 -1.4014
  955MOL0     C28828  11.448  -0.627   6.854  0.0940  0.5409  0.2066
  955MOL0     C28829  11.359  -0.631   6.722 -0.2897 -0.2631 -0.5718
  955MOL0     C28830  11.356  -0.776   6.656  0.6470 -0.5663 -0.9427
  955MOL0     C28831  11.295  -0.885   6.733 -0.0769  0.7112  0.2151
  955MOL0     C28832  11.285  -1.010   6.652 -1.0663  0.0902 -0.8308
  955MOL0     C28833  11.205  -1.112   6.723  0.2777 -0.1885 -0.3942
  955MOL0    Cl28834  11.038  -1.087   6.719 -0.1781 -0.1292 -0.2899
  955MOL0     C28835  11.614  -0.466   7.319  0.0832  0.6442  1.0535
  955MOL0     C28836  11.662  -0.487   7.452 -0.1809  0.2106  1.1996
  955MOL0     O28837  11.846  -0.502   7.674  0.2211  0.5797 -0.1176
  955MOL0     C28838  11.653  -0.566   7.965 -0.0288 -0.1344 -0.4668
  955MOL0     C28839  11.668  -0.590   8.103  0.6923 -0.3967 -0.6321
  955MOL0     N28840  11.678  -0.809   8.826 -0.4493  0.0912 -0.1105
  955MOL0     N28841  11.554  -0.785   8.851  0.2000 -0.0992  0.4672
  955MOL0     C28842  11.182   0.439   8.634  0.1917  0.4872 -0.5294
  955MOL0     C28843  11.244   0.553   8.677 -0.0111 -0.5767 -1.5434
  955MOL0     C28844  11.519   0.870   8.852  0.8290  0.7953 -0.9251
  955MOL0     C28845  11.642   0.844   8.787  0.1815 -0.1460 -0.2000
  955MOL0     C28846  11.757   0.918   8.821 -0.2043  0.0358 -0.9324
  955MOL0     C28847  11.753   0.998   8.939 -0.6492  0.4872  0.1997
  955MOL0     O28848  11.866   1.065   8.979 -0.1416  0.0860 -0.6317
  955MOL0     C28849  11.902   1.074   9.118 -0.1071  0.1134  0.2205
  955MOL0     C28850  12.045   1.142   9.122 -0.0148 -1.1640  0.9853
  955MOL0     C28851  12.100   1.144   9.262  0.0724 -0.3056 -0.3202
  955MOL0     C28852  12.252   1.169   9.293 -0.5388  0.2541  0.5951
  955MOL0     C28853  12.308   1.289   9.223  0.1813 -0.1734 -0.2582
  955MOL0     C28854  12.361   1.376   9.165 -0.3441 -0.4500  0.7320
  955MOL0     C28855  11.632   1.010   9.008 -0.0985 -0.1329  0.2111
  955MOL0     C28856  11.513   0.948   8.968  0.1026  0.0550 -0.1327
  955MOL0     C28857  11.388   0.972   9.050 -0.2131 -0.3119 -0.9194
  955MOL0     H28858  11.411   0.415   8.941  3.7916 -2.2889 -3.5299
  955MOL0     H28859  11.313   0.214   8.857  0.5982 -1.2172 -1.4034
  955MOL0     H28860  11.297   0.109   8.569 -0.9312 -0.3016  0.2935
  955MOL0     H28861  11.239   0.057   8.729  1.0719  0.4341  0.6787
  955MOL0     H28862  11.089   0.039   8.449 -2.9704  0.8608  0.6546
  955MOL0     H28863  11.016  -0.006   8.601 -1.3708 -0.1596 -1.9404
  955MOL0     H28864  11.277  -0.142   8.515 -0.2539 -2.7481  1.5192
  955MOL0     H28865  11.110  -0.185   8.452 -3.0290  2.2497 -0.1280
  955MOL0     H28866  11.165  -0.161   8.748  0.5734  4.6344 -3.3065
  955MOL0     H28867  11.048  -0.272   8.670 -1.0144  0.9950 -2.5953
  955MOL0     H28868  11.234  -0.425   8.615  1.0649  0.5880 -0.6051
  955MOL0     H28869  11.348  -0.304   8.680  1.0408 -0.4680  1.9333
  955MOL0     H28870  11.207  -0.344   8.899  1.9602  1.0008 -0.7372
  955MOL0     H28871  11.146  -0.476   8.818 -1.5373  2.6505 -2.4708
  955MOL0     H28872  11.367  -0.511   8.972  2.3612 -0.4119  0.4174
  955MOL0     H28873  11.450  -0.409   8.867  0.0779  0.9370  0.8110
  955MOL0     H28874  11.309  -0.677   8.811 -1.1860  1.0002 -1.2297
  955MOL0     H28875  11.360  -0.586   8.671 -3.0922 -4.7890 -0.9020
  955MOL0     H28876  11.652  -0.514   8.694 -1.1951 -0.3946  1.5529
  955MOL0     H28877  11.919  -0.597   8.793 -2.3447  0.2284  2.2316
  955MOL0     H28878  11.944  -0.764   8.765  0.2706  1.3474  0.7759
  955MOL0     H28879  11.805  -0.572   8.558  0.9361  2.0805 -0.0131
  955MOL0     H28880  11.981  -0.588   8.565 -1.0860  2.3183  2.8829
  955MOL0     H28881  11.824  -0.835   8.507 -0.8253  0.0592 -2.0360
  955MOL0     H28882  11.999  -0.815   8.519 -0.3431 -0.3816 -2.7818
  955MOL0     H28883  11.942  -0.818   8.282 -0.1971 -0.3942 -0.5574
  955MOL0     H28884  11.999  -0.670   8.318 -1.7547  1.9770 -1.3669
  955MOL0     H28885  11.996  -0.642   8.107 -1.5809 -5.1740  0.3242
  955MOL0     H28886  11.987  -0.604   7.890  1.1280 -0.1245  2.9909
  955MOL0     H28887  11.418  -0.699   7.573 -1.1329  0.8097 -0.0518
  955MOL0     H28888  11.340  -0.667   7.336 -0.3167  2.1038 -2.1753
  955MOL0     H28889  11.549  -0.381   7.074 -3.4603  0.1017  0.6918
  955MOL0     H28890  11.626  -0.545   7.051 -0.0382  0.2768  1.7194
  955MOL0     H28891  11.362  -0.447   6.911 -1.1807 -1.8009 -2.2010
  955MOL0     H28892  11.520  -0.435   6.829  1.6581  0.3319 -0.1160
  955MOL0     H28893  11.545  -0.671   6.829 -0.9557 -0.5585 -2.2880
  955MOL0     H28894  11.387  -0.679   6.928 -1.5842  1.3749 -0.5357
  955MOL0     H28895  11.400  -0.572   6.639  1.0326 -0.2281  0.0708
  955MOL0     H28896  11.262  -0.590   6.753 -0.6649 -1.2858 -0.3607
  955MOL0     H28897  11.456  -0.812   6.630  1.7600 -0.4383  2.6421
  955MOL0     H28898  11.299  -0.760   6.564 -0.5454  4.2389  0.3612
  955MOL0     H28899  11.362  -0.893   6.819  0.3105  2.0799  0.0736
  955MOL0     H28900  11.197  -0.851   6.769  1.2167  2.9679  1.8921
  955MOL0     H28901  11.386  -1.042   6.625 -1.7032 -1.3466 -1.5714
  955MOL0     H28902  11.238  -0.988   6.556 -0.0802 -4.9139 -2.7691
  955MOL0     H28903  11.225  -1.205   6.670  2.4038 -1.0657  1.7567
  955MOL0     H28904  11.234  -1.125   6.828 -4.4104 -2.1080  0.8979
  955MOL0     H28905  11.661  -0.393   7.254  4.1142 -2.4246  0.0954
  955MOL0     H28906  11.751  -0.434   7.486  1.2900 -0.3809 -1.4653
  955MOL0     H28907  11.554  -0.563   7.921  1.1885 -0.2450 -3.4836
  955MOL0     H28908  11.582  -0.596   8.170  0.1953 -3.0503 -1.3700
  955MOL0     H28909  11.135   0.445   8.536  0.5499 -3.0332 -1.0523
  955MOL0     H28910  11.219   0.644   8.623 -0.5860  0.1647 -0.0587
  955MOL0     H28911  11.663   0.772   8.708  1.6481 -1.9075  1.6729
  955MOL0     H28912  11.851   0.922   8.769  1.0695 -1.9051  1.0329
  955MOL0     H28913  11.898   0.970   9.153 -0.2819  0.5728  1.5909
  955MOL0     H28914  11.838   1.137   9.180 -0.7452  3.0383 -3.0598
  955MOL0     H28915  12.038   1.247   9.093  0.0602 -0.5832  2.9709
  955MOL0     H28916  12.111   1.088   9.053 -0.3184  0.3420 -0.5731
  955MOL0     H28917  12.074   1.049   9.308  2.3725 -0.7778  0.1358
  955MOL0     H28918  12.045   1.227   9.309 -2.7093 -1.5785 -1.1078
  955MOL0     H28919  12.271   1.197   9.397  0.7782 -0.8298  0.6714
  955MOL0     H28920  12.297   1.077   9.256 -1.9797 -1.0843  2.0539
  955MOL0     H28921  12.408   1.451   9.104  0.9978 -0.1291  2.1038
  955MOL0     H28922  11.617   1.081   9.088  0.2100  1.9416 -1.4677
  955MOL0     H28923  11.347   0.875   9.076  1.9408 -0.4755  2.6246
  955MOL0     H28924  11.413   1.023   9.144 -0.5319  2.0628 -2.0587
  955MOL0     H28925  11.310   1.034   9.006 -0.2595 -0.8136 -1.5548
  956MOL0     O28926   6.261   2.208   8.621 -0.5296 -0.4429 -0.0482
  956MOL0     C28927   6.309   2.307   8.677 -0.4125 -0.1671  1.0761
  956MOL0     O28928   6.257   2.436   8.668 -0.1584 -0.2851  0.1630
  956MOL0     C28929   6.156   2.452   8.587  0.4495 -0.5136 -0.2783
  956MOL0     C28930   6.027   2.472   8.649  0.1336 -0.2696  0.1032
  956MOL0     C28931   5.924   2.527   8.569  0.4653  0.1343  0.0350
  956MOL0     C28932   5.940   2.552   8.431  0.5365  0.0636  0.0473
  956MOL0     O28933   5.829   2.594   8.356 -0.3318  0.1464  0.4752
  956MOL0     C28934   5.855   2.647   8.222 -0.2568 -0.0154  0.5879
  956MOL0     C28935   5.717   2.640   8.149 -0.4396 -0.3879  0.3815
  956MOL0     C28936   5.727   2.662   8.000 -0.3036  0.1490 -0.0956
  956MOL0     C28937   5.729   2.806   7.967  0.0466  0.2761  0.4247
  956MOL0     C28938   5.679   2.830   7.824  0.5615 -0.1525 -0.2144
  956MOL0     C28939   5.695   2.977   7.781  0.3416 -0.7061 -0.4766
  956MOL0     C28940   5.662   2.988   7.635 -1.1654  0.1220  0.0226
  956MOL0     C28941   5.693   3.128   7.570 -0.0883 -0.6251  0.7812
  956MOL0     N28942   5.584   3.230   7.593 -0.2188  0.1900 -1.0130
  956MOL0     C28943   5.466   3.231   7.524  0.4145 -0.0549  0.0927
  956MOL0     C28944   5.436   3.364   7.525  0.1035 -0.4543 -0.0226
  956MOL0     C28945   5.320   3.431   7.472 -0.0212 -0.3992  0.6781
  956MOL0     C28946   5.244   3.512   7.576  0.3065  0.6815 -0.4899
  956MOL0     C28947   5.127   3.439   7.641  0.3255  0.4079 -0.2830
  956MOL0     C28948   5.047   3.540   7.733 -0.4923 -0.6499  0.4556
  956MOL0     O28949   4.944   3.480   7.817 -0.2003  0.3290 -0.3585
  956MOL0     C28950   4.825   3.493   7.763 -0.6682 -0.7471 -0.5011
  956MOL0     C28951   4.797   3.499   7.624 -0.7389 -0.7320 -1.1760
  956MOL0     C28952   4.672   3.504   7.577 -0.2518  0.2977  0.8423
  956MOL0     C28953   4.566   3.515   7.662  0.0839 -0.2276 -0.1799
  956MOL0     C28954   4.429   3.533   7.615 -0.2520 -0.2485  0.8954
  956MOL0     O28955   4.417   3.494   7.487 -0.4623 -0.1986 -0.6574
  956MOL0     C28956   4.301   3.523   7.415 -0.1543  0.6933  0.2234
  956MOL0     C28957   4.246   3.647   7.405 -0.1832 -0.3711 -0.0585
  956MOL0     C28958   4.130   3.675   7.326  0.3297  0.1140 -0.0527
  956MOL0     C28959   4.051   3.566   7.292 -0.2445  0.3360 -0.1875
  956MOL0     O28960   3.933   3.588   7.230  0.6180  0.4034  0.2327
  956MOL0     C28961   3.813   3.552   7.302  0.9860 -0.0526 -0.5542
  956MOL0     C28962   3.718   3.671   7.324 -1.0339  0.3615 -0.4041
  956MOL0     C28963   3.679   3.750   7.199  0.9293  0.4297 -0.2656
  956MOL0     C28964   3.632   3.680   7.074  0.7366 -0.5430 -0.0835
  956MOL0     C28965   3.590   3.792   6.974 -0.7303  0.4875  0.1229
  956MOL0     C28966   3.511   3.745   6.852  0.2321 -0.5109  0.1820
  956MOL0     C28967   3.480   3.872   6.770  0.6785  0.5773 -0.0510
  956MOL0     C28968   3.355   3.881   6.670 -0.5089  1.2908 -1.3646
  956MOL0    Cl28969   3.348   4.036   6.586 -0.1933  0.4835  0.3167
  956MOL0     C28970   4.095   3.441   7.322  0.2520 -1.2921  0.1913
  956MOL0     C28971   4.219   3.420   7.381  0.5886  0.1761 -0.2909
  956MOL0     O28972   4.337   3.553   7.695 -0.6273 -0.2434 -1.0218
  956MOL0     C28973   4.588   3.524   7.797  0.1701  0.1518 -1.0853
  956MOL0     C28974   4.715   3.496   7.843 -0.2833 -0.3092  0.2174
  956MOL0     N28975   5.529   3.439   7.594 -0.2684  0.4867  0.2339
  956MOL0     N28976   5.620   3.356   7.639  0.4044  0.0400  0.2923
  956MOL0     C28977   6.067   2.522   8.373  0.1993  0.1691 -0.4947
  956MOL0     C28978   6.172   2.484   8.454  0.0936  0.0501  0.1625
  956MOL0     C28979   6.430   2.300   8.764  0.1338 -0.2813  0.1869
  956MOL0     C28980   6.425   2.376   8.883  0.4865  0.7201 -0.2055
  956MOL0     C28981   6.516   2.351   8.984  0.2821 -0.0528 -0.2870
  956MOL0     C28982   6.605   2.251   8.982  0.0224 -0.2814  0.5092
  956MOL0     O28983   6.673   2.210   9.094  0.4353  0.5494 -0.4886
  956MOL0     C28984   6.694   2.071   9.122  0.9513  0.9953 -0.5765
  956MOL0     C28985   6.736   2.062   9.263  0.3879 -0.1391 -0.4714
  956MOL0     C28986   6.783   1.923   9.304  0.2668  0.2677 -0.1562
  956MOL0     C28987   6.841   1.912   9.446  0.3266 -0.2379 -0.3335
  956MOL0     C28988   6.950   2.011   9.454 -0.0481 -0.6867 -0.2582
  956MOL0     C28989   7.017   2.112   9.465 -0.5405  0.9334 -0.4031
  956MOL0     C28990   6.620   2.178   8.867  0.3200 -0.4281  1.3513
  956MOL0     C28991   6.535   2.208   8.756 -0.1456 -0.4173 -0.1017
  956MOL0     C28992   6.562   2.135   8.626  0.7394  1.1411  0.6867
  956MOL0     H28993   6.012   2.469   8.757  0.9640  3.2484  0.4436
  956MOL0     H28994   5.831   2.543   8.621  1.7921 -1.5230  3.2013
  956MOL0     H28995   5.907   2.743   8.223 -0.4170  0.1265 -1.1990
  956MOL0     H28996   5.928   2.585   8.168 -0.4931  0.5584 -0.4213
  956MOL0     H28997   5.659   2.719   8.198 -0.7225 -1.4776  1.8676
  956MOL0     H28998   5.672   2.542   8.166 -2.8736  0.4419 -0.7459
  956MOL0     H28999   5.643   2.626   7.939  0.7516 -0.0227 -1.5138
  956MOL0     H29000   5.818   2.614   7.961  0.0161  0.4400  0.2920
  956MOL0     H29001   5.680   2.872   8.039  2.4854  0.3571  2.1426
  956MOL0     H29002   5.833   2.841   7.964 -0.7576  2.9923  1.4531
  956MOL0     H29003   5.746   2.769   7.762 -0.1176 -0.8801 -0.2496
  956MOL0     H29004   5.574   2.802   7.815  1.2793 -2.6561 -1.6099
  956MOL0     H29005   5.630   3.039   7.844  1.3367 -3.4506  3.6214
  956MOL0     H29006   5.799   3.011   7.787 -0.4473  1.8406  0.3380
  956MOL0     H29007   5.558   2.970   7.606 -0.8722 -0.8979 -0.4439
  956MOL0     H29008   5.717   2.909   7.583 -2.3039 -0.3305 -0.5192
  956MOL0     H29009   5.789   3.150   7.616  0.2994  3.7512 -1.6518
  956MOL0     H29010   5.704   3.109   7.463  0.6763 -1.2855  0.9714
  956MOL0     H29011   5.419   3.152   7.466 -0.9202  1.4323 -0.9659
  956MOL0     H29012   5.362   3.494   7.394  0.4247  0.9366  1.9601
  956MOL0     H29013   5.247   3.355   7.441 -0.1622  0.0940 -0.2294
  956MOL0     H29014   5.314   3.537   7.657 -0.2642 -1.9837  0.9275
  956MOL0     H29015   5.205   3.597   7.520 -3.9416 -0.8519 -0.2000
  956MOL0     H29016   5.169   3.351   7.690  0.4449 -0.0243 -1.1434
  956MOL0     H29017   5.048   3.395   7.579 -1.3898  2.4775  0.3146
  956MOL0     H29018   5.007   3.627   7.680 -1.3701 -0.9997  0.5324
  956MOL0     H29019   5.125   3.568   7.805  0.2099  1.3382 -0.9945
  956MOL0     H29020   4.877   3.499   7.552 -0.5175  0.5634 -0.9565
  956MOL0     H29021   4.667   3.505   7.469 -3.2125 -2.5252  0.8075
  956MOL0     H29022   4.290   3.736   7.449 -2.1620  0.7501 -0.2307
  956MOL0     H29023   4.097   3.772   7.290  0.0781 -0.0095 -0.1565
  956MOL0     H29024   3.768   3.479   7.234 -0.2890  1.4962 -1.4428
  956MOL0     H29025   3.831   3.505   7.400 -0.5100  2.0160  0.8079
  956MOL0     H29026   3.637   3.630   7.385  0.7462 -0.1204  1.7301
  956MOL0     H29027   3.772   3.731   7.398 -2.1896 -2.1938  2.7657
  956MOL0     H29028   3.597   3.818   7.223 -0.9943 -1.8834  0.1398
  956MOL0     H29029   3.767   3.803   7.161  2.1371 -0.4509  1.2197
  956MOL0     H29030   3.546   3.616   7.094  0.2858  0.0524 -0.0771
  956MOL0     H29031   3.718   3.627   7.031  1.0917  0.8008 -1.1090
  956MOL0     H29032   3.680   3.837   6.932  0.8840 -0.6364  2.2046
  956MOL0     H29033   3.538   3.881   7.011  2.1376  2.3110  0.1021
  956MOL0     H29034   3.563   3.676   6.784 -0.4500 -0.1708 -0.7161
  956MOL0     H29035   3.419   3.695   6.885  0.5195 -1.5026 -0.4617
  956MOL0     H29036   3.569   3.892   6.709 -0.0784 -1.4598 -1.9546
  956MOL0     H29037   3.466   3.961   6.831  1.3996  0.5133  0.2233
  956MOL0     H29038   3.363   3.801   6.595  0.7202  1.8445 -1.8500
  956MOL0     H29039   3.261   3.890   6.726  1.1773  2.6779  1.4198
  956MOL0     H29040   4.031   3.361   7.284 -1.1726  0.0436 -0.3290
  956MOL0     H29041   4.257   3.320   7.395  1.7320  1.0444  4.8556
  956MOL0     H29042   4.504   3.544   7.862  0.7723  2.8768 -0.9949
  956MOL0     H29043   4.728   3.474   7.948  2.5832 -2.8470 -0.5398
  956MOL0     H29044   6.095   2.536   8.269  1.5543  0.6030 -0.0886
  956MOL0     H29045   6.272   2.457   8.421  0.6195  0.0364  1.7085
  956MOL0     H29046   6.347   2.452   8.889 -0.3419 -0.1469  0.5286
  956MOL0     H29047   6.513   2.417   9.070  0.1157  0.8757 -0.9999
  956MOL0     H29048   6.765   2.038   9.046  2.2791 -0.5355  1.2245
  956MOL0     H29049   6.597   2.021   9.116  0.5891  1.4547  1.0123
  956MOL0     H29050   6.661   2.101   9.333  0.2635 -2.2723  0.6720
  956MOL0     H29051   6.810   2.142   9.270  0.3398 -0.2180  1.6872
  956MOL0     H29052   6.844   1.876   9.226 -1.5501 -1.0582 -0.8674
  956MOL0     H29053   6.701   1.850   9.302  1.7785 -1.5278  0.5963
  956MOL0     H29054   6.777   1.926   9.533  3.1021 -1.1080  2.0025
  956MOL0     H29055   6.874   1.808   9.440  1.5959  0.2383 -3.4744
  956MOL0     H29056   7.067   2.206   9.475  2.8460 -0.6946 -0.5671
  956MOL0     H29057   6.702   2.109   8.850 -0.2766 -0.6362 -1.0122
  956MOL0     H29058   6.481   2.064   8.603  0.6999  1.9063 -1.8718
  956MOL0     H29059   6.548   2.211   8.549  0.0810  0.4413  0.1023
  956MOL0     H29060   6.658   2.083   8.616  0.3183  0.1299  1.6106
  957MOL0     O29061   0.074   0.667   6.455 -0.1636 -0.3256  0.3654
  957MOL0     C29062   0.122   0.777   6.434  1.0316  0.1285  0.3088
  957MOL0     O29063   0.250   0.818   6.461 -0.1211 -0.2205 -0.0810
  957MOL0     C29064   0.351   0.733   6.474 -0.5683  0.5023  0.3699
  957MOL0     C29065   0.382   0.676   6.600  0.7093  0.4913  0.5509
  957MOL0     C29066   0.491   0.587   6.617  0.4034 -0.1170  0.6942
  957MOL0     C29067   0.570   0.569   6.505 -0.2746 -0.3275 -0.9101
  957MOL0     O29068   0.679   0.483   6.523  0.7324  0.4587 -0.3511
  957MOL0     C29069   0.725   0.398   6.420 -0.1138  0.4463 -0.1457
  957MOL0     C29070   0.855   0.325   6.455  0.2785  0.1026  1.0171
  957MOL0     C29071   0.963   0.426   6.453 -0.2574 -0.3430 -0.7406
  957MOL0     C29072   1.042   0.416   6.580 -1.4026 -0.9282 -0.2323
  957MOL0     C29073   1.169   0.503   6.577 -0.8646  0.7545  0.8376
  957MOL0     C29074   1.136   0.640   6.627  0.3977 -0.5911  0.2268
  957MOL0     C29075   1.253   0.748   6.613 -0.0786 -0.4272  0.1555
  957MOL0     C29076   1.243   0.852   6.718 -0.2604 -0.0984  1.0237
  957MOL0     N29077   1.351   0.945   6.678 -0.9818 -0.4003 -0.4434
  957MOL0     C29078   1.350   1.035   6.569 -0.2452 -0.2730  0.2319
  957MOL0     C29079   1.479   1.081   6.581 -0.8311  1.5236  0.1550
  957MOL0     C29080   1.562   1.175   6.506 -0.4903 -0.5051 -0.7661
  957MOL0     C29081   1.523   1.324   6.563  0.1102 -0.4821  0.0379
  957MOL0     C29082   1.646   1.413   6.585  1.3137  0.8863 -0.4227
  957MOL0     C29083   1.614   1.559   6.615 -0.2594  0.0252 -0.9017
  957MOL0     O29084   1.712   1.655   6.568 -0.3590  0.2254 -0.7751
  957MOL0     C29085   1.839   1.639   6.618  0.3554 -0.1840 -1.6411
  957MOL0     C29086   1.943   1.691   6.539 -0.1874 -0.8887 -0.0105
  957MOL0     C29087   2.078   1.706   6.582  0.0146 -0.8433 -0.9321
  957MOL0     C29088   2.107   1.671   6.713 -1.1164  0.8002 -0.4650
  957MOL0     C29089   2.243   1.686   6.760 -0.0751 -0.1197 -0.5187
  957MOL0     O29090   2.262   1.717   6.897  0.3749 -0.3763  0.1839
  957MOL0     C29091   2.379   1.698   6.958 -0.0975  0.1881 -0.2470
  957MOL0     C29092   2.503   1.743   6.916  0.3889  0.3574 -0.0729
  957MOL0     C29093   2.617   1.723   7.000  0.8241 -0.0225 -0.0041
  957MOL0     C29094   2.603   1.669   7.128  0.4770  0.3737 -0.3615
  957MOL0     O29095   2.717   1.656   7.200 -0.3246 -0.1412  0.3786
  957MOL0     C29096   2.730   1.538   7.279  0.3985  0.4596 -0.9381
  957MOL0     C29097   2.848   1.441   7.237 -0.5433  0.0270  0.7929
  957MOL0     C29098   2.978   1.512   7.278 -0.5353  1.3861  0.0581
  957MOL0     C29099   3.022   1.487   7.428 -0.7744 -0.0364 -0.4384
  957MOL0     C29100   3.107   1.588   7.493  0.0388 -0.9857  0.7887
  957MOL0     C29101   3.132   1.562   7.643 -0.0677 -0.3489  0.4793
  957MOL0     C29102   3.018   1.600   7.737  0.2412 -0.3389 -0.0610
  957MOL0     C29103   3.028   1.542   7.881 -0.4364 -0.4119  1.0575
  957MOL0    Cl29104   3.173   1.605   7.974 -0.5787 -0.0070  0.1491
  957MOL0     C29105   2.472   1.652   7.173  0.7369 -0.3630 -0.5055
  957MOL0     C29106   2.363   1.658   7.090 -0.1626  0.2981  0.3507
  957MOL0     O29107   2.328   1.642   6.685  0.3090  0.8897  0.7233
  957MOL0     C29108   2.007   1.613   6.794 -0.3714 -0.8992 -0.1342
  957MOL0     C29109   1.874   1.594   6.756 -0.7172 -0.3461  0.2450
  957MOL0     N29110   1.542   1.024   6.689  0.1519  0.1238  0.1936
  957MOL0     N29111   1.464   0.941   6.755 -0.1184 -0.6221  1.4030
  957MOL0     C29112   0.543   0.624   6.382  0.5807  0.2848  0.1834
  957MOL0     C29113   0.424   0.692   6.360  0.7825 -0.2712 -0.2984
  957MOL0     C29114   0.013   0.878   6.393 -0.9083 -0.0616 -0.7162
  957MOL0     C29115  -0.115   0.893   6.455 -1.0870  0.4071  0.7245
  957MOL0     C29116  -0.199   0.992   6.399 -0.3099 -0.3166  0.0728
  957MOL0     C29117  -0.152   1.077   6.298 -0.3239 -1.0415 -1.2805
  957MOL0     O29118  -0.243   1.166   6.245 -0.9219 -0.4819 -0.1054
  957MOL0     C29119  -0.305   1.262   6.333  1.7087 -0.3672  0.5557
  957MOL0     C29120  -0.232   1.395   6.349 -0.4466 -0.8560 -0.2095
  957MOL0     C29121  -0.096   1.371   6.412 -0.2808  0.1618  0.3388
  957MOL0     C29122  -0.024   1.493   6.484  0.1363 -0.2107  0.4842
  957MOL0     C29123   0.108   1.454   6.532 -1.2286 -0.8331 -0.2288
  957MOL0     C29124   0.213   1.432   6.582 -0.1143 -0.3498  0.1636
  957MOL0     C29125  -0.030   1.068   6.246 -0.3197  0.0884  0.0845
  957MOL0     C29126   0.059   0.974   6.292 -0.4673 -0.0406 -0.7027
  957MOL0     C29127   0.181   0.964   6.220 -0.2806  0.1670 -0.8450
  957MOL0     H29128   0.308   0.705   6.673 -1.9091 -0.6125 -1.5083
  957MOL0     H29129   0.490   0.538   6.714 -0.4827 -0.4992  0.5069
  957MOL0     H29130   0.652   0.318   6.403  2.3074 -1.2593 -3.7642
  957MOL0     H29131   0.736   0.453   6.327 -0.4307  1.7933  0.5868
  957MOL0     H29132   0.859   0.244   6.382  0.8431 -0.1162  1.2802
  957MOL0     H29133   0.839   0.268   6.548  0.4078 -0.6476  0.5893
  957MOL0     H29134   0.924   0.527   6.437  4.1398  2.2189  2.2003
  957MOL0     H29135   1.025   0.401   6.367  1.2041  0.7649 -0.0540
  957MOL0     H29136   0.988   0.451   6.669 -1.9542  2.6636 -1.8220
  957MOL0     H29137   1.075   0.312   6.590 -2.9609 -1.6225 -1.9139
  957MOL0     H29138   1.237   0.464   6.652  3.2828 -0.1593 -2.9474
  957MOL0     H29139   1.229   0.496   6.485 -0.3840 -3.2957  1.2883
  957MOL0     H29140   1.044   0.673   6.577  0.1261 -1.8715 -0.1526
  957MOL0     H29141   1.114   0.626   6.733 -3.0006  0.8465 -0.1313
  957MOL0     H29142   1.259   0.786   6.510  1.2134 -1.8660 -0.3497
  957MOL0     H29143   1.348   0.702   6.642 -0.4892 -1.0729  0.4963
  957MOL0     H29144   1.152   0.909   6.695  1.3057  1.1017 -2.9884
  957MOL0     H29145   1.252   0.816   6.821  1.5770  3.6474  2.3338
  957MOL0     H29146   1.269   1.065   6.503 -0.7752  1.2042  1.4945
  957MOL0     H29147   1.664   1.152   6.538 -0.5814 -0.7999 -0.6886
  957MOL0     H29148   1.546   1.165   6.398  0.1955 -1.1683 -0.8194
  957MOL0     H29149   1.461   1.376   6.489 -0.8227  0.9476  1.7450
  957MOL0     H29150   1.460   1.330   6.652 -0.2622  0.1974 -0.2614
  957MOL0     H29151   1.713   1.398   6.500 -2.0321  1.4840 -3.4450
  957MOL0     H29152   1.702   1.368   6.667 -0.2463  1.5665  1.0830
  957MOL0     H29153   1.596   1.572   6.722  2.8928  1.7561 -0.4773
  957MOL0     H29154   1.523   1.591   6.564 -0.9058  1.7520  1.1867
  957MOL0     H29155   1.936   1.723   6.436  0.8891 -0.7920 -0.0682
  957MOL0     H29156   2.150   1.748   6.512 -0.2396 -2.1329 -2.0161
  957MOL0     H29157   2.515   1.795   6.822 -1.0458  1.4847  0.3175
  957MOL0     H29158   2.707   1.774   6.966 -1.7522  2.8358 -3.3761
  957MOL0     H29159   2.731   1.571   7.384 -0.4386 -0.0629 -0.7549
  957MOL0     H29160   2.638   1.479   7.272  1.4367 -1.3093 -0.3440
  957MOL0     H29161   2.836   1.344   7.286 -1.0450  0.6180  1.8543
  957MOL0     H29162   2.851   1.428   7.128 -1.9542 -0.3103  0.7750
  957MOL0     H29163   3.046   1.465   7.206 -0.6679  1.1749  0.0667
  957MOL0     H29164   2.961   1.620   7.274 -2.9721  1.0989  0.8927
  957MOL0     H29165   3.079   1.393   7.432  0.7168  0.8107 -0.9174
  957MOL0     H29166   2.934   1.473   7.490  0.1473 -0.6479  0.7829
  957MOL0     H29167   3.063   1.685   7.467 -1.5552 -2.6552 -3.8446
  957MOL0     H29168   3.208   1.588   7.451  0.4838  0.7269  1.7672
  957MOL0     H29169   3.163   1.457   7.650  2.3920  0.3389  0.9955
  957MOL0     H29170   3.223   1.617   7.670 -0.3182  0.2359  0.1401
  957MOL0     H29171   2.925   1.558   7.698 -0.3557  1.3581 -0.5427
  957MOL0     H29172   3.001   1.708   7.743 -1.6805 -0.6742  2.7878
  957MOL0     H29173   2.934   1.559   7.936 -2.8694 -1.8605 -2.3190
  957MOL0     H29174   3.044   1.434   7.878  1.8702 -0.1240 -2.1019
  957MOL0     H29175   2.468   1.617   7.275 -1.6649 -1.1222 -0.7757
  957MOL0     H29176   2.266   1.624   7.124 -0.0944 -0.7998 -0.4971
  957MOL0     H29177   2.036   1.583   6.894 -2.6183 -2.6219  0.0584
  957MOL0     H29178   1.801   1.554   6.827  0.8972 -1.8465  1.1312
  957MOL0     H29179   0.610   0.628   6.297 -1.8479 -0.5422 -1.9213
  957MOL0     H29180   0.393   0.735   6.265  0.8135  0.3040 -0.0476
  957MOL0     H29181  -0.136   0.831   6.541  0.7769 -0.4906  0.6036
  957MOL0     H29182  -0.302   1.002   6.429 -0.5871  4.9749 -1.6284
  957MOL0     H29183  -0.323   1.232   6.437 -5.3565  2.6064  0.7019
  957MOL0     H29184  -0.400   1.274   6.280  0.8033  1.3943  2.4530
  957MOL0     H29185  -0.292   1.462   6.412 -0.0697 -1.6522  1.0409
  957MOL0     H29186  -0.209   1.428   6.248  0.6006  0.0187  0.2994
  957MOL0     H29187  -0.032   1.336   6.331  3.7712  3.4211  1.7562
  957MOL0     H29188  -0.113   1.295   6.489  3.0622  0.9209  2.0072
  957MOL0     H29189  -0.011   1.579   6.418 -2.0082 -0.6937 -0.6685
  957MOL0     H29190  -0.083   1.536   6.566  0.7539  0.4862  0.5725
  957MOL0     H29191   0.313   1.429   6.619  0.2395 -1.8687 -0.8343
  957MOL0     H29192  -0.008   1.133   6.162  1.6564 -0.1048  0.4088
  957MOL0     H29193   0.186   0.865   6.174 -2.6533 -0.7541  0.7006
  957MOL0     H29194   0.195   1.045   6.147  0.5525 -0.6275 -1.5940
  957MOL0     H29195   0.269   0.969   6.284 -1.7919 -2.9044  1.7093
  958MOL0     O29196   8.780   3.098   9.174  0.0527  0.2164  0.4746
  958MOL0     C29197   8.836   3.060   9.072 -0.3672  0.2214 -0.1942
  958MOL0     O29198   8.784   2.985   8.974  0.9950 -0.5885  0.8185
  958MOL0     C29199   8.677   2.899   8.996  0.7352 -0.0780 -0.1193
  958MOL0     C29200   8.624   2.842   8.883 -0.1418  0.2100 -1.3840
  958MOL0     C29201   8.524   2.743   8.890 -1.4043 -0.2351  0.0232
  958MOL0     C29202   8.463   2.713   9.008  0.5010 -0.2763  0.6639
  958MOL0     O29203   8.359   2.629   9.022  0.5157 -0.2350  0.6080
  958MOL0     C29204   8.278   2.584   8.913  0.0360  0.4104  0.8350
  958MOL0     C29205   8.187   2.700   8.859  0.0612 -0.1572  0.6986
  958MOL0     C29206   8.124   2.675   8.731  0.4761 -0.2435  1.0716
  958MOL0     C29207   8.019   2.575   8.735  0.6702  0.3419  1.3321
  958MOL0     C29208   7.934   2.591   8.607  0.6327  0.1142 -0.1373
  958MOL0     C29209   7.816   2.492   8.616  0.4436 -0.7103 -0.2464
  958MOL0     C29210   7.711   2.553   8.703  0.4711  0.4297  0.1498
  958MOL0     C29211   7.558   2.514   8.672  0.0793 -0.3676 -0.7605
  958MOL0     N29212   7.509   2.507   8.533 -0.3215 -0.5579  0.6155
  958MOL0     C29213   7.508   2.618   8.460 -0.1531  0.0568  0.1801
  958MOL0     C29214   7.507   2.568   8.330 -0.8836 -0.0877 -0.4964
  958MOL0     C29215   7.531   2.637   8.202 -0.5784  0.1120 -0.1894
  958MOL0     C29216   7.685   2.652   8.167  0.5741  0.1809  1.0690
  958MOL0     C29217   7.724   2.738   8.040 -0.0723  0.1649  0.1902
  958MOL0     C29218   7.684   2.675   7.907  0.0959  0.8866 -0.5222
  958MOL0     O29219   7.691   2.785   7.813 -1.0482  0.1954 -0.4442
  958MOL0     C29220   7.685   2.766   7.682 -1.1785 -0.3872 -0.3723
  958MOL0     C29221   7.719   2.645   7.615 -0.4177 -0.3888  0.0301
  958MOL0     C29222   7.712   2.637   7.471 -0.3443  0.6431 -0.6086
  958MOL0     C29223   7.677   2.744   7.398 -0.8041 -0.6670 -0.2448
  958MOL0     C29224   7.665   2.734   7.252 -1.0220 -0.3297  0.0706
  958MOL0     O29225   7.698   2.612   7.185 -0.4348  0.9180 -0.2482
  958MOL0     C29226   7.689   2.603   7.044  0.0128 -0.5180 -0.6746
  958MOL0     C29227   7.575   2.634   6.977  0.9403 -0.0202  0.0705
  958MOL0     C29228   7.552   2.611   6.848 -0.2795  0.0152  0.1514
  958MOL0     C29229   7.653   2.551   6.776  0.5175  0.3232 -0.0170
  958MOL0     O29230   7.617   2.521   6.647  0.7436  1.2055 -0.1644
  958MOL0     C29231   7.720   2.487   6.543 -0.5921 -0.4004 -0.4467
  958MOL0     C29232   7.668   2.521   6.405  0.4046  0.6598 -0.4908
  958MOL0     C29233   7.634   2.670   6.393 -0.2511  0.7677  0.3930
  958MOL0     C29234   7.539   2.697   6.276 -0.4663  1.1144 -0.1882
  958MOL0     C29235   7.487   2.845   6.282  0.4138  0.3886  0.7287
  958MOL0     C29236   7.406   2.882   6.157  0.1040  1.2601  0.4480
  958MOL0     C29237   7.262   2.917   6.184 -0.6489  0.4503  0.6470
  958MOL0     C29238   7.193   2.987   6.068  0.1106  0.1270  0.2060
  958MOL0    Cl29239   7.256   3.147   6.027 -0.1448  0.4684  0.2617
  958MOL0     C29240   7.773   2.514   6.838  0.0572 -0.1944 -0.3834
  958MOL0     C29241   7.793   2.536   6.974  0.5470  0.5488 -0.2403
  958MOL0     O29242   7.619   2.835   7.197  0.3548 -0.2426  0.7221
  958MOL0     C29243   7.655   2.865   7.467 -0.4392 -0.1321 -0.3357
  958MOL0     C29244   7.655   2.879   7.606 -0.4272 -0.7447 -0.7985
  958MOL0     N29245   7.494   2.427   8.339  0.5884  0.6664  0.8992
  958MOL0     N29246   7.490   2.393   8.463  1.2281  0.3418 -0.1276
  958MOL0     C29247   8.513   2.771   9.119  0.8506 -0.5588 -0.1635
  958MOL0     C29248   8.631   2.850   9.113 -0.5081  0.4171  1.0265
  958MOL0     C29249   8.978   3.107   9.051  1.2317 -0.0668  0.4144
  958MOL0     C29250   9.003   3.243   9.060 -0.6940  0.1854  0.5446
  958MOL0     C29251   9.130   3.298   9.049  0.6650 -0.8177 -0.2738
  958MOL0     C29252   9.234   3.213   9.004  0.6859 -0.0106 -0.0680
  958MOL0     O29253   9.356   3.260   8.977  0.1825  0.0371  0.2681
  958MOL0     C29254   9.428   3.299   9.102 -0.7433 -0.0096 -0.8031
  958MOL0     C29255   9.470   3.185   9.192  1.2597 -0.2552 -0.6671
  958MOL0     C29256   9.582   3.102   9.122  0.2718  0.7116 -0.6556
  958MOL0     C29257   9.586   2.955   9.178 -1.5385  0.2789  0.1777
  958MOL0     C29258   9.468   2.879   9.157  0.3265 -0.4037  0.3839
  958MOL0     C29259   9.369   2.814   9.134 -0.2653 -0.7119 -0.3426
  958MOL0     C29260   9.202   3.074   8.977  0.1334 -0.1233 -0.3461
  958MOL0     C29261   9.077   3.022   9.002  0.0202  0.2159 -0.2100
  958MOL0     C29262   9.045   2.876   8.968 -0.6013 -0.3910  0.0344
  958MOL0     H29263   8.667   2.861   8.785 -1.7101  1.9955 -1.8021
  958MOL0     H29264   8.498   2.690   8.800 -0.5142 -0.5069 -0.0847
  958MOL0     H29265   8.350   2.551   8.836 -1.3227 -1.7293  0.3855
  958MOL0     H29266   8.229   2.489   8.936  3.8815 -2.5490 -1.7950
  958MOL0     H29267   8.256   2.783   8.846  1.6950 -1.8784 -2.9237
  958MOL0     H29268   8.119   2.726   8.941 -0.6026  2.4076 -0.5784
  958MOL0     H29269   8.196   2.656   8.651  3.0134  3.5439  2.2041
  958MOL0     H29270   8.085   2.774   8.707  0.7320 -0.4421 -0.2736
  958MOL0     H29271   8.051   2.470   8.738  0.0447 -0.0515 -1.9537
  958MOL0     H29272   7.955   2.584   8.823  1.1373  2.1720  1.5249
  958MOL0     H29273   7.903   2.692   8.581 -2.7685 -1.4863 -3.1602
  958MOL0     H29274   7.997   2.555   8.526  0.4579 -2.4166  0.7493
  958MOL0     H29275   7.772   2.464   8.520  0.7808 -1.6158 -0.1465
  958MOL0     H29276   7.845   2.394   8.655  1.5620 -0.0113  0.7589
  958MOL0     H29277   7.712   2.658   8.673 -1.1634 -0.0586 -1.8806
  958MOL0     H29278   7.731   2.536   8.809  0.8224  1.5137  0.2692
  958MOL0     H29279   7.539   2.416   8.717  2.1188  0.5256  2.3169
  958MOL0     H29280   7.488   2.579   8.725 -1.1853 -1.0627 -1.5128
  958MOL0     H29281   7.535   2.718   8.491  0.6510 -0.9903  3.1261
  958MOL0     H29282   7.472   2.585   8.126 -0.2845 -0.3159 -0.1245
  958MOL0     H29283   7.478   2.732   8.217 -1.4944 -0.3261 -0.5555
  958MOL0     H29284   7.745   2.680   8.254  1.8506  2.2711 -0.3776
  958MOL0     H29285   7.725   2.553   8.146  1.0162  0.1761  1.9270
  958MOL0     H29286   7.833   2.749   8.039 -0.0645  0.8135 -2.8512
  958MOL0     H29287   7.684   2.840   8.042  0.4641  0.5763 -3.2458
  958MOL0     H29288   7.581   2.640   7.908  0.5961 -0.6786 -0.7357
  958MOL0     H29289   7.747   2.590   7.879  0.0396  1.3020 -1.9776
  958MOL0     H29290   7.764   2.553   7.650  0.1010 -1.2423 -2.6441
  958MOL0     H29291   7.727   2.548   7.411 -1.8911  0.9261 -1.4669
  958MOL0     H29292   7.486   2.679   7.018 -1.9337 -4.6979 -0.3374
  958MOL0     H29293   7.472   2.648   6.785 -0.1438 -1.6489 -1.0579
  958MOL0     H29294   7.813   2.541   6.563 -0.8937  0.1827 -0.5774
  958MOL0     H29295   7.743   2.380   6.547  3.1345  0.2938  0.2175
  958MOL0     H29296   7.734   2.481   6.327  0.5073 -0.5083  0.1693
  958MOL0     H29297   7.575   2.464   6.398 -0.3409  1.8431 -0.4399
  958MOL0     H29298   7.589   2.707   6.486 -0.1554 -0.2210  0.8459
  958MOL0     H29299   7.725   2.728   6.376  1.5613 -2.4622 -1.8873
  958MOL0     H29300   7.458   2.624   6.278 -0.3403  0.9816  0.5916
  958MOL0     H29301   7.587   2.677   6.180  1.4878  3.3301  0.2467
  958MOL0     H29302   7.577   2.907   6.270 -0.4177  2.2668  3.1817
  958MOL0     H29303   7.426   2.873   6.368 -1.3231  0.7783 -0.5714
  958MOL0     H29304   7.451   2.972   6.115 -0.6326  1.5416  0.2505
  958MOL0     H29305   7.429   2.806   6.082  3.2628 -0.4995  2.9356
  958MOL0     H29306   7.263   2.989   6.266  1.3044  0.7160  0.4304
  958MOL0     H29307   7.211   2.827   6.221  1.8091 -1.1786  0.3132
  958MOL0     H29308   7.188   2.925   5.978  2.4585  0.0602  0.0479
  958MOL0     H29309   7.089   3.001   6.098 -0.2842  0.9918 -1.4376
  958MOL0     H29310   7.850   2.457   6.786 -0.0538 -1.8816  1.2030
  958MOL0     H29311   7.887   2.496   7.011 -0.7853 -1.3233  1.3033
  958MOL0     H29312   7.638   2.952   7.404  0.2124 -2.0942 -3.4089
  958MOL0     H29313   7.636   2.968   7.665  2.8319 -0.7895  0.5551
  958MOL0     H29314   8.452   2.754   9.208  0.7398 -0.8697 -0.2976
  958MOL0     H29315   8.683   2.871   9.206  1.4581 -1.0532  0.3446
  958MOL0     H29316   8.922   3.313   9.078 -1.3498 -0.8264  1.6158
  958MOL0     H29317   9.147   3.404   9.061 -1.0301 -0.2531 -2.3015
  958MOL0     H29318   9.370   3.359   9.173  1.1781 -0.9964  1.7505
  958MOL0     H29319   9.515   3.352   9.063  0.4683 -1.9194 -0.8339
  958MOL0     H29320   9.381   3.124   9.210  2.1571 -1.5131 -0.3571
  958MOL0     H29321   9.515   3.223   9.285  1.4156 -1.0208 -0.4254
  958MOL0     H29322   9.680   3.149   9.127  0.5761  0.1143 -0.9050
  958MOL0     H29323   9.559   3.094   9.015 -1.6367  1.5529 -0.3428
  958MOL0     H29324   9.668   2.901   9.130 -0.8686  1.2849  0.1580
  958MOL0     H29325   9.605   2.958   9.285 -0.2099 -0.5407 -0.0184
  958MOL0     H29326   9.290   2.746   9.108 -0.3503 -1.2372  1.1618
  958MOL0     H29327   9.274   2.997   8.950  0.2991 -0.1335  0.1218
  958MOL0     H29328   8.984   2.868   8.877  1.1967 -2.0339 -1.1295
  958MOL0     H29329   9.136   2.816   8.952  0.2640  0.0178  2.9181
  958MOL0     H29330   8.993   2.824   9.049  2.2388 -1.9879  0.9987
  959MOL0     O29331   7.858  10.276   3.798 -0.1358 -0.2625 -0.1098
  959MOL0     C29332   7.982  10.275   3.776 -0.1208  0.5223 -0.7201
  959MOL0     O29333   8.062  10.369   3.814 -0.1142 -0.6139 -0.9194
  959MOL0     C29334   8.020  10.481   3.889  0.2810  0.1841 -0.4956
  959MOL0     C29335   7.943  10.573   3.830 -0.2287  0.0666 -0.5304
  959MOL0     C29336   7.915  10.698   3.894  0.5314 -0.2530 -1.6656
  959MOL0     C29337   7.966  10.715   4.025  0.3190 -0.1525 -0.5608
  959MOL0     O29338   7.936  10.834   4.088  0.5562  0.0006  0.5169
  959MOL0     C29339   7.872  10.821   4.221  0.2168  0.0782  0.3834
  959MOL0     C29340   7.803  10.949   4.257 -0.4121 -0.4471 -0.1676
  959MOL0     C29341   7.899  11.069   4.263  0.5345  0.3183 -0.5653
  959MOL0     C29342   7.837  11.179   4.353  0.1377  0.3723 -0.9510
  959MOL0     C29343   7.900  11.324   4.325  0.0582 -0.0269  0.5927
  959MOL0     C29344   7.880  11.417   4.439 -0.3271  0.1073 -1.3801
  959MOL0     C29345   7.963  11.401   4.567  0.5052  0.0374 -1.1079
  959MOL0     C29346   7.963  11.527   4.657 -0.0894 -0.2566 -0.4684
  959MOL0     N29347   7.831  11.565   4.703  1.2463  0.1633  1.2203
  959MOL0     C29348   7.757  11.486   4.783  1.3961  0.1747 -0.0963
  959MOL0     C29349   7.634  11.548   4.796 -0.1403 -0.5921 -0.4623
  959MOL0     C29350   7.519  11.498   4.881 -0.7688  0.1206  0.1741
  959MOL0     C29351   7.462  11.608   4.971  0.7365  0.0630  0.4438
  959MOL0     C29352   7.365  11.558   5.079  0.5530  0.7711 -0.7990
  959MOL0     C29353   7.263  11.437   5.031  0.4281  0.8054  0.0644
  959MOL0     O29354   7.196  11.352   5.125  0.0821  0.3481 -0.4218
  959MOL0     C29355   7.096  11.414   5.202  0.4123 -0.1126  0.1537
  959MOL0     C29356   7.049  11.546   5.183  1.3058 -0.0073 -0.5817
  959MOL0     C29357   6.953  11.597   5.277 -0.3053 -0.3065  0.4878
  959MOL0     C29358   6.923  11.536   5.402 -0.1402  0.3485  0.4620
  959MOL0     C29359   6.870  11.611   5.517 -0.5638 -0.3652  0.1150
  959MOL0     O29360   6.831  11.531   5.619  0.1564  0.0152  0.3534
  959MOL0     C29361   6.790  11.598   5.728  0.5064 -0.0712  0.2231
  959MOL0     C29362   6.881  11.667   5.817 -0.0993  0.1450 -0.2007
  959MOL0     C29363   6.831  11.734   5.927 -0.4199 -0.6259 -0.3523
  959MOL0     C29364   6.697  11.747   5.958  0.3645  1.6277 -1.1743
  959MOL0     O29365   6.672  11.815   6.072 -0.5961  0.3084  0.4081
  959MOL0     C29366   6.538  11.837   6.112  1.1768 -0.3625  0.2711
  959MOL0     C29367   6.555  11.943   6.223  0.2906  0.7232 -0.0474
  959MOL0     C29368   6.433  12.039   6.230 -0.2268  0.1409  0.3469
  959MOL0     C29369   6.446  12.135   6.352 -0.0766  0.4584  0.8634
  959MOL0     C29370   6.351  12.247   6.366  1.1899  0.6126  1.3704
  959MOL0     C29371   6.200  12.192   6.369 -0.0872 -0.7326 -0.9266
  959MOL0     C29372   6.113  12.303   6.424 -0.3995  0.3946 -0.1489
  959MOL0     C29373   5.968  12.258   6.441  0.2622 -0.8640  0.6541
  959MOL0    Cl29374   5.961  12.114   6.541  0.1781  0.0667 -0.3653
  959MOL0     C29375   6.607  11.675   5.872  0.0040 -0.6103 -0.0346
  959MOL0     C29376   6.652  11.598   5.759  0.0101  0.0328  0.0386
  959MOL0     O29377   6.859  11.730   5.512  0.0619 -0.3983  0.2000
  959MOL0     C29378   6.971  11.404   5.409 -0.1240 -0.6167 -0.2465
  959MOL0     C29379   7.042  11.348   5.306  0.1802  0.6193  0.4322
  959MOL0     N29380   7.635  11.668   4.727  0.0935  0.0084 -0.4765
  959MOL0     N29381   7.752  11.680   4.679 -0.1865  0.1413  0.0797
  959MOL0     C29382   8.036  10.609   4.096  0.3195  0.4335 -0.0574
  959MOL0     C29383   8.060  10.495   4.028  0.5339 -0.9684 -0.1919
  959MOL0     C29384   8.033  10.187   3.662  0.1029  0.8456 -0.1202
  959MOL0     C29385   7.949  10.089   3.633 -0.0393 -0.5738  0.1027
  959MOL0     C29386   7.984   9.986   3.546 -0.0077 -0.6677  0.2025
  959MOL0     C29387   8.101   9.986   3.480  1.8061 -0.0711  0.2881
  959MOL0     O29388   8.134   9.879   3.399  0.7090 -0.4438 -0.3072
  959MOL0     C29389   8.228   9.883   3.297 -0.3861  0.1493  0.1230
  959MOL0     C29390   8.357   9.827   3.334  0.4111  0.0475 -0.2547
  959MOL0     C29391   8.480   9.855   3.238  1.5109  0.2249  0.1818
  959MOL0     C29392   8.613   9.832   3.309  0.1021  0.0869  0.2219
  959MOL0     C29393   8.726   9.898   3.242 -0.0587  0.6378 -0.6732
  959MOL0     C29394   8.824   9.953   3.194  0.5800  0.9433  0.3864
  959MOL0     C29395   8.185  10.085   3.499 -0.3159 -0.2678  0.6588
  959MOL0     C29396   8.157  10.195   3.588 -0.1742  0.4782  1.0674
  959MOL0     C29397   8.264  10.294   3.615 -0.0815  0.0979 -0.3374
  959MOL0     H29398   7.921  10.560   3.724 -1.3565  2.5154 -0.6788
  959MOL0     H29399   7.841  10.765   3.852 -1.8404 -1.0472  0.9332
  959MOL0     H29400   7.798  10.741   4.225  0.6349 -0.3166  0.3500
  959MOL0     H29401   7.943  10.811   4.304 -0.1576  2.4236  1.0931
  959MOL0     H29402   7.780  10.928   4.362  6.0719 -1.1425  1.5371
  959MOL0     H29403   7.713  10.953   4.196  0.6024 -1.4136 -1.7699
  959MOL0     H29404   7.902  11.122   4.168 -1.2924  0.9686 -0.3035
  959MOL0     H29405   7.992  11.043   4.313  0.2828  0.6541  0.0911
  959MOL0     H29406   7.729  11.175   4.335  0.3223 -1.9070 -1.9051
  959MOL0     H29407   7.852  11.164   4.461  1.0314 -0.2934 -1.1539
  959MOL0     H29408   8.009  11.315   4.321 -0.0585 -1.1502 -1.1674
  959MOL0     H29409   7.856  11.365   4.233 -2.1970  1.0730  2.0753
  959MOL0     H29410   7.892  11.520   4.404 -1.6665  0.9380  0.4635
  959MOL0     H29411   7.775  11.409   4.467 -0.0831  3.7278  1.2841
  959MOL0     H29412   8.066  11.365   4.555  0.5716 -0.2856  0.2454
  959MOL0     H29413   7.927  11.321   4.631  0.6428  1.5773  1.0195
  959MOL0     H29414   8.022  11.521   4.750 -1.5042  1.0498  0.5674
  959MOL0     H29415   7.996  11.614   4.600 -0.8568 -0.2425 -0.8967
  959MOL0     H29416   7.770  11.389   4.829 -4.6336 -1.4029 -0.8364
  959MOL0     H29417   7.446  11.445   4.818  0.6577 -2.0250  0.1982
  959MOL0     H29418   7.567  11.425   4.946  1.2089  0.1752 -1.1527
  959MOL0     H29419   7.533  11.656   5.040  0.6920 -0.9985  1.2644
  959MOL0     H29420   7.423  11.682   4.901  0.8526 -0.0131  0.2996
  959MOL0     H29421   7.298  11.641   5.103  0.5342 -0.2094  3.3015
  959MOL0     H29422   7.421  11.524   5.166  0.1359  0.2475 -0.7304
  959MOL0     H29423   7.336  11.374   4.979  3.0992  2.1524  1.9645
  959MOL0     H29424   7.193  11.478   4.958  0.6792  0.9727 -0.0825
  959MOL0     H29425   7.058  11.613   5.098 -3.1950  0.6875 -0.7948
  959MOL0     H29426   6.916  11.696   5.255 -2.1251 -1.5078 -2.4886
  959MOL0     H29427   6.985  11.657   5.789 -0.1302  1.7072 -1.0303
  959MOL0     H29428   6.903  11.783   5.992 -0.9675  2.0129 -1.6107
  959MOL0     H29429   6.484  11.876   6.025  1.2880  3.0276  1.5805
  959MOL0     H29430   6.473  11.757   6.148 -0.8126  0.3770 -1.4605
  959MOL0     H29431   6.567  11.898   6.322  2.0149  1.6052  0.1724
  959MOL0     H29432   6.644  12.003   6.203  0.4761  0.3070 -0.4765
  959MOL0     H29433   6.409  12.096   6.140  0.7408 -1.0538 -0.7139
  959MOL0     H29434   6.348  11.972   6.244  1.3194 -2.0078 -0.0434
  959MOL0     H29435   6.541  12.188   6.348 -0.4797  1.4176  2.9142
  959MOL0     H29436   6.436  12.073   6.441 -0.9410  0.7846  1.0061
  959MOL0     H29437   6.345  12.298   6.269  1.5655  0.1904  1.1219
  959MOL0     H29438   6.379  12.323   6.440  1.8796 -0.9176  2.7482
  959MOL0     H29439   6.163  12.167   6.270 -3.9810  0.8799 -0.0533
  959MOL0     H29440   6.202  12.101   6.430 -0.8168 -0.5020 -0.5481
  959MOL0     H29441   6.122  12.393   6.362  0.0167  0.9115  0.6531
  959MOL0     H29442   6.155  12.314   6.524 -0.4210 -3.4534  0.4289
  959MOL0     H29443   5.905  12.340   6.477  0.9350  2.0687 -3.9881
  959MOL0     H29444   5.923  12.241   6.343  1.7929  2.7857 -0.8411
  959MOL0     H29445   6.500  11.681   5.888  0.0890 -0.7849  0.6025
  959MOL0     H29446   6.577  11.552   5.695 -0.3248 -0.1708  0.5674
  959MOL0     H29447   6.955  11.349   5.501  1.2505 -0.8775 -0.1335
  959MOL0     H29448   7.063  11.242   5.308  0.7414  0.5061 -3.6046
  959MOL0     H29449   8.074  10.624   4.196 -2.8117  1.7579  1.0826
  959MOL0     H29450   8.132  10.428   4.074 -0.0416 -0.7259  1.0977
  959MOL0     H29451   7.856  10.071   3.687 -1.5561 -0.6644 -2.4045
  959MOL0     H29452   7.920   9.898   3.537 -0.8105  0.0647 -1.7402
  959MOL0     H29453   8.251   9.985   3.266 -1.9602  0.2710 -0.7184
  959MOL0     H29454   8.190   9.822   3.214  1.4538 -0.5003 -0.3010
  959MOL0     H29455   8.345   9.719   3.348  1.1503 -0.3285 -2.1699
  959MOL0     H29456   8.379   9.859   3.437  0.3278 -0.8886  0.0601
  959MOL0     H29457   8.479   9.958   3.201  3.7371 -0.2408 -1.4180
  959MOL0     H29458   8.472   9.787   3.152  0.0488 -0.0407  0.5012
  959MOL0     H29459   8.601   9.880   3.407  0.1347  1.3748 -0.3824
  959MOL0     H29460   8.645   9.729   3.328  1.5787  0.3462 -0.7058
  959MOL0     H29461   8.911  10.012   3.174 -0.8152  2.5242 -1.4000
  959MOL0     H29462   8.285  10.069   3.460  0.0565  0.6364  1.2079
  959MOL0     H29463   8.288  10.295   3.722 -1.8600  2.0248  0.0970
  959MOL0     H29464   8.359  10.266   3.568  0.9371 -0.4097  1.8775
  959MOL0     H29465   8.239  10.394   3.579 -0.4959  0.0154 -0.2885
  960MOL0     O29466  10.280   3.097   4.194  0.2697  0.1725  0.1337
  960MOL0     C29467  10.355   3.182   4.149 -0.4362 -0.8773 -0.1866
  960MOL0     O29468  10.406   3.281   4.229 -0.0071  0.0287 -0.8137
  960MOL0     C29469  10.346   3.302   4.350 -0.3259  0.2241 -0.0240
  960MOL0     C29470  10.224   3.371   4.356  0.2914 -0.0293 -0.3839
  960MOL0     C29471  10.147   3.389   4.474 -0.4635  0.4688  0.0202
  960MOL0     C29472  10.197   3.341   4.588 -0.2481 -0.0561 -0.5391
  960MOL0     O29473  10.128   3.365   4.707 -0.6281  0.2990 -0.2752
  960MOL0     C29474   9.991   3.328   4.711 -0.6139 -0.0642 -0.0841
  960MOL0     C29475   9.991   3.204   4.801  0.1292  0.1165  0.3185
  960MOL0     C29476   9.962   3.239   4.955 -0.9190 -0.3260 -0.3256
  960MOL0     C29477   9.971   3.111   5.037 -0.2298 -0.2579  0.4932
  960MOL0     C29478   9.930   3.137   5.175 -0.6464  0.6764 -0.4324
  960MOL0     C29479   9.881   3.031   5.263  0.0406 -1.4985 -0.1128
  960MOL0     C29480   9.858   3.088   5.405  1.0056  0.7417  0.5248
  960MOL0     C29481   9.709   3.087   5.433  0.6469 -0.5905  0.3452
  960MOL0     N29482   9.690   3.187   5.541  0.3648  0.5607 -0.3697
  960MOL0     C29483   9.686   3.156   5.674  0.5261  0.1785  0.1967
  960MOL0     C29484   9.628   3.260   5.733 -1.1548 -0.6273 -0.1449
  960MOL0     C29485   9.607   3.260   5.888  0.4111  0.5911  0.6326
  960MOL0     C29486   9.630   3.124   5.955  0.2208 -0.9129  0.7445
  960MOL0     C29487   9.610   3.145   6.102  0.4132 -0.4570  0.0291
  960MOL0     C29488   9.629   3.015   6.185 -0.8179  0.4894  0.2480
  960MOL0     O29489   9.520   2.923   6.159 -0.1125 -0.3808 -0.8978
  960MOL0     C29490   9.404   2.925   6.244 -0.7473 -0.6723 -0.5201
  960MOL0     C29491   9.381   3.028   6.341 -0.3429  0.2424 -0.2753
  960MOL0     C29492   9.260   3.020   6.417 -0.7140 -0.1061 -0.0345
  960MOL0     C29493   9.166   2.912   6.397  0.5306 -0.5781 -0.5380
  960MOL0     C29494   9.046   2.903   6.480  0.5861  0.0478 -0.9025
  960MOL0     O29495   9.037   2.983   6.597 -0.6103  0.7944 -0.0348
  960MOL0     C29496   8.937   2.969   6.681 -0.8732 -0.4014  0.1333
  960MOL0     C29497   8.969   2.998   6.816 -0.5606  0.2710 -0.4932
  960MOL0     C29498   8.863   3.015   6.911 -0.3198 -0.2486 -0.5567
  960MOL0     C29499   8.735   2.991   6.877  0.9468  0.6930  0.1620
  960MOL0     O29500   8.639   2.998   6.972 -0.2543  0.3588  0.1000
  960MOL0     C29501   8.625   2.879   7.042 -0.0460 -0.0389  0.3830
  960MOL0     C29502   8.511   2.916   7.140 -0.7461 -0.3755  0.4000
  960MOL0     C29503   8.491   2.802   7.239  0.1597  0.1102  0.6886
  960MOL0     C29504   8.407   2.857   7.362 -1.0514  0.4636 -0.2187
  960MOL0     C29505   8.392   2.739   7.460  0.3472 -0.1761  0.5904
  960MOL0     C29506   8.516   2.682   7.507 -0.5406 -0.1396 -0.6435
  960MOL0     C29507   8.518   2.621   7.650  0.0412 -1.1482  0.4473
  960MOL0     C29508   8.405   2.516   7.671 -0.5732 -0.0341  0.0893
  960MOL0    Cl29509   8.382   2.519   7.853  0.3933  0.0882 -0.1920
  960MOL0     C29510   8.707   2.961   6.741  0.3453  0.8586  0.2550
  960MOL0     C29511   8.807   2.956   6.649  0.0629 -0.4316 -0.0295
  960MOL0     O29512   8.966   2.814   6.445  0.9639 -0.0343  1.0637
  960MOL0     C29513   9.193   2.815   6.300  0.5265 -1.2160  0.1353
  960MOL0     C29514   9.306   2.823   6.217  0.0633 -0.3468 -1.3094
  960MOL0     N29515   9.616   3.362   5.638 -0.6456 -0.1211 -0.1442
  960MOL0     N29516   9.642   3.308   5.529 -0.7261  0.0116 -0.8627
  960MOL0     C29517  10.329   3.284   4.590  0.0031  0.0607  0.1895
  960MOL0     C29518  10.402   3.266   4.473 -1.0919 -0.2915  0.3010
  960MOL0     C29519  10.388   3.162   4.007 -0.3025 -0.4002 -0.2469
  960MOL0     C29520  10.396   3.036   3.948  0.7523  0.9262 -0.1630
  960MOL0     C29521  10.399   3.021   3.805 -0.6381  0.4590 -0.2934
  960MOL0     C29522  10.439   3.124   3.721 -0.6763 -0.1943  0.0057
  960MOL0     O29523  10.467   3.098   3.590  0.2757  0.5208 -0.9305
  960MOL0     C29524  10.542   3.192   3.513 -0.9152 -0.0820 -0.5254
  960MOL0     C29525  10.626   3.130   3.401  0.8465  0.5094 -0.0036
  960MOL0     C29526  10.532   3.094   3.277 -0.4991 -0.2989 -0.4411
  960MOL0     C29527  10.593   3.011   3.166 -0.9239 -0.3856  0.3792
  960MOL0     C29528  10.637   2.881   3.220 -0.2432  0.4063  0.2284
  960MOL0     C29529  10.688   2.775   3.276  0.4403  0.2881  0.8273
  960MOL0     C29530  10.449   3.253   3.782 -0.1096 -0.9959 -0.3974
  960MOL0     C29531  10.423   3.277   3.922 -0.0889 -0.6685 -0.7480
  960MOL0     C29532  10.408   3.424   3.976  0.6334 -0.4591 -0.1647
  960MOL0     H29533  10.201   3.406   4.256  4.8031 -0.6559 -1.8970
  960MOL0     H29534  10.052   3.439   4.463 -0.2650  0.8444 -0.0073
  960MOL0     H29535   9.939   3.414   4.755 -1.6547 -1.2557  1.1249
  960MOL0     H29536   9.941   3.316   4.614 -0.0344 -2.0353 -0.1817
  960MOL0     H29537  10.087   3.153   4.789  0.1380  0.5335 -1.9872
  960MOL0     H29538   9.920   3.135   4.753  2.3809 -3.6797  1.9348
  960MOL0     H29539   9.863   3.285   4.948  0.4012  2.5960 -1.6540
  960MOL0     H29540  10.028   3.314   4.997 -1.3944 -0.1422  0.1024
  960MOL0     H29541   9.890   3.053   4.993  0.1834 -1.8231  1.6933
  960MOL0     H29542  10.065   3.056   5.025  0.5397  0.7187  1.7664
  960MOL0     H29543  10.025   3.169   5.220 -1.5168  2.4931  0.2187
  960MOL0     H29544   9.861   3.221   5.187 -1.0449  0.2574  0.3230
  960MOL0     H29545   9.786   3.011   5.214 -1.4780 -1.2435  2.5724
  960MOL0     H29546   9.943   2.940   5.264 -0.4386 -1.8307  0.6841
  960MOL0     H29547   9.907   3.185   5.420  2.5457 -0.0773  0.9500
  960MOL0     H29548   9.911   3.020   5.472  2.1226  1.8199  0.7729
  960MOL0     H29549   9.645   3.117   5.350 -0.1810  2.3104  1.8601
  960MOL0     H29550   9.683   2.995   5.485 -1.6095  1.1560  2.5435
  960MOL0     H29551   9.722   3.061   5.714  0.5291 -0.4839 -1.3119
  960MOL0     H29552   9.665   3.343   5.931  1.4301  0.7580 -0.9821
  960MOL0     H29553   9.501   3.286   5.898 -0.2357 -1.5672 -0.0117
  960MOL0     H29554   9.572   3.037   5.922 -2.6689  0.0822  2.8205
  960MOL0     H29555   9.736   3.098   5.942  0.3779 -0.2459  0.6569
  960MOL0     H29556   9.504   3.172   6.112 -0.4600 -2.5438 -2.4179
  960MOL0     H29557   9.680   3.222   6.134  2.3722 -1.8903 -0.6329
  960MOL0     H29558   9.649   3.028   6.292 -1.8267 -1.5489  0.7537
  960MOL0     H29559   9.714   2.958   6.147 -3.6720 -5.3314  1.4701
  960MOL0     H29560   9.455   3.107   6.350 -0.4927  0.5144 -1.2720
  960MOL0     H29561   9.260   3.112   6.474  0.1841  0.6602 -1.2149
  960MOL0     H29562   9.073   3.000   6.847 -0.7763  3.5472  0.4184
  960MOL0     H29563   8.884   3.033   7.016  1.5630 -3.4374 -0.2775
  960MOL0     H29564   8.585   2.812   6.967  0.2638  3.1165 -2.8656
  960MOL0     H29565   8.717   2.845   7.091 -0.7108  0.1964  1.8608
  960MOL0     H29566   8.534   3.010   7.189  0.3502 -1.1285  1.3984
  960MOL0     H29567   8.419   2.930   7.082  0.5739 -0.1997 -1.7970
  960MOL0     H29568   8.424   2.734   7.186  0.2153  0.5663  0.0159
  960MOL0     H29569   8.584   2.757   7.274  1.0482  1.9499  0.8475
  960MOL0     H29570   8.309   2.893   7.331 -1.5934 -0.4977  0.3182
  960MOL0     H29571   8.456   2.938   7.418  0.3829 -1.1082  0.8897
  960MOL0     H29572   8.336   2.666   7.401 -1.8180  2.8873 -1.4528
  960MOL0     H29573   8.331   2.782   7.540 -0.0141  1.3223 -0.4446
  960MOL0     H29574   8.548   2.600   7.442  0.6963 -2.2369  2.4163
  960MOL0     H29575   8.597   2.756   7.512 -1.8941  1.2720  1.4134
  960MOL0     H29576   8.495   2.707   7.714 -1.3906  0.8360 -2.4793
  960MOL0     H29577   8.609   2.568   7.679 -0.5461 -2.7310 -0.4738
  960MOL0     H29578   8.318   2.540   7.609  0.3381  2.5141 -0.3388
  960MOL0     H29579   8.449   2.425   7.629 -2.2595  0.0372 -1.9568
  960MOL0     H29580   8.607   2.937   6.708 -0.1908  0.3565  2.1332
  960MOL0     H29581   8.795   2.947   6.541  2.1202 -3.3830 -0.1214
  960MOL0     H29582   9.119   2.739   6.275 -0.2618  0.1541 -1.9286
  960MOL0     H29583   9.321   2.744   6.144 -2.1686 -0.1041 -2.1022
  960MOL0     H29584  10.374   3.247   4.682 -0.7397  1.3269  1.0894
  960MOL0     H29585  10.485   3.197   4.476 -2.7672 -2.3655  2.2666
  960MOL0     H29586  10.370   2.947   4.005 -4.0814  2.0825 -0.1329
  960MOL0     H29587  10.393   2.915   3.780  4.8139 -0.7452  2.0365
  960MOL0     H29588  10.622   3.226   3.579 -0.7977 -1.6556  0.1883
  960MOL0     H29589  10.488   3.275   3.467 -0.3353  0.3560 -0.4266
  960MOL0     H29590  10.682   3.044   3.438 -1.6345 -0.1952  2.4444
  960MOL0     H29591  10.687   3.212   3.361 -0.0669  1.0496 -0.3334
  960MOL0     H29592  10.509   3.195   3.242 -1.3909  0.0495  1.0780
  960MOL0     H29593  10.437   3.049   3.309  0.4015 -1.7292  0.3407
  960MOL0     H29594  10.523   2.998   3.083  1.5580  1.8712 -2.2885
  960MOL0     H29595  10.685   3.055   3.127 -2.0702  2.1900  0.3457
  960MOL0     H29596  10.745   2.698   3.325  1.0708  1.0031  1.2454
  960MOL0     H29597  10.468   3.339   3.719 -1.8901 -1.3203 -1.4459
  960MOL0     H29598  10.325   3.424   4.048  0.1116  1.0244 -0.7275
  960MOL0     H29599  10.497   3.460   4.029  1.8172 -1.9634 -1.0513
  960MOL0     H29600  10.376   3.496   3.900 -0.5007 -0.1888  0.5458
  961MOL0     O29601  10.811  11.501   4.582 -0.2067  0.6695  0.1543
  961MOL0     C29602  10.784  11.384   4.568  0.4427  0.1103 -0.6414
  961MOL0     O29603  10.662  11.343   4.520 -1.4805  0.1159  0.3052
  961MOL0     C29604  10.615  11.380   4.397 -0.1708 -1.0840  0.0049
  961MOL0     C29605  10.485  11.346   4.362  0.2203  0.6184  0.0872
  961MOL0     C29606  10.423  11.416   4.260  0.3273 -0.7205  1.0780
  961MOL0     C29607  10.497  11.508   4.181 -0.5934  0.4140 -0.1429
  961MOL0     O29608  10.437  11.572   4.083 -0.2623 -0.5071 -0.3014
  961MOL0     C29609  10.449  11.711   4.058 -0.0053  0.5696 -0.3684
  961MOL0     C29610  10.512  11.737   3.923  0.2013  0.9302  0.0323
  961MOL0     C29611  10.555  11.888   3.916 -0.6029  0.1664  0.5597
  961MOL0     C29612  10.706  11.896   3.948 -0.3045  0.7581  0.3745
  961MOL0     C29613  10.742  12.033   3.992  0.7283 -0.0899 -0.3390
  961MOL0     C29614  10.878  12.016   4.073  0.1202 -0.2251  0.6893
  961MOL0     C29615  10.968  12.147   4.095  0.3309 -0.2733 -0.3440
  961MOL0     C29616  11.019  12.206   3.964  0.1552 -0.7671 -0.4628
  961MOL0     N29617  11.051  12.346   3.949 -0.3631  0.4099 -0.2629
  961MOL0     C29618  11.183  12.386   3.971 -0.4260  0.0049  0.9874
  961MOL0     C29619  11.167  12.519   3.989 -0.0421 -0.0899  0.3484
  961MOL0     C29620  11.279  12.611   3.985  0.3829 -0.0662  0.1655
  961MOL0     C29621  11.297  12.695   3.862  0.0667 -1.2647 -0.2184
  961MOL0     C29622  11.283  12.594   3.745 -0.3289  0.7088  0.0501
  961MOL0     C29623  11.293  12.662   3.617  0.5756  0.1318  0.4593
  961MOL0     O29624  11.436  12.693   3.601  0.0702 -0.6175  0.0340
  961MOL0     C29625  11.524  12.595   3.558  0.7842  0.4636  1.3483
  961MOL0     C29626  11.497  12.477   3.487  0.0569 -0.3392  0.2973
  961MOL0     C29627  11.602  12.400   3.438 -0.7897 -0.4037  0.3339
  961MOL0     C29628  11.737  12.428   3.479 -0.9809  0.5149 -0.1219
  961MOL0     C29629  11.841  12.332   3.460 -0.8725  0.1879 -0.3872
  961MOL0     O29630  11.964  12.375   3.501 -0.2269  0.1271 -0.0928
  961MOL0     C29631  12.067  12.297   3.530  0.0938 -0.2832  0.9821
  961MOL0     C29632  12.064  12.229   3.649  0.0387  0.6054  0.1269
  961MOL0     C29633  12.154  12.127   3.682  0.2700  0.7604  0.4698
  961MOL0     C29634  12.247  12.092   3.577  0.0556  0.0947 -0.5956
  961MOL0     O29635  12.336  11.993   3.601  0.6593 -0.2751  0.4646
  961MOL0     C29636  12.273  11.867   3.644 -0.9636 -0.5632  0.5578
  961MOL0     C29637  12.339  11.759   3.565 -0.4563 -0.1677  1.1144
  961MOL0     C29638  12.276  11.626   3.602 -0.4118 -0.9978  0.0619
  961MOL0     C29639  12.342  11.525   3.508 -0.4541  0.1278  0.0661
  961MOL0     C29640  12.256  11.401   3.520 -0.4437 -0.1592  0.5741
  961MOL0     C29641  12.312  11.276   3.459 -0.3940  0.6953  0.3424
  961MOL0     C29642  12.213  11.162   3.474 -0.7168 -0.3775 -0.0714
  961MOL0     C29643  12.273  11.026   3.420  0.5395 -0.4024  0.1280
  961MOL0    Cl29644  12.137  10.905   3.386 -0.5662  0.3315  0.4355
  961MOL0     C29645  12.254  12.160   3.457  0.2947  0.3578  0.7465
  961MOL0     C29646  12.159  12.260   3.431  0.1928  0.5753  0.2348
  961MOL0     O29647  11.810  12.224   3.416  0.0828  0.2551 -0.1452
  961MOL0     C29648  11.764  12.542   3.555  0.3178  0.4623 -0.7850
  961MOL0     C29649  11.654  12.624   3.584  0.0950 -1.4247 -0.6578
  961MOL0     N29650  11.028  12.555   3.990  0.0740  0.2043 -0.0766
  961MOL0     N29651  10.957  12.445   3.973 -0.4951 -0.0153  0.3251
  961MOL0     C29652  10.639  11.523   4.196 -0.1166  0.0368  0.0283
  961MOL0     C29653  10.694  11.467   4.312 -0.1878  0.1242 -0.5932
  961MOL0     C29654  10.880  11.285   4.630  0.3721  0.0360  0.0624
  961MOL0     C29655  10.864  11.148   4.591 -0.8078 -0.0767  0.3797
  961MOL0     C29656  10.948  11.051   4.634  0.2149 -0.3856  0.3825
  961MOL0     C29657  11.054  11.079   4.726 -0.4688 -0.2995 -0.0751
  961MOL0     O29658  11.147  10.990   4.770 -1.2001  0.3822 -0.3853
  961MOL0     C29659  11.126  10.847   4.753  0.9858 -0.4425  0.0955
  961MOL0     C29660  11.266  10.785   4.763 -0.2652 -0.1693  0.6507
  961MOL0     C29661  11.348  10.819   4.895 -0.4939 -0.8524 -0.0320
  961MOL0     C29662  11.449  10.706   4.920 -0.2522 -0.4671  0.2407
  961MOL0     C29663  11.537  10.740   5.037 -0.5424  0.1347  0.4171
  961MOL0     C29664  11.588  10.776   5.145 -0.4288 -0.5129  0.8478
  961MOL0     C29665  11.059  11.203   4.772 -0.1237  0.2085 -0.4450
  961MOL0     C29666  10.972  11.306   4.734 -0.7681 -0.1139  0.8047
  961MOL0     C29667  10.988  11.436   4.805 -0.2213 -0.3971 -0.4289
  961MOL0     H29668  10.428  11.280   4.426 -1.8347  0.8598 -1.4000
  961MOL0     H29669  10.319  11.408   4.231  0.4160 -3.6493  1.2338
  961MOL0     H29670  10.349  11.754   4.062 -0.2691 -0.1561  1.8516
  961MOL0     H29671  10.519  11.748   4.133 -0.1029  1.0692 -0.5164
  961MOL0     H29672  10.442  11.704   3.846 -0.3027 -0.7081  1.1447
  961MOL0     H29673  10.598  11.677   3.892  0.4366  1.4917 -0.4134
  961MOL0     H29674  10.488  11.956   3.968 -0.4662  2.3482 -1.9288
  961MOL0     H29675  10.554  11.915   3.810  2.0860  1.5927  0.8151
  961MOL0     H29676  10.727  11.828   4.032 -1.3167  1.0538  0.8899
  961MOL0     H29677  10.769  11.871   3.862  2.2777  1.0944  2.0484
  961MOL0     H29678  10.747  12.105   3.910  1.0705 -1.5949 -1.7014
  961MOL0     H29679  10.663  12.079   4.053  1.0705 -1.0201  0.8390
  961MOL0     H29680  10.853  11.975   4.171  1.6890  3.1998  2.7487
  961MOL0     H29681  10.944  11.947   4.020 -2.2536 -1.6581 -0.5463
  961MOL0     H29682  11.052  12.126   4.162  0.5880  0.5280 -0.4115
  961MOL0     H29683  10.894  12.213   4.141  1.5257 -1.1068  3.1349
  961MOL0     H29684  11.109  12.149   3.943  0.6712 -0.2621  0.3295
  961MOL0     H29685  10.954  12.178   3.880 -0.6361  0.8496 -0.4326
  961MOL0     H29686  11.265  12.317   3.958 -0.1129  0.8928 -3.5352
  961MOL0     H29687  11.276  12.677   4.071  2.3614  0.7433 -0.3256
  961MOL0     H29688  11.373  12.556   3.990 -0.6588 -1.8237  1.6827
  961MOL0     H29689  11.225  12.778   3.862 -0.1088 -1.2871 -3.2843
  961MOL0     H29690  11.392  12.750   3.866 -0.2534 -0.7899  1.6210
  961MOL0     H29691  11.183  12.552   3.747 -1.1051  2.3441 -1.3437
  961MOL0     H29692  11.365  12.522   3.755 -1.8127 -1.0041  0.2788
  961MOL0     H29693  11.242  12.758   3.601  2.4292  0.9272 -0.9800
  961MOL0     H29694  11.252  12.595   3.541 -0.4413  1.9027 -0.6164
  961MOL0     H29695  11.402  12.431   3.459  0.1760  0.7097 -2.0293
  961MOL0     H29696  11.574  12.308   3.387  0.7058  0.4254 -2.1770
  961MOL0     H29697  11.987  12.272   3.712  0.1905  1.2656 -0.1357
  961MOL0     H29698  12.163  12.089   3.784 -2.5708 -0.5412  0.3294
  961MOL0     H29699  12.296  11.852   3.750  1.6861  0.9354  0.2721
  961MOL0     H29700  12.164  11.868   3.634 -0.8572 -1.7883 -1.0214
  961MOL0     H29701  12.337  11.778   3.457 -0.1478 -3.4742  0.4163
  961MOL0     H29702  12.445  11.771   3.585 -0.2270 -0.7147  0.2828
  961MOL0     H29703  12.306  11.600   3.704  3.3553 -1.0537 -0.9222
  961MOL0     H29704  12.169  11.645   3.593 -0.1137  1.9038  1.4990
  961MOL0     H29705  12.449  11.513   3.527 -0.0587 -1.8995 -2.7305
  961MOL0     H29706  12.344  11.556   3.403 -1.0929  1.1166  0.3357
  961MOL0     H29707  12.159  11.437   3.482 -0.2112  2.4849  2.2216
  961MOL0     H29708  12.242  11.371   3.625  0.5961 -1.9702  0.2305
  961MOL0     H29709  12.337  11.290   3.354 -2.4243 -0.5245 -0.3620
  961MOL0     H29710  12.406  11.246   3.507  0.8704  0.4711 -2.1321
  961MOL0     H29711  12.126  11.195   3.416  0.7046  0.2411 -1.9643
  961MOL0     H29712  12.182  11.140   3.576  1.0940  2.0791  1.1137
  961MOL0     H29713  12.337  11.043   3.334 -0.8810  4.0255 -0.2599
  961MOL0     H29714  12.341  10.985   3.495 -0.9664 -0.7682  1.3559
  961MOL0     H29715  12.334  12.133   3.389 -0.7244  0.1545 -0.4142
  961MOL0     H29716  12.153  12.311   3.336  0.0857 -0.2773 -0.2251
  961MOL0     H29717  11.866  12.553   3.588  0.2748 -1.4343  0.1285
  961MOL0     H29718  11.685  12.710   3.642  1.4606 -1.5153 -1.2104
  961MOL0     H29719  10.709  11.582   4.137  0.1684  1.0878  1.3731
  961MOL0     H29720  10.801  11.476   4.325 -0.0535 -0.7230 -1.0611
  961MOL0     H29721  10.785  11.118   4.523 -1.2227 -0.7155  1.1248
  961MOL0     H29722  10.946  10.951   4.590 -2.2174 -0.3158  0.1752
  961MOL0     H29723  11.080  10.817   4.659  0.3783  0.5154  0.0739
  961MOL0     H29724  11.051  10.820   4.828  0.3978  0.4854 -0.1444
  961MOL0     H29725  11.322  10.833   4.682 -1.1545 -1.2418 -0.6411
  961MOL0     H29726  11.269  10.676   4.754 -0.7872 -0.6158  4.2553
  961MOL0     H29727  11.281  10.850   4.976 -0.2401  3.0793 -1.1066
  961MOL0     H29728  11.419  10.901   4.883  1.4365 -1.7762  3.7027
  961MOL0     H29729  11.395  10.611   4.921  0.3603 -0.8223  0.3734
  961MOL0     H29730  11.499  10.707   4.823 -2.1325  0.6533 -0.7634
  961MOL0     H29731  11.658  10.807   5.220 -0.0847  4.1240 -1.0609
  961MOL0     H29732  11.133  11.217   4.850  0.4829 -0.7599 -0.8306
  961MOL0     H29733  10.975  11.523   4.740  1.3253 -0.3256 -0.6991
  961MOL0     H29734  10.913  11.425   4.883 -0.6584 -1.2020 -0.9383
  961MOL0     H29735  11.086  11.436   4.855 -0.7434 -0.6475  0.6114
  962MOL0     O29736   3.942   4.347   8.484 -0.1144 -0.3163  0.2487
  962MOL0     C29737   3.835   4.389   8.523 -1.4387  0.1128 -0.0027
  962MOL0     O29738   3.718   4.320   8.523  0.0127 -0.1511 -0.2063
  962MOL0     C29739   3.689   4.199   8.461 -0.4405  0.2550  0.0820
  962MOL0     C29740   3.674   4.193   8.320 -0.0283  0.7459 -0.7817
  962MOL0     C29741   3.658   4.074   8.248  0.4251  0.3027  1.0911
  962MOL0     C29742   3.640   3.949   8.322  0.1876  0.5011  0.1629
  962MOL0     O29743   3.655   3.826   8.259 -0.0934  0.0096  0.0312
  962MOL0     C29744   3.621   3.829   8.113  0.3570 -0.6387 -0.0895
  962MOL0     C29745   3.612   3.693   8.065  0.2623  0.1741  0.7369
  962MOL0     C29746   3.744   3.630   8.039 -1.0319 -0.1701  0.4766
  962MOL0     C29747   3.731   3.475   8.024 -0.2645 -1.0044 -0.1967
  962MOL0     C29748   3.851   3.402   7.965 -0.0649  0.0341 -0.0922
  962MOL0     C29749   3.818   3.250   7.963  0.3398 -0.3548 -0.7348
  962MOL0     C29750   3.946   3.171   7.906  0.6615  1.2893  0.1980
  962MOL0     C29751   3.997   3.198   7.761 -0.4566  0.2052 -0.1638
  962MOL0     N29752   3.906   3.160   7.653 -0.2723 -1.1271  1.1906
  962MOL0     C29753   3.836   3.043   7.658  0.3184 -0.1301  0.0462
  962MOL0     C29754   3.795   3.031   7.525 -0.0694 -0.3157 -0.0646
  962MOL0     C29755   3.732   2.899   7.463  0.5597 -0.3808  0.9278
  962MOL0     C29756   3.782   2.844   7.327  0.1504  1.4033 -0.9650
  962MOL0     C29757   3.778   2.948   7.202  0.7749  0.4077  0.5922
  962MOL0     C29758   3.811   2.872   7.081 -0.1243 -0.6559 -0.7373
  962MOL0     O29759   3.762   2.933   6.954 -0.1677  0.1553 -0.6892
  962MOL0     C29760   3.759   2.872   6.837 -0.9643  0.4241 -0.1609
  962MOL0     C29761   3.735   2.962   6.734 -0.4285 -0.6075  0.0893
  962MOL0     C29762   3.706   2.914   6.604 -1.1155 -0.3699 -0.2378
  962MOL0     C29763   3.698   2.778   6.571  0.0579 -0.2663 -0.0961
  962MOL0     C29764   3.676   2.736   6.430  0.4458 -0.0381  0.1358
  962MOL0     O29765   3.669   2.610   6.394 -0.3659  0.1395 -0.3856
  962MOL0     C29766   3.622   2.573   6.265 -0.4922  0.2929 -1.1684
  962MOL0     C29767   3.508   2.630   6.213  0.0926  0.2470  0.1487
  962MOL0     C29768   3.457   2.601   6.089  0.6023 -0.1055 -0.2018
  962MOL0     C29769   3.520   2.515   5.997  0.1906  0.4451 -0.0997
  962MOL0     O29770   3.468   2.497   5.862 -0.2148 -0.5002 -0.9471
  962MOL0     C29771   3.560   2.436   5.766  0.0194 -0.4172  0.9263
  962MOL0     C29772   3.520   2.499   5.626  0.2030 -0.0887 -0.1990
  962MOL0     C29773   3.593   2.628   5.617 -0.0768  0.2222  0.1262
  962MOL0     C29774   3.585   2.691   5.477 -0.6015  0.9455  0.1161
  962MOL0     C29775   3.665   2.818   5.458  0.2652  0.0519 -0.9257
  962MOL0     C29776   3.807   2.810   5.464 -1.3335  0.1215 -0.3336
  962MOL0     C29777   3.866   2.702   5.371 -0.1423 -0.3129  0.4209
  962MOL0     C29778   3.843   2.725   5.218  0.4017 -0.7600  0.3436
  962MOL0    Cl29779   3.823   2.891   5.162  0.0344  0.3747 -0.0337
  962MOL0     C29780   3.627   2.448   6.052  0.5547 -0.3642 -0.2156
  962MOL0     C29781   3.676   2.469   6.183 -0.5590 -0.0563 -0.3966
  962MOL0     O29782   3.666   2.827   6.349  0.1138 -0.4528  0.1038
  962MOL0     C29783   3.720   2.688   6.677 -0.7975  0.5921  0.2557
  962MOL0     C29784   3.749   2.731   6.801  0.0842 -0.0694 -0.0842
  962MOL0     N29785   3.851   3.132   7.449  0.4784  0.1090 -0.9065
  962MOL0     N29786   3.918   3.206   7.530  0.2827  0.2274 -0.3333
  962MOL0     C29787   3.663   3.957   8.460 -0.0378  0.2753  0.0837
  962MOL0     C29788   3.694   4.077   8.523 -1.2709 -0.3695 -0.4935
  962MOL0     C29789   3.827   4.531   8.572  0.5214 -0.2787 -0.4378
  962MOL0     C29790   3.705   4.599   8.561  0.7332  0.2911 -0.1528
  962MOL0     C29791   3.691   4.716   8.634  0.4063 -0.0095  0.4734
  962MOL0     C29792   3.785   4.778   8.705  0.6924 -0.3616 -0.5399
  962MOL0     O29793   3.760   4.896   8.776 -0.0967  1.0290  0.5335
  962MOL0     C29794   3.639   4.887   8.863 -0.8356 -0.1264 -0.0524
  962MOL0     C29795   3.658   4.787   8.971  0.6676 -1.1589  0.4856
  962MOL0     C29796   3.772   4.824   9.067  0.7862 -0.3583  0.8423
  962MOL0     C29797   3.754   4.954   9.159 -0.3959 -0.6368  0.7836
  962MOL0     C29798   3.685   4.930   9.281 -0.4368 -0.3279  0.7874
  962MOL0     C29799   3.631   4.924   9.392 -0.0221 -0.7176  1.2447
  962MOL0     C29800   3.909   4.706   8.717 -0.1452  0.1565  0.5822
  962MOL0     C29801   3.934   4.586   8.648  0.1736 -0.2707  0.5207
  962MOL0     C29802   4.070   4.531   8.655 -1.1138  0.3321  0.1811
  962MOL0     H29803   3.683   4.288   8.268 -1.0027  1.8375  0.9362
  962MOL0     H29804   3.668   4.086   8.141  1.3702 -1.3787  0.9627
  962MOL0     H29805   3.524   3.875   8.091  0.9671  1.6603  1.6874
  962MOL0     H29806   3.705   3.877   8.063 -0.8797  2.8786  0.9444
  962MOL0     H29807   3.557   3.688   7.970  2.0089 -0.8090 -0.2892
  962MOL0     H29808   3.546   3.642   8.136 -4.4247  1.8111 -1.9609
  962MOL0     H29809   3.802   3.646   8.131 -0.5130  0.8632 -0.0128
  962MOL0     H29810   3.792   3.686   7.958 -1.1071  1.5945  1.6196
  962MOL0     H29811   3.710   3.434   8.123  0.5349 -2.0892 -0.4623
  962MOL0     H29812   3.647   3.457   7.955 -0.8441 -0.3205  0.3088
  962MOL0     H29813   3.870   3.430   7.861 -4.2526 -0.4743 -1.1595
  962MOL0     H29814   3.938   3.411   8.031  0.7599 -3.4980 -0.5292
  962MOL0     H29815   3.791   3.206   8.059  2.7279  1.0436  0.6711
  962MOL0     H29816   3.735   3.240   7.892 -0.3572 -0.7843  0.1184
  962MOL0     H29817   3.955   3.066   7.934  4.5752  1.0947 -1.0798
  962MOL0     H29818   4.022   3.217   7.971 -1.8241  1.3814  3.2624
  962MOL0     H29819   4.030   3.301   7.742 -2.9135  0.9316 -0.8289
  962MOL0     H29820   4.094   3.150   7.742  1.1470  3.1337 -0.0413
  962MOL0     H29821   3.821   2.969   7.736 -3.9180  0.8778  0.3833
  962MOL0     H29822   3.746   2.823   7.540  2.2043 -0.1146  0.9100
  962MOL0     H29823   3.625   2.925   7.465  0.8492  1.3282 -1.6297
  962MOL0     H29824   3.884   2.804   7.330 -0.6609 -0.7840 -1.0582
  962MOL0     H29825   3.718   2.761   7.295  0.2842  1.1143 -0.4887
  962MOL0     H29826   3.856   3.023   7.216  1.4627  0.3843 -2.4773
  962MOL0     H29827   3.687   3.004   7.180  1.8842  1.3531 -1.9926
  962MOL0     H29828   3.745   2.785   7.085  0.2782 -1.0111 -1.3963
  962MOL0     H29829   3.914   2.833   7.082  0.4014  0.7001  0.4964
  962MOL0     H29830   3.734   3.065   6.767 -2.5006  0.0905 -1.8512
  962MOL0     H29831   3.697   2.991   6.527  2.1622 -2.6282 -3.1421
  962MOL0     H29832   3.460   2.702   6.278  0.6814  0.1697  0.6808
  962MOL0     H29833   3.365   2.644   6.050  0.8988 -0.1089 -0.9134
  962MOL0     H29834   3.665   2.461   5.785 -0.1224  0.8997  0.1335
  962MOL0     H29835   3.561   2.327   5.772  0.3384 -0.4305  0.6542
  962MOL0     H29836   3.554   2.436   5.543 -0.2668  0.0219 -0.4773
  962MOL0     H29837   3.413   2.522   5.615  0.9920  4.4809 -0.1035
  962MOL0     H29838   3.551   2.703   5.684  0.3313  4.4246 -3.8376
  962MOL0     H29839   3.696   2.606   5.647 -0.9481  0.5015  3.8929
  962MOL0     H29840   3.480   2.718   5.461 -1.1906 -0.8014  0.8575
  962MOL0     H29841   3.608   2.618   5.398 -2.1042  0.4369  0.1148
  962MOL0     H29842   3.633   2.894   5.529 -1.4005 -0.7150 -0.8054
  962MOL0     H29843   3.630   2.856   5.361 -2.8911  1.2978  0.5704
  962MOL0     H29844   3.846   2.911   5.448 -2.9195  0.8068 -0.0646
  962MOL0     H29845   3.836   2.793   5.568  2.4039  2.0522 -0.8746
  962MOL0     H29846   3.840   2.600   5.402 -3.0118  0.5102  1.0108
  962MOL0     H29847   3.974   2.718   5.382 -0.4225  2.7467 -0.3346
  962MOL0     H29848   3.931   2.697   5.160  0.6869  1.9604 -0.6898
  962MOL0     H29849   3.757   2.663   5.192  0.1566  0.5360 -2.1995
  962MOL0     H29850   3.676   2.375   5.988  1.1057 -1.2195  1.1316
  962MOL0     H29851   3.774   2.427   6.196  1.2941  2.8043 -3.3808
  962MOL0     H29852   3.711   2.583   6.648 -0.1127  0.7443 -0.5231
  962MOL0     H29853   3.764   2.658   6.879  0.2155 -0.7267 -0.7137
  962MOL0     H29854   3.662   3.868   8.521 -1.1595 -0.8685 -1.5265
  962MOL0     H29855   3.711   4.073   8.630  0.7576  3.2690 -0.5136
  962MOL0     H29856   3.617   4.551   8.519  0.0976  0.0801  1.3682
  962MOL0     H29857   3.596   4.765   8.616 -1.2389 -3.0268  0.3071
  962MOL0     H29858   3.550   4.853   8.810 -3.1687  0.5031  3.1320
  962MOL0     H29859   3.612   4.987   8.898  2.9216 -0.4707  5.0706
  962MOL0     H29860   3.663   4.689   8.923  2.2632 -0.6503 -0.4642
  962MOL0     H29861   3.565   4.792   9.028  0.8135  1.6263  0.6294
  962MOL0     H29862   3.863   4.841   9.010 -0.0285  1.9951  0.1138
  962MOL0     H29863   3.779   4.733   9.128 -1.3130 -2.5190 -1.8723
  962MOL0     H29864   3.854   4.996   9.171  1.0817 -3.5216 -0.2750
  962MOL0     H29865   3.694   5.032   9.111 -1.4467 -2.7250 -1.5446
  962MOL0     H29866   3.605   4.934   9.496 -2.4624  2.1325  0.4919
  962MOL0     H29867   3.985   4.763   8.770 -0.6035  2.9732 -1.5814
  962MOL0     H29868   4.109   4.511   8.555 -0.4291 -0.8813  0.6697
  962MOL0     H29869   4.132   4.607   8.703  1.5320 -3.8056  4.1581
  962MOL0     H29870   4.075   4.445   8.723 -3.3676  3.0542  4.2046
  963MOL0     O29871   7.897   9.506   6.798  0.5183 -0.3402  0.3989
  963MOL0     C29872   7.871   9.553   6.690 -0.3533 -0.7605  0.1684
  963MOL0     O29873   7.917   9.676   6.644 -0.3893  0.0907  0.1798
  963MOL0     C29874   8.016   9.735   6.715 -1.0527  0.4720 -0.2766
  963MOL0     C29875   7.986   9.838   6.806  0.8922 -1.3595  0.2262
  963MOL0     C29876   8.085   9.909   6.879 -0.3351  0.4326  0.1570
  963MOL0     C29877   8.221   9.879   6.844  1.1136  0.0771  0.7110
  963MOL0     O29878   8.322   9.969   6.890 -0.0358  0.1790 -0.4515
  963MOL0     C29879   8.446   9.980   6.819  0.2095 -0.6548  0.1096
  963MOL0     C29880   8.546   9.885   6.888 -0.4326  0.3023 -0.3864
  963MOL0     C29881   8.690   9.929   6.847  0.1015  0.8131 -0.0785
  963MOL0     C29882   8.800   9.837   6.893  0.6993  0.8609  0.3012
  963MOL0     C29883   8.936   9.876   6.819 -0.6801  0.9506 -0.5111
  963MOL0     C29884   9.060   9.781   6.869  0.4640 -0.3894 -0.1568
  963MOL0     C29885   9.200   9.827   6.826  1.1939  0.2066 -1.4257
  963MOL0     C29886   9.196   9.854   6.675 -0.1867 -0.2121 -0.5214
  963MOL0     N29887   9.325   9.896   6.615  0.7681 -0.3236  0.4750
  963MOL0     C29888   9.415   9.800   6.586  0.4007 -0.3543  0.2893
  963MOL0     C29889   9.511   9.866   6.516  0.1982  0.2953  0.5965
  963MOL0     C29890   9.624   9.799   6.457 -0.2587 -0.2460  0.1312
  963MOL0     C29891   9.747   9.868   6.507 -0.1653  0.1309  0.4590
  963MOL0     C29892   9.880   9.796   6.455  0.7560 -0.1607  0.2932
  963MOL0     C29893  10.002   9.893   6.502  0.6341 -0.4310  0.5374
  963MOL0     O29894  10.122   9.853   6.431 -0.1413 -0.2453 -0.3675
  963MOL0     C29895  10.207   9.952   6.381 -0.3439 -0.5982 -1.4584
  963MOL0     C29896  10.222  10.083   6.440  0.3742 -0.2771  0.3204
  963MOL0     C29897  10.315  10.179   6.380  0.9542  0.6228 -0.1382
  963MOL0     C29898  10.398  10.133   6.280  0.5041  0.0597 -0.4465
  963MOL0     C29899  10.507  10.217   6.227  0.1881 -0.1418 -0.6751
  963MOL0     O29900  10.551  10.321   6.307  0.1971  0.3571 -0.4517
  963MOL0     C29901  10.659  10.397   6.275  0.7321  0.1182 -0.3982
  963MOL0     C29902  10.745  10.421   6.378  1.3557 -0.1845 -0.6350
  963MOL0     C29903  10.836  10.518   6.384  0.2257  0.5529 -0.1970
  963MOL0     C29904  10.846  10.600   6.269 -0.6076  0.0124 -1.9844
  963MOL0     O29905  10.937  10.702   6.281  0.5370  0.8877  0.2967
  963MOL0     C29906  11.002  10.746   6.160 -0.2306  0.1537  0.3074
  963MOL0     C29907  11.133  10.821   6.180 -0.2612  0.5868 -0.8246
  963MOL0     C29908  11.240  10.717   6.240 -0.4754  0.3841 -0.5032
  963MOL0     C29909  11.363  10.805   6.274 -0.7271  0.0263 -0.2703
  963MOL0     C29910  11.488  10.734   6.320  0.3325  0.0063  0.4519
  963MOL0     C29911  11.596  10.824   6.389  0.0588  0.4307  0.8466
  963MOL0     C29912  11.716  10.740   6.424 -0.6102 -0.5988  0.3847
  963MOL0     C29913  11.845  10.824   6.413  0.3532 -0.6858 -0.1798
  963MOL0    Cl29914  11.842  10.985   6.489 -0.0721 -0.0271  0.0400
  963MOL0     C29915  10.769  10.571   6.155 -0.4262  0.7679  0.3395
  963MOL0     C29916  10.670  10.467   6.160 -0.7214 -0.8055  0.3353
  963MOL0     O29917  10.546  10.194   6.112  0.6029  0.1900  0.9401
  963MOL0     C29918  10.391  10.004   6.237 -0.5276 -0.2944  0.6041
  963MOL0     C29919  10.290   9.921   6.274 -0.5247  0.0487 -0.3391
  963MOL0     N29920   9.478  10.002   6.501 -0.5402 -1.0139 -0.4553
  963MOL0     N29921   9.361  10.014   6.553  0.0993 -0.2004 -0.6127
  963MOL0     C29922   8.250   9.772   6.752  0.3170 -0.1289 -0.3082
  963MOL0     C29923   8.151   9.707   6.692 -0.6519  0.0477  0.1441
  963MOL0     C29924   7.769   9.497   6.597  0.8637 -0.7304 -0.4689
  963MOL0     C29925   7.697   9.585   6.511  0.0887  0.2955 -0.4246
  963MOL0     C29926   7.619   9.534   6.403  0.1652  0.7104 -0.4984
  963MOL0     C29927   7.599   9.395   6.396 -0.5075 -0.4343 -0.4941
  963MOL0     O29928   7.512   9.349   6.304 -0.5497 -0.4151 -0.7763
  963MOL0     C29929   7.464   9.216   6.299  0.9246 -0.3964 -0.5202
  963MOL0     C29930   7.545   9.126   6.208 -0.8086  0.2666  0.0900
  963MOL0     C29931   7.575   9.185   6.061 -0.2189  0.4495 -0.1292
  963MOL0     C29932   7.700   9.277   6.055  0.2221  0.2119 -0.6231
  963MOL0     C29933   7.672   9.402   5.983  0.4722  0.2892  0.7053
  963MOL0     C29934   7.632   9.501   5.935  0.4813  0.1824 -0.3008
  963MOL0     C29935   7.669   9.309   6.487  0.2880 -0.1126  1.4093
  963MOL0     C29936   7.747   9.364   6.579  0.1174 -0.3549  0.0754
  963MOL0     C29937   7.811   9.262   6.668  0.4572 -0.5324 -0.4679
  963MOL0     H29938   7.881   9.859   6.820  0.2052 -3.0653 -1.9154
  963MOL0     H29939   8.046   9.992   6.937 -4.1302  0.4885 -2.1650
  963MOL0     H29940   8.441   9.958   6.712  0.6560 -2.9138  0.5006
  963MOL0     H29941   8.491  10.078   6.835  3.4709 -1.6707 -1.9308
  963MOL0     H29942   8.513   9.788   6.850 -2.7535  2.1781 -3.6137
  963MOL0     H29943   8.546   9.890   6.997 -0.6351 -2.8805 -0.1368
  963MOL0     H29944   8.691  10.035   6.877  0.4431  0.5660  0.7895
  963MOL0     H29945   8.700   9.942   6.739  1.2120  1.4448  0.0846
  963MOL0     H29946   8.817   9.831   7.000  0.9453 -1.0815  0.1820
  963MOL0     H29947   8.784   9.731   6.873  5.2817  0.3860 -2.2652
  963MOL0     H29948   8.938   9.888   6.710  3.7048  2.6229 -0.4601
  963MOL0     H29949   8.956   9.980   6.846 -1.4015 -0.0282  4.9142
  963MOL0     H29950   9.050   9.762   6.976 -1.4293  0.0391 -0.2237
  963MOL0     H29951   9.037   9.681   6.830  1.9099 -1.2373  1.0543
  963MOL0     H29952   9.279   9.754   6.845 -0.4875 -0.9192  1.9153
  963MOL0     H29953   9.217   9.920   6.880 -1.5101 -0.4195  0.6809
  963MOL0     H29954   9.169   9.759   6.629 -0.5988  0.1983 -1.1482
  963MOL0     H29955   9.126   9.928   6.635 -2.7953 -1.7021  0.9647
  963MOL0     H29956   9.412   9.693   6.606 -5.9648 -0.2191  2.2292
  963MOL0     H29957   9.626   9.692   6.480 -0.1124 -0.6495 -1.6484
  963MOL0     H29958   9.632   9.808   6.349  1.4118  0.0901  0.2594
  963MOL0     H29959   9.751   9.972   6.475 -0.6217 -0.8484 -3.2440
  963MOL0     H29960   9.760   9.854   6.614  4.4689  2.1590  0.3983
  963MOL0     H29961   9.896   9.779   6.348 -1.2445  1.2477 -0.2951
  963MOL0     H29962   9.896   9.701   6.507 -2.2806 -1.5479 -1.0024
  963MOL0     H29963  10.030   9.886   6.608 -1.1999  1.2697  1.1957
  963MOL0     H29964   9.970   9.995   6.477 -1.3189 -1.3118 -0.7565
  963MOL0     H29965  10.156  10.112   6.521 -2.9495  2.3419 -2.9955
  963MOL0     H29966  10.319  10.281   6.418  2.5363 -0.7227  3.7546
  963MOL0     H29967  10.718  10.363   6.466 -0.9898 -3.5551 -3.3294
  963MOL0     H29968  10.894  10.535   6.474  0.0199  2.0625 -0.3135
  963MOL0     H29969  11.019  10.655   6.100  1.9575 -0.3865  1.6389
  963MOL0     H29970  10.934  10.811   6.105  1.5141  1.8674  0.0738
  963MOL0     H29971  11.171  10.862   6.086  0.5450 -4.1499 -2.8841
  963MOL0     H29972  11.121  10.909   6.243  2.1717  1.0104 -0.8540
  963MOL0     H29973  11.217  10.661   6.332  1.1409  0.7244  0.1495
  963MOL0     H29974  11.266  10.641   6.166 -1.4614 -1.1770  0.6881
  963MOL0     H29975  11.334  10.880   6.348  3.5722  1.3896  0.3023
  963MOL0     H29976  11.387  10.856   6.180  1.1090 -2.3700 -1.1984
  963MOL0     H29977  11.538  10.701   6.229 -0.4480  0.0375  0.0082
  963MOL0     H29978  11.460  10.661   6.397  1.0757  3.6477  4.6472
  963MOL0     H29979  11.618  10.906   6.320  1.1421  0.3426  1.0743
  963MOL0     H29980  11.542  10.858   6.478  0.1794  1.0453  0.6866
  963MOL0     H29981  11.737  10.662   6.350  0.1733 -0.8733  0.8806
  963MOL0     H29982  11.711  10.683   6.517 -1.6755 -2.0465 -0.5017
  963MOL0     H29983  11.910  10.762   6.475  1.7375  0.7843 -0.0891
  963MOL0     H29984  11.888  10.829   6.312 -2.1194  2.0929 -1.2406
  963MOL0     H29985  10.791  10.629   6.066 -3.2297  0.0531 -0.9285
  963MOL0     H29986  10.620  10.430   6.072 -0.7776 -0.2002  0.1040
  963MOL0     H29987  10.446   9.975   6.148 -1.4225  0.3928 -0.1926
  963MOL0     H29988  10.271   9.826   6.225  0.5134 -0.6543  0.5880
  963MOL0     H29989   8.351   9.748   6.720  0.9571  2.1952 -0.1682
  963MOL0     H29990   8.173   9.619   6.632  0.8389 -0.0629  0.8047
  963MOL0     H29991   7.717   9.690   6.525 -2.1591  0.6681  0.3231
  963MOL0     H29992   7.572   9.591   6.324  1.2330  1.2248 -0.7866
  963MOL0     H29993   7.363   9.226   6.259  0.8029 -2.5690 -0.8982
  963MOL0     H29994   7.451   9.179   6.401  1.6854 -1.3477 -0.7537
  963MOL0     H29995   7.494   9.030   6.201 -0.6379  0.2464 -1.0642
  963MOL0     H29996   7.646   9.101   6.241  0.0807  1.4996 -1.5149
  963MOL0     H29997   7.485   9.232   6.021  0.2024  1.4769  0.0966
  963MOL0     H29998   7.595   9.092   6.007 -1.0197 -3.1829  5.0091
  963MOL0     H29999   7.728   9.298   6.159 -2.0925  3.9577 -0.5932
  963MOL0     H30000   7.781   9.220   6.008  2.1931 -0.4586  3.1554
  963MOL0     H30001   7.575   9.578   5.887 -0.2704 -0.2303 -0.0802
  963MOL0     H30002   7.652   9.204   6.462 -0.3209  0.3791 -0.3157
  963MOL0     H30003   7.817   9.165   6.617 -0.9732  0.1745 -2.0810
  963MOL0     H30004   7.908   9.288   6.710  0.4795  2.9047 -2.3225
  963MOL0     H30005   7.740   9.242   6.750  2.3268 -2.3915  0.7932
  964MOL0     O30006  11.064   2.473   5.203  0.5454  0.9678  0.3570
  964MOL0     C30007  11.172   2.518   5.211 -0.4489 -0.6271  0.5234
  964MOL0     O30008  11.223   2.581   5.320  1.3937  0.3008 -0.8676
  964MOL0     C30009  11.138   2.609   5.426 -0.7908 -0.2037  0.7021
  964MOL0     C30010  11.088   2.741   5.437 -0.0981  0.0488  0.0090
  964MOL0     C30011  11.008   2.781   5.547 -0.6111 -0.1026  0.2812
  964MOL0     C30012  10.979   2.697   5.653  0.1849  0.3236 -1.1505
  964MOL0     O30013  10.927   2.746   5.770  0.2667 -1.1591 -0.1673
  964MOL0     C30014  10.955   2.696   5.897  0.2019  0.2417 -1.2915
  964MOL0     C30015  10.921   2.798   6.006 -0.3661 -0.2970  0.2965
  964MOL0     C30016  11.025   2.902   6.039  0.9482  0.0850  0.2963
  964MOL0     C30017  11.069   2.977   5.916  1.2895 -0.9920  0.4914
  964MOL0     C30018  11.115   3.119   5.971  0.4008  0.3642  0.1067
  964MOL0     C30019  11.169   3.211   5.865  0.0160  0.5238 -0.3927
  964MOL0     C30020  11.187   3.352   5.904 -0.4505 -0.0432  0.3247
  964MOL0     C30021  11.066   3.435   5.877  0.0620 -0.1767 -0.0407
  964MOL0     N30022  11.079   3.575   5.915 -0.2314 -0.3619  0.2064
  964MOL0     C30023  11.095   3.677   5.832  0.6581 -0.4610 -0.3893
  964MOL0     C30024  11.082   3.787   5.905  0.7947 -1.6741 -0.6359
  964MOL0     C30025  11.077   3.930   5.848 -0.0641 -0.1186 -0.3901
  964MOL0     C30026  10.962   4.006   5.899 -0.4043 -0.0035 -0.8146
  964MOL0     C30027  10.951   4.128   5.812 -0.2519 -0.5533 -0.3316
  964MOL0     C30028  10.829   4.212   5.856  0.2909 -0.2388 -0.0321
  964MOL0     O30029  10.815   4.330   5.771  0.0535 -0.1427 -0.0064
  964MOL0     C30030  10.700   4.394   5.763 -0.2953 -0.5165 -0.0352
  964MOL0     C30031  10.588   4.381   5.846 -0.3021 -0.1707 -0.9356
  964MOL0     C30032  10.469   4.454   5.837  0.3142 -0.1185 -1.4303
  964MOL0     C30033  10.459   4.545   5.737  0.3086 -0.4738  0.6310
  964MOL0     C30034  10.346   4.639   5.712  0.0849  1.3374 -0.1778
  964MOL0     O30035  10.332   4.702   5.592 -0.6013  0.3761 -0.1264
  964MOL0     C30036  10.217   4.776   5.565  0.3863  0.4432 -0.4123
  964MOL0     C30037  10.083   4.753   5.597 -0.4099 -0.4069 -0.7079
  964MOL0     C30038   9.973   4.833   5.548  0.2389 -0.3214  0.5983
  964MOL0     C30039   9.997   4.949   5.481 -0.3727 -0.3064  0.4943
  964MOL0     O30040   9.915   5.042   5.433  0.1836  0.0092  0.0409
  964MOL0     C30041   9.793   5.071   5.500 -0.7421  0.6714 -0.4060
  964MOL0     C30042   9.735   5.174   5.407 -1.1565  0.1375 -0.5857
  964MOL0     C30043   9.788   5.319   5.417  0.3123 -0.6669 -1.0162
  964MOL0     C30044   9.754   5.369   5.559  0.6976  0.4864  0.8631
  964MOL0     C30045   9.783   5.519   5.578  0.1293  0.5612  0.7179
  964MOL0     C30046   9.739   5.568   5.716  0.4539 -1.1150  0.0715
  964MOL0     C30047   9.771   5.713   5.758 -0.5893  1.5272  0.1629
  964MOL0     C30048   9.909   5.752   5.715  0.0862 -0.2711  0.3062
  964MOL0    Cl30049   9.953   5.907   5.787 -0.8015  0.2252  0.5419
  964MOL0     C30050  10.134   4.974   5.439  0.3228  1.0914 -0.1590
  964MOL0     C30051  10.234   4.888   5.482  0.5627 -0.2227 -0.0308
  964MOL0     O30052  10.281   4.662   5.813  0.0114  0.3453  0.1300
  964MOL0     C30053  10.561   4.561   5.649  0.8523  0.0374  0.2950
  964MOL0     C30054  10.684   4.488   5.657 -0.2542 -0.2882 -0.5616
  964MOL0     N30055  11.063   3.754   6.039  0.7437  0.2587  0.7987
  964MOL0     N30056  11.064   3.624   6.046 -0.1463  0.1636  0.8075
  964MOL0     C30057  11.020   2.567   5.646 -0.5558  0.1483 -0.2616
  964MOL0     C30058  11.109   2.523   5.539 -1.1269 -0.9273  0.0235
  964MOL0     C30059  11.252   2.512   5.081 -0.2598  0.3703  0.3470
  964MOL0     C30060  11.392   2.542   5.095 -0.9187 -0.5344 -0.3633
  964MOL0     C30061  11.482   2.552   4.989  0.2461 -0.2729  0.5400
  964MOL0     C30062  11.431   2.547   4.852  0.2063 -0.0226 -0.1335
  964MOL0     O30063  11.520   2.576   4.746  0.5364  0.6969  1.2147
  964MOL0     C30064  11.479   2.504   4.622 -0.1649  0.0541  0.3887
  964MOL0     C30065  11.602   2.510   4.527 -0.5555  0.5560  0.1230
  964MOL0     C30066  11.680   2.375   4.540 -0.4778  0.8673  0.5489
  964MOL0     C30067  11.756   2.350   4.674 -0.6142 -0.2838 -0.3121
  964MOL0     C30068  11.886   2.272   4.660  1.0797 -0.5426 -0.3128
  964MOL0     C30069  11.996   2.226   4.654  0.4523  0.3487 -0.9402
  964MOL0     C30070  11.293   2.517   4.839 -0.1221 -0.1736 -0.4258
  964MOL0     C30071  11.207   2.499   4.952 -0.6655 -0.1891  0.4412
  964MOL0     C30072  11.064   2.478   4.916  0.5879  0.3529  0.5238
  964MOL0     H30073  11.109   2.799   5.347 -0.8711 -0.4157 -0.4805
  964MOL0     H30074  10.969   2.882   5.536  1.0713  0.5330 -0.1816
  964MOL0     H30075  10.901   2.602   5.910  0.0917 -0.1200 -3.9406
  964MOL0     H30076  11.063   2.678   5.905  0.0354 -0.4285 -0.3378
  964MOL0     H30077  10.891   2.736   6.091 -0.5670  1.9559  1.9601
  964MOL0     H30078  10.823   2.837   5.976 -1.2530 -1.4637  1.5201
  964MOL0     H30079  11.108   2.860   6.097  0.6061 -0.2720  0.5299
  964MOL0     H30080  10.974   2.971   6.107  1.5035  0.6146  0.1883
  964MOL0     H30081  11.150   2.933   5.857  0.3036  0.4632 -2.1305
  964MOL0     H30082  10.983   2.988   5.850  3.0041  1.4994 -1.5859
  964MOL0     H30083  11.018   3.158   6.002  0.2830  0.0626  0.1180
  964MOL0     H30084  11.188   3.119   6.053  0.5848 -0.7534 -0.0447
  964MOL0     H30085  11.261   3.175   5.818  0.5934  1.2276  0.1695
  964MOL0     H30086  11.098   3.207   5.782 -0.1965 -1.3050 -0.1654
  964MOL0     H30087  11.269   3.391   5.844 -0.5364 -2.7298 -1.7563
  964MOL0     H30088  11.215   3.363   6.009  2.2657 -2.0687 -0.0821
  964MOL0     H30089  11.047   3.419   5.771  2.9372 -1.8682 -0.3909
  964MOL0     H30090  10.979   3.393   5.929  0.5367 -2.1679 -0.7733
  964MOL0     H30091  11.115   3.683   5.726 -0.4149 -1.2737 -0.6468
  964MOL0     H30092  11.171   3.978   5.876 -1.0364  0.8238  1.4296
  964MOL0     H30093  11.076   3.923   5.739  0.0491  0.7060 -0.4444
  964MOL0     H30094  10.869   3.950   5.886 -1.0600  1.0976 -0.9167
  964MOL0     H30095  10.973   4.033   6.005 -1.2376 -1.6110 -0.2843
  964MOL0     H30096  10.946   4.114   5.703 -0.7581 -3.2289 -0.0172
  964MOL0     H30097  11.035   4.195   5.834 -1.0326  0.9729 -1.7411
  964MOL0     H30098  10.839   4.246   5.959  0.3034  2.7779 -0.9109
  964MOL0     H30099  10.737   4.161   5.827 -0.1415  2.1724 -3.7494
  964MOL0     H30100  10.588   4.308   5.927  2.5116  1.4835  0.7464
  964MOL0     H30101  10.397   4.444   5.918  0.9738 -0.0379 -0.8250
  964MOL0     H30102  10.056   4.667   5.658 -4.2051  1.1930  0.1824
  964MOL0     H30103   9.871   4.807   5.574  0.8850 -4.2998 -0.2955
  964MOL0     H30104   9.734   4.980   5.509  1.3464 -0.8311 -1.0732
  964MOL0     H30105   9.802   5.109   5.602 -0.0284 -0.4042 -0.0581
  964MOL0     H30106   9.737   5.147   5.301  1.7938  2.1873 -1.1548
  964MOL0     H30107   9.628   5.182   5.427 -0.8130  0.7887  1.1827
  964MOL0     H30108   9.896   5.320   5.401  0.2880 -2.1851 -1.4165
  964MOL0     H30109   9.735   5.381   5.344 -0.9853 -2.0342 -1.2845
  964MOL0     H30110   9.824   5.331   5.635  0.8597  0.4293  0.6853
  964MOL0     H30111   9.649   5.346   5.580  0.6658  0.2360  0.4431
  964MOL0     H30112   9.719   5.565   5.503 -0.1079 -2.7536 -1.3249
  964MOL0     H30113   9.889   5.536   5.556  0.0038 -0.4801 -0.8745
  964MOL0     H30114   9.630   5.561   5.724  0.3508 -2.3640 -1.6127
  964MOL0     H30115   9.775   5.494   5.788  0.4609 -1.0578  0.1259
  964MOL0     H30116   9.766   5.713   5.867 -1.8608  3.5059  0.1576
  964MOL0     H30117   9.691   5.782   5.729 -2.4528 -0.8138 -0.6737
  964MOL0     H30118   9.983   5.677   5.743  1.4577 -0.3933 -3.0669
  964MOL0     H30119   9.903   5.763   5.606 -3.3216 -0.4473  0.3653
  964MOL0     H30120  10.153   5.056   5.370  0.4850 -0.0002 -1.4430
  964MOL0     H30121  10.330   4.919   5.441  1.3779 -0.8744  1.2878
  964MOL0     H30122  10.549   4.634   5.570 -0.6333 -0.1601  0.3047
  964MOL0     H30123  10.760   4.490   5.580  3.8872 -1.5278  3.0527
  964MOL0     H30124  11.013   2.500   5.731 -0.6773  1.1005  0.4962
  964MOL0     H30125  11.167   2.431   5.544  0.2028 -0.1334 -0.3077
  964MOL0     H30126  11.427   2.552   5.197  2.3082 -1.5838 -1.2393
  964MOL0     H30127  11.587   2.576   5.000  1.9301 -4.3859 -3.3715
  964MOL0     H30128  11.396   2.560   4.580  2.9413  3.2187 -2.1316
  964MOL0     H30129  11.447   2.401   4.643 -2.0956 -0.2648 -3.2844
  964MOL0     H30130  11.672   2.589   4.555  2.1488 -1.4319 -0.5878
  964MOL0     H30131  11.556   2.526   4.429 -1.2458 -1.5057  0.0610
  964MOL0     H30132  11.763   2.385   4.470 -2.8833  0.9276 -2.5188
  964MOL0     H30133  11.612   2.295   4.508 -0.0866  0.0687  1.6502
  964MOL0     H30134  11.790   2.445   4.716  1.6653 -0.6733 -1.1572
  964MOL0     H30135  11.689   2.304   4.748 -2.6105  1.0762 -1.1736
  964MOL0     H30136  12.095   2.187   4.640  1.3826  0.7374  3.1217
  964MOL0     H30137  11.258   2.517   4.737  0.3318 -0.6134 -0.5872
  964MOL0     H30138  11.042   2.374   4.944 -0.6975  0.2391 -0.7742
  964MOL0     H30139  10.988   2.537   4.968  2.2486  1.9354  1.2384
  964MOL0     H30140  11.040   2.486   4.810 -0.6171 -1.1075  0.6468
  965MOL0     O30141  10.093  11.162   2.641  0.3991 -0.3569  0.2622
  965MOL0     C30142   9.979  11.187   2.669 -0.7120 -0.0054 -0.3195
  965MOL0     O30143   9.938  11.242   2.780 -0.5001  0.0681  0.0018
  965MOL0     C30144  10.011  11.344   2.838 -0.8422 -0.3711  0.6394
  965MOL0     C30145  10.018  11.467   2.771  0.7989  0.2660 -0.5131
  965MOL0     C30146  10.105  11.569   2.812 -0.8519 -0.9261 -0.7712
  965MOL0     C30147  10.174  11.556   2.936  0.7139 -0.3045  0.3676
  965MOL0     O30148  10.244  11.660   2.996 -0.0302  0.7759 -0.6801
  965MOL0     C30149  10.183  11.788   2.973  0.4571 -0.4676  0.8493
  965MOL0     C30150  10.265  11.894   3.053 -0.0090 -0.7260 -0.8128
  965MOL0     C30151  10.172  12.016   3.092  0.1183 -0.5415 -0.5003
  965MOL0     C30152  10.102  11.987   3.221  0.0441  0.2729  0.2635
  965MOL0     C30153   9.984  12.091   3.249  0.5864 -0.2139 -0.2913
  965MOL0     C30154   9.895  12.036   3.360  0.7516 -0.7660  0.5023
  965MOL0     C30155   9.768  12.127   3.376 -0.4814  1.1298 -0.0215
  965MOL0     C30156   9.681  12.088   3.484 -0.5318 -0.1811 -0.1135
  965MOL0     N30157   9.743  12.084   3.617 -0.5305 -0.0047  0.6672
  965MOL0     C30158   9.807  12.192   3.672  0.2436 -0.1148 -0.6815
  965MOL0     C30159   9.819  12.151   3.801  0.3747 -0.1326  1.0581
  965MOL0     C30160   9.867  12.244   3.901 -1.2233  0.5583  0.1111
  965MOL0     C30161   9.744  12.286   3.988 -0.2809 -0.1877  0.0136
  965MOL0     C30162   9.698  12.180   4.094 -0.7402  0.4420  0.3444
  965MOL0     C30163   9.811  12.119   4.181 -0.2765  0.9102  0.6433
  965MOL0     O30164   9.892  12.220   4.245 -0.6640  0.3964 -0.1516
  965MOL0     C30165  10.001  12.168   4.306  0.2947  0.0674  0.2141
  965MOL0     C30166  10.041  12.222   4.428  0.6648 -0.0971 -0.6538
  965MOL0     C30167  10.164  12.200   4.478  0.0717 -0.3589 -0.5529
  965MOL0     C30168  10.259  12.135   4.405 -0.5860 -0.4495  0.0382
  965MOL0     C30169  10.405  12.132   4.436 -0.2727  0.0955  0.4514
  965MOL0     O30170  10.481  12.058   4.352 -0.8999 -0.1004  0.5816
  965MOL0     C30171  10.618  12.052   4.381 -0.8433 -0.5111  0.1532
  965MOL0     C30172  10.706  12.159   4.357 -0.9674  0.0058 -0.1492
  965MOL0     C30173  10.841  12.152   4.391  1.4465  0.5020  0.1167
  965MOL0     C30174  10.887  12.035   4.451 -0.7677 -0.7958  0.1440
  965MOL0     O30175  11.027  12.020   4.475 -0.5926  0.1232  0.5814
  965MOL0     C30176  11.068  11.964   4.595 -0.3148  0.0526 -0.1640
  965MOL0     C30177  11.215  11.915   4.607 -0.0206 -1.1382 -1.2549
  965MOL0     C30178  11.222  11.776   4.540 -0.2924  0.3267  0.4965
  965MOL0     C30179  11.365  11.712   4.544  0.1078  0.6067  0.8947
  965MOL0     C30180  11.369  11.559   4.579 -1.1969 -0.5111 -0.8208
  965MOL0     C30181  11.381  11.536   4.727 -1.1207  0.5573 -0.8771
  965MOL0     C30182  11.382  11.388   4.769 -0.3014  0.6689 -0.7764
  965MOL0     C30183  11.492  11.319   4.847  0.0561 -0.2489  0.1683
  965MOL0    Cl30184  11.646  11.332   4.746 -0.1749 -0.1032 -0.4997
  965MOL0     C30185  10.803  11.939   4.480  0.6962  0.6250  0.5243
  965MOL0     C30186  10.666  11.941   4.449 -0.6847 -0.2291  0.3345
  965MOL0     O30187  10.444  12.189   4.539 -1.1781  0.4016  0.5794
  965MOL0     C30188  10.217  12.083   4.284 -0.3424 -0.0401 -0.9453
  965MOL0     C30189  10.097  12.094   4.231 -0.0202 -0.4099  0.7159
  965MOL0     N30190   9.793  12.016   3.806  0.2904  0.1280 -1.3556
  965MOL0     N30191   9.747  11.972   3.697  0.1221  0.1490 -0.4491
  965MOL0     C30192  10.168  11.439   3.000 -0.6773 -0.0831 -0.2307
  965MOL0     C30193  10.098  11.330   2.950  0.0298 -0.0487  0.1195
  965MOL0     C30194   9.874  11.129   2.585 -0.5642  0.1022 -0.2307
  965MOL0     C30195   9.760  11.207   2.567 -0.1160 -0.2620 -0.1486
  965MOL0     C30196   9.666  11.161   2.482  1.0431  0.6054 -0.2500
  965MOL0     C30197   9.675  11.037   2.423 -0.3567  0.2407  0.0460
  965MOL0     O30198   9.576  11.011   2.329  0.1845 -0.0807  0.2915
  965MOL0     C30199   9.582  10.893   2.252  0.4863  1.2998 -0.8553
  965MOL0     C30200   9.476  10.887   2.142 -0.2662 -0.9128 -0.1969
  965MOL0     C30201   9.334  10.912   2.205 -0.4937  0.2049  0.0832
  965MOL0     C30202   9.281  11.059   2.195  0.6513 -0.7290 -0.0380
  965MOL0     C30203   9.279  11.100   2.060 -0.7985 -0.2664 -0.0141
  965MOL0     C30204   9.259  11.151   1.947 -1.3716 -0.5447 -0.4028
  965MOL0     C30205   9.785  10.961   2.441 -0.1604  0.0963  0.4096
  965MOL0     C30206   9.895  10.998   2.517  0.2309  0.0371  0.3623
  965MOL0     C30207  10.011  10.904   2.534 -1.1613 -0.3131 -0.0482
  965MOL0     H30208   9.958  11.484   2.683 -0.1350  2.1999  0.4447
  965MOL0     H30209  10.115  11.662   2.758  0.7849  1.0731  2.6046
  965MOL0     H30210  10.192  11.817   2.867  2.1775 -0.5843  0.9313
  965MOL0     H30211  10.076  11.785   2.995  0.0099  0.0705 -1.0406
  965MOL0     H30212  10.353  11.924   2.994 -0.9923 -2.0890 -3.0815
  965MOL0     H30213  10.300  11.839   3.141 -0.7766 -1.3043 -0.8594
  965MOL0     H30214  10.099  12.033   3.012 -1.0979 -0.4351  0.6017
  965MOL0     H30215  10.232  12.107   3.098 -4.4207  3.0242 -2.7650
  965MOL0     H30216  10.056  11.887   3.220  0.9967 -0.2074  1.5759
  965MOL0     H30217  10.178  11.993   3.299  1.4499 -0.3081 -1.0309
  965MOL0     H30218  10.003  12.197   3.269 -1.7230  0.0361  0.9133
  965MOL0     H30219   9.930  12.091   3.154 -4.2999 -0.4376  2.1762
  965MOL0     H30220   9.862  11.936   3.330 -0.9956  0.0593 -0.4282
  965MOL0     H30221   9.951  12.037   3.454  1.1039  3.7106  0.4590
  965MOL0     H30222   9.723  12.116   3.276 -0.0941 -1.3209 -0.0057
  965MOL0     H30223   9.798  12.230   3.396  2.4367 -0.1532  3.2557
  965MOL0     H30224   9.586  12.143   3.495  0.0189  0.2188  5.9646
  965MOL0     H30225   9.661  11.986   3.449 -1.1404 -0.1981  0.2667
  965MOL0     H30226   9.823  12.293   3.639 -1.0030  0.7963  1.2770
  965MOL0     H30227   9.939  12.190   3.963  0.2110 -0.4524 -2.2800
  965MOL0     H30228   9.913  12.336   3.864 -3.9045  1.7408 -0.5339
  965MOL0     H30229   9.772  12.378   4.040  1.1639 -0.1610 -0.7572
  965MOL0     H30230   9.661  12.318   3.925 -1.0587  0.4624  1.3297
  965MOL0     H30231   9.650  12.094   4.047 -0.7331 -0.1302  1.3519
  965MOL0     H30232   9.633  12.217   4.174  1.0765  0.3714  1.9270
  965MOL0     H30233   9.866  12.050   4.117 -1.5285  1.0885 -0.6786
  965MOL0     H30234   9.755  12.054   4.249  0.2057  0.7041  0.8506
  965MOL0     H30235   9.969  12.286   4.479  2.2728  0.0205  1.6135
  965MOL0     H30236  10.187  12.230   4.579 -1.2412  3.1569 -1.1525
  965MOL0     H30237  10.680  12.256   4.315  2.7099  1.2356  0.0177
  965MOL0     H30238  10.910  12.235   4.378  0.5202  1.4272  0.9060
  965MOL0     H30239  11.046  12.038   4.673 -1.7993  0.9939 -1.4132
  965MOL0     H30240  11.006  11.878   4.623 -0.9281  0.5765  0.1187
  965MOL0     H30241  11.276  11.991   4.558 -0.0981 -0.3261 -0.1293
  965MOL0     H30242  11.245  11.896   4.710 -2.1433  0.4626 -0.2752
  965MOL0     H30243  11.148  11.713   4.588 -0.0597  2.0246  3.3109
  965MOL0     H30244  11.180  11.779   4.439  0.8996 -0.4525 -0.0422
  965MOL0     H30245  11.439  11.754   4.613  0.8287  0.0745  0.4665
  965MOL0     H30246  11.404  11.727   4.443 -1.4108  1.9965  0.4687
  965MOL0     H30247  11.456  11.516   4.529  1.7522  2.3372  1.3655
  965MOL0     H30248  11.276  11.517   4.541 -1.5846  2.0877 -2.9975
  965MOL0     H30249  11.482  11.569   4.754 -0.5886 -2.4854  1.5467
  965MOL0     H30250  11.307  11.589   4.787 -1.5963 -1.9665  0.9760
  965MOL0     H30251  11.346  11.326   4.686 -0.4727  0.7492 -0.7614
  965MOL0     H30252  11.305  11.383   4.847  1.3547  0.5155  0.9287
  965MOL0     H30253  11.500  11.367   4.944 -0.5348 -0.3145  0.2495
  965MOL0     H30254  11.462  11.215   4.865 -1.7297  0.3410  0.7383
  965MOL0     H30255  10.844  11.852   4.531  2.1736  1.7052  1.2388
  965MOL0     H30256  10.609  11.854   4.479  0.5603 -1.5953 -1.0531
  965MOL0     H30257  10.293  12.033   4.225 -0.8964  0.0602 -1.7585
  965MOL0     H30258  10.077  12.053   4.133  2.3085 -1.1593  0.4989
  965MOL0     H30259  10.223  11.438   3.094  1.1463 -2.7529 -1.1984
  965MOL0     H30260  10.083  11.245   3.015  1.8904  1.0648  2.1840
  965MOL0     H30261   9.745  11.297   2.626  0.9555  2.2510 -3.4306
  965MOL0     H30262   9.592  11.240   2.466  1.6972  0.8988 -2.0894
  965MOL0     H30263   9.566  10.804   2.313 -0.8191  1.8684 -0.3345
  965MOL0     H30264   9.676  10.878   2.198  0.3065 -0.8993 -0.6570
  965MOL0     H30265   9.468  10.790   2.092 -1.5965  0.0314 -1.8764
  965MOL0     H30266   9.498  10.965   2.069 -2.5610 -1.7904 -1.9311
  965MOL0     H30267   9.326  10.893   2.313 -3.2819 -0.2587 -0.1319
  965MOL0     H30268   9.255  10.865   2.147  1.0445  0.8428 -2.6924
  965MOL0     H30269   9.179  11.075   2.232  0.6493  4.0862 -1.4143
  965MOL0     H30270   9.328  11.135   2.259 -1.2566  0.8649 -0.4180
  965MOL0     H30271   9.236  11.203   1.856 -0.7725 -2.4500 -1.6997
  965MOL0     H30272   9.784  10.861   2.398 -1.0861  0.4134 -0.3343
  965MOL0     H30273  10.016  10.868   2.637 -1.9319  0.4123  0.2554
  965MOL0     H30274  10.011  10.825   2.460 -0.3683  1.5373 -2.1447
  965MOL0     H30275  10.110  10.950   2.524 -3.2268  4.6613 -0.7539
  966MOL0     O30276   3.204   4.141   7.676  0.1798 -0.4209 -0.4776
  966MOL0     C30277   3.139   4.043   7.702 -0.2086  0.9734 -0.2110
  966MOL0     O30278   3.191   3.918   7.732 -0.9000 -0.0398  0.5657
  966MOL0     C30279   3.329   3.909   7.749 -0.7266  0.2392 -0.3600
  966MOL0     C30280   3.407   3.995   7.827 -0.2876  0.2907 -0.8600
  966MOL0     C30281   3.541   3.977   7.843 -0.0180 -0.0727 -0.5429
  966MOL0     C30282   3.606   3.873   7.779 -0.2750 -0.8100  0.0073
  966MOL0     O30283   3.746   3.894   7.782  0.0784  0.1624  1.2584
  966MOL0     C30284   3.825   3.804   7.699  0.2051  0.6081 -0.1342
  966MOL0     C30285   3.969   3.828   7.734 -0.0592  0.5507 -0.5114
  966MOL0     C30286   4.014   3.971   7.691 -0.8352  0.1478  0.3644
  966MOL0     C30287   4.045   3.986   7.540 -0.4195  0.1454  0.1567
  966MOL0     C30288   4.070   4.131   7.507  0.3326 -0.0068  0.3712
  966MOL0     C30289   4.121   4.156   7.363 -0.7551 -0.1823  0.1978
  966MOL0     C30290   4.093   4.304   7.333  0.3850 -0.5183  0.5766
  966MOL0     C30291   4.167   4.357   7.206 -0.1259  0.2023 -0.0162
  966MOL0     N30292   4.309   4.362   7.205 -0.3085  0.4165 -0.9640
  966MOL0     C30293   4.396   4.269   7.161  0.4445 -0.0713 -0.4360
  966MOL0     C30294   4.527   4.333   7.157 -0.9029 -0.2012  0.4481
  966MOL0     C30295   4.651   4.281   7.104 -0.9570  0.9014  0.7126
  966MOL0     C30296   4.713   4.171   7.193 -1.0653 -0.2112 -0.2446
  966MOL0     C30297   4.747   4.245   7.326  0.8260 -0.8635  0.6239
  966MOL0     C30298   4.779   4.151   7.438  0.6963 -0.3099  0.8588
  966MOL0     O30299   4.662   4.070   7.465 -0.1208  0.4597 -0.4303
  966MOL0     C30300   4.657   4.001   7.583 -0.5985 -0.4409 -0.2700
  966MOL0     C30301   4.763   3.924   7.633 -0.3152  0.2179 -1.6637
  966MOL0     C30302   4.760   3.853   7.760  0.0373  0.2691 -0.3992
  966MOL0     C30303   4.633   3.843   7.820  0.5996  1.1443  0.3829
  966MOL0     C30304   4.622   3.778   7.950  1.3342  0.0653  0.3234
  966MOL0     O30305   4.497   3.746   7.998 -0.0713  0.2216 -0.0745
  966MOL0     C30306   4.482   3.701   8.129  0.8289 -0.4712  0.2363
  966MOL0     C30307   4.504   3.568   8.167  0.0325 -0.0415 -0.2808
  966MOL0     C30308   4.493   3.525   8.303 -0.3960  0.7368  0.2881
  966MOL0     C30309   4.447   3.615   8.402 -0.0705  0.7718  0.8922
  966MOL0     O30310   4.420   3.570   8.530 -0.6108  0.1032  0.2294
  966MOL0     C30311   4.376   3.435   8.542  0.4333  0.3963  0.0897
  966MOL0     C30312   4.360   3.402   8.688 -0.5863  0.2586 -0.4361
  966MOL0     C30313   4.260   3.497   8.767  0.2597 -0.0895 -0.2997
  966MOL0     C30314   4.134   3.416   8.804 -0.2619 -0.1313 -0.3650
  966MOL0     C30315   4.049   3.479   8.907 -0.5928 -0.0165  0.0390
  966MOL0     C30316   3.933   3.555   8.837  0.4770  0.1590 -0.2435
  966MOL0     C30317   3.873   3.646   8.940  1.0548 -0.1546 -0.2019
  966MOL0     C30318   3.740   3.707   8.901  0.3016 -0.8294  0.9767
  966MOL0    Cl30319   3.621   3.587   8.856  0.0072 -0.2072  0.0672
  966MOL0     C30320   4.410   3.749   8.353  0.7645 -0.1024  0.2867
  966MOL0     C30321   4.424   3.785   8.223 -0.0127 -0.1463  0.5414
  966MOL0     O30322   4.723   3.755   8.011 -0.3042  0.3448  0.9187
  966MOL0     C30323   4.524   3.917   7.765  0.0821  0.1242  1.1846
  966MOL0     C30324   4.535   3.984   7.641  0.8518  0.2063  0.1053
  966MOL0     N30325   4.504   4.463   7.198 -0.3577  0.4807  0.5085
  966MOL0     N30326   4.383   4.478   7.224  0.0336 -0.5214 -0.0399
  966MOL0     C30327   3.535   3.788   7.697  0.0868  0.3260 -0.3190
  966MOL0     C30328   3.398   3.798   7.694 -1.0622  0.2734  0.1389
  966MOL0     C30329   2.990   4.058   7.688  0.0741  1.1796  0.6856
  966MOL0     C30330   2.919   3.933   7.692 -1.2577  0.1231  0.3608
  966MOL0     C30331   2.779   3.915   7.690  0.5429 -0.8300 -0.5851
  966MOL0     C30332   2.701   4.035   7.693 -0.0440  0.2977  0.1302
  966MOL0     O30333   2.571   4.035   7.717 -0.1659 -0.6692  0.2648
  966MOL0     C30334   2.486   3.947   7.639  0.3206  0.2706 -0.9107
  966MOL0     C30335   2.372   4.027   7.569 -0.2942 -0.2998 -0.3594
  966MOL0     C30336   2.288   4.095   7.675 -0.2638  0.7089 -0.3877
  966MOL0     C30337   2.175   4.011   7.734 -0.4001 -0.6195 -0.0682
  966MOL0     C30338   2.088   3.932   7.642 -0.4533  0.2134 -0.1931
  966MOL0     C30339   2.024   3.857   7.576  0.2332 -0.0529  0.0640
  966MOL0     C30340   2.763   4.156   7.687  0.4147  0.1806 -0.2329
  966MOL0     C30341   2.900   4.173   7.687 -1.2103  0.3611  0.4340
  966MOL0     C30342   2.951   4.316   7.696  0.6606  0.6314 -0.9394
  966MOL0     H30343   3.345   4.066   7.879 -0.0192  0.8655 -1.3112
  966MOL0     H30344   3.604   4.045   7.899  0.1577  0.9718 -1.9685
  966MOL0     H30345   3.805   3.698   7.715 -1.1219  0.5898 -1.6838
  966MOL0     H30346   3.800   3.831   7.596  2.1997  2.3226 -0.2457
  966MOL0     H30347   4.028   3.754   7.681  1.5982  1.2671  0.2757
  966MOL0     H30348   3.991   3.800   7.838  0.0664  2.2026 -0.0535
  966MOL0     H30349   4.109   3.997   7.740 -2.8222  3.1516  2.9927
  966MOL0     H30350   3.946   4.043   7.736 -0.2735  0.8481  0.1146
  966MOL0     H30351   4.123   3.916   7.513 -1.4823 -0.7919 -0.5457
  966MOL0     H30352   3.956   3.961   7.481 -0.8690  1.4361  0.2427
  966MOL0     H30353   3.985   4.196   7.532  1.4021  1.0338  1.4624
  966MOL0     H30354   4.162   4.150   7.562  0.6256 -0.2004 -0.0521
  966MOL0     H30355   4.229   4.138   7.358 -0.0058  3.7396 -1.3771
  966MOL0     H30356   4.077   4.092   7.285  1.4106 -1.8027  0.2199
  966MOL0     H30357   4.112   4.358   7.427  1.2064 -2.1537  1.4057
  966MOL0     H30358   3.986   4.321   7.324  0.3138 -0.4073  1.5012
  966MOL0     H30359   4.135   4.311   7.112 -1.0177 -1.6763  1.1582
  966MOL0     H30360   4.130   4.460   7.211 -2.2051 -0.5371  1.2787
  966MOL0     H30361   4.373   4.165   7.140 -1.8340 -0.3164  2.6380
  966MOL0     H30362   4.604   4.241   7.014 -2.3173  2.4078  0.7196
  966MOL0     H30363   4.726   4.357   7.082  0.3040 -0.7385 -0.9809
  966MOL0     H30364   4.635   4.098   7.218  2.4807 -3.3138  3.1467
  966MOL0     H30365   4.806   4.127   7.154  0.3291  1.8836  0.5790
  966MOL0     H30366   4.680   4.328   7.350 -0.9123 -1.9713 -0.2341
  966MOL0     H30367   4.840   4.295   7.299  0.0786 -1.0494 -2.6392
  966MOL0     H30368   4.793   4.205   7.532 -0.8675 -0.5668  1.2727
  966MOL0     H30369   4.873   4.100   7.416 -1.2998 -3.3349 -1.5915
  966MOL0     H30370   4.859   3.933   7.583 -0.8265  2.5460 -2.3445
  966MOL0     H30371   4.854   3.813   7.796  0.3660  0.2474 -1.2678
  966MOL0     H30372   4.530   3.487   8.099  0.5774 -0.2900  0.2180
  966MOL0     H30373   4.526   3.425   8.333  3.5225  0.7696 -2.9624
  966MOL0     H30374   4.280   3.438   8.489 -0.7144 -1.1589  1.9100
  966MOL0     H30375   4.436   3.359   8.491  1.8293  1.3694  0.2277
  966MOL0     H30376   4.337   3.296   8.702 -2.1713 -0.0268 -4.0078
  966MOL0     H30377   4.457   3.425   8.732 -1.8022  4.1042  0.5648
  966MOL0     H30378   4.306   3.543   8.855 -0.6412  1.8589 -0.7878
  966MOL0     H30379   4.222   3.575   8.700  1.1013 -0.7742 -1.6303
  966MOL0     H30380   4.162   3.315   8.836  0.0661 -0.2394 -0.9703
  966MOL0     H30381   4.086   3.387   8.710 -0.5995  3.3138 -1.3908
  966MOL0     H30382   4.111   3.534   8.978  2.1532 -1.4866 -1.0447
  966MOL0     H30383   4.005   3.401   8.970 -0.5835  0.5783  0.8046
  966MOL0     H30384   3.964   3.622   8.757 -0.0170  2.2550  1.2130
  966MOL0     H30385   3.859   3.478   8.814 -0.4135  0.8167  0.2941
  966MOL0     H30386   3.941   3.728   8.965  0.1821  0.7494 -0.7103
  966MOL0     H30387   3.850   3.589   9.031 -0.4873  0.8214  0.0569
  966MOL0     H30388   3.701   3.771   8.981  0.5876  0.7127 -0.0827
  966MOL0     H30389   3.756   3.766   8.811 -1.2689  0.0053  1.2186
  966MOL0     H30390   4.379   3.821   8.429  1.7128 -0.5357  1.1103
  966MOL0     H30391   4.386   3.883   8.197  1.9860  0.4009 -0.5753
  966MOL0     H30392   4.429   3.928   7.817 -0.3405 -1.7820  0.8932
  966MOL0     H30393   4.450   4.038   7.599  1.0576 -1.0934 -2.1008
  966MOL0     H30394   3.577   3.709   7.636 -1.4851 -0.3672 -0.5686
  966MOL0     H30395   3.352   3.725   7.628 -0.0781 -1.0753  0.8833
  966MOL0     H30396   2.975   3.840   7.694  1.5885  1.7041  1.9947
  966MOL0     H30397   2.729   3.819   7.697 -1.8714  0.3627 -0.7090
  966MOL0     H30398   2.442   3.870   7.703 -0.9938  3.1207  1.8967
  966MOL0     H30399   2.549   3.895   7.566  3.3725  1.5259  0.6577
  966MOL0     H30400   2.306   3.965   7.508  0.3738  0.6166 -2.0530
  966MOL0     H30401   2.406   4.102   7.498 -3.0368 -0.9380 -2.5177
  966MOL0     H30402   2.246   4.187   7.633  0.4461  1.7715  1.1315
  966MOL0     H30403   2.344   4.119   7.766 -0.1629  3.0959 -1.0326
  966MOL0     H30404   2.219   3.944   7.808 -3.0220 -0.7039  1.5416
  966MOL0     H30405   2.111   4.081   7.789  1.6060  0.4765  0.9549
  966MOL0     H30406   1.956   3.797   7.520 -0.8093  3.1417 -2.4118
  966MOL0     H30407   2.703   4.246   7.681  0.9797  0.6660  1.1177
  966MOL0     H30408   3.021   4.323   7.779  0.7075 -1.3338 -0.7851
  966MOL0     H30409   3.002   4.347   7.604 -1.0825 -0.2641 -2.2610
  966MOL0     H30410   2.868   4.385   7.712 -0.2664 -0.4080 -1.1422
  967MOL0     O30411   7.385   4.268   2.719 -0.5400  1.0390 -0.1106
  967MOL0     C30412   7.505   4.259   2.713 -0.8313 -0.6258 -0.1166
  967MOL0     O30413   7.582   4.277   2.597  0.4581  0.2874  0.1680
  967MOL0     C30414   7.524   4.287   2.480  0.4356  0.2711 -0.1543
  967MOL0     C30415   7.512   4.408   2.403 -0.1307  0.2513  0.0813
  967MOL0     C30416   7.445   4.404   2.281  0.5503 -0.8259  0.2392
  967MOL0     C30417   7.404   4.282   2.225  0.4681 -0.1099 -0.6496
  967MOL0     O30418   7.360   4.268   2.096  0.1490 -0.3055 -0.5833
  967MOL0     C30419   7.356   4.387   2.018  0.3700  0.0271  0.1751
  967MOL0     C30420   7.486   4.378   1.926  0.1874  0.3550  0.7932
  967MOL0     C30421   7.501   4.252   1.848 -0.5362 -0.5103  0.2922
  967MOL0     C30422   7.605   4.277   1.734 -0.6103  0.2065 -0.0251
  967MOL0     C30423   7.632   4.146   1.662  0.6005 -0.9264 -0.2507
  967MOL0     C30424   7.774   4.143   1.603 -1.0449  0.1282  0.7872
  967MOL0     C30425   7.816   4.012   1.529  0.6097 -0.8567  0.3578
  967MOL0     C30426   7.816   3.896   1.625  0.3082 -0.8213  0.0367
  967MOL0     N30427   7.907   3.895   1.730 -0.4794 -0.2113 -0.2815
  967MOL0     C30428   7.871   3.906   1.865  0.7553  0.3266  0.1265
  967MOL0     C30429   7.981   3.901   1.938 -0.6218 -0.0812 -0.1232
  967MOL0     C30430   8.005   3.856   2.083 -0.0994 -0.4784  0.0478
  967MOL0     C30431   7.903   3.754   2.127  0.0178 -0.8567 -0.5244
  967MOL0     C30432   7.917   3.704   2.271  0.0204  1.9731 -0.4693
  967MOL0     C30433   8.030   3.588   2.283 -0.4518 -0.5432 -0.1427
  967MOL0     O30434   8.162   3.638   2.295  0.8153 -0.2758  0.0334
  967MOL0     C30435   8.176   3.701   2.416 -0.0717 -0.3535 -1.3095
  967MOL0     C30436   8.190   3.627   2.542  0.1633  0.0919 -0.5596
  967MOL0     C30437   8.197   3.694   2.662 -0.5507  0.3191 -1.1244
  967MOL0     C30438   8.216   3.831   2.672 -0.5120 -0.8845 -0.3444
  967MOL0     C30439   8.238   3.909   2.799 -0.4228  0.4288 -0.4150
  967MOL0     O30440   8.224   4.045   2.791  0.8032 -0.5207 -1.0543
  967MOL0     C30441   8.244   4.126   2.903 -0.4048 -0.0639 -0.2330
  967MOL0     C30442   8.352   4.119   2.991  0.1534 -1.5997  0.2217
  967MOL0     C30443   8.362   4.217   3.100  0.2060  1.1719 -0.1430
  967MOL0     C30444   8.261   4.315   3.108 -0.4309 -0.9871  0.2862
  967MOL0     O30445   8.242   4.411   3.201 -0.3198 -0.6009 -0.3086
  967MOL0     C30446   8.322   4.404   3.316 -0.1476 -0.0200 -0.6788
  967MOL0     C30447   8.461   4.471   3.303  0.3002  0.1667 -0.4817
  967MOL0     C30448   8.557   4.416   3.413 -0.7673  0.3097 -0.2574
  967MOL0     C30449   8.704   4.430   3.369 -0.2198 -0.3846  0.3580
  967MOL0     C30450   8.794   4.443   3.489 -0.3761 -0.3432  0.8158
  967MOL0     C30451   8.830   4.307   3.555 -0.5663  0.2948 -1.0168
  967MOL0     C30452   8.920   4.216   3.472  0.4913  0.3407  0.1813
  967MOL0     C30453   8.986   4.120   3.564 -0.5066 -0.6301  1.1276
  967MOL0    Cl30454   9.114   4.026   3.479 -0.6922 -0.1048  0.4257
  967MOL0     C30455   8.153   4.319   3.015  0.8489  0.0698 -0.2108
  967MOL0     C30456   8.149   4.222   2.924  1.0995  0.7156 -1.1619
  967MOL0     O30457   8.259   3.845   2.906 -0.2057 -0.6165  0.8748
  967MOL0     C30458   8.234   3.895   2.545 -0.0738 -0.3178 -1.6969
  967MOL0     C30459   8.195   3.836   2.427  0.6169  0.1112  0.4759
  967MOL0     N30460   8.089   3.898   1.847  0.0648  0.1019 -0.2819
  967MOL0     N30461   8.043   3.901   1.727  0.3513  0.1665 -0.1539
  967MOL0     C30462   7.432   4.160   2.291 -0.2054 -0.3876 -0.2760
  967MOL0     C30463   7.479   4.167   2.420 -0.7065  0.1287 -0.6122
  967MOL0     C30464   7.576   4.226   2.831 -0.5292  0.3743  0.1648
  967MOL0     C30465   7.696   4.299   2.856  0.1356  0.0665 -0.2093
  967MOL0     C30466   7.771   4.275   2.968  0.0591 -1.0427 -0.1440
  967MOL0     C30467   7.734   4.177   3.058 -0.3535 -0.2072 -0.4826
  967MOL0     O30468   7.797   4.163   3.174  0.0021 -0.7395 -0.5191
  967MOL0     C30469   7.780   4.275   3.261  0.3031  0.3000  0.7809
  967MOL0     C30470   7.876   4.254   3.382  0.4226  0.2025 -0.0500
  967MOL0     C30471   7.836   4.117   3.447 -0.2021 -1.4543  0.7265
  967MOL0     C30472   7.896   4.094   3.584  0.1772  0.3055  0.8653
  967MOL0     C30473   8.039   4.063   3.577 -0.6613  1.2350  0.1723
  967MOL0     C30474   8.154   4.022   3.584  0.0041 -0.5515  0.2710
  967MOL0     C30475   7.619   4.104   3.035  0.6157  0.1490 -0.4616
  967MOL0     C30476   7.544   4.124   2.920 -0.6237  0.7461 -0.7088
  967MOL0     C30477   7.431   4.020   2.912 -0.9464  0.8817 -0.2144
  967MOL0     H30478   7.543   4.504   2.442  2.6246  0.5675 -2.4788
  967MOL0     H30479   7.436   4.499   2.229 -1.0568 -2.1780 -2.0902
  967MOL0     H30480   7.273   4.368   1.949  1.2084  1.6606 -1.3853
  967MOL0     H30481   7.339   4.485   2.063 -1.2868 -0.4143  0.5815
  967MOL0     H30482   7.571   4.391   1.993 -1.2418  0.7028  2.6352
  967MOL0     H30483   7.475   4.462   1.857  0.5215 -1.4766 -1.6120
  967MOL0     H30484   7.402   4.225   1.811  0.6669 -0.9635 -2.8452
  967MOL0     H30485   7.525   4.171   1.917 -1.1984 -0.8483  0.1356
  967MOL0     H30486   7.555   4.349   1.669 -1.1516  0.9704  1.2020
  967MOL0     H30487   7.698   4.323   1.771 -1.7377  1.0251  1.9602
  967MOL0     H30488   7.620   4.061   1.730  0.7412 -1.5694 -1.0136
  967MOL0     H30489   7.553   4.129   1.588 -1.9898 -1.4722  2.4361
  967MOL0     H30490   7.782   4.220   1.526  0.1480 -1.3911 -0.6824
  967MOL0     H30491   7.851   4.171   1.676 -1.0968  1.6440  0.3041
  967MOL0     H30492   7.914   4.031   1.485  0.8762 -0.4997  1.0948
  967MOL0     H30493   7.748   4.003   1.444  2.0814 -4.9630 -0.5882
  967MOL0     H30494   7.719   3.883   1.675 -0.7483  1.0014 -1.4043
  967MOL0     H30495   7.852   3.809   1.569  0.3180 -0.2673 -0.8347
  967MOL0     H30496   7.771   3.911   1.907  1.6183  1.9777  2.1506
  967MOL0     H30497   8.107   3.816   2.082  0.1986  0.2031 -1.7886
  967MOL0     H30498   8.002   3.940   2.152  0.6752  1.4580 -2.1322
  967MOL0     H30499   7.804   3.799   2.114  0.4649  0.5454  0.7598
  967MOL0     H30500   7.909   3.673   2.053  2.4287 -2.0750  0.8836
  967MOL0     H30501   7.824   3.673   2.320 -0.4671  2.6585 -0.9424
  967MOL0     H30502   7.938   3.793   2.331 -1.7076  1.6293  0.7288
  967MOL0     H30503   8.013   3.527   2.194 -2.3908  1.0421 -0.9540
  967MOL0     H30504   8.009   3.521   2.367  1.9311  0.3069  1.2199
  967MOL0     H30505   8.207   3.520   2.549  1.0905  0.3206  0.8727
  967MOL0     H30506   8.201   3.634   2.752  0.3817  2.2128  0.1395
  967MOL0     H30507   8.420   4.035   2.988 -0.4944 -2.2172  1.9478
  967MOL0     H30508   8.441   4.212   3.174  2.4410  2.7452 -2.2593
  967MOL0     H30509   8.270   4.462   3.392  1.5233  0.2717  0.2887
  967MOL0     H30510   8.327   4.297   3.338 -0.0627 -1.3738 -5.9398
  967MOL0     H30511   8.498   4.442   3.205  0.1261 -0.4523 -0.3653
  967MOL0     H30512   8.451   4.580   3.310  1.5233  0.4215 -2.0536
  967MOL0     H30513   8.536   4.464   3.509  0.1946 -2.1760  1.2991
  967MOL0     H30514   8.541   4.310   3.435 -0.8302  0.6866  1.7297
  967MOL0     H30515   8.721   4.523   3.312 -0.1861 -0.8234 -0.3637
  967MOL0     H30516   8.730   4.344   3.307  1.7691 -0.7663  1.6402
  967MOL0     H30517   8.745   4.502   3.567 -1.0601  1.1815 -0.7130
  967MOL0     H30518   8.877   4.509   3.462  0.7772 -0.5792  3.4367
  967MOL0     H30519   8.883   4.336   3.646  0.4468 -2.2038 -0.7052
  967MOL0     H30520   8.735   4.255   3.573  1.5695 -3.2603  1.4959
  967MOL0     H30521   8.990   4.271   3.409  0.6386 -0.2013 -0.1450
  967MOL0     H30522   8.856   4.151   3.410  3.5196 -3.7483  0.9042
  967MOL0     H30523   9.036   4.170   3.647  2.5956 -0.0359 -0.9492
  967MOL0     H30524   8.913   4.047   3.600 -0.2888 -2.6144 -1.9844
  967MOL0     H30525   8.083   4.400   3.038  0.3512 -0.7737  1.4182
  967MOL0     H30526   8.056   4.219   2.868  2.7158 -0.0577 -3.9887
  967MOL0     H30527   8.249   4.003   2.541 -0.3170 -0.0694  1.5607
  967MOL0     H30528   8.182   3.894   2.336 -1.6916 -1.8929 -0.6052
  967MOL0     H30529   7.411   4.071   2.232  0.6257  0.5247 -2.0192
  967MOL0     H30530   7.491   4.077   2.480 -2.4604 -0.3876 -0.9992
  967MOL0     H30531   7.725   4.374   2.783  2.5347  0.5432  1.1463
  967MOL0     H30532   7.862   4.333   2.982  0.5193 -2.0508  1.3016
  967MOL0     H30533   7.679   4.288   3.299 -0.3338 -1.6225 -0.1130
  967MOL0     H30534   7.795   4.366   3.201  2.5195 -0.5672 -0.0930
  967MOL0     H30535   7.855   4.339   3.447 -1.6906  0.1005 -0.5221
  967MOL0     H30536   7.981   4.261   3.352  0.1462 -2.0397 -1.8407
  967MOL0     H30537   7.867   4.041   3.375  2.1149  1.1953 -1.3350
  967MOL0     H30538   7.727   4.114   3.461 -0.6199  0.8760 -1.3288
  967MOL0     H30539   7.878   4.173   3.657  1.6052 -0.1498  1.7566
  967MOL0     H30540   7.851   4.007   3.632  0.9088 -0.3946  0.3038
  967MOL0     H30541   8.255   3.987   3.589  0.1945 -0.0174  0.2462
  967MOL0     H30542   7.589   4.036   3.114 -0.2124  0.3289 -0.6154
  967MOL0     H30543   7.485   3.937   2.958 -0.1604  0.9538 -0.9654
  967MOL0     H30544   7.347   4.060   2.969 -1.3888  1.2493 -1.0942
  967MOL0     H30545   7.389   3.990   2.816 -3.9786 -1.3232  1.6469
  968MOL0     O30546  10.377   3.470   7.075 -0.0728  0.4489  0.0924
  968MOL0     C30547  10.278   3.527   7.112  0.6375  0.5229 -0.1624
  968MOL0     O30548  10.240   3.652   7.074 -0.0545  0.4354  0.1897
  968MOL0     C30549  10.335   3.721   7.004  1.3889  0.5532  0.8344
  968MOL0     C30550  10.457   3.755   7.063  1.0364  0.0932  0.9125
  968MOL0     C30551  10.542   3.827   6.979  0.5106  1.1633 -0.0834
  968MOL0     C30552  10.518   3.858   6.842  0.1915  0.4422 -1.0233
  968MOL0     O30553  10.609   3.908   6.756 -0.1838 -0.5615 -0.7566
  968MOL0     C30554  10.683   4.031   6.806  0.0099  0.2056 -0.6326
  968MOL0     C30555  10.590   4.146   6.840  0.1877 -0.9049 -0.9103
  968MOL0     C30556  10.655   4.271   6.897 -1.0569  0.4277 -0.2995
  968MOL0     C30557  10.716   4.246   7.040 -0.8923  0.2921 -0.1738
  968MOL0     C30558  10.771   4.378   7.095  0.0529 -1.3410  0.0333
  968MOL0     C30559  10.675   4.500   7.093  0.5324 -0.3711  1.0325
  968MOL0     C30560  10.737   4.612   7.160  0.0224  0.7387  0.0327
  968MOL0     C30561  10.639   4.729   7.169  0.2528  0.5065 -0.8972
  968MOL0     N30562  10.702   4.828   7.255  0.2790 -0.0332  0.1081
  968MOL0     C30563  10.673   4.959   7.246 -0.0122 -0.4859 -0.4233
  968MOL0     C30564  10.728   5.013   7.357  0.0870 -0.5032 -0.1619
  968MOL0     C30565  10.725   5.152   7.384 -0.4693  0.1648  0.2708
  968MOL0     C30566  10.862   5.209   7.426 -0.1487  0.2314 -0.1081
  968MOL0     C30567  10.879   5.353   7.440 -0.4922 -0.0515  0.6645
  968MOL0     C30568  10.774   5.420   7.532  0.6588 -0.2461 -0.5062
  968MOL0     O30569  10.771   5.557   7.508  0.3975 -0.0426 -1.0129
  968MOL0     C30570  10.659   5.627   7.556 -0.4906 -0.8372 -0.3374
  968MOL0     C30571  10.559   5.563   7.636 -0.1926  0.0203  0.6639
  968MOL0     C30572  10.434   5.627   7.668  0.4013  0.1847  0.0033
  968MOL0     C30573  10.419   5.762   7.629  0.2556 -0.9975  0.1823
  968MOL0     C30574  10.309   5.839   7.691 -0.9300  0.4334 -0.3991
  968MOL0     O30575  10.351   5.966   7.716  0.1055 -0.1161  0.4827
  968MOL0     C30576  10.283   6.064   7.777  0.1270 -0.2770  0.2072
  968MOL0     C30577  10.285   6.194   7.723 -0.2231 -0.4890 -0.3614
  968MOL0     C30578  10.224   6.307   7.789 -0.3410 -0.0672 -0.1357
  968MOL0     C30579  10.148   6.283   7.906  0.1987 -0.2411  0.1334
  968MOL0     O30580  10.102   6.393   7.973 -0.3189  0.6342 -0.1593
  968MOL0     C30581  10.096   6.378   8.116  0.5061 -0.2020 -0.6200
  968MOL0     C30582  10.124   6.502   8.191 -0.7928  0.6541 -0.0735
  968MOL0     C30583  10.015   6.603   8.174 -0.7993  0.2583  0.0724
  968MOL0     C30584  10.045   6.738   8.245 -0.7457  0.3849  0.3946
  968MOL0     C30585   9.940   6.843   8.210 -0.8701  0.0846 -0.2533
  968MOL0     C30586   9.837   6.855   8.317 -0.5029 -0.0221 -0.0929
  968MOL0     C30587   9.704   6.936   8.281 -0.0112  0.3798  0.1982
  968MOL0     C30588   9.649   6.966   8.417 -0.1391  0.5137  0.4489
  968MOL0    Cl30589   9.565   6.814   8.476  0.3215  0.1150 -0.0283
  968MOL0     C30590  10.128   6.155   7.949 -0.5489 -0.4132 -0.5815
  968MOL0     C30591  10.210   6.050   7.896 -0.3206 -0.7903 -0.8985
  968MOL0     O30592  10.198   5.797   7.716  0.6681  0.3809  0.2235
  968MOL0     C30593  10.525   5.821   7.557 -0.2848  0.4132 -0.5554
  968MOL0     C30594  10.638   5.758   7.519  0.6961 -0.1429  0.0546
  968MOL0     N30595  10.781   4.911   7.426 -0.1755  0.4404 -0.0039
  968MOL0     N30596  10.775   4.801   7.363 -0.8469 -0.3622 -1.1075
  968MOL0     C30597  10.393   3.817   6.793 -1.0593 -0.7393  0.3745
  968MOL0     C30598  10.299   3.765   6.877  0.0251  0.9053  0.3598
  968MOL0     C30599  10.190   3.469   7.225  0.0409  0.4783  1.1297
  968MOL0     C30600  10.092   3.549   7.290 -0.7192 -0.5015  0.8216
  968MOL0     C30601  10.020   3.496   7.396  0.6246 -1.6027 -0.0157
  968MOL0     C30602  10.035   3.375   7.448 -0.3466  0.3015 -0.5930
  968MOL0     O30603   9.957   3.335   7.554 -0.5607 -0.1892 -0.2606
  968MOL0     C30604   9.951   3.202   7.595 -1.1023 -0.0726 -0.5492
  968MOL0     C30605   9.858   3.191   7.720 -0.6529 -0.2068  1.4259
  968MOL0     C30606   9.873   3.308   7.814 -0.1099 -0.2723 -0.3520
  968MOL0     C30607   9.788   3.290   7.942 -0.5116  1.3502  0.5044
  968MOL0     C30608   9.776   3.406   8.023  0.1621 -0.3404 -0.3513
  968MOL0     C30609   9.764   3.493   8.106 -0.2840 -0.1630  1.4823
  968MOL0     C30610  10.138   3.292   7.396 -0.0707 -0.5403  0.5956
  968MOL0     C30611  10.209   3.339   7.280  0.9699 -0.2500 -1.0059
  968MOL0     C30612  10.308   3.241   7.238  0.8516  0.7752 -0.6133
  968MOL0     H30613  10.490   3.723   7.161 -0.4346 -1.9071  0.8096
  968MOL0     H30614  10.632   3.863   7.029  0.1901  1.4949  0.2613
  968MOL0     H30615  10.743   3.992   6.889 -0.9874 -3.0651 -1.2975
  968MOL0     H30616  10.749   4.056   6.722  0.4050  2.0675  0.1703
  968MOL0     H30617  10.507   4.131   6.910  0.4385  2.6199  0.3256
  968MOL0     H30618  10.540   4.178   6.748 -1.7903 -1.6196 -0.1336
  968MOL0     H30619  10.584   4.353   6.893 -1.9300  0.0184  3.3512
  968MOL0     H30620  10.744   4.300   6.840 -2.0956  1.9123 -1.2185
  968MOL0     H30621  10.652   4.206   7.119 -1.6531 -0.6575 -1.2447
  968MOL0     H30622  10.805   4.182   7.035 -0.2127  1.3108 -1.6845
  968MOL0     H30623  10.795   4.367   7.201 -0.7234 -1.2746  0.2220
  968MOL0     H30624  10.862   4.404   7.040 -1.7325  2.2757 -1.4928
  968MOL0     H30625  10.658   4.523   6.988  2.2591 -1.6829  0.4192
  968MOL0     H30626  10.581   4.467   7.139 -0.2853  0.6879  0.1680
  968MOL0     H30627  10.827   4.646   7.107 -0.5186  2.3663  0.1167
  968MOL0     H30628  10.767   4.574   7.258 -0.9333  5.1654  2.2720
  968MOL0     H30629  10.609   4.765   7.070 -3.6949  0.7529  0.2133
  968MOL0     H30630  10.552   4.692   7.224  1.5510  1.9146  2.3340
  968MOL0     H30631  10.609   4.997   7.167 -1.0349  1.2639  1.1519
  968MOL0     H30632  10.702   5.212   7.295  2.1515  0.7213 -0.1431
  968MOL0     H30633  10.651   5.162   7.464 -0.9158 -1.3351  0.0665
  968MOL0     H30634  10.888   5.162   7.521  0.2849 -1.0198 -0.8131
  968MOL0     H30635  10.930   5.171   7.349 -0.5161  0.0980 -0.3687
  968MOL0     H30636  10.891   5.396   7.341  1.3071  0.2498  0.9795
  968MOL0     H30637  10.982   5.374   7.472 -0.2135 -0.1742 -0.1412
  968MOL0     H30638  10.796   5.387   7.634 -0.9329 -1.6366 -0.5456
  968MOL0     H30639  10.675   5.384   7.500 -0.3183  2.0408 -0.2280
  968MOL0     H30640  10.576   5.463   7.674 -2.3973 -0.9977 -0.8602
  968MOL0     H30641  10.363   5.575   7.732 -0.1946  0.2600 -0.5888
  968MOL0     H30642  10.342   6.212   7.633  0.0368  0.5725 -0.0017
  968MOL0     H30643  10.239   6.412   7.766 -0.4475  0.1635  0.7883
  968MOL0     H30644  10.004   6.336   8.158  2.1944 -1.2991  2.2886
  968MOL0     H30645  10.176   6.307   8.139  1.2982  1.1229  0.8746
  968MOL0     H30646  10.133   6.479   8.297  0.4722  0.9140 -0.1136
  968MOL0     H30647  10.219   6.548   8.163 -0.0005 -0.4272  0.7594
  968MOL0     H30648   9.993   6.623   8.068  0.6378  0.7835 -0.1465
  968MOL0     H30649   9.921   6.563   8.214  0.7601 -1.3378  2.3531
  968MOL0     H30650  10.146   6.772   8.222 -0.0668 -2.3283 -1.1393
  968MOL0     H30651  10.049   6.717   8.352 -0.7188  1.2465  0.5626
  968MOL0     H30652   9.892   6.827   8.113 -0.6279  0.2647 -0.4065
  968MOL0     H30653   9.992   6.940   8.207  1.2898 -0.9685  0.7663
  968MOL0     H30654   9.795   6.758   8.342 -2.2358  0.1573 -2.0412
  968MOL0     H30655   9.883   6.896   8.408  2.8491  0.7386 -1.9511
  968MOL0     H30656   9.624   6.882   8.229  0.9404  0.1106 -1.0268
  968MOL0     H30657   9.730   7.024   8.221  2.6587  1.7440  3.0906
  968MOL0     H30658   9.723   7.016   8.480 -0.6018  0.0903  1.3510
  968MOL0     H30659   9.567   7.039   8.418  0.0531  0.7314  0.6261
  968MOL0     H30660  10.071   6.140   8.040 -0.5320  1.4280 -0.2148
  968MOL0     H30661  10.208   5.955   7.949 -5.1130  0.1950  1.2617
  968MOL0     H30662  10.524   5.924   7.522 -0.7877  0.5419 -0.1647
  968MOL0     H30663  10.699   5.818   7.453 -1.6295  1.5312 -0.7453
  968MOL0     H30664  10.379   3.834   6.687  0.3413 -1.2414  0.0930
  968MOL0     H30665  10.208   3.729   6.831  1.1358 -1.3040 -0.2595
  968MOL0     H30666  10.068   3.648   7.252 -0.7953 -0.6149  0.5696
  968MOL0     H30667   9.967   3.566   7.460  1.3889  0.5284 -1.6099
  968MOL0     H30668  10.051   3.170   7.627  0.6741  4.0753 -1.3557
  968MOL0     H30669   9.920   3.134   7.515  2.0735  1.3722 -3.2672
  968MOL0     H30670   9.882   3.098   7.772 -0.9994 -1.3071 -0.3112
  968MOL0     H30671   9.751   3.189   7.700 -0.3064  1.1157 -0.9396
  968MOL0     H30672   9.838   3.397   7.760  1.5910 -0.2075 -1.4323
  968MOL0     H30673   9.976   3.331   7.841 -0.4040  1.9995 -0.9452
  968MOL0     H30674   9.691   3.270   7.896  1.6039 -3.9939 -2.4697
  968MOL0     H30675   9.818   3.198   7.993 -0.4905  0.7521 -0.5565
  968MOL0     H30676   9.736   3.581   8.159 -0.3978 -0.5899  2.1323
  968MOL0     H30677  10.170   3.202   7.447  0.6834 -1.2308 -0.9959
  968MOL0     H30678  10.265   3.141   7.251  1.2083  0.5505 -1.1574
  968MOL0     H30679  10.334   3.249   7.132  1.7889 -1.3755 -0.5967
  968MOL0     H30680  10.395   3.248   7.304  0.2474  0.8318  0.2024
  969MOL0     O30681   8.281   5.536   4.844  0.2176  0.4629 -0.1245
  969MOL0     C30682   8.236   5.580   4.737 -0.7260 -0.0555 -0.3739
  969MOL0     O30683   8.105   5.578   4.707  0.0562 -1.1248 -0.0268
  969MOL0     C30684   8.004   5.535   4.780  0.8728  0.0402 -1.5393
  969MOL0     C30685   7.913   5.452   4.724  1.2856 -0.0717  0.4996
  969MOL0     C30686   7.815   5.375   4.791  0.2968 -0.7813 -0.1425
  969MOL0     C30687   7.803   5.393   4.934 -0.0031 -0.4185  0.2057
  969MOL0     O30688   7.712   5.327   5.010  0.6903  0.2935 -0.4358
  969MOL0     C30689   7.632   5.416   5.083 -0.0997 -0.3517 -0.6285
  969MOL0     C30690   7.661   5.397   5.228 -0.5865 -0.7383 -0.2745
  969MOL0     C30691   7.551   5.450   5.330 -0.1710 -0.3941  0.2993
  969MOL0     C30692   7.513   5.338   5.427  0.5621 -0.7494 -0.8574
  969MOL0     C30693   7.379   5.382   5.494  0.2375  0.2918 -0.6884
  969MOL0     C30694   7.384   5.496   5.597  0.4874  0.1868 -0.8544
  969MOL0     C30695   7.249   5.513   5.667  0.8630  0.2783  0.0953
  969MOL0     C30696   7.228   5.407   5.773 -0.4016  0.3563 -0.0441
  969MOL0     N30697   7.307   5.430   5.888 -0.2151  0.2228  0.1576
  969MOL0     C30698   7.412   5.357   5.934 -0.0830  0.3716 -0.3276
  969MOL0     C30699   7.448   5.417   6.046  0.0960  0.0624 -0.5776
  969MOL0     C30700   7.573   5.394   6.122  0.4031  0.2426 -0.0541
  969MOL0     C30701   7.608   5.496   6.232 -0.0317 -0.4136 -0.3914
  969MOL0     C30702   7.757   5.491   6.281  0.4969 -0.6065  0.4130
  969MOL0     C30703   7.799   5.367   6.363 -0.2625  0.6858  0.1112
  969MOL0     O30704   7.935   5.370   6.405  0.5425 -0.0170 -0.2259
  969MOL0     C30705   7.977   5.255   6.456  1.0369  0.4935  0.0686
  969MOL0     C30706   8.086   5.201   6.384 -0.1888  1.0109  0.5106
  969MOL0     C30707   8.128   5.067   6.424 -0.2039  0.3739  0.7982
  969MOL0     C30708   8.070   4.997   6.538  0.5015 -0.6312 -0.2676
  969MOL0     C30709   8.144   4.871   6.585  0.6255  0.2752 -0.1297
  969MOL0     O30710   8.213   4.806   6.488 -0.3043  0.4943 -0.3959
  969MOL0     C30711   8.291   4.705   6.527 -1.2593 -0.5137  0.3078
  969MOL0     C30712   8.417   4.734   6.589 -0.6865 -0.2320  0.7819
  969MOL0     C30713   8.504   4.629   6.617  0.1104  0.3274 -0.6160
  969MOL0     C30714   8.470   4.497   6.581  0.3035  0.6641 -1.3008
  969MOL0     O30715   8.577   4.413   6.593 -0.1715 -0.9361 -1.0709
  969MOL0     C30716   8.554   4.271   6.616 -0.0414 -0.0339 -0.4282
  969MOL0     C30717   8.665   4.199   6.552 -1.0935  0.5345 -0.5554
  969MOL0     C30718   8.666   4.056   6.588 -0.1742  0.7211 -0.1654
  969MOL0     C30719   8.559   3.985   6.498 -0.2611  0.8658 -0.4697
  969MOL0     C30720   8.481   3.865   6.567  0.0333 -1.0620  0.9477
  969MOL0     C30721   8.389   3.807   6.461  0.4047  0.4465 -0.1190
  969MOL0     C30722   8.468   3.696   6.388 -0.3519  0.5439  0.0775
  969MOL0     C30723   8.377   3.616   6.290 -0.2591 -0.0545  1.1883
  969MOL0    Cl30724   8.250   3.534   6.383  0.0825 -0.4512 -0.0179
  969MOL0     C30725   8.351   4.467   6.527  1.0221  0.5623 -0.6525
  969MOL0     C30726   8.256   4.569   6.496  0.1367 -0.3900 -0.0708
  969MOL0     O30727   8.143   4.847   6.702  1.0229  0.4937 -0.3724
  969MOL0     C30728   7.969   5.063   6.609  0.2011  0.2399 -0.2273
  969MOL0     C30729   7.907   5.189   6.560  0.3683  0.1244  0.0376
  969MOL0     N30730   7.366   5.527   6.066 -0.2146 -0.0548 -1.2532
  969MOL0     N30731   7.283   5.534   5.976  0.2276  0.6427  0.4883
  969MOL0     C30732   7.894   5.493   4.993  0.0170  0.1542 -0.1802
  969MOL0     C30733   7.994   5.552   4.921 -0.7498  0.1414 -1.0656
  969MOL0     C30734   8.344   5.607   4.633 -0.0613 -0.4538  0.0512
  969MOL0     C30735   8.351   5.733   4.580  0.0774  0.4572 -0.3049
  969MOL0     C30736   8.452   5.772   4.492  0.1708  0.1986  0.2062
  969MOL0     C30737   8.556   5.680   4.456 -0.0953 -0.6705 -0.3278
  969MOL0     O30738   8.659   5.711   4.373  0.9993  0.6608 -0.3902
  969MOL0     C30739   8.669   5.831   4.298  0.0530 -0.9059  0.4971
  969MOL0     C30740   8.605   5.812   4.158 -0.1002  0.1382  0.6079
  969MOL0     C30741   8.679   5.900   4.051 -0.2694  0.2796 -1.1212
  969MOL0     C30742   8.750   5.805   3.948  0.9127 -0.1005 -0.4387
  969MOL0     C30743   8.801   5.893   3.841  0.0358 -0.3722  0.5338
  969MOL0     C30744   8.858   5.947   3.745  0.1606 -1.5724 -0.6315
  969MOL0     C30745   8.562   5.557   4.517  0.4862 -0.5199  0.5114
  969MOL0     C30746   8.459   5.521   4.606  0.0387 -0.3402  0.2285
  969MOL0     C30747   8.461   5.382   4.665 -0.1495  0.0025  0.3398
  969MOL0     H30748   7.938   5.437   4.619  0.9598 -5.5465  0.9006
  969MOL0     H30749   7.735   5.327   4.735  0.9984 -2.7719  0.4921
  969MOL0     H30750   7.619   5.516   5.043 -1.9137 -0.6544 -0.8991
  969MOL0     H30751   7.531   5.373   5.075 -1.2087  1.2703  2.5846
  969MOL0     H30752   7.753   5.447   5.259 -0.8555 -0.4445  0.0623
  969MOL0     H30753   7.682   5.291   5.246  1.3797 -0.2346  0.6498
  969MOL0     H30754   7.459   5.461   5.272 -2.6022  0.6796  3.9875
  969MOL0     H30755   7.575   5.544   5.380  1.1156 -1.2736  1.4322
  969MOL0     H30756   7.479   5.260   5.359 -4.3659  0.9131 -0.7223
  969MOL0     H30757   7.583   5.292   5.498 -0.6433  0.3543  1.1643
  969MOL0     H30758   7.295   5.387   5.425 -1.8750  1.2602  1.7962
  969MOL0     H30759   7.353   5.291   5.548 -0.7039  1.8380  1.6195
  969MOL0     H30760   7.468   5.482   5.666  1.5280  0.4306 -2.0440
  969MOL0     H30761   7.392   5.597   5.556 -1.2747  1.3862  1.4938
  969MOL0     H30762   7.165   5.489   5.601 -1.0789 -0.9081  2.8444
  969MOL0     H30763   7.230   5.614   5.703 -0.5832 -0.5518  1.7594
  969MOL0     H30764   7.127   5.402   5.814 -0.5229  1.4226 -0.1883
  969MOL0     H30765   7.249   5.311   5.726 -2.2689 -0.0002 -0.2034
  969MOL0     H30766   7.468   5.280   5.882 -1.8013 -0.8372 -0.4337
  969MOL0     H30767   7.568   5.301   6.180  0.7988  0.3731  0.1925
  969MOL0     H30768   7.651   5.386   6.047 -0.3666 -2.9278 -0.6554
  969MOL0     H30769   7.599   5.592   6.181  1.3939 -0.0707 -0.0225
  969MOL0     H30770   7.535   5.492   6.313  0.8861  0.8876  0.5379
  969MOL0     H30771   7.768   5.576   6.348 -2.1031 -2.0649  2.8760
  969MOL0     H30772   7.827   5.505   6.197  2.3252 -1.7380  1.6681
  969MOL0     H30773   7.787   5.276   6.303  1.2270  0.2235  0.4762
  969MOL0     H30774   7.734   5.351   6.450  2.1175 -3.1807  1.4330
  969MOL0     H30775   8.134   5.232   6.291 -0.6915 -1.4751 -0.6589
  969MOL0     H30776   8.207   5.022   6.364  2.2637  1.7360  2.8269
  969MOL0     H30777   8.444   4.835   6.618  0.2846  0.4206 -2.1005
  969MOL0     H30778   8.593   4.655   6.673 -0.4540  1.1351 -0.0709
  969MOL0     H30779   8.542   4.264   6.725 -1.1906 -0.9457 -0.5867
  969MOL0     H30780   8.463   4.232   6.569  0.4129 -2.4162  0.5289
  969MOL0     H30781   8.668   4.209   6.443  1.1589  2.1121 -0.4196
  969MOL0     H30782   8.762   4.231   6.591 -0.6171  1.5166 -2.4380
  969MOL0     H30783   8.768   4.015   6.587  0.6464  2.5413 -2.5278
  969MOL0     H30784   8.622   4.041   6.687  1.2817 -3.8035  0.0252
  969MOL0     H30785   8.617   3.936   6.420  2.1024 -1.6313  2.5571
  969MOL0     H30786   8.488   4.063   6.468  0.2195  1.1527 -0.8774
  969MOL0     H30787   8.420   3.889   6.655 -4.3109 -4.1642 -0.8681
  969MOL0     H30788   8.566   3.803   6.598  0.0414 -1.8183 -0.5248
  969MOL0     H30789   8.297   3.762   6.501  0.8116  0.6681  1.1036
  969MOL0     H30790   8.344   3.871   6.385 -1.8520 -2.2536 -1.2731
  969MOL0     H30791   8.502   3.628   6.467 -2.0295  0.3097  0.6417
  969MOL0     H30792   8.557   3.733   6.336  1.0315 -1.6919  0.7101
  969MOL0     H30793   8.321   3.674   6.216  0.0559 -3.2408 -1.7860
  969MOL0     H30794   8.434   3.542   6.232 -2.0670 -0.3396 -0.3489
  969MOL0     H30795   8.337   4.360   6.515  0.9663 -0.1512  3.9996
  969MOL0     H30796   8.159   4.550   6.452 -0.4134  1.5100  0.2351
  969MOL0     H30797   7.916   5.011   6.688 -1.4621  0.4676 -1.1355
  969MOL0     H30798   7.830   5.232   6.623  1.0408 -1.0879  1.7648
  969MOL0     H30799   7.879   5.489   5.101 -0.7936 -2.1728 -0.3382
  969MOL0     H30800   8.065   5.613   4.975 -2.4626  1.9802 -0.7649
  969MOL0     H30801   8.270   5.803   4.596 -1.3110 -0.2800 -3.2892
  969MOL0     H30802   8.442   5.871   4.448  1.8005  0.4866  0.4180
  969MOL0     H30803   8.775   5.835   4.276 -0.2887  1.5914 -1.0033
  969MOL0     H30804   8.633   5.925   4.342 -2.8849 -1.1980 -1.0378
  969MOL0     H30805   8.499   5.836   4.173 -0.2009 -1.6433  3.5180
  969MOL0     H30806   8.611   5.709   4.124  3.2091  0.6936 -0.8608
  969MOL0     H30807   8.751   5.963   4.104  1.6665 -2.0668 -0.7343
  969MOL0     H30808   8.601   5.955   3.998 -1.4539 -0.6121 -0.3594
  969MOL0     H30809   8.834   5.752   3.995  0.8966 -0.4134 -0.7520
  969MOL0     H30810   8.684   5.732   3.900 -2.4562  2.5013 -0.1335
  969MOL0     H30811   8.892   5.996   3.655 -0.6370 -0.0200 -0.1266
  969MOL0     H30812   8.649   5.492   4.515  0.3538 -0.7595  1.5566
  969MOL0     H30813   8.365   5.352   4.707 -0.3665  4.0724  3.3787
  969MOL0     H30814   8.503   5.311   4.593 -1.1004  0.8679 -1.1347
  969MOL0     H30815   8.535   5.379   4.745  2.5300  2.1020 -1.8362
  970MOL0     O30816   7.564   1.631   0.702 -0.0416  0.3122 -0.1551
  970MOL0     C30817   7.677   1.654   0.748  0.5505  0.5855  0.3580
  970MOL0     O30818   7.704   1.724   0.854  0.6133 -0.5335 -0.3444
  970MOL0     C30819   7.595   1.778   0.920  0.9715  0.1781 -0.1633
  970MOL0     C30820   7.597   1.915   0.948 -0.0046  0.1392 -0.0406
  970MOL0     C30821   7.488   1.991   0.996 -0.8266 -0.4791 -0.0745
  970MOL0     C30822   7.373   1.917   1.032  0.2367 -0.0233  0.6511
  970MOL0     O30823   7.259   1.960   1.076  0.0393 -0.5786 -0.6290
  970MOL0     C30824   7.259   2.086   1.147  0.2749 -0.7490  0.1065
  970MOL0     C30825   7.321   2.076   1.290  0.3444  0.3330  1.2875
  970MOL0     C30826   7.243   1.972   1.380 -1.1621  0.6680 -0.1029
  970MOL0     C30827   7.290   1.964   1.527 -0.2782 -1.2323 -0.0721
  970MOL0     C30828   7.199   1.896   1.626 -0.1089  0.6060 -0.0971
  970MOL0     C30829   7.217   1.930   1.773 -0.0540  0.2441  0.1255
  970MOL0     C30830   7.364   1.927   1.822  0.1605 -0.3173 -0.4628
  970MOL0     C30831   7.359   1.938   1.973  0.5398  0.4144 -0.7644
  970MOL0     N30832   7.331   1.808   2.041  0.1902 -0.3874 -0.0217
  970MOL0     C30833   7.290   1.686   1.996 -0.1819  0.1529 -0.5030
  970MOL0     C30834   7.276   1.604   2.106 -0.1648 -0.1543  0.0742
  970MOL0     C30835   7.247   1.449   2.113  0.2431 -0.7521 -1.0731
  970MOL0     C30836   7.140   1.385   2.011 -0.1191  0.5432  0.0954
  970MOL0     C30837   7.124   1.235   2.060  0.3417  0.7667 -0.7403
  970MOL0     C30838   7.226   1.125   2.018  0.1106  1.0689  1.1679
  970MOL0     O30839   7.193   1.001   2.075 -0.0060  0.1407  0.1429
  970MOL0     C30840   7.255   0.888   2.021 -0.5217 -0.7391  0.3368
  970MOL0     C30841   7.363   0.893   1.930 -0.6743  1.2888  0.1875
  970MOL0     C30842   7.427   0.781   1.874  0.2440  0.2161 -1.0589
  970MOL0     C30843   7.378   0.654   1.928  0.1302 -0.2967 -0.4026
  970MOL0     C30844   7.453   0.528   1.891  0.2467 -0.3584  0.2340
  970MOL0     O30845   7.591   0.536   1.878 -0.4149 -0.1690 -0.2877
  970MOL0     C30846   7.665   0.418   1.861  0.0867 -0.7160  0.1675
  970MOL0     C30847   7.755   0.381   1.961 -0.2042 -0.6558 -1.0902
  970MOL0     C30848   7.829   0.264   1.935 -0.1150  0.8173 -1.0293
  970MOL0     C30849   7.820   0.181   1.823 -0.6088  0.5936  0.0274
  970MOL0     O30850   7.890   0.063   1.804  0.1556 -0.2776 -0.5000
  970MOL0     C30851   7.977   0.017   1.908 -0.1667 -0.5821  0.2068
  970MOL0     C30852   8.055  -0.109   1.886 -0.5170  0.0338  0.8972
  970MOL0     C30853   7.961  -0.232   1.874 -0.0092  0.5377  0.3029
  970MOL0     C30854   8.054  -0.357   1.840  0.8765 -0.1399  0.3589
  970MOL0     C30855   7.961  -0.469   1.806  0.9447 -1.5065  0.5314
  970MOL0     C30856   8.028  -0.598   1.813  0.5486  0.5528  1.0752
  970MOL0     C30857   7.917  -0.710   1.821 -0.3011  0.1188  0.2562
  970MOL0     C30858   7.978  -0.852   1.807 -0.3200  0.4825  0.0280
  970MOL0    Cl30859   8.053  -0.874   1.634 -0.3370 -0.0781  0.0601
  970MOL0     C30860   7.730   0.229   1.720  0.6912  0.2270  0.0639
  970MOL0     C30861   7.657   0.346   1.741 -0.2935 -0.3703  0.3332
  970MOL0     O30862   7.380   0.425   1.869 -0.1693  0.1084 -0.1367
  970MOL0     C30863   7.264   0.650   2.018 -0.6991 -0.3090  0.7290
  970MOL0     C30864   7.211   0.765   2.066  0.1218 -0.4323  0.9555
  970MOL0     N30865   7.314   1.678   2.213 -0.4868  0.5482 -0.6118
  970MOL0     N30866   7.352   1.803   2.172 -0.4322  0.3416  0.4992
  970MOL0     C30867   7.374   1.780   1.018 -0.5021  0.4126  0.7258
  970MOL0     C30868   7.483   1.709   0.960  0.7686 -0.1561  0.3654
  970MOL0     C30869   7.786   1.590   0.678  0.2420 -0.2731 -1.1323
  970MOL0     C30870   7.804   1.626   0.543 -0.5342 -0.6559  0.0787
  970MOL0     C30871   7.899   1.553   0.463 -0.5416 -0.1294 -0.2236
  970MOL0     C30872   7.967   1.444   0.513  0.4702 -0.0505  0.4197
  970MOL0     O30873   8.066   1.381   0.432  0.0004 -0.1340  0.3816
  970MOL0     C30874   8.073   1.384   0.287  0.4899 -0.4028  0.6496
  970MOL0     C30875   8.098   1.242   0.245 -0.5793  0.1343  0.6795
  970MOL0     C30876   8.148   1.224   0.096  0.5679  0.5243 -0.5359
  970MOL0     C30877   8.148   1.069   0.056  0.4757 -1.2751 -0.3571
  970MOL0     C30878   8.015   1.021   0.030  0.3522 -0.6139  0.5338
  970MOL0     C30879   7.907   0.981  -0.019 -0.1404 -0.3647 -1.2902
  970MOL0     C30880   7.959   1.414   0.652  0.5225 -0.6324  0.0738
  970MOL0     C30881   7.866   1.491   0.735 -0.7034 -0.7027  0.1847
  970MOL0     C30882   7.858   1.467   0.879 -0.1715 -0.0276  0.4507
  970MOL0     H30883   7.695   1.960   0.949 -0.3443  1.2033  3.7218
  970MOL0     H30884   7.497   2.099   1.003  0.3083 -0.6393  1.3798
  970MOL0     H30885   7.309   2.164   1.089  0.5663 -0.1330  1.1618
  970MOL0     H30886   7.154   2.118   1.152  0.1307 -1.1039 -0.4893
  970MOL0     H30887   7.308   2.175   1.334 -2.9893 -0.0240  1.3661
  970MOL0     H30888   7.423   2.044   1.268  0.1881  0.3697  0.4614
  970MOL0     H30889   7.256   1.873   1.337  0.4665  0.5254  0.6392
  970MOL0     H30890   7.136   1.994   1.380 -1.1821  1.5991 -4.8143
  970MOL0     H30891   7.386   1.911   1.529  0.1248 -0.6808 -2.3686
  970MOL0     H30892   7.301   2.065   1.566 -1.2598 -0.5841 -1.4163
  970MOL0     H30893   7.093   1.908   1.602 -0.4962 -0.1198  1.1411
  970MOL0     H30894   7.210   1.787   1.622  0.5617  0.5624  1.7454
  970MOL0     H30895   7.169   2.025   1.797  0.8684  0.0569  3.1625
  970MOL0     H30896   7.161   1.851   1.824  0.4675 -2.5681 -3.2805
  970MOL0     H30897   7.413   2.013   1.776  0.9171 -1.1503 -1.2702
  970MOL0     H30898   7.405   1.830   1.792  0.9073  0.7343 -3.1786
  970MOL0     H30899   7.454   1.969   2.019  0.6707  1.9505 -1.9716
  970MOL0     H30900   7.291   2.021   1.993  0.8660  0.7249 -0.9266
  970MOL0     H30901   7.278   1.657   1.893 -3.2316 -2.2536  0.3899
  970MOL0     H30902   7.343   1.401   2.091 -0.3829 -2.4549 -0.2654
  970MOL0     H30903   7.222   1.420   2.215 -1.1790  3.4989 -0.0207
  970MOL0     H30904   7.043   1.433   2.025 -0.9616 -1.3755  1.3274
  970MOL0     H30905   7.163   1.408   1.907  3.3355  4.0870  1.4236
  970MOL0     H30906   7.025   1.209   2.022  0.4975  2.3559 -2.3399
  970MOL0     H30907   7.120   1.228   2.169  4.2151  0.9470 -0.4507
  970MOL0     H30908   7.327   1.156   2.044  0.8685 -0.1102 -0.2037
  970MOL0     H30909   7.218   1.123   1.909  2.5149 -0.7704  0.9372
  970MOL0     H30910   7.403   0.988   1.896 -0.6057  0.7815 -1.2032
  970MOL0     H30911   7.506   0.805   1.804  1.1061  2.7173  0.6582
  970MOL0     H30912   7.767   0.443   2.049 -1.0184  0.1215 -1.4995
  970MOL0     H30913   7.893   0.242   2.020 -2.4124 -1.9055  0.1673
  970MOL0     H30914   8.046   0.098   1.932 -0.1483 -0.0714 -1.4972
  970MOL0     H30915   7.916  -0.001   1.998 -2.0730 -0.7300 -1.0618
  970MOL0     H30916   8.112  -0.092   1.793 -0.6778  2.7314  1.2234
  970MOL0     H30917   8.124  -0.125   1.969 -0.7094  1.3891  1.3430
  970MOL0     H30918   7.903  -0.247   1.965  2.0878  0.1250  1.6654
  970MOL0     H30919   7.898  -0.215   1.787  1.5200  0.0518 -0.9513
  970MOL0     H30920   8.112  -0.364   1.933  0.2982  1.3161  0.8558
  970MOL0     H30921   8.129  -0.349   1.760  1.9306 -0.5073  1.2769
  970MOL0     H30922   7.910  -0.455   1.711 -2.5338  0.8412  2.5333
  970MOL0     H30923   7.878  -0.467   1.877 -0.6244  0.0575 -1.2252
  970MOL0     H30924   8.069  -0.615   1.713 -4.1374 -3.5208 -0.5766
  970MOL0     H30925   8.100  -0.615   1.893 -1.2214 -1.3501  2.3770
  970MOL0     H30926   7.855  -0.688   1.734  1.8125  2.5022 -0.7547
  970MOL0     H30927   7.858  -0.708   1.914 -1.9399 -0.8297 -0.7174
  970MOL0     H30928   8.058  -0.868   1.879 -1.5051 -0.0266  1.2814
  970MOL0     H30929   7.899  -0.921   1.838 -1.2629  0.4729 -2.1945
  970MOL0     H30930   7.730   0.169   1.629  0.2194 -1.4714  1.1449
  970MOL0     H30931   7.590   0.365   1.658  1.1399 -2.6244 -1.4735
  970MOL0     H30932   7.213   0.555   2.031 -0.1459 -0.6191  0.6554
  970MOL0     H30933   7.129   0.753   2.135 -1.8535 -0.0280 -1.1808
  970MOL0     H30934   7.291   1.719   1.051  0.7230 -1.5431  0.3406
  970MOL0     H30935   7.479   1.604   0.933  0.3660  0.6392 -3.0402
  970MOL0     H30936   7.754   1.707   0.491  3.8417  0.2020 -3.3433
  970MOL0     H30937   7.921   1.585   0.362  0.8501 -2.4521 -0.7335
  970MOL0     H30938   8.140   1.457   0.240 -1.5451 -0.2445 -2.2429
  970MOL0     H30939   7.981   1.421   0.242  0.4929 -1.8204 -0.6109
  970MOL0     H30940   8.008   1.183   0.260 -0.2641 -1.3218 -2.3292
  970MOL0     H30941   8.173   1.208   0.317  1.6697  0.4633 -1.3562
  970MOL0     H30942   8.250   1.262   0.087  1.6298 -2.5703 -3.7171
  970MOL0     H30943   8.083   1.284   0.032 -0.0951  3.5674  2.6528
  970MOL0     H30944   8.213   1.051  -0.030  1.9643 -3.1513  1.0343
  970MOL0     H30945   8.177   1.017   0.149  0.2003  1.0508  1.1150
  970MOL0     H30946   7.812   0.942  -0.049 -1.9853  1.2247  1.9294
  970MOL0     H30947   8.045   1.356   0.683  0.1155  0.6794  4.2907
  970MOL0     H30948   7.756   1.450   0.912  1.1327 -2.6964  3.7574
  970MOL0     H30949   7.913   1.378   0.911  1.3086  0.7773  0.2704
  970MOL0     H30950   7.904   1.540   0.947  0.1982 -1.8510  2.2501
  971MOL0     O30951  10.669   8.812   4.905  0.3624  0.2437  0.5204
  971MOL0     C30952  10.718   8.705   4.870  0.8594  1.1382 -0.1769
  971MOL0     O30953  10.664   8.625   4.770  0.3313 -0.7763 -1.1807
  971MOL0     C30954  10.550   8.649   4.702  0.3740  0.7487  0.7616
  971MOL0     C30955  10.541   8.603   4.564 -0.2433  0.4588  0.8159
  971MOL0     C30956  10.424   8.604   4.489  0.2184 -0.5565  1.0446
  971MOL0     C30957  10.300   8.650   4.547  0.2051 -0.4229 -0.0114
  971MOL0     O30958  10.186   8.640   4.462 -0.0305  0.2408  0.0384
  971MOL0     C30959  10.065   8.597   4.528  0.2013 -1.0596 -0.2666
  971MOL0     C30960  10.012   8.486   4.439  0.8365  0.4544 -0.2532
  971MOL0     C30961   9.897   8.412   4.507  0.2327 -0.3189 -0.1835
  971MOL0     C30962   9.776   8.507   4.529 -0.9625 -0.7108  0.6236
  971MOL0     C30963   9.655   8.432   4.568  0.0123  0.1702  0.5105
  971MOL0     C30964   9.536   8.526   4.566 -0.3658 -0.1623 -0.3876
  971MOL0     C30965   9.393   8.464   4.543  0.1445 -0.3141 -0.1573
  971MOL0     C30966   9.305   8.429   4.666 -0.1586 -1.1819  0.6559
  971MOL0     N30967   9.381   8.345   4.762 -0.2197 -0.8658 -1.1860
  971MOL0     C30968   9.452   8.398   4.876  1.3752  0.4884  0.3670
  971MOL0     C30969   9.484   8.290   4.942  0.5119  0.3726 -0.5443
  971MOL0     C30970   9.558   8.279   5.075 -0.2022 -1.1545 -0.0913
  971MOL0     C30971   9.470   8.263   5.204  0.5516  0.9733 -0.2481
  971MOL0     C30972   9.547   8.264   5.339  0.1240  0.3130 -0.8790
  971MOL0     C30973   9.456   8.302   5.449 -0.2568 -0.1638 -0.2202
  971MOL0     O30974   9.349   8.207   5.459  0.1084  0.3013  0.6171
  971MOL0     C30975   9.229   8.264   5.487 -0.2673  0.6944 -0.8671
  971MOL0     C30976   9.165   8.225   5.616 -0.3027 -0.1130  0.2492
  971MOL0     C30977   9.040   8.279   5.645 -0.2084 -1.3595 -0.6578
  971MOL0     C30978   8.972   8.355   5.550 -0.0782  0.3016  0.3030
  971MOL0     C30979   8.825   8.381   5.580  0.5463 -0.8965  0.0908
  971MOL0     O30980   8.775   8.360   5.705  0.8046 -0.4575  0.2302
  971MOL0     C30981   8.643   8.383   5.738  0.3604 -0.2700 -0.1031
  971MOL0     C30982   8.543   8.275   5.728  0.2086 -0.4712 -0.2274
  971MOL0     C30983   8.407   8.296   5.761 -0.7973  0.3557 -0.4049
  971MOL0     C30984   8.375   8.423   5.820  0.3667  1.4990  0.2526
  971MOL0     O30985   8.248   8.454   5.860 -0.4780 -0.2118  0.7409
  971MOL0     C30986   8.220   8.374   5.978 -0.1859 -0.6161  0.8468
  971MOL0     C30987   8.089   8.411   6.029 -0.7117  0.9222 -0.6743
  971MOL0     C30988   8.077   8.547   6.096 -0.4521  0.7419  0.1566
  971MOL0     C30989   7.949   8.560   6.182 -0.6497  0.0391 -0.6815
  971MOL0     C30990   7.943   8.698   6.245  0.2064 -0.6020 -0.2780
  971MOL0     C30991   7.797   8.726   6.277  0.8257  0.2547 -0.4420
  971MOL0     C30992   7.771   8.675   6.422  0.3556  0.2341 -0.2898
  971MOL0     C30993   7.620   8.633   6.441 -0.8055  0.6372  0.5079
  971MOL0    Cl30994   7.495   8.759   6.418  0.1904  0.5055 -0.2370
  971MOL0     C30995   8.468   8.534   5.824  0.8574  0.0056  0.3402
  971MOL0     C30996   8.603   8.516   5.782  0.5102 -0.4894 -0.1086
  971MOL0     O30997   8.756   8.417   5.484  0.5900  0.6813  0.5160
  971MOL0     C30998   9.024   8.383   5.423  0.0260  0.8402  0.1889
  971MOL0     C30999   9.148   8.336   5.396  0.0911  0.9466 -0.3109
  971MOL0     N31000   9.419   8.180   4.880  0.0580 -0.2736  0.2431
  971MOL0     N31001   9.376   8.210   4.763 -0.0333 -0.3171 -0.1609
  971MOL0     C31002  10.300   8.700   4.675  0.2552  0.1498 -0.8976
  971MOL0     C31003  10.424   8.697   4.745 -0.0083  0.2708 -0.0353
  971MOL0     C31004  10.826   8.650   4.950 -0.0271 -0.5615  0.3078
  971MOL0     C31005  10.884   8.526   4.916 -0.3639 -0.8567 -0.0732
  971MOL0     C31006  10.999   8.493   4.968 -0.0407  0.4628 -0.4583
  971MOL0     C31007  11.071   8.565   5.057 -0.6579 -0.4883  0.4632
  971MOL0     O31008  11.193   8.517   5.101 -0.0569 -0.3123  0.1115
  971MOL0     C31009  11.248   8.554   5.227 -0.2281 -0.0460  1.0825
  971MOL0     C31010  11.360   8.653   5.199 -0.0231  0.3870 -0.8367
  971MOL0     C31011  11.469   8.658   5.307  0.6920  0.0069 -0.3128
  971MOL0     C31012  11.496   8.809   5.349  0.1608 -0.7455 -0.5053
  971MOL0     C31013  11.390   8.879   5.433 -0.0473  0.2726  0.3051
  971MOL0     C31014  11.309   8.941   5.505 -0.0654 -0.3622  0.1516
  971MOL0     C31015  11.024   8.694   5.092 -0.2934  0.4676  0.4053
  971MOL0     C31016  10.902   8.738   5.042 -0.4979  0.1010 -0.2482
  971MOL0     C31017  10.867   8.874   5.098 -1.0489  0.4794  0.5375
  971MOL0     H31018  10.624   8.557   4.512  0.1358  2.6916 -0.7056
  971MOL0     H31019  10.417   8.564   4.389  1.9776  1.3960  0.0629
  971MOL0     H31020  10.083   8.557   4.629 -1.4455  2.0668  1.4061
  971MOL0     H31021  10.004   8.686   4.541  2.1659 -0.0341  3.1480
  971MOL0     H31022  10.093   8.423   4.402  0.6194 -0.5382  0.8997
  971MOL0     H31023   9.979   8.549   4.356  1.5125  0.5310 -0.4693
  971MOL0     H31024   9.928   8.378   4.607 -1.4507 -2.9695 -0.4556
  971MOL0     H31025   9.876   8.326   4.443  4.2142 -1.3009 -0.3976
  971MOL0     H31026   9.798   8.583   4.604 -0.5789 -2.2596  2.1224
  971MOL0     H31027   9.758   8.545   4.428  2.7989 -0.9908 -0.2924
  971MOL0     H31028   9.644   8.353   4.493 -0.9186 -2.9491  3.6551
  971MOL0     H31029   9.667   8.387   4.667 -0.9627 -0.5696  0.3097
  971MOL0     H31030   9.544   8.569   4.666 -4.0012 -0.8010  0.3217
  971MOL0     H31031   9.541   8.601   4.486 -1.4980 -1.5625 -1.8239
  971MOL0     H31032   9.420   8.372   4.490 -0.8183  0.3273 -1.8218
  971MOL0     H31033   9.339   8.531   4.476  1.2579  2.0799  1.2358
  971MOL0     H31034   9.265   8.518   4.714  0.1702 -0.3152 -0.6375
  971MOL0     H31035   9.217   8.375   4.631 -0.4493 -1.1565  1.3295
  971MOL0     H31036   9.464   8.498   4.915  4.2354 -0.2481  1.6453
  971MOL0     H31037   9.632   8.199   5.066  0.3825 -0.3550 -3.1573
  971MOL0     H31038   9.618   8.370   5.077 -1.1392 -0.3785 -2.9832
  971MOL0     H31039   9.409   8.355   5.202 -0.5711  0.2872  0.7240
  971MOL0     H31040   9.413   8.170   5.198  0.5793  0.6583  2.7418
  971MOL0     H31041   9.631   8.335   5.339 -1.2869  2.0586 -0.8332
  971MOL0     H31042   9.578   8.161   5.355  3.0454  0.4840 -4.2626
  971MOL0     H31043   9.420   8.404   5.429 -0.9541 -0.0974  1.2584
  971MOL0     H31044   9.510   8.296   5.544 -0.0527 -2.9264 -0.4235
  971MOL0     H31045   9.219   8.163   5.687  1.6629 -0.1001 -1.1310
  971MOL0     H31046   8.999   8.254   5.743 -1.2505  4.7100  0.9072
  971MOL0     H31047   8.573   8.181   5.682  0.8814 -0.1434 -0.4682
  971MOL0     H31048   8.337   8.212   5.762 -2.8968  1.8972  3.1834
  971MOL0     H31049   8.204   8.272   5.941  0.5261 -0.3882 -0.1354
  971MOL0     H31050   8.299   8.379   6.054  1.2685 -0.7230 -0.6056
  971MOL0     H31051   8.008   8.403   5.957  2.6092  0.4268 -4.7325
  971MOL0     H31052   8.078   8.331   6.104 -1.7531  1.1125 -0.6107
  971MOL0     H31053   8.168   8.563   6.153  0.5222 -0.0739 -1.1243
  971MOL0     H31054   8.091   8.611   6.009  0.6562 -1.8855 -1.7472
  971MOL0     H31055   7.937   8.476   6.251  0.1251  0.1141 -0.4532
  971MOL0     H31056   7.865   8.552   6.112 -2.0315  0.2946  0.8943
  971MOL0     H31057   7.981   8.758   6.162  1.7916 -1.8681 -0.5259
  971MOL0     H31058   8.015   8.711   6.326  3.3555  0.3074 -3.0125
  971MOL0     H31059   7.773   8.832   6.268 -0.7897  0.3018  2.8102
  971MOL0     H31060   7.729   8.670   6.212  0.8511  0.4188 -0.6095
  971MOL0     H31061   7.790   8.754   6.496  0.0295  0.0194  0.0237
  971MOL0     H31062   7.838   8.593   6.450  0.1685 -0.3898 -1.6092
  971MOL0     H31063   7.612   8.546   6.374  0.4625 -2.0058  3.5526
  971MOL0     H31064   7.613   8.598   6.544  4.0733  0.4071  0.9705
  971MOL0     H31065   8.442   8.631   5.864 -3.4650 -0.8556  0.1040
  971MOL0     H31066   8.682   8.589   5.796 -1.5333  1.8029  0.0193
  971MOL0     H31067   8.966   8.444   5.355  2.7796  1.3097 -1.9452
  971MOL0     H31068   9.186   8.360   5.297  2.7976  2.4275  0.9892
  971MOL0     H31069  10.208   8.744   4.711 -0.6620  1.1617 -4.1345
  971MOL0     H31070  10.429   8.738   4.846  0.1154 -1.1231  0.5358
  971MOL0     H31071  10.835   8.465   4.842 -1.2740  1.6347 -1.6555
  971MOL0     H31072  11.054   8.402   4.944  1.8940  1.5071 -0.2172
  971MOL0     H31073  11.291   8.463   5.271 -2.1585 -1.4927  0.1328
  971MOL0     H31074  11.167   8.592   5.290  1.8732  1.6253  2.9416
  971MOL0     H31075  11.326   8.753   5.173  2.5476  1.4369 -0.4317
  971MOL0     H31076  11.413   8.618   5.110 -1.6823  0.4441 -1.8823
  971MOL0     H31077  11.565   8.634   5.261  0.4859  1.2688 -1.4625
  971MOL0     H31078  11.460   8.594   5.396  2.6491 -0.1913 -0.2123
  971MOL0     H31079  11.580   8.814   5.420 -0.1948 -1.0571 -0.0519
  971MOL0     H31080  11.526   8.865   5.261 -1.8778  0.8221 -0.2726
  971MOL0     H31081  11.256   8.997   5.580 -3.8937 -1.1820 -1.6874
  971MOL0     H31082  11.099   8.756   5.140  1.8904 -2.3982  0.9885
  971MOL0     H31083  10.923   8.959   5.059  1.7406 -0.2804  2.5655
  971MOL0     H31084  10.760   8.895   5.098 -0.7906  2.0890  1.9941
  971MOL0     H31085  10.899   8.869   5.203  0.7379  3.7792  0.3029
  972MOL0     O31086   7.120  11.042   9.834 -0.1481 -0.4082 -0.4440
  972MOL0     C31087   7.118  11.128   9.744 -0.6320 -0.2135 -0.1926
  972MOL0     O31088   7.200  11.229   9.723  0.7044  0.0904  0.4109
  972MOL0     C31089   7.312  11.250   9.798 -0.1824  0.1434  1.2095
  972MOL0     C31090   7.345  11.385   9.788 -0.8369 -0.1892  0.1370
  972MOL0     C31091   7.450  11.427   9.868 -0.5821 -0.4598  0.2247
  972MOL0     C31092   7.524  11.332   9.944 -0.9917 -1.6508 -1.3507
  972MOL0     O31093   7.640  11.366  10.009 -0.3471  0.1644  0.0470
  972MOL0     C31094   7.712  11.465   9.934 -0.1827  0.2870 -0.3405
  972MOL0     C31095   7.863  11.458   9.947 -0.9352  0.4401 -0.0565
  972MOL0     C31096   7.917  11.522  10.074 -0.0617  0.0892  0.5881
  972MOL0     C31097   8.067  11.508  10.102 -0.4174  0.0713  0.1886
  972MOL0     C31098   8.088  11.452  10.247 -0.1644 -0.2789  1.3411
  972MOL0     C31099   8.064  11.303  10.280  0.1542 -0.8599 -0.3990
  972MOL0     C31100   8.084  11.259  10.423  1.2048 -0.1938 -0.5281
  972MOL0     C31101   8.050  11.108  10.450  0.5502  0.3416 -0.7030
  972MOL0     N31102   8.114  11.016  10.351  0.1359 -0.5812  0.4279
  972MOL0     C31103   8.036  10.932  10.266  0.6663 -0.6165 -0.0474
  972MOL0     C31104   8.124  10.843  10.222  0.6231  0.7157 -0.4680
  972MOL0     C31105   8.070  10.731  10.129 -0.0122 -0.5791 -0.2878
  972MOL0     C31106   8.006  10.613  10.204 -0.2259  0.6651  0.2387
  972MOL0     C31107   7.930  10.533  10.104  0.0869  0.6049  0.7175
  972MOL0     C31108   7.836  10.433  10.166 -0.0622 -0.5215  0.8046
  972MOL0     O31109   7.764  10.369  10.064 -0.3504 -0.2719 -0.0965
  972MOL0     C31110   7.767  10.231  10.063  0.4938  0.8364 -0.7339
  972MOL0     C31111   7.793  10.169   9.941  0.5157 -0.1811 -0.1197
  972MOL0     C31112   7.814  10.027   9.936  0.0675 -0.1812 -0.2387
  972MOL0     C31113   7.801   9.956  10.056  0.4457  0.0596 -0.6224
  972MOL0     C31114   7.839   9.812  10.064  0.0565  0.4660 -0.0967
  972MOL0     O31115   7.817   9.748  10.180  0.7847 -0.4820  0.5404
  972MOL0     C31116   7.878   9.628  10.200  0.2500 -0.2249 -0.2606
  972MOL0     C31117   7.790   9.516  10.232  0.9786 -0.4172  0.3272
  972MOL0     C31118   7.849   9.391  10.255 -0.1609 -0.0339  0.2428
  972MOL0     C31119   7.989   9.379  10.261  0.4294  0.9025  0.4354
  972MOL0     O31120   8.057   9.262  10.279  0.5124  0.1256  0.8799
  972MOL0     C31121   7.996   9.175  10.380  0.0265  0.1813  0.5709
  972MOL0     C31122   7.975   9.236  10.517  0.5361  0.4407 -0.6098
  972MOL0     C31123   8.092   9.306  10.583 -0.2486 -0.9651 -0.1199
  972MOL0     C31124   8.043   9.417  10.691  0.4316  0.0121 -0.1638
  972MOL0     C31125   8.166   9.499  10.741  0.2360 -0.0180  0.6584
  972MOL0     C31126   8.135   9.599  10.854  0.4282 -0.2721  0.5154
  972MOL0     C31127   8.029   9.706  10.798  0.1234  0.2106 -0.8602
  972MOL0     C31128   8.036   9.847  10.872  0.5685 -0.3184  0.0666
  972MOL0    Cl31129   8.007   9.818  11.047  0.7992 -0.3201  0.1747
  972MOL0     C31130   8.072   9.487  10.231  0.2353  1.0913 -0.1782
  972MOL0     C31131   8.016   9.610  10.208 -1.0677 -0.5067  0.5970
  972MOL0     O31132   7.906   9.770   9.969  0.0115  0.5322  0.3627
  972MOL0     C31133   7.759  10.016  10.180  0.1834  0.1213 -0.6555
  972MOL0     C31134   7.740  10.158  10.177 -0.1881 -0.2483  0.4016
  972MOL0     N31135   8.252  10.873  10.277 -0.2660 -0.8120  0.4922
  972MOL0     N31136   8.240  10.976  10.352  0.0546 -0.6201  0.3085
  972MOL0     C31137   7.482  11.201   9.962 -0.6309  0.3268  0.2556
  972MOL0     C31138   7.376  11.163   9.884  0.4260 -0.3126 -0.6077
  972MOL0     C31139   6.996  11.131   9.667  0.8879 -0.6960 -0.3935
  972MOL0     C31140   6.930  11.253   9.639 -0.9153 -0.4968 -0.6569
  972MOL0     C31141   6.811  11.252   9.568 -0.4610 -0.5531  0.8728
  972MOL0     C31142   6.748  11.134   9.516  0.0771  0.6140 -0.6641
  972MOL0     O31143   6.627  11.128   9.451  0.4905  0.4273 -0.9097
  972MOL0     C31144   6.521  11.194   9.519 -0.1061  1.5264  0.5654
  972MOL0     C31145   6.400  11.115   9.491  0.1450  0.1396  0.7988
  972MOL0     C31146   6.324  11.149   9.348  0.5675  0.0707  0.5267
  972MOL0     C31147   6.232  11.030   9.299 -0.3965 -0.5775  0.2296
  972MOL0     C31148   6.106  11.027   9.376 -0.8275 -0.6052 -0.6400
  972MOL0     C31149   6.013  11.023   9.460  0.6379 -0.6471  0.5138
  972MOL0     C31150   6.816  11.014   9.540 -0.2769 -0.3180  0.4246
  972MOL0     C31151   6.938  11.008   9.604  0.6177 -0.0467 -0.6404
  972MOL0     C31152   7.007  10.868   9.619  0.1200 -0.2203  0.1769
  972MOL0     H31153   7.298  11.447   9.712  1.0522 -0.1081 -1.0284
  972MOL0     H31154   7.478  11.532   9.861 -2.7449  0.2737  1.6336
  972MOL0     H31155   7.688  11.460   9.828  3.3168 -0.8280 -1.2305
  972MOL0     H31156   7.684  11.565   9.967 -0.4638  0.0899  0.0268
  972MOL0     H31157   7.920  11.494   9.861  0.4723 -1.9487 -0.2084
  972MOL0     H31158   7.885  11.351   9.941  0.3286  0.7650 -2.4567
  972MOL0     H31159   7.861  11.498  10.165 -0.6240  0.3053  0.3085
  972MOL0     H31160   7.885  11.625  10.053 -1.7115 -0.4535  0.2832
  972MOL0     H31161   8.114  11.448  10.023 -3.3669 -0.0530 -1.6215
  972MOL0     H31162   8.122  11.600  10.080  0.7715 -0.2173  1.7819
  972MOL0     H31163   8.191  11.474  10.278  0.9487 -1.3855 -1.3103
  972MOL0     H31164   8.024  11.503  10.320 -2.6742  2.1383 -2.2617
  972MOL0     H31165   7.965  11.274  10.244 -0.4771 -4.0331  3.2384
  972MOL0     H31166   8.135  11.239  10.227 -2.0482 -2.3762 -1.6951
  972MOL0     H31167   8.030  11.327  10.488  1.8672  1.1600 -1.3486
  972MOL0     H31168   8.190  11.273  10.447  0.5633  2.5216  1.0666
  972MOL0     H31169   8.081  11.087  10.553 -1.1599 -0.0588 -0.2325
  972MOL0     H31170   7.942  11.094  10.464  0.9377 -1.7853  0.6884
  972MOL0     H31171   7.929  10.938  10.251  0.1350  1.1217  3.4016
  972MOL0     H31172   7.998  10.780  10.063 -2.0400 -0.5235  1.8527
  972MOL0     H31173   8.156  10.685  10.079  1.1218  0.5648  0.5503
  972MOL0     H31174   8.093  10.560  10.243 -0.3134  0.2887 -0.0795
  972MOL0     H31175   7.940  10.640  10.287 -3.3139  1.6559 -2.3455
  972MOL0     H31176   8.012  10.488  10.047 -1.3794 -1.8007  0.3915
  972MOL0     H31177   7.870  10.602  10.043 -0.4832  0.4535  1.0976
  972MOL0     H31178   7.776  10.480  10.245 -0.6140  0.7855 -0.3555
  972MOL0     H31179   7.913  10.373  10.215  3.0127  1.6246 -1.0726
  972MOL0     H31180   7.784  10.225   9.848 -0.3873  0.8252  0.5511
  972MOL0     H31181   7.836   9.981   9.840  2.0504  1.0472 -0.4226
  972MOL0     H31182   7.684   9.537  10.237  0.4370 -2.4577 -1.0942
  972MOL0     H31183   7.782   9.307  10.271 -2.1320  1.8238  2.6354
  972MOL0     H31184   7.899   9.136  10.347  0.7756  0.2180 -1.9030
  972MOL0     H31185   8.055   9.085  10.400 -1.6995 -1.1502  0.0162
  972MOL0     H31186   7.890   9.305  10.507 -1.4928 -1.4623  2.1311
  972MOL0     H31187   7.951   9.151  10.581  0.7752  1.3321  0.7021
  972MOL0     H31188   8.149   9.227  10.633  1.6635  0.9667  0.8848
  972MOL0     H31189   8.158   9.346  10.506  1.3902  0.1731  1.7761
  972MOL0     H31190   7.991   9.368  10.774 -1.1675  1.7953 -0.0400
  972MOL0     H31191   7.963   9.483  10.656 -0.2930 -1.1200 -0.7043
  972MOL0     H31192   8.227   9.537  10.658  3.2063 -2.4927  1.5373
  972MOL0     H31193   8.239   9.431  10.786 -0.8439 -1.6794  0.0039
  972MOL0     H31194   8.083   9.547  10.935  2.0248 -0.6899  1.3167
  972MOL0     H31195   8.227   9.638  10.899  0.7403 -1.5189  1.0033
  972MOL0     H31196   7.931   9.659  10.793 -1.3355  2.4663  2.6769
  972MOL0     H31197   8.051   9.725  10.692 -1.5786  1.6107 -1.0021
  972MOL0     H31198   8.127   9.903  10.849  0.5214 -0.7101 -1.1225
  972MOL0     H31199   7.961   9.908  10.821  0.4250 -1.0116 -0.5531
  972MOL0     H31200   8.178   9.464  10.230 -0.0345 -0.2963  0.1700
  972MOL0     H31201   8.086   9.691  10.193 -0.3574 -1.2326 -0.1196
  972MOL0     H31202   7.737   9.966  10.274  1.9397  2.6690  1.2434
  972MOL0     H31203   7.713  10.220  10.262  2.4658  1.6079  0.0430
  972MOL0     H31204   7.543  11.135  10.023  1.9748 -1.1115 -3.4570
  972MOL0     H31205   7.351  11.057   9.886  0.3445 -0.2786  0.3444
  972MOL0     H31206   6.965  11.354   9.662 -1.4903  0.5376 -3.8008
  972MOL0     H31207   6.773  11.352   9.550  2.7147  0.6052  0.0081
  972MOL0     H31208   6.521  11.299   9.488  0.1353  0.9512 -1.5496
  972MOL0     H31209   6.541  11.189   9.627 -0.8020 -0.0022  0.6374
  972MOL0     H31210   6.336  11.140   9.576  2.3486  0.0351  2.5582
  972MOL0     H31211   6.419  11.008   9.488  1.5136  0.3546  1.3145
  972MOL0     H31212   6.397  11.159   9.267 -3.1276  0.6147 -3.0651
  972MOL0     H31213   6.253  11.231   9.337 -0.1317 -0.7622 -2.0698
  972MOL0     H31214   6.200  11.034   9.194 -4.9529 -1.2138  1.3905
  972MOL0     H31215   6.292  10.940   9.315  1.3728  0.5277  0.1080
  972MOL0     H31216   5.924  11.015   9.520 -1.7090 -0.5831 -2.7050
  972MOL0     H31217   6.779  10.922   9.497 -2.1910  1.0056 -0.9356
  972MOL0     H31218   7.043  10.838   9.520 -0.1982  0.2870 -0.0966
  972MOL0     H31219   7.089  10.854   9.690 -0.8519 -3.0088  0.8698
  972MOL0     H31220   6.933  10.791   9.642  0.0389 -0.3627 -0.5125
  973MOL0     O31221   4.928   4.793   1.386  0.1079  0.9409  0.2788
  973MOL0     C31222   5.011   4.793   1.482 -0.9308 -0.7821 -0.5103
  973MOL0     O31223   4.977   4.840   1.606  0.4321 -0.1672 -0.8137
  973MOL0     C31224   4.846   4.866   1.639 -0.0152  0.3992  0.1436
  973MOL0     C31225   4.772   4.972   1.583 -0.1348  0.1117 -0.3280
  973MOL0     C31226   4.631   4.992   1.618  1.0541  0.1384  0.5299
  973MOL0     C31227   4.570   4.911   1.720 -0.1158  0.8831  0.4652
  973MOL0     O31228   4.448   4.927   1.786  0.4271 -0.2534  0.4363
  973MOL0     C31229   4.359   5.028   1.739 -0.3750 -0.7568  0.2011
  973MOL0     C31230   4.369   5.154   1.817  0.1194  0.1410  0.6798
  973MOL0     C31231   4.276   5.253   1.762  0.4790  1.3052  0.4663
  973MOL0     C31232   4.301   5.397   1.805  0.4029 -0.2549  0.8189
  973MOL0     C31233   4.200   5.485   1.742 -0.0814 -0.1394 -0.7409
  973MOL0     C31234   4.237   5.630   1.729 -0.1548 -0.4097 -1.0358
  973MOL0     C31235   4.124   5.716   1.663  0.0717 -0.2091 -1.0831
  973MOL0     C31236   4.000   5.718   1.755  0.3266  0.8147  0.1131
  973MOL0     N31237   3.894   5.805   1.693  0.3564 -1.1069  0.3669
  973MOL0     C31238   3.911   5.938   1.647  0.7783 -0.1281 -0.3121
  973MOL0     C31239   3.827   5.961   1.542 -1.2230 -0.0641 -0.4488
  973MOL0     C31240   3.823   6.082   1.461 -0.0093 -0.6190 -0.0189
  973MOL0     C31241   3.958   6.122   1.395  0.4161 -1.3395 -0.1820
  973MOL0     C31242   4.012   6.003   1.309  0.0201 -0.9001  0.5501
  973MOL0     C31243   3.931   5.967   1.186 -0.2266 -0.0775 -0.0816
  973MOL0     O31244   3.966   6.061   1.085  0.0497  0.8428  0.1081
  973MOL0     C31245   3.870   6.136   1.026  0.2550 -0.1784 -0.3835
  973MOL0     C31246   3.730   6.125   1.040 -0.7999  0.4621  0.0751
  973MOL0     C31247   3.646   6.210   0.958  0.0359  0.4828 -0.3426
  973MOL0     C31248   3.703   6.310   0.873 -0.1202  0.0556 -0.4567
  973MOL0     C31249   3.626   6.417   0.801  0.3604 -0.1343 -0.0586
  973MOL0     O31250   3.494   6.385   0.783  1.0175 -1.2729  0.2705
  973MOL0     C31251   3.428   6.436   0.675 -0.5428  0.6626  0.1486
  973MOL0     C31252   3.302   6.502   0.686  0.0321  0.4929 -1.2702
  973MOL0     C31253   3.246   6.565   0.572 -0.5905 -0.1251 -0.3991
  973MOL0     C31254   3.308   6.558   0.446  0.4325 -0.3221  0.0034
  973MOL0     O31255   3.233   6.624   0.351 -0.7888  0.0878 -0.5593
  973MOL0     C31256   3.281   6.656   0.221  0.1828 -0.8744 -0.3505
  973MOL0     C31257   3.218   6.562   0.130 -0.8123  0.1786  0.4483
  973MOL0     C31258   3.272   6.586  -0.009  0.4191 -0.4013 -0.2438
  973MOL0     C31259   3.181   6.498  -0.096 -0.0118  0.2791 -0.5137
  973MOL0     C31260   3.234   6.451  -0.237 -1.3449  0.2960  0.6823
  973MOL0     C31261   3.294   6.571  -0.317 -0.0020 -0.1309  0.6668
  973MOL0     C31262   3.225   6.556  -0.456  0.6101 -0.3920 -0.8042
  973MOL0     C31263   3.263   6.677  -0.525  0.3672 -0.2544 -0.9702
  973MOL0    Cl31264   3.216   6.664  -0.698 -0.0082  0.1257 -0.5256
  973MOL0     C31265   3.432   6.503   0.438 -0.4865 -0.3922 -0.3816
  973MOL0     C31266   3.481   6.433   0.549  0.0942 -0.7738 -0.3486
  973MOL0     O31267   3.687   6.508   0.735  0.1262  0.3911 -0.2763
  973MOL0     C31268   3.841   6.318   0.865 -0.4947  0.4848  0.5555
  973MOL0     C31269   3.923   6.234   0.939  0.4037 -0.0433  0.4701
  973MOL0     N31270   3.761   5.843   1.527  0.2076 -0.3758  0.2799
  973MOL0     N31271   3.788   5.759   1.622 -0.7108 -0.1253  0.0626
  973MOL0     C31272   4.641   4.802   1.760  0.2741 -0.6669  0.4701
  973MOL0     C31273   4.774   4.783   1.721 -0.3674  0.6281  0.2440
  973MOL0     C31274   5.155   4.749   1.467  0.0116 -0.0412  0.6110
  973MOL0     C31275   5.208   4.742   1.339 -0.3956  0.0354 -0.1989
  973MOL0     C31276   5.343   4.708   1.321 -0.1142 -0.2556  0.4051
  973MOL0     C31277   5.436   4.673   1.422  0.9044 -0.4612 -0.0602
  973MOL0     O31278   5.567   4.664   1.398 -0.1475 -0.1539  0.9009
  973MOL0     C31279   5.659   4.705   1.502  0.3147 -0.0186  0.0811
  973MOL0     C31280   5.650   4.854   1.525 -0.3367  0.5155 -0.1010
  973MOL0     C31281   5.747   4.917   1.631 -0.5872  1.0038 -0.4796
  973MOL0     C31282   5.719   5.053   1.688 -0.0562  0.4667  0.8186
  973MOL0     C31283   5.590   5.042   1.760 -0.1862 -0.4446  0.4682
  973MOL0     C31284   5.483   5.038   1.816  0.3754  0.2949  0.2296
  973MOL0     C31285   5.376   4.673   1.548 -0.6641 -0.6147  0.8277
  973MOL0     C31286   5.247   4.719   1.575 -1.3486  0.0005  0.8169
  973MOL0     C31287   5.206   4.722   1.726  0.0294  0.4819 -0.1707
  973MOL0     H31288   4.825   5.030   1.507 -1.0048  0.0484 -1.0055
  973MOL0     H31289   4.593   5.088   1.586  0.4364 -0.6295 -1.1176
  973MOL0     H31290   4.380   5.063   1.637  1.5804  2.3603  1.5198
  973MOL0     H31291   4.255   4.995   1.742 -1.0097  1.1751  1.8090
  973MOL0     H31292   4.468   5.192   1.788 -0.3244  0.9242  0.1728
  973MOL0     H31293   4.359   5.132   1.923 -1.0110  1.2841  0.8347
  973MOL0     H31294   4.173   5.225   1.787 -0.6675  0.5836 -4.0805
  973MOL0     H31295   4.270   5.239   1.653  1.3497  0.8593  0.4737
  973MOL0     H31296   4.288   5.405   1.913  0.6563  3.6343  0.6976
  973MOL0     H31297   4.402   5.424   1.772  0.2208 -1.3501 -0.7719
  973MOL0     H31298   4.169   5.454   1.642  0.4767  3.9941 -2.4202
  973MOL0     H31299   4.111   5.483   1.806 -1.4551 -1.3260 -2.5700
  973MOL0     H31300   4.272   5.674   1.824  2.7003 -2.1583 -1.1621
  973MOL0     H31301   4.325   5.629   1.664  0.1590 -0.6359 -0.6135
  973MOL0     H31302   4.100   5.697   1.557  0.8535  0.3973 -1.3811
  973MOL0     H31303   4.157   5.820   1.651 -2.5618  0.7142 -0.9360
  973MOL0     H31304   3.974   5.612   1.765 -0.9738  1.2750  2.5512
  973MOL0     H31305   4.027   5.752   1.856  1.8560 -0.4883  0.1867
  973MOL0     H31306   3.991   5.996   1.692 -0.8944  0.4161  2.1699
  973MOL0     H31307   3.749   6.077   1.380 -0.7801  1.1287  0.5391
  973MOL0     H31308   3.789   6.167   1.521  2.8229  1.2401 -0.7982
  973MOL0     H31309   3.945   6.210   1.332 -0.0848  1.7097  3.7716
  973MOL0     H31310   4.034   6.156   1.466  0.1456 -1.3156  0.0973
  973MOL0     H31311   4.028   5.912   1.366  0.5537 -0.8629  0.4606
  973MOL0     H31312   4.113   6.028   1.275 -0.9152  0.9632 -1.0643
  973MOL0     H31313   3.830   5.934   1.212 -0.4970 -0.1448 -1.1515
  973MOL0     H31314   3.963   5.871   1.145 -1.4904 -0.5609  0.0185
  973MOL0     H31315   3.677   6.060   1.108 -1.3137 -0.5399 -1.2437
  973MOL0     H31316   3.538   6.197   0.962 -0.2375  1.7790 -2.3161
  973MOL0     H31317   3.254   6.500   0.784  1.1011 -2.1245 -0.7164
  973MOL0     H31318   3.150   6.615   0.563 -0.7322 -0.2212  0.5410
  973MOL0     H31319   3.246   6.756   0.192  0.6124 -1.3810 -2.7811
  973MOL0     H31320   3.389   6.657   0.203  0.5061  0.1203  1.3709
  973MOL0     H31321   3.225   6.464   0.178  0.4464  1.5568  3.3526
  973MOL0     H31322   3.113   6.594   0.129 -0.4923  1.5418 -2.6402
  973MOL0     H31323   3.257   6.685  -0.052 -0.8648 -1.2015 -1.7354
  973MOL0     H31324   3.379   6.579  -0.026  0.3165  0.5287 -1.3978
  973MOL0     H31325   3.090   6.556  -0.112  1.9929  2.7321 -5.4415
  973MOL0     H31326   3.163   6.408  -0.037  5.8363  0.5658  2.4536
  973MOL0     H31327   3.157   6.392  -0.289  1.4403 -2.3757 -0.7637
  973MOL0     H31328   3.315   6.379  -0.222 -1.3036  0.4202  1.0387
  973MOL0     H31329   3.272   6.669  -0.273  0.2268  0.4356 -0.4351
  973MOL0     H31330   3.403   6.566  -0.331  0.1591 -0.3009  1.8638
  973MOL0     H31331   3.116   6.560  -0.449  0.5851  3.3377 -1.4191
  973MOL0     H31332   3.251   6.470  -0.519 -2.1509  1.1012 -4.3484
  973MOL0     H31333   3.214   6.767  -0.487  0.1944 -0.8818  0.3265
  973MOL0     H31334   3.371   6.693  -0.527  0.4253 -0.2665  0.9765
  973MOL0     H31335   3.484   6.503   0.342  2.2650  0.1937  1.0090
  973MOL0     H31336   3.571   6.374   0.535  0.7262  0.0757 -0.0113
  973MOL0     H31337   3.884   6.400   0.809  1.1451  0.3333  1.5360
  973MOL0     H31338   4.031   6.250   0.937  0.0467  3.2250  1.0345
  973MOL0     H31339   4.597   4.732   1.830 -1.6081  0.5220  0.5466
  973MOL0     H31340   4.826   4.697   1.762 -1.0389 -0.9831 -2.0943
  973MOL0     H31341   5.157   4.758   1.244 -1.6781  1.9951  0.7660
  973MOL0     H31342   5.376   4.731   1.220  1.8000  0.0387  1.0477
  973MOL0     H31343   5.751   4.681   1.448 -0.9755 -1.2642 -1.6450
  973MOL0     H31344   5.650   4.646   1.593 -1.5489  0.7879  0.4706
  973MOL0     H31345   5.550   4.887   1.555 -0.0919  1.1396  0.0332
  973MOL0     H31346   5.657   4.896   1.425 -0.0109  2.0442  0.5351
  973MOL0     H31347   5.851   4.913   1.598  0.5001 -3.7964  2.5755
  973MOL0     H31348   5.743   4.854   1.720 -3.0198  4.3987  2.0975
  973MOL0     H31349   5.795   5.086   1.760 -0.3366  4.9823 -0.6603
  973MOL0     H31350   5.714   5.129   1.610  2.4678 -2.3370 -2.3745
  973MOL0     H31351   5.393   5.023   1.872 -2.1810  2.0313 -3.0529
  973MOL0     H31352   5.420   4.640   1.641 -0.6479 -1.3667  0.5586
  973MOL0     H31353   5.264   4.647   1.779 -0.9631 -1.6012 -1.8925
  973MOL0     H31354   5.234   4.821   1.764  1.7458 -0.1056  0.1341
  973MOL0     H31355   5.099   4.702   1.737 -0.4840  2.2683 -1.3995
  974MOL0     O31356  10.278  11.491   5.570 -0.1953 -0.0689 -0.4958
  974MOL0     C31357  10.188  11.579   5.572 -0.7907  0.3544  0.3241
  974MOL0     O31358  10.160  11.661   5.470 -0.3114  0.1667 -0.5486
  974MOL0     C31359  10.249  11.666   5.365  0.0005  0.4365 -0.5735
  974MOL0     C31360  10.252  11.562   5.266 -0.3424 -0.1193 -0.2086
  974MOL0     C31361  10.354  11.569   5.164  0.1009 -0.2807  0.2561
  974MOL0     C31362  10.440  11.678   5.154  0.2039  0.6557  0.1258
  974MOL0     O31363  10.521  11.685   5.036 -0.6950  0.7078 -0.5426
  974MOL0     C31364  10.523  11.804   4.946 -0.1731 -0.0062 -0.1435
  974MOL0     C31365  10.596  11.770   4.814 -1.0335 -0.4794  0.6174
  974MOL0     C31366  10.511  11.690   4.705  0.0949 -0.2370 -0.5595
  974MOL0     C31367  10.407  11.783   4.655  0.3517 -0.9268  0.0964
  974MOL0     C31368  10.344  11.748   4.525 -0.2114 -0.0180 -0.6076
  974MOL0     C31369  10.256  11.621   4.532  0.5305  0.6396  0.4032
  974MOL0     C31370  10.144  11.627   4.416 -0.6321 -0.8653 -0.0680
  974MOL0     C31371  10.079  11.479   4.416 -0.3542  0.0209 -0.5526
  974MOL0     N31372  10.039  11.441   4.275  0.1875 -0.0888 -0.2478
  974MOL0     C31373   9.980  11.515   4.179  0.3557  0.4756  0.1730
  974MOL0     C31374   9.956  11.428   4.074 -0.3349 -0.1634 -0.0085
  974MOL0     C31375   9.879  11.469   3.949 -0.9910  0.7973  0.2211
  974MOL0     C31376   9.984  11.469   3.838 -0.2528 -0.3517  0.4429
  974MOL0     C31377  10.067  11.596   3.839  0.4311 -0.3719 -0.4956
  974MOL0     C31378  10.006  11.717   3.766 -0.2370  0.6535  0.0491
  974MOL0     O31379  10.014  11.705   3.619  0.5560  0.2873  0.4502
  974MOL0     C31380  10.141  11.728   3.576 -0.4161  0.7331  0.3136
  974MOL0     C31381  10.228  11.622   3.534  1.0196  0.2005 -0.7858
  974MOL0     C31382  10.359  11.663   3.503  0.0827 -0.2647 -1.1770
  974MOL0     C31383  10.399  11.793   3.514  0.0320 -0.1453  0.1109
  974MOL0     C31384  10.544  11.828   3.484  0.3039 -0.2770 -0.1536
  974MOL0     O31385  10.561  11.965   3.470 -0.0991 -0.1711  0.7019
  974MOL0     C31386  10.689  12.001   3.418  0.1756  0.2459  0.4064
  974MOL0     C31387  10.710  12.052   3.284 -0.2768 -0.1729 -0.4938
  974MOL0     C31388  10.831  12.106   3.238  0.6835 -0.5410 -0.1800
  974MOL0     C31389  10.932  12.102   3.327  0.4463 -0.1943 -0.3840
  974MOL0     O31390  11.058  12.153   3.286 -0.4482 -0.6492 -0.0484
  974MOL0     C31391  11.185  12.138   3.357  0.0555 -0.2786 -0.5030
  974MOL0     C31392  11.289  12.215   3.270  1.2251 -0.1680  0.1924
  974MOL0     C31393  11.331  12.155   3.136 -0.0170 -0.5917 -0.2517
  974MOL0     C31394  11.405  12.257   3.037 -0.9210 -0.4247 -1.2029
  974MOL0     C31395  11.306  12.365   2.997  0.2712 -0.9822  0.0336
  974MOL0     C31396  11.375  12.465   2.891  0.2451 -0.2226 -0.6236
  974MOL0     C31397  11.402  12.400   2.755  0.5900 -0.0781 -0.6641
  974MOL0     C31398  11.395  12.497   2.641  0.5343 -0.0291  0.2751
  974MOL0    Cl31399  11.487  12.641   2.668 -0.0228  0.1595 -0.2662
  974MOL0     C31400  10.916  12.071   3.468 -0.8055  0.0076  0.0995
  974MOL0     C31401  10.796  12.023   3.511  0.2674  0.2630 -0.2301
  974MOL0     O31402  10.635  11.746   3.474 -0.3838  0.0674 -0.3360
  974MOL0     C31403  10.302  11.894   3.531  0.2282  0.1348 -0.4900
  974MOL0     C31404  10.179  11.862   3.575  0.2210  0.3956 -0.1319
  974MOL0     N31405  10.001  11.304   4.105  0.0173 -0.7331 -0.7291
  974MOL0     N31406  10.061  11.316   4.219 -0.2580 -0.2395  0.5320
  974MOL0     C31407  10.420  11.785   5.249 -0.1517 -0.8566 -0.0565
  974MOL0     C31408  10.337  11.775   5.359 -1.0274 -0.0125 -0.6088
  974MOL0     C31409  10.111  11.608   5.692  0.9182 -0.2620  0.6603
  974MOL0     C31410  10.045  11.736   5.698  0.1728  0.6524  0.5629
  974MOL0     C31411   9.975  11.765   5.807  0.4775 -0.3720 -0.5448
  974MOL0     C31412   9.955  11.678   5.911  0.5035  0.2059 -0.2815
  974MOL0     O31413   9.874  11.716   6.021 -0.1646 -0.0132  0.7486
  974MOL0     C31414   9.937  11.810   6.111 -0.1582  0.2856  1.1889
  974MOL0     C31415   9.836  11.915   6.154 -0.4636 -0.1675 -0.4326
  974MOL0     C31416   9.900  12.031   6.240 -0.5919  0.0404 -0.3556
  974MOL0     C31417   9.787  12.126   6.278  0.4386  0.5347 -0.2917
  974MOL0     C31418   9.845  12.229   6.368 -0.3279 -0.2692 -0.4069
  974MOL0     C31419   9.899  12.285   6.462 -0.1530 -0.8807  0.8670
  974MOL0     C31420  10.017  11.550   5.905 -0.2578  0.0499 -0.2295
  974MOL0     C31421  10.100  11.515   5.792 -0.1598  0.2476 -0.4059
  974MOL0     C31422  10.155  11.378   5.817 -0.2405  0.0554  0.4664
  974MOL0     H31423  10.181  11.479   5.263 -1.3788  0.6870  0.9385
  974MOL0     H31424  10.358  11.492   5.088 -1.9612  0.5953 -0.8105
  974MOL0     H31425  10.423  11.849   4.938  0.3067  1.1024 -0.0654
  974MOL0     H31426  10.588  11.877   4.996  0.1231 -1.6336  1.9543
  974MOL0     H31427  10.692  11.720   4.832 -1.3349 -0.8881  1.1456
  974MOL0     H31428  10.628  11.864   4.769  0.7469 -0.0485  2.5892
  974MOL0     H31429  10.448  11.608   4.742 -0.4434 -0.2073 -1.3789
  974MOL0     H31430  10.572  11.651   4.623  2.3458  3.3889 -0.8300
  974MOL0     H31431  10.335  11.818   4.729 -2.2954 -0.6035 -2.4131
  974MOL0     H31432  10.446  11.884   4.639 -3.0562  0.7508  1.3351
  974MOL0     H31433  10.274  11.830   4.508 -1.7776 -1.2669 -0.3664
  974MOL0     H31434  10.424  11.744   4.451 -0.7255 -0.3503 -1.1577
  974MOL0     H31435  10.321  11.534   4.523  2.9311  2.0485  2.6147
  974MOL0     H31436  10.201  11.612   4.626  0.0433  0.1089  0.0695
  974MOL0     H31437  10.201  11.639   4.323  2.5428  0.9485  1.9416
  974MOL0     H31438  10.082  11.716   4.432  3.0806  1.5652  2.6660
  974MOL0     H31439  10.139  11.400   4.463 -1.8028  0.0717  1.4982
  974MOL0     H31440   9.994  11.487   4.484  1.6314 -2.3030  2.4981
  974MOL0     H31441   9.960  11.621   4.194 -1.2152  0.2372 -0.0797
  974MOL0     H31442   9.804  11.395   3.918  0.2766  0.0580 -1.2190
  974MOL0     H31443   9.821  11.556   3.981 -1.2692  1.2236 -1.3366
  974MOL0     H31444  10.059  11.389   3.846  1.5019  0.9787 -1.7112
  974MOL0     H31445   9.936  11.453   3.742 -2.1685 -3.3013  1.7387
  974MOL0     H31446  10.171  11.579   3.807  0.9750 -0.5707  1.2458
  974MOL0     H31447  10.078  11.617   3.946 -0.1065 -3.0273  0.1476
  974MOL0     H31448  10.056  11.805   3.808  1.4708  1.1660 -2.8512
  974MOL0     H31449   9.900  11.729   3.793 -0.7483 -2.6214 -0.1352
  974MOL0     H31450  10.190  11.521   3.533 -2.5750  1.3804  0.0194
  974MOL0     H31451  10.432  11.598   3.455  2.8761 -0.2512  2.5791
  974MOL0     H31452  10.618  12.054   3.227 -1.2986  1.4903  1.1345
  974MOL0     H31453  10.833  12.144   3.136 -2.0176 -0.6734 -0.3558
  974MOL0     H31454  11.173  12.179   3.457 -2.3622  1.8740 -1.5589
  974MOL0     H31455  11.214  12.033   3.365  1.4668  0.0203 -1.2130
  974MOL0     H31456  11.242  12.313   3.261 -0.2447 -0.9815 -1.8566
  974MOL0     H31457  11.387  12.228   3.316  0.6955  1.3246  0.9677
  974MOL0     H31458  11.403  12.078   3.167  2.1054  0.6504 -1.7876
  974MOL0     H31459  11.245  12.115   3.082 -1.1530  0.5135  0.6745
  974MOL0     H31460  11.445  12.213   2.946  1.0645  2.3005 -1.7922
  974MOL0     H31461  11.487  12.290   3.102 -2.0105 -4.1924  2.5398
  974MOL0     H31462  11.291  12.423   3.088 -1.6215 -1.0103 -0.2221
  974MOL0     H31463  11.203  12.336   2.975 -0.7298  0.9826  1.8126
  974MOL0     H31464  11.316  12.557   2.889 -0.1521 -0.4813 -1.0022
  974MOL0     H31465  11.472  12.501   2.928  1.7173 -2.7074 -1.7852
  974MOL0     H31466  11.327  12.322   2.738 -2.7593  2.5073  1.0368
  974MOL0     H31467  11.501  12.352   2.748  1.8711  2.2132  0.6201
  974MOL0     H31468  11.429  12.453   2.547  1.7885  0.7665  0.3374
  974MOL0     H31469  11.293  12.536   2.644  0.4705 -0.1813  0.0939
  974MOL0     H31470  10.996  12.092   3.537 -3.8001 -0.0839  3.9161
  974MOL0     H31471  10.786  12.012   3.618 -3.4155  0.6972 -0.4278
  974MOL0     H31472  10.326  12.000   3.534  0.5607  0.1840 -3.0861
  974MOL0     H31473  10.112  11.945   3.598 -1.1002 -0.0982 -1.9391
  974MOL0     H31474  10.472  11.880   5.244 -1.3552  0.1083  3.1979
  974MOL0     H31475  10.331  11.853   5.434  1.6901 -0.9566  0.7192
  974MOL0     H31476  10.039  11.818   5.626  0.4175  1.1161  1.0617
  974MOL0     H31477   9.938  11.866   5.814  0.3088 -0.4263 -0.6555
  974MOL0     H31478  10.019  11.856   6.054 -0.1180  1.6930  2.3080
  974MOL0     H31479   9.981  11.764   6.200  0.7142 -0.0592  0.5922
  974MOL0     H31480   9.755  11.867   6.210  1.1439 -2.6391 -0.0688
  974MOL0     H31481   9.809  11.971   6.064  2.6231  0.8121 -0.8675
  974MOL0     H31482   9.972  12.091   6.185  3.4987 -1.0054  3.3224
  974MOL0     H31483   9.942  11.981   6.328 -1.5869 -1.1764 -0.5448
  974MOL0     H31484   9.741  12.180   6.195  0.9111 -1.3743 -1.8636
  974MOL0     H31485   9.717  12.066   6.337  0.0080  1.8689  0.5984
  974MOL0     H31486   9.942  12.341   6.543 -0.3677  1.5104 -0.5752
  974MOL0     H31487  10.001  11.494   5.997  0.0329  0.0289 -0.1913
  974MOL0     H31488  10.126  11.309   5.737 -0.4029 -1.2118  1.5922
  974MOL0     H31489  10.264  11.372   5.821 -0.0602  0.2854 -2.2483
  974MOL0     H31490  10.115  11.338   5.911 -1.9830 -3.1435 -1.4421
  975MOL0     O31491   4.183   7.949  11.272  0.6464  0.3736 -0.2535
  975MOL0     C31492   4.222   7.967  11.385 -0.9946 -0.2695  0.1747
  975MOL0     O31493   4.352   7.990  11.426  0.9096  0.2523 -0.4569
  975MOL0     C31494   4.460   7.954  11.352  0.6448  0.8088  0.6221
  975MOL0     C31495   4.461   7.930  11.210  0.5346 -0.2005 -1.3303
  975MOL0     C31496   4.590   7.901  11.154 -0.4168  0.0687 -0.5775
  975MOL0     C31497   4.701   7.896  11.232 -1.2952 -0.1997 -0.0153
  975MOL0     O31498   4.833   7.885  11.187  0.7626  0.2583  0.4698
  975MOL0     C31499   4.847   7.801  11.065 -0.5269  0.2767 -0.9518
  975MOL0     C31500   4.985   7.764  11.036 -0.8608 -0.1104 -0.4427
  975MOL0     C31501   5.004   7.673  10.899  0.0333  0.0441 -0.8195
  975MOL0     C31502   5.152   7.625  10.878  0.2789 -0.0212 -0.6063
  975MOL0     C31503   5.156   7.545  10.752  0.3444 -0.0595 -0.0085
  975MOL0     C31504   5.287   7.476  10.724 -0.0762  0.9491  0.0375
  975MOL0     C31505   5.281   7.383  10.597  0.0314 -0.0555 -0.7461
  975MOL0     C31506   5.377   7.275  10.611 -0.3459  0.4056  0.0975
  975MOL0     N31507   5.315   7.143  10.652 -0.4518 -0.3349 -0.1826
  975MOL0     C31508   5.198   7.079  10.607  0.2936  0.3589  0.5207
  975MOL0     C31509   5.196   6.964  10.668  0.2742  0.3855  0.2101
  975MOL0     C31510   5.090   6.862  10.643  0.2216 -0.5811 -0.5856
  975MOL0     C31511   4.977   6.860  10.739  0.5797 -0.2542  0.1219
  975MOL0     C31512   5.002   6.823  10.884 -0.1009 -0.2999 -0.0490
  975MOL0     C31513   4.887   6.859  10.970 -0.2660  0.6274  0.3625
  975MOL0     O31514   4.890   6.999  10.990 -0.4178 -0.1008 -0.0144
  975MOL0     C31515   4.769   7.051  11.011 -0.1282 -0.2649  0.1820
  975MOL0     C31516   4.721   7.073  11.149  0.3658 -1.3143  0.1415
  975MOL0     C31517   4.591   7.122  11.173 -0.1345 -0.0569  0.5662
  975MOL0     C31518   4.505   7.152  11.064 -0.5183 -0.5637 -0.4835
  975MOL0     C31519   4.375   7.198  11.100  0.2993  0.1966  0.1234
  975MOL0     O31520   4.319   7.280  11.011 -0.1162  0.2831  0.5292
  975MOL0     C31521   4.209   7.353  11.040  0.0956  0.0384 -0.8077
  975MOL0     C31522   4.085   7.340  10.961  1.1263 -1.1784 -0.0887
  975MOL0     C31523   3.969   7.423  10.985 -0.2583 -0.0111  0.9115
  975MOL0     C31524   3.974   7.533  11.069 -0.1318 -0.7857  0.0379
  975MOL0     O31525   3.859   7.596  11.093 -1.0149  0.2195 -0.0704
  975MOL0     C31526   3.861   7.716  11.165 -0.1055  0.0898 -0.8179
  975MOL0     C31527   3.726   7.783  11.194 -0.2972 -0.2461 -0.3468
  975MOL0     C31528   3.606   7.773  11.094 -0.2382  0.4220 -1.2120
  975MOL0     C31529   3.638   7.852  10.960 -0.6825  0.6360 -0.1723
  975MOL0     C31530   3.514   7.863  10.865 -0.1077 -0.2746  1.3044
  975MOL0     C31531   3.550   7.941  10.739 -0.0630 -0.3379 -0.8570
  975MOL0     C31532   3.459   7.936  10.626  0.1474  0.8130 -0.1608
  975MOL0     C31533   3.311   7.974  10.673 -0.1642 -0.1163  0.0526
  975MOL0    Cl31534   3.280   8.140  10.719  0.1858 -0.0680  0.0365
  975MOL0     C31535   4.100   7.556  11.137 -0.0919 -0.4373  0.8236
  975MOL0     C31536   4.208   7.464  11.130  0.4119  0.3262 -0.1452
  975MOL0     O31537   4.335   7.174  11.216  0.0773 -0.2448  0.3908
  975MOL0     C31538   4.546   7.131  10.931  0.0493 -0.8280 -0.3351
  975MOL0     C31539   4.681   7.084  10.899 -0.0594  0.4245 -0.1267
  975MOL0     N31540   5.288   6.971  10.774  0.2415 -1.1002  0.1346
  975MOL0     N31541   5.360   7.071  10.759  0.5383  0.4913 -0.0118
  975MOL0     C31542   4.699   7.939  11.363 -0.1437 -0.3045  0.5868
  975MOL0     C31543   4.576   7.971  11.420 -0.2147  0.2654 -0.2895
  975MOL0     C31544   4.116   7.970  11.494  0.2595 -0.3906 -0.0359
  975MOL0     C31545   4.171   7.962  11.629  0.1309 -0.2339 -0.2469
  975MOL0     C31546   4.095   7.983  11.742 -0.7356 -0.6752  0.0681
  975MOL0     C31547   3.959   8.012  11.728 -0.5968  0.1333  0.2863
  975MOL0     O31548   3.879   8.022  11.836  0.5418  0.5656 -0.0227
  975MOL0     C31549   3.936   8.049  11.969 -0.3394  0.0140  0.5920
  975MOL0     C31550   3.816   8.098  12.061  0.1160 -0.1991 -0.1363
  975MOL0     C31551   3.726   7.991  12.112  0.4268  1.0141  0.0138
  975MOL0     C31552   3.599   7.967  12.025 -0.2567  0.4337  0.2598
  975MOL0     C31553   3.523   7.862  12.094  0.7375  0.7060 -0.5522
  975MOL0     C31554   3.451   7.780  12.147  0.1473  0.4566 -0.3776
  975MOL0     C31555   3.894   8.026  11.604 -0.9512 -0.3434 -0.0047
  975MOL0     C31556   3.976   8.006  11.486  0.5323 -0.8136 -0.4283
  975MOL0     C31557   3.901   8.038  11.364 -0.5608  0.6829 -0.1953
  975MOL0     H31558   4.373   7.928  11.146 -0.6987 -1.8693  0.3062
  975MOL0     H31559   4.601   7.863  11.053  1.0232 -1.2334  0.0332
  975MOL0     H31560   4.801   7.703  11.081  1.7621 -1.1784 -2.7013
  975MOL0     H31561   4.810   7.842  10.971  1.5469 -2.1695 -2.9998
  975MOL0     H31562   5.023   7.695  11.112 -1.9980 -2.2259 -1.6859
  975MOL0     H31563   5.039   7.859  11.034 -1.3958  0.2745  1.5260
  975MOL0     H31564   4.970   7.727  10.810  0.5149  0.4454 -0.7656
  975MOL0     H31565   4.939   7.586  10.907 -0.9623  0.9435  2.6868
  975MOL0     H31566   5.225   7.706  10.874 -0.8027  1.0758  0.8369
  975MOL0     H31567   5.189   7.570  10.964 -2.1627  1.2061  1.3538
  975MOL0     H31568   5.079   7.468  10.762 -0.4064  0.8434  1.5155
  975MOL0     H31569   5.141   7.614  10.669  1.1429  1.3023  0.9326
  975MOL0     H31570   5.369   7.547  10.724 -0.1459  1.0610  1.6373
  975MOL0     H31571   5.301   7.407  10.808 -0.5938 -1.6594 -1.8659
  975MOL0     H31572   5.302   7.439  10.506  0.5887 -1.2468 -1.3720
  975MOL0     H31573   5.180   7.344  10.588  0.3051 -0.9942  0.0004
  975MOL0     H31574   5.420   7.247  10.515  1.6232 -0.6834  1.2359
  975MOL0     H31575   5.465   7.298  10.672  0.1578  1.2488 -0.9109
  975MOL0     H31576   5.137   7.109  10.523 -2.5404 -4.9983  0.2326
  975MOL0     H31577   5.048   6.875  10.543 -2.1040  1.4585  0.5864
  975MOL0     H31578   5.131   6.760  10.650 -1.1676 -1.0745  0.8660
  975MOL0     H31579   4.920   6.952  10.720  0.4320 -0.4852 -0.6077
  975MOL0     H31580   4.904   6.781  10.717 -1.7674  0.8881  3.0781
  975MOL0     H31581   5.082   6.887  10.923 -1.0989  0.2946  1.0826
  975MOL0     H31582   5.043   6.722  10.896  4.8433  1.5030  0.4872
  975MOL0     H31583   4.892   6.800  11.063  0.4710  1.3545  0.7976
  975MOL0     H31584   4.802   6.818  10.914 -0.1352  0.2007  0.4686
  975MOL0     H31585   4.795   7.044  11.223  2.7672  0.7165 -1.3160
  975MOL0     H31586   4.557   7.138  11.275 -0.0716  2.8736  0.2329
  975MOL0     H31587   4.081   7.259  10.890 -1.8291 -2.9207  1.8133
  975MOL0     H31588   3.883   7.403  10.923 -0.5915 -0.6682  1.5692
  975MOL0     H31589   3.917   7.712  11.259  0.7442  0.2091 -1.3091
  975MOL0     H31590   3.918   7.784  11.101  1.8159  1.4457  2.1637
  975MOL0     H31591   3.685   7.744  11.287 -1.6408 -0.9883 -1.2170
  975MOL0     H31592   3.735   7.890  11.214 -3.0558 -0.0332  0.1390
  975MOL0     H31593   3.572   7.671  11.074  0.3278 -0.9091  3.3858
  975MOL0     H31594   3.525   7.817  11.153  0.5469 -1.3911  1.4229
  975MOL0     H31595   3.721   7.798  10.913  1.7755  3.5615  0.4867
  975MOL0     H31596   3.676   7.952  10.981  1.8776 -0.0822 -0.9539
  975MOL0     H31597   3.426   7.907  10.914  0.8836  1.5658  1.5217
  975MOL0     H31598   3.487   7.761  10.834  0.6081 -0.4609  1.2825
  975MOL0     H31599   3.559   8.046  10.767 -0.5124 -1.0249  2.2536
  975MOL0     H31600   3.647   7.904  10.703  0.0810  0.2780 -1.1034
  975MOL0     H31601   3.450   7.840  10.575 -3.2869  1.9271 -1.9711
  975MOL0     H31602   3.495   8.005  10.548 -0.7538  2.3353  0.7188
  975MOL0     H31603   3.244   7.944  10.592  1.1599 -2.7235 -0.1845
  975MOL0     H31604   3.279   7.900  10.748 -0.6134 -2.6819 -2.5092
  975MOL0     H31605   4.110   7.629  11.216  3.0731 -3.1751  3.2730
  975MOL0     H31606   4.296   7.478  11.192  0.8887 -0.2340 -0.6913
  975MOL0     H31607   4.481   7.142  10.845  3.3695 -4.2396 -3.6634
  975MOL0     H31608   4.721   7.058  10.802  0.5960 -0.9597  0.4860
  975MOL0     H31609   4.796   7.955  11.409  0.4316 -0.1986 -0.6324
  975MOL0     H31610   4.583   8.011  11.521 -4.8485 -1.0462  0.8004
  975MOL0     H31611   4.276   7.939  11.643  0.2209 -1.5883 -2.6170
  975MOL0     H31612   4.143   7.971  11.839 -1.2446  0.5057  0.4866
  975MOL0     H31613   4.015   8.125  11.967  1.7834 -2.0497 -1.4933
  975MOL0     H31614   3.981   7.955  12.005  0.6727  0.1967 -0.1325
  975MOL0     H31615   3.761   8.173  12.003  0.0237  0.0818  0.3153
  975MOL0     H31616   3.852   8.153  12.148  0.9096  1.8661 -1.6882
  975MOL0     H31617   3.704   8.021  12.215  3.1164  0.4110  0.8221
  975MOL0     H31618   3.782   7.897  12.120 -3.5677 -1.4233  4.2571
  975MOL0     H31619   3.533   8.052  12.002 -2.4563  0.4876  5.4638
  975MOL0     H31620   3.633   7.924  11.930 -1.7167  0.9898 -0.5525
  975MOL0     H31621   3.393   7.718  12.212  0.3233  0.7997  0.1071
  975MOL0     H31622   3.786   8.037  11.594 -0.6846  2.3161 -0.5440
  975MOL0     H31623   3.936   8.123  11.304 -0.1642  3.0376  3.0918
  975MOL0     H31624   3.911   7.951  11.299  0.8224  0.3302  0.4538
  975MOL0     H31625   3.799   8.063  11.396 -0.0668 -1.2067  3.3856
  976MOL0     O31626   1.092   9.675   4.181 -0.7796  0.2596 -0.1326
  976MOL0     C31627   1.175   9.616   4.102 -0.0358 -0.6460 -0.6072
  976MOL0     O31628   1.157   9.596   3.973 -0.4599 -0.3267  0.8620
  976MOL0     C31629   1.039   9.591   3.908  0.5876 -0.4378  0.9064
  976MOL0     C31630   0.926   9.535   3.972  0.2290 -0.2395  0.7420
  976MOL0     C31631   0.798   9.529   3.906 -0.8791 -0.4406 -0.2518
  976MOL0     C31632   0.788   9.568   3.768  0.5138  0.0232 -0.5598
  976MOL0     O31633   0.681   9.563   3.689 -0.6254 -0.1803 -0.3960
  976MOL0     C31634   0.580   9.474   3.721 -0.0398 -0.9214 -0.4850
  976MOL0     C31635   0.464   9.519   3.628  0.0766 -0.5657  0.4768
  976MOL0     C31636   0.322   9.491   3.688  0.6454 -0.9044 -0.0785
  976MOL0     C31637   0.208   9.499   3.585 -0.0648  0.0454 -0.6342
  976MOL0     C31638   0.066   9.505   3.651  0.3371  0.6716 -0.9944
  976MOL0     C31639  -0.048   9.530   3.549  0.0007  0.2867  0.8604
  976MOL0     C31640  -0.185   9.508   3.614  0.6879 -0.1944 -0.0046
  976MOL0     C31641  -0.303   9.530   3.511  0.6635 -0.8602 -0.1524
  976MOL0     N31642  -0.335   9.413   3.421 -0.3575  0.7247  0.0631
  976MOL0     C31643  -0.344   9.428   3.289  0.1969 -0.0976  0.3565
  976MOL0     C31644  -0.368   9.303   3.242  0.5363 -0.0474 -0.4604
  976MOL0     C31645  -0.391   9.257   3.103 -0.4003 -0.0658  0.8653
  976MOL0     C31646  -0.360   9.110   3.069 -0.3036  0.2114 -0.5081
  976MOL0     C31647  -0.326   9.088   2.919 -1.0866 -0.0411 -0.2200
  976MOL0     C31648  -0.441   9.043   2.829  0.5619 -0.6833 -0.4555
  976MOL0     O31649  -0.534   9.151   2.826 -0.3026  0.2938  0.0195
  976MOL0     C31650  -0.655   9.134   2.874  0.4051 -0.3267 -0.1444
  976MOL0     C31651  -0.716   9.007   2.875  0.0500 -0.4879 -0.2068
  976MOL0     C31652  -0.844   8.987   2.923  0.8369 -0.4693 -0.0912
  976MOL0     C31653  -0.915   9.095   2.986  0.5917 -0.1547  0.4358
  976MOL0     C31654  -1.043   9.066   3.063 -0.0637 -0.6943 -0.7693
  976MOL0     O31655  -1.076   9.172   3.139  0.2561  0.3459  0.9309
  976MOL0     C31656  -1.192   9.155   3.215 -0.0827  0.1682  0.2871
  976MOL0     C31657  -1.193   9.066   3.326  0.4580 -0.3791  0.8140
  976MOL0     C31658  -1.308   9.061   3.405 -0.1788 -0.3902 -0.2370
  976MOL0     C31659  -1.414   9.157   3.377  0.8773 -0.3697 -0.4800
  976MOL0     O31660  -1.522   9.151   3.462  0.9033  0.1749 -0.1015
  976MOL0     C31661  -1.568   9.267   3.525 -0.9042  0.2841 -0.9463
  976MOL0     C31662  -1.669   9.223   3.643 -0.4729 -0.9193  0.0036
  976MOL0     C31663  -1.725   9.352   3.706  0.2875 -0.3602  0.4842
  976MOL0     C31664  -1.796   9.315   3.838  1.0636  0.7514  0.0412
  976MOL0     C31665  -1.844   9.434   3.920  0.6314 -0.1362  0.4349
  976MOL0     C31666  -1.886   9.397   4.054  0.7051 -0.1149 -0.4136
  976MOL0     C31667  -2.023   9.318   4.046  0.2090  0.3357 -0.1013
  976MOL0     C31668  -2.140   9.394   4.099  0.1588  0.5842  0.4847
  976MOL0    Cl31669  -2.121   9.401   4.276 -0.1908  0.2374  0.5080
  976MOL0     C31670  -1.408   9.247   3.272 -0.4274  0.2447  0.5103
  976MOL0     C31671  -1.293   9.240   3.190  0.9114 -0.2896  0.3367
  976MOL0     O31672  -1.115   8.966   3.038  0.1669 -0.2091  0.3425
  976MOL0     C31673  -0.855   9.221   2.978 -1.0317  0.5501  0.1005
  976MOL0     C31674  -0.731   9.238   2.920  0.8884 -0.2089 -0.6031
  976MOL0     N31675  -0.385   9.215   3.352  0.2011 -0.0341 -0.9434
  976MOL0     N31676  -0.348   9.281   3.457 -0.6631  0.4071  0.1080
  976MOL0     C31677   0.906   9.609   3.707 -1.0589 -0.8255  0.5353
  976MOL0     C31678   1.026   9.614   3.771 -0.1782 -1.5359 -0.3504
  976MOL0     C31679   1.297   9.548   4.157  0.3571  1.3179 -0.4746
  976MOL0     C31680   1.324   9.566   4.293 -0.1746 -0.2435  0.0956
  976MOL0     C31681   1.438   9.528   4.362  0.2946 -0.7408  0.6707
  976MOL0     C31682   1.530   9.450   4.289  0.6757 -0.4335  0.2365
  976MOL0     O31683   1.633   9.395   4.354  0.5005 -0.4684 -0.2853
  976MOL0     C31684   1.730   9.306   4.277  0.1976  0.3328 -0.6604
  976MOL0     C31685   1.839   9.268   4.378 -0.2948  0.4153 -0.7071
  976MOL0     C31686   1.908   9.398   4.431  0.9487  0.4872  0.3810
  976MOL0     C31687   2.035   9.370   4.512  0.5658 -0.3944 -0.5134
  976MOL0     C31688   1.990   9.278   4.626  0.4848 -1.3938  0.2924
  976MOL0     C31689   1.992   9.190   4.709 -0.0631 -0.9105  0.3782
  976MOL0     C31690   1.502   9.415   4.148 -0.1292 -1.3415 -0.5768
  976MOL0     C31691   1.386   9.474   4.082 -0.9349 -0.3646 -1.5475
  976MOL0     C31692   1.375   9.438   3.937 -0.2955 -0.3594 -0.2221
  976MOL0     H31693   0.925   9.505   4.076  3.9516  1.2419  1.3556
  976MOL0     H31694   0.716   9.491   3.966  1.0331 -2.1572  1.3988
  976MOL0     H31695   0.614   9.371   3.710  0.3123 -1.3733  3.5449
  976MOL0     H31696   0.553   9.487   3.826  2.9817 -2.1440  0.5614
  976MOL0     H31697   0.477   9.485   3.525  1.0544  4.2643 -1.2888
  976MOL0     H31698   0.474   9.628   3.619  1.6645 -0.7168  0.1259
  976MOL0     H31699   0.300   9.558   3.772 -0.4434 -0.1642 -0.9243
  976MOL0     H31700   0.317   9.391   3.731  2.1711  0.7538  4.5938
  976MOL0     H31701   0.221   9.595   3.534  0.7385  2.0492  2.9956
  976MOL0     H31702   0.216   9.410   3.523  2.8028 -0.3922  0.2102
  976MOL0     H31703   0.056   9.405   3.694  3.7562  0.9907  0.8880
  976MOL0     H31704   0.061   9.572   3.737  0.5767  1.0572 -1.2802
  976MOL0     H31705  -0.046   9.635   3.518  2.1264 -0.7314 -3.3173
  976MOL0     H31706  -0.038   9.459   3.466  2.2051 -0.1757  1.4524
  976MOL0     H31707  -0.192   9.587   3.689 -1.5652 -1.3102  1.0684
  976MOL0     H31708  -0.210   9.407   3.646 -2.2993  0.7011  0.7696
  976MOL0     H31709  -0.390   9.555   3.572  1.3517 -2.6575  1.7053
  976MOL0     H31710  -0.294   9.625   3.458  0.5158  0.4010  1.9720
  976MOL0     H31711  -0.326   9.502   3.212 -1.7670  0.4571  0.3662
  976MOL0     H31712  -0.490   9.289   3.069 -0.2766  0.5936  1.1149
  976MOL0     H31713  -0.308   9.309   3.053 -0.3841  2.0251  2.8920
  976MOL0     H31714  -0.278   9.091   3.139  0.2047  0.9349 -0.8910
  976MOL0     H31715  -0.435   9.040   3.106 -0.9364  0.6896 -0.8705
  976MOL0     H31716  -0.256   9.004   2.917 -2.3052 -1.0620 -1.5380
  976MOL0     H31717  -0.278   9.172   2.868 -0.4111  0.7283  1.5987
  976MOL0     H31718  -0.482   8.954   2.877 -0.9265 -0.3201 -1.0029
  976MOL0     H31719  -0.417   9.019   2.725 -0.7579 -3.3449 -0.2174
  976MOL0     H31720  -0.657   8.927   2.832  4.0316  1.8053  0.5222
  976MOL0     H31721  -0.901   8.898   2.903 -0.4056  0.0462  0.9699
  976MOL0     H31722  -1.106   9.001   3.322 -0.5398 -1.7571  0.7391
  976MOL0     H31723  -1.307   9.002   3.496 -1.5790 -2.2234 -1.3410
  976MOL0     H31724  -1.482   9.322   3.566 -0.1790 -0.9862 -0.6965
  976MOL0     H31725  -1.623   9.332   3.457 -1.0367  0.9472 -0.2153
  976MOL0     H31726  -1.747   9.164   3.594  0.7851 -0.8077 -2.2738
  976MOL0     H31727  -1.614   9.170   3.721 -2.7784 -0.0977  2.3494
  976MOL0     H31728  -1.649   9.430   3.712 -0.3790  0.4931 -1.2103
  976MOL0     H31729  -1.801   9.398   3.642 -0.9717 -3.0663 -0.0962
  976MOL0     H31730  -1.736   9.250   3.903  0.0501  0.1597  0.4193
  976MOL0     H31731  -1.878   9.255   3.798  1.5930  0.4805 -0.6476
  976MOL0     H31732  -1.929   9.497   3.893  1.5108  0.8679 -0.0858
  976MOL0     H31733  -1.762   9.506   3.932  1.1976 -0.2495 -2.1753
  976MOL0     H31734  -1.804   9.334   4.090  0.8750 -1.5366 -2.9893
  976MOL0     H31735  -1.893   9.484   4.119 -3.0850 -0.2441 -0.4258
  976MOL0     H31736  -2.015   9.220   4.094 -1.2095  0.2280 -0.0627
  976MOL0     H31737  -2.040   9.296   3.940  1.1619  0.2717 -0.2514
  976MOL0     H31738  -2.150   9.495   4.058  0.4490  0.3596 -0.1569
  976MOL0     H31739  -2.238   9.350   4.078  0.3480  0.0781  0.6515
  976MOL0     H31740  -1.494   9.311   3.257  0.1411  1.0442  0.5796
  976MOL0     H31741  -1.301   9.312   3.109 -1.9594 -0.1935  0.5925
  976MOL0     H31742  -0.889   9.315   3.021  1.6890  2.1967 -1.0683
  976MOL0     H31743  -0.695   9.340   2.912 -2.8770  1.2117 -1.7886
  976MOL0     H31744   0.895   9.637   3.602  0.0779 -1.0058  0.3502
  976MOL0     H31745   1.114   9.648   3.717 -1.8498 -0.8341 -2.7921
  976MOL0     H31746   1.248   9.624   4.344  1.1361  1.4667  0.1968
  976MOL0     H31747   1.468   9.568   4.458  3.0182 -1.1557  0.0718
  976MOL0     H31748   1.773   9.365   4.195  2.0473 -1.4195 -1.0314
  976MOL0     H31749   1.683   9.217   4.234  0.4055 -0.6722  1.1278
  976MOL0     H31750   1.921   9.220   4.324  2.2331  0.3807  2.8144
  976MOL0     H31751   1.797   9.201   4.454 -0.0351  1.1768  0.1334
  976MOL0     H31752   1.836   9.455   4.490 -1.4541 -0.4785 -1.4671
  976MOL0     H31753   1.940   9.452   4.342  0.1625 -1.0901 -0.9059
  976MOL0     H31754   2.114   9.320   4.455 -0.2140 -3.6547  1.0349
  976MOL0     H31755   2.071   9.465   4.553 -0.2485  0.1936 -1.1100
  976MOL0     H31756   1.978   9.113   4.781 -1.6254  0.4801  1.6479
  976MOL0     H31757   1.567   9.352   4.088 -0.6237 -0.1432 -2.4429
  976MOL0     H31758   1.287   9.376   3.918  0.9474 -1.7016 -2.0039
  976MOL0     H31759   1.381   9.524   3.869  1.4848  0.5301  0.9812
  976MOL0     H31760   1.465   9.379   3.914  0.6135  0.2168  1.6472
  977MOL0     O31761   2.938   4.109   4.877  0.0950  0.1416 -0.1483
  977MOL0     C31762   2.962   4.008   4.937  0.1070  0.0785  0.2518
  977MOL0     O31763   2.866   3.927   5.003  0.1315 -0.3370  0.4340
  977MOL0     C31764   2.751   3.995   5.041 -1.2636  0.1566  0.7113
  977MOL0     C31765   2.644   3.992   4.951 -0.1331  0.5239  0.4488
  977MOL0     C31766   2.525   4.058   4.989 -0.4466  0.3942  0.3077
  977MOL0     C31767   2.515   4.125   5.108  0.6720 -0.3595  0.4511
  977MOL0     O31768   2.409   4.204   5.151  0.2184 -0.8490 -0.3266
  977MOL0     C31769   2.290   4.176   5.079 -0.2934  0.6725 -1.0036
  977MOL0     C31770   2.157   4.244   5.141 -1.1554 -0.7878  0.5126
  977MOL0     C31771   2.031   4.184   5.096 -0.0780 -0.7020  0.1164
  977MOL0     C31772   1.951   4.285   5.018  0.1324  0.3422  1.6689
  977MOL0     C31773   1.843   4.218   4.931 -0.5974 -0.2239 -0.4406
  977MOL0     C31774   1.735   4.146   5.012 -0.1722 -0.4260  0.6045
  977MOL0     C31775   1.755   3.993   5.037  0.0764  0.1046  0.6800
  977MOL0     C31776   1.778   3.904   4.917 -1.0129 -0.3533  1.0236
  977MOL0     N31777   1.646   3.895   4.854  0.4807  1.0354 -0.6810
  977MOL0     C31778   1.545   3.802   4.856 -0.3740 -0.3904 -0.6417
  977MOL0     C31779   1.446   3.841   4.772 -1.2169  0.7375 -0.8328
  977MOL0     C31780   1.310   3.788   4.752  0.2732  0.7742 -0.3769
  977MOL0     C31781   1.306   3.634   4.750  0.5689  0.6583  0.8884
  977MOL0     C31782   1.182   3.582   4.668 -0.1838 -0.0847  0.0392
  977MOL0     C31783   1.202   3.609   4.520  0.6849  0.6809 -0.2378
  977MOL0     O31784   1.071   3.599   4.471 -0.3677 -0.0689  0.9200
  977MOL0     C31785   1.051   3.594   4.338  0.4073 -0.9670  0.4218
  977MOL0     C31786   0.922   3.638   4.295  0.2027 -0.9962  0.0764
  977MOL0     C31787   0.897   3.653   4.161 -0.1075  0.7266 -0.1579
  977MOL0     C31788   0.986   3.607   4.059 -0.2472 -0.6641 -0.1838
  977MOL0     C31789   0.956   3.628   3.919  0.7673 -0.7927 -0.0501
  977MOL0     O31790   1.064   3.643   3.836 -0.8584 -0.1160  0.7360
  977MOL0     C31791   1.056   3.750   3.754 -0.8069  0.0736 -0.2942
  977MOL0     C31792   1.013   3.877   3.791  0.8824  0.8196  0.2331
  977MOL0     C31793   1.010   3.978   3.690 -0.8550 -0.5470 -0.4081
  977MOL0     C31794   1.067   3.959   3.569 -0.6812 -0.7627  1.5030
  977MOL0     O31795   1.059   4.050   3.465 -0.0775  0.0515  0.1518
  977MOL0     C31796   0.929   4.102   3.438  0.1525  0.3094  0.4634
  977MOL0     C31797   0.920   4.174   3.304  0.5846 -0.0985 -0.7941
  977MOL0     C31798   0.950   4.084   3.186  0.9017  0.1822  0.8819
  977MOL0     C31799   0.890   4.143   3.057  0.2656  0.8193  0.3314
  977MOL0     C31800   0.964   4.078   2.945  0.4167  0.5291  0.4618
  977MOL0     C31801   0.880   4.089   2.818  1.0045  0.1368 -0.6585
  977MOL0     C31802   0.950   4.026   2.698 -0.0996  0.6223  0.0174
  977MOL0     C31803   0.863   4.047   2.573  0.2980  0.5519 -0.0817
  977MOL0    Cl31804   0.967   4.003   2.427  0.3863  0.1199  0.3257
  977MOL0     C31805   1.131   3.837   3.544 -0.2765  0.0952  0.0471
  977MOL0     C31806   1.116   3.728   3.633 -0.9411 -0.1568  0.5987
  977MOL0     O31807   0.838   3.633   3.874 -0.2367 -0.0129 -0.2919
  977MOL0     C31808   1.111   3.551   4.096  0.3037 -0.5740  0.3248
  977MOL0     C31809   1.146   3.556   4.234  0.4419  0.0487 -0.0486
  977MOL0     N31810   1.491   3.962   4.711  0.5463 -0.3508  0.4498
  977MOL0     N31811   1.603   3.989   4.763  0.0542  0.0951 -0.9150
  977MOL0     C31812   2.627   4.127   5.192 -0.0587 -0.4806 -0.1772
  977MOL0     C31813   2.751   4.065   5.157  1.1740 -0.6614  1.0770
  977MOL0     C31814   3.105   3.974   4.939  0.2941 -0.0208  0.0939
  977MOL0     C31815   3.197   4.070   4.905 -0.0549  0.5378  0.5061
  977MOL0     C31816   3.336   4.048   4.918  0.0695  0.0064  0.4269
  977MOL0     C31817   3.388   3.929   4.964  0.4397 -0.8334 -0.1158
  977MOL0     O31818   3.526   3.885   4.957  0.6600  0.0751  0.1681
  977MOL0     C31819   3.607   3.921   4.847 -0.8707 -0.0564  0.3156
  977MOL0     C31820   3.570   3.872   4.716 -0.1903 -0.0489 -0.2164
  977MOL0     C31821   3.562   3.725   4.692  0.3252 -0.3516  0.1084
  977MOL0     C31822   3.690   3.653   4.638  0.1317  0.2765 -0.3980
  977MOL0     C31823   3.724   3.698   4.510  1.1313 -0.3953  0.6007
  977MOL0     C31824   3.758   3.744   4.401 -1.1618 -0.2577 -0.6694
  977MOL0     C31825   3.295   3.829   5.001  0.0555 -0.1968  0.2672
  977MOL0     C31826   3.155   3.848   4.979  0.0318 -0.2058 -0.5864
  977MOL0     C31827   3.073   3.732   5.020  0.3616  0.5564  0.4393
  977MOL0     H31828   2.649   3.954   4.849 -1.3743  0.5067  0.3784
  977MOL0     H31829   2.447   4.070   4.914 -0.3437  1.0192  0.2905
  977MOL0     H31830   2.285   4.207   4.974 -2.7595  1.1013 -0.8088
  977MOL0     H31831   2.273   4.068   5.089 -3.3687  1.0311 -1.5091
  977MOL0     H31832   2.162   4.350   5.116  1.8505  0.1270  4.0398
  977MOL0     H31833   2.162   4.243   5.250 -1.6646  1.3559  0.5900
  977MOL0     H31834   1.968   4.147   5.177 -0.3923  3.3564  1.9965
  977MOL0     H31835   2.057   4.098   5.033  1.2454 -2.6738  3.1687
  977MOL0     H31836   1.917   4.363   5.087  2.4283  1.3722  1.7311
  977MOL0     H31837   2.018   4.337   4.949  0.5614 -2.2726 -0.0614
  977MOL0     H31838   1.801   4.302   4.875 -0.2440 -0.0155 -0.3940
  977MOL0     H31839   1.875   4.162   4.842  1.0394  0.1230 -0.1037
  977MOL0     H31840   1.707   4.204   5.101 -1.7861  2.3384 -1.5101
  977MOL0     H31841   1.643   4.145   4.953  0.5972  2.3009 -0.8257
  977MOL0     H31842   1.665   3.966   5.092 -0.0730 -1.2538 -0.1969
  977MOL0     H31843   1.845   3.979   5.099  1.3929 -0.8923 -1.3455
  977MOL0     H31844   1.845   3.940   4.838 -2.6335 -2.0854 -1.3001
  977MOL0     H31845   1.827   3.809   4.941  1.1945  0.9371  1.9293
  977MOL0     H31846   1.548   3.716   4.923  0.4646  0.6166  0.6892
  977MOL0     H31847   1.231   3.827   4.817 -0.6567 -2.4755  0.6698
  977MOL0     H31848   1.293   3.828   4.651 -2.4694  0.3573 -0.1665
  977MOL0     H31849   1.400   3.599   4.705  0.7341  0.6572  1.2346
  977MOL0     H31850   1.307   3.602   4.854  1.1321 -0.8098  0.4652
  977MOL0     H31851   1.089   3.631   4.696 -2.0893 -0.0342 -5.2679
  977MOL0     H31852   1.169   3.476   4.693  1.6613 -0.0190  1.5732
  977MOL0     H31853   1.262   3.528   4.477 -0.7473  1.6915 -4.7085
  977MOL0     H31854   1.239   3.710   4.499  0.4957  1.0688  1.1818
  977MOL0     H31855   0.845   3.664   4.367  0.6489  0.9550 -0.1054
  977MOL0     H31856   0.802   3.692   4.126 -1.0579 -2.0710 -1.0004
  977MOL0     H31857   0.964   3.906   3.884  1.4851  1.1482  0.4538
  977MOL0     H31858   0.965   4.074   3.713 -1.0636 -1.2003  2.2725
  977MOL0     H31859   0.860   4.019   3.417  0.8355  0.1574 -1.3285
  977MOL0     H31860   0.890   4.171   3.513 -1.0576 -2.7127  2.8532
  977MOL0     H31861   0.818   4.213   3.310  1.0218  0.9708  0.0537
  977MOL0     H31862   0.992   4.256   3.311 -2.5202  2.8835 -0.8060
  977MOL0     H31863   1.059   4.073   3.182  0.7097 -1.9505 -0.3396
  977MOL0     H31864   0.915   3.981   3.202  2.4733 -0.7539 -1.2220
  977MOL0     H31865   0.885   4.251   3.041 -0.2410  1.0877  2.0838
  977MOL0     H31866   0.783   4.121   3.062  0.1656  1.2390  0.1141
  977MOL0     H31867   0.977   3.970   2.960 -0.6830  0.0819 -1.4979
  977MOL0     H31868   1.067   4.109   2.924  0.8404  0.0086  1.6139
  977MOL0     H31869   0.793   4.029   2.845  1.2371  1.6249  4.4626
  977MOL0     H31870   0.852   4.192   2.797 -4.6727 -0.7519  0.8137
  977MOL0     H31871   0.978   3.921   2.710  3.8611  1.4033 -0.9275
  977MOL0     H31872   1.048   4.072   2.684  1.7490 -2.9824 -0.0691
  977MOL0     H31873   0.771   3.989   2.570  0.4897  0.2678 -0.8590
  977MOL0     H31874   0.835   4.152   2.557  2.7050  2.1152  4.2207
  977MOL0     H31875   1.165   3.814   3.444  2.4160  2.7154  0.2104
  977MOL0     H31876   1.153   3.630   3.603  3.3595  1.3136  0.5207
  977MOL0     H31877   1.187   3.513   4.030 -1.7862 -4.2159 -0.2281
  977MOL0     H31878   1.247   3.521   4.253 -0.1141 -1.7720 -0.2455
  977MOL0     H31879   2.631   4.190   5.281  0.0139  1.5833 -1.5785
  977MOL0     H31880   2.827   4.056   5.234  1.9102  0.6212  0.5197
  977MOL0     H31881   3.173   4.163   4.855 -1.5124 -1.0650 -2.0068
  977MOL0     H31882   3.404   4.124   4.880  1.4765 -1.0164  0.8100
  977MOL0     H31883   3.701   3.873   4.875 -1.4529 -1.6227 -0.3030
  977MOL0     H31884   3.628   4.028   4.850 -0.2699 -0.1556 -0.1662
  977MOL0     H31885   3.643   3.908   4.643  0.3374  0.7466  0.6833
  977MOL0     H31886   3.470   3.909   4.694 -0.7619 -0.4915  1.4840
  977MOL0     H31887   3.481   3.690   4.627 -0.0173  1.0240 -0.2334
  977MOL0     H31888   3.542   3.674   4.787 -1.5022 -0.6730 -0.3939
  977MOL0     H31889   3.769   3.675   4.710 -0.1628 -2.9579  1.0954
  977MOL0     H31890   3.672   3.545   4.635 -3.5815  0.7721 -0.0919
  977MOL0     H31891   3.786   3.795   4.311 -1.3847 -0.7569 -1.0240
  977MOL0     H31892   3.341   3.746   5.053  2.1255  0.4745 -0.3868
  977MOL0     H31893   3.023   3.759   5.113  1.6641  2.7585  0.5822
  977MOL0     H31894   3.005   3.710   4.937  2.7422  3.4665 -2.5838
  977MOL0     H31895   3.131   3.641   5.037  0.7552  0.9074  1.0233
  978MOL0     O31896   6.474   7.219   5.421  0.6433 -0.1214 -0.5410
  978MOL0     C31897   6.505   7.155   5.520 -1.1400  0.4313 -0.2765
  978MOL0     O31898   6.461   7.175   5.647  0.3303  0.5180  0.1303
  978MOL0     C31899   6.340   7.237   5.657  0.8656  1.1507  0.3403
  978MOL0     C31900   6.225   7.179   5.592  0.0310  0.6254 -0.3770
  978MOL0     C31901   6.098   7.239   5.621  0.1045  0.4612  0.1875
  978MOL0     C31902   6.087   7.358   5.694  1.1223  0.1577 -0.5623
  978MOL0     O31903   5.975   7.422   5.729  0.2433  0.0141  0.1416
  978MOL0     C31904   5.974   7.571   5.761 -0.2309 -0.1837 -0.1379
  978MOL0     C31905   5.834   7.627   5.766 -0.5356  0.4999 -0.7923
  978MOL0     C31906   5.778   7.653   5.631  0.2612  0.1055  0.4525
  978MOL0     C31907   5.633   7.676   5.632 -0.7066 -0.1073  0.4399
  978MOL0     C31908   5.573   7.686   5.482 -0.4571 -0.3303 -0.0978
  978MOL0     C31909   5.437   7.755   5.489  0.5610 -0.7447  0.5508
  978MOL0     C31910   5.354   7.713   5.365  0.2810 -0.3635  0.3781
  978MOL0     C31911   5.213   7.759   5.373  0.2490  0.0640 -0.4061
  978MOL0     N31912   5.186   7.895   5.319  0.2692  0.9376  1.3785
  978MOL0     C31913   5.228   8.009   5.371  0.4685  0.0667  0.9457
  978MOL0     C31914   5.164   8.109   5.312  0.9063  0.7869 -0.7203
  978MOL0     C31915   5.166   8.252   5.359  0.1751  0.5453  0.4862
  978MOL0     C31916   5.056   8.280   5.457 -0.1678 -0.5397 -0.3361
  978MOL0     C31917   4.924   8.278   5.387 -0.2335  1.2778 -0.0492
  978MOL0     C31918   4.830   8.351   5.481  0.3928 -0.0354 -0.0101
  978MOL0     O31919   4.806   8.275   5.597  0.0695  0.3343  0.5718
  978MOL0     C31920   4.729   8.344   5.691  0.5427  0.2250  0.2421
  978MOL0     C31921   4.671   8.467   5.668  0.1035 -0.2025  0.7267
  978MOL0     C31922   4.609   8.537   5.764 -0.1521  0.8687 -0.3023
  978MOL0     C31923   4.569   8.474   5.890 -0.2262 -0.1151  1.1082
  978MOL0     C31924   4.497   8.555   5.986  0.5337  0.3095  0.6176
  978MOL0     O31925   4.437   8.476   6.081 -0.4992  0.1391  0.6046
  978MOL0     C31926   4.375   8.521   6.194  0.6159  0.0780  0.0182
  978MOL0     C31927   4.350   8.658   6.229  0.2155 -0.4427 -0.5867
  978MOL0     C31928   4.293   8.677   6.355 -0.0420 -0.8750 -0.8302
  978MOL0     C31929   4.256   8.585   6.449  0.1412 -0.5559 -0.1634
  978MOL0     O31930   4.213   8.621   6.577 -0.7366  0.3662 -0.7917
  978MOL0     C31931   4.154   8.520   6.664 -0.3051 -0.0209 -0.4840
  978MOL0     C31932   4.144   8.563   6.819  0.2289  0.7334  0.2793
  978MOL0     C31933   4.058   8.470   6.908 -0.3635  0.1167  0.7926
  978MOL0     C31934   4.060   8.514   7.057  0.5650  0.0819  0.5763
  978MOL0     C31935   3.977   8.425   7.152  0.6361  0.0929  0.7552
  978MOL0     C31936   3.930   8.513   7.270  0.7779  0.5685 -0.4371
  978MOL0     C31937   3.815   8.436   7.346  0.1187  0.0538 -0.1908
  978MOL0     C31938   3.780   8.519   7.462 -0.4921 -0.1682  0.5673
  978MOL0    Cl31939   3.925   8.505   7.573 -0.4235 -0.3606  0.3577
  978MOL0     C31940   4.271   8.457   6.404 -0.2825  1.0317 -0.3197
  978MOL0     C31941   4.342   8.423   6.287 -0.6401  0.3252 -1.0907
  978MOL0     O31942   4.483   8.674   5.971 -0.7448  0.7163  0.4179
  978MOL0     C31943   4.613   8.347   5.914 -0.4556 -0.4275  0.7881
  978MOL0     C31944   4.695   8.283   5.817  0.0793 -0.2064  0.6093
  978MOL0     N31945   5.100   8.052   5.200 -0.0981 -0.5866  0.1240
  978MOL0     N31946   5.104   7.921   5.218 -0.3280 -0.1893  0.5996
  978MOL0     C31947   6.212   7.412   5.746 -0.2115 -0.8562 -0.3065
  978MOL0     C31948   6.333   7.348   5.731 -0.2252  0.3146  1.2743
  978MOL0     C31949   6.598   7.047   5.503  0.0669 -0.1729  0.1722
  978MOL0     C31950   6.695   7.024   5.597  0.0012  0.2464 -0.8654
  978MOL0     C31951   6.777   6.909   5.596  0.1983 -0.3591  0.5158
  978MOL0     C31952   6.771   6.816   5.490  0.0603  0.5366 -1.1807
  978MOL0     O31953   6.848   6.701   5.472  1.0638 -0.0109 -0.0044
  978MOL0     C31954   6.962   6.687   5.556  0.2208 -0.1659 -0.2787
  978MOL0     C31955   7.059   6.605   5.474 -0.7144  0.1248  0.1476
  978MOL0     C31956   7.166   6.525   5.552 -0.5255  0.1849 -0.4733
  978MOL0     C31957   7.264   6.624   5.601  1.0794  0.5708  0.6714
  978MOL0     C31958   7.395   6.555   5.623  0.7339 -0.0120 -0.5333
  978MOL0     C31959   7.509   6.515   5.637  1.5203  0.1873  0.5657
  978MOL0     C31960   6.676   6.842   5.397  0.4541  0.1478 -0.4728
  978MOL0     C31961   6.591   6.953   5.400 -0.2943  1.3203 -0.1219
  978MOL0     C31962   6.504   6.958   5.271 -0.1146  0.0204 -0.4631
  978MOL0     H31963   6.241   7.091   5.530  1.8950  0.0269  0.8680
  978MOL0     H31964   6.009   7.200   5.572  0.7799 -1.0395  0.0657
  978MOL0     H31965   6.030   7.600   5.851 -0.1820  0.2468 -0.3065
  978MOL0     H31966   6.027   7.619   5.678  0.0339  0.7600  0.5634
  978MOL0     H31967   5.837   7.714   5.832 -1.3960 -1.3570  1.8461
  978MOL0     H31968   5.770   7.561   5.825  0.6030 -1.3004 -1.4641
  978MOL0     H31969   5.798   7.568   5.565 -0.6095 -0.0751  0.4060
  978MOL0     H31970   5.809   7.752   5.595  0.4138 -0.9024 -2.5285
  978MOL0     H31971   5.585   7.595   5.688 -3.0002  0.3282 -0.7732
  978MOL0     H31972   5.618   7.774   5.678  1.0601  1.2255 -1.6547
  978MOL0     H31973   5.646   7.726   5.412 -0.5370  0.3972  0.2171
  978MOL0     H31974   5.555   7.588   5.437  0.8864  0.8315 -3.4652
  978MOL0     H31975   5.385   7.714   5.576 -0.9909  4.8802  2.7517
  978MOL0     H31976   5.436   7.864   5.483 -1.0792 -0.8060 -2.0960
  978MOL0     H31977   5.343   7.604   5.359 -3.1972 -0.1431  0.8726
  978MOL0     H31978   5.396   7.748   5.271  0.2126  0.7509  0.7520
  978MOL0     H31979   5.159   7.689   5.308  1.8056 -1.8028  0.2267
  978MOL0     H31980   5.175   7.761   5.475 -0.2053 -0.9213 -0.5451
  978MOL0     H31981   5.289   8.020   5.460  1.8130  3.0205 -0.2249
  978MOL0     H31982   5.266   8.274   5.399  1.4970 -4.2561  0.5632
  978MOL0     H31983   5.150   8.315   5.271 -1.2000 -2.6472 -1.7571
  978MOL0     H31984   5.071   8.206   5.537  1.2311  0.1698  0.0865
  978MOL0     H31985   5.076   8.374   5.508  2.0241 -1.0760 -0.0709
  978MOL0     H31986   4.890   8.175   5.374  1.7818  0.3267  1.5535
  978MOL0     H31987   4.935   8.334   5.294  3.1720  0.1420 -0.4818
  978MOL0     H31988   4.735   8.380   5.433  0.0912  1.2609  1.2917
  978MOL0     H31989   4.876   8.448   5.502 -1.5774  1.1008 -0.6310
  978MOL0     H31990   4.692   8.527   5.579  1.4958 -0.9764  0.4968
  978MOL0     H31991   4.588   8.642   5.751  0.4579  1.2774  1.6761
  978MOL0     H31992   4.373   8.741   6.163 -1.1852 -1.6392 -2.6961
  978MOL0     H31993   4.298   8.779   6.392 -2.6721 -0.5221 -1.2464
  978MOL0     H31994   4.055   8.492   6.625  0.5786  0.5089 -3.3930
  978MOL0     H31995   4.216   8.430   6.671 -0.7701 -0.2771  0.5636
  978MOL0     H31996   4.245   8.561   6.861  1.4861 -1.9889 -2.4697
  978MOL0     H31997   4.093   8.659   6.825 -0.5352  0.3613 -0.0589
  978MOL0     H31998   3.955   8.457   6.873  0.0067 -1.4526  0.2273
  978MOL0     H31999   4.108   8.373   6.910  0.6147  0.5908  0.1268
  978MOL0     H32000   4.024   8.617   7.048 -0.9778 -0.4950 -0.2983
  978MOL0     H32001   4.155   8.509   7.111  0.3226  0.1247  1.0103
  978MOL0     H32002   4.041   8.344   7.189  1.5907 -0.3079 -1.6349
  978MOL0     H32003   3.887   8.382   7.108 -0.0667 -0.3627  2.5565
  978MOL0     H32004   4.016   8.549   7.328  1.9684  0.3624 -2.0135
  978MOL0     H32005   3.882   8.602   7.227 -2.4173 -0.9428 -0.2704
  978MOL0     H32006   3.847   8.341   7.390  3.3166  0.5646 -1.1730
  978MOL0     H32007   3.738   8.417   7.271 -0.4746 -2.0890  0.8719
  978MOL0     H32008   3.768   8.620   7.422 -2.7965  0.5206  2.7051
  978MOL0     H32009   3.690   8.493   7.520  0.1255 -3.5328  0.2586
  978MOL0     H32010   4.243   8.378   6.474  0.3087 -0.5329 -1.7581
  978MOL0     H32011   4.370   8.320   6.266  0.5732  0.0959  1.3226
  978MOL0     H32012   4.576   8.293   6.001 -5.9408  0.6313 -0.5173
  978MOL0     H32013   4.737   8.185   5.838 -2.5863 -0.6016  5.3327
  978MOL0     H32014   6.212   7.502   5.806 -1.4157 -1.5182  0.7302
  978MOL0     H32015   6.421   7.379   5.786  1.3701 -2.6794  0.6467
  978MOL0     H32016   6.683   7.085   5.685  0.6911  1.8947 -1.8527
  978MOL0     H32017   6.845   6.892   5.679 -1.8744 -3.5414  1.7466
  978MOL0     H32018   6.918   6.644   5.647  0.5468 -0.8352 -0.4311
  978MOL0     H32019   7.010   6.785   5.568  1.1270 -0.6160 -0.1185
  978MOL0     H32020   7.110   6.655   5.391  3.5371 -3.1738  0.4345
  978MOL0     H32021   6.989   6.539   5.422 -0.0062  0.2692 -1.0154
  978MOL0     H32022   7.216   6.449   5.491 -0.3636 -0.4267  0.4092
  978MOL0     H32023   7.119   6.471   5.634  0.6332 -0.6179 -0.3119
  978MOL0     H32024   7.268   6.711   5.535 -0.5872 -0.2892 -0.6164
  978MOL0     H32025   7.224   6.663   5.696  0.4996  1.0433  0.2470
  978MOL0     H32026   7.604   6.477   5.669  1.5397  2.0343  3.0019
  978MOL0     H32027   6.673   6.771   5.314  1.8691 -0.4818 -0.0212
  978MOL0     H32028   6.560   7.018   5.199  2.8646 -2.4152 -0.4027
  978MOL0     H32029   6.491   6.862   5.221  0.2675  0.5203 -1.5331
  978MOL0     H32030   6.406   6.999   5.293 -1.0648 -2.5163  0.4857
  979MOL0     O32031   8.261   1.903   7.846  0.0635  0.5639 -0.0084
  979MOL0     C32032   8.189   1.921   7.941 -0.3602 -0.2626 -0.1732
  979MOL0     O32033   8.080   2.009   7.953  0.2275 -0.1892  0.6934
  979MOL0     C32034   8.014   2.044   7.835 -0.0726 -0.5660 -0.4622
  979MOL0     C32035   7.885   2.001   7.806  1.1893 -0.4142 -0.7616
  979MOL0     C32036   7.816   2.036   7.689 -0.1153  0.2970 -0.3150
  979MOL0     C32037   7.884   2.100   7.586 -0.1680 -0.8290  0.3061
  979MOL0     O32038   7.819   2.122   7.467  0.0257 -0.3112 -0.1173
  979MOL0     C32039   7.897   2.174   7.357  0.2853 -0.0464  0.9761
  979MOL0     C32040   7.814   2.196   7.232 -0.5522 -0.4208 -0.1800
  979MOL0     C32041   7.806   2.063   7.154  0.3351  0.1990 -0.2372
  979MOL0     C32042   7.709   2.084   7.036  0.4623 -0.4088  0.4888
  979MOL0     C32043   7.647   1.956   6.977 -0.7304 -0.8120 -0.6641
  979MOL0     C32044   7.556   1.981   6.862 -0.3918  0.7549  1.4209
  979MOL0     C32045   7.633   2.017   6.729  0.1681  0.5765 -0.5610
  979MOL0     C32046   7.551   1.986   6.599 -0.1178  0.0570 -0.4080
  979MOL0     N32047   7.617   2.044   6.477  0.3724  0.3158  0.1309
  979MOL0     C32048   7.752   2.042   6.459  0.9081  0.0882 -0.3153
  979MOL0     C32049   7.777   2.142   6.376 -0.6956 -0.3320 -0.2829
  979MOL0     C32050   7.915   2.175   6.331 -0.4392  0.0860 -0.5123
  979MOL0     C32051   7.943   2.161   6.177  0.6980  0.4873 -0.3407
  979MOL0     C32052   7.871   2.279   6.093  0.1631 -0.7108 -0.5632
  979MOL0     C32053   7.826   2.251   5.953 -0.4205 -0.0331 -0.4604
  979MOL0     O32054   7.777   2.382   5.910  0.6970  0.2062 -0.4966
  979MOL0     C32055   7.745   2.401   5.780  0.0386 -0.1926  0.6233
  979MOL0     C32056   7.725   2.529   5.746  0.0160 -0.8747  0.2073
  979MOL0     C32057   7.704   2.570   5.611 -1.0934  0.5464 -0.2562
  979MOL0     C32058   7.695   2.471   5.509  0.5141 -0.2368  0.0671
  979MOL0     C32059   7.689   2.513   5.364 -0.5522  1.1062 -0.2070
  979MOL0     O32060   7.675   2.410   5.280  0.1546  0.5687 -0.4293
  979MOL0     C32061   7.619   2.420   5.159 -0.2721  0.4708  0.3867
  979MOL0     C32062   7.504   2.339   5.135 -0.5007  0.0144  0.3551
  979MOL0     C32063   7.439   2.358   5.008 -0.6046  0.3146 -0.4835
  979MOL0     C32064   7.480   2.452   4.914  0.6175  0.0921  0.3364
  979MOL0     O32065   7.414   2.467   4.789 -0.2386 -0.3186 -0.1481
  979MOL0     C32066   7.290   2.402   4.745  0.0612  0.1202  0.0122
  979MOL0     C32067   7.243   2.467   4.619  0.0077  0.8434 -0.2182
  979MOL0     C32068   7.211   2.616   4.629 -0.1277 -0.0192 -0.5459
  979MOL0     C32069   7.126   2.649   4.510  0.7969 -0.2119 -0.0920
  979MOL0     C32070   7.089   2.796   4.513 -0.4938 -0.3012 -0.8987
  979MOL0     C32071   7.028   2.853   4.384  0.9153  0.5141  0.6460
  979MOL0     C32072   6.972   2.995   4.408  0.2218  0.7047  1.2217
  979MOL0     C32073   6.951   3.059   4.268 -0.1440 -0.4384  0.8445
  979MOL0    Cl32074   6.933   3.234   4.285 -0.2776  0.2556  0.0691
  979MOL0     C32075   7.591   2.536   4.944 -0.3994 -0.3437  0.1191
  979MOL0     C32076   7.655   2.519   5.068  0.1807 -0.1690  0.3194
  979MOL0     O32077   7.678   2.631   5.337  1.0916  0.0063  0.2630
  979MOL0     C32078   7.696   2.340   5.549  0.4379  0.9725 -0.4043
  979MOL0     C32079   7.728   2.298   5.676 -0.4447  0.6685 -0.2203
  979MOL0     N32080   7.661   2.206   6.358 -0.1634  0.6738 -0.4870
  979MOL0     N32081   7.569   2.148   6.421 -0.1669  0.0866 -0.2912
  979MOL0     C32082   8.024   2.130   7.603  1.4024  0.6590  1.1082
  979MOL0     C32083   8.089   2.102   7.730  0.7941 -0.1587 -0.3521
  979MOL0     C32084   8.223   1.844   8.063  0.3259  0.0973  0.2433
  979MOL0     C32085   8.173   1.889   8.184  1.0069 -0.2467  0.7236
  979MOL0     C32086   8.195   1.825   8.303 -0.4078 -0.3704  0.4749
  979MOL0     C32087   8.275   1.712   8.310 -0.3431  1.2027 -0.0509
  979MOL0     O32088   8.317   1.645   8.427 -0.5407  0.1433 -0.9670
  979MOL0     C32089   8.257   1.679   8.550 -0.5838 -0.1369 -1.5343
  979MOL0     C32090   8.320   1.622   8.678  0.2122  0.5036 -0.0947
  979MOL0     C32091   8.464   1.668   8.712 -0.0778  1.0405  0.3180
  979MOL0     C32092   8.531   1.602   8.832  0.1315  0.3441  0.2213
  979MOL0     C32093   8.440   1.598   8.947 -0.7556  0.1991 -0.5090
  979MOL0     C32094   8.371   1.596   9.045  0.2857 -0.2503  0.5205
  979MOL0     C32095   8.326   1.655   8.187  0.5333 -1.2286 -0.4604
  979MOL0     C32096   8.307   1.727   8.065 -0.2603  0.0557 -0.0030
  979MOL0     C32097   8.380   1.659   7.944 -0.0967 -0.0575  0.4572
  979MOL0     H32098   7.839   1.951   7.891 -1.8871  1.2020 -1.3637
  979MOL0     H32099   7.710   2.010   7.683 -0.8154  3.0477 -0.9499
  979MOL0     H32100   7.939   2.269   7.390  2.3990 -0.7035  0.3464
  979MOL0     H32101   7.981   2.107   7.338 -0.0888 -0.3538  0.3320
  979MOL0     H32102   7.861   2.270   7.166  3.0681 -2.0804  0.2550
  979MOL0     H32103   7.714   2.229   7.261  0.0690  0.8901  0.5814
  979MOL0     H32104   7.759   1.988   7.217 -0.2908  0.3458 -0.5227
  979MOL0     H32105   7.902   2.033   7.112  1.1429  2.2789  0.0105
  979MOL0     H32106   7.637   2.160   7.066  0.4925  1.1252 -2.9061
  979MOL0     H32107   7.773   2.120   6.956  0.8338 -3.1156 -0.5543
  979MOL0     H32108   7.729   1.887   6.955  4.4573  4.4776 -0.1844
  979MOL0     H32109   7.585   1.906   7.053 -1.1105  1.2378  0.4570
  979MOL0     H32110   7.496   1.891   6.845  0.9023  0.3946 -2.0978
  979MOL0     H32111   7.486   2.061   6.890 -0.4330 -0.4254  5.2640
  979MOL0     H32112   7.728   1.962   6.730 -1.5213 -2.7027 -2.7257
  979MOL0     H32113   7.664   2.122   6.724  0.6940  0.3936 -1.4482
  979MOL0     H32114   7.538   1.879   6.584 -0.7181 -0.0124  0.5115
  979MOL0     H32115   7.449   2.024   6.613 -0.9251 -1.7502 -1.1291
  979MOL0     H32116   7.828   1.970   6.489  0.5390 -0.4090 -0.5439
  979MOL0     H32117   7.944   2.272   6.373  0.1228 -0.7945  1.2434
  979MOL0     H32118   7.992   2.107   6.371 -1.2553 -2.3539 -2.7934
  979MOL0     H32119   8.052   2.166   6.172  0.7973  1.2831  1.5237
  979MOL0     H32120   7.910   2.064   6.140  0.2353  0.0127  1.2288
  979MOL0     H32121   7.938   2.365   6.097  0.8861 -1.2256 -1.2262
  979MOL0     H32122   7.780   2.316   6.141  0.5899 -2.2171  1.5786
  979MOL0     H32123   7.750   2.172   5.952 -1.6258  1.0105  1.7423
  979MOL0     H32124   7.915   2.222   5.895  1.4818  0.1864  2.1392
  979MOL0     H32125   7.720   2.609   5.819 -3.7050  0.9404 -1.7441
  979MOL0     H32126   7.682   2.673   5.585  0.9290  1.8319  2.5771
  979MOL0     H32127   7.481   2.261   5.206  1.9186  1.0527  2.4380
  979MOL0     H32128   7.368   2.278   4.989  0.1356 -0.7055  0.9303
  979MOL0     H32129   7.304   2.295   4.728 -2.0070  0.0209 -1.4249
  979MOL0     H32130   7.207   2.424   4.812 -0.2077 -1.1329  0.1181
  979MOL0     H32131   7.315   2.454   4.538  0.9237 -2.4319  0.9593
  979MOL0     H32132   7.160   2.402   4.590 -0.0248  0.5392  0.5425
  979MOL0     H32133   7.154   2.640   4.719  1.6344  0.0889  0.5924
  979MOL0     H32134   7.307   2.669   4.631  1.0948 -1.7186 -4.0723
  979MOL0     H32135   7.038   2.585   4.504  0.5788 -0.1698  2.0296
  979MOL0     H32136   7.190   2.627   4.424  0.4835 -1.1939 -0.0843
  979MOL0     H32137   7.175   2.851   4.553 -1.9238  0.5835  1.1042
  979MOL0     H32138   7.022   2.803   4.598 -1.0070 -3.3107 -0.9405
  979MOL0     H32139   7.113   2.842   4.315 -0.2276 -1.1281 -0.5904
  979MOL0     H32140   6.944   2.794   4.345  1.2770  1.6451 -2.0879
  979MOL0     H32141   7.047   3.048   4.467  2.4472 -0.9367  0.0448
  979MOL0     H32142   6.881   2.985   4.468 -0.6849  0.1595 -0.1729
  979MOL0     H32143   7.041   3.042   4.209  1.5506 -2.2376  3.7087
  979MOL0     H32144   6.862   3.015   4.222 -2.3987  3.2876  1.1828
  979MOL0     H32145   7.610   2.609   4.866 -4.0690  3.1607  2.0980
  979MOL0     H32146   7.723   2.596   5.102  0.3836 -1.1073  2.1770
  979MOL0     H32147   7.671   2.264   5.475  2.3791 -0.7679  0.6398
  979MOL0     H32148   7.735   2.191   5.692  0.5944 -0.0554 -4.4083
  979MOL0     H32149   8.083   2.171   7.521  0.6413 -2.0512 -0.9104
  979MOL0     H32150   8.195   2.117   7.746  1.1886 -1.6004 -1.3558
  979MOL0     H32151   8.126   1.987   8.188  0.9130 -0.3201  2.6064
  979MOL0     H32152   8.172   1.864   8.402  1.1403 -0.5632  0.9433
  979MOL0     H32153   8.153   1.648   8.556 -1.0027  1.3584 -0.5956
  979MOL0     H32154   8.266   1.788   8.561 -1.7582 -0.1627 -0.0300
  979MOL0     H32155   8.323   1.513   8.670  0.0320 -0.0209  4.5490
  979MOL0     H32156   8.254   1.649   8.760  1.2483 -0.0263  0.9441
  979MOL0     H32157   8.477   1.775   8.728  1.4571  0.8609  0.4861
  979MOL0     H32158   8.518   1.650   8.618 -4.5530  0.9962 -2.5309
  979MOL0     H32159   8.561   1.500   8.808 -3.2418 -1.6615  3.5260
  979MOL0     H32160   8.624   1.652   8.861  1.2156 -0.6307 -1.4001
  979MOL0     H32161   8.306   1.603   9.130  0.2523 -1.4478  0.6101
  979MOL0     H32162   8.392   1.569   8.192  1.4354 -0.4838  2.3311
  979MOL0     H32163   8.302   1.632   7.873  2.0703 -0.0248 -2.1236
  979MOL0     H32164   8.451   1.721   7.888  0.8770 -0.0155  1.6932
  979MOL0     H32165   8.434   1.573   7.984 -1.3478 -1.1852 -0.2331
  980MOL0     O32166   1.207   7.640   7.628  0.3178  0.4649  0.3935
  980MOL0     C32167   1.277   7.544   7.654  0.5040  1.0414  0.5725
  980MOL0     O32168   1.243   7.412   7.608 -0.5695  0.5823  0.4336
  980MOL0     C32169   1.119   7.392   7.544 -0.7362 -0.2761  0.4980
  980MOL0     C32170   1.122   7.318   7.425  0.2867 -0.2041 -0.1661
  980MOL0     C32171   1.002   7.265   7.376  0.4941  0.2990 -0.9570
  980MOL0     C32172   0.882   7.308   7.440  0.1402 -0.5523  0.2737
  980MOL0     O32173   0.762   7.277   7.383 -0.1341  0.7587 -0.3759
  980MOL0     C32174   0.698   7.155   7.436  0.2724  1.2140 -1.2653
  980MOL0     C32175   0.551   7.141   7.381 -0.0973  0.1718  0.5490
  980MOL0     C32176   0.466   7.265   7.416  0.4959 -0.3369 -0.5108
  980MOL0     C32177   0.328   7.225   7.410  0.1390  0.3658  0.2329
  980MOL0     C32178   0.270   7.157   7.536  1.0248 -0.1571  0.3714
  980MOL0     C32179   0.218   7.252   7.639 -0.4598 -0.2758  0.3891
  980MOL0     C32180   0.108   7.185   7.713  0.0224 -0.5327  0.4820
  980MOL0     C32181   0.142   7.051   7.782  0.2907  0.6417  0.5799
  980MOL0     N32182   0.028   6.999   7.868  0.0431 -0.7935  0.4094
  980MOL0     C32183  -0.034   7.082   7.959 -0.4525  0.2538 -0.1584
  980MOL0     C32184  -0.152   7.021   7.992  0.6939  0.0175 -0.7307
  980MOL0     C32185  -0.249   7.060   8.100  0.3679 -0.9452 -0.1363
  980MOL0     C32186  -0.299   6.943   8.175 -0.4130  0.1460 -0.2105
  980MOL0     C32187  -0.195   6.881   8.259 -0.5841 -1.0398 -0.2852
  980MOL0     C32188  -0.255   6.768   8.344  0.1803  1.0314  1.0503
  980MOL0     O32189  -0.146   6.707   8.422  1.0470 -0.0061 -0.0226
  980MOL0     C32190  -0.173   6.631   8.532 -0.8580 -0.4262  0.0261
  980MOL0     C32191  -0.307   6.599   8.585 -0.2913  0.2741 -0.0236
  980MOL0     C32192  -0.330   6.524   8.697 -0.4156 -0.1765 -0.2739
  980MOL0     C32193  -0.219   6.494   8.778  0.3658 -0.6275 -0.5248
  980MOL0     C32194  -0.244   6.406   8.897  0.3251 -0.5582  0.8188
  980MOL0     O32195  -0.149   6.401   8.985 -0.1240 -0.1008 -0.0502
  980MOL0     C32196  -0.190   6.355   9.115  0.4131 -0.3517  0.4857
  980MOL0     C32197  -0.210   6.214   9.127  0.0550 -0.0137 -0.4635
  980MOL0     C32198  -0.259   6.167   9.247 -0.4786  0.1725 -0.1448
  980MOL0     C32199  -0.282   6.243   9.359  0.4159 -0.0990  0.4880
  980MOL0     O32200  -0.321   6.187   9.472 -1.0699  1.2211  0.1970
  980MOL0     C32201  -0.412   6.239   9.566 -0.5774 -0.1282 -0.0323
  980MOL0     C32202  -0.466   6.139   9.667 -0.9540  0.7783 -0.1792
  980MOL0     C32203  -0.562   6.034   9.599 -0.1297  0.1070 -0.4525
  980MOL0     C32204  -0.595   5.923   9.702 -0.2943 -0.4657  0.1767
  980MOL0     C32205  -0.704   5.826   9.662 -0.7150 -0.7947  0.0801
  980MOL0     C32206  -0.682   5.749   9.532  0.6681 -0.3095 -0.2131
  980MOL0     C32207  -0.787   5.635   9.520  0.7457  0.1073  0.3692
  980MOL0     C32208  -0.736   5.496   9.524  0.4051  0.2721 -0.9022
  980MOL0    Cl32209  -0.660   5.483   9.685  0.2346  0.0690 -0.3670
  980MOL0     C32210  -0.264   6.375   9.349  0.3523  0.3646 -0.2610
  980MOL0     C32211  -0.223   6.438   9.229  0.2945  0.5388  0.0005
  980MOL0     O32212  -0.353   6.344   8.894  0.1866  0.8837 -0.1579
  980MOL0     C32213  -0.088   6.531   8.736  0.0119 -1.6313 -0.1309
  980MOL0     C32214  -0.067   6.584   8.612  0.0128  0.2100 -0.9467
  980MOL0     N32215  -0.164   6.915   7.901 -0.3925 -0.0859 -0.1875
  980MOL0     N32216  -0.058   6.902   7.836 -0.2267  0.2211 -0.4947
  980MOL0     C32217   0.877   7.387   7.554  0.7201  0.2112  0.6742
  980MOL0     C32218   0.999   7.420   7.612  0.1994  0.6200  0.0611
  980MOL0     C32219   1.406   7.567   7.724  0.0512  0.5282 -0.5328
  980MOL0     C32220   1.435   7.700   7.773 -1.1240  0.4650 -0.1065
  980MOL0     C32221   1.548   7.732   7.842 -0.3932  0.3435 -0.7205
  980MOL0     C32222   1.648   7.637   7.861 -0.3623  1.1658  0.1649
  980MOL0     O32223   1.765   7.659   7.938  0.1548  1.1225  0.7114
  980MOL0     C32224   1.832   7.777   7.918 -0.2588 -0.7544  0.0241
  980MOL0     C32225   1.792   7.876   8.033  0.0880 -0.0018  0.4584
  980MOL0     C32226   1.894   7.988   8.055 -1.2939  0.3187  0.4300
  980MOL0     C32227   1.845   8.135   8.056 -0.2324  0.4299 -0.7767
  980MOL0     C32228   1.746   8.162   7.951  0.0368  0.1663  0.3013
  980MOL0     C32229   1.690   8.178   7.849 -0.2887 -0.4342  0.3930
  980MOL0     C32230   1.621   7.511   7.804  0.1206 -0.1066 -1.2938
  980MOL0     C32231   1.502   7.467   7.749  0.3982  0.0165  0.6777
  980MOL0     C32232   1.507   7.320   7.683  0.9467 -0.2063 -0.0813
  980MOL0     H32233   1.214   7.291   7.376  1.3948 -0.8762  2.1538
  980MOL0     H32234   1.003   7.212   7.281 -0.0880 -2.4531  0.4441
  980MOL0     H32235   0.753   7.068   7.399  0.3111  0.0787  1.2604
  980MOL0     H32236   0.693   7.158   7.546 -2.8153 -2.4733 -1.0995
  980MOL0     H32237   0.520   7.044   7.422  1.0976 -0.2064  0.6036
  980MOL0     H32238   0.569   7.135   7.274 -1.3847 -0.9700  0.3764
  980MOL0     H32239   0.488   7.339   7.339  0.5509 -1.0387 -1.1888
  980MOL0     H32240   0.487   7.305   7.515 -0.4398  1.6969 -1.0780
  980MOL0     H32241   0.262   7.309   7.386 -1.8000 -1.3610 -0.8203
  980MOL0     H32242   0.318   7.158   7.324  0.3796 -1.2730  1.4380
  980MOL0     H32243   0.180   7.105   7.502 -0.7240  3.4539 -1.0512
  980MOL0     H32244   0.348   7.091   7.574  0.9091 -0.4337  0.1392
  980MOL0     H32245   0.306   7.265   7.702  0.8539 -1.8543 -1.0438
  980MOL0     H32246   0.192   7.348   7.593  2.8356 -0.6921 -2.7845
  980MOL0     H32247   0.015   7.176   7.655  0.1521  2.6409 -0.3682
  980MOL0     H32248   0.071   7.252   7.791  0.0918 -0.6837  0.6447
  980MOL0     H32249   0.178   6.971   7.716  0.4420 -1.6944  3.3397
  980MOL0     H32250   0.227   7.076   7.845  0.0209  1.1181  0.7681
  980MOL0     H32251   0.015   7.168   8.003  1.8420 -1.6373  1.2106
  980MOL0     H32252  -0.205   7.134   8.167 -0.2159  0.0065 -0.7826
  980MOL0     H32253  -0.330   7.118   8.056  1.4249 -0.6627 -1.8467
  980MOL0     H32254  -0.370   6.981   8.250  0.8369 -0.6793  1.4474
  980MOL0     H32255  -0.349   6.874   8.107  1.3640 -0.6644 -0.7517
  980MOL0     H32256  -0.160   6.959   8.328 -0.5548 -1.5622  0.3048
  980MOL0     H32257  -0.125   6.845   8.184 -0.1995 -0.0114 -0.4425
  980MOL0     H32258  -0.310   6.688   8.293  0.4717 -0.6515  3.2436
  980MOL0     H32259  -0.338   6.792   8.411 -2.4889 -1.9658 -0.8831
  980MOL0     H32260  -0.393   6.626   8.524 -1.8714  0.7422  2.2858
  980MOL0     H32261  -0.432   6.507   8.731  0.2232 -0.9988  1.3176
  980MOL0     H32262  -0.178   6.159   9.039  0.0388 -1.7407  0.5621
  980MOL0     H32263  -0.270   6.059   9.255  0.3799  0.1831  1.4454
  980MOL0     H32264  -0.350   6.317   9.611 -1.6981  0.3975  0.6490
  980MOL0     H32265  -0.493   6.294   9.516  0.3755  0.2411 -1.2220
  980MOL0     H32266  -0.378   6.112   9.725 -0.8909 -0.5525 -0.8513
  980MOL0     H32267  -0.528   6.202   9.731 -0.3135 -0.7796  2.0984
  980MOL0     H32268  -0.654   6.089   9.576 -0.5574  0.5539  2.0264
  980MOL0     H32269  -0.517   5.997   9.506 -2.3997 -0.6207 -1.3315
  980MOL0     H32270  -0.629   5.983   9.787 -1.0294 -2.2516  1.2013
  980MOL0     H32271  -0.511   5.860   9.731 -1.2479 -2.2281 -0.7503
  980MOL0     H32272  -0.800   5.877   9.649 -0.5765 -0.9241 -1.7424
  980MOL0     H32273  -0.705   5.756   9.746  1.1482  1.2941  1.9369
  980MOL0     H32274  -0.686   5.814   9.444 -1.3331  0.7645  0.6242
  980MOL0     H32275  -0.586   5.698   9.522 -0.2123 -1.7216 -2.4406
  980MOL0     H32276  -0.843   5.649   9.427 -0.0145 -0.7459  0.6786
  980MOL0     H32277  -0.859   5.639   9.602  2.7831 -2.7189  2.4694
  980MOL0     H32278  -0.813   5.419   9.518  3.2346 -2.9592  0.8416
  980MOL0     H32279  -0.671   5.475   9.438  0.4848 -0.5283 -0.6543
  980MOL0     H32280  -0.281   6.432   9.440 -0.9638  2.3023 -1.6318
  980MOL0     H32281  -0.225   6.546   9.222  1.9531  0.8994  3.2182
  980MOL0     H32282  -0.009   6.489   8.797  1.1574  0.6090 -0.0026
  980MOL0     H32283   0.027   6.616   8.569  0.0844 -1.0459 -1.7875
  980MOL0     H32284   0.780   7.413   7.597 -0.8724 -2.1788 -1.1924
  980MOL0     H32285   0.991   7.469   7.708  1.5604 -0.9454  1.0316
  980MOL0     H32286   1.351   7.767   7.756 -2.8716 -1.4120  0.7457
  980MOL0     H32287   1.545   7.828   7.893 -1.2872 -0.1316  0.1799
  980MOL0     H32288   1.818   7.822   7.819  0.6754  1.3540  0.7889
  980MOL0     H32289   1.937   7.753   7.937 -0.0805 -1.0971 -1.3076
  980MOL0     H32290   1.788   7.823   8.129 -2.4309 -1.6103 -0.4190
  980MOL0     H32291   1.692   7.920   8.025  1.4855  3.4965  0.5368
  980MOL0     H32292   1.981   7.982   7.989  0.3803 -0.8569  2.5749
  980MOL0     H32293   1.938   7.973   8.155 -2.3502 -2.4555  0.5576
  980MOL0     H32294   1.789   8.164   8.146  2.1942  2.6092  0.1577
  980MOL0     H32295   1.921   8.213   8.052  0.2668 -0.1071 -3.0422
  980MOL0     H32296   1.641   8.175   7.753 -0.8545 -1.8448  0.7085
  980MOL0     H32297   1.705   7.443   7.792 -0.5825 -0.9675 -1.4812
  980MOL0     H32298   1.523   7.329   7.575  1.2162 -4.2400 -0.5149
  980MOL0     H32299   1.593   7.265   7.722  0.7984 -2.6608 -2.8351
  980MOL0     H32300   1.416   7.260   7.686 -0.0901  0.8910 -3.7078
  981MOL0     O32301   6.491   1.301   8.427 -0.3144 -0.0238  0.0664
  981MOL0     C32302   6.544   1.189   8.406  0.0002 -0.7727  0.1915
  981MOL0     O32303   6.617   1.155   8.300 -0.3370  0.3161  0.8255
  981MOL0     C32304   6.681   1.253   8.228 -0.1604  0.8075  0.8457
  981MOL0     C32305   6.732   1.373   8.287 -0.6151  0.2956 -0.2075
  981MOL0     C32306   6.813   1.449   8.201 -0.9719  0.5075  0.7477
  981MOL0     C32307   6.850   1.416   8.072 -0.0246 -0.0439 -0.6726
  981MOL0     O32308   6.937   1.501   8.013  0.2984  1.2126  0.7421
  981MOL0     C32309   6.939   1.492   7.868 -0.2989  0.6605 -0.5885
  981MOL0     C32310   7.043   1.595   7.826 -0.4733  0.1910  0.0556
  981MOL0     C32311   7.087   1.597   7.671  0.0126  0.3434 -0.0636
  981MOL0     C32312   6.984   1.538   7.579  0.6501  0.3061 -0.5521
  981MOL0     C32313   7.014   1.555   7.426  0.4498  0.9967  0.4014
  981MOL0     C32314   6.906   1.490   7.339  0.6000  0.1565  0.7543
  981MOL0     C32315   6.969   1.458   7.197 -0.4599  0.3482 -0.0413
  981MOL0     C32316   7.060   1.335   7.210  0.2082  0.6653  0.2185
  981MOL0     N32317   7.073   1.267   7.074  0.4749  0.0162 -0.0345
  981MOL0     C32318   6.987   1.171   7.023 -0.0577 -0.0062  0.1091
  981MOL0     C32319   7.033   1.149   6.890  0.3294 -0.4515 -1.1456
  981MOL0     C32320   6.991   1.038   6.802  0.5214 -0.1520  0.0841
  981MOL0     C32321   6.886   1.074   6.699 -1.4703  0.0956  0.3358
  981MOL0     C32322   6.945   1.172   6.595  0.0273 -0.1785  0.0904
  981MOL0     C32323   6.847   1.228   6.489 -0.2397  0.4043 -0.5565
  981MOL0     O32324   6.736   1.139   6.473  0.0752  0.5567 -0.1611
  981MOL0     C32325   6.655   1.177   6.374 -0.3651  0.3247  0.6378
  981MOL0     C32326   6.617   1.085   6.279 -0.6352 -0.7962  0.8428
  981MOL0     C32327   6.518   1.112   6.185 -0.0875  0.5706  0.3156
  981MOL0     C32328   6.457   1.235   6.175  1.0620  0.2470 -0.3175
  981MOL0     C32329   6.352   1.260   6.079  0.6857 -0.1104  0.0513
  981MOL0     O32330   6.305   1.385   6.064 -0.2446 -0.7540  0.2104
  981MOL0     C32331   6.207   1.397   5.973  0.1517  0.7603 -1.0231
  981MOL0     C32332   6.074   1.375   6.009 -0.2643  0.5474 -0.1583
  981MOL0     C32333   5.965   1.372   5.926 -0.1259  0.4823 -1.0693
  981MOL0     C32334   5.981   1.377   5.788 -0.1412  0.5231 -0.9472
  981MOL0     O32335   5.860   1.366   5.716  0.3796 -0.5265 -0.2841
  981MOL0     C32336   5.872   1.335   5.574  0.7758  0.6689 -0.1299
  981MOL0     C32337   5.741   1.337   5.493 -0.5447  0.1121 -0.2382
  981MOL0     C32338   5.755   1.334   5.338  0.8828  0.3824 -0.1588
  981MOL0     C32339   5.790   1.201   5.270 -0.3865 -0.1632 -0.3401
  981MOL0     C32340   5.852   1.230   5.135 -0.1708 -0.8576  0.9352
  981MOL0     C32341   5.752   1.258   5.028  0.6043 -0.1038 -0.0478
  981MOL0     C32342   5.815   1.342   4.913 -0.5368 -0.0523 -0.9347
  981MOL0     C32343   5.726   1.388   4.797 -0.6668 -0.2340 -0.3926
  981MOL0    Cl32344   5.812   1.515   4.706 -0.2114 -0.0127  0.1483
  981MOL0     C32345   6.115   1.388   5.738  0.1645 -0.6713 -0.5212
  981MOL0     C32346   6.227   1.395   5.826  1.1883  0.0038  0.0859
  981MOL0     O32347   6.308   1.164   6.018  0.1188  0.4596 -0.5320
  981MOL0     C32348   6.489   1.331   6.276 -0.3764 -0.3694  0.6377
  981MOL0     C32349   6.584   1.299   6.371 -0.6077  0.2983 -0.0185
  981MOL0     N32350   7.142   1.228   6.872 -0.2549  0.2951 -0.8747
  981MOL0     N32351   7.163   1.300   6.978  0.8207  0.9770 -0.7967
  981MOL0     C32352   6.788   1.306   8.016  0.0632 -0.3040  0.5519
  981MOL0     C32353   6.706   1.232   8.094  0.0517  0.6269 -0.4772
  981MOL0     C32354   6.519   1.082   8.505 -0.5271  0.7345 -0.1394
  981MOL0     C32355   6.542   0.947   8.482  0.1758  1.5049  0.8964
  981MOL0     C32356   6.501   0.841   8.563  1.0647  0.5319  0.2940
  981MOL0     C32357   6.451   0.869   8.687  1.0234  0.4844  1.0178
  981MOL0     O32358   6.434   0.777   8.790 -0.3296 -0.2891  0.7050
  981MOL0     C32359   6.445   0.636   8.750  0.2441 -0.1319  0.6323
  981MOL0     C32360   6.315   0.593   8.678  0.9447  0.2575  0.4155
  981MOL0     C32361   6.186   0.592   8.781 -0.2370  0.2660 -0.1276
  981MOL0     C32362   6.060   0.524   8.736  0.2755  0.2183 -0.0334
  981MOL0     C32363   5.950   0.551   8.826  0.5172  0.8284  0.6706
  981MOL0     C32364   5.843   0.562   8.883  0.1107 -0.3640 -0.6118
  981MOL0     C32365   6.446   0.999   8.728  0.2460 -0.3271 -0.7795
  981MOL0     C32366   6.478   1.103   8.642  1.0130  0.2766 -0.9925
  981MOL0     C32367   6.504   1.236   8.715 -0.2487 -0.7985 -0.0348
  981MOL0     H32368   6.730   1.406   8.390  3.5685 -3.5129  1.4218
  981MOL0     H32369   6.864   1.535   8.244 -0.2832  1.1423 -1.2035
  981MOL0     H32370   6.991   1.400   7.839 -0.1695  0.1694  1.0910
  981MOL0     H32371   6.841   1.510   7.822  0.2553  1.6067 -1.4511
  981MOL0     H32372   7.134   1.574   7.884 -1.1760  0.4521  1.3073
  981MOL0     H32373   7.005   1.692   7.860 -0.2441  0.6261 -0.9193
  981MOL0     H32374   7.184   1.546   7.673  0.5856  1.4126 -0.0737
  981MOL0     H32375   7.095   1.698   7.629  0.6265  0.6507  0.7739
  981MOL0     H32376   6.971   1.431   7.595 -0.1915  0.6041  0.8826
  981MOL0     H32377   6.890   1.591   7.600  1.9603  1.8149  1.9359
  981MOL0     H32378   7.020   1.661   7.397 -0.7690  0.8628 -0.3945
  981MOL0     H32379   7.111   1.510   7.404  0.5615  0.9832  0.9121
  981MOL0     H32380   6.867   1.398   7.384 -2.5282  1.3582  0.7854
  981MOL0     H32381   6.817   1.554   7.334  2.5495  2.9602 -1.2724
  981MOL0     H32382   7.020   1.544   7.152  0.7200 -0.3168  0.0030
  981MOL0     H32383   6.884   1.411   7.147  0.0394 -2.4741  1.5619
  981MOL0     H32384   7.154   1.379   7.247  0.1556  1.5803 -0.6762
  981MOL0     H32385   7.022   1.270   7.289 -1.4982  3.1270  1.5450
  981MOL0     H32386   6.905   1.136   7.086  0.1555  0.4483  0.6522
  981MOL0     H32387   7.080   0.996   6.753 -2.2021 -3.3146 -2.6290
  981MOL0     H32388   6.952   0.957   6.864  2.0262  0.2384  1.6198
  981MOL0     H32389   6.864   0.985   6.640 -0.3829 -0.0699  0.1574
  981MOL0     H32390   6.791   1.115   6.734 -0.8287  3.7750 -1.7012
  981MOL0     H32391   7.022   1.126   6.533 -1.6741 -0.1932 -2.1248
  981MOL0     H32392   7.004   1.248   6.647  0.4903  0.1996 -0.9616
  981MOL0     H32393   6.898   1.250   6.395 -0.1932  0.8865 -0.4238
  981MOL0     H32394   6.817   1.330   6.517  3.9936  1.4983  0.7695
  981MOL0     H32395   6.684   1.000   6.284  2.1627  1.2497  0.4909
  981MOL0     H32396   6.505   1.035   6.109  4.4503 -1.0262  0.8377
  981MOL0     H32397   6.060   1.357   6.115 -1.1081  0.7149 -0.2301
  981MOL0     H32398   5.863   1.360   5.961  0.8494  0.8133  2.1930
  981MOL0     H32399   5.937   1.408   5.526  1.7031  0.1903  0.3647
  981MOL0     H32400   5.928   1.241   5.579  1.4415  1.0417 -0.3967
  981MOL0     H32401   5.696   1.242   5.524 -0.4820  0.8163  2.1531
  981MOL0     H32402   5.683   1.423   5.527  1.5668  0.5618  2.5443
  981MOL0     H32403   5.658   1.370   5.302 -0.0152  0.0350  1.8242
  981MOL0     H32404   5.835   1.407   5.324  0.6136  0.5233 -1.0832
  981MOL0     H32405   5.697   1.142   5.267 -1.5323  1.3968  1.9189
  981MOL0     H32406   5.867   1.144   5.322 -1.0553 -0.5397  0.2608
  981MOL0     H32407   5.923   1.158   5.094  1.9836  2.3976 -1.4976
  981MOL0     H32408   5.908   1.322   5.150 -0.4468 -0.3723 -0.7405
  981MOL0     H32409   5.718   1.168   4.975 -1.8420  1.3633 -1.1742
  981MOL0     H32410   5.676   1.324   5.071  1.9859  3.0955 -2.1344
  981MOL0     H32411   5.883   1.278   4.856 -0.1903  1.9404 -2.9321
  981MOL0     H32412   5.872   1.428   4.950  0.1777 -1.3183  1.0718
  981MOL0     H32413   5.686   1.310   4.732  2.7405 -0.4695 -2.4588
  981MOL0     H32414   5.637   1.429   4.845  0.0310  1.0601 -0.1761
  981MOL0     H32415   6.139   1.394   5.633 -0.2714 -1.2162 -0.6563
  981MOL0     H32416   6.329   1.410   5.790  0.8424  2.4665  0.0098
  981MOL0     H32417   6.436   1.425   6.288  0.7515  0.0725  2.6683
  981MOL0     H32418   6.607   1.360   6.458 -0.0428 -2.0049  1.5300
  981MOL0     H32419   6.789   1.292   7.909  0.2138  1.8587  0.2387
  981MOL0     H32420   6.667   1.142   8.046  3.6954 -1.9021  0.8205
  981MOL0     H32421   6.579   0.923   8.383 -3.4198 -0.0473 -0.2324
  981MOL0     H32422   6.520   0.742   8.523  1.0246  1.0812 -1.1482
  981MOL0     H32423   6.448   0.569   8.837  1.0960  0.7322  1.3027
  981MOL0     H32424   6.533   0.609   8.692 -1.2000 -1.2545 -1.1342
  981MOL0     H32425   6.324   0.487   8.652  1.5677 -0.7309  4.0903
  981MOL0     H32426   6.302   0.642   8.581  1.6950 -0.0265  0.1606
  981MOL0     H32427   6.158   0.693   8.810 -2.4175 -0.5207  0.6468
  981MOL0     H32428   6.222   0.549   8.875 -0.9761 -0.9582 -0.3870
  981MOL0     H32429   6.047   0.566   8.636  3.3024  2.3492  0.3034
  981MOL0     H32430   6.073   0.415   8.733  2.7915  0.4607 -2.4601
  981MOL0     H32431   5.756   0.589   8.940 -0.0982 -1.1686 -0.5455
  981MOL0     H32432   6.430   1.027   8.832  2.3910  1.0733 -0.7763
  981MOL0     H32433   6.609   1.267   8.708  0.5003 -3.3098 -1.2719
  981MOL0     H32434   6.439   1.313   8.673  2.4387  1.3663 -0.5155
  981MOL0     H32435   6.481   1.225   8.821  2.0208 -1.0326  0.5006
  982MOL0     O32436   9.226   5.274   2.481 -0.1241  0.1993 -0.9212
  982MOL0     C32437   9.123   5.326   2.439  0.2857  0.1446 -0.0998
  982MOL0     O32438   9.104   5.460   2.423  0.4886 -0.0369 -0.0627
  982MOL0     C32439   9.202   5.539   2.468  0.2229  1.3305 -0.0346
  982MOL0     C32440   9.208   5.570   2.602  0.1122 -0.0229 -0.7214
  982MOL0     C32441   9.309   5.649   2.651 -0.3662  0.2963  1.0512
  982MOL0     C32442   9.412   5.698   2.567  0.1349  0.4877 -0.8109
  982MOL0     O32443   9.514   5.759   2.636 -0.4547  0.0903 -1.5791
  982MOL0     C32444   9.614   5.832   2.571  1.0027 -0.2573  0.0035
  982MOL0     C32445   9.720   5.867   2.683  0.8861  0.6602 -0.5745
  982MOL0     C32446   9.710   5.780   2.810  0.1585 -0.3789 -0.4506
  982MOL0     C32447   9.849   5.780   2.880 -0.7949  0.1708 -0.3567
  982MOL0     C32448   9.826   5.729   3.022 -0.9756  0.0579  0.7810
  982MOL0     C32449   9.792   5.845   3.111 -0.6629  0.3402 -0.7921
  982MOL0     C32450   9.758   5.791   3.247  0.1066 -0.7485  0.5994
  982MOL0     C32451   9.707   5.897   3.335  0.4782 -0.5189 -0.4567
  982MOL0     N32452   9.695   5.851   3.471 -0.5342  0.0047  0.0401
  982MOL0     C32453   9.595   5.770   3.526 -0.1773  0.2122  0.3634
  982MOL0     C32454   9.613   5.761   3.660 -0.2077 -0.5120 -0.4885
  982MOL0     C32455   9.534   5.674   3.754 -0.5825  0.1038 -0.5754
  982MOL0     C32456   9.391   5.742   3.775  0.6076  0.0633 -0.0950
  982MOL0     C32457   9.393   5.838   3.894 -0.3815  1.1554  0.0337
  982MOL0     C32458   9.257   5.907   3.899  0.1269 -0.7059 -0.2017
  982MOL0     O32459   9.270   5.997   4.006  0.5703  0.7132  0.2203
  982MOL0     C32460   9.158   6.055   4.054  0.0117  0.0926  0.0773
  982MOL0     C32461   9.115   6.046   4.184  0.0594  0.0249 -1.4614
  982MOL0     C32462   8.985   6.090   4.233 -0.0136 -0.7964 -0.1504
  982MOL0     C32463   8.905   6.161   4.150 -0.1860 -1.2259  0.2971
  982MOL0     C32464   8.777   6.229   4.200  0.0482 -0.2909 -0.2048
  982MOL0     O32465   8.733   6.155   4.312 -0.3908  0.4627 -0.1190
  982MOL0     C32466   8.611   6.194   4.372  0.0688  0.4723  0.2906
  982MOL0     C32467   8.608   6.209   4.511 -0.7466  0.6230  0.2869
  982MOL0     C32468   8.487   6.229   4.566 -0.3493  0.0807 -0.2088
  982MOL0     C32469   8.366   6.248   4.496  0.7731 -0.4977 -1.0872
  982MOL0     O32470   8.251   6.281   4.566  0.1959 -0.5099  0.6510
  982MOL0     C32471   8.240   6.417   4.618 -0.4801  0.8243  0.4655
  982MOL0     C32472   8.199   6.401   4.759 -0.9521 -0.7285  0.1636
  982MOL0     C32473   8.172   6.525   4.838 -0.2854 -0.5228 -0.4473
  982MOL0     C32474   8.184   6.515   4.993  0.1843  0.1820 -0.0608
  982MOL0     C32475   8.124   6.632   5.072 -0.3202  0.0774 -0.9422
  982MOL0     C32476   8.171   6.775   5.026 -0.0251 -0.5402  0.1363
  982MOL0     C32477   8.106   6.889   5.117  0.4676 -0.5271  0.6997
  982MOL0     C32478   8.189   6.925   5.240  0.7481  0.5614 -0.3863
  982MOL0    Cl32479   8.363   6.947   5.209  0.4328 -0.2453 -0.2279
  982MOL0     C32480   8.372   6.252   4.356 -0.7815  0.4994  0.1531
  982MOL0     C32481   8.495   6.215   4.293  0.7523 -1.6493 -0.7901
  982MOL0     O32482   8.728   6.339   4.156  0.0488  0.0362  0.3619
  982MOL0     C32483   8.944   6.158   4.009  0.1497 -0.8998 -0.6353
  982MOL0     C32484   9.071   6.118   3.965 -0.0438  0.0718  0.0933
  982MOL0     N32485   9.712   5.853   3.685  0.4452  0.5879  0.8620
  982MOL0     N32486   9.748   5.921   3.586 -0.7023  0.5436  0.8412
  982MOL0     C32487   9.406   5.657   2.429  0.0375  0.1423 -0.3356
  982MOL0     C32488   9.306   5.573   2.382 -0.1482  0.1482 -0.1685
  982MOL0     C32489   9.014   5.232   2.386 -0.6512 -0.2686  0.3336
  982MOL0     C32490   8.993   5.102   2.439 -0.0128  0.4784  0.4431
  982MOL0     C32491   8.897   5.009   2.388 -0.0207  0.0437 -0.4152
  982MOL0     C32492   8.838   5.035   2.267  0.4280 -0.4311 -0.4070
  982MOL0     O32493   8.744   4.959   2.201  0.8169  0.6858  0.1915
  982MOL0     C32494   8.748   4.816   2.228  1.1004 -0.0237  0.2511
  982MOL0     C32495   8.700   4.739   2.102 -0.1678  0.0372 -0.1320
  982MOL0     C32496   8.693   4.590   2.114  0.0512  0.2472  0.0215
  982MOL0     C32497   8.628   4.520   1.993 -0.2161  0.1078  0.8333
  982MOL0     C32498   8.515   4.583   1.931  0.7364 -0.2478  0.1650
  982MOL0     C32499   8.413   4.609   1.865 -0.0270  1.0906  0.9528
  982MOL0     C32500   8.870   5.157   2.202  0.4718 -0.0050 -0.0036
  982MOL0     C32501   8.959   5.252   2.256 -0.6483 -0.3047  0.1120
  982MOL0     C32502   8.992   5.371   2.165  0.0693  0.6704 -0.2785
  982MOL0     H32503   9.133   5.527   2.667 -0.1133  0.8924 -0.3565
  982MOL0     H32504   9.333   5.656   2.756  1.8601 -0.3012  0.6411
  982MOL0     H32505   9.649   5.779   2.482  1.7591 -0.4971  0.4348
  982MOL0     H32506   9.568   5.926   2.539 -0.8052 -1.1492 -0.1334
  982MOL0     H32507   9.698   5.972   2.706 -3.1079  0.2403 -1.7408
  982MOL0     H32508   9.811   5.857   2.624 -0.1750  0.6726 -2.2710
  982MOL0     H32509   9.687   5.674   2.794  2.6887 -1.0070 -0.4076
  982MOL0     H32510   9.635   5.830   2.873  1.4840  2.4371 -0.9438
  982MOL0     H32511   9.924   5.719   2.829  0.4990  1.0556  0.4430
  982MOL0     H32512   9.882   5.884   2.874 -0.6508  0.0999 -0.7884
  982MOL0     H32513   9.751   5.649   3.024 -0.3442 -0.7606 -2.5247
  982MOL0     H32514   9.908   5.669   3.061 -3.0114 -1.9508  2.2710
  982MOL0     H32515   9.877   5.913   3.125 -2.0865  1.7231  1.6854
  982MOL0     H32516   9.719   5.913   3.068 -1.3159 -0.1837 -0.5290
  982MOL0     H32517   9.843   5.741   3.295  0.1301 -1.2617  0.0312
  982MOL0     H32518   9.680   5.715   3.233 -1.0358  0.3681  0.7514
  982MOL0     H32519   9.773   5.984   3.346 -0.2964  0.1535 -1.0919
  982MOL0     H32520   9.605   5.928   3.310  0.1558 -1.7391 -0.7107
  982MOL0     H32521   9.518   5.714   3.473 -2.8607  1.8627  2.2544
  982MOL0     H32522   9.525   5.581   3.697 -1.1283 -0.2779  0.1328
  982MOL0     H32523   9.581   5.648   3.849 -3.2711  0.7013  1.0219
  982MOL0     H32524   9.368   5.791   3.681  1.5396  2.1650  0.7010
  982MOL0     H32525   9.309   5.671   3.790  2.5819 -2.2408  0.6268
  982MOL0     H32526   9.478   5.906   3.885 -0.2696  0.9729 -0.3297
  982MOL0     H32527   9.415   5.782   3.985 -2.0873  0.5229  0.0905
  982MOL0     H32528   9.178   5.834   3.917 -1.6836  1.2277 -0.0443
  982MOL0     H32529   9.234   5.957   3.804  1.7580 -0.7136 -0.6416
  982MOL0     H32530   9.177   6.005   4.263  1.0900  2.5046 -0.8754
  982MOL0     H32531   8.983   6.070   4.340  2.1201  0.8876  0.2836
  982MOL0     H32532   8.702   6.196   4.564  0.4006 -0.9589 -1.9598
  982MOL0     H32533   8.474   6.223   4.674 -0.0265  0.4545 -0.1479
  982MOL0     H32534   8.336   6.468   4.610 -0.1640  0.0074 -1.8244
  982MOL0     H32535   8.163   6.470   4.561 -0.3716 -1.8521 -2.4171
  982MOL0     H32536   8.109   6.339   4.757 -0.6598 -1.3890  2.9259
  982MOL0     H32537   8.278   6.348   4.813 -0.8410  1.7572  2.7015
  982MOL0     H32538   8.247   6.602   4.814  1.1234 -1.2671  1.3047
  982MOL0     H32539   8.076   6.567   4.807  0.5855  3.1050  1.2067
  982MOL0     H32540   8.277   6.480   5.038 -1.4514 -2.8522  1.3091
  982MOL0     H32541   8.111   6.438   5.022  1.9345 -1.8231 -0.7623
  982MOL0     H32542   8.144   6.634   5.180 -2.1259  2.3559 -0.5614
  982MOL0     H32543   8.015   6.624   5.068 -0.3266 -0.4512 -0.1076
  982MOL0     H32544   8.280   6.775   5.039 -0.2098 -0.9142  1.9771
  982MOL0     H32545   8.141   6.785   4.921 -0.0883  0.1268  0.2187
  982MOL0     H32546   8.012   6.864   5.168 -0.0321 -2.0155 -0.8576
  982MOL0     H32547   8.099   6.977   5.053 -0.7755 -1.5175 -0.6066
  982MOL0     H32548   8.165   7.011   5.303  2.1716 -0.9473  2.3840
  982MOL0     H32549   8.177   6.847   5.315 -0.5862  0.1619 -0.9918
  982MOL0     H32550   8.286   6.275   4.294  0.1764 -0.2137 -1.5215
  982MOL0     H32551   8.498   6.220   4.185 -2.4919 -1.4365 -0.9582
  982MOL0     H32552   8.874   6.219   3.953 -0.0435 -1.2463 -0.7745
  982MOL0     H32553   9.098   6.132   3.861 -1.6971  0.1613 -0.3568
  982MOL0     H32554   9.483   5.691   2.361 -1.3944  1.0438 -1.5643
  982MOL0     H32555   9.311   5.558   2.274 -0.9435  1.1808 -0.3574
  982MOL0     H32556   9.054   5.076   2.525  1.6826 -0.2494 -0.9216
  982MOL0     H32557   8.854   4.927   2.444 -1.7472 -0.0097 -1.7509
  982MOL0     H32558   8.697   4.788   2.321  1.4009  0.8481  0.6791
  982MOL0     H32559   8.853   4.785   2.234  1.1836  0.1713 -0.1485
  982MOL0     H32560   8.767   4.768   2.021  0.5483 -0.0260  0.4267
  982MOL0     H32561   8.603   4.783   2.078  0.5611  1.3608 -0.7220
  982MOL0     H32562   8.638   4.562   2.205 -1.1977  2.6231  0.0708
  982MOL0     H32563   8.797   4.560   2.131  1.2734  4.5664  1.3765
  982MOL0     H32564   8.706   4.510   1.917 -3.3774  0.2839 -2.7356
  982MOL0     H32565   8.598   4.417   2.012  0.0218 -0.4397 -1.5001
  982MOL0     H32566   8.328   4.630   1.804 -0.9299 -1.1790  1.3188
  982MOL0     H32567   8.825   5.178   2.106 -1.1891  1.1773  0.9906
  982MOL0     H32568   8.947   5.355   2.067 -1.6022 -3.1351  0.9446
  982MOL0     H32569   8.979   5.465   2.219 -1.4538  0.9104 -1.0165
  982MOL0     H32570   9.099   5.370   2.142 -0.0937  2.1854 -1.2508
  983MOL0     O32571   1.132   8.952  10.189 -0.7435  0.3685 -0.5605
  983MOL0     C32572   1.255   8.962  10.193  0.4545 -0.3009  0.7078
  983MOL0     O32573   1.349   8.880  10.141  0.0642 -0.7962  0.0236
  983MOL0     C32574   1.296   8.775  10.070 -0.2777  0.2717 -0.3902
  983MOL0     C32575   1.354   8.649  10.093 -0.6333 -1.2359 -0.0097
  983MOL0     C32576   1.296   8.541  10.021 -0.1245 -0.7149 -0.0203
  983MOL0     C32577   1.191   8.558   9.929  0.2988 -0.9534  0.5227
  983MOL0     O32578   1.134   8.453   9.857 -0.3300  0.5987  0.1537
  983MOL0     C32579   1.012   8.400   9.911  0.5816 -0.3142  0.4283
  983MOL0     C32580   0.992   8.249   9.914 -0.8687 -0.1437  0.1021
  983MOL0     C32581   0.851   8.208   9.951  0.1346 -0.1920 -0.7514
  983MOL0     C32582   0.764   8.195   9.831 -0.1277 -0.1479  0.0006
  983MOL0     C32583   0.702   8.330   9.787 -0.9204  0.5444 -0.8090
  983MOL0     C32584   0.553   8.305   9.752  0.1671 -0.1938 -0.6827
  983MOL0     C32585   0.525   8.221   9.631  0.2076  1.3563  0.1850
  983MOL0     C32586   0.370   8.173   9.626  0.8301  0.3437 -0.9491
  983MOL0     N32587   0.269   8.283   9.608  0.4638 -0.1811 -0.3801
  983MOL0     C32588   0.295   8.405   9.568 -1.0457 -0.6461  0.5324
  983MOL0     C32589   0.186   8.480   9.599  1.0072 -1.2815 -0.2245
  983MOL0     C32590   0.184   8.637   9.595 -0.5114 -0.1245  0.2093
  983MOL0     C32591   0.047   8.681   9.528  0.3434 -0.2790  0.2391
  983MOL0     C32592   0.062   8.826   9.459 -0.5011  0.1819 -0.5079
  983MOL0     C32593  -0.076   8.875   9.412  0.7081  0.0520  0.0861
  983MOL0     O32594  -0.067   8.939   9.281  1.0460  0.3364 -0.5798
  983MOL0     C32595  -0.157   9.042   9.247 -0.7418  0.1878 -0.1416
  983MOL0     C32596  -0.121   9.119   9.142 -0.1709 -0.0412  0.0517
  983MOL0     C32597  -0.189   9.242   9.117  0.4720 -0.7205 -0.9535
  983MOL0     C32598  -0.315   9.283   9.186  0.2498 -0.6324  0.2477
  983MOL0     C32599  -0.389   9.409   9.174  0.2863 -0.2979 -0.2675
  983MOL0     O32600  -0.524   9.385   9.175  0.0148 -0.3608 -0.7690
  983MOL0     C32601  -0.608   9.496   9.180 -1.3874 -0.5355 -0.5462
  983MOL0     C32602  -0.711   9.499   9.095 -0.1724 -0.1055 -0.1867
  983MOL0     C32603  -0.794   9.615   9.088  0.2537  0.3657 -0.4493
  983MOL0     C32604  -0.776   9.732   9.171 -0.1349 -0.3754 -0.1657
  983MOL0     O32605  -0.865   9.839   9.170 -0.3424 -0.1635  0.1675
  983MOL0     C32606  -0.790   9.959   9.148  0.7646  0.6257  0.3490
  983MOL0     C32607  -0.882  10.059   9.077 -0.2456  0.9193  0.2925
  983MOL0     C32608  -0.873  10.037   8.923 -0.4189 -0.0796  1.0033
  983MOL0     C32609  -0.966  10.111   8.836  0.8656 -0.6944 -0.3788
  983MOL0     C32610  -0.990  10.259   8.890 -0.3610  0.0467  0.5006
  983MOL0     C32611  -1.092  10.335   8.803  0.4998  0.1073  0.2202
  983MOL0     C32612  -1.187  10.423   8.889  0.6749 -0.1344 -0.0570
  983MOL0     C32613  -1.303  10.482   8.811  0.5540  0.4617 -0.0035
  983MOL0    Cl32614  -1.399  10.340   8.758  0.2827 -0.2345 -0.1850
  983MOL0     C32615  -0.664   9.724   9.258 -0.9015  0.4487 -1.3983
  983MOL0     C32616  -0.576   9.611   9.261  0.3350 -0.5688  0.2163
  983MOL0     O32617  -0.335   9.510   9.142 -0.5095 -0.3526  0.2811
  983MOL0     C32618  -0.350   9.187   9.287  0.2557  0.4479  0.1007
  983MOL0     C32619  -0.276   9.075   9.318 -0.7724 -0.5250  0.0493
  983MOL0     N32620   0.100   8.397   9.662  1.0926  0.0835  0.1146
  983MOL0     N32621   0.141   8.271   9.653  0.5983  0.1647  0.4339
  983MOL0     C32622   1.148   8.685   9.907  0.1329  0.2257  0.4236
  983MOL0     C32623   1.205   8.794   9.968  0.4707 -0.1055  0.4403
  983MOL0     C32624   1.312   9.086  10.246 -0.0501  0.5090  0.8106
  983MOL0     C32625   1.448   9.082  10.285 -0.4208  0.0888 -0.0702
  983MOL0     C32626   1.518   9.197  10.318 -0.7589 -0.2425  0.1011
  983MOL0     C32627   1.457   9.321  10.309  0.5336 -0.5798  0.0416
  983MOL0     O32628   1.534   9.432  10.321  0.4905  0.5649  0.2888
  983MOL0     C32629   1.478   9.563  10.358  0.8202 -0.1747 -0.0792
  983MOL0     C32630   1.441   9.555  10.501 -0.1124 -0.3693  0.0383
  983MOL0     C32631   1.558   9.541  10.594  0.0678 -0.2260  0.3335
  983MOL0     C32632   1.644   9.661  10.602 -0.7979  0.2585  0.1415
  983MOL0     C32633   1.570   9.782  10.652  0.2169 -0.6353  0.0297
  983MOL0     C32634   1.506   9.870  10.694 -0.5515  0.0451 -0.8364
  983MOL0     C32635   1.324   9.327  10.271  0.4093 -0.2626  0.1486
  983MOL0     C32636   1.255   9.214  10.230 -0.4460 -0.0963  0.5172
  983MOL0     C32637   1.115   9.236  10.168  0.3405  0.0958  0.1040
  983MOL0     H32638   1.448   8.650  10.148 -0.0281  2.8669 -0.7917
  983MOL0     H32639   1.339   8.442  10.025 -0.4189 -0.8595 -0.3449
  983MOL0     H32640   1.002   8.441  10.013 -1.3913 -0.4490  0.3196
  983MOL0     H32641   0.928   8.451   9.863  1.3988  0.8198  0.1547
  983MOL0     H32642   1.048   8.213  10.002 -0.8728  3.3155  1.7029
  983MOL0     H32643   1.023   8.206   9.819  1.2731  0.7149  0.3530
  983MOL0     H32644   0.812   8.273  10.029 -0.3577 -3.1419  1.6361
  983MOL0     H32645   0.866   8.115  10.008  3.3393 -0.0638 -1.1957
  983MOL0     H32646   0.824   8.146   9.753 -1.9882  0.4677 -1.8854
  983MOL0     H32647   0.677   8.132   9.854  0.2389 -0.1517  1.5008
  983MOL0     H32648   0.707   8.386   9.881 -1.1106 -2.1803  0.9438
  983MOL0     H32649   0.749   8.378   9.701 -0.3938 -1.3068 -1.5944
  983MOL0     H32650   0.507   8.262   9.841  0.5222 -0.6859 -0.7341
  983MOL0     H32651   0.513   8.407   9.750 -0.5333 -0.2874  2.6007
  983MOL0     H32652   0.578   8.126   9.626  0.5189  1.5767 -1.3080
  983MOL0     H32653   0.544   8.278   9.539 -0.5925  0.1425 -0.7495
  983MOL0     H32654   0.358   8.109   9.538  0.3533 -3.0196  1.3723
  983MOL0     H32655   0.351   8.118   9.718  0.6009 -0.7951 -1.6568
  983MOL0     H32656   0.390   8.446   9.534 -1.3356 -1.1260 -0.9280
  983MOL0     H32657   0.193   8.667   9.700 -0.6392  0.0077  0.1828
  983MOL0     H32658   0.266   8.691   9.546 -2.8022  1.0692 -2.6351
  983MOL0     H32659   0.002   8.611   9.457  0.4758  0.6873 -0.8360
  983MOL0     H32660  -0.032   8.688   9.604 -0.9139  1.8338 -1.1460
  983MOL0     H32661   0.135   8.821   9.378 -1.8183 -0.9672 -1.7002
  983MOL0     H32662   0.099   8.896   9.534  2.0617  3.3464 -4.3839
  983MOL0     H32663  -0.109   8.942   9.493  0.8516 -1.5747  1.5399
  983MOL0     H32664  -0.146   8.793   9.399  0.8417 -0.3454  1.6328
  983MOL0     H32665  -0.031   9.097   9.085  0.1290  1.8153 -0.2728
  983MOL0     H32666  -0.138   9.305   9.045 -0.2684 -0.3054 -1.1289
  983MOL0     H32667  -0.732   9.419   9.023  0.2230 -0.0072 -0.4163
  983MOL0     H32668  -0.879   9.607   9.021 -2.9983 -2.2335  3.4886
  983MOL0     H32669  -0.753  10.002   9.242  2.5222  0.9754 -0.4702
  983MOL0     H32670  -0.698   9.945   9.091  0.0919 -0.8931 -0.4263
  983MOL0     H32671  -0.985  10.034   9.103  0.2451 -2.6470 -0.6107
  983MOL0     H32672  -0.863  10.158   9.119 -4.6980  0.4336  4.3303
  983MOL0     H32673  -0.780  10.090   8.901 -0.3961  0.9885  3.3633
  983MOL0     H32674  -0.875   9.930   8.900 -2.2108 -0.1245  1.1706
  983MOL0     H32675  -1.065  10.064   8.832 -0.3319  1.7297 -1.0602
  983MOL0     H32676  -0.923  10.113   8.735  3.0264 -0.2203  0.4948
  983MOL0     H32677  -0.899  10.320   8.883  0.2799 -0.9674 -0.2853
  983MOL0     H32678  -1.023  10.253   8.994 -0.4182 -0.6126  0.4483
  983MOL0     H32679  -1.042  10.373   8.714  0.2627 -4.3818 -2.1043
  983MOL0     H32680  -1.148  10.257   8.751  0.2839  1.2982 -1.3960
  983MOL0     H32681  -1.127  10.513   8.909  0.0270  0.5517 -1.1068
  983MOL0     H32682  -1.217  10.369   8.979 -0.2276  0.0672 -0.2309
  983MOL0     H32683  -1.365  10.543   8.878 -0.2281  2.1979 -2.1744
  983MOL0     H32684  -1.261  10.541   8.728  2.1541  1.6379  1.5544
  983MOL0     H32685  -0.635   9.793   9.336  0.8779 -0.2231 -1.4142
  983MOL0     H32686  -0.489   9.613   9.326 -0.6396  1.2119  1.5541
  983MOL0     H32687  -0.441   9.207   9.343 -0.3986  0.3554 -0.8978
  983MOL0     H32688  -0.297   9.019   9.408  1.1452  0.3635  1.1174
  983MOL0     H32689   1.079   8.700   9.824  3.2942  0.2681 -2.4314
  983MOL0     H32690   1.174   8.895   9.943  2.5537  0.5239  0.2049
  983MOL0     H32691   1.503   8.989  10.282 -0.0155  0.3268 -2.4198
  983MOL0     H32692   1.624   9.184  10.337 -0.0219  0.2507 -3.1379
  983MOL0     H32693   1.381   9.577  10.308  2.7575  2.6480 -3.5729
  983MOL0     H32694   1.544   9.647  10.333  1.0110 -0.3379 -0.1257
  983MOL0     H32695   1.362   9.482  10.519 -0.4692 -0.6550 -2.3815
  983MOL0     H32696   1.405   9.655  10.524  0.3625  0.3010 -1.9640
  983MOL0     H32697   1.629   9.462  10.567  0.5638 -0.2151  1.5377
  983MOL0     H32698   1.524   9.505  10.692  1.4524 -2.9436 -0.1099
  983MOL0     H32699   1.739   9.644  10.653 -0.2474 -1.3927 -1.3221
  983MOL0     H32700   1.678   9.687  10.501  0.1803 -4.7972 -1.1006
  983MOL0     H32701   1.448   9.942  10.749 -0.1821 -1.3897  1.5878
  983MOL0     H32702   1.269   9.417  10.247 -1.3637 -0.6192  2.5345
  983MOL0     H32703   1.098   9.186  10.072 -0.5959  1.8091 -0.6677
  983MOL0     H32704   1.040   9.194  10.236 -0.6737 -0.9938 -1.6123
  983MOL0     H32705   1.093   9.342  10.153 -0.6874 -0.3713 -2.0932
  984MOL0     O32706   1.476   3.063   3.179 -0.3846  0.1918 -0.8584
  984MOL0     C32707   1.379   3.101   3.131  0.2381  0.5220 -0.3478
  984MOL0     O32708   1.290   3.192   3.188 -0.0610 -0.0698 -0.2276
  984MOL0     C32709   1.334   3.266   3.296 -0.0995  0.1741  0.0320
  984MOL0     C32710   1.457   3.327   3.308 -0.1080  0.6578  0.1420
  984MOL0     C32711   1.491   3.415   3.417  0.8671  0.1912 -0.1421
  984MOL0     C32712   1.387   3.441   3.509  1.2659 -0.1466  0.4414
  984MOL0     O32713   1.384   3.532   3.610 -0.5712  0.0319  0.6940
  984MOL0     C32714   1.454   3.659   3.584  0.9571 -0.1674 -0.2455
  984MOL0     C32715   1.601   3.647   3.632  0.1145 -0.6967  0.2421
  984MOL0     C32716   1.679   3.782   3.614 -0.1613 -0.3381  0.4395
  984MOL0     C32717   1.683   3.836   3.472 -0.5293  1.0328 -0.4953
  984MOL0     C32718   1.763   3.970   3.473  0.1227  0.6226  0.8752
  984MOL0     C32719   1.908   3.934   3.463 -0.1990 -1.4865  0.6011
  984MOL0     C32720   1.985   4.068   3.442  0.0010  0.0470  0.5241
  984MOL0     C32721   2.128   4.062   3.388 -0.3709  0.5721  0.0104
  984MOL0     N32722   2.156   3.969   3.275  0.6938  0.4538 -0.4837
  984MOL0     C32723   2.076   3.968   3.163  0.2852  0.7678 -0.0051
  984MOL0     C32724   2.129   3.880   3.082  0.4497 -0.3000  0.8925
  984MOL0     C32725   2.058   3.856   2.956  0.5401  0.4661  0.5110
  984MOL0     C32726   2.141   3.796   2.844 -0.1480 -0.4955 -0.5360
  984MOL0     C32727   2.066   3.804   2.711  0.2354  0.3394  0.8942
  984MOL0     C32728   2.149   3.780   2.601  0.1362 -1.9290  0.2538
  984MOL0     O32729   2.219   3.899   2.575  0.1329 -0.0151 -0.0950
  984MOL0     C32730   2.306   3.897   2.461 -0.3066 -0.4207  0.0453
  984MOL0     C32731   2.367   4.025   2.428  0.9059 -0.1489 -0.0089
  984MOL0     C32732   2.461   4.029   2.324 -0.1967  0.1838 -1.0420
  984MOL0     C32733   2.503   3.925   2.252 -0.1805  0.4903 -0.3817
  984MOL0     C32734   2.588   3.940   2.136 -1.3230 -0.4154 -0.3977
  984MOL0     O32735   2.699   3.861   2.140 -0.2793  0.5910  0.1621
  984MOL0     C32736   2.783   3.888   2.031  0.3287  0.3811 -0.5587
  984MOL0     C32737   2.814   3.786   1.945  0.5052  0.1564 -0.5032
  984MOL0     C32738   2.914   3.806   1.843  0.2440  0.1350 -0.6603
  984MOL0     C32739   2.998   3.918   1.856 -0.1222  0.1311 -0.3312
  984MOL0     O32740   3.090   3.931   1.757 -0.5987 -0.1583  0.0412
  984MOL0     C32741   3.204   4.022   1.787 -0.5721  0.1639 -0.5417
  984MOL0     C32742   3.300   4.017   1.672 -1.1982 -1.2318  0.3728
  984MOL0     C32743   3.399   4.134   1.673  0.2005 -0.1673  0.5087
  984MOL0     C32744   3.479   4.132   1.551  1.0249 -0.8290 -0.7021
  984MOL0     C32745   3.598   4.230   1.551 -0.4757 -0.6097  0.0561
  984MOL0     C32746   3.564   4.373   1.590  0.3475 -0.3267  0.8502
  984MOL0     C32747   3.497   4.446   1.470 -0.8189 -0.4296 -0.2812
  984MOL0     C32748   3.422   4.572   1.520  0.5113  0.3871  0.5768
  984MOL0    Cl32749   3.520   4.672   1.622 -0.1095 -0.3894 -0.3922
  984MOL0     C32750   2.967   4.020   1.948 -0.0588  0.6943  0.6215
  984MOL0     C32751   2.862   4.009   2.033  0.3563  0.4750  0.6062
  984MOL0     O32752   2.559   4.022   2.053  1.2646 -0.3500  0.8240
  984MOL0     C32753   2.448   3.796   2.289 -0.3825 -0.0396 -1.4036
  984MOL0     C32754   2.351   3.780   2.391 -0.0985 -0.5142  0.2840
  984MOL0     N32755   2.254   3.839   3.134 -0.0386 -0.2032  0.0288
  984MOL0     N32756   2.264   3.890   3.255  0.0414 -0.1607 -0.4717
  984MOL0     C32757   1.264   3.370   3.505  0.4394 -0.1376  0.6135
  984MOL0     C32758   1.246   3.284   3.400  0.0328 -0.6839 -0.0816
  984MOL0     C32759   1.343   3.059   2.993  0.4349  0.0045 -0.4976
  984MOL0     C32760   1.216   3.102   2.952  0.1653 -0.3046  0.5962
  984MOL0     C32761   1.164   3.062   2.827 -0.6048 -0.9559  0.2032
  984MOL0     C32762   1.227   2.982   2.745 -0.0611  0.3438 -0.0650
  984MOL0     O32763   1.189   2.944   2.620 -0.5280 -0.3415  0.0486
  984MOL0     C32764   1.075   2.992   2.551 -0.5371 -0.4586  0.8273
  984MOL0     C32765   0.965   2.912   2.609  0.8534  0.4299  0.3845
  984MOL0     C32766   0.831   2.984   2.590  0.1949 -0.0307  0.1347
  984MOL0     C32767   0.786   2.982   2.445  0.0047 -1.1874 -0.7902
  984MOL0     C32768   0.687   2.870   2.430 -0.3109  0.2608 -0.5835
  984MOL0     C32769   0.591   2.791   2.427  0.2016  0.3526 -0.1918
  984MOL0     C32770   1.356   2.941   2.782 -0.1306 -0.7570 -0.4804
  984MOL0     C32771   1.412   2.975   2.906 -1.4920 -0.4572 -0.4556
  984MOL0     C32772   1.559   2.941   2.937 -0.2915 -0.2679 -1.5107
  984MOL0     H32773   1.526   3.308   3.226 -0.9986  1.6831 -0.8856
  984MOL0     H32774   1.584   3.471   3.419  0.6116  0.6308  2.2742
  984MOL0     H32775   1.447   3.670   3.475 -2.5805  1.3885  0.0152
  984MOL0     H32776   1.392   3.736   3.631 -0.9294 -1.9087  0.2666
  984MOL0     H32777   1.662   3.567   3.589 -1.4960 -1.9632  0.1891
  984MOL0     H32778   1.600   3.631   3.740 -1.5991  0.7540  0.4917
  984MOL0     H32779   1.777   3.766   3.661 -2.2060 -2.0148  4.6765
  984MOL0     H32780   1.626   3.860   3.670 -0.3222  1.0864 -1.5886
  984MOL0     H32781   1.724   3.763   3.402 -1.8198  0.5651 -0.7885
  984MOL0     H32782   1.578   3.848   3.446 -0.6329  1.0624 -0.0751
  984MOL0     H32783   1.727   4.031   3.390 -0.3534  0.5471  1.0200
  984MOL0     H32784   1.731   4.026   3.562  0.0157 -0.3702  1.4782
  984MOL0     H32785   1.953   3.888   3.552  2.1509 -1.1831 -0.3625
  984MOL0     H32786   1.927   3.880   3.370 -0.9978 -0.3520 -0.2436
  984MOL0     H32787   1.970   4.137   3.526  4.0841  1.6209  0.1656
  984MOL0     H32788   1.935   4.120   3.360  0.5910  0.9316  0.7104
  984MOL0     H32789   2.164   4.160   3.356  0.0179 -0.1376 -1.8316
  984MOL0     H32790   2.194   4.022   3.466  0.3190 -0.4191 -1.0584
  984MOL0     H32791   1.974   4.005   3.167 -0.9013 -2.3416  1.9344
  984MOL0     H32792   1.981   3.785   2.987  0.2247  0.7041  0.2653
  984MOL0     H32793   2.008   3.946   2.918  4.4646  1.4664 -3.1037
  984MOL0     H32794   2.228   3.862   2.844 -0.3107 -0.2809 -0.7113
  984MOL0     H32795   2.187   3.699   2.867  0.7153  0.0397  0.0385
  984MOL0     H32796   2.012   3.898   2.696  1.1146  0.2894 -4.1575
  984MOL0     H32797   1.981   3.735   2.702 -1.1659  2.2830 -4.3203
  984MOL0     H32798   2.098   3.744   2.511  2.3901 -2.0042 -1.0591
  984MOL0     H32799   2.227   3.710   2.632  1.7653  0.0968  0.9915
  984MOL0     H32800   2.354   4.119   2.482  0.7750 -0.2213  0.0881
  984MOL0     H32801   2.513   4.125   2.320  3.5762 -1.6424 -0.7212
  984MOL0     H32802   2.755   3.696   1.961  0.4242  0.2475 -0.2818
  984MOL0     H32803   2.938   3.748   1.754  1.7394 -0.9726  0.4113
  984MOL0     H32804   3.181   4.127   1.804  1.0496  0.8188 -2.0468
  984MOL0     H32805   3.248   3.979   1.877 -1.9932  1.1093  0.6426
  984MOL0     H32806   3.358   3.924   1.677 -0.2324 -0.6142  1.3071
  984MOL0     H32807   3.240   4.018   1.581  1.6276 -2.1724 -1.6291
  984MOL0     H32808   3.358   4.232   1.699  2.7460  0.9627  0.5378
  984MOL0     H32809   3.475   4.120   1.751  0.9438 -0.3044 -0.2245
  984MOL0     H32810   3.401   4.164   1.482  0.8535  2.3715  0.7906
  984MOL0     H32811   3.520   4.034   1.525 -0.3779 -1.8049  0.5923
  984MOL0     H32812   3.644   4.226   1.452 -0.2103  2.5432 -0.0583
  984MOL0     H32813   3.669   4.196   1.628  0.2075  1.9344  0.6479
  984MOL0     H32814   3.495   4.376   1.674 -3.8697 -0.7158 -2.2757
  984MOL0     H32815   3.664   4.416   1.604  1.1610 -1.9511  0.3771
  984MOL0     H32816   3.416   4.388   1.425 -1.2228  0.4644 -0.7291
  984MOL0     H32817   3.573   4.469   1.394 -0.0629  0.4220  0.6841
  984MOL0     H32818   3.385   4.631   1.436  1.6528 -1.2178 -1.1487
  984MOL0     H32819   3.329   4.544   1.571  0.9833  0.7991  1.6962
  984MOL0     H32820   3.023   4.112   1.958  0.6384  0.4785 -0.9745
  984MOL0     H32821   2.828   4.089   2.098 -3.6332 -1.9409  1.8670
  984MOL0     H32822   2.482   3.717   2.223  0.5643 -1.8223  1.0554
  984MOL0     H32823   2.312   3.684   2.424 -1.1731 -0.3164 -0.3756
  984MOL0     H32824   1.182   3.398   3.570 -0.3083  0.0227 -0.3723
  984MOL0     H32825   1.145   3.245   3.394 -0.6861  0.5824  2.3535
  984MOL0     H32826   1.152   3.161   3.016  2.2923  0.3475  2.2681
  984MOL0     H32827   1.064   3.093   2.799 -0.6943 -2.2765 -1.0717
  984MOL0     H32828   1.080   2.974   2.443 -1.0184 -2.0666  1.0474
  984MOL0     H32829   1.054   3.098   2.565  0.7314 -0.0065 -0.4876
  984MOL0     H32830   0.972   2.906   2.718 -0.0310  0.5546  0.4558
  984MOL0     H32831   0.954   2.813   2.565  2.0798 -0.0948  1.2140
  984MOL0     H32832   0.829   3.085   2.630  4.3763  0.1893  0.1524
  984MOL0     H32833   0.757   2.943   2.660  0.3137  1.1065  0.9557
  984MOL0     H32834   0.724   3.071   2.432  1.5586 -0.3381 -3.0721
  984MOL0     H32835   0.866   2.977   2.370  0.2758  1.1001 -0.6991
  984MOL0     H32836   0.519   2.713   2.439  0.0731  0.8673  3.1254
  984MOL0     H32837   1.409   2.893   2.700 -1.7273 -0.2000 -1.8778
  984MOL0     H32838   1.583   2.887   3.029  0.3257 -0.5515 -1.8290
  984MOL0     H32839   1.605   2.885   2.855 -2.6186  2.1536 -4.7597
  984MOL0     H32840   1.605   3.040   2.943  0.3786 -0.6518  0.6603
  985MOL0     O32841   7.618  11.324   8.495 -0.4730  1.0089  0.1736
  985MOL0     C32842   7.612  11.361   8.613 -0.1667 -0.5560 -0.7206
  985MOL0     O32843   7.565  11.474   8.653  0.6196 -0.0541  0.6161
  985MOL0     C32844   7.543  11.570   8.561  0.5477 -0.9374  0.3251
  985MOL0     C32845   7.649  11.644   8.506  0.1066  0.0833  0.2177
  985MOL0     C32846   7.632  11.736   8.406  0.3132 -1.2984  0.4582
  985MOL0     C32847   7.507  11.766   8.356  1.1696 -0.3610  0.1320
  985MOL0     O32848   7.473  11.860   8.261  0.3992 -0.3852 -0.2648
  985MOL0     C32849   7.580  11.924   8.190 -0.2431 -0.3411 -0.1488
  985MOL0     C32850   7.518  12.012   8.084 -0.3609 -0.2165 -0.3996
  985MOL0     C32851   7.613  12.120   8.037 -1.1753 -0.3187  0.0441
  985MOL0     C32852   7.585  12.195   7.909  0.2090  0.4105 -0.5609
  985MOL0     C32853   7.683  12.305   7.884  0.0288 -0.6152  0.2347
  985MOL0     C32854   7.646  12.391   7.760  1.2333  0.4391  0.2898
  985MOL0     C32855   7.719  12.515   7.755 -0.9325 -0.1444 -0.2019
  985MOL0     C32856   7.856  12.516   7.702 -0.5945  0.9361  0.0159
  985MOL0     N32857   7.865  12.518   7.554 -0.4489  0.4553 -0.0135
  985MOL0     C32858   7.897  12.626   7.480 -0.7388  0.2455 -0.0601
  985MOL0     C32859   7.891  12.579   7.358  0.2508  0.2391  0.4477
  985MOL0     C32860   7.915  12.662   7.247 -0.5744 -1.0520 -0.1913
  985MOL0     C32861   7.863  12.609   7.110  0.3211 -0.3591  0.5029
  985MOL0     C32862   7.868  12.706   6.993 -0.9926 -0.2887 -0.3465
  985MOL0     C32863   7.843  12.635   6.858 -0.2078  0.4797  0.9555
  985MOL0     O32864   7.781  12.722   6.765  0.4884  0.3000  0.8126
  985MOL0     C32865   7.852  12.823   6.710  0.6940 -0.5921  0.4981
  985MOL0     C32866   7.987  12.820   6.682  0.1703 -0.2390  0.2878
  985MOL0     C32867   8.044  12.937   6.615 -0.1407  0.5370 -0.1132
  985MOL0     C32868   7.961  13.056   6.592  0.7305  0.6979 -0.6129
  985MOL0     C32869   8.025  13.172   6.524  0.9275  0.6434 -0.0893
  985MOL0     O32870   8.144  13.155   6.463 -1.2259  0.3457 -0.6197
  985MOL0     C32871   8.189  13.246   6.374  0.0800 -0.5669  0.4128
  985MOL0     C32872   8.192  13.383   6.400 -0.0178  0.3423  0.1521
  985MOL0     C32873   8.242  13.467   6.299  0.2192  0.3754  0.3418
  985MOL0     C32874   8.292  13.416   6.181 -0.1548  0.3312  1.0170
  985MOL0     O32875   8.346  13.502   6.083  0.5290 -0.7848 -0.1235
  985MOL0     C32876   8.283  13.507   5.957  0.0894  1.5059  0.6539
  985MOL0     C32877   8.351  13.411   5.854 -0.7997 -0.0245  0.8723
  985MOL0     C32878   8.312  13.431   5.713  0.5148 -0.6435 -0.0592
  985MOL0     C32879   8.360  13.336   5.612  0.7902  0.2691  0.7839
  985MOL0     C32880   8.318  13.350   5.467  0.0093  0.0430  0.5005
  985MOL0     C32881   8.342  13.226   5.376 -0.0073  0.2462  0.5227
  985MOL0     C32882   8.488  13.176   5.357  0.2599  0.5941  0.3894
  985MOL0     C32883   8.554  13.281   5.267 -0.3307  0.6749 -0.7362
  985MOL0    Cl32884   8.711  13.240   5.209 -0.0285  0.0108 -0.0515
  985MOL0     C32885   8.298  13.280   6.160  0.3499 -0.5673  0.0560
  985MOL0     C32886   8.242  13.194   6.255 -0.4998  0.1298 -0.1222
  985MOL0     O32887   7.963  13.278   6.534 -0.0997  0.4484  0.6186
  985MOL0     C32888   7.822  13.052   6.630 -0.1471 -0.3982  0.9108
  985MOL0     C32889   7.769  12.933   6.681 -0.4868  0.3709 -0.0547
  985MOL0     N32890   7.859  12.447   7.351 -0.3497 -0.0669  0.4239
  985MOL0     N32891   7.837  12.411   7.476  0.2916 -0.4358 -0.1885
  985MOL0     C32892   7.397  11.698   8.414 -0.2907 -0.4432 -0.5845
  985MOL0     C32893   7.415  11.602   8.511  0.1168  0.3379 -0.5559
  985MOL0     C32894   7.667  11.272   8.721  0.1688  0.4885  0.2139
  985MOL0     C32895   7.675  11.135   8.691  0.2489  0.2501 -1.0095
  985MOL0     C32896   7.728  11.036   8.774  0.1061  1.1338 -0.7086
  985MOL0     C32897   7.768  11.080   8.903  0.1553  0.8295 -0.1100
  985MOL0     O32898   7.825  10.985   8.994  0.8208  0.1443  0.4690
  985MOL0     C32899   7.726  10.892   9.035 -0.4785  0.9311  0.5609
  985MOL0     C32900   7.743  10.857   9.186 -0.4065  0.0836  1.1353
  985MOL0     C32901   7.667  10.735   9.230  0.7729  0.4908 -0.2589
  985MOL0     C32902   7.706  10.602   9.168 -0.6850 -0.4836 -0.3752
  985MOL0     C32903   7.674  10.501   9.267 -0.3177  0.6255  0.1090
  985MOL0     C32904   7.644  10.412   9.342  1.0530  0.3262 -0.4803
  985MOL0     C32905   7.766  11.217   8.937 -0.3757 -0.1453 -0.3297
  985MOL0     C32906   7.712  11.315   8.853  0.0573 -0.0562 -0.3285
  985MOL0     C32907   7.706  11.455   8.897  1.2117 -0.5170 -0.1982
  985MOL0     H32908   7.753  11.629   8.535 -0.0294 -0.8769  0.2376
  985MOL0     H32909   7.717  11.786   8.362 -1.1202  0.1988 -0.7798
  985MOL0     H32910   7.645  11.988   8.251 -2.2305  0.5894  1.0850
  985MOL0     H32911   7.650  11.851   8.149  1.7566 -0.1274  2.5955
  985MOL0     H32912   7.433  12.063   8.130  0.0442 -0.4178  0.5809
  985MOL0     H32913   7.483  11.954   7.998 -3.2678  0.0776  0.4732
  985MOL0     H32914   7.716  12.083   8.024 -0.6748  0.7377  0.8536
  985MOL0     H32915   7.610  12.195   8.116  0.1615  0.7128 -0.8267
  985MOL0     H32916   7.580  12.127   7.825  1.3851  0.2811 -0.5413
  985MOL0     H32917   7.486  12.240   7.919  0.2069  0.2708  0.1369
  985MOL0     H32918   7.681  12.369   7.973  1.3069  0.6163 -0.5789
  985MOL0     H32919   7.782  12.258   7.882  2.0391  3.2498  0.4306
  985MOL0     H32920   7.647  12.341   7.663  1.3462  1.5644 -0.3044
  985MOL0     H32921   7.542  12.419   7.777  0.6822  0.7713 -3.0368
  985MOL0     H32922   7.723  12.549   7.859  0.5373  0.7302 -0.5220
  985MOL0     H32923   7.669  12.597   7.703 -1.3230 -0.9468 -1.1109
  985MOL0     H32924   7.915  12.599   7.742 -0.7842 -0.0105  2.4311
  985MOL0     H32925   7.896  12.430   7.756  0.6290  0.5081 -1.4856
  985MOL0     H32926   7.922  12.721   7.525  1.2174 -1.5172  2.9961
  985MOL0     H32927   7.843  12.743   7.258 -1.6795 -2.1755  1.2504
  985MOL0     H32928   8.018  12.694   7.227 -0.8554  0.1799  0.2945
  985MOL0     H32929   7.919  12.516   7.095  3.7542  1.1617  2.5976
  985MOL0     H32930   7.755  12.590   7.113  0.1176  0.7010  0.1745
  985MOL0     H32931   7.965  12.756   6.993 -0.6738 -0.8835 -1.4219
  985MOL0     H32932   7.799  12.787   7.023  1.2490  0.7829  2.3430
  985MOL0     H32933   7.791  12.539   6.862 -1.2133  1.0092  0.9122
  985MOL0     H32934   7.942  12.607   6.821 -0.7881 -1.4865  0.7872
  985MOL0     H32935   8.056  12.737   6.692 -1.5780 -1.5350  2.9348
  985MOL0     H32936   8.144  12.931   6.575  1.2306  2.5713  2.6604
  985MOL0     H32937   8.155  13.421   6.495 -0.1181 -1.2657  0.7886
  985MOL0     H32938   8.233  13.574   6.313  1.5341  0.6456 -0.7073
  985MOL0     H32939   8.174  13.504   5.969 -1.0257  3.3091 -5.4920
  985MOL0     H32940   8.298  13.598   5.898  2.2816  0.5128 -0.4589
  985MOL0     H32941   8.460  13.414   5.859 -0.5192 -1.7842 -1.8384
  985MOL0     H32942   8.329  13.307   5.881  0.2465 -0.8294 -1.1781
  985MOL0     H32943   8.205  13.453   5.718  0.4262 -1.3101  2.6518
  985MOL0     H32944   8.358  13.527   5.686 -2.7862  0.7487 -1.2556
  985MOL0     H32945   8.323  13.243   5.655  2.4079  0.4678  2.8061
  985MOL0     H32946   8.467  13.313   5.617  0.2609 -2.3210  4.0479
  985MOL0     H32947   8.374  13.431   5.420 -2.4641  1.2908 -0.4598
  985MOL0     H32948   8.214  13.384   5.462 -0.1127 -0.1765  1.3982
  985MOL0     H32949   8.288  13.142   5.419 -0.3332 -0.4035 -1.0885
  985MOL0     H32950   8.297  13.247   5.279 -3.8106 -2.9099  1.3480
  985MOL0     H32951   8.498  13.078   5.309  2.5100  0.1734  1.5546
  985MOL0     H32952   8.542  13.174   5.453 -2.0623 -1.8817  1.7929
  985MOL0     H32953   8.496  13.314   5.181  0.5155 -1.3042 -2.1437
  985MOL0     H32954   8.572  13.360   5.341 -1.5839  0.4615 -0.1794
  985MOL0     H32955   8.351  13.234   6.078 -1.8067 -0.7566 -1.3250
  985MOL0     H32956   8.238  13.089   6.227 -0.9808  0.3135 -0.7737
  985MOL0     H32957   7.756  13.132   6.601  0.7260  0.5822  1.5372
  985MOL0     H32958   7.662  12.922   6.698 -0.4629 -2.3219 -1.0972
  985MOL0     H32959   7.298  11.731   8.386 -1.1092 -1.5684  0.8456
  985MOL0     H32960   7.326  11.550   8.546  0.6817 -2.9210 -3.3592
  985MOL0     H32961   7.649  11.085   8.598  0.0965 -0.6342 -0.5024
  985MOL0     H32962   7.733  10.932   8.744  0.5948  1.0440 -0.3372
  985MOL0     H32963   7.729  10.800   8.976  1.3910  1.1683  0.2432
  985MOL0     H32964   7.625  10.932   9.025  1.0184  4.3630 -3.3370
  985MOL0     H32965   7.724  10.948   9.243 -1.1322  2.0922 -2.0558
  985MOL0     H32966   7.849  10.840   9.211 -0.3776 -2.0460 -0.1788
  985MOL0     H32967   7.561  10.743   9.204  0.5426 -0.1440  0.4665
  985MOL0     H32968   7.677  10.736   9.338  1.3614  0.1560 -0.3032
  985MOL0     H32969   7.655  10.569   9.077 -0.4969 -2.5258  0.2126
  985MOL0     H32970   7.811  10.595   9.139 -0.6210 -1.4843  0.0466
  985MOL0     H32971   7.618  10.336   9.413  1.3107  1.6818  1.1115
  985MOL0     H32972   7.814  11.249   9.030  2.7184 -1.2403 -1.4062
  985MOL0     H32973   7.748  11.466   8.998 -0.5028 -1.9169  0.7427
  985MOL0     H32974   7.779  11.507   8.834 -1.3345  0.4516 -2.5479
  985MOL0     H32975   7.606  11.499   8.895  2.1413  1.6907 -1.3919
  986MOL0     O32976   8.745   0.122  11.027  0.5221 -0.4349 -0.1598
  986MOL0     C32977   8.787   0.201  11.109  0.4439 -0.1169  0.7499
  986MOL0     O32978   8.919   0.219  11.134 -0.2580  0.6859 -0.2395
  986MOL0     C32979   9.007   0.119  11.108  0.6994  0.5377 -0.1299
  986MOL0     C32980   8.984  -0.021  11.124 -0.2772 -0.1350 -0.1966
  986MOL0     C32981   9.076  -0.119  11.090 -0.0933  0.0699 -0.7802
  986MOL0     C32982   9.207  -0.086  11.053 -0.2077  0.5688 -0.2626
  986MOL0     O32983   9.303  -0.173  11.016  0.1123  0.0224 -0.0226
  986MOL0     C32984   9.330  -0.303  11.073 -0.4104 -1.3743 -0.1585
  986MOL0     C32985   9.334  -0.309  11.229  0.6672 -0.4733 -0.3114
  986MOL0     C32986   9.302  -0.452  11.275  0.6008 -0.8389  0.0610
  986MOL0     C32987   9.343  -0.471  11.417 -0.2200 -0.0114  0.7086
  986MOL0     C32988   9.315  -0.606  11.482  0.1997  0.4717  0.0373
  986MOL0     C32989   9.387  -0.621  11.610  0.3220 -0.2505  0.0521
  986MOL0     C32990   9.388  -0.756  11.680 -1.0910 -0.5788 -0.5954
  986MOL0     C32991   9.256  -0.838  11.668 -0.3483  0.7116 -1.2388
  986MOL0     N32992   9.170  -0.801  11.784 -0.4868 -0.1872  0.0307
  986MOL0     C32993   9.147  -0.866  11.903 -1.0237 -0.1596  0.0500
  986MOL0     C32994   9.062  -0.795  11.970 -0.4293  0.4938  0.0069
  986MOL0     C32995   9.019  -0.833  12.107 -0.4796  1.0611  0.8287
  986MOL0     C32996   9.127  -0.792  12.213  0.2104  0.5786  0.2216
  986MOL0     C32997   9.113  -0.855  12.360 -0.2338  1.3038 -0.8126
  986MOL0     C32998   8.995  -0.786  12.430 -0.0878 -0.2235  0.0189
  986MOL0     O32999   8.985  -0.640  12.435 -0.1911 -0.5918  0.1326
  986MOL0     C33000   9.062  -0.553  12.514  0.5155  0.3537  0.9387
  986MOL0     C33001   9.010  -0.422  12.528 -0.6517  0.2936 -0.6758
  986MOL0     C33002   9.077  -0.335  12.611  1.2084  0.0436  0.0390
  986MOL0     C33003   9.179  -0.374  12.695  0.5113  0.0024 -0.5180
  986MOL0     C33004   9.237  -0.283  12.797  0.6591 -0.6375 -0.4001
  986MOL0     O33005   9.311  -0.345  12.900 -0.3880 -0.2974  0.3851
  986MOL0     C33006   9.357  -0.271  13.005 -0.4369 -0.0599  0.2659
  986MOL0     C33007   9.259  -0.215  13.087 -1.0309  0.1689 -0.1149
  986MOL0     C33008   9.287  -0.125  13.191 -0.4477 -0.1626  0.5864
  986MOL0     C33009   9.424  -0.098  13.222 -0.7032 -0.2940 -0.1840
  986MOL0     O33010   9.467  -0.018  13.327 -0.3202 -0.1477  0.1088
  986MOL0     C33011   9.380   0.084  13.373  0.2066 -0.0653  0.4782
  986MOL0     C33012   9.474   0.198  13.416  0.7956  0.7139  1.1520
  986MOL0     C33013   9.562   0.182  13.543 -0.3940  0.5987 -0.3357
  986MOL0     C33014   9.624   0.328  13.577 -0.7441 -0.2852  0.5827
  986MOL0     C33015   9.762   0.325  13.652  0.1341 -0.5091  0.2471
  986MOL0     C33016   9.746   0.266  13.792  0.6298  0.5310 -0.3022
  986MOL0     C33017   9.863   0.287  13.874  0.0123  0.3426 -0.7524
  986MOL0     C33018   9.877   0.173  13.983 -0.3364  0.3061 -0.1696
  986MOL0    Cl33019   9.730   0.132  14.071 -0.0063 -0.0151 -0.1367
  986MOL0     C33020   9.523  -0.168  13.154 -0.0986  0.4002 -0.9598
  986MOL0     C33021   9.492  -0.254  13.044  0.2996 -1.8797  0.5110
  986MOL0     O33022   9.212  -0.161  12.798 -0.2600  0.3189 -0.1151
  986MOL0     C33023   9.221  -0.506  12.687  0.1812  0.3124  0.0662
  986MOL0     C33024   9.172  -0.593  12.590 -0.3526 -1.1881  0.4758
  986MOL0     N33025   9.023  -0.693  11.887  0.1936  0.3794 -0.0677
  986MOL0     N33026   9.093  -0.693  11.783  0.8464 -0.3602  0.0356
  986MOL0     C33027   9.232   0.051  11.035  0.6435 -0.0783 -0.9339
  986MOL0     C33028   9.132   0.153  11.068  0.6260  0.2740  0.7836
  986MOL0     C33029   8.693   0.307  11.162 -0.0369 -0.2359 -0.3018
  986MOL0     C33030   8.716   0.444  11.123 -0.1280  0.1281 -0.4264
  986MOL0     C33031   8.641   0.541  11.169 -0.4450  0.3901 -0.4187
  986MOL0     C33032   8.528   0.517  11.252 -1.5729  0.2333 -1.0786
  986MOL0     O33033   8.447   0.625  11.291  0.1120  0.1062 -0.7346
  986MOL0     C33034   8.355   0.619  11.406 -0.2682 -0.1010  0.3957
  986MOL0     C33035   8.230   0.695  11.367  0.1431 -1.6024  0.2194
  986MOL0     C33036   8.160   0.665  11.232 -0.2861 -0.2643 -0.2776
  986MOL0     C33037   8.028   0.739  11.210  0.5621  0.8385 -0.1088
  986MOL0     C33038   7.925   0.630  11.226 -0.7273  0.2397 -0.9127
  986MOL0     C33039   7.835   0.552  11.203 -0.8735 -0.4376  0.5094
  986MOL0     C33040   8.503   0.387  11.297  0.7354  0.4952 -0.2719
  986MOL0     C33041   8.588   0.284  11.256 -0.5389 -0.1591  0.3149
  986MOL0     C33042   8.553   0.143  11.280  0.0114 -0.2487 -0.3818
  986MOL0     H33043   8.886  -0.055  11.157  0.0480 -1.6706 -0.7159
  986MOL0     H33044   9.051  -0.225  11.092  0.3181 -0.0308 -0.9217
  986MOL0     H33045   9.257  -0.377  11.039 -1.9950  0.4811 -0.9802
  986MOL0     H33046   9.435  -0.330  11.055  0.9055  2.3659  0.9849
  986MOL0     H33047   9.254  -0.255  11.281 -1.1603 -1.0852 -2.3035
  986MOL0     H33048   9.432  -0.276  11.265 -0.0225  0.3742  0.8660
  986MOL0     H33049   9.360  -0.530  11.225 -0.6272 -2.5217  1.1621
  986MOL0     H33050   9.198  -0.484  11.263  0.4713 -3.2597  5.1564
  986MOL0     H33051   9.449  -0.448  11.433 -0.3653  1.3364 -0.1110
  986MOL0     H33052   9.294  -0.393  11.477 -0.1443  2.1508 -1.8508
  986MOL0     H33053   9.207  -0.614  11.501  0.4896 -0.8469  1.3389
  986MOL0     H33054   9.348  -0.686  11.415  2.4882 -0.6961  2.3928
  986MOL0     H33055   9.492  -0.592  11.598  0.5462 -0.8822  0.4560
  986MOL0     H33056   9.341  -0.551  11.681 -0.7985 -2.3396  1.4854
  986MOL0     H33057   9.424  -0.741  11.782  3.2267  1.8690 -2.2354
  986MOL0     H33058   9.470  -0.809  11.632  0.6057  1.3157  0.0880
  986MOL0     H33059   9.196  -0.819  11.579 -1.9033  1.9060 -0.0027
  986MOL0     H33060   9.286  -0.943  11.678 -1.6558  0.4533  0.7389
  986MOL0     H33061   9.206  -0.952  11.935 -0.0948  0.0714 -0.9754
  986MOL0     H33062   8.921  -0.788  12.124 -0.2484  1.8893  0.0687
  986MOL0     H33063   9.009  -0.942  12.111 -2.8158  1.2156  0.6115
  986MOL0     H33064   9.229  -0.809  12.178  0.1785  2.0236 -0.6396
  986MOL0     H33065   9.132  -0.685  12.235  2.3930  0.1728  2.1268
  986MOL0     H33066   9.201  -0.843  12.424  0.6935 -1.7592 -1.3150
  986MOL0     H33067   9.103  -0.964  12.363  0.4405  1.1369  3.9531
  986MOL0     H33068   9.001  -0.822  12.534 -2.6499 -0.6068  0.0996
  986MOL0     H33069   8.898  -0.822  12.394 -2.8147  1.6011  4.6488
  986MOL0     H33070   8.924  -0.386  12.473 -2.1622  3.4941  3.2739
  986MOL0     H33071   9.049  -0.231  12.625  0.8734  0.2712 -1.9893
  986MOL0     H33072   9.153  -0.235  13.081 -0.5851 -2.4530 -0.7153
  986MOL0     H33073   9.217  -0.082  13.261  0.3154 -3.5539  3.7320
  986MOL0     H33074   9.322   0.125  13.290  1.4021 -0.1998 -0.4548
  986MOL0     H33075   9.315   0.064  13.458  0.0718 -0.8774  0.1981
  986MOL0     H33076   9.541   0.207  13.330 -0.3731 -0.3326  0.0792
  986MOL0     H33077   9.405   0.283  13.418 -0.1458  0.0261 -0.3626
  986MOL0     H33078   9.512   0.140  13.631 -0.3059  1.2101  0.0154
  986MOL0     H33079   9.643   0.113  13.520  0.5352  0.9264  1.6672
  986MOL0     H33080   9.548   0.368  13.645  0.8765  2.9660  0.6669
  986MOL0     H33081   9.630   0.393  13.489 -0.6481  0.1471  0.9070
  986MOL0     H33082   9.792   0.429  13.666  1.6347 -0.8939  0.0410
  986MOL0     H33083   9.831   0.279  13.580 -1.2433 -3.0855  0.4507
  986MOL0     H33084   9.654   0.305  13.837 -0.4157  0.1760 -2.0316
  986MOL0     H33085   9.723   0.160  13.776 -1.9434  0.5174  2.5148
  986MOL0     H33086   9.843   0.385  13.919 -2.4570 -1.2479  1.9603
  986MOL0     H33087   9.962   0.307  13.832  0.6897  1.6805  1.2905
  986MOL0     H33088   9.902   0.082  13.928  0.5855 -0.9105  2.1348
  986MOL0     H33089   9.955   0.197  14.057 -0.4286 -0.1537  0.0832
  986MOL0     H33090   9.628  -0.166  13.183 -0.4780 -2.1919  0.9215
  986MOL0     H33091   9.581  -0.294  12.995  0.2208  0.5336 -1.8245
  986MOL0     H33092   9.294  -0.543  12.758 -0.3714  1.9578  1.5668
  986MOL0     H33093   9.198  -0.698  12.596  2.6650 -0.4341  4.3747
  986MOL0     H33094   9.324   0.090  10.992  0.9874  0.2487  0.0634
  986MOL0     H33095   9.160   0.251  11.032 -2.2528 -0.2086 -3.4025
  986MOL0     H33096   8.801   0.465  11.059 -1.8052 -0.3335 -2.9279
  986MOL0     H33097   8.680   0.639  11.143  1.8620 -0.3811 -0.0924
  986MOL0     H33098   8.403   0.683  11.480 -2.4449  1.1028  0.8710
  986MOL0     H33099   8.323   0.519  11.436 -1.7071  0.2197  0.0136
  986MOL0     H33100   8.256   0.801  11.378 -0.8449 -1.6475  5.1414
  986MOL0     H33101   8.159   0.689  11.449 -0.5130  1.4719  0.0177
  986MOL0     H33102   8.157   0.560  11.203  0.2108  0.3016 -2.5575
  986MOL0     H33103   8.225   0.715  11.159 -1.7067  0.7100 -0.9250
  986MOL0     H33104   8.021   0.817  11.286 -0.6547  0.4403  0.2105
  986MOL0     H33105   8.029   0.783  11.110  0.8912 -3.2998 -2.1635
  986MOL0     H33106   7.767   0.477  11.167  0.0493 -0.6697 -0.8129
  986MOL0     H33107   8.414   0.374  11.358  2.3979  2.7936  2.9719
  986MOL0     H33108   8.475   0.133  11.356  0.9020  1.1284  0.7721
  986MOL0     H33109   8.520   0.099  11.185 -1.7861 -0.0889  0.1413
  986MOL0     H33110   8.643   0.099  11.324  1.7120  3.1401 -0.1384
  987MOL0     O33111   9.822   0.604   5.085 -0.7230  0.2946  0.1693
  987MOL0     C33112   9.937   0.566   5.062 -0.0387  0.0328  0.4697
  987MOL0     O33113   9.985   0.443   5.076  0.0472  0.6028  0.5529
  987MOL0     C33114   9.908   0.340   5.120 -0.0609 -0.7324  0.8460
  987MOL0     C33115   9.782   0.313   5.060 -0.1176  0.0785 -0.2882
  987MOL0     C33116   9.707   0.208   5.119  0.0749 -0.6824 -0.6646
  987MOL0     C33117   9.762   0.130   5.223 -0.0145  0.4009  0.1320
  987MOL0     O33118   9.685   0.025   5.280  0.3248  0.3248  0.0073
  987MOL0     C33119   9.569  -0.039   5.216  0.6106 -0.7842 -1.1942
  987MOL0     C33120   9.507  -0.111   5.319 -0.7331 -1.1983 -0.5079
  987MOL0     C33121   9.597  -0.226   5.378  0.0962  0.4055  1.1946
  987MOL0     C33122   9.537  -0.291   5.495  0.8320  0.3425 -0.4102
  987MOL0     C33123   9.638  -0.389   5.554 -0.2446 -0.5189 -0.1074
  987MOL0     C33124   9.753  -0.333   5.630  0.0515 -0.8721 -0.3285
  987MOL0     C33125   9.883  -0.404   5.595 -0.2794 -0.6021  0.8746
  987MOL0     C33126   9.961  -0.319   5.488  1.1705 -0.6093 -0.5213
  987MOL0     N33127  10.080  -0.394   5.433 -0.0595 -0.0884 -0.2913
  987MOL0     C33128  10.211  -0.373   5.465 -0.8889  0.5508 -1.2323
  987MOL0     C33129  10.278  -0.454   5.386  1.2577  0.2618  0.0678
  987MOL0     C33130  10.418  -0.491   5.395 -0.2934  0.2893  1.0103
  987MOL0     C33131  10.460  -0.616   5.318 -0.0712 -0.2223 -0.2941
  987MOL0     C33132  10.592  -0.645   5.381 -0.5906 -0.5405 -0.6124
  987MOL0     C33133  10.655  -0.783   5.343  0.0809 -0.3401 -0.2555
  987MOL0     O33134  10.796  -0.777   5.369 -0.1384  0.7214 -0.1130
  987MOL0     C33135  10.865  -0.859   5.284  0.4817 -0.1794  0.0592
  987MOL0     C33136  10.895  -0.993   5.311 -0.4666 -0.1531 -1.2926
  987MOL0     C33137  10.971  -1.069   5.228 -0.0440  0.3631  0.2592
  987MOL0     C33138  11.032  -1.013   5.109 -0.9899  0.7533  0.5019
  987MOL0     C33139  11.104  -1.091   5.005 -0.2082  0.6766 -0.2476
  987MOL0     O33140  11.117  -1.224   5.017 -1.0973  0.3836  0.6919
  987MOL0     C33141  11.214  -1.299   4.947  0.5458  0.8705  0.1357
  987MOL0     C33142  11.358  -1.268   4.939  0.8296 -0.3392 -1.0586
  987MOL0     C33143  11.445  -1.361   4.874 -0.8978 -0.4822  0.2503
  987MOL0     C33144  11.400  -1.485   4.827 -0.1127 -0.5612 -0.4447
  987MOL0     O33145  11.496  -1.568   4.770  0.0465 -0.2349 -0.1795
  987MOL0     C33146  11.624  -1.585   4.829 -0.5873 -0.7122  0.0512
  987MOL0     C33147  11.631  -1.648   4.972  0.7187  0.5731  0.1069
  987MOL0     C33148  11.563  -1.782   4.985  0.6078  0.4914 -0.9188
  987MOL0     C33149  11.625  -1.898   4.901 -0.8901  0.0368 -0.3678
  987MOL0     C33150  11.590  -2.048   4.955  0.1737 -0.7806 -0.3124
  987MOL0     C33151  11.660  -2.156   4.879 -0.5750  0.2368 -1.0730
  987MOL0     C33152  11.630  -2.299   4.933 -0.2350  0.0014 -0.8741
  987MOL0     C33153  11.682  -2.323   5.073  0.4288 -0.1384 -0.2443
  987MOL0    Cl33154  11.861  -2.333   5.078  0.0132  0.0346  0.2951
  987MOL0     C33155  11.256  -1.508   4.825 -1.0779  0.6027 -0.7403
  987MOL0     C33156  11.170  -1.420   4.892 -0.8556  0.4522 -0.5840
  987MOL0     O33157  11.162  -1.027   4.920  0.3225 -0.7232 -0.3587
  987MOL0     C33158  10.994  -0.886   5.075 -0.3664  0.6772 -0.1069
  987MOL0     C33159  10.913  -0.813   5.161 -0.1915 -0.0800 -0.8624
  987MOL0     N33160  10.189  -0.510   5.298  0.2923 -0.0670  0.4375
  987MOL0     N33161  10.070  -0.473   5.318 -0.2450  0.2704 -0.8605
  987MOL0     C33162   9.884   0.163   5.275 -0.5431  0.5439  0.5200
  987MOL0     C33163   9.954   0.271   5.224  0.6305 -0.3610 -0.5124
  987MOL0     C33164  10.012   0.663   4.976  0.1760  0.7237 -0.1633
  987MOL0     C33165   9.962   0.801   4.963  0.4362  0.4704  0.0423
  987MOL0     C33166  10.032   0.901   4.895 -0.8378  0.3407  0.9277
  987MOL0     C33167  10.149   0.865   4.824  0.8727  0.2836  0.2372
  987MOL0     O33168  10.210   0.962   4.746  0.0881 -0.0575 -0.8289
  987MOL0     C33169  10.342   0.954   4.696  0.4489 -0.2577 -0.6469
  987MOL0     C33170  10.360   1.059   4.584 -0.4871 -0.4787  0.5691
  987MOL0     C33171  10.506   1.075   4.523  0.2121  0.9366 -0.4549
  987MOL0     C33172  10.479   1.034   4.376 -0.7387  0.1907  0.5995
  987MOL0     C33173  10.611   1.016   4.314  1.7880  0.0261 -0.1292
  987MOL0     C33174  10.728   1.029   4.298 -0.3163  1.6051  0.1168
  987MOL0     C33175  10.203   0.743   4.840  0.6009  0.9227  0.6540
  987MOL0     C33176  10.140   0.641   4.918  0.5338 -0.1830  0.5352
  987MOL0     C33177  10.211   0.508   4.914  0.2026 -0.2543  0.3750
  987MOL0     H33178   9.740   0.383   4.989  1.2069  0.4128 -0.7659
  987MOL0     H33179   9.609   0.190   5.076  0.3157 -0.2376 -1.4394
  987MOL0     H33180   9.500   0.035   5.175  2.2650  0.7080 -1.3744
  987MOL0     H33181   9.603  -0.110   5.140  0.1062 -1.4301 -0.8220
  987MOL0     H33182   9.421  -0.164   5.277 -0.8025 -2.0822  0.7056
  987MOL0     H33183   9.467  -0.046   5.397 -0.6058 -1.0215 -0.5900
  987MOL0     H33184   9.698  -0.186   5.387  0.9560 -0.7937 -1.9244
  987MOL0     H33185   9.609  -0.295   5.295 -0.4669  3.1153 -1.2982
  987MOL0     H33186   9.519  -0.215   5.572 -1.1952 -1.1564  0.6772
  987MOL0     H33187   9.438  -0.331   5.472 -0.3953  2.5507  0.6889
  987MOL0     H33188   9.589  -0.457   5.625 -0.0420 -1.5013 -0.8963
  987MOL0     H33189   9.659  -0.460   5.474 -0.6132  1.2185 -1.8097
  987MOL0     H33190   9.761  -0.226   5.608 -4.0838  0.2244  2.4332
  987MOL0     H33191   9.737  -0.338   5.738  0.5868  1.0137 -0.1273
  987MOL0     H33192   9.848  -0.495   5.545 -1.1883  0.5527 -0.6574
  987MOL0     H33193   9.941  -0.417   5.687 -2.2775 -3.3655  1.8803
  987MOL0     H33194   9.902  -0.304   5.397 -1.2436  3.9854  1.4772
  987MOL0     H33195   9.987  -0.224   5.534 -2.7895  0.3985 -0.0579
  987MOL0     H33196  10.267  -0.315   5.538  0.4065  1.4185 -2.8240
  987MOL0     H33197  10.471  -0.404   5.356  0.7944 -1.0015 -0.4889
  987MOL0     H33198  10.443  -0.502   5.501  2.4773 -0.3968  0.3577
  987MOL0     H33199  10.380  -0.690   5.329 -0.6997  0.3385 -1.0253
  987MOL0     H33200  10.468  -0.593   5.212  3.7585  1.0556  0.0936
  987MOL0     H33201  10.582  -0.650   5.490 -0.3280 -5.9123 -0.5694
  987MOL0     H33202  10.670  -0.572   5.358  0.1111  0.7053  4.3893
  987MOL0     H33203  10.652  -0.801   5.235  3.7455 -1.6454 -0.2627
  987MOL0     H33204  10.605  -0.862   5.399 -0.3266  0.7621  0.9912
  987MOL0     H33205  10.850  -1.015   5.408  1.0844 -0.5734 -0.6383
  987MOL0     H33206  11.004  -1.170   5.253 -1.2281  0.3785  2.0803
  987MOL0     H33207  11.392  -1.170   4.970 -1.2865  0.0028  0.3854
  987MOL0     H33208  11.546  -1.322   4.861 -1.3324  0.2917 -0.9059
  987MOL0     H33209  11.679  -1.665   4.779  0.6576 -0.7446  1.3962
  987MOL0     H33210  11.689  -1.498   4.813  0.3682 -1.0136  1.9568
  987MOL0     H33211  11.739  -1.663   4.978  1.0258  1.2371 -2.4460
  987MOL0     H33212  11.583  -1.573   5.035 -0.5993 -1.1860  1.2615
  987MOL0     H33213  11.557  -1.813   5.090  0.6300  0.0615 -1.0432
  987MOL0     H33214  11.459  -1.760   4.959  0.3797  0.3876 -0.1072
  987MOL0     H33215  11.732  -1.891   4.923 -1.7306  2.4368  4.6409
  987MOL0     H33216  11.609  -1.892   4.793 -1.0469  0.4727 -0.3217
  987MOL0     H33217  11.480  -2.051   4.958 -0.2321  4.5732  1.6517
  987MOL0     H33218  11.608  -2.041   5.062  1.3723 -1.1271 -0.4828
  987MOL0     H33219  11.639  -2.151   4.772  3.0584  0.8426 -1.8781
  987MOL0     H33220  11.768  -2.140   4.886 -0.2470 -1.3458 -1.9820
  987MOL0     H33221  11.656  -2.380   4.865  0.5321 -0.5168  0.0048
  987MOL0     H33222  11.521  -2.299   4.938 -0.2386  2.0308  2.3024
  987MOL0     H33223  11.649  -2.240   5.137 -0.7218 -0.5690 -0.2474
  987MOL0     H33224  11.638  -2.418   5.104 -3.2473  1.2968 -0.5013
  987MOL0     H33225  11.215  -1.597   4.778 -4.9278  0.5322  2.2183
  987MOL0     H33226  11.064  -1.433   4.913 -1.3825  4.5372  0.0894
  987MOL0     H33227  11.041  -0.838   4.990  0.9798 -4.1773 -2.4620
  987MOL0     H33228  10.891  -0.710   5.133  0.5234  0.7496  1.3742
  987MOL0     H33229   9.924   0.100   5.354 -0.9179  1.4573  1.4709
  987MOL0     H33230  10.051   0.298   5.263 -0.0198  0.5009  0.5554
  987MOL0     H33231   9.864   0.828   5.001  0.2937 -0.5066  0.3936
  987MOL0     H33232   9.978   0.991   4.868 -2.5017 -0.7136  0.6079
  987MOL0     H33233  10.355   0.865   4.634  0.4766  0.4895 -1.7469
  987MOL0     H33234  10.420   0.966   4.771 -0.6719  1.9208  0.2804
  987MOL0     H33235  10.339   1.157   4.628  0.5798 -0.4805  1.1131
  987MOL0     H33236  10.281   1.052   4.509 -0.7576  0.4428  0.7495
  987MOL0     H33237  10.566   1.002   4.578  1.1573 -0.4004 -3.0999
  987MOL0     H33238  10.540   1.178   4.538 -1.1987  1.0489  2.6990
  987MOL0     H33239  10.409   0.949   4.383  0.5178 -0.7826  2.5721
  987MOL0     H33240  10.423   1.111   4.322  0.9682  1.2631  0.2929
  987MOL0     H33241  10.833   1.048   4.288  0.0805 -1.0686 -1.9607
  987MOL0     H33242  10.297   0.723   4.789  0.4165 -1.0857  1.0321
  987MOL0     H33243  10.296   0.506   4.846 -0.9620 -0.6124 -1.1138
  987MOL0     H33244  10.260   0.513   5.012  0.0081  3.2336  0.4181
  987MOL0     H33245  10.152   0.416   4.905  0.4516 -0.5100  1.2814
  988MOL0     O33246  11.014   6.828   2.225  0.0919  0.2097 -0.2581
  988MOL0     C33247  10.985   6.948   2.232  0.2541  0.6775  0.3606
  988MOL0     O33248  10.859   6.984   2.219 -0.0064  0.7282 -0.0189
  988MOL0     C33249  10.762   6.914   2.139 -0.3320  0.5242 -0.5743
  988MOL0     C33250  10.791   6.833   2.021  0.9112 -0.6119  0.3693
  988MOL0     C33251  10.686   6.789   1.943  0.4474  0.2251  0.2383
  988MOL0     C33252  10.552   6.818   1.984  0.3100  0.0667 -0.5968
  988MOL0     O33253  10.443   6.759   1.914 -0.2690  0.0991  0.3747
  988MOL0     C33254  10.436   6.615   1.900 -0.3460 -0.0660  0.0944
  988MOL0     C33255  10.422   6.540   2.044 -0.7032 -0.9344  0.5211
  988MOL0     C33256  10.292   6.581   2.112  0.1232  0.9761 -0.2978
  988MOL0     C33257  10.279   6.496   2.247  0.0752 -0.0624 -0.0184
  988MOL0     C33258  10.290   6.346   2.233 -0.0643  0.3442 -0.2935
  988MOL0     C33259  10.183   6.269   2.145 -0.1578 -0.0703 -0.3020
  988MOL0     C33260  10.216   6.136   2.070  0.9309  0.0649  0.7924
  988MOL0     C33261  10.279   6.031   2.158  0.8075  0.7824  0.2185
  988MOL0     N33262  10.172   5.953   2.230 -0.7223 -0.2957 -0.0033
  988MOL0     C33263  10.205   5.843   2.297  0.2058 -0.1015 -0.3621
  988MOL0     C33264  10.083   5.803   2.341  0.9530  0.6262 -0.5139
  988MOL0     C33265  10.064   5.703   2.451  0.0850 -0.4438  0.4396
  988MOL0     C33266  10.172   5.716   2.560  0.6714 -0.3658 -1.4054
  988MOL0     C33267  10.195   5.859   2.618  0.8214 -0.4961 -0.6013
  988MOL0     C33268  10.347   5.888   2.643  0.6009  0.2816 -0.9415
  988MOL0     O33269  10.410   5.885   2.514  1.1884 -0.7362 -0.5340
  988MOL0     C33270  10.531   5.955   2.509 -0.1386 -0.9306  0.3054
  988MOL0     C33271  10.590   6.047   2.605 -0.5916  0.5154 -0.5270
  988MOL0     C33272  10.721   6.087   2.581 -0.5677 -0.4090 -0.5597
  988MOL0     C33273  10.801   6.027   2.480  0.1122 -0.3884 -0.3464
  988MOL0     C33274  10.946   6.061   2.460 -0.4369  0.8511 -0.3642
  988MOL0     O33275  11.011   6.026   2.351 -0.7186 -0.3470 -0.7273
  988MOL0     C33276  11.144   6.051   2.341 -0.8602  0.8165 -0.0403
  988MOL0     C33277  11.198   6.104   2.223  1.2037  0.0193 -0.5468
  988MOL0     C33278  11.339   6.112   2.206  0.1779  0.2063  0.2586
  988MOL0     C33279  11.424   6.058   2.301  0.9633 -0.7024 -0.2688
  988MOL0     O33280  11.568   6.069   2.291 -0.2153 -0.5995 -0.7581
  988MOL0     C33281  11.635   6.108   2.176  0.3967 -0.1504  0.4508
  988MOL0     C33282  11.778   6.081   2.191 -0.6517 -0.3197  0.3052
  988MOL0     C33283  11.873   6.136   2.085 -0.1598 -0.5816 -0.1556
  988MOL0     C33284  11.943   6.265   2.148 -0.0952 -0.7830 -0.5652
  988MOL0     C33285  12.040   6.343   2.053  0.0317 -0.0620 -0.2521
  988MOL0     C33286  12.176   6.278   2.010 -0.5688  0.0893  0.1532
  988MOL0     C33287  12.273   6.363   1.925 -0.5935  0.0636  0.4940
  988MOL0     C33288  12.323   6.277   1.796  0.3756 -1.4722 -0.5364
  988MOL0    Cl33289  12.481   6.343   1.740  0.6238  0.2171 -0.4690
  988MOL0     C33290  11.372   6.017   2.421  0.8401  0.7566 -0.8116
  988MOL0     C33291  11.230   6.008   2.436  0.2925 -0.4222 -0.1827
  988MOL0     O33292  11.001   6.114   2.554 -0.0716 -0.3833  0.3219
  988MOL0     C33293  10.741   5.950   2.381 -0.0689  0.7553 -0.5252
  988MOL0     C33294  10.607   5.916   2.401 -0.4854  0.0167 -0.4190
  988MOL0     N33295   9.987   5.900   2.321 -1.4084 -0.4460  0.2356
  988MOL0     N33296  10.042   5.986   2.241  0.6403 -0.0305  0.3358
  988MOL0     C33297  10.527   6.902   2.092 -0.5485 -0.0544  0.5610
  988MOL0     C33298  10.630   6.947   2.165 -0.3681 -0.2553 -0.9162
  988MOL0     C33299  11.078   7.045   2.298  0.8662  0.1475  0.3311
  988MOL0     C33300  11.045   7.186   2.296 -0.1842 -0.0364  0.6217
  988MOL0     C33301  11.125   7.280   2.360  0.0706  0.3566  0.4359
  988MOL0     C33302  11.243   7.245   2.417  0.4004 -0.1348 -0.0576
  988MOL0     O33303  11.301   7.358   2.473 -0.5109 -0.9494 -0.8017
  988MOL0     C33304  11.316   7.350   2.609  0.5239  0.2496  0.2194
  988MOL0     C33305  11.420   7.447   2.666  0.0889  1.4173 -1.2395
  988MOL0     C33306  11.404   7.596   2.625 -0.8217  0.1859  0.4272
  988MOL0     C33307  11.504   7.688   2.697 -0.6857 -0.3552  0.2838
  988MOL0     C33308  11.451   7.752   2.820 -0.3718  0.0083 -0.5785
  988MOL0     C33309  11.413   7.801   2.931 -0.3163  0.1458 -0.1510
  988MOL0     C33310  11.285   7.110   2.419  0.0683 -0.4307 -0.0336
  988MOL0     C33311  11.204   7.012   2.366  0.5405 -0.0725 -0.4426
  988MOL0     C33312  11.252   6.868   2.363  0.5116  1.3300  0.4516
  988MOL0     H33313  10.894   6.830   1.988  1.6658  0.4749  2.4304
  988MOL0     H33314  10.705   6.742   1.847 -2.9871 -0.4002 -0.2614
  988MOL0     H33315  10.348   6.596   1.837 -1.5431 -0.4065  1.7878
  988MOL0     H33316  10.518   6.565   1.848 -1.2590 -0.8932 -0.6037
  988MOL0     H33317  10.515   6.558   2.099  0.6265  0.0756 -1.9011
  988MOL0     H33318  10.412   6.432   2.031 -2.1279 -0.4747 -4.1148
  988MOL0     H33319  10.203   6.568   2.050  0.6419  1.3717 -1.1613
  988MOL0     H33320  10.290   6.689   2.129  1.0991  1.6533 -3.7038
  988MOL0     H33321  10.366   6.525   2.307  0.0119  1.6378 -0.6925
  988MOL0     H33322  10.190   6.526   2.303  0.8845  0.6636  0.9167
  988MOL0     H33323  10.384   6.327   2.182 -1.5078  2.5314 -4.2182
  988MOL0     H33324  10.286   6.304   2.334 -1.4901 -2.4545 -1.3794
  988MOL0     H33325  10.083   6.259   2.187 -1.3221  0.2356 -2.8326
  988MOL0     H33326  10.171   6.333   2.057 -1.2531  1.6402  1.0394
  988MOL0     H33327  10.300   6.158   2.004  0.3537 -0.9300 -0.3183
  988MOL0     H33328  10.128   6.106   2.012 -1.2008  2.1423  2.7436
  988MOL0     H33329  10.335   5.965   2.091 -1.7590  1.6138 -3.0006
  988MOL0     H33330  10.355   6.074   2.224 -0.3344  0.8481  1.5312
  988MOL0     H33331  10.302   5.800   2.320  0.0290 -0.7500 -0.7888
  988MOL0     H33332   9.963   5.709   2.493 -1.2975  1.6523 -2.8169
  988MOL0     H33333  10.073   5.600   2.416 -0.7596 -0.7235  1.0011
  988MOL0     H33334  10.143   5.658   2.648  0.9062  0.3884 -0.8199
  988MOL0     H33335  10.272   5.686   2.527  1.1541 -1.1167  0.6116
  988MOL0     H33336  10.150   5.877   2.716 -0.2664 -0.7246 -1.0494
  988MOL0     H33337  10.149   5.932   2.551  1.5786  0.1788 -0.4080
  988MOL0     H33338  10.397   5.818   2.711 -0.2965  0.6618  0.1431
  988MOL0     H33339  10.343   5.990   2.682  2.3980  2.1620 -5.1188
  988MOL0     H33340  10.534   6.090   2.687 -0.5107  1.6617 -1.0556
  988MOL0     H33341  10.769   6.157   2.648 -1.2192 -1.6151  1.2539
  988MOL0     H33342  11.131   6.126   2.140  1.9419 -0.3169 -1.2460
  988MOL0     H33343  11.386   6.151   2.116  1.2137  0.2268  0.7892
  988MOL0     H33344  11.596   6.060   2.086  2.6593 -3.7448  1.2122
  988MOL0     H33345  11.623   6.217   2.167 -1.0262 -0.3435 -0.3198
  988MOL0     H33346  11.797   6.119   2.292  1.7828 -1.8382  0.4804
  988MOL0     H33347  11.789   5.973   2.183 -1.2094 -0.3119 -0.6649
  988MOL0     H33348  11.952   6.064   2.064  0.6385 -0.1383  1.2157
  988MOL0     H33349  11.822   6.159   1.990 -1.0780 -3.7777 -0.5395
  988MOL0     H33350  12.008   6.237   2.231  3.1044 -0.0548 -2.6403
  988MOL0     H33351  11.876   6.345   2.180  2.7751  1.0487  1.2095
  988MOL0     H33352  12.076   6.436   2.099 -0.4411 -0.1823  0.3762
  988MOL0     H33353  11.980   6.387   1.973  1.8257 -1.5928 -2.5958
  988MOL0     H33354  12.221   6.254   2.107 -0.0752  0.6650  0.0727
  988MOL0     H33355  12.159   6.185   1.954  1.0687  1.5631 -3.0756
  988MOL0     H33356  12.348   6.399   1.996 -3.7526  1.4136  3.4234
  988MOL0     H33357  12.225   6.458   1.901  2.0111  1.1915 -0.5848
  988MOL0     H33358  12.344   6.175   1.831  1.7961 -1.0061  0.0170
  988MOL0     H33359  12.260   6.276   1.706 -2.4608  0.0744  1.2531
  988MOL0     H33360  11.430   5.973   2.502 -2.5217 -0.7774  1.0007
  988MOL0     H33361  11.206   5.961   2.531  0.5781 -0.9262 -0.3514
  988MOL0     H33362  10.805   5.899   2.309  1.5481  2.8151 -0.6482
  988MOL0     H33363  10.553   5.843   2.342 -1.0448 -0.6025  0.8175
  988MOL0     H33364  10.420   6.915   2.110 -0.5030  4.6822 -1.1749
  988MOL0     H33365  10.620   7.007   2.256  1.6157 -2.5693  0.9784
  988MOL0     H33366  10.948   7.220   2.262  0.0901  1.0202  0.8413
  988MOL0     H33367  11.091   7.383   2.372 -1.6290  0.1678 -2.0861
  988MOL0     H33368  11.351   7.253   2.643 -1.5700 -0.8707 -0.6375
  988MOL0     H33369  11.221   7.378   2.656 -0.0835 -1.1999 -0.1096
  988MOL0     H33370  11.517   7.404   2.640  1.3770  0.9038  3.5139
  988MOL0     H33371  11.427   7.433   2.774  2.3467 -1.2153 -1.6149
  988MOL0     H33372  11.301   7.622   2.649 -0.7101 -1.0659  2.5551
  988MOL0     H33373  11.414   7.594   2.516 -1.3582 -3.1015  0.3335
  988MOL0     H33374  11.599   7.636   2.710  0.6420  1.4230 -1.6136
  988MOL0     H33375  11.532   7.772   2.633  1.9518  0.0836  1.8496
  988MOL0     H33376  11.376   7.841   3.023 -1.2805  1.0399 -0.8996
  988MOL0     H33377  11.378   7.074   2.462  1.9317  1.0828 -2.5168
  988MOL0     H33378  11.347   6.865   2.418  2.4897 -0.8176 -2.6806
  988MOL0     H33379  11.166   6.809   2.395 -3.0791  2.9471 -4.7766
  988MOL0     H33380  11.271   6.830   2.262 -0.5897 -3.0593  1.6698
  989MOL0     O33381  11.418  11.395   1.544 -0.0747  0.2389 -0.1155
  989MOL0     C33382  11.510  11.346   1.598  0.6266  0.2272 -0.2257
  989MOL0     O33383  11.493  11.263   1.705 -0.5949  0.8162  0.2415
  989MOL0     C33384  11.376  11.207   1.748 -0.7517  0.6675 -0.5516
  989MOL0     C33385  11.395  11.069   1.794  0.2263  0.5704  0.0154
  989MOL0     C33386  11.281  10.987   1.826  0.1649  0.3223  0.9216
  989MOL0     C33387  11.150  11.050   1.821  0.2625 -0.2792  0.6384
  989MOL0     O33388  11.026  10.998   1.836  0.3856 -0.3846  0.6545
  989MOL0     C33389  11.012  10.895   1.926  0.4580 -0.3806 -0.3691
  989MOL0     C33390  10.870  10.924   1.973  0.0895  0.2644 -0.1838
  989MOL0     C33391  10.769  10.863   1.875  0.2670 -0.0355 -0.8171
  989MOL0     C33392  10.623  10.878   1.916 -0.3250 -0.2027 -0.6148
  989MOL0     C33393  10.521  10.873   1.806 -0.6447  0.2380  1.0955
  989MOL0     C33394  10.527  10.747   1.712 -0.4093  0.3551  0.5376
  989MOL0     C33395  10.474  10.610   1.760 -0.3257 -0.3583  0.2490
  989MOL0     C33396  10.315  10.614   1.785 -0.3665 -1.2043  0.0979
  989MOL0     N33397  10.231  10.659   1.680 -0.0188  0.4478  0.2258
  989MOL0     C33398  10.259  10.687   1.550  0.1321 -0.5784  0.1970
  989MOL0     C33399  10.148  10.759   1.512  0.1570  0.0578 -0.1024
  989MOL0     C33400  10.139  10.857   1.391 -0.2401  0.5494 -0.3963
  989MOL0     C33401  10.063  10.799   1.277 -0.0707 -0.7160 -0.0795
  989MOL0     C33402  10.117  10.655   1.243  0.0477  0.3847  0.7380
  989MOL0     C33403  10.062  10.584   1.113  0.1891 -0.4034 -0.3913
  989MOL0     O33404  10.120  10.649   1.001 -0.0576  0.6126  0.6628
  989MOL0     C33405  10.069  10.596   0.879  0.1180  0.9357  0.1041
  989MOL0     C33406  10.122  10.470   0.842 -0.5621 -0.0450 -0.0491
  989MOL0     C33407  10.037  10.398   0.764 -0.9242  0.0896 -0.8367
  989MOL0     C33408   9.924  10.447   0.697  0.7264  0.5634 -0.7226
  989MOL0     C33409   9.834  10.361   0.608  0.0609 -0.7158  0.4833
  989MOL0     O33410   9.874  10.235   0.592 -0.3047 -0.2615  0.7172
  989MOL0     C33411   9.823  10.161   0.485  0.3998 -0.2660 -0.5951
  989MOL0     C33412   9.904  10.072   0.411 -0.0329 -0.2564  0.8848
  989MOL0     C33413   9.854  10.003   0.301 -0.2580  0.1896  0.2802
  989MOL0     C33414   9.718  10.000   0.271  0.1616 -0.3816 -0.5358
  989MOL0     O33415   9.674   9.911   0.170 -0.5069  0.2857  0.5877
  989MOL0     C33416   9.541   9.930   0.119 -0.1824 -0.2394 -0.0753
  989MOL0     C33417   9.430   9.852   0.194  0.3927 -0.0702  0.3295
  989MOL0     C33418   9.306   9.940   0.218  0.4539 -1.0080  0.3286
  989MOL0     C33419   9.208   9.883   0.316 -0.1493  0.4295 -0.5207
  989MOL0     C33420   9.271   9.866   0.448  0.3193 -0.7324 -0.1702
  989MOL0     C33421   9.165   9.834   0.549  0.0703 -0.2417 -0.8891
  989MOL0     C33422   9.225   9.826   0.686 -0.4135  0.0938  0.0062
  989MOL0     C33423   9.124   9.843   0.802 -0.5412 -0.1887  0.6077
  989MOL0    Cl33424   9.228   9.846   0.950 -0.3195 -0.1506  0.2503
  989MOL0     C33425   9.626  10.075   0.346 -0.1385 -0.8425 -0.1288
  989MOL0     C33426   9.681  10.152   0.455  0.4803  0.1037 -0.2671
  989MOL0     O33427   9.749  10.423   0.545  0.7307  0.4681 -0.0961
  989MOL0     C33428   9.879  10.574   0.736 -0.3992 -0.5084  0.0295
  989MOL0     C33429   9.954  10.650   0.821 -0.0973 -0.7114  0.2636
  989MOL0     N33430  10.053  10.757   1.604  1.3323 -0.2531  0.2387
  989MOL0     N33431  10.104  10.695   1.706  0.7223 -0.1739 -0.3559
  989MOL0     C33432  11.137  11.187   1.773  0.4076 -0.3780 -0.2643
  989MOL0     C33433  11.251  11.260   1.744 -0.6540  0.0197 -0.4182
  989MOL0     C33434  11.651  11.372   1.545  0.1546 -0.1770  0.0653
  989MOL0     C33435  11.750  11.317   1.623  0.6822  0.1972  0.6227
  989MOL0     C33436  11.880  11.330   1.592 -1.0366 -0.1171  0.5513
  989MOL0     C33437  11.915  11.372   1.456 -0.0459 -0.0818 -0.0584
  989MOL0     O33438  12.041  11.408   1.409 -0.7022  0.2028  0.1681
  989MOL0     C33439  12.164  11.389   1.472  0.4904  0.9475 -0.4282
  989MOL0     C33440  12.285  11.409   1.377 -0.3510 -0.5864  0.7029
  989MOL0     C33441  12.335  11.280   1.308 -0.6783  0.6904  0.2638
  989MOL0     C33442  12.446  11.298   1.204  0.0514  0.2832  0.2265
  989MOL0     C33443  12.432  11.193   1.103 -0.3337  0.9566  0.0656
  989MOL0     C33444  12.417  11.086   1.048 -0.1089  0.6043  0.2069
  989MOL0     C33445  11.810  11.398   1.367 -0.4333  0.1212  0.5045
  989MOL0     C33446  11.679  11.404   1.413 -0.4060 -0.3924 -0.4718
  989MOL0     C33447  11.585  11.480   1.330  0.0713 -1.0205  0.1105
  989MOL0     H33448  11.491  11.019   1.796 -1.0497 -2.1397 -1.1944
  989MOL0     H33449  11.301  10.884   1.852  0.3369 -0.9314 -3.3929
  989MOL0     H33450  11.031  10.793   1.889  2.0246 -0.7212  1.2489
  989MOL0     H33451  11.085  10.907   2.006  3.2712 -0.2079 -2.7710
  989MOL0     H33452  10.854  11.031   1.964 -1.1452  0.0014 -1.4744
  989MOL0     H33453  10.854  10.891   2.077  1.3581 -3.8065 -1.0910
  989MOL0     H33454  10.799  10.759   1.859 -0.8125 -0.4229 -0.3726
  989MOL0     H33455  10.776  10.916   1.779 -0.6719 -0.6264 -1.2299
  989MOL0     H33456  10.601  10.795   1.984 -0.2980  1.3838  1.4162
  989MOL0     H33457  10.618  10.973   1.970  0.9857 -2.1424  3.3402
  989MOL0     H33458  10.422  10.880   1.853  0.5938 -2.2775  4.5443
  989MOL0     H33459  10.538  10.968   1.755 -3.9919  0.7822  0.8136
  989MOL0     H33460  10.483  10.782   1.618 -0.0199  1.6506  0.8196
  989MOL0     H33461  10.634  10.735   1.688 -0.7735  3.1187 -3.4779
  989MOL0     H33462  10.526  10.595   1.855 -2.2702  2.1052  1.8334
  989MOL0     H33463  10.488  10.525   1.692 -1.0017 -0.5430  0.3241
  989MOL0     H33464  10.282  10.512   1.804  2.1807 -2.0628  0.2579
  989MOL0     H33465  10.296  10.666   1.879 -1.6590 -2.3832  0.5220
  989MOL0     H33466  10.353  10.690   1.495  0.5539  1.0886  0.9445
  989MOL0     H33467  10.095  10.952   1.425 -0.0128 -0.0518  1.7071
  989MOL0     H33468  10.236  10.889   1.351 -1.0557  0.3791 -2.6883
  989MOL0     H33469   9.960  10.808   1.310  0.0282  0.7303 -0.1146
  989MOL0     H33470  10.070  10.860   1.187  0.6105  0.9966  1.0792
  989MOL0     H33471  10.087  10.585   1.322  0.5405 -0.3061  0.3257
  989MOL0     H33472  10.225  10.668   1.233 -0.2829  1.7783 -1.9490
  989MOL0     H33473   9.953  10.596   1.110  0.4010  2.5196  0.4334
  989MOL0     H33474  10.080  10.476   1.108  0.3596 -0.3179 -3.2663
  989MOL0     H33475  10.210  10.438   0.899  2.3508  1.0297 -3.5604
  989MOL0     H33476  10.076  10.298   0.748  1.5400  0.6521  1.0062
  989MOL0     H33477  10.007  10.051   0.438  0.9242 -1.1249 -2.8252
  989MOL0     H33478   9.919   9.942   0.240  0.4653  0.2932  0.9233
  989MOL0     H33479   9.512  10.035   0.106  1.6538  0.3703  0.4471
  989MOL0     H33480   9.554   9.899   0.015  1.9286  1.3152 -0.3337
  989MOL0     H33481   9.400   9.764   0.136  0.6477 -0.2950  0.5383
  989MOL0     H33482   9.480   9.820   0.285 -0.3941  1.4325  1.3308
  989MOL0     H33483   9.331  10.040   0.256 -1.8818  0.2659 -1.2254
  989MOL0     H33484   9.254   9.952   0.122 -1.3733 -1.2846  1.2432
  989MOL0     H33485   9.173   9.787   0.276  3.2367 -1.3697  0.4908
  989MOL0     H33486   9.124   9.949   0.339  0.7668  2.0153 -1.4766
  989MOL0     H33487   9.325   9.959   0.466  1.3028 -0.5200 -3.5100
  989MOL0     H33488   9.331   9.775   0.433  2.2622  0.8407 -2.8668
  989MOL0     H33489   9.078   9.900   0.545  0.0333  0.1292  2.7812
  989MOL0     H33490   9.118   9.739   0.523 -0.4298 -0.7533  1.6587
  989MOL0     H33491   9.304   9.901   0.679 -1.8929  1.7259  0.0909
  989MOL0     H33492   9.280   9.732   0.692  0.2717  0.2779 -2.3018
  989MOL0     H33493   9.073   9.939   0.792  2.5630  1.4177 -1.2799
  989MOL0     H33494   9.060   9.754   0.800  0.0893 -0.6377 -0.4733
  989MOL0     H33495   9.521  10.059   0.322  0.2401 -3.3343 -0.3398
  989MOL0     H33496   9.608  10.197   0.521 -1.3585 -1.7035 -0.9494
  989MOL0     H33497   9.781  10.612   0.706  0.2862  1.6965  0.3846
  989MOL0     H33498   9.907  10.736   0.868  0.3412 -0.1600 -0.3021
  989MOL0     H33499  11.043  11.240   1.761 -0.2972 -1.4983  0.1186
  989MOL0     H33500  11.232  11.362   1.710 -2.0519  0.2625  0.9472
  989MOL0     H33501  11.734  11.270   1.720  0.5834 -1.8387 -0.3139
  989MOL0     H33502  11.955  11.307   1.668 -2.9673  1.3576  3.0319
  989MOL0     H33503  12.167  11.287   1.513 -0.6057  0.8844 -0.4894
  989MOL0     H33504  12.184  11.450   1.561  4.6780 -4.4611  3.0885
  989MOL0     H33505  12.367  11.448   1.437 -0.1412  2.1947 -1.1933
  989MOL0     H33506  12.265  11.487   1.302  3.4273  1.2552  1.3754
  989MOL0     H33507  12.245  11.233   1.268  0.3042 -2.9921  1.9556
  989MOL0     H33508  12.390  11.224   1.385  2.4096  2.3652 -0.5331
  989MOL0     H33509  12.430  11.396   1.158  3.4505 -0.3300 -2.6638
  989MOL0     H33510  12.538  11.296   1.264 -0.4869  1.8995  1.1954
  989MOL0     H33511  12.401  10.994   0.995 -1.4545  1.5285 -1.0795
  989MOL0     H33512  11.842  11.429   1.268  2.0686 -0.6426  0.9797
  989MOL0     H33513  11.641  11.515   1.243  2.2898 -3.1625  0.5766
  989MOL0     H33514  11.505  11.412   1.300 -0.3700 -1.0837  1.3479
  989MOL0     H33515  11.550  11.566   1.389 -0.9959 -1.0501 -0.4467
  990MOL0     O33516   8.416   9.584   4.611 -0.1348 -0.7249  0.2632
  990MOL0     C33517   8.338   9.523   4.682  0.0893 -0.2983  0.1539
  990MOL0     O33518   8.357   9.439   4.788 -0.1779 -0.1672 -0.3245
  990MOL0     C33519   8.483   9.432   4.848  0.5247  0.0377 -0.0306
  990MOL0     C33520   8.602   9.427   4.784 -0.3902  1.4114 -1.0374
  990MOL0     C33521   8.727   9.439   4.855 -0.3680 -1.0253  0.2699
  990MOL0     C33522   8.730   9.450   4.992 -0.7844  0.7760 -0.7231
  990MOL0     O33523   8.863   9.476   5.050  0.8764 -0.4038  0.4628
  990MOL0     C33524   8.876   9.452   5.190 -0.4277  0.3499  0.3131
  990MOL0     C33525   9.017   9.510   5.222  0.3909  0.4079 -0.8687
  990MOL0     C33526   9.035   9.514   5.381  0.1568  0.6217 -0.6848
  990MOL0     C33527   9.070   9.386   5.443 -0.1456  0.2837 -0.0714
  990MOL0     C33528   9.084   9.381   5.596  1.1233  0.6259  1.0540
  990MOL0     C33529   8.945   9.340   5.669  0.2288 -0.5589 -0.3177
  990MOL0     C33530   8.895   9.200   5.641 -0.1966  0.4542 -0.1779
  990MOL0     C33531   8.765   9.178   5.724 -1.5335  0.0228  0.9472
  990MOL0     N33532   8.690   9.070   5.664  1.2204  0.2129 -0.3095
  990MOL0     C33533   8.728   8.932   5.669  0.8104 -0.0697  0.3053
  990MOL0     C33534   8.639   8.874   5.583 -0.0857 -0.1536 -0.3300
  990MOL0     C33535   8.662   8.740   5.531 -0.2241 -0.2982  0.1362
  990MOL0     C33536   8.643   8.740   5.379  0.3730 -0.1336  0.2678
  990MOL0     C33537   8.755   8.804   5.301 -0.1998  0.1294  0.7990
  990MOL0     C33538   8.726   8.950   5.268 -0.2289  0.7538 -0.0188
  990MOL0     O33539   8.807   8.987   5.157 -0.4817 -0.6632  0.1415
  990MOL0     C33540   8.938   9.026   5.178  0.0046  0.2279 -0.0154
  990MOL0     C33541   8.995   9.027   5.305  1.0293 -0.4728 -0.1847
  990MOL0     C33542   9.118   9.076   5.336  0.1459  0.4831 -0.0501
  990MOL0     C33543   9.199   9.124   5.241  0.8987  0.5408  0.1314
  990MOL0     C33544   9.323   9.180   5.269 -0.7842 -0.0045 -0.1373
  990MOL0     O33545   9.371   9.160   5.403  0.0686  0.7470  0.1022
  990MOL0     C33546   9.485   9.215   5.460 -0.6358  0.0783  0.5448
  990MOL0     C33547   9.479   9.222   5.595 -0.2236  0.8839 -0.5734
  990MOL0     C33548   9.568   9.291   5.669 -0.1609  0.3419 -0.5905
  990MOL0     C33549   9.681   9.355   5.606 -0.2065  0.4173 -0.4329
  990MOL0     O33550   9.784   9.417   5.671  0.4024  0.0094 -1.0382
  990MOL0     C33551   9.759   9.481   5.803 -1.0060 -0.9732  0.2225
  990MOL0     C33552   9.900   9.509   5.858 -0.5502 -0.4304 -0.7335
  990MOL0     C33553   9.905   9.492   6.018 -0.0578 -0.4421  0.9698
  990MOL0     C33554  10.049   9.504   6.063 -0.3997  0.9934 -0.3471
  990MOL0     C33555  10.068   9.497   6.210 -0.5415 -0.5133 -0.5646
  990MOL0     C33556  10.191   9.424   6.261  0.3002  0.2379 -0.2257
  990MOL0     C33557  10.316   9.512   6.279 -0.3749  0.1310  0.2757
  990MOL0     C33558  10.434   9.454   6.357  0.2819 -0.1746 -0.0318
  990MOL0    Cl33559  10.568   9.569   6.346  0.3279  0.0437  0.2955
  990MOL0     C33560   9.695   9.336   5.468 -0.1457 -1.2452 -0.6482
  990MOL0     C33561   9.596   9.275   5.394  0.2231  0.0177  0.4183
  990MOL0     O33562   9.378   9.252   5.183 -0.0537 -0.2385 -0.6461
  990MOL0     C33563   9.149   9.108   5.103  0.6616 -0.7616 -0.6562
  990MOL0     C33564   9.015   9.064   5.076  0.1424  1.0079  0.6442
  990MOL0     N33565   8.555   8.976   5.539 -0.1316 -0.2998 -0.0549
  990MOL0     N33566   8.580   9.091   5.588  0.1096 -0.3941  0.3187
  990MOL0     C33567   8.603   9.438   5.057  0.5701 -0.5692  0.2550
  990MOL0     C33568   8.478   9.434   4.989  0.0304 -0.3960  0.1407
  990MOL0     C33569   8.192   9.531   4.639 -0.2121  0.4192 -0.6925
  990MOL0     C33570   8.164   9.510   4.501  0.2321 -1.2617  0.3303
  990MOL0     C33571   8.037   9.520   4.457  0.3785  0.1518 -0.4119
  990MOL0     C33572   7.928   9.541   4.548  0.6538  0.5096 -0.3950
  990MOL0     O33573   7.796   9.544   4.506  0.2847  0.5501 -0.5256
  990MOL0     C33574   7.762   9.427   4.438 -0.4502  0.0708 -0.7586
  990MOL0     C33575   7.754   9.292   4.526  0.0785  0.7084 -0.3783
  990MOL0     C33576   7.688   9.310   4.665 -0.2351  0.7775  0.4719
  990MOL0     C33577   7.541   9.297   4.668  0.4718 -0.0813 -0.8961
  990MOL0     C33578   7.471   9.417   4.605 -0.3270  0.3968  0.2229
  990MOL0     C33579   7.419   9.500   4.531 -1.1955  0.8637 -0.4743
  990MOL0     C33580   7.952   9.557   4.682  0.2996 -0.2147 -0.2665
  990MOL0     C33581   8.084   9.569   4.727  0.0158 -1.1207  0.3134
  990MOL0     C33582   8.115   9.612   4.871  0.4449  0.0986 -0.9891
  990MOL0     H33583   8.596   9.422   4.675  2.9821  0.4880 -1.2911
  990MOL0     H33584   8.819   9.430   4.798 -1.2966 -0.2402 -1.4277
  990MOL0     H33585   8.804   9.504   5.253 -0.3008  1.4891 -0.4469
  990MOL0     H33586   8.884   9.344   5.207  3.0365 -0.0413 -2.5488
  990MOL0     H33587   9.022   9.613   5.184  0.0983  1.1246  0.9278
  990MOL0     H33588   9.103   9.453   5.183 -0.7475  0.3876 -3.5748
  990MOL0     H33589   8.946   9.550   5.434  0.7254  1.6016 -0.3621
  990MOL0     H33590   9.108   9.590   5.411  0.0968 -0.3149  2.1225
  990MOL0     H33591   9.002   9.310   5.405 -1.0107  1.5912 -1.2315
  990MOL0     H33592   9.163   9.355   5.394  0.5427  1.2026  0.5984
  990MOL0     H33593   9.159   9.305   5.619 -0.8348 -1.9990 -0.7385
  990MOL0     H33594   9.118   9.481   5.627  0.7285  0.8884  0.6611
  990MOL0     H33595   8.957   9.360   5.776  0.0280  1.7576 -0.6952
  990MOL0     H33596   8.863   9.404   5.635  0.6446 -1.2494 -2.8379
  990MOL0     H33597   8.970   9.130   5.680 -0.6870  0.7717  1.4101
  990MOL0     H33598   8.876   9.194   5.533 -0.7216 -1.6397 -0.0192
  990MOL0     H33599   8.783   9.174   5.832 -4.5096  1.7076  1.6317
  990MOL0     H33600   8.714   9.272   5.700 -0.1233  0.3487 -1.0096
  990MOL0     H33601   8.810   8.896   5.730  2.1259  3.5813  0.8956
  990MOL0     H33602   8.758   8.697   5.561  0.8415  2.0417  0.3312
  990MOL0     H33603   8.584   8.673   5.566  0.1425 -0.0654  1.4520
  990MOL0     H33604   8.633   8.632   5.365  0.6446  0.0298 -1.3329
  990MOL0     H33605   8.547   8.781   5.347  0.4442 -1.2397 -1.4872
  990MOL0     H33606   8.757   8.747   5.208  2.2107  2.3760 -0.6928
  990MOL0     H33607   8.845   8.800   5.363 -0.5293  1.2984  1.3915
  990MOL0     H33608   8.751   9.022   5.346  1.7177 -1.2777  1.3451
  990MOL0     H33609   8.624   8.966   5.231 -0.4027 -0.5887 -0.1760
  990MOL0     H33610   8.948   8.982   5.392  1.2074 -3.1427 -1.3976
  990MOL0     H33611   9.140   9.087   5.442 -1.3025  1.8202  0.1432
  990MOL0     H33612   9.396   9.168   5.640 -1.5839  1.7450 -1.9425
  990MOL0     H33613   9.558   9.291   5.777  2.3857 -0.1809 -0.2856
  990MOL0     H33614   9.721   9.583   5.793 -1.3334 -1.0684  0.4596
  990MOL0     H33615   9.684   9.431   5.866 -4.4467  2.0431 -1.0813
  990MOL0     H33616   9.953   9.422   5.816  1.0354  0.4994 -0.7692
  990MOL0     H33617   9.940   9.606   5.826 -0.6511 -0.8203 -2.1194
  990MOL0     H33618   9.837   9.565   6.063 -2.1739 -1.3283 -0.6045
  990MOL0     H33619   9.854   9.399   6.043  0.4599 -0.1901  3.1773
  990MOL0     H33620  10.098   9.600   6.040  0.3422  0.3474 -1.5505
  990MOL0     H33621  10.109   9.430   6.010 -2.1001 -2.7420  2.5249
  990MOL0     H33622   9.972   9.457   6.243 -1.9068  0.6585 -2.8659
  990MOL0     H33623  10.065   9.599   6.251 -1.3694 -0.8176  0.1605
  990MOL0     H33624  10.162   9.387   6.360  2.0779  1.7222  0.9230
  990MOL0     H33625  10.217   9.345   6.189 -0.4762 -1.1705  0.9802
  990MOL0     H33626  10.294   9.598   6.342  1.8609 -0.8938  2.6738
  990MOL0     H33627  10.343   9.550   6.181 -2.0414 -2.5540 -1.3552
  990MOL0     H33628  10.398   9.450   6.460 -1.0822 -0.8113 -0.5088
  990MOL0     H33629  10.453   9.353   6.318 -1.8273 -1.4371  1.9857
  990MOL0     H33630   9.779   9.377   5.412  0.8337 -3.2551 -0.7179
  990MOL0     H33631   9.595   9.278   5.286  1.1031  0.7224  0.4240
  990MOL0     H33632   9.213   9.143   5.023 -0.3574  0.4711 -0.9571
  990MOL0     H33633   8.968   9.061   4.978 -1.1829 -1.6128  1.2708
  990MOL0     H33634   8.600   9.447   5.165 -1.0910  1.5044  0.0917
  990MOL0     H33635   8.379   9.450   5.030 -0.4475 -0.3126 -1.0098
  990MOL0     H33636   8.245   9.491   4.431 -0.6895 -2.0798 -0.5515
  990MOL0     H33637   8.036   9.495   4.352  1.0381 -3.1411  0.2726
  990MOL0     H33638   7.822   9.422   4.347  2.9205  1.8232  1.1464
  990MOL0     H33639   7.663   9.442   4.394 -1.1423 -0.9265  0.4129
  990MOL0     H33640   7.854   9.257   4.555  0.0690  0.0101 -1.1566
  990MOL0     H33641   7.714   9.202   4.479 -1.2346  0.8214  0.4964
  990MOL0     H33642   7.727   9.408   4.693 -0.3574  0.6230  1.2177
  990MOL0     H33643   7.725   9.231   4.732 -0.1722  0.2807 -0.1388
  990MOL0     H33644   7.528   9.203   4.613  0.3340  0.2008 -1.3491
  990MOL0     H33645   7.502   9.281   4.769  1.7830  1.1274 -0.1626
  990MOL0     H33646   7.395   9.568   4.452 -3.6268  1.0960  0.3922
  990MOL0     H33647   7.877   9.568   4.760  0.7701  2.9195 -0.1206
  990MOL0     H33648   8.142   9.526   4.932 -0.9828  0.6250  0.4732
  990MOL0     H33649   8.197   9.685   4.868  0.2532  0.2883 -3.1885
  990MOL0     H33650   8.037   9.649   4.938  1.6118 -1.0066  1.0885
  991MOL0     O33651   8.004   2.779   6.446  0.1983  0.1145 -0.2117
  991MOL0     C33652   7.991   2.871   6.528  1.0402  0.3599  0.4835
  991MOL0     O33653   8.083   2.915   6.624 -0.1001  0.4539 -0.0184
  991MOL0     C33654   8.201   2.850   6.616 -0.7350 -0.3049  0.2119
  991MOL0     C33655   8.228   2.771   6.726 -0.7977 -0.0163 -0.1699
  991MOL0     C33656   8.354   2.696   6.726 -0.1003  0.4021 -0.1519
  991MOL0     C33657   8.431   2.694   6.608  0.3743 -0.0771 -0.3448
  991MOL0     O33658   8.548   2.615   6.611 -0.0915  0.3048 -0.0264
  991MOL0     C33659   8.655   2.636   6.516  0.2786  0.0325  0.8469
  991MOL0     C33660   8.653   2.522   6.412 -0.0180 -0.0643  0.6528
  991MOL0     C33661   8.767   2.523   6.314 -0.4467  0.1299  0.1459
  991MOL0     C33662   8.724   2.572   6.172  0.9994  0.5534  0.4462
  991MOL0     C33663   8.754   2.725   6.139  0.6284 -0.8431  0.9196
  991MOL0     C33664   8.710   2.766   6.003  0.0131 -0.4118  0.2454
  991MOL0     C33665   8.767   2.898   5.964  0.2032 -0.2987 -0.0818
  991MOL0     C33666   8.752   2.916   5.810  0.4193 -0.2149  0.1350
  991MOL0     N33667   8.776   3.056   5.774  0.6614  0.6136  0.7555
  991MOL0     C33668   8.896   3.110   5.787  1.0730 -0.6948  0.8863
  991MOL0     C33669   8.883   3.245   5.767  0.3616  0.4120  0.4008
  991MOL0     C33670   8.971   3.366   5.781  0.0893 -0.2982 -0.6826
  991MOL0     C33671   9.036   3.371   5.921 -0.1440  1.3296  0.1296
  991MOL0     C33672   9.161   3.274   5.925  0.0627  0.8533  0.8834
  991MOL0     C33673   9.207   3.257   6.070  0.1720  0.4510 -1.0872
  991MOL0     O33674   9.153   3.357   6.150 -0.5147 -0.6259  1.1338
  991MOL0     C33675   9.238   3.422   6.226  0.7883 -0.6924 -0.6431
  991MOL0     C33676   9.204   3.446   6.358  0.2274  0.5949  0.2500
  991MOL0     C33677   9.279   3.537   6.433  1.1900  0.1553 -0.0251
  991MOL0     C33678   9.398   3.603   6.384  0.2205  0.4485 -0.3296
  991MOL0     C33679   9.477   3.700   6.463  0.9392 -1.1751 -0.3438
  991MOL0     O33680   9.605   3.720   6.417  0.1075  0.4565 -0.2980
  991MOL0     C33681   9.687   3.800   6.493  0.0669 -0.5263  0.3883
  991MOL0     C33682   9.668   3.940   6.473  0.6878  0.2503  0.9602
  991MOL0     C33683   9.747   4.028   6.532 -0.8467  1.1783  0.9663
  991MOL0     C33684   9.849   3.991   6.617  0.6708 -0.1916  0.0984
  991MOL0     O33685   9.938   4.077   6.671 -0.1813  0.2690 -0.0773
  991MOL0     C33686   9.887   4.185   6.748 -0.2671 -0.5515 -0.2190
  991MOL0     C33687   9.983   4.307   6.750 -0.1698  0.6623 -0.4369
  991MOL0     C33688   9.961   4.413   6.865  0.3362  0.5687  0.3672
  991MOL0     C33689   9.954   4.550   6.809  0.4502 -0.2043  0.5552
  991MOL0     C33690   9.963   4.659   6.919  1.1438 -1.4355  0.4779
  991MOL0     C33691   9.979   4.798   6.861  0.1922  0.2367 -0.1435
  991MOL0     C33692  10.008   4.909   6.973 -1.0249 -0.4271 -0.0708
  991MOL0     C33693   9.993   5.054   6.925 -0.1044 -0.1616 -0.1263
  991MOL0    Cl33694   9.821   5.079   6.873 -0.1580  0.1443  0.3979
  991MOL0     C33695   9.867   3.854   6.636  0.2729  0.9923  0.1424
  991MOL0     C33696   9.793   3.756   6.573 -0.0847 -0.0525  0.0606
  991MOL0     O33697   9.437   3.745   6.570  0.5826  0.7689  0.5715
  991MOL0     C33698   9.418   3.588   6.245  0.9509  0.1838 -0.1337
  991MOL0     C33699   9.341   3.496   6.172 -0.7736 -0.4082 -0.2077
  991MOL0     N33700   8.743   3.261   5.738 -0.6351  0.0150  0.5411
  991MOL0     N33701   8.684   3.151   5.745  0.8183  0.0136 -0.0508
  991MOL0     C33702   8.396   2.772   6.501  0.0954  0.0933  0.0218
  991MOL0     C33703   8.281   2.853   6.508 -0.1550 -0.0201 -0.0513
  991MOL0     C33704   7.873   2.965   6.521 -0.2618 -0.3453 -0.3877
  991MOL0     C33705   7.863   3.050   6.413  0.5158 -0.3721 -0.6410
  991MOL0     C33706   7.751   3.138   6.387  0.0395 -0.6575  0.0595
  991MOL0     C33707   7.633   3.128   6.467 -0.4834  0.4235  0.2105
  991MOL0     O33708   7.520   3.201   6.454  0.0495 -0.3609  0.6044
  991MOL0     C33709   7.514   3.312   6.359 -1.0539 -0.3293 -0.5283
  991MOL0     C33710   7.385   3.390   6.358  0.1765  0.2599 -0.1264
  991MOL0     C33711   7.359   3.496   6.254 -0.4830 -0.2358 -0.4018
  991MOL0     C33712   7.225   3.568   6.266 -1.2441  0.9853  0.8117
  991MOL0     C33713   7.111   3.484   6.293  0.7780 -0.6445 -0.3047
  991MOL0     C33714   7.009   3.420   6.307 -0.3677 -0.4302 -0.8255
  991MOL0     C33715   7.635   3.033   6.561  0.3525  0.7863  0.4788
  991MOL0     C33716   7.760   2.961   6.597  0.5828 -0.3879  1.3648
  991MOL0     C33717   7.750   2.871   6.711  0.6753 -0.1568 -0.2621
  991MOL0     H33718   8.166   2.770   6.815  0.1307 -0.7498  0.4819
  991MOL0     H33719   8.374   2.632   6.812  1.4999 -2.6737 -2.6111
  991MOL0     H33720   8.647   2.736   6.473  1.1340  0.1736  1.0044
  991MOL0     H33721   8.757   2.618   6.552  0.1755  0.0611  1.1541
  991MOL0     H33722   8.561   2.538   6.356  0.7450 -1.3667 -1.0325
  991MOL0     H33723   8.644   2.427   6.465  3.2678 -0.9266 -0.0775
  991MOL0     H33724   8.807   2.421   6.310  0.4943  0.4010  1.9061
  991MOL0     H33725   8.852   2.583   6.347  1.0255 -2.1636  0.7690
  991MOL0     H33726   8.765   2.516   6.087 -1.2996 -0.0558 -0.3318
  991MOL0     H33727   8.617   2.551   6.169  1.0679  0.1472  0.7367
  991MOL0     H33728   8.697   2.794   6.203 -2.3369 -0.9885 -1.3970
  991MOL0     H33729   8.858   2.753   6.157 -0.2324  3.8455 -0.0815
  991MOL0     H33730   8.741   2.688   5.933 -0.5211 -1.6326  1.3154
  991MOL0     H33731   8.600   2.767   6.006  0.0329  0.8504  1.8387
  991MOL0     H33732   8.873   2.906   5.987  0.8424 -1.6838 -2.2416
  991MOL0     H33733   8.704   2.973   6.012  1.0395  0.2765  0.1307
  991MOL0     H33734   8.812   2.848   5.750 -1.2877 -0.6463 -1.1780
  991MOL0     H33735   8.644   2.905   5.796 -0.0208  1.4294  1.7695
  991MOL0     H33736   8.979   3.044   5.807  0.0738 -1.5901  2.3295
  991MOL0     H33737   9.040   3.369   5.696 -0.8154  0.5245 -1.4191
  991MOL0     H33738   8.901   3.451   5.774 -0.3013 -0.4424  0.9886
  991MOL0     H33739   9.070   3.473   5.944  3.0710  0.0166  1.9255
  991MOL0     H33740   8.964   3.325   5.989  0.7511 -0.6017 -0.1529
  991MOL0     H33741   9.244   3.319   5.870 -3.0280  3.5185 -2.0464
  991MOL0     H33742   9.139   3.175   5.881  3.5260  0.3699 -0.0031
  991MOL0     H33743   9.315   3.248   6.088  0.1620  0.6809 -0.8924
  991MOL0     H33744   9.160   3.163   6.099  0.1602  1.5621  3.2091
  991MOL0     H33745   9.121   3.386   6.395  0.3177 -1.5636 -2.6602
  991MOL0     H33746   9.247   3.567   6.532 -1.8612 -1.4362 -0.4311
  991MOL0     H33747   9.593   3.968   6.400  0.5839  0.2269  1.0554
  991MOL0     H33748   9.736   4.134   6.512  2.5393  1.3510 -0.6184
  991MOL0     H33749   9.800   4.227   6.696  0.3126  0.3489 -0.4724
  991MOL0     H33750   9.855   4.165   6.850  1.3256 -0.2669  0.3639
  991MOL0     H33751  10.084   4.267   6.763  0.3714  1.6428 -1.4283
  991MOL0     H33752   9.971   4.352   6.651  0.8348  3.2954  0.5561
  991MOL0     H33753   9.861   4.401   6.907  0.0913  3.0864  0.6743
  991MOL0     H33754  10.043   4.417   6.938  1.1771  3.4045 -0.6060
  991MOL0     H33755   9.853   4.559   6.767  1.7452 -2.0317 -3.3625
  991MOL0     H33756  10.038   4.561   6.741 -0.9565 -1.8672 -1.5860
  991MOL0     H33757  10.054   4.642   6.978  0.4038  1.2447  2.5689
  991MOL0     H33758   9.883   4.657   6.993 -0.4610  0.2381 -1.1196
  991MOL0     H33759  10.052   4.791   6.779  0.7256 -0.5938  0.3820
  991MOL0     H33760   9.883   4.819   6.813  0.3497 -1.4266 -1.2721
  991MOL0     H33761  10.113   4.906   7.004 -1.5457 -1.7033  1.7619
  991MOL0     H33762   9.942   4.891   7.058 -0.6397 -2.1915 -0.1115
  991MOL0     H33763  10.015   5.122   7.008  0.6957  0.3310 -0.7211
  991MOL0     H33764  10.066   5.094   6.854  2.8835 -0.0630  2.7351
  991MOL0     H33765   9.960   3.823   6.683  0.5482 -2.7547 -2.4885
  991MOL0     H33766   9.818   3.652   6.593  0.5315  0.3962  1.7924
  991MOL0     H33767   9.502   3.641   6.201  1.0388 -1.7322 -2.5192
  991MOL0     H33768   9.363   3.484   6.067 -1.0188  0.6005 -0.3845
  991MOL0     H33769   8.446   2.771   6.404 -0.5026  1.8363 -0.3286
  991MOL0     H33770   8.263   2.901   6.413 -1.3521 -0.1365  0.1018
  991MOL0     H33771   7.954   3.058   6.354  0.0071  2.4886 -1.2008
  991MOL0     H33772   7.763   3.217   6.313 -0.5357  0.3740  1.0428
  991MOL0     H33773   7.539   3.283   6.257  2.0853  2.2622 -0.6740
  991MOL0     H33774   7.587   3.388   6.390 -0.7928 -1.0106  0.6216
  991MOL0     H33775   7.384   3.433   6.459  1.6393 -0.0597  0.0539
  991MOL0     H33776   7.308   3.314   6.345 -0.7690  0.0467  4.8149
  991MOL0     H33777   7.358   3.455   6.152  2.8784  2.0956 -1.5628
  991MOL0     H33778   7.441   3.568   6.266 -0.7471 -0.0997  0.6314
  991MOL0     H33779   7.237   3.641   6.347 -0.7830  0.9574  0.7721
  991MOL0     H33780   7.204   3.624   6.174 -0.7769  2.4852  1.5835
  991MOL0     H33781   6.920   3.362   6.319  1.1031 -2.3304  2.0119
  991MOL0     H33782   7.549   3.026   6.626  0.5193  0.6979  0.6880
  991MOL0     H33783   7.642   2.861   6.727  0.3990  3.4000  1.0099
  991MOL0     H33784   7.795   2.774   6.687  1.2851 -0.2252  1.0627
  991MOL0     H33785   7.801   2.905   6.801 -0.3895  2.9967 -0.7147
  992MOL0     O33786   7.543   4.709   3.062  0.7682  0.0858 -0.2318
  992MOL0     C33787   7.630   4.653   2.997 -0.3991 -0.6280  0.0388
  992MOL0     O33788   7.621   4.620   2.866 -0.3795 -0.2152  0.0976
  992MOL0     C33789   7.519   4.661   2.789  0.6195  0.8721  0.0351
  992MOL0     C33790   7.408   4.579   2.768  0.5842 -1.4831  1.2862
  992MOL0     C33791   7.321   4.618   2.672  0.7950  0.0879 -0.4839
  992MOL0     C33792   7.341   4.727   2.581  0.0584  0.3459 -0.0231
  992MOL0     O33793   7.246   4.762   2.480  0.2869  0.3517 -1.0961
  992MOL0     C33794   7.178   4.656   2.408 -0.5756  0.9400 -0.3675
  992MOL0     C33795   7.098   4.731   2.302 -0.5950 -0.0731  0.4709
  992MOL0     C33796   7.162   4.763   2.162 -0.0727 -0.4651 -0.6022
  992MOL0     C33797   7.053   4.787   2.063 -0.2304  0.3735  0.4120
  992MOL0     C33798   7.090   4.814   1.918 -0.2364 -0.2967  0.9322
  992MOL0     C33799   7.150   4.686   1.855 -0.4950 -1.0106  0.0407
  992MOL0     C33800   7.206   4.720   1.720 -0.3411  0.5671  0.3012
  992MOL0     C33801   7.090   4.723   1.629  0.6052  0.2511  0.1297
  992MOL0     N33802   7.132   4.702   1.487  0.5727 -0.6371  0.2388
  992MOL0     C33803   7.070   4.615   1.400 -0.6671  0.2015  0.3299
  992MOL0     C33804   7.166   4.616   1.296  1.2936  0.7455 -0.5417
  992MOL0     C33805   7.147   4.543   1.172 -0.6078  0.2480  0.4633
  992MOL0     C33806   7.016   4.539   1.104  1.0359 -0.9451  0.6008
  992MOL0     C33807   6.967   4.674   1.062 -0.9149  0.8449 -0.0759
  992MOL0     C33808   7.074   4.769   1.003 -0.0322  0.1379  0.1861
  992MOL0     O33809   7.118   4.697   0.891 -0.7342  0.1494  0.3938
  992MOL0     C33810   7.251   4.701   0.854 -0.0284 -0.0550 -0.2503
  992MOL0     C33811   7.323   4.820   0.871  0.4316  0.2003 -0.2382
  992MOL0     C33812   7.457   4.818   0.827 -0.9638 -0.6058 -0.0108
  992MOL0     C33813   7.522   4.709   0.781  0.0147  0.6619  0.8284
  992MOL0     C33814   7.653   4.716   0.721 -0.3343 -0.7611  0.0771
  992MOL0     O33815   7.711   4.597   0.676  0.4305 -0.8434  0.0791
  992MOL0     C33816   7.841   4.602   0.632 -0.9608 -0.6981 -0.2799
  992MOL0     C33817   7.865   4.534   0.522  0.0823  0.2870  0.2727
  992MOL0     C33818   7.993   4.515   0.464 -0.2957  1.3581 -0.8917
  992MOL0     C33819   8.097   4.568   0.537 -0.6676 -0.0057  0.8878
  992MOL0     O33820   8.226   4.564   0.491  0.7091 -0.9984 -0.6751
  992MOL0     C33821   8.231   4.661   0.378 -0.7174  1.3842 -1.2942
  992MOL0     C33822   8.384   4.660   0.352 -0.9039  0.0015 -0.4905
  992MOL0     C33823   8.414   4.751   0.239 -0.8462 -0.2627 -0.2101
  992MOL0     C33824   8.430   4.896   0.280 -1.5025 -0.3937  0.9176
  992MOL0     C33825   8.497   4.982   0.171 -0.1672  0.3955  0.3360
  992MOL0     C33826   8.522   5.122   0.231 -0.1411 -1.0502  0.3368
  992MOL0     C33827   8.556   5.227   0.113  1.0714  0.1607  0.1088
  992MOL0     C33828   8.584   5.373   0.169  0.4427 -0.5659  0.3241
  992MOL0    Cl33829   8.676   5.466   0.064 -0.1873 -0.1018  0.6912
  992MOL0     C33830   8.073   4.652   0.648 -0.5510  0.3466 -0.2617
  992MOL0     C33831   7.943   4.663   0.695  0.0166  0.0423 -0.1329
  992MOL0     O33832   7.702   4.832   0.719 -0.1129 -0.2983  0.3927
  992MOL0     C33833   7.447   4.584   0.772 -0.2844 -0.0516  0.0061
  992MOL0     C33834   7.312   4.578   0.812  0.6424  0.5013 -0.8188
  992MOL0     N33835   7.269   4.702   1.318  0.0101  0.7595  0.7414
  992MOL0     N33836   7.240   4.761   1.427  0.0179  0.4277  0.1976
  992MOL0     C33837   7.446   4.801   2.606  0.8150  1.1015  0.3761
  992MOL0     C33838   7.535   4.776   2.706  0.0225  0.7846  0.1262
  992MOL0     C33839   7.768   4.666   3.058  0.0413 -0.3308 -0.5268
  992MOL0     C33840   7.867   4.691   2.966  0.6030  1.1022  0.0133
  992MOL0     C33841   7.999   4.706   3.004 -0.5261  0.0035  0.1639
  992MOL0     C33842   8.033   4.712   3.136  0.3301 -0.1328 -0.6524
  992MOL0     O33843   8.167   4.723   3.166  0.5586 -0.5111 -0.7884
  992MOL0     C33844   8.193   4.770   3.292  0.2007 -0.5997  0.2671
  992MOL0     C33845   8.311   4.853   3.278 -0.2326 -0.0617  0.8640
  992MOL0     C33846   8.341   4.918   3.412 -0.5055  1.1295 -0.1729
  992MOL0     C33847   8.429   4.822   3.499  0.3653  0.1656 -0.5925
  992MOL0     C33848   8.429   4.884   3.633 -0.9311  0.9033  0.0964
  992MOL0     C33849   8.422   4.925   3.746  0.1871 -0.0553  0.3297
  992MOL0     C33850   7.938   4.668   3.230 -0.2003  0.0098  0.9038
  992MOL0     C33851   7.804   4.652   3.191  0.1796  0.4393  0.9243
  992MOL0     C33852   7.710   4.605   3.293  0.7704 -0.4603  0.5907
  992MOL0     H33853   7.400   4.488   2.828  0.8853 -1.1820  1.7854
  992MOL0     H33854   7.233   4.557   2.654 -0.5078  0.6682  2.9752
  992MOL0     H33855   7.245   4.580   2.368  0.1086  2.4933 -2.3681
  992MOL0     H33856   7.100   4.607   2.467 -0.2059  1.9592  1.0291
  992MOL0     H33857   7.063   4.826   2.343 -1.2040  0.8230 -1.9904
  992MOL0     H33858   7.007   4.674   2.281 -1.0649  0.6615  0.4726
  992MOL0     H33859   7.219   4.677   2.127 -1.1808 -0.8902 -1.4132
  992MOL0     H33860   7.224   4.853   2.173 -1.6212  0.9769 -2.8116
  992MOL0     H33861   6.980   4.706   2.055 -1.8556  1.8711 -0.6034
  992MOL0     H33862   6.999   4.875   2.098  1.0513  0.6150  1.8911
  992MOL0     H33863   7.007   4.848   1.856  1.2615  0.1177 -0.9310
  992MOL0     H33864   7.165   4.894   1.921 -1.0508  0.5918 -0.8892
  992MOL0     H33865   7.231   4.652   1.920  1.8132  2.2241 -0.8765
  992MOL0     H33866   7.067   4.616   1.853 -0.3492 -1.1777 -0.2646
  992MOL0     H33867   7.273   4.647   1.674 -1.2463  0.8589 -1.5971
  992MOL0     H33868   7.261   4.815   1.713  1.6713 -0.6503 -1.8980
  992MOL0     H33869   7.016   4.643   1.642 -0.6278  1.1408 -1.1509
  992MOL0     H33870   7.040   4.821   1.625  2.4683  1.2910  1.0998
  992MOL0     H33871   6.975   4.564   1.400 -1.4033  1.5008  1.7069
  992MOL0     H33872   7.220   4.580   1.099  0.0833 -1.9728 -0.0594
  992MOL0     H33873   7.165   4.439   1.198  1.3568  0.6898  1.0138
  992MOL0     H33874   7.010   4.480   1.012 -0.5147  4.3516 -3.2170
  992MOL0     H33875   6.949   4.499   1.180 -0.4665  1.3231  0.5677
  992MOL0     H33876   6.905   4.731   1.131 -0.1703  0.4692  0.9275
  992MOL0     H33877   6.919   4.640   0.970 -0.1080  1.5884 -0.7919
  992MOL0     H33878   7.145   4.801   1.080 -0.9971 -0.1282  1.2146
  992MOL0     H33879   7.017   4.855   0.967 -0.8134 -0.4993 -0.1434
  992MOL0     H33880   7.278   4.912   0.906  0.6877 -0.2545  1.3645
  992MOL0     H33881   7.518   4.908   0.830  1.1576 -1.8429 -2.1984
  992MOL0     H33882   7.778   4.483   0.481 -1.8642  1.7864  2.3090
  992MOL0     H33883   8.013   4.447   0.382  0.3488  2.4001 -1.6237
  992MOL0     H33884   8.171   4.636   0.290  1.1629  2.6240 -2.9877
  992MOL0     H33885   8.199   4.762   0.405 -0.4553  2.3846 -4.4115
  992MOL0     H33886   8.441   4.675   0.444 -0.8132  0.3590 -0.6002
  992MOL0     H33887   8.399   4.555   0.326 -2.6973 -0.3711 -0.1944
  992MOL0     H33888   8.510   4.724   0.194  0.5764  1.2081  1.7741
  992MOL0     H33889   8.345   4.746   0.154 -0.4105 -2.4189 -0.4988
  992MOL0     H33890   8.498   4.899   0.366 -0.4880  3.3966  0.1487
  992MOL0     H33891   8.331   4.936   0.304 -1.0088  1.0949  0.5596
  992MOL0     H33892   8.441   4.985   0.077  0.2787 -1.0761  0.0024
  992MOL0     H33893   8.591   4.939   0.136  1.0835  3.9207 -1.1418
  992MOL0     H33894   8.426   5.157   0.271 -1.4272 -3.2664 -0.6598
  992MOL0     H33895   8.596   5.127   0.312  0.4613 -0.8345 -0.2183
  992MOL0     H33896   8.479   5.225   0.035  1.5937  1.0919 -0.4465
  992MOL0     H33897   8.656   5.193   0.086  0.5840 -0.2203 -1.3371
  992MOL0     H33898   8.492   5.426   0.196  0.9545  1.0647 -0.9302
  992MOL0     H33899   8.662   5.371   0.245  3.8223 -6.3679 -2.5623
  992MOL0     H33900   8.146   4.719   0.692 -0.7157  1.3572 -1.4691
  992MOL0     H33901   7.923   4.724   0.782  0.4779  1.5596 -1.0436
  992MOL0     H33902   7.488   4.492   0.731  1.5593  0.9414 -0.5307
  992MOL0     H33903   7.262   4.481   0.811  0.5028  0.4943  1.1785
  992MOL0     H33904   7.454   4.888   2.541  2.7232  1.3767  0.9192
  992MOL0     H33905   7.624   4.839   2.705  0.6529 -0.0699 -1.4858
  992MOL0     H33906   7.846   4.703   2.860  0.3770 -0.1035 -0.0922
  992MOL0     H33907   8.086   4.704   2.940  0.8097 -2.6150  1.8868
  992MOL0     H33908   8.214   4.679   3.350  2.5287  0.5419  1.3412
  992MOL0     H33909   8.109   4.825   3.334 -1.1570 -0.6736 -2.1485
  992MOL0     H33910   8.280   4.940   3.220  0.2476 -1.1900 -1.1913
  992MOL0     H33911   8.398   4.800   3.238  1.9061  2.1337  2.3228
  992MOL0     H33912   8.250   4.938   3.469 -1.0855  1.6567 -1.2434
  992MOL0     H33913   8.403   5.005   3.389  1.4875 -0.3191 -0.5087
  992MOL0     H33914   8.379   4.726   3.514  0.8678  0.2186  1.7452
  992MOL0     H33915   8.535   4.815   3.473  0.6362  1.2296  0.1518
  992MOL0     H33916   8.417   4.947   3.851 -1.6266 -0.9673  0.4817
  992MOL0     H33917   7.967   4.635   3.329 -0.2454 -1.1774  0.5484
  992MOL0     H33918   7.680   4.685   3.361  0.1028 -1.3651  1.3860
  992MOL0     H33919   7.619   4.561   3.251  1.6453 -1.0042 -0.8343
  992MOL0     H33920   7.768   4.535   3.354  0.9251 -1.8235 -1.0264
  993MOL0     O33921  10.231   1.470  11.294  0.2049 -0.1452  0.2180
  993MOL0     C33922  10.169   1.438  11.191 -0.3367 -0.5043  0.8829
  993MOL0     O33923  10.202   1.317  11.119  0.4945 -0.4778  0.8768
  993MOL0     C33924  10.333   1.287  11.129 -0.1673 -0.6735  0.8559
  993MOL0     C33925  10.357   1.151  11.138 -0.2445  0.0988 -0.4819
  993MOL0     C33926  10.479   1.098  11.144 -0.2321  0.1434 -0.4317
  993MOL0     C33927  10.591   1.182  11.149  0.3851  0.6828 -0.1982
  993MOL0     O33928  10.709   1.109  11.154  0.4012 -0.5025 -0.3617
  993MOL0     C33929  10.833   1.188  11.166  1.0552  0.7482  0.5462
  993MOL0     C33930  10.945   1.110  11.091 -0.0221  0.2008 -0.7820
  993MOL0     C33931  10.912   1.102  10.937 -0.4089  0.0527 -1.1078
  993MOL0     C33932  11.028   1.024  10.868 -0.4437  0.6892 -0.0664
  993MOL0     C33933  11.022   1.029  10.710  0.3863 -1.0688  0.3680
  993MOL0     C33934  11.157   0.988  10.643  0.3434  0.6317  0.2345
  993MOL0     C33935  11.176   1.017  10.494 -0.0562 -0.0893 -0.3885
  993MOL0     C33936  11.156   1.161  10.462 -0.3140  0.9763 -0.2121
  993MOL0     N33937  11.242   1.200  10.340  0.3622 -0.9880  0.4907
  993MOL0     C33938  11.377   1.225  10.316  0.3673 -0.7554  1.4562
  993MOL0     C33939  11.392   1.214  10.180 -0.6392 -0.5812 -0.0365
  993MOL0     C33940  11.532   1.210  10.131  0.5551 -0.3327 -0.2452
  993MOL0     C33941  11.546   1.309  10.012  0.3008  0.1674 -0.3320
  993MOL0     C33942  11.677   1.284   9.937  0.0044 -0.8652  0.0899
  993MOL0     C33943  11.681   1.387   9.817 -0.9036  0.5220 -0.4669
  993MOL0     O33944  11.573   1.353   9.719  0.0265  0.4076 -0.1484
  993MOL0     C33945  11.594   1.250   9.628  0.6367  0.7639  0.0965
  993MOL0     C33946  11.712   1.239   9.557 -0.2982  0.3301  1.0067
  993MOL0     C33947  11.742   1.137   9.471 -0.5513 -0.3908  1.1371
  993MOL0     C33948  11.631   1.046   9.445  0.0551 -0.5415  0.2082
  993MOL0     C33949  11.653   0.921   9.369  0.2363 -0.4897 -0.0052
  993MOL0     O33950  11.566   0.873   9.273  0.1309 -0.2204 -0.1836
  993MOL0     C33951  11.571   0.738   9.257 -1.1350  0.5695  0.8352
  993MOL0     C33952  11.620   0.678   9.141 -0.4728 -0.6179 -0.5974
  993MOL0     C33953  11.595   0.546   9.116 -0.9097  0.3653  0.0916
  993MOL0     C33954  11.547   0.459   9.212 -0.1064  0.5013  0.8590
  993MOL0     O33955  11.509   0.323   9.184 -0.0677  0.7082  0.3750
  993MOL0     C33956  11.610   0.223   9.210  0.6567 -0.1317 -0.2551
  993MOL0     C33957  11.573   0.090   9.134  0.8153 -0.4819  0.9376
  993MOL0     C33958  11.681  -0.010   9.143 -0.8830 -0.8397  0.6106
  993MOL0     C33959  11.716  -0.048   9.288 -0.3567 -1.0838 -0.0875
  993MOL0     C33960  11.804  -0.180   9.297 -0.0921 -0.0973 -0.0366
  993MOL0     C33961  11.837  -0.212   9.434  0.4691  1.6268 -0.5715
  993MOL0     C33962  11.831  -0.367   9.453  1.5375  0.5109  1.1295
  993MOL0     C33963  11.854  -0.425   9.595  0.1483  0.7274 -0.9563
  993MOL0    Cl33964  12.027  -0.412   9.625  0.4002  0.0761 -0.0771
  993MOL0     C33965  11.502   0.511   9.336  0.7121 -0.8477  0.5264
  993MOL0     C33966  11.518   0.652   9.354 -1.0171  0.2212 -0.3382
  993MOL0     O33967  11.757   0.873   9.409  0.3232 -0.5204 -0.5076
  993MOL0     C33968  11.505   1.083   9.489  0.1709  0.6210  0.8152
  993MOL0     C33969  11.477   1.182   9.582 -0.0381 -0.6475 -0.4600
  993MOL0     N33970  11.276   1.162  10.124  0.6334 -0.1938  0.2808
  993MOL0     N33971  11.197   1.151  10.217  1.2168  0.0759 -0.0198
  993MOL0     C33972  10.568   1.321  11.151 -0.8962  0.1242  0.7961
  993MOL0     C33973  10.441   1.374  11.127 -0.0534 -0.8530 -0.0888
  993MOL0     C33974  10.066   1.517  11.135 -0.4397 -1.6791 -0.5550
  993MOL0     C33975  10.011   1.470  11.013 -0.4791 -0.5349  0.0949
  993MOL0     C33976   9.911   1.553  10.952  0.3971  0.0154  1.0022
  993MOL0     C33977   9.867   1.681  11.005 -0.5478 -0.4889  1.2205
  993MOL0     O33978   9.777   1.764  10.954  0.4198  0.2401 -0.2336
  993MOL0     C33979   9.712   1.719  10.828 -0.7736 -0.3972 -0.8506
  993MOL0     C33980   9.609   1.814  10.782 -0.1083 -0.1206 -0.5301
  993MOL0     C33981   9.583   1.792  10.633 -0.1303 -0.4360  0.0961
  993MOL0     C33982   9.467   1.880  10.570 -0.0799 -0.7217 -0.7136
  993MOL0     C33983   9.531   2.017  10.563  0.4797  0.1167  0.9204
  993MOL0     C33984   9.572   2.139  10.571  0.7048 -0.0504 -0.1627
  993MOL0     C33985   9.929   1.726  11.121 -0.8397  0.1183  0.6241
  993MOL0     C33986  10.019   1.645  11.191  0.1873  0.4763 -0.0802
  993MOL0     C33987  10.076   1.710  11.309 -0.2343  0.0176 -0.0829
  993MOL0     H33988  10.273   1.082  11.137 -0.9772  0.9769 -0.5780
  993MOL0     H33989  10.501   0.992  11.146  1.0680  0.3925 -0.5355
  993MOL0     H33990  10.827   1.285  11.115  0.8923 -0.0463 -0.9788
  993MOL0     H33991  10.858   1.192  11.272 -0.0093 -2.1317  0.9728
  993MOL0     H33992  10.937   1.005  11.122 -1.0502  0.1077 -1.3211
  993MOL0     H33993  11.037   1.155  11.130 -0.0458 -0.4942  0.1146
  993MOL0     H33994  10.889   1.201  10.897 -1.3627  1.4275  2.5340
  993MOL0     H33995  10.818   1.050  10.913 -0.5981  0.6391 -1.6784
  993MOL0     H33996  11.125   1.058  10.907 -0.5481 -1.6676  2.5337
  993MOL0     H33997  11.016   0.922  10.903  2.0557 -0.5454 -2.3823
  993MOL0     H33998  10.942   0.963  10.676 -1.2546  0.5313  0.9599
  993MOL0     H33999  11.000   1.130  10.675  1.1747 -0.1710  2.2637
  993MOL0     H34000  11.238   1.033  10.701 -1.3765  1.9429  1.7789
  993MOL0     H34001  11.158   0.879  10.644  0.4931  0.5326 -2.8459
  993MOL0     H34002  11.100   0.965  10.434  1.9357 -2.0575 -1.3250
  993MOL0     H34003  11.274   0.973  10.477 -0.4550 -2.4560  2.4912
  993MOL0     H34004  11.049   1.167  10.436 -0.6607 -2.5696 -0.1150
  993MOL0     H34005  11.180   1.222  10.550  3.3506 -2.2817  1.3275
  993MOL0     H34006  11.456   1.247  10.387  0.2365 -0.1128  1.4067
  993MOL0     H34007  11.601   1.253  10.204 -0.6762  1.1398  0.1001
  993MOL0     H34008  11.554   1.104  10.118 -1.3850 -1.0357  1.6525
  993MOL0     H34009  11.458   1.308   9.947  0.1780  0.1535 -0.1677
  993MOL0     H34010  11.557   1.401  10.069  2.5188 -0.8467  0.9989
  993MOL0     H34011  11.679   1.182   9.898 -1.4540  0.1393 -2.9009
  993MOL0     H34012  11.767   1.302   9.997 -0.6540 -0.8019  1.0879
  993MOL0     H34013  11.782   1.381   9.776 -1.3405 -1.8006 -1.3887
  993MOL0     H34014  11.665   1.486   9.860 -3.4738 -0.0621  0.0886
  993MOL0     H34015  11.787   1.317   9.564 -0.6474  1.1142 -2.2092
  993MOL0     H34016  11.846   1.124   9.442  0.2204  4.1828  1.1191
  993MOL0     H34017  11.670   0.747   9.074 -0.3880 -0.9012 -0.8292
  993MOL0     H34018  11.617   0.512   9.016  1.0745  1.0829  0.2342
  993MOL0     H34019  11.695   0.270   9.160  0.0185  0.1572 -1.0796
  993MOL0     H34020  11.635   0.211   9.316  0.0972 -1.6659 -0.2782
  993MOL0     H34021  11.478   0.063   9.180 -1.3012  1.5351 -1.9215
  993MOL0     H34022  11.540   0.108   9.032 -1.4260 -1.3610  1.4417
  993MOL0     H34023  11.670  -0.103   9.086  3.3980  0.6143 -3.2274
  993MOL0     H34024  11.764   0.042   9.095 -1.0706 -2.1424 -1.2059
  993MOL0     H34025  11.627  -0.057   9.351  1.3905 -0.6485  2.6153
  993MOL0     H34026  11.776   0.033   9.332 -0.7941 -2.0832  2.4792
  993MOL0     H34027  11.894  -0.170   9.236 -1.1743 -0.9080 -1.8556
  993MOL0     H34028  11.742  -0.260   9.255 -0.6877 -1.5021  3.1634
  993MOL0     H34029  11.938  -0.181   9.462  1.7485  0.1459 -3.1700
  993MOL0     H34030  11.770  -0.158   9.501  1.1876 -2.3598  3.9434
  993MOL0     H34031  11.910  -0.404   9.386  1.1618  1.9125 -0.1623
  993MOL0     H34032  11.727  -0.399   9.440  0.7207  2.0099  3.4162
  993MOL0     H34033  11.798  -0.371   9.672  3.6316  2.1990  0.7839
  993MOL0     H34034  11.823  -0.530   9.604 -1.9390  1.4294  1.1954
  993MOL0     H34035  11.445   0.440   9.395 -2.8346  0.9333 -0.4793
  993MOL0     H34036  11.472   0.692   9.443 -3.0402 -0.0623 -1.2013
  993MOL0     H34037  11.425   1.021   9.451  0.7216  0.6950 -0.5023
  993MOL0     H34038  11.375   1.192   9.617 -0.6384 -0.5255 -2.1717
  993MOL0     H34039  10.640   1.401  11.140 -2.4443  1.2048 -3.6654
  993MOL0     H34040  10.428   1.481  11.110  1.0209 -0.5198  0.9839
  993MOL0     H34041  10.040   1.373  10.974  0.0557 -1.0620  1.7025
  993MOL0     H34042   9.869   1.520  10.857  0.3304 -0.9746  1.3629
  993MOL0     H34043   9.659   1.624  10.837 -1.5750  0.2177  2.2006
  993MOL0     H34044   9.792   1.714  10.754 -1.3856  2.4013 -1.8211
  993MOL0     H34045   9.651   1.913  10.800 -1.0811  0.3858 -1.0439
  993MOL0     H34046   9.513   1.805  10.833  0.1335 -1.4876 -0.2681
  993MOL0     H34047   9.557   1.687  10.619  0.5916 -0.5440 -0.5028
  993MOL0     H34048   9.669   1.822  10.572 -3.3111  3.6551 -2.9899
  993MOL0     H34049   9.443   1.856  10.466  3.1092  1.8585 -2.2106
  993MOL0     H34050   9.376   1.868  10.630 -0.5804  2.9667 -0.4746
  993MOL0     H34051   9.602   2.241  10.585 -0.2610 -0.1595  4.4494
  993MOL0     H34052   9.900   1.818  11.171  1.6916  2.2900 -1.5605
  993MOL0     H34053  10.056   1.636  11.387 -3.5899 -3.0909 -3.4311
  993MOL0     H34054  10.183   1.719  11.286 -0.5570  0.8705 -1.3442
  993MOL0     H34055  10.031   1.803  11.344 -0.3415 -0.8147  2.1788
  994MOL0     O34056   9.227   8.778   8.655  0.5224 -0.8197  0.1168
  994MOL0     C34057   9.263   8.878   8.605  0.0517 -0.1061 -0.1673
  994MOL0     O34058   9.370   8.951   8.644  0.2469  0.7242  0.0341
  994MOL0     C34059   9.431   8.921   8.770  0.5160 -0.3349 -0.7448
  994MOL0     C34060   9.426   9.030   8.862 -0.4607 -0.1860  0.0369
  994MOL0     C34061   9.505   9.022   8.977  0.0867 -0.4863 -0.4563
  994MOL0     C34062   9.582   8.904   9.007  0.7816  0.2048  0.2333
  994MOL0     O34063   9.637   8.885   9.125  0.2213  0.1941  0.4882
  994MOL0     C34064   9.578   8.936   9.247  0.1045  0.1779 -0.1782
  994MOL0     C34065   9.651   9.058   9.292 -0.2246  0.5845 -0.2119
  994MOL0     C34066   9.796   9.018   9.354  1.0139 -0.2671  0.0731
  994MOL0     C34067   9.791   8.991   9.508  0.2886  0.3434 -0.1122
  994MOL0     C34068   9.925   8.971   9.570  0.6068 -0.0486 -0.6301
  994MOL0     C34069   9.915   8.940   9.719  0.3816  0.9544 -0.1545
  994MOL0     C34070  10.047   8.875   9.775 -0.6617  0.2906  0.9661
  994MOL0     C34071  10.063   8.909   9.922 -0.3888 -0.3035  0.0784
  994MOL0     N34072   9.976   8.820  10.002 -0.6841  0.0103  0.5918
  994MOL0     C34073   9.983   8.684  10.006  0.2970  0.2377  0.2891
  994MOL0     C34074   9.872   8.642  10.071  0.2504 -0.5485  0.1173
  994MOL0     C34075   9.840   8.500  10.069 -0.4745  0.8447  0.3454
  994MOL0     C34076   9.728   8.470   9.963  1.0725  0.5375  0.0136
  994MOL0     C34077   9.594   8.528   9.996  0.9639 -0.1335 -0.0840
  994MOL0     C34078   9.499   8.477   9.880 -0.0527  0.5776 -0.1311
  994MOL0     O34079   9.365   8.539   9.881 -0.7058  0.4279 -0.0969
  994MOL0     C34080   9.337   8.639   9.801 -0.1230 -0.7376 -0.3469
  994MOL0     C34081   9.421   8.714   9.718  1.3072  0.2824  0.0599
  994MOL0     C34082   9.375   8.816   9.636  0.5029 -0.1470  0.3353
  994MOL0     C34083   9.230   8.843   9.631  1.3045 -0.0028  0.4919
  994MOL0     C34084   9.176   8.947   9.539  0.3346  1.5328 -0.5503
  994MOL0     O34085   9.252   8.976   9.437 -0.1150  0.1196  0.5719
  994MOL0     C34086   9.197   9.024   9.318  0.3707  0.1202 -0.7466
  994MOL0     C34087   9.104   8.950   9.242  0.9748 -0.0586  0.4201
  994MOL0     C34088   9.053   9.005   9.119 -0.4954  0.2631  0.1550
  994MOL0     C34089   9.090   9.137   9.079  0.8111  0.0192  0.3295
  994MOL0     O34090   9.035   9.201   8.974 -0.4437 -0.0298  0.4106
  994MOL0     C34091   8.928   9.291   9.000 -0.3609 -0.1945 -0.4415
  994MOL0     C34092   8.925   9.386   8.886 -0.0142 -0.0893 -0.5363
  994MOL0     C34093   9.046   9.488   8.894  0.9268 -0.1695 -0.8697
  994MOL0     C34094   9.031   9.605   8.804  0.0906 -0.3597  0.4976
  994MOL0     C34095   9.158   9.687   8.792 -0.9827  0.2098  0.1941
  994MOL0     C34096   9.130   9.833   8.762  0.0825 -0.1085  1.0399
  994MOL0     C34097   9.261   9.915   8.760 -0.0210 -0.1889  0.1103
  994MOL0     C34098   9.242  10.051   8.680  0.1706  0.3240 -0.4420
  994MOL0    Cl34099   9.097  10.133   8.732  0.1295  0.2115  0.1562
  994MOL0     C34100   9.188   9.207   9.150  0.5074 -0.4954  0.3348
  994MOL0     C34101   9.243   9.147   9.269 -0.1628 -0.7237 -0.1194
  994MOL0     O34102   9.083   9.007   9.583  0.1894 -1.0345 -0.2594
  994MOL0     C34103   9.149   8.772   9.717  0.1205  1.0243 -0.1957
  994MOL0     C34104   9.205   8.672   9.797 -0.6994 -0.4251 -0.9849
  994MOL0     N34105   9.804   8.752  10.124 -0.3066 -0.6203 -0.5164
  994MOL0     N34106   9.864   8.852  10.067 -0.4203  0.7914 -0.2171
  994MOL0     C34107   9.569   8.799   8.915 -0.8571  0.1677  0.4568
  994MOL0     C34108   9.495   8.806   8.799  0.2270 -0.8250  0.6354
  994MOL0     C34109   9.187   8.883   8.470  0.5018 -0.0114 -0.8541
  994MOL0     C34110   9.259   8.954   8.372  0.9955 -0.5825  0.4682
  994MOL0     C34111   9.214   8.964   8.238  0.0851 -0.5534  0.5923
  994MOL0     C34112   9.101   8.899   8.200 -0.2637 -0.6093  0.6264
  994MOL0     O34113   9.084   8.903   8.062  0.9036  0.1672 -0.3216
  994MOL0     C34114   8.967   8.846   8.011 -0.5043 -0.4582 -0.4626
  994MOL0     C34115   8.845   8.940   8.047  0.3073 -0.0729  0.0091
  994MOL0     C34116   8.853   9.089   8.010 -0.9568  0.5008 -0.1410
  994MOL0     C34117   8.901   9.111   7.861 -1.5669  0.6173 -0.9193
  994MOL0     C34118   8.838   9.033   7.753 -0.0283  0.4198 -0.7819
  994MOL0     C34119   8.794   8.975   7.656  0.1789  0.4356  0.5229
  994MOL0     C34120   9.026   8.831   8.295 -0.7086  0.2531  1.1295
  994MOL0     C34121   9.065   8.829   8.434  0.0247  0.7065 -0.6574
  994MOL0     C34122   8.970   8.753   8.532 -0.0932 -0.2108 -0.4166
  994MOL0     H34123   9.362   9.114   8.835  0.1690  0.5982  0.9412
  994MOL0     H34124   9.511   9.102   9.050  0.3253 -0.6794 -0.2615
  994MOL0     H34125   9.475   8.960   9.219  0.8345  2.5582 -1.0434
  994MOL0     H34126   9.576   8.864   9.330  2.0179 -0.3891 -0.5710
  994MOL0     H34127   9.597   9.121   9.364 -0.2785 -1.3663  1.5507
  994MOL0     H34128   9.676   9.124   9.208  4.5346  0.6564  0.9486
  994MOL0     H34129   9.850   9.112   9.340 -0.0786  0.2317 -0.8753
  994MOL0     H34130   9.831   8.943   9.283 -1.4142  0.7329 -2.3587
  994MOL0     H34131   9.745   9.077   9.557 -0.6307  0.7679 -1.6587
  994MOL0     H34132   9.732   8.901   9.530 -0.3510  0.8072  0.0842
  994MOL0     H34133   9.968   8.885   9.518 -0.9065  0.8966 -3.6841
  994MOL0     H34134   9.987   9.061   9.559 -0.5477  1.3764  2.8636
  994MOL0     H34135   9.892   9.035   9.769 -4.3956  0.8778 -1.6780
  994MOL0     H34136   9.820   8.887   9.731  0.4341  0.8118 -0.3712
  994MOL0     H34137  10.137   8.916   9.729 -1.2419  0.8626  0.3117
  994MOL0     H34138  10.044   8.769   9.748  1.9018  0.1168  1.1439
  994MOL0     H34139  10.163   8.899   9.965  0.0830 -1.6451 -1.2223
  994MOL0     H34140  10.043   9.014   9.945  4.2879  1.3035 -1.8706
  994MOL0     H34141  10.053   8.615   9.961 -0.5618 -2.2246  2.4624
  994MOL0     H34142   9.927   8.435  10.054 -2.2903 -1.9762  1.3034
  994MOL0     H34143   9.797   8.482  10.168  0.6670 -0.7678  0.5936
  994MOL0     H34144   9.761   8.516   9.870 -1.6134 -0.4620 -1.5303
  994MOL0     H34145   9.719   8.364   9.938 -1.3036  0.4719  0.9506
  994MOL0     H34146   9.601   8.637   9.988  1.9145 -0.2837 -2.1384
  994MOL0     H34147   9.545   8.501  10.090 -1.5805  4.4175  0.2062
  994MOL0     H34148   9.476   8.370   9.887  0.4242  0.5790  2.4344
  994MOL0     H34149   9.542   8.491   9.781 -0.4100  3.2228  0.0333
  994MOL0     H34150   9.526   8.686   9.721  1.0351 -0.7450  0.7176
  994MOL0     H34151   9.448   8.861   9.570 -0.9369  4.3777  1.5257
  994MOL0     H34152   9.078   8.851   9.278  1.8858 -0.4096  0.1375
  994MOL0     H34153   8.997   8.944   9.049  2.1359 -1.9283 -0.2206
  994MOL0     H34154   8.836   9.232   8.985 -1.8512  0.9263  3.1125
  994MOL0     H34155   8.912   9.335   9.099 -2.0775  0.9397 -1.1621
  994MOL0     H34156   8.924   9.331   8.791  0.2980  1.4337 -1.4568
  994MOL0     H34157   8.832   9.444   8.887  0.0746  0.0691  1.3279
  994MOL0     H34158   9.063   9.523   8.996 -1.0244 -1.6950  0.0283
  994MOL0     H34159   9.134   9.430   8.864  0.7498  0.0333 -1.8181
  994MOL0     H34160   8.949   9.674   8.829  0.5028  1.3082 -2.2594
  994MOL0     H34161   9.009   9.556   8.708  2.2550 -1.2126  0.3752
  994MOL0     H34162   9.225   9.626   8.731 -1.3615 -0.8009  0.7430
  994MOL0     H34163   9.207   9.693   8.889  2.3770  2.1957 -1.4741
  994MOL0     H34164   9.070   9.840   8.671  2.3828 -0.4488 -0.5845
  994MOL0     H34165   9.066   9.873   8.841  1.5680  1.5508  1.4855
  994MOL0     H34166   9.334   9.852   8.709 -0.5249 -3.3377  2.9257
  994MOL0     H34167   9.297   9.933   8.862  0.2025  0.3187 -0.0560
  994MOL0     H34168   9.334  10.105   8.706  1.6742 -2.7917  1.2736
  994MOL0     H34169   9.225  10.034   8.573 -0.6551  0.6860 -0.3759
  994MOL0     H34170   9.212   9.304   9.109 -1.6402 -0.4506 -0.9790
  994MOL0     H34171   9.324   9.196   9.322  0.0369 -0.9925 -0.1792
  994MOL0     H34172   9.043   8.788   9.735 -0.3423 -0.9323 -0.9607
  994MOL0     H34173   9.137   8.613   9.858  3.1511 -1.9589  2.2978
  994MOL0     H34174   9.619   8.703   8.925 -2.6544 -1.0186 -1.1144
  994MOL0     H34175   9.503   8.715   8.740 -0.5787 -1.4873  1.5287
  994MOL0     H34176   9.345   9.000   8.421  1.0877 -0.5958  0.3215
  994MOL0     H34177   9.268   9.031   8.172 -0.3898  2.0907  2.7539
  994MOL0     H34178   8.948   8.745   8.048  0.1219  0.2512  1.9545
  994MOL0     H34179   8.979   8.838   7.902  0.8779 -0.9206 -0.2986
  994MOL0     H34180   8.811   8.936   8.151 -1.8292 -2.9103 -0.6798
  994MOL0     H34181   8.759   8.912   7.985  0.2917  0.4822 -0.2266
  994MOL0     H34182   8.926   9.129   8.082  0.4754 -0.6265 -0.8968
  994MOL0     H34183   8.755   9.136   8.013 -0.7783  1.1514 -2.5434
  994MOL0     H34184   8.918   9.216   7.835  2.7727  0.6056  1.0171
  994MOL0     H34185   9.003   9.071   7.862 -1.5287  0.5951  1.7452
  994MOL0     H34186   8.753   8.923   7.572 -0.3982  1.6854  0.0006
  994MOL0     H34187   8.931   8.785   8.269 -1.4385  2.5835 -0.6190
  994MOL0     H34188   8.865   8.773   8.510  0.4185  1.8667 -1.2249
  994MOL0     H34189   8.980   8.647   8.507 -0.9105 -1.0682  2.5225
  994MOL0     H34190   8.997   8.766   8.637  2.1878 -2.3071 -0.6474
  995MOL0     O34191   2.792   7.219   0.064  0.6709  0.8573 -0.6114
  995MOL0     C34192   2.829   7.320   0.020  0.9142 -0.4935 -0.0485
  995MOL0     O34193   2.756   7.432   0.011 -0.1138  0.1548 -0.3339
  995MOL0     C34194   2.659   7.440   0.105  0.0246 -0.8896 -0.0856
  995MOL0     C34195   2.529   7.421   0.070 -0.0175  0.7182 -0.3686
  995MOL0     C34196   2.424   7.440   0.160 -0.4007 -0.2139  0.5916
  995MOL0     C34197   2.453   7.496   0.284 -0.9956 -0.6795 -0.1935
  995MOL0     O34198   2.349   7.529   0.364  1.0043  0.2868  0.1908
  995MOL0     C34199   2.273   7.418   0.402 -1.0666  0.2656  0.0607
  995MOL0     C34200   2.181   7.454   0.515 -0.0198 -0.4721  0.1036
  995MOL0     C34201   2.066   7.355   0.519  0.2292 -0.1537 -0.1109
  995MOL0     C34202   2.000   7.356   0.649  0.4798 -0.5065 -0.1522
  995MOL0     C34203   1.883   7.253   0.665  0.9692 -0.5555 -0.0564
  995MOL0     C34204   1.780   7.293   0.774 -0.1430  0.7382  0.4839
  995MOL0     C34205   1.666   7.386   0.721  0.1677 -0.1093 -0.4732
  995MOL0     C34206   1.532   7.329   0.758 -0.3360  0.1047  0.1337
  995MOL0     N34207   1.509   7.328   0.900 -0.2852  0.7091 -0.6026
  995MOL0     C34208   1.408   7.392   0.962 -0.7161 -0.6255 -0.5752
  995MOL0     C34209   1.413   7.346   1.092  0.5625  0.2029  0.2664
  995MOL0     C34210   1.299   7.370   1.190 -0.3024  0.8550 -0.3911
  995MOL0     C34211   1.319   7.471   1.306  0.2176  0.6653 -0.3858
  995MOL0     C34212   1.197   7.540   1.351 -0.7012  0.2950  0.6827
  995MOL0     C34213   1.214   7.582   1.499 -0.0212  0.4269 -0.2131
  995MOL0     O34214   1.090   7.635   1.545  0.2657  0.1117  0.2310
  995MOL0     C34215   1.105   7.740   1.615 -0.6167 -0.1739  0.3830
  995MOL0     C34216   1.041   7.860   1.577 -0.0788  0.8081  0.7381
  995MOL0     C34217   1.046   7.982   1.640  0.0250  0.5971  0.3443
  995MOL0     C34218   1.100   7.978   1.771 -0.0647 -0.3178 -0.8397
  995MOL0     C34219   1.105   8.095   1.858  0.9817 -1.3396 -0.0270
  995MOL0     O34220   1.034   8.204   1.810 -0.1175  0.1382 -0.7840
  995MOL0     C34221   1.063   8.330   1.859  0.1769 -0.2362 -0.2252
  995MOL0     C34222   1.185   8.375   1.918 -0.0042  0.8246  0.6771
  995MOL0     C34223   1.183   8.500   1.976 -0.5059 -0.4524 -0.0020
  995MOL0     C34224   1.081   8.599   1.955  0.8014  0.2651 -0.2944
  995MOL0     O34225   1.072   8.729   1.996 -0.1816  0.0281  0.9705
  995MOL0     C34226   1.186   8.780   2.073  0.3959 -0.5314 -0.2154
  995MOL0     C34227   1.156   8.927   2.095 -0.1367  0.4299 -0.0323
  995MOL0     C34228   1.210   8.964   2.239 -0.0932 -0.8769  0.6528
  995MOL0     C34229   1.360   8.955   2.256 -0.1466 -0.1635 -0.2580
  995MOL0     C34230   1.419   8.986   2.395 -0.7378  0.6592  0.2757
  995MOL0     C34231   1.365   8.889   2.498 -0.3608 -0.7936  0.6864
  995MOL0     C34232   1.440   8.897   2.635  0.3167 -0.1676  1.1272
  995MOL0     C34233   1.581   8.834   2.618  0.2275 -0.5216 -0.2734
  995MOL0    Cl34234   1.581   8.663   2.564 -0.0635  0.2213 -0.5121
  995MOL0     C34235   0.964   8.557   1.882  0.6352  0.0752 -0.8781
  995MOL0     C34236   0.960   8.425   1.844  0.4586  0.4781  0.6736
  995MOL0     O34237   1.154   8.090   1.967 -0.2390 -0.0705 -0.8224
  995MOL0     C34238   1.163   7.865   1.814  0.2238 -0.3284  0.4286
  995MOL0     C34239   1.160   7.745   1.745 -0.2945  0.0626 -0.5525
  995MOL0     N34240   1.519   7.258   1.104  0.2062  0.6307 -0.2071
  995MOL0     N34241   1.569   7.248   0.989 -0.9252 -0.0568  0.2036
  995MOL0     C34242   2.584   7.509   0.323  0.3342 -0.4422 -0.5738
  995MOL0     C34243   2.679   7.478   0.230 -0.2563 -0.7472 -0.0581
  995MOL0     C34244   2.957   7.321  -0.040 -0.2952  0.1493  0.4432
  995MOL0     C34245   2.997   7.199  -0.107  0.1757  0.2425  0.7851
  995MOL0     C34246   3.126   7.182  -0.162  0.5540 -0.0272 -0.4652
  995MOL0     C34247   3.219   7.288  -0.164  0.5913  0.3740 -0.3707
  995MOL0     O34248   3.347   7.298  -0.211  1.3971 -0.1529  0.0970
  995MOL0     C34249   3.391   7.211  -0.306 -0.3931 -0.7100  0.7263
  995MOL0     C34250   3.318   7.252  -0.433  0.5961  0.4632  0.4928
  995MOL0     C34251   3.398   7.369  -0.497 -0.2167  0.8964 -0.5794
  995MOL0     C34252   3.384   7.382  -0.648  0.7242  0.1785  0.2996
  995MOL0     C34253   3.503   7.428  -0.706 -0.3255 -0.5033 -0.1052
  995MOL0     C34254   3.612   7.470  -0.758 -0.2455 -0.0452 -0.2869
  995MOL0     C34255   3.182   7.406  -0.101 -0.0227  0.1346 -0.2880
  995MOL0     C34256   3.053   7.430  -0.049  0.1222 -0.6219 -0.6742
  995MOL0     C34257   3.026   7.559   0.011  0.1115  0.5824  0.2240
  995MOL0     H34258   2.507   7.396  -0.033  0.8336  5.4900 -1.9475
  995MOL0     H34259   2.318   7.429   0.137 -0.8894  0.5294  2.3296
  995MOL0     H34260   2.229   7.370   0.314  0.1735  3.6116 -2.6395
  995MOL0     H34261   2.353   7.346   0.424 -1.6166 -0.1174  0.8328
  995MOL0     H34262   2.154   7.560   0.509  3.5889  0.6295  0.7351
  995MOL0     H34263   2.238   7.457   0.609 -0.2877  4.4472  0.3472
  995MOL0     H34264   2.113   7.259   0.495  0.0348 -0.7554  1.7502
  995MOL0     H34265   1.991   7.376   0.442  0.3810 -0.7595 -0.4302
  995MOL0     H34266   2.073   7.343   0.730 -0.0751  1.9280  0.8264
  995MOL0     H34267   1.950   7.452   0.661 -1.4944 -1.5395  0.3897
  995MOL0     H34268   1.836   7.245   0.567  3.6180  4.3657 -2.1217
  995MOL0     H34269   1.935   7.158   0.679 -0.6555 -1.3309  0.9956
  995MOL0     H34270   1.743   7.191   0.785 -1.5169  0.8960 -1.9555
  995MOL0     H34271   1.824   7.332   0.866 -0.4461 -1.6279  1.7054
  995MOL0     H34272   1.672   7.394   0.612  1.5742 -0.9056 -0.4785
  995MOL0     H34273   1.659   7.485   0.765 -2.5641 -0.2233 -0.4548
  995MOL0     H34274   1.446   7.375   0.710 -0.6437  0.5248  1.0668
  995MOL0     H34275   1.536   7.227   0.718 -2.9160  0.3995 -1.0462
  995MOL0     H34276   1.337   7.464   0.923  1.3709  1.7306 -0.3500
  995MOL0     H34277   1.212   7.398   1.130  0.4473  0.2282 -1.8324
  995MOL0     H34278   1.276   7.277   1.241  3.8027  0.2063  0.6510
  995MOL0     H34279   1.378   7.420   1.383 -1.4745  2.1333  2.0049
  995MOL0     H34280   1.380   7.546   1.255 -0.8317  2.0685  0.3317
  995MOL0     H34281   1.116   7.467   1.347 -1.3288  1.0330 -0.5300
  995MOL0     H34282   1.179   7.620   1.279  2.1256 -1.5359 -2.4268
  995MOL0     H34283   1.301   7.646   1.516  0.2543  0.6356 -2.2276
  995MOL0     H34284   1.223   7.490   1.557  1.3568 -0.2764 -1.4834
  995MOL0     H34285   0.982   7.866   1.486  2.8961  1.0581 -1.3186
  995MOL0     H34286   1.002   8.071   1.598 -1.8441 -0.9055 -1.0407
  995MOL0     H34287   1.259   8.297   1.936 -1.3864 -0.2180  2.1483
  995MOL0     H34288   1.262   8.537   2.041  1.2670  1.2229 -2.9012
  995MOL0     H34289   1.170   8.733   2.170 -0.5455 -2.2401 -1.1607
  995MOL0     H34290   1.283   8.758   2.028  0.1839 -3.3075  0.5257
  995MOL0     H34291   1.213   8.984   2.021 -1.3580 -0.2679 -1.5687
  995MOL0     H34292   1.049   8.948   2.100 -0.3581 -0.7719  0.9925
  995MOL0     H34293   1.180   9.065   2.269 -0.1764 -1.5907  3.1957
  995MOL0     H34294   1.151   8.902   2.307 -0.4579  1.4673  2.5890
  995MOL0     H34295   1.403   9.031   2.191  2.1549  0.0372  1.3981
  995MOL0     H34296   1.403   8.865   2.212 -1.1561  0.5414 -2.9005
  995MOL0     H34297   1.402   9.093   2.412  4.0190  1.5569  0.7689
  995MOL0     H34298   1.527   8.977   2.382 -0.9654 -4.1943 -0.3314
  995MOL0     H34299   1.262   8.924   2.511 -0.5053 -0.4613 -1.1052
  995MOL0     H34300   1.368   8.783   2.470  0.5048 -1.1950  2.1664
  995MOL0     H34301   1.393   8.835   2.712 -1.2377  1.7179  1.7612
  995MOL0     H34302   1.442   8.997   2.680 -0.4367 -0.8593  2.7553
  995MOL0     H34303   1.658   8.897   2.572  0.4520 -1.0376 -0.6077
  995MOL0     H34304   1.607   8.830   2.725  0.2124  1.0947 -0.1864
  995MOL0     H34305   0.885   8.630   1.866  0.5425  0.2153  0.1422
  995MOL0     H34306   0.867   8.384   1.805  1.4916 -1.7952  0.3909
  995MOL0     H34307   1.212   7.864   1.911 -0.8654 -1.8583  0.9966
  995MOL0     H34308   1.215   7.669   1.801 -3.3327 -0.6352  1.7509
  995MOL0     H34309   2.601   7.565   0.414 -0.2633 -0.9904 -0.1164
  995MOL0     H34310   2.781   7.502   0.258 -0.5376 -1.5367  1.7559
  995MOL0     H34311   2.930   7.115  -0.118  0.7216  0.1198 -2.9673
  995MOL0     H34312   3.152   7.087  -0.208  1.7718  0.8624 -1.7300
  995MOL0     H34313   3.373   7.107  -0.274  1.5847 -1.0027  1.0415
  995MOL0     H34314   3.499   7.228  -0.309 -0.5852  0.3598 -1.8977
  995MOL0     H34315   3.219   7.290  -0.410  1.0813  1.5994  0.7809
  995MOL0     H34316   3.312   7.168  -0.502  3.3062 -0.8076  1.6335
  995MOL0     H34317   3.505   7.362  -0.478 -0.6167  1.9110  2.6213
  995MOL0     H34318   3.362   7.460  -0.450 -2.9940 -0.2452 -0.2985
  995MOL0     H34319   3.371   7.282  -0.689  1.4444  1.1673 -2.5859
  995MOL0     H34320   3.304   7.450  -0.678 -0.0426 -1.2673 -1.0213
  995MOL0     H34321   3.706   7.514  -0.785  0.9927 -1.3253  1.7197
  995MOL0     H34322   3.263   7.477  -0.096  1.1179 -1.0532 -1.1369
  995MOL0     H34323   2.963   7.621  -0.054  1.6002  0.1777 -1.6977
  995MOL0     H34324   2.977   7.540   0.106 -2.6756 -2.2175 -1.6122
  995MOL0     H34325   3.123   7.606   0.033  0.3858  0.3783 -0.5086
  996MOL0     O34326  10.373   4.610   7.978  0.2174 -0.1071  0.2348
  996MOL0     C34327  10.338   4.525   8.066 -0.4090 -0.2233  1.1016
  996MOL0     O34328  10.296   4.562   8.186 -0.3270 -0.2392 -0.5157
  996MOL0     C34329  10.302   4.696   8.224  0.9139  0.3083 -0.2304
  996MOL0     C34330  10.183   4.766   8.245 -0.1059 -0.6937  0.8624
  996MOL0     C34331  10.195   4.892   8.299  0.6678 -0.1548  0.3480
  996MOL0     C34332  10.316   4.967   8.318 -0.4024  0.9786  0.7271
  996MOL0     O34333  10.323   5.098   8.362 -0.2547 -0.3229 -0.3965
  996MOL0     C34334  10.202   5.143   8.429 -0.9521  0.1596 -0.1012
  996MOL0     C34335  10.226   5.275   8.503 -0.4755 -0.1050  0.7173
  996MOL0     C34336  10.243   5.392   8.414 -0.5417  0.5697 -0.9225
  996MOL0     C34337  10.251   5.518   8.488 -0.0463 -0.9425  0.0715
  996MOL0     C34338  10.292   5.629   8.388 -1.1519 -0.7445 -0.9236
  996MOL0     C34339  10.315   5.764   8.456 -0.0024  0.6349 -0.7431
  996MOL0     C34340  10.227   5.861   8.404  0.7369 -1.3125 -0.7146
  996MOL0     C34341  10.256   5.922   8.272 -0.5316  0.2840  0.2551
  996MOL0     N34342  10.401   5.960   8.253 -0.5826  1.0678 -0.4320
  996MOL0     C34343  10.439   6.088   8.266 -0.1698 -0.8839  0.1117
  996MOL0     C34344  10.550   6.092   8.193  0.1005 -0.0456  0.4232
  996MOL0     C34345  10.653   6.208   8.177  0.3850  0.5132  0.3246
  996MOL0     C34346  10.663   6.297   8.298  1.0674  1.0332 -0.3321
  996MOL0     C34347  10.719   6.223   8.427  0.0699 -0.0820  1.3189
  996MOL0     C34348  10.775   6.324   8.525 -0.1538  0.1332 -0.1638
  996MOL0     O34349  10.672   6.388   8.607 -0.3250  0.1716  0.2802
  996MOL0     C34350  10.620   6.313   8.715  1.5904 -0.3334  0.1903
  996MOL0     C34351  10.669   6.193   8.778  1.5967 -0.5456  0.8340
  996MOL0     C34352  10.615   6.157   8.903 -0.3575  0.1514  0.2255
  996MOL0     C34353  10.513   6.226   8.965 -0.8429 -0.4133 -0.9482
  996MOL0     C34354  10.468   6.179   9.096  0.1104  0.2696  0.3062
  996MOL0     O34355  10.517   6.059   9.142 -0.2155 -0.0782  0.3480
  996MOL0     C34356  10.459   6.000   9.247 -0.0526 -0.0786 -0.0791
  996MOL0     C34357  10.529   5.968   9.362  0.2872 -0.2642 -0.0270
  996MOL0     C34358  10.464   5.893   9.466 -0.5531 -0.2820 -0.0310
  996MOL0     C34359  10.321   5.863   9.453  0.2561  0.1920 -0.3097
  996MOL0     O34360  10.260   5.794   9.551 -0.2894 -0.5105 -0.4275
  996MOL0     C34361  10.222   5.652   9.517  0.4807 -0.3101  1.0443
  996MOL0     C34362  10.330   5.540   9.524  0.0315  0.8956  0.7776
  996MOL0     C34363  10.366   5.499   9.664  0.4569 -0.1709 -0.1175
  996MOL0     C34364  10.419   5.607   9.770  0.1875  0.1486  0.1870
  996MOL0     C34365  10.320   5.653   9.887  0.9792 -0.3638  0.6332
  996MOL0     C34366  10.262   5.553   9.990 -0.0011 -0.1213  0.6650
  996MOL0     C34367  10.361   5.528  10.104 -0.0737  0.7438  0.1560
  996MOL0     C34368  10.420   5.386  10.105 -0.1432 -1.0091  0.7797
  996MOL0    Cl34369  10.539   5.369   9.971 -0.2499  0.0709  0.1990
  996MOL0     C34370  10.257   5.914   9.342  0.1727 -1.1268  0.3188
  996MOL0     C34371  10.324   5.978   9.236 -0.2573  0.6303 -0.9563
  996MOL0     O34372  10.376   6.249   9.148  0.1605 -0.5989  0.6881
  996MOL0     C34373  10.452   6.333   8.895 -0.0111 -0.4513  0.2323
  996MOL0     C34374  10.508   6.376   8.781 -0.7822  0.1128  0.0025
  996MOL0     N34375  10.591   5.967   8.155 -0.9604 -1.0405  0.2688
  996MOL0     N34376  10.492   5.891   8.181 -0.6177  0.4213 -0.6728
  996MOL0     C34377  10.429   4.894   8.286 -0.2978 -0.2983 -0.5572
  996MOL0     C34378  10.425   4.762   8.242 -0.1843 -0.2793  0.3325
  996MOL0     C34379  10.352   4.382   8.035 -0.1222  0.0104 -0.0553
  996MOL0     C34380  10.452   4.335   7.952 -0.8808 -0.4643 -1.2221
  996MOL0     C34381  10.473   4.204   7.925  0.8147  1.1182 -0.6786
  996MOL0     C34382  10.399   4.103   7.977 -0.2505  0.8446  0.4003
  996MOL0     O34383  10.422   3.972   7.946 -0.0235 -0.1274 -0.2039
  996MOL0     C34384  10.555   3.938   7.919  1.0724  0.4752 -0.0777
  996MOL0     C34385  10.577   3.804   7.993  1.4503  0.3975  0.5298
  996MOL0     C34386  10.698   3.732   7.932  0.0094  0.3906 -0.3596
  996MOL0     C34387  10.650   3.657   7.802 -0.5706 -0.2315 -1.1507
  996MOL0     C34388  10.762   3.582   7.739  0.2333 -0.8270  0.2231
  996MOL0     C34389  10.845   3.515   7.675  0.8308  0.8110 -0.4427
  996MOL0     C34390  10.292   4.146   8.055 -0.2659  0.3313 -0.1104
  996MOL0     C34391  10.268   4.283   8.097 -0.1146 -0.0979 -0.2781
  996MOL0     C34392  10.148   4.310   8.196  0.8393  0.6962  0.2152
  996MOL0     H34393  10.086   4.717   8.240 -0.8079  0.4998  2.0854
  996MOL0     H34394  10.101   4.948   8.304  0.1844 -0.9496  0.3772
  996MOL0     H34395  10.109   5.154   8.371 -3.0379  1.0745  3.1046
  996MOL0     H34396  10.185   5.068   8.506  1.0060 -0.0361  0.1883
  996MOL0     H34397  10.315   5.273   8.567 -0.8227 -2.0134  1.1719
  996MOL0     H34398  10.144   5.302   8.570 -1.1756 -2.2446  0.7870
  996MOL0     H34399  10.165   5.390   8.338 -1.1735 -0.0187 -0.2755
  996MOL0     H34400  10.334   5.376   8.355  0.4490 -3.2359  1.2678
  996MOL0     H34401  10.157   5.549   8.534 -0.4457  0.3196 -1.5156
  996MOL0     H34402  10.331   5.524   8.562 -0.1017 -3.6984  0.4537
  996MOL0     H34403  10.393   5.598   8.360  0.6095 -0.8399  4.3703
  996MOL0     H34404  10.232   5.632   8.296  1.3380 -1.7717 -2.6765
  996MOL0     H34405  10.296   5.752   8.563  1.0147 -0.7876 -0.6890
  996MOL0     H34406  10.420   5.796   8.449 -0.3315  3.3124  3.1511
  996MOL0     H34407  10.230   5.949   8.470  2.3929 -0.3401 -1.9937
  996MOL0     H34408  10.126   5.823   8.422 -0.5428  1.6113 -1.0626
  996MOL0     H34409  10.212   5.863   8.191 -0.9102  0.9217 -0.0094
  996MOL0     H34410  10.189   6.007   8.260 -0.3897  0.2209 -1.1136
  996MOL0     H34411  10.384   6.173   8.305  0.3919 -0.5483  0.1934
  996MOL0     H34412  10.751   6.173   8.144  0.0163 -0.8122  0.5641
  996MOL0     H34413  10.617   6.283   8.107 -3.7596 -1.3774  0.1313
  996MOL0     H34414  10.719   6.389   8.281 -0.0185  1.7034 -0.3722
  996MOL0     H34415  10.561   6.332   8.316  0.9535  1.0352 -0.9557
  996MOL0     H34416  10.792   6.147   8.400 -1.6075 -2.7095  3.6413
  996MOL0     H34417  10.640   6.169   8.480 -0.6092  1.2558  1.7268
  996MOL0     H34418  10.836   6.399   8.473  0.5469  0.1681  0.6860
  996MOL0     H34419  10.849   6.281   8.593 -1.4317  0.9257  1.8284
  996MOL0     H34420  10.740   6.125   8.733 -2.9834 -4.8160 -0.9549
  996MOL0     H34421  10.643   6.066   8.956 -2.0434  0.1870  1.2309
  996MOL0     H34422  10.636   5.985   9.371  0.6024 -1.8152 -0.5138
  996MOL0     H34423  10.520   5.862   9.554 -0.6063  0.3725  0.2415
  996MOL0     H34424  10.145   5.616   9.587 -1.3340  0.2843 -0.5480
  996MOL0     H34425  10.184   5.637   9.415  0.2827  1.2900  0.8537
  996MOL0     H34426  10.292   5.448   9.477  1.2878  1.0635 -0.6217
  996MOL0     H34427  10.418   5.566   9.465 -1.1029  2.1930 -0.4095
  996MOL0     H34428  10.281   5.442   9.703 -1.1897  0.7813 -2.1086
  996MOL0     H34429  10.449   5.428   9.653  0.0048 -0.6872 -0.2401
  996MOL0     H34430  10.446   5.696   9.712  1.1899  0.1515  0.6438
  996MOL0     H34431  10.520   5.586   9.804  0.5656 -1.0528 -1.5422
  996MOL0     H34432  10.228   5.687   9.839  0.7733 -3.9028 -1.8668
  996MOL0     H34433  10.372   5.736   9.936 -0.8511  0.2082  1.6981
  996MOL0     H34434  10.169   5.589  10.036  0.5919  3.1876 -0.4460
  996MOL0     H34435  10.228   5.462   9.941  4.7881 -2.1566  0.5801
  996MOL0     H34436  10.305   5.541  10.197  0.3361 -0.2212  0.5622
  996MOL0     H34437  10.432   5.611  10.112 -0.4710  1.2960 -1.7432
  996MOL0     H34438  10.477   5.384  10.198 -0.2804  1.2541  0.9845
  996MOL0     H34439  10.342   5.310  10.099 -1.7452  0.6618 -0.9469
  996MOL0     H34440  10.150   5.893   9.342  0.3891 -2.3412 -0.4894
  996MOL0     H34441  10.264   6.019   9.155  0.9063  1.1474 -1.5820
  996MOL0     H34442  10.369   6.395   8.928  0.1585  0.6257 -1.2372
  996MOL0     H34443  10.459   6.462   8.736  3.7206  3.9206  1.4935
  996MOL0     H34444  10.529   4.935   8.300  1.0400 -2.9587 -1.6174
  996MOL0     H34445  10.508   4.700   8.211  0.1686  1.7730 -3.5041
  996MOL0     H34446  10.505   4.422   7.915 -1.0809  1.1049  1.9174
  996MOL0     H34447  10.556   4.177   7.860 -0.7783 -1.0757 -1.9373
  996MOL0     H34448  10.632   4.012   7.942  1.9941 -1.0289  2.0092
  996MOL0     H34449  10.543   3.918   7.812 -1.1511 -0.1979  0.2442
  996MOL0     H34450  10.484   3.747   7.987  1.6334  0.2654 -2.0901
  996MOL0     H34451  10.595   3.823   8.099 -1.1998 -1.1372  1.3497
  996MOL0     H34452  10.739   3.667   8.010  0.3295  0.1313 -0.7417
  996MOL0     H34453  10.770   3.813   7.915  2.8783 -2.2675 -1.9147
  996MOL0     H34454  10.577   3.586   7.843 -0.6618  0.5617  0.1057
  996MOL0     H34455  10.610   3.724   7.725 -0.5898 -0.6098 -1.4689
  996MOL0     H34456  10.925   3.457   7.636 -0.2176 -0.4760 -0.7487
  996MOL0     H34457  10.222   4.069   8.086 -0.0770 -0.3557 -1.3481
  996MOL0     H34458  10.166   4.394   8.264 -2.5981 -0.6594  3.1019
  996MOL0     H34459  10.069   4.360   8.139  1.1152  4.9490  3.1538
  996MOL0     H34460  10.129   4.221   8.256 -0.3538  0.2609 -0.7598
  997MOL0     O34461   6.749   5.650   7.076  0.2284 -0.1636  0.7597
  997MOL0     C34462   6.652   5.642   7.147  0.2450  0.2047  0.2069
  997MOL0     O34463   6.615   5.724   7.241  0.3931 -0.6514  0.0675
  997MOL0     C34464   6.701   5.824   7.284 -0.6012 -0.2657 -0.5932
  997MOL0     C34465   6.663   5.957   7.288 -0.5680  0.6794 -0.7592
  997MOL0     C34466   6.759   6.050   7.343 -1.1202  0.2408 -0.4294
  997MOL0     C34467   6.898   6.018   7.361  0.0879 -0.3547 -0.0682
  997MOL0     O34468   6.980   6.134   7.379 -0.0790  0.3534  0.2162
  997MOL0     C34469   7.097   6.110   7.459  0.4468  0.4373 -0.0402
  997MOL0     C34470   7.170   6.250   7.471 -0.0365 -0.8908  0.4670
  997MOL0     C34471   7.130   6.325   7.605  0.1942  0.1522 -0.5009
  997MOL0     C34472   7.226   6.284   7.720 -0.6184 -0.1037  0.1163
  997MOL0     C34473   7.186   6.340   7.856  1.1988 -0.7600 -0.1780
  997MOL0     C34474   7.203   6.490   7.881  0.1355  0.7125  0.2939
  997MOL0     C34475   7.188   6.519   8.030  0.6795 -0.9070  0.9110
  997MOL0     C34476   7.044   6.473   8.092  1.1524 -0.0899 -0.3357
  997MOL0     N34477   7.014   6.536   8.223  0.0730  0.4618  0.2973
  997MOL0     C34478   6.897   6.610   8.249 -1.2720  0.1627 -0.1645
  997MOL0     C34479   6.899   6.616   8.378 -0.0987  0.0669  0.3830
  997MOL0     C34480   6.796   6.668   8.469 -0.0410 -0.1563 -0.4245
  997MOL0     C34481   6.655   6.629   8.429 -0.5582 -0.1611  0.0650
  997MOL0     C34482   6.554   6.668   8.529  0.1637 -0.6909  0.4334
  997MOL0     C34483   6.531   6.828   8.527 -0.0227 -0.0579  0.4578
  997MOL0     O34484   6.597   6.904   8.427 -0.3813 -0.5769 -0.7481
  997MOL0     C34485   6.590   7.044   8.447  0.5125  0.1311  0.3868
  997MOL0     C34486   6.486   7.128   8.493 -0.2911 -0.2047 -0.0724
  997MOL0     C34487   6.499   7.271   8.493 -0.0961 -0.0566 -0.8542
  997MOL0     C34488   6.618   7.334   8.450 -0.2210 -0.0501 -0.1884
  997MOL0     C34489   6.625   7.475   8.445  0.7045 -0.2489  1.1325
  997MOL0     O34490   6.516   7.540   8.509 -1.0137 -0.4415  0.1168
  997MOL0     C34491   6.542   7.663   8.568  0.0835 -0.5267 -0.3579
  997MOL0     C34492   6.423   7.739   8.583 -0.4824  0.2883  0.0309
  997MOL0     C34493   6.424   7.858   8.649 -0.0494 -1.3680 -0.0378
  997MOL0     C34494   6.548   7.916   8.695 -0.2277 -0.5230 -0.4794
  997MOL0     O34495   6.562   8.044   8.744 -0.2050  0.2225  0.5951
  997MOL0     C34496   6.485   8.141   8.666  0.2670 -0.8823  0.7399
  997MOL0     C34497   6.546   8.286   8.675  0.2156 -0.6291  0.1832
  997MOL0     C34498   6.424   8.378   8.649 -0.1866 -0.0840  0.3834
  997MOL0     C34499   6.477   8.520   8.612 -0.1631 -0.8771 -0.3113
  997MOL0     C34500   6.369   8.614   8.561 -0.2425 -0.2352 -0.1471
  997MOL0     C34501   6.257   8.649   8.662  0.6342  0.0060 -0.7468
  997MOL0     C34502   6.298   8.722   8.797 -0.5392  0.3845  0.5876
  997MOL0     C34503   6.160   8.736   8.874 -1.2998 -0.1099  0.3781
  997MOL0    Cl34504   6.045   8.838   8.798  0.0514  0.1041  0.3705
  997MOL0     C34505   6.662   7.845   8.686 -0.1026 -0.5758 -0.4237
  997MOL0     C34506   6.655   7.720   8.618  0.2378  0.0257  0.5596
  997MOL0     O34507   6.719   7.532   8.390 -0.2132 -0.1600 -0.7957
  997MOL0     C34508   6.725   7.250   8.407 -0.3670  0.4737 -0.3705
  997MOL0     C34509   6.710   7.110   8.417 -0.0279 -0.0762 -1.0700
  997MOL0     N34510   7.020   6.570   8.425 -0.2241  0.3588 -0.3804
  997MOL0     N34511   7.082   6.506   8.334  1.0771 -0.3081 -0.5359
  997MOL0     C34512   6.937   5.879   7.352 -0.7367 -0.7287 -0.4699
  997MOL0     C34513   6.837   5.790   7.323  1.0080 -0.5847  0.3665
  997MOL0     C34514   6.554   5.541   7.103 -0.5731  0.1144 -1.4956
  997MOL0     C34515   6.576   5.415   7.157 -0.0159  0.8914 -0.0185
  997MOL0     C34516   6.476   5.318   7.136 -0.4526  0.7989  0.0556
  997MOL0     C34517   6.367   5.338   7.061  1.1895  0.5103  0.3784
  997MOL0     O34518   6.268   5.244   7.065  0.2127 -0.8670  1.0488
  997MOL0     C34519   6.284   5.112   6.998 -0.0055 -0.1360  0.5556
  997MOL0     C34520   6.418   5.047   7.002 -0.4480  0.3107 -0.0776
  997MOL0     C34521   6.432   4.920   6.920  0.0965  0.7459  0.5572
  997MOL0     C34522   6.572   4.906   6.860  0.3917 -0.4470  0.0244
  997MOL0     C34523   6.672   4.909   6.972  1.4765  0.2429  0.4774
  997MOL0     C34524   6.755   4.923   7.058 -0.9392 -0.6832 -0.5784
  997MOL0     C34525   6.347   5.465   7.015  0.4016  0.3453  0.4833
  997MOL0     C34526   6.433   5.569   7.033 -0.5225 -0.5499 -0.7270
  997MOL0     C34527   6.385   5.699   6.993 -0.8835 -1.1660  0.8283
  997MOL0     H34528   6.556   5.969   7.271 -0.6551 -1.8348 -2.4886
  997MOL0     H34529   6.725   6.150   7.369  1.8419  0.8159  1.6885
  997MOL0     H34530   7.065   6.053   7.547 -0.1745 -1.4548 -1.4278
  997MOL0     H34531   7.148   6.041   7.391 -0.2970 -2.5328  2.1791
  997MOL0     H34532   7.143   6.308   7.382 -1.5414 -1.7578  0.3309
  997MOL0     H34533   7.278   6.234   7.466  0.0109 -0.4684  0.0310
  997MOL0     H34534   7.030   6.296   7.639 -0.1211  2.0172  0.2536
  997MOL0     H34535   7.143   6.432   7.588  3.1240  0.5610  3.0510
  997MOL0     H34536   7.242   6.176   7.727  1.5962  0.2898  2.4933
  997MOL0     H34537   7.321   6.328   7.690 -0.7246  1.7696  2.2478
  997MOL0     H34538   7.082   6.317   7.878  1.1702  1.0316  2.0083
  997MOL0     H34539   7.238   6.277   7.929  0.1523 -1.1193  0.2624
  997MOL0     H34540   7.305   6.514   7.851  0.5129  0.5313  1.3826
  997MOL0     H34541   7.131   6.550   7.825  4.1539  5.5595 -0.4075
  997MOL0     H34542   7.198   6.627   8.044 -1.4564 -0.6823  1.0636
  997MOL0     H34543   7.273   6.479   8.085  0.8283 -1.0791  0.5568
  997MOL0     H34544   6.969   6.515   8.025 -0.6033 -2.9836 -0.3304
  997MOL0     H34545   7.014   6.369   8.081  0.4081  0.2822 -2.1383
  997MOL0     H34546   6.817   6.654   8.191 -0.3146 -0.0073 -1.6752
  997MOL0     H34547   6.818   6.622   8.567 -4.1751  0.4329  0.9867
  997MOL0     H34548   6.803   6.777   8.469 -0.6629 -0.0990  0.3910
  997MOL0     H34549   6.627   6.665   8.330 -2.5872 -0.7944  0.3474
  997MOL0     H34550   6.649   6.520   8.417  3.0428 -0.1751 -3.2133
  997MOL0     H34551   6.584   6.641   8.631 -0.2082  1.8869  1.3000
  997MOL0     H34552   6.463   6.619   8.493 -0.3163  1.1554 -0.9977
  997MOL0     H34553   6.555   6.858   8.629  0.4552  1.4125 -0.0553
  997MOL0     H34554   6.426   6.853   8.512  0.3759  2.8536  1.7230
  997MOL0     H34555   6.396   7.089   8.539  0.1184  1.4401  2.2780
  997MOL0     H34556   6.422   7.340   8.526  2.4860  2.9745 -0.7279
  997MOL0     H34557   6.325   7.704   8.552 -1.8498  2.2212  1.8516
  997MOL0     H34558   6.336   7.920   8.663  0.3164 -0.0422 -2.8350
  997MOL0     H34559   6.470   8.114   8.561 -3.6601 -2.3916  1.5099
  997MOL0     H34560   6.382   8.131   8.703 -0.4743 -4.0441 -1.8069
  997MOL0     H34561   6.598   8.294   8.771  0.5597 -0.0400 -0.0480
  997MOL0     H34562   6.613   8.295   8.589  1.2044 -0.5853  0.9303
  997MOL0     H34563   6.367   8.331   8.569  0.0792  0.6163 -0.2275
  997MOL0     H34564   6.357   8.381   8.735 -0.9365 -2.8070 -0.0141
  997MOL0     H34565   6.542   8.512   8.525  2.0262 -1.3347  1.2686
  997MOL0     H34566   6.540   8.554   8.695  2.0192 -2.8764 -1.0138
  997MOL0     H34567   6.322   8.563   8.477  1.5315 -4.7405  1.2928
  997MOL0     H34568   6.420   8.708   8.540  1.3259 -0.9938  0.1370
  997MOL0     H34569   6.190   8.705   8.597 -0.7814 -0.4320  0.3014
  997MOL0     H34570   6.212   8.556   8.698  2.2352  0.1656  1.8936
  997MOL0     H34571   6.321   8.824   8.764 -1.9051  0.5418  0.0191
  997MOL0     H34572   6.370   8.670   8.859 -1.6183 -0.0073  1.5451
  997MOL0     H34573   6.134   8.631   8.893  2.6931 -1.1783  0.9650
  997MOL0     H34574   6.184   8.778   8.972  2.4287  0.9597 -0.8267
  997MOL0     H34575   6.761   7.882   8.710  0.0319  1.0551 -3.1136
  997MOL0     H34576   6.748   7.669   8.593  1.9165  3.9128 -2.2891
  997MOL0     H34577   6.824   7.289   8.383  0.3553 -0.3077  1.1659
  997MOL0     H34578   6.800   7.053   8.397 -1.5527 -2.0147 -2.8705
  997MOL0     H34579   7.040   5.853   7.373 -1.3818 -0.4476  4.2566
  997MOL0     H34580   6.871   5.689   7.308  2.9870 -0.1077  1.2752
  997MOL0     H34581   6.660   5.400   7.223 -1.7507  3.2027  2.9599
  997MOL0     H34582   6.484   5.230   7.199  1.3180  1.3458  0.6579
  997MOL0     H34583   6.269   5.134   6.891 -0.5986  2.3944  1.0943
  997MOL0     H34584   6.218   5.033   7.036 -1.5588 -1.1582 -3.6193
  997MOL0     H34585   6.444   5.028   7.106 -0.9146  2.5941  0.5192
  997MOL0     H34586   6.502   5.110   6.969 -0.3779  0.7851  0.9746
  997MOL0     H34587   6.355   4.914   6.843 -0.9163 -4.2983  1.5946
  997MOL0     H34588   6.407   4.837   6.988  1.4291 -0.3654 -0.2517
  997MOL0     H34589   6.566   4.822   6.791 -4.1510 -2.9520  2.9550
  997MOL0     H34590   6.592   4.987   6.789 -1.1161  0.4734  0.5888
  997MOL0     H34591   6.829   4.924   7.134 -0.1081  1.4036 -1.3430
  997MOL0     H34592   6.251   5.486   6.969 -0.5545 -2.5828  0.9226
  997MOL0     H34593   6.419   5.780   7.059  1.4951 -1.3136 -0.0833
  997MOL0     H34594   6.422   5.717   6.892 -2.2669  1.3584  0.6828
  997MOL0     H34595   6.276   5.702   7.000 -1.3073 -3.5310 -2.6944
  998MOL0     O34596   1.238  10.752  10.847  0.0495 -0.3182  0.2312
  998MOL0     C34597   1.313  10.655  10.878  0.7072 -0.0301 -0.0368
  998MOL0     O34598   1.300  10.571  10.988 -0.3628  0.4169  1.2098
  998MOL0     C34599   1.172  10.563  11.041  0.3155  0.2241 -0.8469
  998MOL0     C34600   1.050  10.600  10.976  0.0725  0.0729 -0.5929
  998MOL0     C34601   0.929  10.595  11.054 -0.6570  0.2166 -0.2764
  998MOL0     C34602   0.933  10.569  11.193  0.1170 -0.4089 -0.2715
  998MOL0     O34603   0.814  10.599  11.257  0.4555  0.8891  0.0299
  998MOL0     C34604   0.796  10.585  11.392  1.0645  0.3486 -0.1401
  998MOL0     C34605   0.656  10.636  11.449 -0.1095  0.5305  0.7328
  998MOL0     C34606   0.610  10.767  11.391  0.2198 -0.2773 -0.9512
  998MOL0     C34607   0.542  10.766  11.251  0.5818 -0.9921 -0.6364
  998MOL0     C34608   0.459  10.896  11.236  0.3828 -0.0483 -0.1736
  998MOL0     C34609   0.551  11.017  11.224  0.0111 -0.4001  0.0889
  998MOL0     C34610   0.474  11.152  11.226  0.0927  0.1593 -0.1885
  998MOL0     C34611   0.573  11.272  11.227 -0.2613  0.2903  0.4859
  998MOL0     N34612   0.623  11.303  11.088  0.2858  0.5261  0.2474
  998MOL0     C34613   0.535  11.363  11.004  0.4352 -0.1123  0.1987
  998MOL0     C34614   0.613  11.424  10.923 -0.5373 -0.2062  0.2219
  998MOL0     C34615   0.563  11.504  10.811 -0.8672 -0.2605  0.0394
  998MOL0     C34616   0.528  11.640  10.863  0.3870  0.3807 -0.1950
  998MOL0     C34617   0.508  11.746  10.758 -0.1943 -0.2247 -0.1611
  998MOL0     C34618   0.490  11.883  10.831 -0.8814  0.3028  0.6000
  998MOL0     O34619   0.371  11.908  10.903 -0.2507 -0.8713 -0.1860
  998MOL0     C34620   0.253  11.931  10.835  0.8485  0.3959 -0.4179
  998MOL0     C34621   0.238  11.908  10.695  0.6130 -0.1846  0.3829
  998MOL0     C34622   0.112  11.910  10.637  0.9129 -0.2958 -0.2736
  998MOL0     C34623  -0.002  11.945  10.714 -0.0703  0.4694 -0.4897
  998MOL0     C34624  -0.129  11.965  10.653  0.1110  0.6126 -0.5847
  998MOL0     O34625  -0.243  11.976  10.741  0.1336  0.7649  0.3072
  998MOL0     C34626  -0.371  12.020  10.695 -0.9981  0.1780 -0.7964
  998MOL0     C34627  -0.484  12.009  10.781  1.0354  0.0636 -0.5424
  998MOL0     C34628  -0.602  12.083  10.749 -1.0693  0.5035  0.2793
  998MOL0     C34629  -0.611  12.161  10.638 -0.4334 -0.5095  0.1458
  998MOL0     O34630  -0.724  12.239  10.613  0.0495 -0.1559 -0.6029
  998MOL0     C34631  -0.828  12.270  10.713 -0.8331 -0.1121  0.0045
  998MOL0     C34632  -0.958  12.343  10.662 -0.1896 -0.0172 -0.7533
  998MOL0     C34633  -1.047  12.263  10.566  0.5410  0.0956 -0.4903
  998MOL0     C34634  -1.037  12.308  10.417 -1.5208 -0.2429  0.1622
  998MOL0     C34635  -1.126  12.237  10.321  0.5791 -0.3774 -0.6362
  998MOL0     C34636  -1.119  12.279  10.171 -0.0540  0.5456 -0.0877
  998MOL0     C34637  -1.012  12.203  10.080 -0.0033  0.1261 -0.1309
  998MOL0     C34638  -0.867  12.234  10.118  0.8228  0.2659 -0.6345
  998MOL0    Cl34639  -0.762  12.245   9.968 -0.2008 -0.0551 -0.2936
  998MOL0     C34640  -0.507  12.176  10.558  0.3060  0.1606 -0.1393
  998MOL0     C34641  -0.377  12.112  10.593  0.0969  0.1846  0.8356
  998MOL0     O34642  -0.136  11.958  10.530  0.3492 -0.7331 -0.1688
  998MOL0     C34643   0.015  11.963  10.847 -0.0510 -0.1669  0.1446
  998MOL0     C34644   0.144  11.947  10.911 -0.2719 -0.5342  0.6422
  998MOL0     N34645   0.745  11.399  10.952 -0.2739 -0.7977  1.1222
  998MOL0     N34646   0.745  11.334  11.055  0.1915  0.3520 -0.4125
  998MOL0     C34647   1.055  10.534  11.248 -0.2651 -0.1404 -1.1623
  998MOL0     C34648   1.174  10.532  11.173  0.3720 -0.0956 -0.4434
  998MOL0     C34649   1.417  10.647  10.784  0.1309  0.7171  0.8194
  998MOL0     C34650   1.411  10.721  10.658  0.7116  0.9334 -0.0119
  998MOL0     C34651   1.507  10.710  10.560  0.2721 -0.9709  0.3735
  998MOL0     C34652   1.614  10.618  10.582  0.5607 -0.0198  0.0053
  998MOL0     O34653   1.700  10.608  10.480  0.1273 -0.0020 -0.2769
  998MOL0     C34654   1.770  10.485  10.468  0.1776  0.6058  0.5180
  998MOL0     C34655   1.822  10.434  10.329 -0.6563  0.0455  0.7736
  998MOL0     C34656   1.867  10.549  10.240 -0.4280 -0.5424  0.4885
  998MOL0     C34657   2.013  10.584  10.272 -0.6280 -0.0556 -0.2927
  998MOL0     C34658   2.078  10.670  10.175 -0.2584  0.0078  0.7208
  998MOL0     C34659   2.121  10.759  10.103 -0.7615  0.1783  0.2151
  998MOL0     C34660   1.624  10.552  10.709 -0.2601 -0.5886  0.5806
  998MOL0     C34661   1.537  10.573  10.814  0.4549  0.8172  0.2310
  998MOL0     C34662   1.568  10.482  10.931  0.0092  0.1843  0.2235
  998MOL0     H34663   1.031  10.618  10.871 -1.1561 -0.7528 -0.5346
  998MOL0     H34664   0.837  10.624  11.004 -2.5525 -1.6111  1.9232
  998MOL0     H34665   0.815  10.482  11.423  0.6301  0.6853  1.3103
  998MOL0     H34666   0.882  10.647  11.417  0.6761  0.6969  0.3509
  998MOL0     H34667   0.670  10.633  11.557  1.0058  3.9089  0.8095
  998MOL0     H34668   0.585  10.559  11.417  2.6563 -2.1749  0.6651
  998MOL0     H34669   0.701  10.829  11.390 -0.7940  1.2818 -1.0585
  998MOL0     H34670   0.549  10.815  11.468  1.0327  1.7124 -1.4849
  998MOL0     H34671   0.625  10.763  11.180  1.3283  0.8505  0.0880
  998MOL0     H34672   0.478  10.679  11.236 -1.4829  0.4360 -0.4996
  998MOL0     H34673   0.393  10.892  11.149  0.5229  2.8747 -0.5180
  998MOL0     H34674   0.387  10.924  11.314  0.8438 -0.2939  0.3437
  998MOL0     H34675   0.628  11.018  11.301 -0.7984 -0.3587  0.9160
  998MOL0     H34676   0.608  11.006  11.131  0.6898  3.1694 -0.0662
  998MOL0     H34677   0.396  11.169  11.301 -0.2948  0.3491 -0.6282
  998MOL0     H34678   0.419  11.147  11.131  1.4184 -0.9360 -0.9432
  998MOL0     H34679   0.523  11.362  11.265 -1.9753 -0.3075 -0.2298
  998MOL0     H34680   0.658  11.243  11.289 -0.0554  0.8349  0.4644
  998MOL0     H34681   0.427  11.355  10.989  0.2413 -0.7804  1.6886
  998MOL0     H34682   0.642  11.510  10.737 -1.8300  0.8676 -0.9469
  998MOL0     H34683   0.473  11.461  10.765 -1.3880 -0.7016  1.3979
  998MOL0     H34684   0.441  11.627  10.928  1.0353 -1.3570  0.3848
  998MOL0     H34685   0.611  11.683  10.920  1.0970  1.1663 -1.7680
  998MOL0     H34686   0.414  11.713  10.711  1.1322 -1.2724 -2.2438
  998MOL0     H34687   0.578  11.752  10.675 -0.0762  0.6627 -0.0069
  998MOL0     H34688   0.500  11.965  10.760 -1.9529 -1.1045 -1.2766
  998MOL0     H34689   0.568  11.892  10.907  0.1810  0.3287 -0.4643
  998MOL0     H34690   0.316  11.867  10.631 -1.8027  0.8450 -3.5755
  998MOL0     H34691   0.102  11.881  10.533 -0.1122 -1.4663  0.1271
  998MOL0     H34692  -0.482  11.946  10.869 -1.7057 -0.7613 -0.9773
  998MOL0     H34693  -0.684  12.073  10.820 -2.2752 -0.0775 -1.1337
  998MOL0     H34694  -0.869  12.176  10.750  0.3465 -0.1677  1.2678
  998MOL0     H34695  -0.783  12.326  10.796  4.1072 -3.6133  0.1083
  998MOL0     H34696  -1.010  12.368  10.755  1.6317  3.2337 -0.4764
  998MOL0     H34697  -0.937  12.444  10.624  3.0209 -1.0112 -1.9335
  998MOL0     H34698  -1.010  12.160  10.571  4.7961  1.4486 -0.7153
  998MOL0     H34699  -1.153  12.269  10.594  0.4858  0.0917 -0.6926
  998MOL0     H34700  -0.939  12.278  10.379  0.8706  1.9962  3.8825
  998MOL0     H34701  -1.052  12.415  10.401  0.7440  0.0154 -0.6889
  998MOL0     H34702  -1.229  12.255  10.353 -0.1243  0.4151 -3.0706
  998MOL0     H34703  -1.100  12.131  10.326  3.3208  0.2823  2.3868
  998MOL0     H34704  -1.220  12.258  10.134  0.0516 -2.7624  1.2648
  998MOL0     H34705  -1.102  12.386  10.153 -1.8461  0.5814 -1.9516
  998MOL0     H34706  -1.019  12.248   9.981  1.8448  1.1983  0.1828
  998MOL0     H34707  -1.037  12.097  10.080 -2.7033  0.6477  2.0178
  998MOL0     H34708  -0.856  12.329  10.170 -0.7259 -0.2105  0.6369
  998MOL0     H34709  -0.833  12.150  10.180 -0.1539  1.0936  1.0914
  998MOL0     H34710  -0.513  12.257  10.486  2.3122  0.6691  0.1948
  998MOL0     H34711  -0.290  12.136  10.532 -0.5769 -0.5713 -0.4743
  998MOL0     H34712  -0.071  11.996  10.905 -0.4433  1.3585 -1.2160
  998MOL0     H34713   0.148  11.947  11.019  2.0915  1.8564  0.6416
  998MOL0     H34714   1.061  10.510  11.353  3.2088 -3.6485 -1.9147
  998MOL0     H34715   1.265  10.494  11.219 -0.4503 -1.5636  0.0476
  998MOL0     H34716   1.327  10.785  10.633  0.1485 -0.0784 -0.7825
  998MOL0     H34717   1.500  10.779  10.476  0.2179  0.5617  1.5931
  998MOL0     H34718   1.702  10.407  10.504  1.4054 -0.5508  0.3618
  998MOL0     H34719   1.858  10.479  10.532  0.4561  0.0245  0.0827
  998MOL0     H34720   1.746  10.369  10.284 -0.6878 -1.5153  2.8986
  998MOL0     H34721   1.904  10.364  10.349  1.9388  2.5147 -0.5716
  998MOL0     H34722   1.802  10.636  10.249  2.0223  1.3110  1.5496
  998MOL0     H34723   1.852  10.513  10.138 -0.1367 -0.0737  0.2767
  998MOL0     H34724   2.016  10.649  10.360 -2.8338  2.1868 -1.7393
  998MOL0     H34725   2.061  10.487  10.290 -1.5623 -0.0177  3.1190
  998MOL0     H34726   2.169  10.824  10.032  1.2810  0.4536  1.7461
  998MOL0     H34727   1.712  10.490  10.717  1.3819  1.3987 -1.0781
  998MOL0     H34728   1.675  10.458  10.936 -0.1504 -0.8504 -0.8137
  998MOL0     H34729   1.540  10.535  11.023  0.1779 -0.7219  0.8122
  998MOL0     H34730   1.528  10.381  10.917 -1.7904  0.6665  1.5718
  999MOL0     O34731  11.339   1.413   4.404 -0.6699  0.1917  0.7003
  999MOL0     C34732  11.294   1.419   4.293  0.4619 -0.1752  0.4136
  999MOL0     O34733  11.371   1.395   4.180  0.1094 -0.1567 -0.3161
  999MOL0     C34734  11.512   1.355   4.193 -0.9136 -0.5439 -0.5985
  999MOL0     C34735  11.588   1.389   4.082  0.4348  0.3293 -0.6319
  999MOL0     C34736  11.716   1.340   4.064 -0.0855  0.4531 -0.3978
  999MOL0     C34737  11.772   1.251   4.160  0.9675  0.0030 -0.7419
  999MOL0     O34738  11.890   1.188   4.141 -0.0226  0.1457  0.0896
  999MOL0     C34739  11.960   1.193   4.017  0.3717 -0.3722 -0.4897
  999MOL0     C34740  12.060   1.076   4.034 -0.0697  1.0233 -0.0756
  999MOL0     C34741  12.162   1.074   3.911  0.0117  0.0498  0.7954
  999MOL0     C34742  12.096   1.036   3.765 -0.1417 -0.7450 -0.4599
  999MOL0     C34743  12.179   1.099   3.649 -0.8175 -1.1756  1.1455
  999MOL0     C34744  12.323   1.038   3.632  1.0256 -0.1939  0.2685
  999MOL0     C34745  12.408   1.109   3.525 -0.1774  0.1446  0.0298
  999MOL0     C34746  12.401   1.034   3.396  0.7319  1.0220  0.5339
  999MOL0     N34747  12.475   1.109   3.295  0.2982  0.3142 -0.5683
  999MOL0     C34748  12.609   1.096   3.270  0.3220 -0.0015 -0.7154
  999MOL0     C34749  12.638   1.166   3.159  0.3313 -0.8385 -0.8357
  999MOL0     C34750  12.761   1.197   3.082 -0.5252 -0.6658 -0.4730
  999MOL0     C34751  12.858   1.079   3.074  0.7431 -0.0505 -0.3420
  999MOL0     C34752  12.802   0.970   2.987  0.2403  0.1441  0.1656
  999MOL0     C34753  12.882   0.838   2.981  0.1515 -0.5923  0.2370
  999MOL0     O34754  13.021   0.869   2.932  0.5987  0.5355 -0.3065
  999MOL0     C34755  13.062   0.842   2.802  0.2015  0.7166  0.5975
  999MOL0     C34756  12.976   0.850   2.693 -0.8198 -0.2183 -1.0284
  999MOL0     C34757  13.008   0.801   2.572  0.8140 -0.1532 -0.2532
  999MOL0     C34758  13.136   0.746   2.550 -0.7265 -0.4768  0.2688
  999MOL0     C34759  13.182   0.724   2.414 -0.4433  0.3955  1.4947
  999MOL0     O34760  13.148   0.805   2.309 -0.1595  0.0574  0.0305
  999MOL0     C34761  13.162   0.777   2.176  0.6654 -0.2903 -0.0471
  999MOL0     C34762  13.171   0.655   2.114 -0.6025 -0.6763 -0.1690
  999MOL0     C34763  13.192   0.643   1.973  0.0559 -0.2696 -1.2256
  999MOL0     C34764  13.210   0.758   1.898  0.2887  0.2392 -0.1383
  999MOL0     O34765  13.227   0.738   1.764 -1.1932  0.0810  0.5603
  999MOL0     C34766  13.319   0.833   1.692  0.5214 -0.3418  0.7825
  999MOL0     C34767  13.371   0.771   1.563  0.3118  0.4324  0.5503
  999MOL0     C34768  13.267   0.718   1.464  0.3767  0.5081 -0.2920
  999MOL0     C34769  13.332   0.678   1.329  0.3603 -0.4304 -0.1513
  999MOL0     C34770  13.216   0.643   1.234 -0.5079  0.0725 -0.1977
  999MOL0     C34771  13.169   0.762   1.147  0.6671  0.0149 -0.3429
  999MOL0     C34772  13.074   0.721   1.023 -0.5832  0.3957 -1.2574
  999MOL0     C34773  13.054   0.852   0.952 -0.6872 -0.4537 -0.3815
  999MOL0    Cl34774  13.181   0.872   0.812  0.4616 -0.0508 -0.1488
  999MOL0     C34775  13.181   0.881   1.960 -0.3373 -0.2452 -0.1368
  999MOL0     C34776  13.161   0.882   2.097 -0.1787 -0.8061 -0.6831
  999MOL0     O34777  13.261   0.621   2.405  0.1273 -0.9242  0.2898
  999MOL0     C34778  13.223   0.733   2.657 -0.0929 -0.8024  0.2402
  999MOL0     C34779  13.182   0.779   2.787 -0.0320 -0.7058  0.7081
  999MOL0     N34780  12.516   1.236   3.119  0.0018 -0.1474 -0.0364
  999MOL0     N34781  12.415   1.185   3.195 -0.1069 -0.3220  0.3818
  999MOL0     C34782  11.702   1.222   4.282 -0.0463 -0.5281  0.2198
  999MOL0     C34783  11.572   1.278   4.291 -0.0773  0.1197  0.3411
  999MOL0     C34784  11.154   1.455   4.275 -0.0341  0.4089 -0.3873
  999MOL0     C34785  11.077   1.370   4.204  0.6914 -0.2983  0.5347
  999MOL0     C34786  10.938   1.393   4.202  0.2731 -0.2494  0.4188
  999MOL0     C34787  10.880   1.502   4.253  0.7120 -0.2999  0.1296
  999MOL0     O34788  10.750   1.529   4.237 -0.4653 -0.0831  0.0928
  999MOL0     C34789  10.652   1.444   4.301  0.3471  0.3902  0.5730
  999MOL0     C34790  10.667   1.451   4.456  0.1347  0.8731 -0.4584
  999MOL0     C34791  10.577   1.547   4.531 -0.6654 -0.5883  0.3262
  999MOL0     C34792  10.598   1.693   4.490  0.1011  0.2633  0.0105
  999MOL0     C34793  10.543   1.797   4.585 -0.4113  0.6220 -0.6886
  999MOL0     C34794  10.489   1.883   4.657 -0.0088  0.3072 -0.5654
  999MOL0     C34795  10.963   1.593   4.315  0.3203 -0.1241 -0.3675
  999MOL0     C34796  11.096   1.563   4.339 -0.5029  0.0147  0.7880
  999MOL0     C34797  11.181   1.646   4.437 -0.3016 -0.4296  0.4740
  999MOL0     H34798  11.549   1.449   3.999 -1.4524  2.4248  1.6122
  999MOL0     H34799  11.770   1.375   3.977  3.9826  0.7080  1.9542
  999MOL0     H34800  11.895   1.166   3.934 -0.4887  1.1196 -0.3315
  999MOL0     H34801  12.017   1.284   3.999 -0.8768  0.8180  1.2728
  999MOL0     H34802  12.011   0.979   4.046 -3.1178  2.4595  0.2400
  999MOL0     H34803  12.114   1.098   4.127 -1.6248  1.7262  0.7027
  999MOL0     H34804  12.244   1.009   3.944  0.7181 -0.6465 -1.9926
  999MOL0     H34805  12.201   1.175   3.900  1.8768 -0.6777  0.2755
  999MOL0     H34806  12.080   0.929   3.753 -2.0952 -0.4100 -1.1841
  999MOL0     H34807  11.999   1.085   3.758 -0.0933 -0.7440 -1.2809
  999MOL0     H34808  12.122   1.087   3.556 -0.3130  0.5648  0.5830
  999MOL0     H34809  12.185   1.203   3.679  2.1396 -0.7985 -0.3476
  999MOL0     H34810  12.369   1.048   3.731  1.0733 -1.1811  0.3567
  999MOL0     H34811  12.314   0.933   3.603  1.7820  0.2430 -1.7085
  999MOL0     H34812  12.511   1.136   3.550  0.0949  0.6163 -1.4774
  999MOL0     H34813  12.365   1.209   3.515  0.8615  0.5834 -0.1536
  999MOL0     H34814  12.436   0.931   3.387 -3.1883 -0.4753  0.5474
  999MOL0     H34815  12.298   1.025   3.361  1.3071 -1.2678 -0.7276
  999MOL0     H34816  12.679   1.050   3.338 -1.5153 -0.6362  0.8350
  999MOL0     H34817  12.722   1.221   2.982 -2.4382  0.6666  0.5341
  999MOL0     H34818  12.808   1.285   3.126  1.4467 -0.0683 -3.4878
  999MOL0     H34819  12.957   1.110   3.039  1.4616  0.9744  2.4211
  999MOL0     H34820  12.876   1.025   3.168 -3.1387 -1.5035 -0.2486
  999MOL0     H34821  12.798   1.014   2.887 -0.3069  1.6748  0.8284
  999MOL0     H34822  12.698   0.952   3.018 -0.1490  0.7535 -0.7525
  999MOL0     H34823  12.840   0.773   2.904 -0.8661  1.4807 -1.0569
  999MOL0     H34824  12.898   0.793   3.079  2.4286  0.1053  0.2385
  999MOL0     H34825  12.883   0.898   2.723  0.4067  2.4353 -1.1257
  999MOL0     H34826  12.936   0.799   2.491 -1.1836  0.7577  1.3963
  999MOL0     H34827  13.179   0.566   2.175  0.0127  0.5817  1.6588
  999MOL0     H34828  13.198   0.538   1.944  1.3738 -0.5097 -0.1568
  999MOL0     H34829  13.266   0.923   1.661  1.7206 -0.0226 -0.4405
  999MOL0     H34830  13.405   0.848   1.758 -0.0936 -0.3630  1.6144
  999MOL0     H34831  13.438   0.840   1.511  1.4032  0.1695  1.5953
  999MOL0     H34832  13.429   0.687   1.600 -0.5462  0.9356  3.2394
  999MOL0     H34833  13.213   0.629   1.497 -0.6226  1.2366  0.0896
  999MOL0     H34834  13.189   0.792   1.441  1.3505  1.1403 -1.6630
  999MOL0     H34835  13.389   0.587   1.350 -1.5519 -1.1519  2.4957
  999MOL0     H34836  13.390   0.761   1.288 -0.5139 -0.0290 -0.5976
  999MOL0     H34837  13.131   0.586   1.273 -0.0337  0.4921  1.5201
  999MOL0     H34838  13.257   0.571   1.163 -0.4588 -0.6486  0.5470
  999MOL0     H34839  13.118   0.840   1.205  1.0198 -0.4602  0.6328
  999MOL0     H34840  13.262   0.804   1.107  0.6397  1.3105  0.8957
  999MOL0     H34841  12.978   0.681   1.056  0.2497 -1.7922 -1.3398
  999MOL0     H34842  13.133   0.658   0.955  1.0877  0.5198 -0.0006
  999MOL0     H34843  12.960   0.842   0.896 -3.1158  1.4053  2.9697
  999MOL0     H34844  13.037   0.944   1.009  1.6412  0.0763 -0.4589
  999MOL0     H34845  13.185   0.969   1.898  1.7558 -1.6415 -2.1611
  999MOL0     H34846  13.159   0.981   2.142 -0.3518 -0.8774 -0.5325
  999MOL0     H34847  13.321   0.687   2.648 -0.1619 -1.2645  1.5054
  999MOL0     H34848  13.238   0.769   2.880 -2.0289  1.1255  2.2031
  999MOL0     H34849  11.752   1.170   4.363 -1.1406  0.1646  1.3722
  999MOL0     H34850  11.515   1.278   4.383 -1.8850  1.6276 -0.6864
  999MOL0     H34851  11.102   1.288   4.137  1.1338  1.7262 -1.9684
  999MOL0     H34852  10.868   1.326   4.153  1.0901  1.4086 -3.3843
  999MOL0     H34853  10.665   1.342   4.266 -0.9136  0.7371 -1.0327
  999MOL0     H34854  10.558   1.484   4.262  0.7168 -0.8335 -1.7764
  999MOL0     H34855  10.773   1.452   4.483  0.4528 -1.4446 -1.3179
  999MOL0     H34856  10.642   1.354   4.501  2.5421 -0.2700 -1.4101
  999MOL0     H34857  10.601   1.550   4.637 -2.7582  1.0665  0.8321
  999MOL0     H34858  10.473   1.513   4.527 -0.8000 -0.0921 -0.7751
  999MOL0     H34859  10.707   1.692   4.476  0.4541 -1.2011  2.2713
  999MOL0     H34860  10.563   1.716   4.389  2.2992  0.1812 -0.8433
  999MOL0     H34861  10.432   1.968   4.686  0.2335  0.6119 -0.9647
  999MOL0     H34862  10.908   1.674   4.361  1.5896  0.0630  0.8963
  999MOL0     H34863  11.121   1.728   4.477 -1.1024 -0.4953 -0.5200
  999MOL0     H34864  11.204   1.574   4.516  0.3499 -2.6045 -1.5750
  999MOL0     H34865  11.280   1.671   4.396  0.2441 -2.5185  0.4056
 1000MOL0     O34866   2.296   0.670   5.270  0.1068  0.3855  0.9533
 1000MOL0     C34867   2.330   0.561   5.222  0.7028  0.5183  0.1497
 1000MOL0     O34868   2.397   0.545   5.106  0.6881  0.1367 -0.6799
 1000MOL0     C34869   2.396   0.640   4.998 -0.0921  0.4325  0.1050
 1000MOL0     C34870   2.301   0.744   4.971 -0.1245 -0.4062  0.1668
 1000MOL0     C34871   2.337   0.832   4.870  0.4832  0.2210  0.6720
 1000MOL0     C34872   2.444   0.804   4.782 -0.5748  0.2638 -0.3141
 1000MOL0     O34873   2.472   0.881   4.672  0.2817  0.1121 -0.3544
 1000MOL0     C34874   2.474   0.813   4.553 -0.7052 -0.7151  0.2461
 1000MOL0     C34875   2.483   0.914   4.439 -0.6200 -0.7723 -1.2250
 1000MOL0     C34876   2.355   1.004   4.441  1.2152 -0.1269 -0.9772
 1000MOL0     C34877   2.316   1.055   4.300  0.2276 -0.4796  0.2718
 1000MOL0     C34878   2.389   1.187   4.275 -0.7981 -0.3444 -0.7664
 1000MOL0     C34879   2.333   1.244   4.146  0.1031 -0.7749  0.2796
 1000MOL0     C34880   2.341   1.150   4.027 -0.2471  0.3594  0.8222
 1000MOL0     C34881   2.326   1.225   3.886 -0.2907  0.0719 -0.6992
 1000MOL0     N34882   2.185   1.242   3.842 -0.3729 -1.3867 -0.5658
 1000MOL0     C34883   2.092   1.321   3.908  0.0556  0.2223  0.2685
 1000MOL0     C34884   1.967   1.286   3.855  0.5636  0.8384  0.9695
 1000MOL0     C34885   1.840   1.336   3.905  0.9526 -1.0249  0.7329
 1000MOL0     C34886   1.795   1.465   3.828  0.8684  0.2677  0.2074
 1000MOL0     C34887   1.636   1.485   3.818 -0.0115  0.0263  0.3919
 1000MOL0     C34888   1.549   1.452   3.940  0.6544 -0.1457 -0.1756
 1000MOL0     O34889   1.412   1.478   3.908 -0.2932  0.1864 -0.0353
 1000MOL0     C34890   1.313   1.413   3.971  0.5805  1.2681 -0.6122
 1000MOL0     C34891   1.200   1.397   3.900 -0.4720  0.3595 -0.1777
 1000MOL0     C34892   1.092   1.331   3.956  0.1033  0.2539 -0.3864
 1000MOL0     C34893   1.112   1.273   4.082  0.2868 -0.1296 -0.1221
 1000MOL0     C34894   1.003   1.194   4.142 -0.6585  0.5912 -0.1159
 1000MOL0     O34895   1.033   1.124   4.256  0.6265 -0.5823  0.0048
 1000MOL0     C34896   0.926   1.065   4.313  0.1510 -0.5860  0.2224
 1000MOL0     C34897   0.868   1.116   4.435  0.9685 -0.4126  0.4077
 1000MOL0     C34898   0.756   1.052   4.496 -0.4553 -0.3764  0.2819
 1000MOL0     C34899   0.705   0.928   4.445 -0.6855  0.4435 -0.1478
 1000MOL0     O34900   0.604   0.855   4.498 -0.2217 -0.1310  0.7574
 1000MOL0     C34901   0.517   0.917   4.600 -0.9980  0.0479  0.3341
 1000MOL0     C34902   0.391   0.841   4.593 -0.4460 -0.8665  0.1034
 1000MOL0     C34903   0.273   0.929   4.636  0.2359 -0.0097  0.2510
 1000MOL0     C34904   0.165   0.848   4.702  0.4963 -0.0809 -0.0114
 1000MOL0     C34905   0.030   0.918   4.701 -0.5462  0.6664  0.3063
 1000MOL0     C34906  -0.031   0.930   4.563 -0.3500  0.5135  0.3367
 1000MOL0     C34907  -0.160   1.013   4.579  0.3852 -1.1080  0.8752
 1000MOL0     C34908  -0.220   1.030   4.447 -0.2664 -0.1017  0.2986
 1000MOL0    Cl34909  -0.296   0.877   4.382 -0.7336  0.7798  0.1753
 1000MOL0     C34910   0.757   0.887   4.322  0.6098  0.0395  0.5305
 1000MOL0     C34911   0.870   0.952   4.265 -0.0729 -0.7032 -0.4230
 1000MOL0     O34912   0.892   1.207   4.093  0.6580 -0.3809  0.2324
 1000MOL0     C34913   1.217   1.291   4.159 -0.1794  0.3666  1.1905
 1000MOL0     C34914   1.318   1.363   4.104 -1.3519  0.3851  0.4665
 1000MOL0     N34915   1.987   1.208   3.739  0.0831 -0.6204 -0.9246
 1000MOL0     N34916   2.116   1.191   3.738  0.2012  0.0432 -0.0592
 1000MOL0     C34917   2.527   0.694   4.803 -0.6293 -0.0056 -0.1927
 1000MOL0     C34918   2.500   0.610   4.906 -0.1519 -0.1833 -0.7576
 1000MOL0     C34919   2.317   0.440   5.302 -0.0143 -0.1553 -0.5627
 1000MOL0     C34920   2.310   0.442   5.444 -0.8844  0.7814  0.2280
 1000MOL0     C34921   2.332   0.327   5.529 -1.0452 -0.2147  0.0302
 1000MOL0     C34922   2.310   0.202   5.467  0.1510 -0.4676  0.6316
 1000MOL0     O34923   2.305   0.087   5.534 -0.1912  0.4840  0.2128
 1000MOL0     C34924   2.206   0.073   5.630 -0.2703  0.1052  0.4874
 1000MOL0     C34925   2.103  -0.023   5.575  0.2154  0.6488 -0.0394
 1000MOL0     C34926   2.029   0.004   5.446 -0.2433 -0.2650  0.6855
 1000MOL0     C34927   1.988  -0.140   5.393 -0.7207 -0.1900  0.2782
 1000MOL0     C34928   1.884  -0.139   5.287 -0.5494 -0.6476 -0.2964
 1000MOL0     C34929   1.799  -0.131   5.202 -0.9309  0.2871 -0.0210
 1000MOL0     C34930   2.298   0.208   5.330  0.3422  0.6089 -0.3999
 1000MOL0     C34931   2.291   0.318   5.239  1.1620  0.1363 -0.8716
 1000MOL0     C34932   2.293   0.292   5.090 -0.5577 -0.8978  0.2338
 1000MOL0     H34933   2.212   0.761   5.030 -0.9915 -3.3598 -0.1177
 1000MOL0     H34934   2.257   0.902   4.847 -0.9659 -1.7466 -0.5235
 1000MOL0     H34935   2.563   0.749   4.552 -0.0077  0.1687 -1.9801
 1000MOL0     H34936   2.387   0.750   4.537 -0.3271 -0.8767 -1.3104
 1000MOL0     H34937   2.496   0.864   4.343  2.5502  0.5072 -1.5893
 1000MOL0     H34938   2.568   0.980   4.461  0.0770 -2.9319  4.0302
 1000MOL0     H34939   2.360   1.085   4.515  0.7983 -0.1101 -0.9669
 1000MOL0     H34940   2.263   0.951   4.466  0.4374  2.4107  2.1517
 1000MOL0     H34941   2.341   0.970   4.236 -0.0750  0.3991 -1.0531
 1000MOL0     H34942   2.211   1.081   4.289  0.2480  0.7662  2.4174
 1000MOL0     H34943   2.384   1.267   4.350  2.0030  1.4020 -2.2745
 1000MOL0     H34944   2.495   1.161   4.264 -1.1492 -1.8501 -0.8070
 1000MOL0     H34945   2.230   1.278   4.163  1.3267  2.2109  2.4012
 1000MOL0     H34946   2.383   1.338   4.125 -1.1599 -0.2902 -0.7563
 1000MOL0     H34947   2.266   1.070   4.023  3.2223 -3.1701 -1.8371
 1000MOL0     H34948   2.441   1.107   4.036 -1.1195 -1.4139  3.0193
 1000MOL0     H34949   2.380   1.320   3.896  1.4826 -1.1131  2.9429
 1000MOL0     H34950   2.370   1.164   3.807 -0.5019 -1.7145  0.4831
 1000MOL0     H34951   2.117   1.388   3.990  1.1195 -1.8830  1.7492
 1000MOL0     H34952   1.763   1.260   3.885  0.2420 -0.2959  0.6372
 1000MOL0     H34953   1.847   1.354   4.013 -1.4157 -0.6896  0.8817
 1000MOL0     H34954   1.840   1.553   3.875 -3.2401  0.3048  4.9074
 1000MOL0     H34955   1.837   1.458   3.727  0.5981  1.2391  0.0157
 1000MOL0     H34956   1.595   1.420   3.740  1.6152 -1.0893  0.4124
 1000MOL0     H34957   1.614   1.586   3.785  0.9216  0.4146  0.9027
 1000MOL0     H34958   1.574   1.505   4.032 -1.6639 -1.4346  1.3101
 1000MOL0     H34959   1.572   1.345   3.948 -0.4635 -0.5051 -1.3048
 1000MOL0     H34960   1.183   1.428   3.797 -0.1828  1.7681  0.1784
 1000MOL0     H34961   0.998   1.314   3.904 -1.3444  0.8791  1.8630
 1000MOL0     H34962   0.896   1.209   4.484  3.1285 -0.1762 -1.1263
 1000MOL0     H34963   0.716   1.089   4.590  0.0759  0.7262  0.0799
 1000MOL0     H34964   0.551   0.911   4.704 -0.3573  3.4351  0.4436
 1000MOL0     H34965   0.506   1.023   4.576 -0.4096  0.3421  1.2894
 1000MOL0     H34966   0.378   0.809   4.489 -2.3291  0.7650 -0.2396
 1000MOL0     H34967   0.398   0.756   4.661 -2.6581  0.3964  2.1141
 1000MOL0     H34968   0.318   1.005   4.701  2.7269 -0.7776 -0.4942
 1000MOL0     H34969   0.230   0.984   4.552 -0.6443  0.1114  0.7651
 1000MOL0     H34970   0.178   0.830   4.809 -2.2714  0.1930  0.4199
 1000MOL0     H34971   0.143   0.756   4.649 -2.5850 -0.7137  2.1413
 1000MOL0     H34972   0.045   1.015   4.748  0.2706  1.7699 -2.0896
 1000MOL0     H34973  -0.043   0.851   4.748 -1.1983  0.4978 -0.8806
 1000MOL0     H34974   0.047   0.960   4.493  0.5254 -2.8180 -0.2807
 1000MOL0     H34975  -0.070   0.835   4.523 -0.9035  0.8502  0.0580
 1000MOL0     H34976  -0.122   1.106   4.622 -1.1495  0.8585 -1.7381
 1000MOL0     H34977  -0.233   0.975   4.650  1.1197 -2.2908  1.0377
 1000MOL0     H34978  -0.298   1.106   4.449  0.2412  0.4793 -0.8489
 1000MOL0     H34979  -0.147   1.051   4.369 -0.7905  1.0043  0.0963
 1000MOL0     H34980   0.716   0.805   4.264  1.6785  1.6611 -2.8363
 1000MOL0     H34981   0.908   0.914   4.171 -0.1875  2.4511 -1.8739
 1000MOL0     H34982   1.235   1.253   4.259  1.1940 -3.3687 -0.2970
 1000MOL0     H34983   1.403   1.405   4.158 -2.4081  2.7701  0.3848
 1000MOL0     H34984   2.603   0.660   4.733 -0.7612 -3.4665  1.1695
 1000MOL0     H34985   2.552   0.519   4.933  0.6607  0.5123  0.1287
 1000MOL0     H34986   2.317   0.536   5.497 -0.2383  1.4072 -0.9275
 1000MOL0     H34987   2.343   0.346   5.635 -1.9437 -0.6048  0.2089
 1000MOL0     H34988   2.168   0.173   5.655  1.7993  1.3180 -0.9702
 1000MOL0     H34989   2.250   0.023   5.717  2.3063 -2.0888 -1.8988
 1000MOL0     H34990   2.022  -0.027   5.649 -1.2022 -1.1718 -1.5681
 1000MOL0     H34991   2.152  -0.121   5.572  1.7024  1.2950  1.5371
 1000MOL0     H34992   2.085   0.061   5.370 -0.6877 -1.3698 -0.5118
 1000MOL0     H34993   1.940   0.064   5.466  0.7130  0.8338  1.8251
 1000MOL0     H34994   2.075  -0.193   5.353 -2.2169 -3.1158  0.6752
 1000MOL0     H34995   1.937  -0.196   5.472 -3.6023  1.6086 -0.1763
 1000MOL0     H34996   1.727  -0.101   5.129 -1.5819  2.4308  1.4013
 1000MOL0     H34997   2.302   0.111   5.280 -1.4037  0.6067 -0.5885
 1000MOL0     H34998   2.396   0.299   5.057 -0.1131  2.7101  1.9043
 1000MOL0     H34999   2.253   0.194   5.061  1.3242 -0.6168 -3.9194
 1000MOL0     H35000   2.237   0.373   5.042  2.2619  2.0766  1.5868
 1001MOL0     O35001  10.351   5.078   1.116 -0.0474  0.4047 -0.0796
 1001MOL0     C35002  10.324   4.963   1.160 -0.5156 -0.4000 -0.4583
 1001MOL0     O35003  10.404   4.853   1.149 -0.7544  0.0648  0.4918
 1001MOL0     C35004  10.532   4.898   1.135 -0.8033  0.1929 -0.4459
 1001MOL0     C35005  10.606   4.902   1.011  0.7838  0.2086 -0.2910
 1001MOL0     C35006  10.739   4.914   1.007 -0.4991 -0.0630 -0.1963
 1001MOL0     C35007  10.818   4.924   1.122 -0.3274 -0.3231  0.8957
 1001MOL0     O35008  10.951   4.928   1.112 -0.3990  0.0443 -0.2553
 1001MOL0     C35009  11.013   5.042   1.050 -0.0933 -0.1534 -0.2238
 1001MOL0     C35010  11.031   5.158   1.155 -0.4464 -0.1350 -0.7416
 1001MOL0     C35011  11.122   5.101   1.274 -0.4383  0.5519 -0.0301
 1001MOL0     C35012  11.152   5.213   1.378 -1.0824 -0.3606  0.4309
 1001MOL0     C35013  11.223   5.159   1.497 -0.4297  0.6782 -0.2650
 1001MOL0     C35014  11.281   5.267   1.583  0.1644  0.2595 -0.0984
 1001MOL0     C35015  11.310   5.222   1.732 -0.0992  0.0516 -0.4451
 1001MOL0     C35016  11.368   5.326   1.807 -0.4160 -1.1686 -0.7545
 1001MOL0     N35017  11.376   5.292   1.951 -0.7840  0.3799 -0.4199
 1001MOL0     C35018  11.480   5.219   2.009  0.5032  0.3189  0.5703
 1001MOL0     C35019  11.445   5.214   2.138  0.2789 -0.1801 -1.0390
 1001MOL0     C35020  11.521   5.147   2.244  0.2036 -0.6189  0.2852
 1001MOL0     C35021  11.646   5.236   2.272  0.4002  0.5183  0.2371
 1001MOL0     C35022  11.762   5.179   2.353  0.5154 -0.7106  0.0319
 1001MOL0     C35023  11.707   5.090   2.466 -0.2830  0.4270  0.0773
 1001MOL0     O35024  11.685   4.963   2.404 -0.3222  1.0774 -0.6216
 1001MOL0     C35025  11.663   4.850   2.483  0.5534  0.7339 -0.1390
 1001MOL0     C35026  11.605   4.737   2.433 -0.7155 -0.1237 -0.5841
 1001MOL0     C35027  11.591   4.621   2.506  0.6276  0.6960  0.2523
 1001MOL0     C35028  11.634   4.608   2.647  0.3981 -0.5232  0.6595
 1001MOL0     C35029  11.601   4.490   2.718 -0.8234  0.2617 -1.0925
 1001MOL0     O35030  11.592   4.366   2.665  0.3554 -0.0933 -0.0406
 1001MOL0     C35031  11.528   4.273   2.734  1.0958 -0.1357 -0.2438
 1001MOL0     C35032  11.586   4.159   2.790 -0.0912  0.1198 -0.5091
 1001MOL0     C35033  11.513   4.061   2.854 -1.6152  0.6667  0.0450
 1001MOL0     C35034  11.377   4.081   2.885 -0.0140  0.7853  1.4047
 1001MOL0     O35035  11.309   3.990   2.958 -0.3620  0.2685 -0.4702
 1001MOL0     C35036  11.210   4.046   3.048  0.2178 -1.1376 -0.1975
 1001MOL0     C35037  11.157   3.944   3.157  0.0990  0.2262 -0.5157
 1001MOL0     C35038  11.173   3.800   3.122 -0.2132  0.4018  0.4627
 1001MOL0     C35039  11.104   3.713   3.215 -0.8652 -1.5577  0.2479
 1001MOL0     C35040  10.973   3.662   3.167 -0.2456  0.3217  0.3544
 1001MOL0     C35041  10.907   3.567   3.273 -0.1659  1.0201 -0.5281
 1001MOL0     C35042  10.773   3.505   3.205 -1.2749  0.1490  0.0140
 1001MOL0     C35043  10.809   3.395   3.113 -0.4678 -0.0894 -0.0220
 1001MOL0    Cl35044  10.672   3.339   3.005  0.2395 -0.2759  0.0943
 1001MOL0     C35045  11.317   4.199   2.823 -0.2504 -0.6992  0.0771
 1001MOL0     C35046  11.392   4.295   2.748  0.4840  1.2068  0.6965
 1001MOL0     O35047  11.600   4.515   2.842 -0.1277  0.4295  0.0825
 1001MOL0     C35048  11.686   4.722   2.704 -0.2249 -0.4874 -0.6421
 1001MOL0     C35049  11.692   4.847   2.628  0.1984 -0.4116 -0.9265
 1001MOL0     N35050  11.339   5.293   2.155 -0.1922 -0.0330 -0.0823
 1001MOL0     N35051  11.291   5.342   2.043  0.0351 -1.0821  0.0681
 1001MOL0     C35052  10.763   4.921   1.252  0.4923  0.1428  0.8292
 1001MOL0     C35053  10.618   4.902   1.257  0.5081  0.3391  0.6359
 1001MOL0     C35054  10.182   4.959   1.231 -1.0550  0.2553  0.2757
 1001MOL0     C35055  10.096   5.067   1.225 -0.9332  0.1501  0.3735
 1001MOL0     C35056   9.970   5.070   1.286  0.4253 -0.1917 -1.2683
 1001MOL0     C35057   9.929   4.959   1.362 -0.5874 -1.2060 -0.4778
 1001MOL0     O35058   9.800   4.927   1.409  0.1092  0.5486 -0.0252
 1001MOL0     C35059   9.734   5.044   1.448  0.6864 -0.9252 -0.8662
 1001MOL0     C35060   9.618   5.021   1.538  0.2775  0.0819 -0.3671
 1001MOL0     C35061   9.556   5.146   1.587 -0.4958 -1.4141  0.0843
 1001MOL0     C35062   9.476   5.232   1.492 -0.8512 -0.0616  0.9804
 1001MOL0     C35063   9.403   5.154   1.386 -0.5552 -0.0652  0.5663
 1001MOL0     C35064   9.366   5.075   1.302 -1.1560  0.1165  1.0623
 1001MOL0     C35065  10.022   4.854   1.376  0.7983  0.9440  0.4698
 1001MOL0     C35066  10.146   4.853   1.312  0.0385  0.0602 -0.2026
 1001MOL0     C35067  10.234   4.730   1.353  0.5648 -0.2361  0.4674
 1001MOL0     H35068  10.552   4.886   0.919 -3.4491  2.1205  1.5978
 1001MOL0     H35069  10.799   4.902   0.917 -2.7886  1.3689 -2.0159
 1001MOL0     H35070  11.104   5.002   1.005 -1.4721 -2.5845 -1.0393
 1001MOL0     H35071  10.947   5.064   0.966 -2.1447 -0.0255  1.3406
 1001MOL0     H35072  10.933   5.181   1.196 -0.0145 -0.8948  0.7666
 1001MOL0     H35073  11.079   5.247   1.113 -0.1050  0.9297  1.7716
 1001MOL0     H35074  11.214   5.062   1.229 -0.4909  1.8747 -1.3679
 1001MOL0     H35075  11.076   5.017   1.327  1.0878  0.8512  1.9182
 1001MOL0     H35076  11.217   5.278   1.318 -1.1642 -2.2932 -1.8911
 1001MOL0     H35077  11.063   5.265   1.414 -0.3051  1.3080  0.0327
 1001MOL0     H35078  11.141   5.118   1.557  1.9437 -0.3840  2.4519
 1001MOL0     H35079  11.293   5.082   1.465 -0.7846  1.2221 -2.5710
 1001MOL0     H35080  11.374   5.296   1.534 -0.3699  2.0039 -0.1541
 1001MOL0     H35081  11.216   5.354   1.572 -0.1350  0.1276  0.5821
 1001MOL0     H35082  11.372   5.131   1.734  1.0390  0.7001 -2.7412
 1001MOL0     H35083  11.216   5.199   1.782  1.0450 -3.4548  0.3704
 1001MOL0     H35084  11.469   5.357   1.782  0.3934  0.4869  3.6810
 1001MOL0     H35085  11.309   5.418   1.800 -0.2821 -1.2331 -3.8252
 1001MOL0     H35086  11.562   5.169   1.957  0.1328 -0.8649  1.1193
 1001MOL0     H35087  11.451   5.141   2.329 -2.0645  1.0568 -1.3376
 1001MOL0     H35088  11.544   5.049   2.201  1.3216 -0.0908 -0.3325
 1001MOL0     H35089  11.689   5.282   2.182  1.4929  1.5523  1.2491
 1001MOL0     H35090  11.606   5.325   2.322  1.4506  0.6133  0.9491
 1001MOL0     H35091  11.813   5.263   2.402 -3.5318 -0.2726  4.2132
 1001MOL0     H35092  11.834   5.133   2.285  2.6532  3.4056 -0.7731
 1001MOL0     H35093  11.622   5.136   2.517 -0.0906  1.9282 -0.8995
 1001MOL0     H35094  11.788   5.076   2.539  0.5158  0.6513 -0.7482
 1001MOL0     H35095  11.584   4.746   2.327  0.4802  0.9901 -0.7618
 1001MOL0     H35096  11.551   4.538   2.448 -0.2362  1.9016 -0.9308
 1001MOL0     H35097  11.695   4.157   2.782  0.3577  3.4081  2.4492
 1001MOL0     H35098  11.578   3.981   2.888 -3.4249 -0.7552  0.3380
 1001MOL0     H35099  11.241   4.140   3.095  1.9641 -1.0224 -1.4740
 1001MOL0     H35100  11.120   4.067   2.990  0.6249 -1.1541 -0.8477
 1001MOL0     H35101  11.210   3.976   3.247  0.8441  0.1871 -0.9299
 1001MOL0     H35102  11.057   3.977   3.186  1.2329  1.9699  1.7367
 1001MOL0     H35103  11.140   3.780   3.020 -1.2069 -0.5841  0.9561
 1001MOL0     H35104  11.277   3.765   3.114 -1.5028 -3.5971 -2.2352
 1001MOL0     H35105  11.086   3.769   3.307  1.9124 -1.3306  0.7100
 1001MOL0     H35106  11.160   3.621   3.228 -1.0931 -1.7380 -0.0230
 1001MOL0     H35107  10.995   3.591   3.086 -3.8378 -0.4226 -0.1529
 1001MOL0     H35108  10.905   3.743   3.139 -0.3669 -0.2917 -1.2943
 1001MOL0     H35109  10.978   3.486   3.292  0.4576  2.0232  1.7901
 1001MOL0     H35110  10.869   3.601   3.370 -0.8328 -0.2871 -0.3192
 1001MOL0     H35111  10.726   3.593   3.161  1.2196  2.6506  1.9355
 1001MOL0     H35112  10.703   3.473   3.283  0.7096  0.4436  2.0296
 1001MOL0     H35113  10.888   3.422   3.043  1.4885  0.3817  2.2191
 1001MOL0     H35114  10.846   3.305   3.165 -1.6304 -0.5768 -0.0090
 1001MOL0     H35115  11.212   4.226   2.833 -0.6464 -1.8699 -0.6654
 1001MOL0     H35116  11.346   4.386   2.710 -1.0504  0.1708 -0.0308
 1001MOL0     H35117  11.708   4.730   2.810 -1.7713 -0.1453 -0.3234
 1001MOL0     H35118  11.731   4.934   2.680  0.4647  0.8371 -3.0950
 1001MOL0     H35119  10.829   4.942   1.335  1.3620 -0.3470  0.2875
 1001MOL0     H35120  10.583   4.897   1.360  0.2518 -1.1761  0.4912
 1001MOL0     H35121  10.127   5.152   1.165  3.3468 -0.0641  1.9736
 1001MOL0     H35122   9.899   5.152   1.279  1.0120  0.6472  1.3744
 1001MOL0     H35123   9.710   5.092   1.353 -0.7706  2.4719  1.0532
 1001MOL0     H35124   9.804   5.109   1.501 -2.4397  2.0834 -0.1381
 1001MOL0     H35125   9.654   4.959   1.620 -0.0559  1.8952  1.2230
 1001MOL0     H35126   9.549   4.959   1.480  1.5563 -0.3696 -1.4600
 1001MOL0     H35127   9.642   5.207   1.616  0.2308 -2.0470 -0.6563
 1001MOL0     H35128   9.492   5.119   1.671 -3.5352 -1.3739 -2.0630
 1001MOL0     H35129   9.407   5.292   1.550 -0.7328  0.6516  0.3947
 1001MOL0     H35130   9.533   5.309   1.439 -3.1736  2.4347  1.9339
 1001MOL0     H35131   9.328   5.006   1.230 -1.6599  2.5492 -1.1339
 1001MOL0     H35132   9.994   4.759   1.420  0.1940 -0.3393 -2.4641
 1001MOL0     H35133  10.334   4.761   1.386  0.3946  1.1607 -0.2483
 1001MOL0     H35134  10.207   4.654   1.426 -0.0775 -0.3239  0.1422
 1001MOL0     H35135  10.237   4.672   1.260 -2.0226 -1.8450  1.3073
 1002MOL0     O35136   7.800   5.323   7.039  0.5631 -0.0860  0.9432
 1002MOL0     C35137   7.743   5.426   7.028  0.5098 -0.0975  0.9138
 1002MOL0     O35138   7.644   5.461   7.110  0.7467 -0.1681 -0.6079
 1002MOL0     C35139   7.627   5.401   7.236  0.9647  0.0590  0.1804
 1002MOL0     C35140   7.731   5.402   7.332 -0.4302  0.6144  0.6495
 1002MOL0     C35141   7.715   5.354   7.463 -0.8229  0.7049 -0.8566
 1002MOL0     C35142   7.588   5.304   7.497  0.6188  0.5011 -0.1663
 1002MOL0     O35143   7.573   5.248   7.623 -0.4029 -0.2364 -0.0842
 1002MOL0     C35144   7.631   5.127   7.652 -0.4484  0.0952 -0.1721
 1002MOL0     C35145   7.643   5.131   7.802  0.3732 -0.0517 -1.6483
 1002MOL0     C35146   7.729   5.009   7.856 -0.0896 -0.0961 -0.7800
 1002MOL0     C35147   7.668   4.863   7.838  0.1244 -0.1063 -0.2230
 1002MOL0     C35148   7.783   4.757   7.882  0.2213  0.1532  0.1151
 1002MOL0     C35149   7.867   4.716   7.748  0.7529 -0.0682  0.3618
 1002MOL0     C35150   8.002   4.652   7.788  0.1595  0.4957 -0.2928
 1002MOL0     C35151   8.054   4.594   7.655 -1.0681 -0.5420  0.1388
 1002MOL0     N35152   8.204   4.626   7.631 -0.2886  0.0205  0.5795
 1002MOL0     C35153   8.251   4.759   7.610 -0.1631  0.4222  0.2004
 1002MOL0     C35154   8.365   4.736   7.552 -0.5275  0.4615  0.5490
 1002MOL0     C35155   8.438   4.858   7.492  1.0241  0.2687 -0.1725
 1002MOL0     C35156   8.368   4.915   7.357  0.8948  0.0292  0.4615
 1002MOL0     C35157   8.398   4.809   7.244  0.0577  0.6993 -0.2000
 1002MOL0     C35158   8.546   4.820   7.197  0.0621 -0.8889 -0.8802
 1002MOL0     O35159   8.566   4.730   7.086 -0.3493 -0.2544  0.3566
 1002MOL0     C35160   8.574   4.595   7.093  0.1088 -0.0410 -1.1205
 1002MOL0     C35161   8.582   4.529   6.980  0.5310 -0.7757 -1.2191
 1002MOL0     C35162   8.627   4.395   6.985 -0.1419 -0.6791 -0.6110
 1002MOL0     C35163   8.641   4.320   7.103 -0.4180 -0.9917  0.1311
 1002MOL0     C35164   8.686   4.173   7.109 -0.2213 -0.3912 -0.1644
 1002MOL0     O35165   8.718   4.116   6.989  0.2015 -1.1293  0.2366
 1002MOL0     C35166   8.743   3.982   7.006  0.0865 -0.6063  0.7203
 1002MOL0     C35167   8.644   3.895   6.967  0.6222 -0.1860  0.1945
 1002MOL0     C35168   8.654   3.760   6.984  0.0660 -0.4423 -0.5557
 1002MOL0     C35169   8.769   3.709   7.038  0.7671  0.3895 -1.1435
 1002MOL0     O35170   8.751   3.575   7.054  0.5805 -0.2286 -0.0508
 1002MOL0     C35171   8.817   3.513   7.171  0.8304  0.4094  0.0339
 1002MOL0     C35172   8.752   3.386   7.182 -0.6121  0.0212 -0.0587
 1002MOL0     C35173   8.786   3.311   7.315 -0.3379  0.0901 -0.8367
 1002MOL0     C35174   8.806   3.157   7.308 -0.3852  0.1039  0.1533
 1002MOL0     C35175   8.864   3.095   7.433 -0.1747 -0.6177  0.3074
 1002MOL0     C35176   8.865   2.944   7.419  0.1643 -0.1727  0.3393
 1002MOL0     C35177   8.948   2.869   7.308  0.3660 -0.2938  1.3360
 1002MOL0     C35178   9.082   2.926   7.262  0.4704 -0.2739  0.0602
 1002MOL0    Cl35179   9.201   2.905   7.396  0.1172 -0.3779  0.3353
 1002MOL0     C35180   8.874   3.790   7.074  0.0722  0.0499  0.2567
 1002MOL0     C35181   8.861   3.925   7.058 -0.5440 -0.4082 -0.4371
 1002MOL0     O35182   8.717   4.133   7.222  0.4699 -0.2677  0.3038
 1002MOL0     C35183   8.622   4.387   7.222 -0.2979  0.1067 -0.3076
 1002MOL0     C35184   8.579   4.526   7.211  0.0110  1.1762 -0.0439
 1002MOL0     N35185   8.403   4.599   7.547  0.4512  0.3419 -0.2962
 1002MOL0     N35186   8.295   4.538   7.585 -0.3375  0.1386  0.0767
 1002MOL0     C35187   7.485   5.290   7.403  0.6603 -0.3538  0.0094
 1002MOL0     C35188   7.506   5.341   7.269 -0.4151 -0.5996 -0.2968
 1002MOL0     C35189   7.773   5.513   6.905 -0.3051 -0.7756  0.1455
 1002MOL0     C35190   7.851   5.460   6.801 -0.1964  0.2112  0.3087
 1002MOL0     C35191   7.907   5.532   6.700  0.2431  0.0199 -0.7968
 1002MOL0     C35192   7.873   5.673   6.687  0.4224 -0.4382 -0.8398
 1002MOL0     O35193   7.942   5.748   6.594  0.0784  0.1499 -0.1539
 1002MOL0     C35194   8.039   5.689   6.505 -0.1618  0.6410  0.4236
 1002MOL0     C35195   8.105   5.796   6.420 -0.0402 -0.7429  0.0890
 1002MOL0     C35196   8.237   5.739   6.369  0.2005 -0.4169  0.4813
 1002MOL0     C35197   8.233   5.678   6.226  0.3216  0.3399 -0.5207
 1002MOL0     C35198   8.361   5.610   6.205 -0.8078  0.0606 -0.4352
 1002MOL0     C35199   8.470   5.569   6.179  0.2581  0.5184 -0.8321
 1002MOL0     C35200   7.796   5.724   6.782 -0.9351  0.1470 -0.5115
 1002MOL0     C35201   7.748   5.657   6.900  0.3100 -0.7240  0.7528
 1002MOL0     C35202   7.676   5.730   7.006  1.2287  0.6952 -0.7889
 1002MOL0     H35203   7.822   5.449   7.296 -2.2499  1.9475 -2.5972
 1002MOL0     H35204   7.802   5.355   7.527 -0.4307  0.6102 -1.3861
 1002MOL0     H35205   7.556   5.048   7.640 -1.2276  0.4306  2.0744
 1002MOL0     H35206   7.732   5.106   7.614 -0.0327 -0.5527  1.2232
 1002MOL0     H35207   7.544   5.130   7.849  1.2981 -0.5926  0.4216
 1002MOL0     H35208   7.697   5.219   7.838  0.1295 -1.4943  2.8890
 1002MOL0     H35209   7.734   5.039   7.962  0.5482  2.9589 -1.5814
 1002MOL0     H35210   7.826   5.027   7.809  0.1795  2.6284  0.6107
 1002MOL0     H35211   7.588   4.856   7.912  2.7883  1.6822  3.1544
 1002MOL0     H35212   7.636   4.845   7.735  0.3920 -1.7181 -0.0655
 1002MOL0     H35213   7.841   4.791   7.968 -2.9291  1.0163  2.0794
 1002MOL0     H35214   7.733   4.669   7.924 -1.0874  1.3201  1.0923
 1002MOL0     H35215   7.802   4.638   7.707 -2.5458  2.2234  0.7684
 1002MOL0     H35216   7.864   4.799   7.677 -3.8008 -0.2997 -0.0252
 1002MOL0     H35217   7.993   4.569   7.859  0.0473 -1.7382 -2.7428
 1002MOL0     H35218   8.064   4.728   7.836 -0.4218  0.4728  0.5056
 1002MOL0     H35219   8.035   4.487   7.650 -0.5311 -0.6293 -0.1131
 1002MOL0     H35220   8.002   4.635   7.569 -0.0890  1.9919  0.6511
 1002MOL0     H35221   8.199   4.854   7.606  1.0659  1.2981  2.6411
 1002MOL0     H35222   8.424   4.933   7.571  1.1633  0.5476 -0.4098
 1002MOL0     H35223   8.543   4.832   7.477  1.1727  0.5182  0.4146
 1002MOL0     H35224   8.260   4.918   7.372  0.7705 -0.2649 -0.3065
 1002MOL0     H35225   8.395   5.019   7.338  0.7148  0.0186  0.1305
 1002MOL0     H35226   8.337   4.833   7.157 -2.0693 -0.9491  0.7317
 1002MOL0     H35227   8.390   4.706   7.282  1.1665  0.4895 -0.4964
 1002MOL0     H35228   8.627   4.812   7.271 -0.4237  2.9596  0.2739
 1002MOL0     H35229   8.554   4.922   7.158  2.2032 -1.1722 -1.2998
 1002MOL0     H35230   8.573   4.579   6.884 -1.5766  0.2670 -0.5544
 1002MOL0     H35231   8.636   4.337   6.893  0.4887 -0.8874 -0.4229
 1002MOL0     H35232   8.554   3.935   6.920  1.3245  0.8052 -0.3467
 1002MOL0     H35233   8.583   3.691   6.939 -0.2209  0.8175 -2.1038
 1002MOL0     H35234   8.926   3.507   7.178  0.7603 -0.4311  0.5699
 1002MOL0     H35235   8.799   3.577   7.258  0.5411  0.1462  0.1715
 1002MOL0     H35236   8.643   3.385   7.184 -0.7365 -3.3829 -1.1835
 1002MOL0     H35237   8.779   3.319   7.099 -2.3495  1.6443 -2.0575
 1002MOL0     H35238   8.868   3.362   7.367 -1.4639  0.0906  1.0245
 1002MOL0     H35239   8.700   3.343   7.375  1.7023  2.3581  1.1101
 1002MOL0     H35240   8.875   3.149   7.223 -1.4267  3.6072 -1.1766
 1002MOL0     H35241   8.711   3.110   7.281  0.3800 -1.2547 -0.2774
 1002MOL0     H35242   8.811   3.135   7.520  1.2738  2.4775 -0.1128
 1002MOL0     H35243   8.969   3.120   7.449  0.7410 -3.6167 -0.3547
 1002MOL0     H35244   8.910   2.901   7.509 -1.4870 -0.2691  1.1599
 1002MOL0     H35245   8.763   2.907   7.407 -0.1220  0.1999  1.4813
 1002MOL0     H35246   8.882   2.865   7.221 -0.0398  2.8427  1.3910
 1002MOL0     H35247   8.961   2.768   7.348 -1.4838 -0.4873  1.5163
 1002MOL0     H35248   9.116   2.882   7.168  0.2683 -0.3210  0.0087
 1002MOL0     H35249   9.071   3.033   7.241  0.4117 -0.0122  1.3382
 1002MOL0     H35250   8.965   3.740   7.104 -1.4825 -4.8049 -2.2196
 1002MOL0     H35251   8.946   3.979   7.098  0.1066 -1.9972  0.3779
 1002MOL0     H35252   8.639   4.339   7.318  3.1381 -0.1917 -0.9248
 1002MOL0     H35253   8.568   4.578   7.306 -0.9203 -0.2356  0.6543
 1002MOL0     H35254   7.393   5.233   7.408 -1.3278  2.5333 -1.4006
 1002MOL0     H35255   7.417   5.346   7.207 -1.0841 -1.0663  0.6116
 1002MOL0     H35256   7.887   5.357   6.803 -0.0930  0.2536  1.7424
 1002MOL0     H35257   7.979   5.486   6.632  3.3221  2.2196  0.7020
 1002MOL0     H35258   7.991   5.620   6.435 -2.0192  1.1399  1.1460
 1002MOL0     H35259   8.107   5.630   6.567 -1.5348  0.5529  1.9014
 1002MOL0     H35260   8.126   5.880   6.486 -0.6915 -0.4136 -0.1107
 1002MOL0     H35261   8.048   5.839   6.336 -2.2358  4.1862  3.6411
 1002MOL0     H35262   8.282   5.667   6.437  2.4750  0.0016 -0.4732
 1002MOL0     H35263   8.304   5.826   6.369 -0.1788 -0.0587 -2.2073
 1002MOL0     H35264   8.155   5.603   6.221  1.1078 -0.4668 -0.9239
 1002MOL0     H35265   8.226   5.753   6.147  0.1912 -0.9066 -1.7193
 1002MOL0     H35266   8.572   5.540   6.166  0.9916 -0.8757  5.1881
 1002MOL0     H35267   7.782   5.831   6.772  0.8604  0.5628  0.8016
 1002MOL0     H35268   7.722   5.694   7.099 -3.4133 -3.3960  0.3277
 1002MOL0     H35269   7.684   5.838   6.991  1.3023  0.7129 -0.6305
 1002MOL0     H35270   7.571   5.702   7.010  1.0537  1.3946 -0.3275
 1003MOL0     O35271   8.675   0.704   5.023  0.8729 -0.1413 -0.5001
 1003MOL0     C35272   8.569   0.693   4.953 -0.2876  0.3625  0.1940
 1003MOL0     O35273   8.445   0.683   5.000  0.4053 -0.3272  0.3788
 1003MOL0     C35274   8.443   0.714   5.135 -0.4381  0.3481  0.6151
 1003MOL0     C35275   8.454   0.610   5.227 -0.1060  0.6353  0.5545
 1003MOL0     C35276   8.472   0.640   5.360 -0.8039 -0.1633  0.5866
 1003MOL0     C35277   8.480   0.773   5.405  0.8453 -0.1734  0.6956
 1003MOL0     O35278   8.516   0.785   5.533 -0.7709 -0.3648  0.0540
 1003MOL0     C35279   8.443   0.884   5.610  0.1285 -0.0017  0.4569
 1003MOL0     C35280   8.418   0.828   5.747 -0.6558  0.0010 -0.2861
 1003MOL0     C35281   8.547   0.822   5.835 -0.1091  0.1554  0.0416
 1003MOL0     C35282   8.602   0.951   5.886 -0.4195 -0.8557 -0.5106
 1003MOL0     C35283   8.723   0.928   5.978  0.1088  0.2079 -0.5783
 1003MOL0     C35284   8.689   0.844   6.105  0.3544 -0.8611  0.1711
 1003MOL0     C35285   8.766   0.866   6.221 -0.4785 -0.5540 -0.2395
 1003MOL0     C35286   8.786   1.017   6.273 -0.1843  0.6519 -0.0471
 1003MOL0     N35287   8.662   1.081   6.337 -0.5343 -0.1056  0.1852
 1003MOL0     C35288   8.680   1.153   6.451 -0.3264 -0.7277  0.0864
 1003MOL0     C35289   8.584   1.249   6.443 -0.3472 -0.8736 -0.2251
 1003MOL0     C35290   8.568   1.355   6.553  0.1314  0.4351 -0.0460
 1003MOL0     C35291   8.496   1.480   6.504 -0.1710  0.7685  0.5813
 1003MOL0     C35292   8.549   1.594   6.590 -0.7067  0.4832 -0.4017
 1003MOL0     C35293   8.537   1.584   6.747 -0.5498  0.6554 -0.6250
 1003MOL0     O35294   8.405   1.543   6.779 -0.1188  0.7408  0.3767
 1003MOL0     C35295   8.388   1.521   6.910 -0.1657 -0.3708  0.4461
 1003MOL0     C35296   8.345   1.396   6.955  0.5127  0.1465  0.5120
 1003MOL0     C35297   8.318   1.368   7.084  0.3015  0.3213 -0.3921
 1003MOL0     C35298   8.344   1.473   7.182  0.4333  0.2597 -0.4509
 1003MOL0     C35299   8.324   1.443   7.329  0.1010 -0.4245 -1.2815
 1003MOL0     O35300   8.255   1.333   7.351  0.1255 -1.2386  0.5297
 1003MOL0     C35301   8.222   1.288   7.474 -0.0551 -0.3289 -0.3540
 1003MOL0     C35302   8.237   1.150   7.498  1.2259 -0.5249  0.3381
 1003MOL0     C35303   8.197   1.099   7.614  0.1293  0.7348  0.0112
 1003MOL0     C35304   8.165   1.179   7.720 -0.0372  0.2878  0.4603
 1003MOL0     O35305   8.134   1.134   7.843  0.1523  0.9013  0.5488
 1003MOL0     C35306   8.196   1.020   7.903  0.6412  0.3297  0.5762
 1003MOL0     C35307   8.277   1.064   8.024  0.0430  0.3781 -0.4143
 1003MOL0     C35308   8.189   1.110   8.142 -1.5919  0.0809  0.6695
 1003MOL0     C35309   8.113   1.253   8.127 -0.2661 -0.7464 -0.6821
 1003MOL0     C35310   8.072   1.314   8.266  1.1949 -0.0034 -0.9799
 1003MOL0     C35311   7.989   1.440   8.249 -0.7255 -0.3566 -0.3888
 1003MOL0     C35312   7.972   1.506   8.379 -0.1440  0.2348 -0.3518
 1003MOL0     C35313   7.883   1.630   8.371  0.1287 -0.6057 -0.5810
 1003MOL0    Cl35314   7.908   1.733   8.517 -0.6565  0.1755  0.0056
 1003MOL0     C35315   8.154   1.320   7.700 -0.3889  0.2601 -0.9359
 1003MOL0     C35316   8.172   1.375   7.576 -0.6331  0.6221  0.0702
 1003MOL0     O35317   8.365   1.526   7.421  0.0352  0.2095 -0.2807
 1003MOL0     C35318   8.391   1.597   7.153  0.2221  0.2088  1.3667
 1003MOL0     C35319   8.403   1.619   7.014 -0.3364  0.1659  0.3111
 1003MOL0     N35320   8.515   1.238   6.324 -0.2696 -0.6496 -0.1909
 1003MOL0     N35321   8.564   1.131   6.261  0.1020  0.4464  0.5675
 1003MOL0     C35322   8.468   0.881   5.316  0.6990 -0.4668  0.0635
 1003MOL0     C35323   8.449   0.848   5.177 -1.0571  0.3216  0.0798
 1003MOL0     C35324   8.597   0.712   4.813  0.2857  0.5110 -0.5583
 1003MOL0     C35325   8.724   0.673   4.757 -0.1821  0.1804 -0.8206
 1003MOL0     C35326   8.756   0.704   4.621 -0.5126 -0.3244  0.9380
 1003MOL0     C35327   8.663   0.775   4.548 -0.7520 -1.1961  1.1529
 1003MOL0     O35328   8.670   0.801   4.406 -0.0923  0.4196  0.0090
 1003MOL0     C35329   8.791   0.786   4.338  0.6160  0.2042 -0.0415
 1003MOL0     C35330   8.910   0.879   4.350 -0.4821  0.1591  0.8880
 1003MOL0     C35331   8.879   1.003   4.273  0.1625  0.6211 -0.2742
 1003MOL0     C35332   8.994   1.100   4.280  0.1680 -0.1020  0.8329
 1003MOL0     C35333   8.969   1.205   4.185 -0.1938 -0.4499  0.2193
 1003MOL0     C35334   8.944   1.301   4.109 -0.7795  0.4956  0.0478
 1003MOL0     C35335   8.538   0.802   4.595  0.5456 -0.8585 -0.7430
 1003MOL0     C35336   8.505   0.779   4.737 -0.6856 -0.8289 -0.0867
 1003MOL0     C35337   8.367   0.829   4.780  0.8196  0.3135 -0.1740
 1003MOL0     H35338   8.458   0.508   5.192  3.1771  0.5317  0.9068
 1003MOL0     H35339   8.491   0.555   5.425  1.6421  0.4297  0.7701
 1003MOL0     H35340   8.503   0.975   5.621 -0.1604  0.5275 -1.8194
 1003MOL0     H35341   8.352   0.917   5.560  0.7740 -0.7451 -1.3059
 1003MOL0     H35342   8.384   0.726   5.728 -2.3677  0.1967  1.4630
 1003MOL0     H35343   8.352   0.884   5.815 -0.3004  0.5508 -0.3853
 1003MOL0     H35344   8.636   0.776   5.791  0.5966  1.7929 -0.3276
 1003MOL0     H35345   8.524   0.759   5.921  0.4783 -0.8439 -0.5148
 1003MOL0     H35346   8.642   1.009   5.803 -2.5845 -2.1652 -2.5801
 1003MOL0     H35347   8.524   1.016   5.928 -0.2281  0.7829 -2.5393
 1003MOL0     H35348   8.794   0.874   5.915  0.1399  1.0238 -1.2672
 1003MOL0     H35349   8.757   1.029   6.002 -4.5046  2.3480 -1.9027
 1003MOL0     H35350   8.586   0.853   6.141  0.2274  1.5177 -0.5654
 1003MOL0     H35351   8.696   0.738   6.080  0.3413 -1.0050  0.7660
 1003MOL0     H35352   8.870   0.836   6.205 -0.7290 -0.9694 -1.1814
 1003MOL0     H35353   8.719   0.809   6.301 -2.4772  0.7688 -0.3893
 1003MOL0     H35354   8.861   1.016   6.352  1.6910  2.7735 -1.6704
 1003MOL0     H35355   8.834   1.079   6.198  1.4078  1.3083  1.4427
 1003MOL0     H35356   8.742   1.130   6.536  0.2731 -0.0708 -0.1627
 1003MOL0     H35357   8.509   1.307   6.632  2.2735 -0.9388  0.7908
 1003MOL0     H35358   8.667   1.387   6.585  1.5383 -2.3962 -1.2335
 1003MOL0     H35359   8.497   1.500   6.396 -1.3579 -0.8851  0.2179
 1003MOL0     H35360   8.390   1.471   6.530 -0.0151  1.2365  1.3968
 1003MOL0     H35361   8.484   1.678   6.562 -2.1637  0.2702  2.0521
 1003MOL0     H35362   8.654   1.619   6.579 -0.1706 -1.6550 -0.5553
 1003MOL0     H35363   8.552   1.685   6.788  1.9409 -0.4891  1.6009
 1003MOL0     H35364   8.618   1.527   6.792 -1.8874 -1.6999 -1.0652
 1003MOL0     H35365   8.337   1.317   6.881  0.6039  1.3542 -0.8145
 1003MOL0     H35366   8.304   1.262   7.107  1.4829 -0.1772 -1.7813
 1003MOL0     H35367   8.281   1.083   7.425  0.6539 -1.8316  1.1574
 1003MOL0     H35368   8.205   0.991   7.623 -2.9913  0.4479  0.6169
 1003MOL0     H35369   8.137   0.933   7.933  1.1158 -0.4467 -0.6401
 1003MOL0     H35370   8.266   0.970   7.835  0.2088  0.5969 -0.0812
 1003MOL0     H35371   8.346   0.984   8.053  0.4692  0.2042 -1.8325
 1003MOL0     H35372   8.343   1.148   8.004 -0.1567  0.0198 -2.8797
 1003MOL0     H35373   8.114   1.032   8.157 -0.9930 -0.6282  0.0480
 1003MOL0     H35374   8.261   1.111   8.225  0.0896  1.1063 -0.7391
 1003MOL0     H35375   8.026   1.256   8.061 -1.3554 -0.0960  0.7445
 1003MOL0     H35376   8.187   1.317   8.077  1.7405 -1.0234  1.7061
 1003MOL0     H35377   8.160   1.328   8.328 -1.0333 -0.7286  2.6195
 1003MOL0     H35378   8.001   1.245   8.314 -0.5898  1.7188 -1.0139
 1003MOL0     H35379   8.045   1.504   8.181 -1.7074 -2.0087 -2.9006
 1003MOL0     H35380   7.892   1.415   8.205 -0.6636 -3.7141  1.1038
 1003MOL0     H35381   8.071   1.538   8.411 -0.0664 -0.0370 -0.3188
 1003MOL0     H35382   7.926   1.454   8.464 -3.6925  1.7950 -1.1440
 1003MOL0     H35383   7.919   1.685   8.284  2.3951 -2.3286 -0.8307
 1003MOL0     H35384   7.782   1.591   8.352  0.6311 -2.7643  0.8492
 1003MOL0     H35385   8.119   1.375   7.788  0.9301 -0.0433 -0.1956
 1003MOL0     H35386   8.158   1.478   7.544  0.6907  0.2151 -1.9690
 1003MOL0     H35387   8.403   1.681   7.220 -0.6603  1.3946  0.1048
 1003MOL0     H35388   8.431   1.719   6.982 -2.5025 -0.0643 -2.7978
 1003MOL0     H35389   8.491   0.984   5.339  0.5652  0.1607 -2.3080
 1003MOL0     H35390   8.451   0.929   5.105 -1.4929  1.9152  1.7651
 1003MOL0     H35391   8.808   0.639   4.817  1.3496  0.5035 -2.6913
 1003MOL0     H35392   8.858   0.683   4.592  0.0087 -0.2720  2.5892
 1003MOL0     H35393   8.764   0.790   4.232  0.8589  0.4588 -0.0972
 1003MOL0     H35394   8.822   0.682   4.345 -0.1623 -0.2035 -1.9303
 1003MOL0     H35395   9.002   0.835   4.311 -0.1816  2.9493 -1.9700
 1003MOL0     H35396   8.922   0.902   4.456  1.6054  1.7448  0.3839
 1003MOL0     H35397   8.788   1.044   4.317  1.4311  2.3835  0.8384
 1003MOL0     H35398   8.864   0.968   4.170 -1.0480 -1.2260  0.4720
 1003MOL0     H35399   9.005   1.133   4.384 -1.6018  1.5095  0.5692
 1003MOL0     H35400   9.089   1.054   4.254 -0.0585 -1.7518  2.6712
 1003MOL0     H35401   8.928   1.381   4.040 -0.3499  0.6867  0.1633
 1003MOL0     H35402   8.460   0.848   4.534  3.0567  3.3954 -1.1518
 1003MOL0     H35403   8.289   0.752   4.784 -2.9357  3.7566 -0.7640
 1003MOL0     H35404   8.372   0.867   4.882  4.1746 -0.1642 -0.0573
 1003MOL0     H35405   8.329   0.907   4.713 -0.6897  2.4308  2.8905
 1004MOL0     O35406   6.600   7.667   7.017 -0.7856 -0.7236  0.2183
 1004MOL0     C35407   6.585   7.711   6.900 -0.8652  0.1118 -0.8711
 1004MOL0     O35408   6.556   7.840   6.880  1.0594  0.1640  0.2595
 1004MOL0     C35409   6.581   7.936   6.970  0.9153  1.3075 -0.0540
 1004MOL0     C35410   6.703   7.954   7.028  0.4697 -0.8263  0.9266
 1004MOL0     C35411   6.711   8.053   7.121  0.0648  0.7652  0.1398
 1004MOL0     C35412   6.602   8.125   7.159 -0.3796 -1.0937  0.9690
 1004MOL0     O35413   6.603   8.238   7.231  0.3359  0.3479 -0.1142
 1004MOL0     C35414   6.713   8.256   7.318 -0.1120  0.1971  0.3006
 1004MOL0     C35415   6.708   8.384   7.403  0.1778 -0.6897  1.3968
 1004MOL0     C35416   6.742   8.515   7.331  0.9645  0.7690 -0.0291
 1004MOL0     C35417   6.895   8.536   7.327  0.3248  0.6036  0.7784
 1004MOL0     C35418   6.934   8.659   7.254  0.2685 -0.2726  0.8010
 1004MOL0     C35419   7.084   8.681   7.261 -0.5043 -0.4606 -0.0451
 1004MOL0     C35420   7.112   8.819   7.198 -0.1113 -0.2448  0.0728
 1004MOL0     C35421   7.244   8.874   7.234 -0.8594 -0.0264  0.4600
 1004MOL0     N35422   7.294   8.984   7.157  0.3777 -0.7416 -0.1573
 1004MOL0     C35423   7.433   9.014   7.135  0.6076 -0.4012  0.6860
 1004MOL0     C35424   7.439   9.143   7.098 -0.6822 -0.4925 -0.7422
 1004MOL0     C35425   7.572   9.228   7.106  0.6387 -0.3422 -0.6317
 1004MOL0     C35426   7.690   9.160   7.042 -0.1825 -0.4192 -0.2983
 1004MOL0     C35427   7.811   9.252   7.023 -0.3739  0.4096  0.1108
 1004MOL0     C35428   7.937   9.157   6.999 -0.6705 -0.7966 -0.6003
 1004MOL0     O35429   8.054   9.243   6.987  0.4763 -0.6127  0.1144
 1004MOL0     C35430   8.165   9.192   6.930  0.9386 -0.3938 -0.0387
 1004MOL0     C35431   8.218   9.271   6.828  0.0375  0.1741 -0.6679
 1004MOL0     C35432   8.316   9.220   6.740  0.7775 -0.6849 -0.3087
 1004MOL0     C35433   8.374   9.093   6.773 -0.2465 -0.1126 -0.1797
 1004MOL0     C35434   8.498   9.046   6.711 -0.7920 -0.0852 -0.1133
 1004MOL0     O35435   8.557   8.937   6.767 -0.2801  0.5368  0.8767
 1004MOL0     C35436   8.673   8.887   6.716 -0.7400 -0.7582 -0.6075
 1004MOL0     C35437   8.765   8.847   6.817 -1.0505  0.1644  0.2474
 1004MOL0     C35438   8.891   8.786   6.787 -0.9666 -0.6272  0.2593
 1004MOL0     C35439   8.906   8.754   6.650 -0.1333  0.7290  0.9352
 1004MOL0     O35440   9.012   8.675   6.598 -0.0703  0.2294  0.0352
 1004MOL0     C35441   9.082   8.592   6.697  0.4423 -1.9719 -0.1965
 1004MOL0     C35442   9.189   8.513   6.624 -0.8650  0.0831  0.1239
 1004MOL0     C35443   9.139   8.371   6.577 -0.2026  0.3674 -0.1560
 1004MOL0     C35444   9.260   8.264   6.542 -0.2493 -0.4696 -0.5269
 1004MOL0     C35445   9.225   8.170   6.432 -0.3904 -0.2459 -0.7888
 1004MOL0     C35446   9.326   8.058   6.400  0.6644  0.2088  0.3837
 1004MOL0     C35447   9.323   7.962   6.509 -0.3716 -0.3297  0.1708
 1004MOL0     C35448   9.340   7.826   6.449 -0.0400  0.5517  0.0709
 1004MOL0    Cl35449   9.195   7.781   6.343  0.1695 -0.0206 -0.1809
 1004MOL0     C35450   8.818   8.792   6.554  0.3249 -0.3261  0.1278
 1004MOL0     C35451   8.703   8.865   6.582 -0.5691  0.8894  0.0553
 1004MOL0     O35452   8.541   9.109   6.612  0.0135 -0.4066  0.1743
 1004MOL0     C35453   8.322   9.016   6.881 -0.3791  0.1735  0.1979
 1004MOL0     C35454   8.215   9.065   6.948 -0.2263 -0.6711  0.2720
 1004MOL0     N35455   7.311   9.186   7.079 -0.5250 -0.6363 -0.2899
 1004MOL0     N35456   7.224   9.095   7.116 -1.0059 -0.2321 -0.0410
 1004MOL0     C35457   6.488   8.119   7.083  0.9342  0.0212  1.0713
 1004MOL0     C35458   6.469   8.021   6.991  0.7757  0.0416 -0.0899
 1004MOL0     C35459   6.589   7.608   6.794  0.6253 -0.5977  0.2496
 1004MOL0     C35460   6.573   7.665   6.662 -0.9082  0.7463 -0.3796
 1004MOL0     C35461   6.577   7.588   6.545 -1.1025 -0.7404  0.9637
 1004MOL0     C35462   6.602   7.454   6.546  0.0329  0.7114 -1.1689
 1004MOL0     O35463   6.600   7.380   6.436  0.5225  0.1379  0.1049
 1004MOL0     C35464   6.639   7.240   6.439  1.3728  0.0173 -0.4119
 1004MOL0     C35465   6.681   7.186   6.307 -0.8874  0.1242  0.5734
 1004MOL0     C35466   6.786   7.272   6.223 -0.2684 -0.6398 -0.9151
 1004MOL0     C35467   6.841   7.198   6.110  0.8074  0.4724  0.2542
 1004MOL0     C35468   6.770   7.210   5.981  1.5287 -0.3522  0.9645
 1004MOL0     C35469   6.705   7.251   5.885 -0.2114 -0.6498  0.4721
 1004MOL0     C35470   6.623   7.402   6.679  0.5045  0.7855 -0.2466
 1004MOL0     C35471   6.618   7.464   6.805 -0.2755 -0.2674  0.2644
 1004MOL0     C35472   6.632   7.384   6.932 -0.4895 -0.4880 -0.7300
 1004MOL0     H35473   6.791   7.897   7.000  0.9151  0.2863 -0.0236
 1004MOL0     H35474   6.810   8.072   7.162  0.3225  0.0921 -0.1522
 1004MOL0     H35475   6.709   8.172   7.388  1.3548  0.1595  0.3692
 1004MOL0     H35476   6.808   8.253   7.263 -0.9670 -1.7435 -1.2265
 1004MOL0     H35477   6.762   8.369   7.496  1.6910  1.8600  1.0134
 1004MOL0     H35478   6.602   8.395   7.428  0.1917 -2.6542  2.5059
 1004MOL0     H35479   6.703   8.592   7.399  2.0923  1.5651 -0.2588
 1004MOL0     H35480   6.679   8.527   7.243 -1.3506 -1.6027  1.1570
 1004MOL0     H35481   6.938   8.528   7.428  1.1439 -3.2778  0.2694
 1004MOL0     H35482   6.942   8.449   7.280 -1.4155  0.3898 -0.6678
 1004MOL0     H35483   6.909   8.635   7.150  0.2835 -0.7677  0.9108
 1004MOL0     H35484   6.885   8.752   7.286  0.7284 -0.1990  1.3085
 1004MOL0     H35485   7.114   8.681   7.366  0.1846 -0.4977 -0.2363
 1004MOL0     H35486   7.148   8.604   7.218  3.3882  1.8211  1.2033
 1004MOL0     H35487   7.041   8.901   7.211  2.3493  1.9234  0.5862
 1004MOL0     H35488   7.098   8.794   7.092 -0.7314  1.3601 -0.2551
 1004MOL0     H35489   7.242   8.903   7.340  3.0563 -0.1436  0.7181
 1004MOL0     H35490   7.308   8.785   7.226 -1.9961 -0.9957  1.6919
 1004MOL0     H35491   7.521   8.977   7.187  0.2233 -1.6277  0.5144
 1004MOL0     H35492   7.562   9.311   7.035  3.3888  0.8872  0.2769
 1004MOL0     H35493   7.593   9.266   7.206 -0.5598  0.3721 -0.6265
 1004MOL0     H35494   7.719   9.085   7.116  2.4488  2.3451  1.6826
 1004MOL0     H35495   7.665   9.119   6.943  3.2938  1.9364 -2.3817
 1004MOL0     H35496   7.826   9.311   7.114  0.3370 -0.2858  0.4617
 1004MOL0     H35497   7.798   9.317   6.937 -1.7644 -2.3376 -1.9064
 1004MOL0     H35498   7.929   9.091   6.912 -0.3686 -1.0497 -0.4377
 1004MOL0     H35499   7.964   9.091   7.082  3.0679  0.1988 -0.8437
 1004MOL0     H35500   8.171   9.367   6.813  2.6461  1.9207  1.4526
 1004MOL0     H35501   8.349   9.285   6.659 -0.9695  0.1376 -0.4001
 1004MOL0     H35502   8.744   8.856   6.923  1.9411  0.7126  0.8930
 1004MOL0     H35503   8.970   8.771   6.860 -2.9841 -0.4698  2.6251
 1004MOL0     H35504   9.134   8.659   6.766  1.0816 -1.8296 -0.8091
 1004MOL0     H35505   9.011   8.524   6.745 -0.8460 -0.4521  0.1171
 1004MOL0     H35506   9.237   8.567   6.542 -0.4137 -1.4607 -0.6789
 1004MOL0     H35507   9.264   8.477   6.696  0.9124  1.1548 -1.1201
 1004MOL0     H35508   9.080   8.332   6.661 -3.2261 -1.4123 -2.8984
 1004MOL0     H35509   9.065   8.385   6.498 -2.7418 -1.6017  1.7201
 1004MOL0     H35510   9.295   8.216   6.633  0.4802  2.9403  1.1362
 1004MOL0     H35511   9.352   8.314   6.512  1.4329 -2.0463  1.6968
 1004MOL0     H35512   9.212   8.234   6.343 -0.8656  0.1270 -0.4584
 1004MOL0     H35513   9.126   8.126   6.450  0.3290 -0.9742  1.7481
 1004MOL0     H35514   9.294   8.021   6.302  1.5705  3.3449 -1.2411
 1004MOL0     H35515   9.412   8.124   6.384 -0.6071  1.1952 -3.3862
 1004MOL0     H35516   9.227   7.957   6.561 -0.5311 -2.1086 -0.1978
 1004MOL0     H35517   9.405   7.982   6.578  0.3420 -2.8100  0.1714
 1004MOL0     H35518   9.439   7.806   6.407  0.4591  1.8109  0.6196
 1004MOL0     H35519   9.341   7.757   6.535  1.4726 -0.2122 -0.5288
 1004MOL0     H35520   8.837   8.763   6.451  2.1198 -0.3073  0.4316
 1004MOL0     H35521   8.637   8.908   6.508 -0.2076  0.8170 -0.3114
 1004MOL0     H35522   8.358   8.918   6.910 -0.6170 -0.0128 -0.1281
 1004MOL0     H35523   8.160   9.005   7.019 -0.2577 -3.0722 -1.6283
 1004MOL0     H35524   6.408   8.184   7.118  2.9391  3.2178  0.1020
 1004MOL0     H35525   6.382   7.985   6.937  0.4913 -0.2910  0.5680
 1004MOL0     H35526   6.564   7.772   6.650 -0.1415  0.8686  0.0702
 1004MOL0     H35527   6.562   7.659   6.464  0.6813  0.4838  1.6391
 1004MOL0     H35528   6.557   7.179   6.479  2.0765 -0.5928  0.1458
 1004MOL0     H35529   6.735   7.237   6.493  2.3330  2.6932 -1.8056
 1004MOL0     H35530   6.596   7.161   6.242  0.5986 -0.9812 -1.0267
 1004MOL0     H35531   6.726   7.088   6.319  1.9268  1.5328  2.5938
 1004MOL0     H35532   6.864   7.293   6.297 -0.6592 -1.2113 -0.3336
 1004MOL0     H35533   6.758   7.372   6.187 -1.3059 -1.1232 -1.4788
 1004MOL0     H35534   6.940   7.242   6.093 -0.1821  4.7147  3.7233
 1004MOL0     H35535   6.855   7.093   6.137  0.4368 -0.1341 -1.7311
 1004MOL0     H35536   6.655   7.279   5.795  0.7037 -2.9102 -0.8160
 1004MOL0     H35537   6.645   7.297   6.699 -1.6306  0.0625 -1.3868
 1004MOL0     H35538   6.579   7.291   6.916  0.2397 -0.5799 -2.9246
 1004MOL0     H35539   6.739   7.363   6.948 -0.2850  1.2451  0.4789
 1004MOL0     H35540   6.587   7.446   7.010 -2.4884  1.1708 -3.0372
 1005MOL0     O35541   0.736   8.153   5.914 -0.2497 -0.2187  0.6454
 1005MOL0     C35542   0.671   8.258   5.920  0.2290 -0.5676  0.6049
 1005MOL0     O35543   0.656   8.352   5.826 -0.1185 -0.1272 -0.7305
 1005MOL0     C35544   0.712   8.334   5.702 -0.5710  0.0356 -0.4333
 1005MOL0     C35545   0.634   8.368   5.594 -0.6234 -0.5174  1.2117
 1005MOL0     C35546   0.688   8.360   5.468  1.1152 -0.4137  0.1169
 1005MOL0     C35547   0.819   8.321   5.451  0.7689 -0.4311  1.4430
 1005MOL0     O35548   0.860   8.333   5.321  0.5304  0.0783 -0.1863
 1005MOL0     C35549   0.977   8.392   5.290  0.4284  0.4263 -0.7958
 1005MOL0     C35550   1.058   8.292   5.210 -0.2298 -0.7551 -0.3690
 1005MOL0     C35551   1.194   8.342   5.173 -0.2383  0.6698  0.0594
 1005MOL0     C35552   1.243   8.256   5.063 -0.5836 -0.6083 -0.4444
 1005MOL0     C35553   1.384   8.290   5.012 -0.3408 -0.2755  0.5137
 1005MOL0     C35554   1.423   8.441   4.987  0.0564  0.0552  0.3808
 1005MOL0     C35555   1.517   8.454   4.863 -0.1612  0.5412  0.3013
 1005MOL0     C35556   1.587   8.588   4.861 -0.2131  0.4036 -0.0880
 1005MOL0     N35557   1.712   8.593   4.939  0.2443  0.6006  0.3263
 1005MOL0     C35558   1.765   8.495   5.026  0.0732  0.4638 -0.3980
 1005MOL0     C35559   1.883   8.532   5.065 -0.3106 -0.2935 -0.4962
 1005MOL0     C35560   1.969   8.475   5.175 -0.0890 -0.0960  0.0585
 1005MOL0     C35561   2.039   8.344   5.144  0.0138  0.0328 -0.3095
 1005MOL0     C35562   2.156   8.327   5.241  0.0061 -0.1038 -0.3347
 1005MOL0     C35563   2.233   8.192   5.210  0.5282 -0.7299 -0.9857
 1005MOL0     O35564   2.141   8.080   5.206  0.2766  0.1115  0.1819
 1005MOL0     C35565   2.198   7.954   5.196 -0.2512 -0.4094  0.4031
 1005MOL0     C35566   2.117   7.857   5.141  0.4492 -0.0178  0.4481
 1005MOL0     C35567   2.157   7.718   5.142 -0.3161 -0.4405 -0.4796
 1005MOL0     C35568   2.297   7.684   5.170  0.1187 -0.0528 -0.0849
 1005MOL0     C35569   2.334   7.541   5.167 -1.0781 -0.4020 -0.0604
 1005MOL0     O35570   2.465   7.506   5.203 -0.0633  0.3223 -0.5153
 1005MOL0     C35571   2.496   7.376   5.193  0.2739 -0.0361  0.0546
 1005MOL0     C35572   2.524   7.320   5.071  0.5274 -0.8002 -0.2285
 1005MOL0     C35573   2.568   7.180   5.063  0.9103  0.8617  0.2388
 1005MOL0     C35574   2.585   7.102   5.174  0.8550  0.4043 -0.6851
 1005MOL0     O35575   2.627   6.973   5.182  0.2447 -0.3600 -0.3179
 1005MOL0     C35576   2.615   6.891   5.069 -0.0595  0.5825 -0.5162
 1005MOL0     C35577   2.483   6.811   5.050  0.5572 -0.4128  1.1674
 1005MOL0     C35578   2.370   6.902   5.000 -0.0455 -0.4549  0.2061
 1005MOL0     C35579   2.247   6.824   4.952 -0.3418  0.1157 -0.7005
 1005MOL0     C35580   2.143   6.896   4.876  0.0002 -0.7086  0.2256
 1005MOL0     C35581   2.094   7.026   4.939  0.7739 -0.3298 -0.0609
 1005MOL0     C35582   2.045   7.018   5.089  0.4709  0.6007  0.4292
 1005MOL0     C35583   1.961   7.133   5.140 -0.3452 -0.7704  0.3154
 1005MOL0    Cl35584   1.958   7.111   5.318 -0.0781 -0.2854  0.2573
 1005MOL0     C35585   2.571   7.167   5.296 -0.0488  0.7205  0.7199
 1005MOL0     C35586   2.539   7.304   5.307 -0.1677 -0.2121 -0.6979
 1005MOL0     O35587   2.248   7.465   5.127  0.0973  0.6345  0.6145
 1005MOL0     C35588   2.375   7.778   5.221 -0.2185  0.4768  0.0316
 1005MOL0     C35589   2.330   7.907   5.244 -0.2399 -0.7715 -0.3262
 1005MOL0     N35590   1.904   8.657   5.002  0.4890  0.0265  0.0249
 1005MOL0     N35591   1.797   8.693   4.935  0.4797 -0.5930  0.0879
 1005MOL0     C35592   0.904   8.283   5.558 -0.2793 -0.2892  0.3463
 1005MOL0     C35593   0.850   8.307   5.681  0.1659  0.3609 -0.8341
 1005MOL0     C35594   0.584   8.274   6.034  0.8208 -0.8569 -0.5347
 1005MOL0     C35595   0.477   8.372   6.039  0.4253  0.4226 -1.2101
 1005MOL0     C35596   0.401   8.409   6.141 -0.3245 -0.6704 -0.0412
 1005MOL0     C35597   0.423   8.347   6.264 -0.2775 -0.9081  0.6505
 1005MOL0     O35598   0.355   8.381   6.371  0.8700  1.3407 -0.1051
 1005MOL0     C35599   0.223   8.422   6.358  0.8539 -0.6992 -0.1302
 1005MOL0     C35600   0.164   8.412   6.504  0.9196 -0.6571  0.2503
 1005MOL0     C35601   0.018   8.460   6.521 -0.6018  0.3958 -0.1398
 1005MOL0     C35602  -0.045   8.428   6.656  0.7598 -0.3709 -0.5355
 1005MOL0     C35603  -0.188   8.454   6.655  0.0765 -0.2691  0.2423
 1005MOL0     C35604  -0.308   8.485   6.671 -0.9002  0.4809 -0.2427
 1005MOL0     C35605   0.524   8.255   6.275 -0.2128 -0.0462 -0.3838
 1005MOL0     C35606   0.604   8.216   6.167 -0.0073 -0.2060  0.3588
 1005MOL0     C35607   0.692   8.088   6.186  0.2484 -0.0456 -0.3189
 1005MOL0     H35608   0.531   8.401   5.602 -0.4708  0.3946 -0.3165
 1005MOL0     H35609   0.632   8.395   5.382  0.6163  1.9313  1.3134
 1005MOL0     H35610   0.960   8.487   5.239  0.8202  1.7861  1.4530
 1005MOL0     H35611   1.032   8.415   5.383  0.0663  0.9350 -0.7057
 1005MOL0     H35612   1.001   8.275   5.118 -1.4508  2.2902 -0.2732
 1005MOL0     H35613   1.074   8.200   5.267 -0.7052 -0.7447 -0.2202
 1005MOL0     H35614   1.271   8.329   5.250 -0.0658  2.7727  0.2815
 1005MOL0     H35615   1.177   8.445   5.142  0.1159  0.7714  0.2008
 1005MOL0     H35616   1.229   8.149   5.077 -1.6436 -0.6071 -1.3401
 1005MOL0     H35617   1.175   8.267   4.978 -1.7941 -2.0375  0.2906
 1005MOL0     H35618   1.461   8.249   5.079  1.3486  1.8334 -0.0260
 1005MOL0     H35619   1.388   8.235   4.918 -0.8177 -2.1918  1.5494
 1005MOL0     H35620   1.328   8.495   4.978  0.4201  0.6201 -0.1049
 1005MOL0     H35621   1.470   8.477   5.079  3.0501 -2.6638  0.0963
 1005MOL0     H35622   1.463   8.441   4.768  4.3969 -2.9879 -2.2682
 1005MOL0     H35623   1.589   8.372   4.863  1.2330  1.7157 -0.6655
 1005MOL0     H35624   1.613   8.614   4.758 -1.7983 -0.0831 -0.6417
 1005MOL0     H35625   1.524   8.664   4.907  1.7818  2.0251  0.1122
 1005MOL0     H35626   1.718   8.399   5.047  0.7788 -0.0885 -1.2432
 1005MOL0     H35627   2.045   8.553   5.187 -1.3599  1.1961 -0.0480
 1005MOL0     H35628   1.901   8.474   5.261 -0.9374 -1.2226 -0.6015
 1005MOL0     H35629   1.963   8.265   5.149  0.3005 -0.3572 -1.7481
 1005MOL0     H35630   2.089   8.349   5.047  0.4076 -0.1775 -0.1183
 1005MOL0     H35631   2.122   8.347   5.343  1.9107  0.9078  0.1596
 1005MOL0     H35632   2.226   8.409   5.224  0.6058 -0.8556 -1.6252
 1005MOL0     H35633   2.303   8.173   5.293 -0.3521  0.7885  0.1445
 1005MOL0     H35634   2.279   8.201   5.111  0.5077 -0.4968 -0.9746
 1005MOL0     H35635   2.019   7.895   5.114 -0.8782 -2.4864  1.4663
 1005MOL0     H35636   2.092   7.640   5.105 -1.8333  0.9449 -0.7960
 1005MOL0     H35637   2.515   7.376   4.979  0.4849 -0.2425  0.1092
 1005MOL0     H35638   2.580   7.124   4.971  1.8947 -2.3044  2.1414
 1005MOL0     H35639   2.651   6.943   4.980 -1.7766 -1.3735 -2.4401
 1005MOL0     H35640   2.685   6.819   5.112  0.9318  2.2164  0.7430
 1005MOL0     H35641   2.503   6.748   4.962 -1.0775  0.8955 -0.2058
 1005MOL0     H35642   2.449   6.752   5.136 -0.6056  3.6895  3.8306
 1005MOL0     H35643   2.338   6.970   5.079 -2.0912 -0.4018 -0.6024
 1005MOL0     H35644   2.414   6.958   4.917  0.1439  0.5856  0.9948
 1005MOL0     H35645   2.196   6.779   5.037  0.3487  0.3433 -0.1569
 1005MOL0     H35646   2.288   6.748   4.885  0.5720 -0.5070  0.5284
 1005MOL0     H35647   2.055   6.833   4.858  0.4490 -1.3331  0.1841
 1005MOL0     H35648   2.197   6.919   4.784 -3.5843  0.6196 -1.7404
 1005MOL0     H35649   2.172   7.101   4.923 -0.8712  1.2072 -1.2501
 1005MOL0     H35650   2.005   7.059   4.885  0.7564 -1.8495 -1.0130
 1005MOL0     H35651   2.135   6.996   5.148  1.2931 -0.3772 -1.1294
 1005MOL0     H35652   1.986   6.926   5.085 -0.9811  1.5401 -1.1090
 1005MOL0     H35653   2.014   7.228   5.128  0.8774 -1.4361  0.2576
 1005MOL0     H35654   1.859   7.156   5.108 -1.4953  4.2542  5.8416
 1005MOL0     H35655   2.582   7.106   5.385 -0.3497  1.0969  1.0192
 1005MOL0     H35656   2.516   7.360   5.397 -0.0235  2.7832 -2.3759
 1005MOL0     H35657   2.467   7.744   5.268  0.3303 -0.5578 -1.7200
 1005MOL0     H35658   2.399   7.969   5.300 -1.7361 -1.3937  2.4315
 1005MOL0     H35659   1.006   8.256   5.534 -1.2237 -3.4913 -0.5083
 1005MOL0     H35660   0.915   8.295   5.767 -0.0560  0.4774 -0.6498
 1005MOL0     H35661   0.479   8.439   5.954  2.3129  0.6486 -1.0316
 1005MOL0     H35662   0.335   8.494   6.129  0.5821 -0.4050 -4.9632
 1005MOL0     H35663   0.154   8.367   6.293  1.9923 -2.4669  0.0983
 1005MOL0     H35664   0.225   8.527   6.328 -0.1281 -0.7383 -0.3896
 1005MOL0     H35665   0.225   8.468   6.576 -2.1664  2.9892  0.3702
 1005MOL0     H35666   0.158   8.305   6.525 -1.2466 -0.7579 -0.6048
 1005MOL0     H35667  -0.032   8.409   6.438  0.9773 -1.0594 -0.2660
 1005MOL0     H35668   0.029   8.567   6.504 -0.8275  0.0014 -3.5136
 1005MOL0     H35669  -0.023   8.327   6.693 -0.4056 -1.3937 -2.4741
 1005MOL0     H35670  -0.001   8.500   6.726  4.2804 -1.6490 -1.2015
 1005MOL0     H35671  -0.412   8.494   6.694 -1.4556 -5.0348  0.8794
 1005MOL0     H35672   0.544   8.221   6.376 -3.2495  5.6798  2.6514
 1005MOL0     H35673   0.660   8.000   6.130 -1.4034  0.2856  0.0727
 1005MOL0     H35674   0.799   8.104   6.169  0.4941 -0.0018  1.0947
 1005MOL0     H35675   0.698   8.053   6.290  3.8575  3.6556  1.0372
 1006MOL0     O35676   5.453   6.863   4.551 -0.1788 -0.1938 -0.1490
 1006MOL0     C35677   5.430   6.814   4.439 -0.1033  0.3171 -0.3144
 1006MOL0     O35678   5.312   6.823   4.370  0.0224  0.4645  0.3285
 1006MOL0     C35679   5.209   6.892   4.432  0.6148 -0.2306  0.2653
 1006MOL0     C35680   5.106   6.817   4.497  0.9812 -0.6735 -0.4595
 1006MOL0     C35681   5.003   6.892   4.560 -0.0082  1.3778  0.3827
 1006MOL0     C35682   5.004   7.021   4.565  0.3880 -0.2258  0.0080
 1006MOL0     O35683   4.892   7.085   4.622 -0.2353  0.9058 -0.0776
 1006MOL0     C35684   4.907   7.105   4.762 -0.6503  0.0875 -0.3051
 1006MOL0     C35685   4.770   7.133   4.826 -0.6878 -0.6100  0.5344
 1006MOL0     C35686   4.662   7.028   4.814  0.4037 -0.3291  0.3089
 1006MOL0     C35687   4.689   6.904   4.902 -0.1675  1.0750 -0.3638
 1006MOL0     C35688   4.566   6.837   4.973 -0.6738  0.2756 -0.0905
 1006MOL0     C35689   4.620   6.734   5.078 -0.4609  0.6759 -1.3335
 1006MOL0     C35690   4.497   6.674   5.155 -0.4536 -0.1598 -1.0375
 1006MOL0     C35691   4.436   6.566   5.072 -0.5572 -0.5442 -0.0793
 1006MOL0     N35692   4.342   6.501   5.165  0.2503  0.1933  0.7154
 1006MOL0     C35693   4.205   6.533   5.173 -0.0996  0.1477  0.0004
 1006MOL0     C35694   4.150   6.421   5.242  0.4557  0.4764  0.0288
 1006MOL0     C35695   3.998   6.406   5.272 -0.1381  0.8061 -0.3815
 1006MOL0     C35696   3.918   6.316   5.182 -0.0658  0.7364  0.1049
 1006MOL0     C35697   3.771   6.328   5.203  0.2489 -0.9562 -0.1557
 1006MOL0     C35698   3.680   6.275   5.094 -0.5899  0.3620 -0.6398
 1006MOL0     O35699   3.544   6.326   5.095 -0.7497  0.0776 -0.3143
 1006MOL0     C35700   3.453   6.286   4.993 -0.0176  0.1746 -0.0681
 1006MOL0     C35701   3.499   6.219   4.881 -1.0777 -0.7924 -0.4184
 1006MOL0     C35702   3.415   6.170   4.786  0.1988  0.2726  0.9434
 1006MOL0     C35703   3.279   6.181   4.794 -1.7430 -0.0577  0.4479
 1006MOL0     C35704   3.180   6.106   4.710 -0.2254  0.2147 -0.9035
 1006MOL0     O35705   3.058   6.167   4.697  0.7942  0.8560 -0.5943
 1006MOL0     C35706   2.941   6.103   4.660  0.6719  0.1942 -1.1167
 1006MOL0     C35707   2.845   6.099   4.761 -0.1062 -0.2389  1.3403
 1006MOL0     C35708   2.719   6.049   4.728  0.5844  0.4060 -0.5409
 1006MOL0     C35709   2.689   6.015   4.593  0.0518 -0.6664 -0.4930
 1006MOL0     O35710   2.561   5.984   4.550 -0.3896  0.9029 -0.7338
 1006MOL0     C35711   2.509   5.858   4.616 -0.1697 -0.1812  0.3743
 1006MOL0     C35712   2.572   5.729   4.545 -0.2074 -0.0552 -0.0257
 1006MOL0     C35713   2.525   5.600   4.601 -0.4053  0.8680 -0.8133
 1006MOL0     C35714   2.387   5.577   4.534  0.4809  0.7328 -0.5247
 1006MOL0     C35715   2.332   5.452   4.591  0.3176  0.0531  0.2828
 1006MOL0     C35716   2.201   5.412   4.528 -0.1207 -0.0351 -0.2299
 1006MOL0     C35717   2.163   5.263   4.554  0.1801 -0.4108 -0.5323
 1006MOL0     C35718   2.015   5.245   4.512  0.4534 -0.1045 -0.0582
 1006MOL0    Cl35719   1.899   5.336   4.620 -0.3647 -0.1057 -0.0608
 1006MOL0     C35720   2.787   6.030   4.490 -0.5834 -0.5992 -0.4197
 1006MOL0     C35721   2.916   6.064   4.524 -0.4155 -0.2316  0.1609
 1006MOL0     O35722   3.204   5.990   4.672 -0.7233  0.2302 -0.3596
 1006MOL0     C35723   3.229   6.259   4.903 -0.3429 -0.4321  0.2603
 1006MOL0     C35724   3.322   6.312   5.002  0.1745 -0.1280  0.4043
 1006MOL0     N35725   4.253   6.339   5.278  0.5415 -0.1903  0.0006
 1006MOL0     N35726   4.365   6.385   5.234 -0.2385 -0.2530  0.2267
 1006MOL0     C35727   5.109   7.101   4.510  1.0174  0.0847 -0.0213
 1006MOL0     C35728   5.203   7.031   4.440  0.7228 -1.1185  0.0637
 1006MOL0     C35729   5.528   6.710   4.391  0.4931 -0.0465 -0.4156
 1006MOL0     C35730   5.488   6.642   4.276 -0.0116  0.5862 -0.0042
 1006MOL0     C35731   5.566   6.531   4.228  0.6815 -0.0534  0.0106
 1006MOL0     C35732   5.681   6.483   4.292 -0.6193  0.3551 -0.8713
 1006MOL0     O35733   5.751   6.371   4.249  0.5149 -0.0544  0.2286
 1006MOL0     C35734   5.728   6.311   4.128  0.3496 -0.3635  0.2391
 1006MOL0     C35735   5.817   6.187   4.105 -0.5153  0.5984 -0.2138
 1006MOL0     C35736   5.802   6.085   4.209  0.7920  0.2599  0.1121
 1006MOL0     C35737   5.807   6.124   4.354  1.2951  0.5868 -0.1690
 1006MOL0     C35738   5.800   6.007   4.442 -0.4842 -0.7684  0.6602
 1006MOL0     C35739   5.815   5.911   4.507  0.2362  0.0431 -0.6932
 1006MOL0     C35740   5.728   6.555   4.404 -0.2981 -0.0494 -0.6483
 1006MOL0     C35741   5.647   6.664   4.458 -0.6736  0.1387 -0.2910
 1006MOL0     C35742   5.696   6.719   4.592 -0.7231 -0.1831 -1.1840
 1006MOL0     H35743   5.096   6.710   4.507 -3.5498 -0.2330  4.3885
 1006MOL0     H35744   4.925   6.837   4.612  1.7149 -0.3077  1.3440
 1006MOL0     H35745   4.948   7.014   4.806 -0.5890 -0.1173 -0.7714
 1006MOL0     H35746   4.957   7.201   4.774 -0.5372  0.3227 -2.2372
 1006MOL0     H35747   4.736   7.222   4.772 -2.1058 -0.6730  1.2804
 1006MOL0     H35748   4.792   7.150   4.932 -1.5161  1.4051  0.4287
 1006MOL0     H35749   4.672   6.995   4.710 -2.2670 -1.8319  0.4550
 1006MOL0     H35750   4.573   7.085   4.841  1.1098  0.9828 -0.0623
 1006MOL0     H35751   4.740   6.831   4.839 -0.3536  0.8027 -0.2001
 1006MOL0     H35752   4.751   6.936   4.986  0.2441  0.9926 -0.6337
 1006MOL0     H35753   4.499   6.906   5.025 -1.2232 -0.4555  0.1827
 1006MOL0     H35754   4.507   6.782   4.900 -0.7103 -0.4190  0.4514
 1006MOL0     H35755   4.692   6.662   5.036 -1.7291 -1.5753  0.1313
 1006MOL0     H35756   4.676   6.791   5.151 -0.2612 -0.0924 -0.8749
 1006MOL0     H35757   4.425   6.752   5.181  0.1899  0.2096 -0.3424
 1006MOL0     H35758   4.531   6.621   5.244 -0.7874 -0.8883 -1.3337
 1006MOL0     H35759   4.379   6.589   4.982  2.6815 -4.5992 -3.6169
 1006MOL0     H35760   4.510   6.496   5.030 -1.4290 -0.9361 -1.0066
 1006MOL0     H35761   4.155   6.617   5.125  0.5893 -0.0771 -1.1419
 1006MOL0     H35762   3.994   6.368   5.374  0.3449 -0.7401 -0.9212
 1006MOL0     H35763   3.959   6.508   5.288  2.0745  1.2555  3.3180
 1006MOL0     H35764   3.945   6.347   5.080 -0.5074  4.3090  0.9285
 1006MOL0     H35765   3.947   6.211   5.191 -0.2452  0.5565 -1.2333
 1006MOL0     H35766   3.735   6.431   5.213 -2.9125 -2.0695  1.4145
 1006MOL0     H35767   3.736   6.271   5.290 -0.1795 -1.6910 -0.7991
 1006MOL0     H35768   3.670   6.166   5.101 -0.7664  0.4714  1.7765
 1006MOL0     H35769   3.717   6.303   4.996 -1.2369  0.2682 -0.9176
 1006MOL0     H35770   3.601   6.181   4.879 -0.9159 -0.3886 -0.1600
 1006MOL0     H35771   3.459   6.125   4.697  1.0177  0.9469  0.9890
 1006MOL0     H35772   2.873   6.141   4.857 -1.5830  3.7196  0.2354
 1006MOL0     H35773   2.636   6.040   4.797 -0.2135 -1.3185 -1.6397
 1006MOL0     H35774   2.529   5.863   4.724  1.9905 -1.5492  0.0984
 1006MOL0     H35775   2.401   5.851   4.607 -0.0775  0.0959 -1.1467
 1006MOL0     H35776   2.563   5.743   4.437 -0.8542  0.1261  0.0464
 1006MOL0     H35777   2.681   5.717   4.556 -0.2782  0.3811  1.3133
 1006MOL0     H35778   2.592   5.518   4.572  0.5711  1.1238  0.6267
 1006MOL0     H35779   2.525   5.589   4.709  1.1617 -2.6110 -1.0184
 1006MOL0     H35780   2.390   5.573   4.425  2.1640 -0.9220 -0.4642
 1006MOL0     H35781   2.319   5.652   4.576 -1.6563 -1.4973  0.3039
 1006MOL0     H35782   2.323   5.459   4.699  0.1922  1.7178  0.1864
 1006MOL0     H35783   2.409   5.380   4.562  0.2082  0.9022 -2.4188
 1006MOL0     H35784   2.138   5.492   4.567  0.5280  0.5515 -0.3769
 1006MOL0     H35785   2.219   5.424   4.420 -3.5722  0.6471 -0.8739
 1006MOL0     H35786   2.194   5.237   4.656  0.0268  1.3534 -0.0086
 1006MOL0     H35787   2.217   5.200   4.483 -1.3647  0.5576 -2.6798
 1006MOL0     H35788   2.004   5.271   4.406  1.0136 -1.9020 -0.5959
 1006MOL0     H35789   1.991   5.139   4.503  1.2346 -0.1750 -1.9631
 1006MOL0     H35790   2.770   6.016   4.384  2.8144  2.5615 -1.5952
 1006MOL0     H35791   3.000   6.063   4.456 -0.6792  0.4833 -0.1803
 1006MOL0     H35792   3.124   6.270   4.930  0.2894  1.3881  2.3124
 1006MOL0     H35793   3.280   6.363   5.089  0.1224 -2.9004  2.1413
 1006MOL0     H35794   5.113   7.209   4.516 -0.3584  0.1029  1.0029
 1006MOL0     H35795   5.284   7.087   4.395  1.1394  0.6507  2.7556
 1006MOL0     H35796   5.395   6.660   4.223  0.3816 -0.2454 -1.0286
 1006MOL0     H35797   5.536   6.474   4.140  0.0884  1.4000 -0.7552
 1006MOL0     H35798   5.744   6.387   4.052 -2.0827 -0.0888 -0.0962
 1006MOL0     H35799   5.622   6.287   4.110 -0.7526  4.8534 -2.2100
 1006MOL0     H35800   5.921   6.220   4.107 -0.2509 -0.2219  0.2309
 1006MOL0     H35801   5.800   6.129   4.013 -2.8965 -0.5050  0.8349
 1006MOL0     H35802   5.873   6.008   4.179 -3.0078 -2.8967 -1.6579
 1006MOL0     H35803   5.703   6.042   4.189  0.8505  0.6884 -1.1992
 1006MOL0     H35804   5.898   6.181   4.377  0.4618  1.1079  2.1198
 1006MOL0     H35805   5.720   6.186   4.379 -0.9760 -1.9761 -1.1627
 1006MOL0     H35806   5.840   5.845   4.587 -3.6073 -1.7074 -0.7175
 1006MOL0     H35807   5.815   6.511   4.452 -1.1329 -0.3663  0.6425
 1006MOL0     H35808   5.648   6.672   4.678 -2.1177 -0.0401 -1.8597
 1006MOL0     H35809   5.806   6.719   4.592 -0.7031  1.0827 -0.9188
 1006MOL0     H35810   5.682   6.825   4.616  1.4359 -0.5368  2.3550
 1007MOL0     O35811   9.291   6.941  10.768  0.2535 -0.9404 -0.5736
 1007MOL0     C35812   9.207   7.000  10.696  0.5874  0.3292  1.3123
 1007MOL0     O35813   9.074   7.008  10.723 -0.3941  0.5917 -0.3240
 1007MOL0     C35814   9.033   6.988  10.855 -0.8798  0.6443 -0.5232
 1007MOL0     C35815   8.918   6.902  10.883 -0.4648  0.5411  1.1447
 1007MOL0     C35816   8.876   6.885  11.013  0.3024 -0.9412 -0.4390
 1007MOL0     C35817   8.934   6.946  11.117  1.1660 -0.2007 -0.6409
 1007MOL0     O35818   8.885   6.942  11.244  0.3767  0.7075 -1.1190
 1007MOL0     C35819   8.750   6.975  11.259 -0.1825 -0.3482  0.1214
 1007MOL0     C35820   8.706   6.952  11.402  0.2060 -0.5182 -0.0783
 1007MOL0     C35821   8.670   6.805  11.425  0.2700  0.3608 -0.9506
 1007MOL0     C35822   8.618   6.788  11.570 -0.2320 -1.2275 -0.2161
 1007MOL0     C35823   8.552   6.652  11.588 -0.3628 -0.0468  1.1251
 1007MOL0     C35824   8.593   6.583  11.725  0.0418 -0.7145  0.3760
 1007MOL0     C35825   8.546   6.655  11.849 -0.1484 -0.4648 -0.1542
 1007MOL0     C35826   8.612   6.606  11.978 -0.4652 -0.1861 -0.6825
 1007MOL0     N35827   8.632   6.717  12.083 -0.1816  0.5736  0.5889
 1007MOL0     C35828   8.530   6.774  12.151 -0.0206 -0.4761  0.2373
 1007MOL0     C35829   8.580   6.888  12.204  0.5548  1.1954 -0.2592
 1007MOL0     C35830   8.516   6.996  12.282  0.1211  0.2371  0.1423
 1007MOL0     C35831   8.523   6.957  12.429 -0.0306  0.4621  0.2825
 1007MOL0     C35832   8.500   7.087  12.512  0.5964  1.1970  0.2415
 1007MOL0     C35833   8.626   7.180  12.524  0.6090  0.0856  0.3721
 1007MOL0     O35834   8.606   7.298  12.592  0.4623 -0.2360  0.2238
 1007MOL0     C35835   8.711   7.385  12.610  0.0558 -0.8099  0.0739
 1007MOL0     C35836   8.677   7.502  12.675 -1.1389 -0.9218  0.0126
 1007MOL0     C35837   8.775   7.601  12.692  0.1541 -0.6300  0.2879
 1007MOL0     C35838   8.909   7.572  12.673  0.0581  0.1845 -0.3720
 1007MOL0     C35839   9.014   7.668  12.705 -0.0064 -0.9002 -0.0069
 1007MOL0     O35840   8.962   7.796  12.739  0.0895  0.0910  0.3493
 1007MOL0     C35841   9.054   7.882  12.799  0.5868  1.0118  1.0873
 1007MOL0     C35842   9.026   8.011  12.775 -0.6987 -0.0457  0.3790
 1007MOL0     C35843   9.100   8.116  12.832 -0.4981  1.6431  0.4375
 1007MOL0     C35844   9.211   8.083  12.908  0.0967 -0.3763 -0.5088
 1007MOL0     O35845   9.283   8.175  12.982 -0.3404  0.1694 -0.0738
 1007MOL0     C35846   9.315   8.296  12.904 -0.3080  0.0566 -0.8875
 1007MOL0     C35847   9.430   8.358  12.995  0.5748  1.0151 -0.9743
 1007MOL0     C35848   9.359   8.455  13.095 -0.5537 -1.3321  0.1292
 1007MOL0     C35849   9.374   8.605  13.078  0.5335  0.2663 -0.9605
 1007MOL0     C35850   9.301   8.694  13.180  0.4403  0.9852  0.0315
 1007MOL0     C35851   9.332   8.660  13.328  0.0132  0.6551  0.2245
 1007MOL0     C35852   9.467   8.711  13.378 -0.6482  0.6653 -0.7104
 1007MOL0     C35853   9.595   8.631  13.340 -0.2205 -0.8411  0.5184
 1007MOL0    Cl35854   9.711   8.670  13.471  0.6213 -0.4924 -0.0229
 1007MOL0     C35855   9.249   7.949  12.924 -0.5648 -0.5130 -0.7269
 1007MOL0     C35856   9.178   7.846  12.860  1.0063  0.6671  0.0445
 1007MOL0     O35857   9.137   7.640  12.684  0.2053 -0.9158 -0.5767
 1007MOL0     C35858   8.939   7.452  12.606  0.2427  1.2081 -0.2520
 1007MOL0     C35859   8.841   7.363  12.572  0.0283  0.9977 -0.1677
 1007MOL0     N35860   8.717   6.887  12.180 -0.8339 -0.1382 -0.5345
 1007MOL0     N35861   8.748   6.788  12.103  0.3683 -1.2675  0.0117
 1007MOL0     C35862   9.044   7.021  11.094  0.0226 -1.2963 -0.4900
 1007MOL0     C35863   9.090   7.039  10.960 -0.0322 -0.1686 -0.3832
 1007MOL0     C35864   9.256   7.046  10.560  0.3001  0.1679  0.1219
 1007MOL0     C35865   9.157   7.088  10.467 -0.4287  1.2979 -0.0805
 1007MOL0     C35866   9.186   7.153  10.349  0.4541  0.8255 -0.0006
 1007MOL0     C35867   9.320   7.191  10.321 -0.8996  0.2548 -0.4886
 1007MOL0     O35868   9.368   7.271  10.219 -0.5102  0.0526  0.3511
 1007MOL0     C35869   9.290   7.279  10.102 -0.8328  0.2921  0.6457
 1007MOL0     C35870   9.283   7.156  10.006 -0.7061  0.6507 -0.7780
 1007MOL0     C35871   9.388   7.156   9.889  0.2379  0.3177  0.3104
 1007MOL0     C35872   9.387   7.035   9.807  0.1318 -0.2793 -0.0688
 1007MOL0     C35873   9.427   6.909   9.879 -0.1610 -0.3846  0.0656
 1007MOL0     C35874   9.464   6.817   9.951 -0.9738 -0.0047  0.2885
 1007MOL0     C35875   9.423   7.144  10.409  0.4062 -0.0583 -0.3463
 1007MOL0     C35876   9.392   7.072  10.529 -0.8547 -0.2641  0.7430
 1007MOL0     C35877   9.505   7.047  10.627  0.0575 -0.0004  0.1091
 1007MOL0     H35878   8.882   6.870  10.786 -0.3270  2.2793  0.4721
 1007MOL0     H35879   8.796   6.827  11.057  0.9446 -0.1024  1.9754
 1007MOL0     H35880   8.728   7.076  11.223  2.0271  0.3389  0.5199
 1007MOL0     H35881   8.679   6.922  11.194  0.0215  1.7821 -2.0056
 1007MOL0     H35882   8.623   7.018  11.429  2.4263  3.3721 -1.8373
 1007MOL0     H35883   8.791   6.987  11.462  0.4224  0.7730 -1.0934
 1007MOL0     H35884   8.756   6.738  11.413  1.0547  0.0890  4.2043
 1007MOL0     H35885   8.584   6.774  11.365  1.7354 -1.5274 -2.1973
 1007MOL0     H35886   8.705   6.800  11.635 -2.5141 -0.9190  2.9623
 1007MOL0     H35887   8.547   6.865  11.601  0.1409 -1.0417  0.1957
 1007MOL0     H35888   8.447   6.663  11.559 -0.0683  1.6588  0.5995
 1007MOL0     H35889   8.587   6.578  11.516  1.2712  1.0313  0.7397
 1007MOL0     H35890   8.566   6.477  11.718 -0.3540 -0.8071  2.5753
 1007MOL0     H35891   8.702   6.582  11.729  0.1460 -4.6158  2.9536
 1007MOL0     H35892   8.439   6.635  11.849 -0.5750  1.5410 -1.1490
 1007MOL0     H35893   8.567   6.761  11.834 -0.4583 -0.5693 -1.4549
 1007MOL0     H35894   8.565   6.524  12.033 -0.2240  0.5010  0.5714
 1007MOL0     H35895   8.711   6.564  11.959 -0.1690 -1.5033  3.0515
 1007MOL0     H35896   8.428   6.740  12.160 -1.0936  2.8236  2.3915
 1007MOL0     H35897   8.573   7.087  12.260  0.6006  0.3667  1.8215
 1007MOL0     H35898   8.412   7.009  12.250 -0.0979 -1.9426 -0.1934
 1007MOL0     H35899   8.442   6.886  12.449 -1.1305  1.0667 -1.7025
 1007MOL0     H35900   8.613   6.904  12.461 -0.7324  0.5099  2.4884
 1007MOL0     H35901   8.463   7.074  12.614 -3.7069  1.9788 -1.0428
 1007MOL0     H35902   8.414   7.136  12.467 -0.8767  1.1157  2.7603
 1007MOL0     H35903   8.662   7.206  12.424 -0.1390  2.4493  0.6610
 1007MOL0     H35904   8.710   7.131  12.573  1.4377  2.5399  1.5348
 1007MOL0     H35905   8.574   7.503  12.708 -1.7990  0.8348 -1.8508
 1007MOL0     H35906   8.736   7.697  12.724  0.0059 -1.0875  1.5558
 1007MOL0     H35907   8.945   8.042  12.709  0.0827  0.0643 -0.5512
 1007MOL0     H35908   9.064   8.218  12.826 -3.7463  0.6509  0.9452
 1007MOL0     H35909   9.358   8.275  12.805 -1.8293  2.3655 -2.1573
 1007MOL0     H35910   9.221   8.351  12.888 -2.7863 -3.9922 -1.7059
 1007MOL0     H35911   9.470   8.283  13.064 -3.5680  1.1319  1.9037
 1007MOL0     H35912   9.499   8.412  12.930  1.1026  0.3387 -0.9974
 1007MOL0     H35913   9.251   8.436  13.093 -0.5617 -1.3796  0.7926
 1007MOL0     H35914   9.403   8.429  13.192 -1.3465 -1.0263  0.5773
 1007MOL0     H35915   9.318   8.618  12.985 -1.7569  2.3491  0.5685
 1007MOL0     H35916   9.475   8.644  13.072  0.3242  1.1894  0.8680
 1007MOL0     H35917   9.193   8.689  13.164  0.7672 -0.7902 -2.2400
 1007MOL0     H35918   9.317   8.799  13.157 -0.4844  0.3232 -4.5426
 1007MOL0     H35919   9.271   8.721  13.396 -0.9054  0.2459 -0.2134
 1007MOL0     H35920   9.318   8.556  13.357  0.4337  0.6755  0.5091
 1007MOL0     H35921   9.453   8.721  13.486  0.5101 -1.4453 -0.3131
 1007MOL0     H35922   9.475   8.816  13.348 -2.2056  0.3400 -2.4857
 1007MOL0     H35923   9.573   8.524  13.351  0.1473 -0.8020  1.9010
 1007MOL0     H35924   9.638   8.654  13.242 -1.9654  2.2653  0.3517
 1007MOL0     H35925   9.328   7.932  12.997 -1.6699  1.0188  0.9042
 1007MOL0     H35926   9.214   7.746  12.882  0.3798  1.0552  3.2669
 1007MOL0     H35927   9.044   7.433  12.586  0.1011  0.1423 -0.0207
 1007MOL0     H35928   8.867   7.262  12.544  0.5982  1.6310 -2.0275
 1007MOL0     H35929   9.087   7.060  11.186 -1.4501 -2.7932  0.8871
 1007MOL0     H35930   9.185   7.091  10.957  1.2550 -2.4172 -0.9025
 1007MOL0     H35931   9.052   7.073  10.491 -0.5421 -2.0727 -2.0608
 1007MOL0     H35932   9.104   7.181  10.284 -2.2123  1.3341  3.3027
 1007MOL0     H35933   9.322   7.364  10.041 -2.4043  0.6923  0.3487
 1007MOL0     H35934   9.183   7.297  10.116 -1.3669 -0.6636 -1.7130
 1007MOL0     H35935   9.185   7.137   9.960 -1.7537  1.4204  1.0260
 1007MOL0     H35936   9.298   7.069  10.071  3.6521  1.5946 -0.2432
 1007MOL0     H35937   9.486   7.182   9.932  0.3756  0.5419 -0.1372
 1007MOL0     H35938   9.364   7.234   9.816  1.6746 -0.6503 -1.2709
 1007MOL0     H35939   9.285   7.026   9.767 -0.0260  1.6599 -0.1933
 1007MOL0     H35940   9.451   7.055   9.721  1.5172  0.1623  1.0380
 1007MOL0     H35941   9.479   6.758  10.039  0.1924  0.3322  0.3336
 1007MOL0     H35942   9.527   7.152  10.381  0.2956 -0.1499 -0.7930
 1007MOL0     H35943   9.527   6.941  10.640  0.5176 -0.0956 -1.2974
 1007MOL0     H35944   9.598   7.096  10.596  0.7598 -0.9396  0.6621
 1007MOL0     H35945   9.476   7.090  10.724 -0.1405  2.6113 -1.0329
 1008MOL0     O35946   1.524   1.279   4.681 -0.5895 -0.4090 -0.2780
 1008MOL0     C35947   1.409   1.230   4.689 -0.6464 -0.1170 -0.1407
 1008MOL0     O35948   1.374   1.105   4.622 -0.2102  0.1839 -0.2204
 1008MOL0     C35949   1.483   1.021   4.586  0.1599 -0.9037  0.6989
 1008MOL0     C35950   1.466   0.940   4.478  0.3228  1.2882 -0.1828
 1008MOL0     C35951   1.562   0.845   4.445  0.0038 -0.6142  0.0546
 1008MOL0     C35952   1.679   0.832   4.516 -0.4739  0.3603 -0.7747
 1008MOL0     O35953   1.767   0.737   4.467 -0.0922 -0.2166 -0.0404
 1008MOL0     C35954   1.918   0.770   4.481 -0.5896 -0.5857 -0.3607
 1008MOL0     C35955   1.988   0.704   4.367 -0.5878 -0.5848 -0.1701
 1008MOL0     C35956   1.991   0.551   4.414 -0.6002  0.5942  0.3925
 1008MOL0     C35957   1.944   0.462   4.292  0.1104 -0.6117 -0.5441
 1008MOL0     C35958   2.060   0.427   4.194  0.0026  0.8069  0.6895
 1008MOL0     C35959   2.015   0.330   4.085 -0.0436 -0.1527  0.6579
 1008MOL0     C35960   1.967   0.428   3.982  0.7732 -0.2132  0.2091
 1008MOL0     C35961   1.905   0.337   3.871 -0.1971  0.2975 -0.1943
 1008MOL0     N35962   1.949   0.386   3.739  0.3671 -0.4939  0.4169
 1008MOL0     C35963   2.091   0.395   3.710 -0.0330 -0.6453  0.1614
 1008MOL0     C35964   2.107   0.413   3.581  0.3960 -0.3842 -0.2543
 1008MOL0     C35965   2.236   0.419   3.508  0.2108 -0.4111 -0.0289
 1008MOL0     C35966   2.220   0.393   3.362 -0.6133 -0.4944 -0.2744
 1008MOL0     C35967   2.171   0.256   3.318 -0.9090 -0.0045 -0.4658
 1008MOL0     C35968   2.138   0.226   3.172 -0.9030 -1.4470 -1.3852
 1008MOL0     O35969   2.265   0.243   3.106 -1.0142  0.2254  0.0588
 1008MOL0     C35970   2.263   0.240   2.972  0.4237 -0.1185  0.5617
 1008MOL0     C35971   2.380   0.287   2.902  0.7895  1.4320  0.0714
 1008MOL0     C35972   2.375   0.289   2.755 -0.0394 -0.0799 -0.0120
 1008MOL0     C35973   2.265   0.238   2.680 -0.4064 -0.1605 -0.1073
 1008MOL0     C35974   2.267   0.237   2.531  0.5148 -0.2145 -0.6822
 1008MOL0     O35975   2.207   0.120   2.477  0.5507  0.0131  0.1571
 1008MOL0     C35976   2.206   0.095   2.339 -0.5699  0.0251 -0.5646
 1008MOL0     C35977   2.107  -0.002   2.308  0.0603  0.3936 -1.0498
 1008MOL0     C35978   2.078  -0.028   2.173  0.9671  0.1103  0.2694
 1008MOL0     C35979   2.150   0.035   2.070 -0.2046 -0.0035 -1.3474
 1008MOL0     O35980   2.137  -0.003   1.941  1.4947  0.4275  0.4746
 1008MOL0     C35981   2.032  -0.089   1.900  0.3637 -0.0374 -0.0490
 1008MOL0     C35982   2.036  -0.105   1.757  0.2561 -1.2408  0.4714
 1008MOL0     C35983   1.921  -0.179   1.705 -0.0877  0.8167  0.2938
 1008MOL0     C35984   1.916  -0.181   1.555  0.3183 -1.3807  0.2493
 1008MOL0     C35985   1.832  -0.069   1.489  1.0842  0.2756  0.4345
 1008MOL0     C35986   1.903   0.028   1.389  0.3135  0.4386 -0.3037
 1008MOL0     C35987   1.958  -0.039   1.260 -0.1068 -0.4034 -0.0791
 1008MOL0     C35988   1.848  -0.097   1.169  0.0406 -0.6567 -0.5669
 1008MOL0    Cl35989   1.737   0.016   1.099 -0.2050 -0.5087 -0.2195
 1008MOL0     C35990   2.249   0.129   2.109 -0.4504  0.8232 -0.3392
 1008MOL0     C35991   2.276   0.151   2.245  0.3996  0.0555 -0.3396
 1008MOL0     O35992   2.320   0.324   2.465  0.1386 -0.2978 -0.1400
 1008MOL0     C35993   2.155   0.191   2.752  0.7272  0.1223 -0.5010
 1008MOL0     C35994   2.157   0.191   2.899 -0.3645 -0.4335  0.2673
 1008MOL0     N35995   1.980   0.414   3.522  0.0974  0.8343 -0.1155
 1008MOL0     N35996   1.891   0.388   3.619 -0.5947  0.9656  1.3902
 1008MOL0     C35997   1.694   0.914   4.626 -0.1544  0.5667  0.8425
 1008MOL0     C35998   1.595   0.998   4.668  0.7957  0.0989 -0.8854
 1008MOL0     C35999   1.308   1.302   4.766  0.5050 -0.1774 -1.1838
 1008MOL0     C36000   1.175   1.274   4.733 -0.1643 -0.0363  0.1912
 1008MOL0     C36001   1.069   1.351   4.780  0.9364 -0.3925  0.3934
 1008MOL0     C36002   1.090   1.449   4.865 -0.7552 -0.6771 -0.5004
 1008MOL0     O36003   0.986   1.532   4.917 -0.3547 -0.4156  0.0686
 1008MOL0     C36004   0.953   1.541   5.060 -0.1584 -0.2014  0.7882
 1008MOL0     C36005   0.858   1.427   5.099 -0.1234 -0.5812  0.4168
 1008MOL0     C36006   0.712   1.473   5.075 -0.5654  0.5857 -0.0005
 1008MOL0     C36007   0.666   1.502   4.927 -0.4243 -0.4348 -0.9804
 1008MOL0     C36008   0.525   1.544   4.917 -0.1981  0.6490  1.0248
 1008MOL0     C36009   0.411   1.580   4.905 -0.6608  0.0816  0.0870
 1008MOL0     C36010   1.220   1.473   4.915 -0.0381  0.1011  0.0935
 1008MOL0     C36011   1.323   1.402   4.864 -0.1650  0.6959  0.6879
 1008MOL0     C36012   1.452   1.425   4.933 -0.1246 -0.5418  1.1500
 1008MOL0     H36013   1.383   0.949   4.409  0.6206 -0.3140 -0.7927
 1008MOL0     H36014   1.530   0.780   4.364 -1.7215  1.3960 -0.9851
 1008MOL0     H36015   1.925   0.879   4.472 -1.8630 -0.4508  0.0646
 1008MOL0     H36016   1.968   0.747   4.575  0.5419  0.7211 -0.6110
 1008MOL0     H36017   2.092   0.734   4.357 -0.5218 -0.7847 -0.0897
 1008MOL0     H36018   1.941   0.712   4.268 -0.0576  0.4651 -0.3514
 1008MOL0     H36019   1.932   0.525   4.502 -0.2291  1.5514  0.9380
 1008MOL0     H36020   2.092   0.523   4.444 -0.6042  2.5949  2.5702
 1008MOL0     H36021   1.915   0.364   4.332  1.6273 -1.3097 -1.0776
 1008MOL0     H36022   1.857   0.512   4.248  1.3768  0.3920 -2.0100
 1008MOL0     H36023   2.122   0.510   4.158  1.8348 -1.6251 -2.2249
 1008MOL0     H36024   2.131   0.371   4.256 -0.4847 -1.1996 -0.4888
 1008MOL0     H36025   2.096   0.265   4.051  0.2907 -0.1752  1.4626
 1008MOL0     H36026   1.933   0.264   4.114  0.4775 -0.6198  1.1060
 1008MOL0     H36027   2.050   0.492   3.954 -0.0205  0.3008 -1.0060
 1008MOL0     H36028   1.892   0.499   4.018  1.3256  0.3525  0.2455
 1008MOL0     H36029   1.949   0.237   3.876  0.8520  0.6231 -2.0067
 1008MOL0     H36030   1.796   0.343   3.872 -0.2778 -0.8703 -0.0420
 1008MOL0     H36031   2.177   0.398   3.777  0.6237 -0.7568 -0.6606
 1008MOL0     H36032   2.282   0.518   3.509 -2.3534  0.9635 -2.5363
 1008MOL0     H36033   2.299   0.345   3.557  6.2326  3.3326 -1.1057
 1008MOL0     H36034   2.154   0.473   3.325 -1.6292 -0.8746  0.6407
 1008MOL0     H36035   2.317   0.410   3.316 -1.5069  0.9638 -1.7593
 1008MOL0     H36036   2.079   0.238   3.375 -1.5501  2.4574 -0.6458
 1008MOL0     H36037   2.243   0.181   3.354 -1.6211 -0.3080  0.3817
 1008MOL0     H36038   2.063   0.299   3.138 -0.3104  0.5126  1.2456
 1008MOL0     H36039   2.103   0.123   3.160 -2.3125 -1.1719  0.0217
 1008MOL0     H36040   2.469   0.314   2.958  1.6450  2.2687 -1.6044
 1008MOL0     H36041   2.459   0.337   2.705  0.1553 -1.2968 -0.8842
 1008MOL0     H36042   2.063  -0.066   2.384 -3.2192  3.7246  0.1619
 1008MOL0     H36043   2.003  -0.101   2.143  2.1867 -2.4844  2.8797
 1008MOL0     H36044   2.029  -0.190   1.941 -0.3134 -0.8017 -1.8761
 1008MOL0     H36045   1.932  -0.054   1.925 -0.1096  0.0755 -1.9471
 1008MOL0     H36046   2.029  -0.001   1.722  0.0678 -1.6957 -0.8884
 1008MOL0     H36047   2.127  -0.147   1.713  0.3544 -1.4837  0.9088
 1008MOL0     H36048   1.937  -0.283   1.735 -1.0480  0.0063 -1.7934
 1008MOL0     H36049   1.826  -0.140   1.744 -0.3556  0.2509  0.2258
 1008MOL0     H36050   1.865  -0.270   1.517 -3.0389  1.1214 -1.5621
 1008MOL0     H36051   2.018  -0.183   1.515 -0.3693 -1.9913 -1.5534
 1008MOL0     H36052   1.796  -0.000   1.566  0.6254 -2.2629  2.6324
 1008MOL0     H36053   1.738  -0.105   1.448  0.8813 -0.2789  1.3537
 1008MOL0     H36054   1.842   0.112   1.353 -0.0503 -0.6866 -2.5117
 1008MOL0     H36055   1.981   0.073   1.452  0.5668 -3.3334  2.3758
 1008MOL0     H36056   2.034  -0.109   1.293 -1.5724 -0.4594  3.6496
 1008MOL0     H36057   2.017   0.038   1.208  0.1299  0.3533  1.2482
 1008MOL0     H36058   1.902  -0.142   1.085  0.0168 -0.3438 -0.7509
 1008MOL0     H36059   1.789  -0.178   1.215  0.6909 -1.1848 -0.6519
 1008MOL0     H36060   2.308   0.179   2.033  0.4963 -2.4455 -1.9511
 1008MOL0     H36061   2.362   0.215   2.263 -1.1590  1.2329  4.6362
 1008MOL0     H36062   2.070   0.176   2.686  1.7576  0.3170 -1.9044
 1008MOL0     H36063   2.067   0.159   2.951 -0.4736  2.8156  2.3981
 1008MOL0     H36064   1.777   0.886   4.691 -0.9912 -0.5933  1.4355
 1008MOL0     H36065   1.607   1.037   4.769  1.1957  1.9368 -1.6072
 1008MOL0     H36066   1.163   1.194   4.661  3.6360 -1.4369  0.8900
 1008MOL0     H36067   0.965   1.343   4.748  1.5624  1.1748 -2.4032
 1008MOL0     H36068   0.897   1.634   5.075  0.8014  0.5981 -0.3982
 1008MOL0     H36069   1.039   1.552   5.127  0.4158  1.5362 -0.1650
 1008MOL0     H36070   0.856   1.411   5.207 -2.4847  0.3507  0.5749
 1008MOL0     H36071   0.886   1.345   5.033  1.2780 -0.7582  1.1915
 1008MOL0     H36072   0.689   1.563   5.133 -2.3167  0.5875 -0.6337
 1008MOL0     H36073   0.652   1.391   5.116  0.8609  0.6975  2.4810
 1008MOL0     H36074   0.736   1.577   4.889  1.6109 -1.7668 -0.0622
 1008MOL0     H36075   0.675   1.412   4.865 -0.0977 -2.2618  1.5649
 1008MOL0     H36076   0.311   1.616   4.892 -0.5454  0.1132 -0.7917
 1008MOL0     H36077   1.237   1.560   4.977 -0.7088 -0.0465  0.4896
 1008MOL0     H36078   1.511   1.456   4.847  0.6215 -2.5724  0.8643
 1008MOL0     H36079   1.459   1.503   5.009  1.3912  1.4149 -0.8961
 1008MOL0     H36080   1.488   1.326   4.964 -2.1299 -1.0001  2.1794
 1009MOL0     O36081   6.123   6.151   2.744 -0.0930  0.2576  0.7729
 1009MOL0     C36082   6.021   6.095   2.705  0.3390  0.3900 -0.6490
 1009MOL0     O36083   5.990   6.070   2.574  0.0623  0.3221  0.7481
 1009MOL0     C36084   6.088   6.065   2.478 -0.1425 -0.1189 -0.2037
 1009MOL0     C36085   6.061   6.097   2.344 -0.0871  0.3571  0.5852
 1009MOL0     C36086   6.150   6.091   2.239 -0.1629  1.2884  0.7367
 1009MOL0     C36087   6.275   6.044   2.269  0.0635  0.0015  0.3817
 1009MOL0     O36088   6.365   6.032   2.169  0.0807  0.0081 -0.1744
 1009MOL0     C36089   6.471   5.941   2.166  0.3486 -0.8767  0.1568
 1009MOL0     C36090   6.484   5.874   2.025  0.5394  0.8762 -0.7219
 1009MOL0     C36091   6.602   5.777   2.024  1.0244 -0.0459 -1.0428
 1009MOL0     C36092   6.563   5.648   1.957 -0.7292  0.4911 -1.0326
 1009MOL0     C36093   6.681   5.567   1.907 -0.2717 -0.2509 -0.7725
 1009MOL0     C36094   6.630   5.439   1.837  0.3621 -0.4302  0.2840
 1009MOL0     C36095   6.731   5.359   1.771 -0.4727 -0.6242 -0.0002
 1009MOL0     C36096   6.689   5.222   1.708  0.4747 -0.0708  0.6357
 1009MOL0     N36097   6.626   5.132   1.810 -0.3998  0.3740  0.4494
 1009MOL0     C36098   6.650   5.124   1.945  0.6943  0.4319 -0.0302
 1009MOL0     C36099   6.580   5.024   1.994  0.1262 -0.0364  0.9424
 1009MOL0     C36100   6.549   5.015   2.139  0.4845  0.4259 -0.5013
 1009MOL0     C36101   6.623   4.902   2.203  0.0970  1.1369 -0.2457
 1009MOL0     C36102   6.573   4.756   2.164  0.0263  0.4075  0.7317
 1009MOL0     C36103   6.435   4.743   2.219 -0.5900  1.1085 -0.5260
 1009MOL0     O36104   6.344   4.664   2.134  0.3075 -0.3101 -0.1471
 1009MOL0     C36105   6.395   4.542   2.100 -0.4654  0.3949 -0.6003
 1009MOL0     C36106   6.378   4.503   1.973  0.1498 -0.9102  1.1388
 1009MOL0     C36107   6.441   4.394   1.909 -0.1767 -0.4266 -0.5158
 1009MOL0     C36108   6.495   4.290   1.995 -1.4078 -1.1507  0.0294
 1009MOL0     C36109   6.542   4.144   1.956  0.3400  0.0103  0.1169
 1009MOL0     O36110   6.611   4.067   2.051  0.3047 -0.4108 -0.2831
 1009MOL0     C36111   6.686   3.955   2.024 -0.0246  0.4827  1.3350
 1009MOL0     C36112   6.661   3.862   1.913 -0.1588 -0.0081 -0.3610
 1009MOL0     C36113   6.734   3.748   1.905 -0.0874  0.7117 -0.1717
 1009MOL0     C36114   6.827   3.704   2.000  0.6403 -0.7480 -0.3081
 1009MOL0     O36115   6.918   3.605   1.985 -0.1067  0.1974 -0.7518
 1009MOL0     C36116   6.909   3.540   1.853 -0.6474  0.4973 -0.6921
 1009MOL0     C36117   6.984   3.615   1.737  0.4804 -0.1479 -1.1026
 1009MOL0     C36118   6.986   3.530   1.612  0.2176 -0.3682 -1.1191
 1009MOL0     C36119   6.978   3.610   1.485  0.1845 -1.1135 -0.1587
 1009MOL0     C36120   6.833   3.659   1.456  0.1916  0.7203 -0.2072
 1009MOL0     C36121   6.809   3.705   1.315  0.0062  0.1839  0.4525
 1009MOL0     C36122   6.665   3.698   1.273  0.1767  0.3933 -0.0822
 1009MOL0     C36123   6.652   3.711   1.127  0.4317  0.0193  1.0027
 1009MOL0    Cl36124   6.756   3.611   1.036 -0.3341  0.6973  0.2006
 1009MOL0     C36125   6.843   3.786   2.112  0.0104 -0.0453 -0.3118
 1009MOL0     C36126   6.779   3.911   2.119 -0.1129  0.2361 -0.5901
 1009MOL0     O36127   6.519   4.120   1.841  0.0424  0.4128  0.7483
 1009MOL0     C36128   6.499   4.327   2.130  0.3577  0.4791  0.5535
 1009MOL0     C36129   6.458   4.451   2.181 -0.5115 -0.0232 -0.4397
 1009MOL0     N36130   6.532   4.948   1.892  0.5465 -0.3625  0.5555
 1009MOL0     N36131   6.549   5.018   1.782 -0.1032  0.3018  0.7773
 1009MOL0     C36132   6.312   6.015   2.397 -0.7176  0.7122  0.5285
 1009MOL0     C36133   6.216   6.011   2.497  0.0781 -0.9756  0.7915
 1009MOL0     C36134   5.901   6.094   2.802  0.0651 -0.1597 -0.9957
 1009MOL0     C36135   5.775   6.091   2.743 -0.3496  1.2726  0.4709
 1009MOL0     C36136   5.657   6.055   2.821  0.0359 -0.7395  0.8713
 1009MOL0     C36137   5.674   6.031   2.960  0.8629  0.2959 -0.2475
 1009MOL0     O36138   5.573   5.989   3.042  0.3255  0.4611 -0.5285
 1009MOL0     C36139   5.444   5.943   2.992 -0.3077 -0.2498  0.3617
 1009MOL0     C36140   5.360   6.080   2.973 -0.8014  0.3515 -0.8357
 1009MOL0     C36141   5.348   6.166   3.095  0.5723 -0.2657  0.2614
 1009MOL0     C36142   5.284   6.306   3.054 -0.5215  1.1208  1.4597
 1009MOL0     C36143   5.395   6.382   2.987 -0.2259  0.9253 -0.3708
 1009MOL0     C36144   5.502   6.427   2.955  0.4640  0.0524  0.1906
 1009MOL0     C36145   5.795   6.055   3.021 -0.2209 -0.1774 -0.0231
 1009MOL0     C36146   5.903   6.096   2.950 -1.3170 -0.1162  0.1595
 1009MOL0     C36147   6.045   6.105   3.020 -0.6756  0.0333  0.2574
 1009MOL0     H36148   5.957   6.127   2.331  0.2958  2.3436  1.6365
 1009MOL0     H36149   6.108   6.118   2.143 -1.8317 -0.0209  1.0510
 1009MOL0     H36150   6.558   6.004   2.185 -0.7540  0.9982 -0.7892
 1009MOL0     H36151   6.467   5.871   2.251  0.4721 -2.3137 -0.9736
 1009MOL0     H36152   6.501   5.947   1.945  1.6223  1.2900 -0.1417
 1009MOL0     H36153   6.382   5.835   2.018 -0.0656  1.6476  2.5123
 1009MOL0     H36154   6.627   5.763   2.129 -1.7605  0.5962 -0.2004
 1009MOL0     H36155   6.693   5.815   1.977  0.7205 -0.5152 -2.0372
 1009MOL0     H36156   6.495   5.594   2.024  0.0106  1.6672  0.7556
 1009MOL0     H36157   6.498   5.686   1.877 -0.7958  4.4098  0.6411
 1009MOL0     H36158   6.757   5.623   1.852 -1.0921  2.4004  0.6060
 1009MOL0     H36159   6.718   5.529   2.003 -1.9212 -1.5072 -0.5921
 1009MOL0     H36160   6.575   5.375   1.906  3.4086  0.1779  3.5627
 1009MOL0     H36161   6.555   5.467   1.762 -0.1697 -2.3822  0.0399
 1009MOL0     H36162   6.819   5.345   1.834 -0.3073  4.2096  1.2443
 1009MOL0     H36163   6.763   5.416   1.683  0.5268 -0.4751  0.4474
 1009MOL0     H36164   6.610   5.227   1.633 -2.0662  2.6452  3.2032
 1009MOL0     H36165   6.783   5.178   1.673  0.6686  1.2752 -0.5778
 1009MOL0     H36166   6.712   5.199   1.995  1.9299 -1.1388  0.8899
 1009MOL0     H36167   6.563   5.112   2.188  0.8634 -0.5634  1.4498
 1009MOL0     H36168   6.440   5.013   2.134  0.2092  5.5535 -2.6667
 1009MOL0     H36169   6.729   4.908   2.176  0.1900 -3.2818 -1.7720
 1009MOL0     H36170   6.616   4.906   2.312 -2.3959 -1.1533 -0.2169
 1009MOL0     H36171   6.646   4.680   2.192  2.0065  1.1801 -1.9030
 1009MOL0     H36172   6.569   4.754   2.054 -1.8376  3.6343  0.6029
 1009MOL0     H36173   6.383   4.835   2.247 -1.0135  0.3718  1.2649
 1009MOL0     H36174   6.450   4.697   2.318  0.7356  0.1230 -1.1553
 1009MOL0     H36175   6.342   4.588   1.917  2.1488  0.5840  2.0006
 1009MOL0     H36176   6.424   4.377   1.803  1.5245  2.9090 -1.4397
 1009MOL0     H36177   6.590   3.889   1.835  1.3231  1.9998 -1.1154
 1009MOL0     H36178   6.720   3.703   1.807  1.0980  0.8575 -0.4214
 1009MOL0     H36179   6.958   3.446   1.881  1.1852  2.3235  2.7935
 1009MOL0     H36180   6.811   3.498   1.827 -0.3222 -1.9376  1.5366
 1009MOL0     H36181   6.941   3.712   1.711  0.7139  0.6712  1.2882
 1009MOL0     H36182   7.083   3.627   1.782 -1.5561  1.5988  3.6136
 1009MOL0     H36183   7.085   3.484   1.617 -0.5032 -1.8542  1.7314
 1009MOL0     H36184   6.917   3.445   1.610 -0.3645  0.0456  0.1194
 1009MOL0     H36185   7.031   3.551   1.409  0.5820  1.1533 -1.7232
 1009MOL0     H36186   7.037   3.701   1.497 -1.1951 -0.0408 -1.2187
 1009MOL0     H36187   6.801   3.737   1.525 -4.4939 -0.2623 -0.9084
 1009MOL0     H36188   6.763   3.577   1.474 -0.0036  1.1697  1.1687
 1009MOL0     H36189   6.836   3.807   1.289 -0.9429  0.3920  0.2495
 1009MOL0     H36190   6.868   3.635   1.255 -0.0431 -1.2599  2.0031
 1009MOL0     H36191   6.602   3.778   1.315 -0.0223  1.2601 -1.9174
 1009MOL0     H36192   6.631   3.600   1.307 -1.9097  0.4746 -1.7111
 1009MOL0     H36193   6.551   3.688   1.090  1.1531 -2.1575  0.2412
 1009MOL0     H36194   6.675   3.815   1.101  2.0269 -0.6432 -0.3610
 1009MOL0     H36195   6.916   3.749   2.184 -0.1434 -2.2772 -1.2197
 1009MOL0     H36196   6.798   3.969   2.209 -1.4875  0.0354 -0.1422
 1009MOL0     H36197   6.541   4.248   2.192 -1.6707  0.7084  2.3662
 1009MOL0     H36198   6.453   4.452   2.289  1.0109 -0.2456 -0.3393
 1009MOL0     H36199   6.416   5.992   2.416 -0.1358  1.5103 -1.5126
 1009MOL0     H36200   6.239   5.971   2.595  0.3605  2.4829  2.2536
 1009MOL0     H36201   5.760   6.100   2.636 -2.9617  0.7533  0.7352
 1009MOL0     H36202   5.572   6.023   2.762 -0.2475 -0.1306  0.9427
 1009MOL0     H36203   5.392   5.873   3.059  0.3657 -2.0745 -0.9268
 1009MOL0     H36204   5.451   5.895   2.894 -0.2506  1.9370 -0.7592
 1009MOL0     H36205   5.261   6.055   2.933 -1.3760  2.6431 -0.9595
 1009MOL0     H36206   5.400   6.135   2.888 -0.9337  2.0105  0.1445
 1009MOL0     H36207   5.448   6.188   3.133  1.2980 -1.3595 -0.9210
 1009MOL0     H36208   5.287   6.119   3.173 -2.3411 -0.1987 -1.7938
 1009MOL0     H36209   5.203   6.284   2.984 -1.2812  0.7703  2.4300
 1009MOL0     H36210   5.252   6.368   3.138 -2.6781  0.7922  0.9497
 1009MOL0     H36211   5.595   6.481   2.951  0.6410 -0.0585  1.9694
 1009MOL0     H36212   5.809   6.053   3.129 -1.7714  0.3538  0.2165
 1009MOL0     H36213   6.102   6.016   2.991 -1.2537 -0.0617 -0.6300
 1009MOL0     H36214   6.107   6.190   2.990 -1.2926 -0.0911 -1.4598
 1009MOL0     H36215   6.030   6.110   3.128  1.2142 -0.7295  0.5975
 1010MOL0     O36216   7.671   6.663  11.264 -0.9099 -0.9933 -0.3349
 1010MOL0     C36217   7.770   6.616  11.203  0.0926  0.9282 -0.0310
 1010MOL0     O36218   7.810   6.482  11.233  0.2033 -1.0976  0.2858
 1010MOL0     C36219   7.755   6.414  11.333  0.8034 -0.4515 -0.3359
 1010MOL0     C36220   7.759   6.452  11.472  1.3401 -0.9405  0.0628
 1010MOL0     C36221   7.698   6.378  11.581 -0.0750  0.5865  0.1203
 1010MOL0     C36222   7.620   6.265  11.545  0.9291  1.2347  0.1057
 1010MOL0     O36223   7.554   6.178  11.629 -0.3514  0.9297  0.1691
 1010MOL0     C36224   7.569   6.208  11.772  0.2322  0.6314 -0.6874
 1010MOL0     C36225   7.490   6.110  11.852 -0.7254  1.0502 -0.0220
 1010MOL0     C36226   7.490   6.130  12.006  0.6431 -0.4716 -0.0971
 1010MOL0     C36227   7.631   6.151  12.075 -1.0889  0.1147 -0.3822
 1010MOL0     C36228   7.666   6.294  12.099  0.2660  0.5353  1.1609
 1010MOL0     C36229   7.807   6.309  12.147  0.6051 -0.2818 -0.4221
 1010MOL0     C36230   7.856   6.456  12.158  0.7432  0.6398 -0.3399
 1010MOL0     C36231   7.771   6.545  12.244 -0.9695  0.6098  0.1738
 1010MOL0     N36232   7.791   6.528  12.386  0.1796 -0.5859  0.5996
 1010MOL0     C36233   7.899   6.570  12.454 -0.6861  0.5627 -0.2892
 1010MOL0     C36234   7.888   6.526  12.580 -0.3949  0.8296  0.4382
 1010MOL0     C36235   7.993   6.517  12.693  0.3889 -0.7241 -0.6856
 1010MOL0     C36236   8.087   6.643  12.713  0.0084  0.0789 -0.3275
 1010MOL0     C36237   8.018   6.772  12.737 -0.4770 -0.0756 -0.5557
 1010MOL0     C36238   8.116   6.890  12.744  0.3132  0.7521  1.3387
 1010MOL0     O36239   8.055   7.001  12.799  0.6052 -0.5476 -0.2067
 1010MOL0     C36240   8.098   7.123  12.740 -0.5985  0.2319 -0.4528
 1010MOL0     C36241   8.000   7.218  12.709  0.5991  0.2939 -0.4760
 1010MOL0     C36242   8.029   7.350  12.670  0.4198 -0.2821  0.4009
 1010MOL0     C36243   8.166   7.370  12.653  1.0539 -0.0026 -0.1817
 1010MOL0     C36244   8.222   7.510  12.620  0.5102 -1.1618 -0.5959
 1010MOL0     O36245   8.360   7.531  12.608  0.2066  0.3537  0.2889
 1010MOL0     C36246   8.399   7.668  12.605 -0.4117 -0.3542  0.4266
 1010MOL0     C36247   8.435   7.734  12.493  0.7682  0.2851  0.1336
 1010MOL0     C36248   8.483   7.866  12.493  0.2711 -0.6621  0.3659
 1010MOL0     C36249   8.488   7.941  12.610  0.3413 -0.2456  0.4388
 1010MOL0     O36250   8.532   8.075  12.605  0.0444  0.7752  1.0700
 1010MOL0     C36251   8.471   8.166  12.694 -0.0974  0.5306  0.0081
 1010MOL0     C36252   8.474   8.305  12.625  0.0605  0.0080 -0.8377
 1010MOL0     C36253   8.425   8.412  12.725 -0.2238 -0.3570 -1.1854
 1010MOL0     C36254   8.449   8.562  12.693 -0.2264  0.2967  1.1317
 1010MOL0     C36255   8.386   8.661  12.797 -0.1439 -0.6051  1.0933
 1010MOL0     C36256   8.464   8.685  12.924 -0.0021 -0.1123  0.3992
 1010MOL0     C36257   8.589   8.772  12.910 -0.4435  0.1632  0.8366
 1010MOL0     C36258   8.615   8.870  13.018  0.2154 -0.0758  0.2233
 1010MOL0    Cl36259   8.591   8.794  13.182  0.0840 -0.0734  0.1019
 1010MOL0     C36260   8.464   7.877  12.726 -0.1936 -0.2823 -0.0234
 1010MOL0     C36261   8.429   7.743  12.723  0.1437 -0.0228 -0.2595
 1010MOL0     O36262   8.143   7.607  12.615  0.7018 -0.0199  0.0964
 1010MOL0     C36263   8.267   7.278  12.683 -0.5537  0.8970 -0.8422
 1010MOL0     C36264   8.229   7.156  12.728 -0.7898 -0.6090  0.3760
 1010MOL0     N36265   7.764   6.478  12.588  0.0357 -0.5798 -0.6910
 1010MOL0     N36266   7.707   6.475  12.473 -0.2365  0.0635 -1.0186
 1010MOL0     C36267   7.621   6.227  11.409 -0.5005  0.1008 -0.0523
 1010MOL0     C36268   7.692   6.303  11.304 -0.7668 -1.4410  0.6051
 1010MOL0     C36269   7.839   6.689  11.097 -0.3302  0.1136 -0.0215
 1010MOL0     C36270   7.801   6.819  11.084 -0.1387  0.1996  0.3943
 1010MOL0     C36271   7.884   6.922  11.026  0.9141  0.1361  0.6093
 1010MOL0     C36272   7.982   6.878  10.937 -0.0690  0.7134 -0.0225
 1010MOL0     O36273   8.053   6.970  10.854  0.7685  0.0854 -0.2187
 1010MOL0     C36274   8.151   7.040  10.927 -0.6216 -0.2467 -0.4740
 1010MOL0     C36275   8.288   6.966  10.950 -0.0128 -0.6406 -0.3851
 1010MOL0     C36276   8.382   7.024  11.053  0.4174 -0.2042  0.4995
 1010MOL0     C36277   8.505   7.099  10.996 -0.5171  0.2627  0.2008
 1010MOL0     C36278   8.463   7.221  10.916  0.6964 -0.5089  0.2702
 1010MOL0     C36279   8.417   7.307  10.845  0.2159  0.5872  0.1780
 1010MOL0     C36280   7.997   6.739  10.921  0.6653  0.4725 -0.0651
 1010MOL0     C36281   7.933   6.645  11.002  0.0460  0.2422  0.8466
 1010MOL0     C36282   7.965   6.502  10.983  0.6059  0.1782 -0.1025
 1010MOL0     H36283   7.820   6.536  11.502  3.8133 -1.5783 -2.7251
 1010MOL0     H36284   7.731   6.414  11.678 -1.9654 -1.7083  1.7252
 1010MOL0     H36285   7.676   6.201  11.795  0.2694  1.4655 -0.5892
 1010MOL0     H36286   7.541   6.311  11.795  2.1367  0.5079  3.0057
 1010MOL0     H36287   7.519   6.007  11.831 -1.1036  0.2177  3.0034
 1010MOL0     H36288   7.385   6.106  11.822 -1.3726 -0.2760  2.2232
 1010MOL0     H36289   7.441   6.042  12.048  0.5112  0.3073  1.4686
 1010MOL0     H36290   7.429   6.219  12.026  1.5388  0.2694 -0.5583
 1010MOL0     H36291   7.635   6.082  12.160  0.4939  0.4325 -0.1772
 1010MOL0     H36292   7.699   6.113  11.998  1.7997 -0.8005  2.4556
 1010MOL0     H36293   7.640   6.355  12.012  1.4798  2.2442  1.9292
 1010MOL0     H36294   7.595   6.323  12.177 -1.2705  1.1314 -0.3945
 1010MOL0     H36295   7.802   6.267  12.248 -4.3209  0.9058  0.1018
 1010MOL0     H36296   7.882   6.253  12.091  2.2891  0.3135  1.1412
 1010MOL0     H36297   7.847   6.489  12.054  0.7543 -0.9261 -0.8719
 1010MOL0     H36298   7.957   6.449  12.200 -0.8126 -2.8838  3.4498
 1010MOL0     H36299   7.796   6.643  12.202  1.3185 -0.7799 -2.0026
 1010MOL0     H36300   7.664   6.530  12.224 -1.4030  1.3226  1.8375
 1010MOL0     H36301   7.987   6.619  12.412  1.7788 -2.4043  1.0307
 1010MOL0     H36302   7.934   6.515  12.785 -1.7870  4.1923 -1.6390
 1010MOL0     H36303   8.057   6.431  12.672  0.0102 -0.8790 -1.2424
 1010MOL0     H36304   8.138   6.621  12.807  0.1872 -1.0559 -0.6739
 1010MOL0     H36305   8.163   6.652  12.635 -0.7639  3.0696 -0.8589
 1010MOL0     H36306   7.959   6.759  12.828 -0.8170  2.3211 -0.3612
 1010MOL0     H36307   7.949   6.800  12.657 -0.0755 -2.8278 -1.9779
 1010MOL0     H36308   8.163   6.917  12.649  0.3121  1.0230  1.4162
 1010MOL0     H36309   8.192   6.863  12.818 -0.4528  2.0527  2.6477
 1010MOL0     H36310   7.896   7.191  12.721 -0.0543  1.7036 -2.5044
 1010MOL0     H36311   7.956   7.422  12.633 -2.0925 -4.1137 -2.9253
 1010MOL0     H36312   8.418   7.683  12.399 -2.6124 -0.2369  0.8922
 1010MOL0     H36313   8.515   7.917  12.402 -0.2901 -1.9289 -0.5744
 1010MOL0     H36314   8.366   8.142  12.711 -0.9326  4.1835  0.9954
 1010MOL0     H36315   8.519   8.162  12.793 -0.1331  1.4832  0.0762
 1010MOL0     H36316   8.578   8.324  12.595  1.9630 -1.8011  3.6484
 1010MOL0     H36317   8.412   8.295  12.536 -0.0214  0.2245 -0.8044
 1010MOL0     H36318   8.325   8.398  12.767 -0.2967 -1.2224 -1.6291
 1010MOL0     H36319   8.488   8.398  12.813 -0.4214 -0.2880 -1.0311
 1010MOL0     H36320   8.413   8.578  12.591 -1.6920 -0.5149  1.5011
 1010MOL0     H36321   8.557   8.579  12.695 -0.5390  2.5632  2.5976
 1010MOL0     H36322   8.285   8.630  12.828 -1.5399  2.8604  0.4532
 1010MOL0     H36323   8.370   8.757  12.746  0.7332 -1.8857 -1.7726
 1010MOL0     H36324   8.390   8.726  12.994 -1.6842 -0.3508 -1.1749
 1010MOL0     H36325   8.496   8.591  12.970 -1.2654 -0.8245 -0.1249
 1010MOL0     H36326   8.600   8.805  12.806  0.0478  0.3275  0.9403
 1010MOL0     H36327   8.671   8.700  12.921 -0.5674 -0.0322  0.5072
 1010MOL0     H36328   8.719   8.905  13.014 -0.4359  2.0136  0.6131
 1010MOL0     H36329   8.561   8.965  13.016 -1.6560 -1.0947 -0.9998
 1010MOL0     H36330   8.467   7.935  12.818  0.2478 -0.1224 -0.1375
 1010MOL0     H36331   8.415   7.692  12.818  2.1434 -0.3627 -0.0993
 1010MOL0     H36332   8.372   7.303  12.671 -0.4676  1.1930  0.3631
 1010MOL0     H36333   8.300   7.078  12.753 -1.5851 -1.7023 -0.6327
 1010MOL0     H36334   7.551   6.148  11.381 -4.5619  3.1295  0.7049
 1010MOL0     H36335   7.679   6.282  11.198 -0.1991 -0.3704  0.3144
 1010MOL0     H36336   7.716   6.861  11.137  0.7099  2.5543  0.0367
 1010MOL0     H36337   7.866   7.029  11.026 -4.7075 -0.5433  0.4107
 1010MOL0     H36338   8.118   7.077  11.025  0.4939  0.4630 -0.3409
 1010MOL0     H36339   8.171   7.129  10.866 -3.1682  1.0755  0.4886
 1010MOL0     H36340   8.346   6.974  10.857 -1.1299  1.0704 -0.9899
 1010MOL0     H36341   8.264   6.863  10.978  3.9376 -1.1131  2.1086
 1010MOL0     H36342   8.402   6.944  11.125 -1.4338 -2.4236 -1.3329
 1010MOL0     H36343   8.334   7.088  11.129  0.6431 -0.4563  0.8580
 1010MOL0     H36344   8.573   7.126  11.077 -1.3830  0.2672  0.9375
 1010MOL0     H36345   8.564   7.043  10.923 -0.1107  1.0302 -0.0606
 1010MOL0     H36346   8.389   7.381  10.773  1.9527  0.0662 -1.0821
 1010MOL0     H36347   8.076   6.722  10.848 -1.2676  2.9498 -3.0367
 1010MOL0     H36348   8.003   6.473  10.885 -0.4886 -1.8306  0.0033
 1010MOL0     H36349   8.038   6.462  11.055 -0.9934  1.1862  2.1863
 1010MOL0     H36350   7.873   6.444  11.000 -0.8866  2.0254 -1.4568
 1011MOL0     O36351   5.886   3.016   6.067 -0.4223 -0.7136 -0.3940
 1011MOL0     C36352   5.962   2.918   6.062  0.2890 -0.2980 -0.5515
 1011MOL0     O36353   5.936   2.810   5.984  0.6171  0.2777 -0.3583
 1011MOL0     C36354   5.840   2.810   5.888  0.0265  0.4913  0.6050
 1011MOL0     C36355   5.886   2.767   5.767  0.5762 -0.1437 -0.2443
 1011MOL0     C36356   5.812   2.766   5.649  0.2085 -0.2887 -0.0828
 1011MOL0     C36357   5.679   2.814   5.650 -0.1613  0.1058  0.7749
 1011MOL0     O36358   5.595   2.799   5.541  0.7323 -0.5923 -0.3280
 1011MOL0     C36359   5.646   2.778   5.404  0.7230 -0.4896  0.6156
 1011MOL0     C36360   5.673   2.913   5.347  1.2630  0.0461  0.5940
 1011MOL0     C36361   5.560   2.985   5.271  0.0525 -0.2611 -0.8706
 1011MOL0     C36362   5.550   2.934   5.126  0.7497  0.1834 -0.4638
 1011MOL0     C36363   5.422   3.004   5.071 -1.2733  0.3831  0.1819
 1011MOL0     C36364   5.396   2.957   4.926 -0.6300  0.4159  0.4660
 1011MOL0     C36365   5.261   3.022   4.888 -0.4109 -0.1023  0.0553
 1011MOL0     C36366   5.199   2.963   4.760 -0.2721  0.5899 -0.7013
 1011MOL0     N36367   5.209   2.817   4.764  0.4214  1.2208  0.4802
 1011MOL0     C36368   5.153   2.738   4.863 -0.5152  0.9282  0.6482
 1011MOL0     C36369   5.181   2.614   4.820 -1.0341 -0.2776  0.4381
 1011MOL0     C36370   5.145   2.484   4.873 -0.5154  0.1691 -0.0891
 1011MOL0     C36371   5.267   2.425   4.959 -0.0423 -0.1867 -0.6204
 1011MOL0     C36372   5.392   2.392   4.880 -1.4552 -0.6992 -0.8812
 1011MOL0     C36373   5.505   2.355   4.975  0.5893 -0.7943 -0.6819
 1011MOL0     O36374   5.614   2.322   4.889  0.5145  0.1502  0.8098
 1011MOL0     C36375   5.733   2.265   4.928 -0.4937  0.0936 -0.0355
 1011MOL0     C36376   5.761   2.261   5.059  0.0444 -0.4821 -0.3667
 1011MOL0     C36377   5.888   2.224   5.108  0.5584 -0.1216 -0.8486
 1011MOL0     C36378   5.992   2.181   5.020  0.6554 -0.2008 -0.2475
 1011MOL0     C36379   6.124   2.150   5.067 -1.0854  0.3672 -0.1250
 1011MOL0     O36380   6.214   2.109   4.970 -0.8764 -0.0267 -0.1581
 1011MOL0     C36381   6.322   2.022   4.996 -0.1927  0.3092 -0.0237
 1011MOL0     C36382   6.451   2.071   5.035 -0.0703 -0.8047 -0.4898
 1011MOL0     C36383   6.558   1.975   5.045  0.0812  0.5107 -0.3510
 1011MOL0     C36384   6.540   1.835   5.041  0.1169 -0.0580  0.1712
 1011MOL0     O36385   6.635   1.741   5.066 -0.3824 -0.5160  0.6204
 1011MOL0     C36386   6.771   1.790   5.080 -0.9431  1.4029  0.8504
 1011MOL0     C36387   6.861   1.679   5.138  0.1715  0.7264 -0.0695
 1011MOL0     C36388   7.006   1.729   5.147 -0.1691 -0.4060 -0.3018
 1011MOL0     C36389   7.116   1.618   5.169 -0.0002  0.0525  0.0133
 1011MOL0     C36390   7.238   1.681   5.232 -0.8525 -1.2466 -0.5241
 1011MOL0     C36391   7.341   1.576   5.279 -0.3099  0.5223  0.0665
 1011MOL0     C36392   7.472   1.626   5.344  0.1971 -0.6729 -0.5971
 1011MOL0     C36393   7.576   1.519   5.355 -0.4224  0.5078 -0.1035
 1011MOL0    Cl36394   7.584   1.459   5.522  0.0733  0.2677  0.2365
 1011MOL0     C36395   6.409   1.789   5.012  1.1668  0.1555 -0.1850
 1011MOL0     C36396   6.301   1.884   4.993 -0.7971  0.5463  0.6060
 1011MOL0     O36397   6.154   2.180   5.181 -0.2767 -0.3350 -0.1582
 1011MOL0     C36398   5.962   2.188   4.887 -1.6350  0.2694  0.1961
 1011MOL0     C36399   5.836   2.219   4.839  0.9599 -0.2103 -0.1197
 1011MOL0     N36400   5.249   2.619   4.697 -0.8469  0.7485 -0.3810
 1011MOL0     N36401   5.264   2.739   4.663 -0.1455 -0.7846  0.3702
 1011MOL0     C36402   5.627   2.855   5.777 -1.4936  0.0281 -0.6864
 1011MOL0     C36403   5.714   2.862   5.894 -0.3072  0.8942 -1.1778
 1011MOL0     C36404   6.063   2.907   6.161 -0.3185 -0.3159  0.9492
 1011MOL0     C36405   6.155   2.803   6.138  0.4686  0.8023  0.3508
 1011MOL0     C36406   6.249   2.772   6.233 -0.6315 -0.6384  0.5234
 1011MOL0     C36407   6.275   2.832   6.347 -0.0940 -0.5224  0.3471
 1011MOL0     O36408   6.366   2.780   6.437  0.0951 -0.0086  0.1145
 1011MOL0     C36409   6.403   2.864   6.546 -0.1530 -0.2563  0.9405
 1011MOL0     C36410   6.544   2.807   6.613 -0.1221  0.0609 -0.8125
 1011MOL0     C36411   6.658   2.783   6.515 -1.0215  0.7167 -0.1340
 1011MOL0     C36412   6.760   2.690   6.578 -0.1667  0.2167  0.3523
 1011MOL0     C36413   6.821   2.750   6.702  0.8001 -0.0768 -0.5318
 1011MOL0     C36414   6.878   2.784   6.803  0.5108  0.0028  0.3434
 1011MOL0     C36415   6.195   2.953   6.358  0.3714 -0.0616  0.3959
 1011MOL0     C36416   6.094   2.986   6.267  0.2834  0.4053 -1.1585
 1011MOL0     C36417   6.017   3.119   6.309  0.0865  0.1156 -0.4102
 1011MOL0     H36418   5.989   2.733   5.755  0.7507  1.0661 -3.0319
 1011MOL0     H36419   5.865   2.723   5.565  0.2062 -1.8420  0.6684
 1011MOL0     H36420   5.741   2.723   5.404  0.8076 -0.3407 -0.0050
 1011MOL0     H36421   5.568   2.727   5.347 -1.1437  1.3581  1.3683
 1011MOL0     H36422   5.762   2.912   5.283  2.5481 -1.6300  2.3045
 1011MOL0     H36423   5.698   2.970   5.437 -5.6928  1.0648  2.3980
 1011MOL0     H36424   5.577   3.091   5.254  1.6242  0.2871  2.9479
 1011MOL0     H36425   5.469   2.975   5.331  2.1776  0.3476  2.7876
 1011MOL0     H36426   5.644   2.968   5.080  1.9435 -1.6372  0.4976
 1011MOL0     H36427   5.547   2.825   5.133 -1.5973  0.1627 -1.0350
 1011MOL0     H36428   5.345   2.965   5.138 -1.5117  1.6334  0.6558
 1011MOL0     H36429   5.415   3.112   5.085  1.8841  0.7184  0.0627
 1011MOL0     H36430   5.472   2.983   4.852  0.1768 -2.2249  0.2855
 1011MOL0     H36431   5.402   2.848   4.921  0.3033  0.5154 -2.6347
 1011MOL0     H36432   5.280   3.129   4.874  1.7313 -0.3636  0.5573
 1011MOL0     H36433   5.197   3.019   4.977  4.3917  5.7917  4.6297
 1011MOL0     H36434   5.093   2.986   4.762 -0.2811  0.5053 -0.2037
 1011MOL0     H36435   5.250   2.985   4.665 -1.2042 -0.5073 -1.4822
 1011MOL0     H36436   5.085   2.754   4.946  0.9531 -1.2753  2.3947
 1011MOL0     H36437   5.069   2.514   4.946  0.0117  1.7457 -0.1572
 1011MOL0     H36438   5.107   2.419   4.794  2.2112  0.9495 -2.1977
 1011MOL0     H36439   5.293   2.498   5.036  0.8459 -2.7044  1.6138
 1011MOL0     H36440   5.231   2.347   5.026  0.4608  0.8183  0.8817
 1011MOL0     H36441   5.432   2.484   4.838  3.3092 -2.0007  0.2262
 1011MOL0     H36442   5.370   2.319   4.802 -3.3982 -1.5178  0.3547
 1011MOL0     H36443   5.469   2.277   5.042 -2.9294  1.3601  0.1766
 1011MOL0     H36444   5.534   2.432   5.048 -1.5780 -1.2309  0.7258
 1011MOL0     H36445   5.688   2.290   5.133 -1.2595  1.0785 -2.1580
 1011MOL0     H36446   5.902   2.221   5.215 -3.4162  0.6173 -0.1382
 1011MOL0     H36447   6.454   2.180   5.045  1.0579 -0.5061 -3.3145
 1011MOL0     H36448   6.661   2.006   5.061  1.2475 -0.5355 -4.4748
 1011MOL0     H36449   6.812   1.810   4.981  0.4433  0.6469  1.2511
 1011MOL0     H36450   6.773   1.869   5.156  2.2863  0.2124  2.1601
 1011MOL0     H36451   6.837   1.646   5.240  2.0279 -3.5830 -0.8180
 1011MOL0     H36452   6.856   1.589   5.076  0.7170  0.1567  0.6851
 1011MOL0     H36453   7.028   1.785   5.056 -4.3026 -0.0574 -1.2522
 1011MOL0     H36454   7.018   1.801   5.229  2.5275 -1.7248  0.6100
 1011MOL0     H36455   7.144   1.573   5.074  0.3421  5.2906 -2.7420
 1011MOL0     H36456   7.084   1.550   5.248  2.2246 -0.0626  0.8913
 1011MOL0     H36457   7.210   1.741   5.320  1.5081 -1.6533  0.5999
 1011MOL0     H36458   7.283   1.751   5.161  0.2156  1.0740  2.2008
 1011MOL0     H36459   7.288   1.516   5.353  0.1889 -1.8665 -1.3934
 1011MOL0     H36460   7.371   1.508   5.198 -0.1693 -0.4536  0.9199
 1011MOL0     H36461   7.434   1.664   5.439  1.6544  2.3782 -1.1095
 1011MOL0     H36462   7.510   1.709   5.284 -1.9701 -0.3215 -1.6072
 1011MOL0     H36463   7.567   1.435   5.286 -2.0669  1.3307 -0.9446
 1011MOL0     H36464   7.666   1.577   5.331 -1.1476  0.5871 -2.8479
 1011MOL0     H36465   6.393   1.682   5.025 -2.8053  0.5785 -0.4560
 1011MOL0     H36466   6.203   1.837   4.984  0.1938 -2.1399  2.3999
 1011MOL0     H36467   6.030   2.144   4.814  1.0330 -3.4295  4.3912
 1011MOL0     H36468   5.814   2.220   4.733 -1.7527  0.2487  0.3527
 1011MOL0     H36469   5.523   2.885   5.767 -1.0626  2.0958  0.4208
 1011MOL0     H36470   5.674   2.910   5.982  2.5916  2.8377 -0.7842
 1011MOL0     H36471   6.143   2.737   6.052 -0.4456 -0.9644  1.7663
 1011MOL0     H36472   6.305   2.684   6.204 -0.6022  0.1695 -2.0793
 1011MOL0     H36473   6.314   2.871   6.609 -1.1153 -4.1103  0.2541
 1011MOL0     H36474   6.425   2.963   6.506 -1.9993 -0.5151 -0.8579
 1011MOL0     H36475   6.534   2.713   6.667  1.1586 -0.5217 -1.5340
 1011MOL0     H36476   6.587   2.881   6.680 -0.1770  0.5802 -1.3400
 1011MOL0     H36477   6.708   2.873   6.479 -0.6995 -0.5372 -3.1462
 1011MOL0     H36478   6.618   2.733   6.426 -1.2314  0.3039  0.1906
 1011MOL0     H36479   6.702   2.602   6.608  0.0740  0.9131  3.0935
 1011MOL0     H36480   6.851   2.659   6.524 -0.0613 -2.6505  1.9483
 1011MOL0     H36481   6.930   2.835   6.881  0.2601 -1.3313  1.4244
 1011MOL0     H36482   6.211   3.016   6.444 -2.0037 -0.0890  0.9445
 1011MOL0     H36483   6.056   3.207   6.257  1.5245  0.9055  1.8534
 1011MOL0     H36484   5.911   3.126   6.282  0.8388  2.9181 -3.2153
 1011MOL0     H36485   6.037   3.146   6.413 -1.2724 -3.7286  1.0424
 1012MOL0     O36486   5.225  10.893   1.377 -0.1307  0.0138 -0.3232
 1012MOL0     C36487   5.108  10.923   1.414 -0.2021  0.8211  0.0840
 1012MOL0     O36488   5.047  11.053   1.421 -0.5459 -0.1384  0.2660
 1012MOL0     C36489   5.132  11.158   1.403  0.2502  0.8526  0.6609
 1012MOL0     C36490   5.158  11.234   1.516 -0.5610  0.2725 -0.2016
 1012MOL0     C36491   5.249  11.341   1.505 -0.3100 -0.9954 -0.3376
 1012MOL0     C36492   5.305  11.377   1.385 -0.3757  0.3914 -0.6784
 1012MOL0     O36493   5.378  11.493   1.350 -0.9022  0.5818 -0.5402
 1012MOL0     C36494   5.422  11.582   1.461  0.5967  0.3302  0.4773
 1012MOL0     C36495   5.311  11.686   1.493 -0.3217 -0.5223 -0.6472
 1012MOL0     C36496   5.369  11.779   1.602  0.3319  0.7163 -0.4745
 1012MOL0     C36497   5.281  11.881   1.672 -0.5217 -0.5261 -0.4916
 1012MOL0     C36498   5.317  11.897   1.820  0.1253  0.1211  1.0132
 1012MOL0     C36499   5.218  11.989   1.901  0.2112  0.2947  0.1027
 1012MOL0     C36500   5.273  11.979   2.040 -0.2317 -0.0328  0.2747
 1012MOL0     C36501   5.403  12.058   2.054  0.0623  0.0383  0.1424
 1012MOL0     N36502   5.425  12.090   2.196  0.4398  0.4604  0.4831
 1012MOL0     C36503   5.487  12.014   2.285  0.3902 -0.0682 -0.4487
 1012MOL0     C36504   5.483  12.085   2.402 -0.2044  1.3985  0.0680
 1012MOL0     C36505   5.556  12.040   2.525  0.6312  0.1456  0.2529
 1012MOL0     C36506   5.487  11.913   2.599 -0.2453  0.0345  1.4094
 1012MOL0     C36507   5.559  11.863   2.725 -0.1404  0.0767  0.1178
 1012MOL0     C36508   5.677  11.764   2.683  0.0185 -0.1776 -0.4675
 1012MOL0     O36509   5.742  11.708   2.797  0.3593  0.9531 -0.5008
 1012MOL0     C36510   5.681  11.633   2.905  0.1023  0.4043 -0.4546
 1012MOL0     C36511   5.568  11.558   2.888 -0.2820  0.2405  0.0077
 1012MOL0     C36512   5.512  11.488   2.998 -0.6117  0.8603 -0.0423
 1012MOL0     C36513   5.582  11.497   3.124  0.0742  0.1978 -0.4866
 1012MOL0     C36514   5.546  11.417   3.244  0.1710  1.7182 -0.2421
 1012MOL0     O36515   5.592  11.457   3.359 -0.5447 -0.0406  0.8597
 1012MOL0     C36516   5.542  11.411   3.474 -0.5587 -1.2181  0.7422
 1012MOL0     C36517   5.409  11.427   3.511 -0.4742  0.1567  0.5235
 1012MOL0     C36518   5.362  11.367   3.630 -0.0981 -0.6285 -0.6557
 1012MOL0     C36519   5.452  11.302   3.720  0.3685  0.2009 -0.2275
 1012MOL0     O36520   5.407  11.249   3.846 -0.0001  0.8369  0.1435
 1012MOL0     C36521   5.455  11.126   3.903  0.1046 -0.6336  0.3255
 1012MOL0     C36522   5.384  11.101   4.039 -0.3914 -0.6055 -0.8707
 1012MOL0     C36523   5.322  10.965   4.077 -0.2059  0.9286  0.8168
 1012MOL0     C36524   5.245  10.952   4.204  0.4538 -0.4756 -0.2649
 1012MOL0     C36525   5.336  10.969   4.331 -0.0594  0.5008  1.2036
 1012MOL0     C36526   5.319  10.829   4.405 -0.4544  0.4539  0.2113
 1012MOL0     C36527   5.407  10.828   4.530  1.0530 -0.5273 -0.4907
 1012MOL0     C36528   5.332  10.892   4.654  0.6137 -0.0962  0.6978
 1012MOL0    Cl36529   5.185  10.799   4.695 -0.1526 -0.1892  0.1981
 1012MOL0     C36530   5.590  11.300   3.690 -0.0584 -0.7605 -0.4836
 1012MOL0     C36531   5.630  11.350   3.566  0.1383 -0.3021 -0.4984
 1012MOL0     O36532   5.474  11.313   3.223  0.1810  0.1099 -0.9236
 1012MOL0     C36533   5.694  11.581   3.136  0.1287 -0.2271 -0.6509
 1012MOL0     C36534   5.742  11.647   3.028  0.4646  0.0526 -0.9744
 1012MOL0     N36535   5.440  12.212   2.381  0.2553 -0.8640  0.6836
 1012MOL0     N36536   5.395  12.209   2.262 -0.6361  0.0920  0.2880
 1012MOL0     C36537   5.281  11.295   1.274  0.5570 -0.2256 -0.3667
 1012MOL0     C36538   5.195  11.183   1.280 -1.1666  0.9148  0.4615
 1012MOL0     C36539   5.007  10.819   1.467 -0.6483  0.4908 -0.1601
 1012MOL0     C36540   4.882  10.856   1.520 -0.1940 -0.4662 -0.6547
 1012MOL0     C36541   4.786  10.764   1.561  0.5938 -0.7037 -0.3033
 1012MOL0     C36542   4.823  10.633   1.577  0.4556  0.6382 -0.1713
 1012MOL0     O36543   4.736  10.544   1.642  0.1475  0.2489 -0.2401
 1012MOL0     C36544   4.761  10.410   1.637 -0.4049  0.2978  0.4747
 1012MOL0     C36545   4.667  10.361   1.747 -0.3366 -0.1012  0.2028
 1012MOL0     C36546   4.624  10.219   1.708  0.2752 -1.2497 -0.9454
 1012MOL0     C36547   4.509  10.174   1.801  0.3369 -0.4813  0.6914
 1012MOL0     C36548   4.371  10.227   1.766 -0.1987  0.1635 -0.4607
 1012MOL0     C36549   4.261  10.272   1.735 -0.4896  0.1875 -0.5089
 1012MOL0     C36550   4.958  10.593   1.536  0.4826  0.4184  0.7850
 1012MOL0     C36551   5.049  10.678   1.481  0.2562  0.2184 -0.1942
 1012MOL0     C36552   5.180  10.616   1.433 -0.5980 -0.3465  0.9888
 1012MOL0     H36553   5.103  11.218   1.607 -2.3222  5.3546 -0.0694
 1012MOL0     H36554   5.242  11.394   1.600 -1.6718 -3.0721  0.8080
 1012MOL0     H36555   5.442  11.520   1.550  0.0454 -0.5951 -0.0355
 1012MOL0     H36556   5.512  11.641   1.438 -0.5883  2.3868  0.8393
 1012MOL0     H36557   5.223  11.636   1.536 -2.0536  1.4939 -1.6176
 1012MOL0     H36558   5.296  11.741   1.400 -0.6503 -1.2559 -1.0418
 1012MOL0     H36559   5.457  11.833   1.565  0.3570  0.2209 -1.1576
 1012MOL0     H36560   5.399  11.713   1.683  0.8245 -0.5235 -1.6390
 1012MOL0     H36561   5.281  11.975   1.615  0.7140 -0.1867  0.0273
 1012MOL0     H36562   5.176  11.849   1.671 -1.1302  0.8952  3.0541
 1012MOL0     H36563   5.329  11.800   1.869  0.5481 -1.9075 -2.6921
 1012MOL0     H36564   5.418  11.939   1.821  0.2893 -0.1502  4.1154
 1012MOL0     H36565   5.209  12.089   1.858  0.2861 -0.8705 -2.8580
 1012MOL0     H36566   5.117  11.948   1.899 -0.0699  0.7892  2.0627
 1012MOL0     H36567   5.287  11.876   2.073  0.7776 -0.4689 -1.3882
 1012MOL0     H36568   5.195  12.022   2.103 -1.1534 -2.6191  1.0254
 1012MOL0     H36569   5.492  12.006   2.017  0.2841 -0.0728  0.8185
 1012MOL0     H36570   5.406  12.143   1.985  0.0232  1.1650  1.4892
 1012MOL0     H36571   5.516  11.911   2.265 -1.4409 -1.0139  1.3919
 1012MOL0     H36572   5.656  12.007   2.495  0.2902 -0.7166  0.0434
 1012MOL0     H36573   5.566  12.125   2.592  0.7441  0.6105 -0.3445
 1012MOL0     H36574   5.390  11.960   2.618 -0.2596  0.7052 -0.1576
 1012MOL0     H36575   5.481  11.830   2.527 -3.9628 -0.1461  1.7031
 1012MOL0     H36576   5.509  11.799   2.798  1.3151  1.4985  2.4911
 1012MOL0     H36577   5.584  11.956   2.777  1.1403 -0.4971  0.5760
 1012MOL0     H36578   5.756  11.815   2.628  1.5890 -1.7933  0.2041
 1012MOL0     H36579   5.628  11.694   2.614  0.0839  1.4853 -2.2720
 1012MOL0     H36580   5.531  11.547   2.787  0.4102  4.4778 -0.9297
 1012MOL0     H36581   5.435  11.414   2.982  2.3419 -2.1127 -1.9870
 1012MOL0     H36582   5.332  11.486   3.461 -0.4293 -0.0349  0.2274
 1012MOL0     H36583   5.264  11.381   3.674 -0.0091 -1.8385 -0.0234
 1012MOL0     H36584   5.433  11.041   3.838  2.4904  1.1182 -3.0603
 1012MOL0     H36585   5.564  11.135   3.897  0.1110 -1.3041 -0.8882
 1012MOL0     H36586   5.454  11.126   4.119 -0.7106  0.5270 -0.9167
 1012MOL0     H36587   5.309  11.181   4.048  0.0154 -0.3069 -0.0813
 1012MOL0     H36588   5.253  10.930   4.001  0.5158  0.9567  0.1375
 1012MOL0     H36589   5.400  10.888   4.081 -0.8910  0.1772  0.1153
 1012MOL0     H36590   5.190  10.858   4.196 -1.3807  0.2769  2.3666
 1012MOL0     H36591   5.179  11.039   4.202  2.0919  0.8812  1.5427
 1012MOL0     H36592   5.296  11.040   4.403  1.7360 -0.4343  3.2303
 1012MOL0     H36593   5.441  10.985   4.305  0.2811 -0.8430  1.6864
 1012MOL0     H36594   5.212  10.816   4.421 -0.3865 -1.0940 -0.4038
 1012MOL0     H36595   5.347  10.752   4.332  4.0684  1.9078  0.0615
 1012MOL0     H36596   5.500  10.878   4.501 -0.2155  1.8163 -0.7958
 1012MOL0     H36597   5.427  10.721   4.540  0.6136 -0.7103 -1.4413
 1012MOL0     H36598   5.402  10.885   4.738 -0.3175 -1.7916  1.3588
 1012MOL0     H36599   5.313  10.998   4.631  0.2412  0.0568  1.6655
 1012MOL0     H36600   5.656  11.255   3.765 -1.0780 -0.1175  0.8458
 1012MOL0     H36601   5.737  11.337   3.553  0.3532 -3.0497  2.5860
 1012MOL0     H36602   5.749  11.572   3.229  0.1366 -1.1879 -0.7397
 1012MOL0     H36603   5.837  11.699   3.035  0.8584 -0.8674  2.6587
 1012MOL0     H36604   5.336  11.313   1.182  3.6627 -2.0016  0.9806
 1012MOL0     H36605   5.175  11.117   1.196 -0.9139  0.5793  0.6578
 1012MOL0     H36606   4.841  10.956   1.528 -1.3151 -0.8563 -1.3008
 1012MOL0     H36607   4.692  10.799   1.602  1.4993 -1.4155  2.6145
 1012MOL0     H36608   4.864  10.378   1.654 -0.6152 -0.3002  0.6489
 1012MOL0     H36609   4.738  10.369   1.537  1.0945  0.3017  0.1115
 1012MOL0     H36610   4.577  10.423   1.758 -1.9199 -2.1924 -0.4886
 1012MOL0     H36611   4.726  10.366   1.840  0.5807  0.5942 -0.3988
 1012MOL0     H36612   4.714  10.160   1.721  1.5297  0.3202 -2.0604
 1012MOL0     H36613   4.586  10.218   1.605 -3.2594 -0.6995  0.2012
 1012MOL0     H36614   4.499  10.066   1.793 -1.8214 -0.4183  1.8207
 1012MOL0     H36615   4.543  10.209   1.900 -2.6120 -1.1452  2.0469
 1012MOL0     H36616   4.165  10.320   1.732  0.0536  1.2622 -1.8347
 1012MOL0     H36617   4.995  10.491   1.528 -0.6292  0.1409 -1.8078
 1012MOL0     H36618   5.265  10.653   1.490 -1.0735  0.7988  0.9840
 1012MOL0     H36619   5.182  10.507   1.445 -1.8874 -0.7770 -1.7526
 1012MOL0     H36620   5.191  10.643   1.327  1.2937  0.8279  1.4546
 1013MOL0     O36621   2.609   1.396   4.272  0.2685  0.0492  1.3435
 1013MOL0     C36622   2.707   1.435   4.329 -0.0928  0.2972 -1.2511
 1013MOL0     O36623   2.835   1.391   4.308  0.3482  0.2695  0.4898
 1013MOL0     C36624   2.851   1.297   4.208  0.2477 -0.4935 -0.3409
 1013MOL0     C36625   2.795   1.166   4.220  0.2748 -0.4787  0.3897
 1013MOL0     C36626   2.815   1.075   4.119  0.9382 -0.1925  0.2627
 1013MOL0     C36627   2.880   1.115   3.996  0.9392 -0.4844  0.2058
 1013MOL0     O36628   2.892   1.011   3.910  0.6435  0.1324 -0.0862
 1013MOL0     C36629   2.957   1.041   3.788  0.0440  0.1343  0.1576
 1013MOL0     C36630   2.938   0.933   3.679 -0.3985 -0.3841 -0.6959
 1013MOL0     C36631   3.046   0.957   3.561  0.4199  0.1853 -0.9611
 1013MOL0     C36632   3.080   0.828   3.481 -0.9869 -0.4257 -0.2835
 1013MOL0     C36633   3.224   0.830   3.440 -0.2701 -0.6393 -0.1828
 1013MOL0     C36634   3.276   0.944   3.350 -0.3547 -0.8451 -0.0420
 1013MOL0     C36635   3.243   0.931   3.197  0.3211 -0.1211  0.6393
 1013MOL0     C36636   3.247   1.063   3.118 -0.2549  0.4502  0.5329
 1013MOL0     N36637   3.385   1.086   3.061  0.2062 -0.6965  0.9104
 1013MOL0     C36638   3.417   1.038   2.938  0.5000 -0.7288 -0.1401
 1013MOL0     C36639   3.532   1.108   2.912  0.8745  1.3185  1.8343
 1013MOL0     C36640   3.597   1.117   2.772 -0.3062  0.5709 -0.3086
 1013MOL0     C36641   3.736   1.054   2.752 -0.0359 -0.4516  0.1088
 1013MOL0     C36642   3.843   1.084   2.862 -0.1959 -0.6912 -0.5688
 1013MOL0     C36643   3.872   1.239   2.870  0.2726  0.5879  1.1345
 1013MOL0     O36644   4.005   1.261   2.921 -0.3649 -0.8009  0.3940
 1013MOL0     C36645   4.031   1.295   3.053  0.4007 -0.4452 -0.2371
 1013MOL0     C36646   4.148   1.370   3.078 -0.5502  0.6499  0.4144
 1013MOL0     C36647   4.192   1.396   3.214 -0.6600  0.2066 -1.7903
 1013MOL0     C36648   4.111   1.359   3.323  0.6730  0.8203  0.9140
 1013MOL0     C36649   4.162   1.372   3.461 -0.2018 -1.6506  0.2133
 1013MOL0     O36650   4.260   1.466   3.480 -0.0363 -0.1999 -0.2837
 1013MOL0     C36651   4.313   1.466   3.603  0.7050  0.8374 -0.5425
 1013MOL0     C36652   4.428   1.392   3.624 -1.3269 -0.2629  0.5115
 1013MOL0     C36653   4.490   1.397   3.755 -0.2341  0.1434  0.6121
 1013MOL0     C36654   4.432   1.474   3.857 -0.4503 -0.0562  0.1753
 1013MOL0     O36655   4.504   1.469   3.974 -0.1111  0.5104 -1.3198
 1013MOL0     C36656   4.485   1.593   4.055  0.1586  0.3752 -0.4773
 1013MOL0     C36657   4.541   1.735   4.003 -1.0014  0.2828  0.6005
 1013MOL0     C36658   4.692   1.747   4.021 -0.8144 -0.1055 -0.1524
 1013MOL0     C36659   4.706   1.791   4.164  0.2644 -0.7794  1.0437
 1013MOL0     C36660   4.857   1.820   4.209  0.7625 -0.6996  0.5757
 1013MOL0     C36661   4.889   1.964   4.158 -0.4975 -0.1142  0.9282
 1013MOL0     C36662   5.031   2.008   4.194  1.0834  0.2197 -0.0599
 1013MOL0     C36663   5.029   2.160   4.200 -0.8372  0.1919  0.3489
 1013MOL0    Cl36664   4.998   2.229   4.021 -0.0053 -0.3179 -0.2528
 1013MOL0     C36665   4.312   1.545   3.830 -1.0268  0.4837 -0.3202
 1013MOL0     C36666   4.255   1.546   3.700 -0.7103 -0.6076  0.2129
 1013MOL0     O36667   4.111   1.308   3.539 -0.1810 -0.6690  0.1183
 1013MOL0     C36668   3.989   1.300   3.286  0.0220 -0.2702  0.2148
 1013MOL0     C36669   3.953   1.265   3.160 -0.0410  0.2278 -0.3831
 1013MOL0     N36670   3.557   1.191   3.018 -0.4483 -0.3146  0.5703
 1013MOL0     N36671   3.475   1.173   3.111  0.6183 -0.5787 -0.3462
 1013MOL0     C36672   2.942   1.241   3.982  0.8335 -0.2476  0.0288
 1013MOL0     C36673   2.917   1.337   4.087  0.4286 -0.5439 -0.7627
 1013MOL0     C36674   2.684   1.527   4.452 -0.4072 -0.4923 -0.0635
 1013MOL0     C36675   2.559   1.566   4.479 -0.6219  0.6888 -0.4003
 1013MOL0     C36676   2.525   1.631   4.602 -0.5358 -0.0416  0.1256
 1013MOL0     C36677   2.625   1.658   4.699 -1.1810  0.2202  0.1376
 1013MOL0     O36678   2.571   1.712   4.816 -0.4077 -0.5669  0.0066
 1013MOL0     C36679   2.657   1.784   4.918  0.0816 -0.0272 -0.1397
 1013MOL0     C36680   2.662   1.695   5.034 -0.3037  1.3000 -0.1697
 1013MOL0     C36681   2.549   1.722   5.121 -0.0040  0.3846 -0.1088
 1013MOL0     C36682   2.534   1.608   5.220  0.0518  0.5005 -0.7738
 1013MOL0     C36683   2.447   1.636   5.338 -0.2507  0.4220 -1.0951
 1013MOL0     C36684   2.375   1.670   5.428  0.1757 -0.0316  0.5054
 1013MOL0     C36685   2.758   1.623   4.666  0.5585  0.0044  0.6214
 1013MOL0     C36686   2.787   1.551   4.548 -0.7261 -0.2253  0.4750
 1013MOL0     C36687   2.938   1.526   4.530 -1.2128  0.0686 -0.1559
 1013MOL0     H36688   2.755   1.125   4.312 -0.5588  1.2966  0.8516
 1013MOL0     H36689   2.758   0.984   4.138 -1.4444  0.5688 -2.4892
 1013MOL0     H36690   2.933   1.139   3.746 -0.1113 -1.4191 -3.8095
 1013MOL0     H36691   3.066   1.047   3.802 -0.2804  1.5399  2.6785
 1013MOL0     H36692   2.835   0.957   3.650 -1.3026 -0.2804  2.2507
 1013MOL0     H36693   2.958   0.830   3.709 -1.2697 -0.6920 -1.1271
 1013MOL0     H36694   3.141   0.989   3.606  0.3981  3.0658 -2.7348
 1013MOL0     H36695   3.017   1.043   3.500 -1.2543  0.2838 -0.0867
 1013MOL0     H36696   3.066   0.737   3.539 -0.3459  0.7441  1.8239
 1013MOL0     H36697   3.026   0.813   3.387 -0.0321 -4.9781 -0.3391
 1013MOL0     H36698   3.289   0.841   3.527  0.3065  0.0482 -0.6901
 1013MOL0     H36699   3.235   0.735   3.388 -0.1083 -0.0721 -1.2064
 1013MOL0     H36700   3.225   1.033   3.388  0.2270  0.3086 -1.8216
 1013MOL0     H36701   3.383   0.951   3.371 -0.0758 -1.2641 -1.2232
 1013MOL0     H36702   3.141   0.892   3.189 -0.5237  2.1393 -0.6354
 1013MOL0     H36703   3.315   0.867   3.147  1.1015  1.2151  0.0195
 1013MOL0     H36704   3.179   1.074   3.033  0.4693  0.4162 -0.0561
 1013MOL0     H36705   3.219   1.146   3.183 -0.1656  1.8383 -1.1357
 1013MOL0     H36706   3.359   0.973   2.874  1.2553  1.0977 -2.8783
 1013MOL0     H36707   3.535   1.058   2.704  1.7160 -0.4763 -1.3087
 1013MOL0     H36708   3.597   1.222   2.739  1.2244  1.4665  2.2822
 1013MOL0     H36709   3.721   0.948   2.729 -1.4140 -0.4671  0.9144
 1013MOL0     H36710   3.774   1.091   2.657  2.6132 -1.5369  0.6658
 1013MOL0     H36711   3.938   1.035   2.838  1.0247  1.7126 -0.9686
 1013MOL0     H36712   3.818   1.065   2.967 -1.8405  0.1785 -0.7726
 1013MOL0     H36713   3.795   1.291   2.928  1.2128  2.8097  0.5024
 1013MOL0     H36714   3.879   1.269   2.765  0.1459 -3.1320 -0.0872
 1013MOL0     H36715   4.209   1.402   2.995 -2.4058 -0.4315 -1.4687
 1013MOL0     H36716   4.289   1.439   3.234  0.5863 -3.8879  3.0506
 1013MOL0     H36717   4.466   1.330   3.544 -0.7959 -0.3960  0.8668
 1013MOL0     H36718   4.585   1.344   3.766 -0.5081 -0.6461 -0.5625
 1013MOL0     H36719   4.378   1.600   4.079  0.4153  0.0475  0.8498
 1013MOL0     H36720   4.533   1.571   4.152  0.9394 -1.3700 -1.2041
 1013MOL0     H36721   4.498   1.748   3.903 -2.4421 -2.0098  0.8474
 1013MOL0     H36722   4.490   1.817   4.053 -0.9242  3.5065 -4.0152
 1013MOL0     H36723   4.747   1.653   4.015 -0.8680 -0.2975  1.7171
 1013MOL0     H36724   4.743   1.823   3.962  1.0072  1.5839  3.2549
 1013MOL0     H36725   4.653   1.723   4.230 -0.3598 -1.5106 -0.1689
 1013MOL0     H36726   4.656   1.888   4.179  4.9434  2.2107 -0.3981
 1013MOL0     H36727   4.915   1.733   4.177 -0.3179 -1.7695  1.4476
 1013MOL0     H36728   4.863   1.827   4.318 -2.6333  0.7253  0.7835
 1013MOL0     H36729   4.862   1.972   4.052 -1.1390  0.6772  1.1419
 1013MOL0     H36730   4.829   2.022   4.229  1.0550 -1.0791  3.1476
 1013MOL0     H36731   5.097   1.964   4.119 -1.1769 -0.6737 -1.6545
 1013MOL0     H36732   5.067   1.965   4.288  1.8162  0.9368 -0.0064
 1013MOL0     H36733   4.948   2.191   4.267 -0.1074 -0.5978  1.6547
 1013MOL0     H36734   5.120   2.193   4.250 -1.2472 -0.5872  1.6736
 1013MOL0     H36735   4.268   1.601   3.911  0.0527 -0.4330  0.9531
 1013MOL0     H36736   4.159   1.582   3.665 -0.3978 -0.7661 -0.8311
 1013MOL0     H36737   3.930   1.258   3.366  1.7886 -4.2360 -0.3203
 1013MOL0     H36738   3.854   1.224   3.142  0.5069 -1.8507  1.0358
 1013MOL0     H36739   2.979   1.282   3.889 -1.3984 -0.9862 -1.2528
 1013MOL0     H36740   2.943   1.443   4.082  0.0337 -0.3460  0.8656
 1013MOL0     H36741   2.478   1.540   4.411 -0.1910 -2.0230  0.0336
 1013MOL0     H36742   2.426   1.659   4.637 -1.5412 -1.0181 -1.7868
 1013MOL0     H36743   2.630   1.889   4.936  1.3384  0.1120  1.0409
 1013MOL0     H36744   2.757   1.795   4.877 -0.0036 -0.4454 -0.4624
 1013MOL0     H36745   2.758   1.708   5.086 -1.3026  3.0682  1.3287
 1013MOL0     H36746   2.643   1.592   5.002  1.4023  0.9082 -0.0313
 1013MOL0     H36747   2.459   1.740   5.062  1.4501  1.0959 -2.2244
 1013MOL0     H36748   2.562   1.810   5.185 -2.2363  1.8229 -1.5017
 1013MOL0     H36749   2.511   1.511   5.175  2.0338 -0.4521  0.0994
 1013MOL0     H36750   2.634   1.595   5.264  0.1477  0.7744 -0.9074
 1013MOL0     H36751   2.309   1.708   5.503 -0.3733  1.8168 -0.8416
 1013MOL0     H36752   2.842   1.642   4.732  1.5223 -1.5477 -0.1042
 1013MOL0     H36753   2.969   1.426   4.561  2.5035  1.2772  0.5690
 1013MOL0     H36754   2.977   1.541   4.428  0.2669  3.7195  0.8003
 1013MOL0     H36755   2.992   1.605   4.583 -0.2888  0.2688 -1.3445
 1014MOL0     O36756   0.686   8.769   0.102  0.1027  0.3225  0.4929
 1014MOL0     C36757   0.810   8.771   0.081 -0.1642 -0.7666 -0.9508
 1014MOL0     O36758   0.875   8.822  -0.027 -0.0542 -0.7080 -0.5093
 1014MOL0     C36759   0.788   8.874  -0.121 -0.0642  0.4082 -1.0185
 1014MOL0     C36760   0.746   8.795  -0.227 -0.7932  0.6910  0.1214
 1014MOL0     C36761   0.661   8.853  -0.326 -0.7171 -0.0682 -0.4444
 1014MOL0     C36762   0.618   8.986  -0.317 -0.0057 -1.3213  0.2625
 1014MOL0     O36763   0.531   9.023  -0.417 -0.1234 -0.6447 -0.3021
 1014MOL0     C36764   0.436   9.129  -0.379 -0.0200  0.4006  0.4308
 1014MOL0     C36765   0.312   9.118  -0.457  0.5502 -0.5775 -0.4662
 1014MOL0     C36766   0.197   9.192  -0.382 -0.1364  0.3941  0.0920
 1014MOL0     C36767   0.068   9.180  -0.469 -1.0424 -0.2683  0.1401
 1014MOL0     C36768  -0.058   9.251  -0.404 -0.6256 -0.4372  0.4211
 1014MOL0     C36769  -0.173   9.226  -0.493 -0.0439 -0.5255 -0.0345
 1014MOL0     C36770  -0.301   9.292  -0.436 -0.9513  0.7884  0.9189
 1014MOL0     C36771  -0.414   9.298  -0.536 -0.0058 -0.4982  0.2332
 1014MOL0     N36772  -0.405   9.414  -0.617  0.2670  0.2365 -0.6923
 1014MOL0     C36773  -0.472   9.530  -0.607  0.0151  0.0857 -0.1526
 1014MOL0     C36774  -0.440   9.603  -0.718  0.5616  0.2204 -0.0119
 1014MOL0     C36775  -0.486   9.744  -0.753  0.4730  0.4675 -0.2894
 1014MOL0     C36776  -0.368   9.849  -0.750 -0.2504  0.9084 -0.2385
 1014MOL0     C36777  -0.322   9.878  -0.608  0.3663 -0.1780  0.8504
 1014MOL0     C36778  -0.422   9.982  -0.546 -0.4422  0.2076 -0.2829
 1014MOL0     O36779  -0.397  10.119  -0.587  0.3347  0.1644  0.6783
 1014MOL0     C36780  -0.268  10.179  -0.569  0.2442  0.7066 -0.0641
 1014MOL0     C36781  -0.189  10.154  -0.455  0.2210 -0.7336  0.4792
 1014MOL0     C36782  -0.059  10.216  -0.449 -0.6762  0.0946 -0.3716
 1014MOL0     C36783  -0.017  10.312  -0.543  0.1768  0.8597 -0.9565
 1014MOL0     C36784   0.121  10.377  -0.541 -0.4887 -0.1114 -0.0194
 1014MOL0     O36785   0.146  10.462  -0.642  0.0582  0.7932 -0.6722
 1014MOL0     C36786   0.260  10.541  -0.644 -0.2354  0.8346  0.2234
 1014MOL0     C36787   0.254  10.630  -0.751 -0.1322 -0.5272  0.8740
 1014MOL0     C36788   0.365  10.713  -0.780 -0.0099 -1.1026  0.3964
 1014MOL0     C36789   0.489  10.691  -0.714  0.0247 -0.0972 -0.8483
 1014MOL0     O36790   0.615  10.739  -0.743  0.4589  0.2454 -0.9904
 1014MOL0     C36791   0.641  10.751  -0.879  0.8777  0.6715  0.3504
 1014MOL0     C36792   0.793  10.760  -0.912  0.0227  0.2387 -0.9404
 1014MOL0     C36793   0.821  10.731  -1.060  1.3948  0.1168  0.1476
 1014MOL0     C36794   0.958  10.662  -1.087  0.1029 -0.5788  0.3970
 1014MOL0     C36795   0.976  10.672  -1.244 -0.1202  0.0809 -1.1733
 1014MOL0     C36796   1.111  10.606  -1.292  0.5177  0.2957  0.7780
 1014MOL0     C36797   1.148  10.611  -1.441 -0.2725 -0.0792  1.0371
 1014MOL0     C36798   1.166  10.755  -1.499 -0.6052  0.3857 -0.1175
 1014MOL0    Cl36799   1.252  10.739  -1.662 -0.1156 -0.4817 -0.4252
 1014MOL0     C36800   0.491  10.601  -0.612 -0.3258 -0.0225  1.2689
 1014MOL0     C36801   0.379  10.536  -0.564  0.6069 -0.4484 -0.1474
 1014MOL0     O36802   0.207  10.328  -0.459  0.5602  0.0559  0.0679
 1014MOL0     C36803  -0.109  10.341  -0.641  0.1981  0.7473  0.1861
 1014MOL0     C36804  -0.227  10.276  -0.660  0.5870  1.4184 -0.2773
 1014MOL0     N36805  -0.346   9.529  -0.793 -0.4402 -0.2773 -0.1237
 1014MOL0     N36806  -0.335   9.418  -0.732  0.0203  0.4741  0.1641
 1014MOL0     C36807   0.663   9.065  -0.210 -0.9913 -0.0468 -0.2879
 1014MOL0     C36808   0.735   9.005  -0.103 -0.2479  0.6544  0.2452
 1014MOL0     C36809   0.899   8.710   0.185  0.2263 -1.4815 -0.1375
 1014MOL0     C36810   1.022   8.770   0.200 -0.3164 -0.3967 -0.4021
 1014MOL0     C36811   1.120   8.725   0.291 -0.8122  0.6684  0.1849
 1014MOL0     C36812   1.098   8.601   0.357 -0.4839  0.2156 -0.9578
 1014MOL0     O36813   1.198   8.562   0.440 -0.4367  0.8182 -0.7073
 1014MOL0     C36814   1.175   8.446   0.523  0.5893  0.3654 -0.2040
 1014MOL0     C36815   1.269   8.420   0.639 -0.0935 -0.2921  0.1816
 1014MOL0     C36816   1.417   8.417   0.594 -0.5124  0.0274  0.3264
 1014MOL0     C36817   1.471   8.270   0.569  0.3524 -0.3427 -0.3303
 1014MOL0     C36818   1.389   8.183   0.481  0.2146  0.2468 -0.3644
 1014MOL0     C36819   1.323   8.106   0.421  0.2064 -0.2509 -0.3373
 1014MOL0     C36820   0.968   8.544   0.348  0.8599  0.0122 -0.7541
 1014MOL0     C36821   0.871   8.598   0.261  0.1706 -0.2171  0.1606
 1014MOL0     C36822   0.744   8.524   0.233 -0.2904 -0.7352  0.6351
 1014MOL0     H36823   0.781   8.694  -0.216 -2.5061  0.3312  4.0371
 1014MOL0     H36824   0.620   8.805  -0.414 -0.7138  3.0298 -2.2788
 1014MOL0     H36825   0.408   9.111  -0.274 -2.2708  1.6895  0.1287
 1014MOL0     H36826   0.481   9.228  -0.381  1.7583 -0.3725 -1.2842
 1014MOL0     H36827   0.272   9.018  -0.477 -0.8544 -1.1189  3.9632
 1014MOL0     H36828   0.326   9.168  -0.553 -1.8963  0.9353 -0.1263
 1014MOL0     H36829   0.211   9.300  -0.365 -1.5301  1.2668 -3.3750
 1014MOL0     H36830   0.182   9.145  -0.285 -0.7387 -0.5610 -0.4555
 1014MOL0     H36831   0.099   9.237  -0.557 -1.8989 -1.2525 -0.8368
 1014MOL0     H36832   0.040   9.078  -0.500 -1.2952 -0.3324  0.5687
 1014MOL0     H36833  -0.074   9.214  -0.302  0.9218 -0.0720  0.8152
 1014MOL0     H36834  -0.034   9.357  -0.399 -2.2566  0.1214 -1.9089
 1014MOL0     H36835  -0.144   9.263  -0.592 -0.5868 -3.8599 -1.5742
 1014MOL0     H36836  -0.195   9.121  -0.512 -2.3335 -0.0535 -0.2351
 1014MOL0     H36837  -0.275   9.386  -0.384  3.5711  0.3731 -0.1093
 1014MOL0     H36838  -0.333   9.237  -0.347  2.8559 -1.0199  1.3985
 1014MOL0     H36839  -0.419   9.204  -0.591  0.4161 -1.2410  1.4261
 1014MOL0     H36840  -0.509   9.306  -0.484 -1.0035 -0.3930 -1.5251
 1014MOL0     H36841  -0.542   9.560  -0.530 -0.2620  0.5843 -0.5870
 1014MOL0     H36842  -0.531   9.735  -0.853 -0.2001  1.0560 -0.0456
 1014MOL0     H36843  -0.578   9.768  -0.699 -1.4681 -1.0474 -2.6922
 1014MOL0     H36844  -0.289   9.799  -0.807  1.8863  2.2880  1.3564
 1014MOL0     H36845  -0.397   9.943  -0.800 -0.9105  0.6033 -0.4399
 1014MOL0     H36846  -0.220   9.918  -0.615  0.5904 -0.5419  1.8736
 1014MOL0     H36847  -0.308   9.786  -0.551 -1.0797 -0.9069  0.0710
 1014MOL0     H36848  -0.401   9.984  -0.439  1.0491  1.5029 -0.5588
 1014MOL0     H36849  -0.529   9.961  -0.556 -0.6630  1.7431 -1.4851
 1014MOL0     H36850  -0.230  10.081  -0.387 -4.0696  2.2392  1.5080
 1014MOL0     H36851   0.017  10.186  -0.378 -1.0496  0.3348  0.1422
 1014MOL0     H36852   0.159  10.638  -0.803  0.6508  1.3626 -0.3875
 1014MOL0     H36853   0.359  10.776  -0.868 -3.0972 -0.6621  0.8014
 1014MOL0     H36854   0.599  10.674  -0.945  3.3679 -1.1220  0.6843
 1014MOL0     H36855   0.593  10.840  -0.919 -0.5916 -1.2252 -2.5100
 1014MOL0     H36856   0.831  10.862  -0.901 -1.5018  0.8423 -0.9976
 1014MOL0     H36857   0.845  10.697  -0.839 -0.1391  1.7859  0.5730
 1014MOL0     H36858   0.735  10.679  -1.103  0.6493  1.2892  0.1798
 1014MOL0     H36859   0.822  10.830  -1.108  2.0006  0.2699  0.4653
 1014MOL0     H36860   0.954  10.559  -1.052  2.1190 -0.2368  1.8290
 1014MOL0     H36861   1.037  10.719  -1.036 -2.1879  1.8607  1.5032
 1014MOL0     H36862   0.976  10.777  -1.274 -0.2112  0.3944 -0.1332
 1014MOL0     H36863   0.886  10.628  -1.288 -0.4558 -1.7906  1.1783
 1014MOL0     H36864   1.185  10.670  -1.243 -0.2555  2.0950 -0.3357
 1014MOL0     H36865   1.102  10.503  -1.256  0.6377  0.2560  0.6964
 1014MOL0     H36866   1.070  10.561  -1.501 -2.0899  0.9363  2.4432
 1014MOL0     H36867   1.237  10.551  -1.462 -0.9525  0.1772 -3.8334
 1014MOL0     H36868   1.076  10.816  -1.508 -1.8240 -1.0047  1.7894
 1014MOL0     H36869   1.241  10.808  -1.440  3.3767 -1.6811 -2.8289
 1014MOL0     H36870   0.584  10.588  -0.558  1.9321  0.6172 -2.1015
 1014MOL0     H36871   0.401  10.462  -0.488  1.2141 -2.0032 -1.7602
 1014MOL0     H36872  -0.090  10.431  -0.699  0.0436 -0.1562 -1.3330
 1014MOL0     H36873  -0.286  10.317  -0.742 -1.0047  2.5029  1.3269
 1014MOL0     H36874   0.659   9.173  -0.206 -2.7466 -0.0177 -1.5890
 1014MOL0     H36875   0.777   9.056  -0.017 -0.4045  3.3868 -1.1869
 1014MOL0     H36876   1.033   8.864   0.147  0.4935 -0.5862 -0.5913
 1014MOL0     H36877   1.212   8.778   0.312 -0.7481 -0.0367  1.8450
 1014MOL0     H36878   1.180   8.363   0.452  0.8030  0.2770 -0.0873
 1014MOL0     H36879   1.073   8.438   0.562  0.3943 -1.3836 -0.9770
 1014MOL0     H36880   1.252   8.327   0.695  0.5395 -1.9774 -2.2473
 1014MOL0     H36881   1.256   8.506   0.705  1.2140  1.1998 -1.4124
 1014MOL0     H36882   1.470   8.461   0.679 -3.9409  3.7740  0.8622
 1014MOL0     H36883   1.433   8.476   0.503  2.3160  0.5392  1.0888
 1014MOL0     H36884   1.574   8.275   0.532  1.0255  1.1759  1.6061
 1014MOL0     H36885   1.472   8.216   0.664 -0.5406 -0.5354 -0.4146
 1014MOL0     H36886   1.255   8.051   0.359 -1.7896 -2.5807  3.5380
 1014MOL0     H36887   0.948   8.451   0.400 -1.7069 -0.3252 -2.1643
 1014MOL0     H36888   0.728   8.497   0.128 -1.4585 -0.9367  0.8580
 1014MOL0     H36889   0.757   8.432   0.291  0.9680 -0.1172  1.3805
 1014MOL0     H36890   0.660   8.581   0.272 -0.3632 -1.8497  2.1753
 1015MOL0     O36891   6.127   1.265  10.817 -0.2190 -0.1566  0.7665
 1015MOL0     C36892   6.075   1.296  10.717 -0.3590 -0.8795 -0.8000
 1015MOL0     O36893   5.966   1.383  10.700 -1.2411 -0.0626 -0.3645
 1015MOL0     C36894   5.915   1.474  10.797 -0.0260  0.5134 -0.2213
 1015MOL0     C36895   5.960   1.502  10.929 -0.2594  0.9245  0.3643
 1015MOL0     C36896   5.891   1.590  11.008  0.3314  0.7308 -0.2051
 1015MOL0     C36897   5.788   1.672  10.957  0.2528  0.7246 -0.3757
 1015MOL0     O36898   5.737   1.769  11.035 -0.3665 -0.8424 -0.5156
 1015MOL0     C36899   5.616   1.839  11.008 -0.2618 -1.4019 -0.8928
 1015MOL0     C36900   5.603   1.934  11.120 -0.3137  0.2672  0.3275
 1015MOL0     C36901   5.480   2.003  11.128 -0.8368 -0.5839 -0.1096
 1015MOL0     C36902   5.470   2.133  11.035  0.0062 -0.5136 -0.2675
 1015MOL0     C36903   5.524   2.258  11.112  0.7214  0.2088  0.6806
 1015MOL0     C36904   5.525   2.388  11.033  0.0900  0.5193  0.1550
 1015MOL0     C36905   5.639   2.402  10.938  0.2810 -0.0476 -0.1029
 1015MOL0     C36906   5.628   2.535  10.866  0.2560  0.1204 -0.1065
 1015MOL0     N36907   5.738   2.532  10.762 -0.9708 -0.5553  0.4383
 1015MOL0     C36908   5.724   2.502  10.626 -0.1869  0.8302 -0.9636
 1015MOL0     C36909   5.852   2.487  10.589  0.4496 -0.5540  0.3353
 1015MOL0     C36910   5.899   2.442  10.454 -0.1601 -0.2441 -0.2188
 1015MOL0     C36911   5.907   2.553  10.356  0.0214 -0.2572  0.3008
 1015MOL0     C36912   5.793   2.539  10.251 -0.5065 -0.2969 -0.2797
 1015MOL0     C36913   5.762   2.666  10.161 -0.0105  0.0794  0.0459
 1015MOL0     O36914   5.873   2.685  10.072  0.5003  0.1147  0.2477
 1015MOL0     C36915   5.838   2.791   9.993 -0.5277  0.2444  0.1713
 1015MOL0     C36916   5.740   2.780   9.902 -1.1252 -0.3854  0.0425
 1015MOL0     C36917   5.713   2.870   9.808  0.7093  0.4115 -0.8317
 1015MOL0     C36918   5.773   3.001   9.825  0.0895  0.3523 -0.3769
 1015MOL0     C36919   5.726   3.108   9.737  1.4406  0.0116 -0.6437
 1015MOL0     O36920   5.767   3.238   9.777  0.8629  0.1010 -0.6831
 1015MOL0     C36921   5.771   3.337   9.685 -0.2647 -0.0846  0.2219
 1015MOL0     C36922   5.776   3.470   9.728 -0.9020  1.4412  0.0963
 1015MOL0     C36923   5.790   3.572   9.635  0.4980 -0.0492 -0.1920
 1015MOL0     C36924   5.794   3.556   9.493 -0.3027  1.2314  1.1977
 1015MOL0     O36925   5.806   3.668   9.422 -0.5563  0.0230  0.3693
 1015MOL0     C36926   5.782   3.651   9.286 -0.7947 -0.4238 -0.2462
 1015MOL0     C36927   5.797   3.783   9.206  0.2232  0.4553 -0.7207
 1015MOL0     C36928   5.905   3.893   9.245  0.7791  0.7053  0.5171
 1015MOL0     C36929   5.846   3.999   9.346 -0.7205  0.2784 -0.0726
 1015MOL0     C36930   5.955   4.081   9.400  0.3190 -1.5763 -0.9705
 1015MOL0     C36931   5.910   4.201   9.492  0.5395  0.7071  0.0895
 1015MOL0     C36932   6.021   4.253   9.580  0.0056  0.1053  0.7589
 1015MOL0     C36933   6.123   4.336   9.500 -0.0364  0.5044 -0.6631
 1015MOL0    Cl36934   6.228   4.417   9.610  0.2120  0.1396 -0.4400
 1015MOL0     C36935   5.790   3.429   9.446 -0.4469 -0.4646 -0.3138
 1015MOL0     C36936   5.772   3.322   9.545 -0.2408 -0.5649  0.0737
 1015MOL0     O36937   5.640   3.088   9.650 -0.5783 -0.2621 -0.8641
 1015MOL0     C36938   5.866   3.020   9.927  0.8316 -0.6898 -0.4871
 1015MOL0     C36939   5.899   2.911  10.012 -0.5101 -0.7167  0.7057
 1015MOL0     N36940   5.945   2.530  10.681  0.1998  0.2839 -0.1173
 1015MOL0     N36941   5.876   2.563  10.789 -0.0151 -0.3353  0.6649
 1015MOL0     C36942   5.732   1.644  10.830 -1.3678 -0.1790  0.4208
 1015MOL0     C36943   5.794   1.538  10.754  0.1785  0.1632 -0.6997
 1015MOL0     C36944   6.137   1.245  10.596  0.2109 -0.5581  1.5604
 1015MOL0     C36945   6.091   1.292  10.466  1.0972  0.0945 -1.1465
 1015MOL0     C36946   6.151   1.259  10.348 -0.1280  0.1150  0.6137
 1015MOL0     C36947   6.271   1.179  10.346 -0.1561  0.5275  0.8007
 1015MOL0     O36948   6.323   1.148  10.225  0.4595  0.4406 -0.4075
 1015MOL0     C36949   6.462   1.186  10.211 -0.4962 -0.8076  0.0213
 1015MOL0     C36950   6.479   1.341  10.230 -0.8229 -0.5184 -0.5104
 1015MOL0     C36951   6.439   1.418  10.103 -0.0497 -0.3008 -0.7632
 1015MOL0     C36952   6.483   1.567  10.096 -0.4708  0.3329 -0.0476
 1015MOL0     C36953   6.624   1.568  10.059 -0.8699 -0.6926  0.7958
 1015MOL0     C36954   6.747   1.564  10.040 -0.6328 -0.4013 -0.2228
 1015MOL0     C36955   6.313   1.135  10.469 -0.5931  0.3995 -0.1881
 1015MOL0     C36956   6.251   1.159  10.592 -0.1196 -0.7142 -0.1387
 1015MOL0     C36957   6.333   1.127  10.710  0.7791  0.3257 -0.6955
 1015MOL0     H36958   6.038   1.440  10.972 -1.4835 -0.4001  0.7333
 1015MOL0     H36959   5.923   1.600  11.112 -1.3543 -3.2262  0.8777
 1015MOL0     H36960   5.631   1.887  10.911  1.3312 -0.5952 -0.2762
 1015MOL0     H36961   5.527   1.777  10.993 -1.6329  0.3616 -0.4207
 1015MOL0     H36962   5.681   2.010  11.110  0.7786 -0.6565  1.5147
 1015MOL0     H36963   5.636   1.892  11.216  0.8439  2.0476  0.7683
 1015MOL0     H36964   5.468   2.030  11.233  0.3250 -1.5570  0.2934
 1015MOL0     H36965   5.399   1.932  11.110 -0.2642 -1.0861 -0.7754
 1015MOL0     H36966   5.531   2.114  10.946  0.6007  0.9022 -0.1780
 1015MOL0     H36967   5.365   2.144  11.006  0.6302 -2.3175 -3.8719
 1015MOL0     H36968   5.448   2.276  11.189  0.5942  0.2424  0.5463
 1015MOL0     H36969   5.626   2.245  11.148  0.3365  0.2489  1.8224
 1015MOL0     H36970   5.431   2.419  10.986 -0.0975 -0.5410 -0.2112
 1015MOL0     H36971   5.548   2.463  11.108  1.9684  0.9870 -0.8519
 1015MOL0     H36972   5.645   2.318  10.869  2.5962  1.1349 -1.4543
 1015MOL0     H36973   5.734   2.408  10.992  1.5058 -1.0005 -2.0504
 1015MOL0     H36974   5.531   2.543  10.816  0.2041 -1.4738 -0.3242
 1015MOL0     H36975   5.642   2.620  10.933 -0.0493 -0.3647  0.5967
 1015MOL0     H36976   5.633   2.477  10.573  0.3983  0.6801 -1.9204
 1015MOL0     H36977   6.001   2.404  10.461 -0.7387 -1.5170  3.1919
 1015MOL0     H36978   5.842   2.352  10.430 -1.7509  0.7325 -0.2684
 1015MOL0     H36979   5.894   2.650  10.405  0.4764  0.4852 -0.9761
 1015MOL0     H36980   6.001   2.551  10.301 -1.1918  0.8971 -1.9810
 1015MOL0     H36981   5.704   2.512  10.309 -0.3598 -0.5439 -0.1708
 1015MOL0     H36982   5.816   2.461  10.178 -3.3594 -1.2025 -0.3626
 1015MOL0     H36983   5.763   2.755  10.225  1.0418  0.5578 -0.5959
 1015MOL0     H36984   5.671   2.655  10.102  1.1458 -1.4832 -1.5312
 1015MOL0     H36985   5.693   2.682   9.895  2.3880 -2.1333 -2.9038
 1015MOL0     H36986   5.647   2.848   9.724  1.6531  4.2822 -2.8410
 1015MOL0     H36987   5.798   3.479   9.834 -0.2174  1.6446 -0.0573
 1015MOL0     H36988   5.782   3.673   9.672 -0.8563 -0.8321  1.7880
 1015MOL0     H36989   5.858   3.582   9.246 -1.4643 -0.6348 -1.2092
 1015MOL0     H36990   5.680   3.613   9.273  0.1886 -2.7984 -1.8655
 1015MOL0     H36991   5.820   3.749   9.104 -3.1786  0.0622 -1.4705
 1015MOL0     H36992   5.696   3.826   9.204  0.1924  0.5047  0.8044
 1015MOL0     H36993   5.997   3.847   9.281  0.9120  0.7436  0.2319
 1015MOL0     H36994   5.929   3.947   9.153 -1.9688 -1.9365 -1.9560
 1015MOL0     H36995   5.802   3.946   9.431  2.2183 -0.1130  1.3091
 1015MOL0     H36996   5.763   4.047   9.293 -0.1020 -0.3711 -1.6754
 1015MOL0     H36997   6.000   4.134   9.315  0.4668  1.0105  0.5870
 1015MOL0     H36998   6.025   4.022   9.461  1.0352 -0.2132 -0.4284
 1015MOL0     H36999   5.885   4.286   9.427  1.9476  1.7054  0.7951
 1015MOL0     H37000   5.824   4.161   9.548 -0.7303 -0.1001 -2.2946
 1015MOL0     H37001   6.069   4.177   9.641 -3.0657 -1.5076  1.3454
 1015MOL0     H37002   5.971   4.315   9.655 -0.5547 -1.0107  1.3265
 1015MOL0     H37003   6.187   4.268   9.442  3.3300  1.3081  1.7821
 1015MOL0     H37004   6.084   4.402   9.422 -1.4486  0.6603  0.1491
 1015MOL0     H37005   5.782   3.405   9.340 -0.8452  1.3506 -0.7233
 1015MOL0     H37006   5.771   3.223   9.502  0.2514 -2.2112  3.5585
 1015MOL0     H37007   5.915   3.114   9.948 -0.4625 -0.8108  4.2048
 1015MOL0     H37008   5.962   2.915  10.100 -0.3701 -2.5815  0.7306
 1015MOL0     H37009   5.641   1.693  10.796 -2.1698 -1.1675  1.0919
 1015MOL0     H37010   5.762   1.510  10.654 -2.6399 -1.5078  0.5442
 1015MOL0     H37011   6.010   1.363  10.455  1.2657  0.0475 -2.9814
 1015MOL0     H37012   6.111   1.280  10.249  0.9900  1.2222  0.3737
 1015MOL0     H37013   6.507   1.158  10.115 -0.4979  1.3235 -0.6558
 1015MOL0     H37014   6.529   1.141  10.284  1.9494 -1.0183 -2.1883
 1015MOL0     H37015   6.583   1.357  10.258 -1.1766  0.5261  0.2921
 1015MOL0     H37016   6.424   1.389  10.311  2.1359  2.2025  0.0537
 1015MOL0     H37017   6.330   1.412  10.101 -0.0573 -0.3429 -0.3499
 1015MOL0     H37018   6.474   1.360  10.016 -3.5235 -1.6135 -1.4233
 1015MOL0     H37019   6.419   1.621  10.025  1.5895  0.8188 -1.6270
 1015MOL0     H37020   6.477   1.628  10.187 -3.2659 -0.6506  0.5352
 1015MOL0     H37021   6.854   1.570  10.041 -0.6995  2.7216  0.9279
 1015MOL0     H37022   6.413   1.093  10.470 -0.7502 -0.1062 -2.2990
 1015MOL0     H37023   6.418   1.068  10.676 -0.0816 -0.6106 -1.2763
 1015MOL0     H37024   6.379   1.215  10.756 -0.4068 -0.2968  1.9000
 1015MOL0     H37025   6.279   1.060  10.778 -0.1229  0.0838 -1.6231
 1016MOL0     O37026   1.419   3.289   9.007 -1.0584  0.1701 -0.2547
 1016MOL0     C37027   1.501   3.208   9.049  0.1828  0.1081  0.6448
 1016MOL0     O37028   1.585   3.230   9.158  0.3230 -0.3211 -0.3624
 1016MOL0     C37029   1.587   3.350   9.224 -0.0657 -0.8324 -0.4807
 1016MOL0     C37030   1.589   3.352   9.364 -1.1608  1.0425  0.1868
 1016MOL0     C37031   1.617   3.468   9.433 -1.1212  0.9753 -0.3759
 1016MOL0     C37032   1.619   3.587   9.353  0.9009 -0.1602 -0.1712
 1016MOL0     O37033   1.633   3.699   9.432  0.2379  0.6271 -0.2372
 1016MOL0     C37034   1.550   3.813   9.397  0.2754 -0.2393  0.1916
 1016MOL0     C37035   1.642   3.928   9.382  0.3379  0.7317 -0.2316
 1016MOL0     C37036   1.681   3.989   9.517 -0.5730 -0.0796  1.2585
 1016MOL0     C37037   1.769   4.117   9.503 -0.6770  0.1789 -0.7738
 1016MOL0     C37038   1.772   4.192   9.631 -0.0145 -1.0673  0.4321
 1016MOL0     C37039   1.829   4.334   9.615  0.4277 -0.2609  0.2444
 1016MOL0     C37040   1.832   4.407   9.747  0.3804  0.3080 -0.5886
 1016MOL0     C37041   1.925   4.547   9.738  0.5097  0.7531 -0.5326
 1016MOL0     N37042   2.072   4.518   9.730  0.1649 -0.5570 -0.6541
 1016MOL0     C37043   2.141   4.497   9.616  0.3438 -0.4179  0.4006
 1016MOL0     C37044   2.265   4.464   9.660 -0.5329 -0.2372 -0.8076
 1016MOL0     C37045   2.373   4.389   9.576 -0.0170  0.7282 -0.1407
 1016MOL0     C37046   2.384   4.239   9.615 -0.4846 -0.5398  0.5975
 1016MOL0     C37047   2.279   4.149   9.575  0.8591  0.7544 -0.7785
 1016MOL0     C37048   2.175   4.126   9.688 -0.0870  0.0934 -0.1787
 1016MOL0     O37049   2.081   4.017   9.658 -0.0976 -0.3916 -0.4602
 1016MOL0     C37050   2.106   3.888   9.697  0.1861 -0.7381 -0.2326
 1016MOL0     C37051   2.196   3.851   9.789  0.8696  0.3356  0.6227
 1016MOL0     C37052   2.219   3.712   9.807 -0.6384  0.0396  1.0951
 1016MOL0     C37053   2.135   3.614   9.756 -1.0869  0.0019  0.1928
 1016MOL0     C37054   2.156   3.473   9.793  0.4048 -0.1740  0.3966
 1016MOL0     O37055   2.266   3.449   9.875 -0.5847  0.7281 -0.5811
 1016MOL0     C37056   2.299   3.321   9.927 -0.3423 -0.0473  0.3937
 1016MOL0     C37057   2.213   3.213   9.951  0.1741 -0.3520  0.7043
 1016MOL0     C37058   2.252   3.097  10.009 -0.8467 -0.0909 -1.0273
 1016MOL0     C37059   2.389   3.092  10.043 -0.4519  0.5645  0.0365
 1016MOL0     O37060   2.442   2.968  10.080 -0.0272  0.4544  0.0773
 1016MOL0     C37061   2.383   2.896  10.198 -0.2400 -0.0575  0.1490
 1016MOL0     C37062   2.412   2.744  10.198 -0.5674 -0.7875  0.4633
 1016MOL0     C37063   2.280   2.662  10.205  0.4829  0.1344 -0.0910
 1016MOL0     C37064   2.318   2.520  10.202 -0.1298  0.4276 -0.1639
 1016MOL0     C37065   2.203   2.424  10.196  0.9672 -0.1580  0.8477
 1016MOL0     C37066   2.254   2.283  10.163 -0.7561  0.4342 -0.2584
 1016MOL0     C37067   2.153   2.185  10.107  0.1281 -0.1564  0.2900
 1016MOL0     C37068   2.060   2.125  10.203  0.2267  0.2505 -0.4232
 1016MOL0    Cl37069   1.952   2.018  10.114  0.1384  0.2782  0.3839
 1016MOL0     C37070   2.478   3.195  10.024 -0.5806 -0.0200 -1.8125
 1016MOL0     C37071   2.427   3.314   9.974 -0.3140  0.6408  0.2279
 1016MOL0     O37072   2.076   3.395   9.740 -0.3922 -0.2608  0.2286
 1016MOL0     C37073   2.041   3.659   9.656 -0.0050 -0.0136  0.4059
 1016MOL0     C37074   2.032   3.795   9.634  0.3051 -0.2769 -0.3272
 1016MOL0     N37075   2.262   4.482   9.800 -0.8761 -0.4241 -0.7486
 1016MOL0     N37076   2.155   4.532   9.843  0.6517 -0.4932  0.5885
 1016MOL0     C37077   1.611   3.584   9.222  0.2386 -0.5191 -1.1651
 1016MOL0     C37078   1.598   3.466   9.152  0.1475 -0.2508 -0.3734
 1016MOL0     C37079   1.497   3.077   8.967  0.0325 -1.0758 -0.5133
 1016MOL0     C37080   1.571   2.967   9.007 -0.1936 -0.8721 -0.0667
 1016MOL0     C37081   1.587   2.852   8.936  0.7613 -0.5532  0.6458
 1016MOL0     C37082   1.529   2.834   8.815 -1.0373 -0.7414 -0.3785
 1016MOL0     O37083   1.533   2.714   8.745 -0.3241 -0.6953  0.0993
 1016MOL0     C37084   1.577   2.589   8.804 -0.7545  0.8251 -0.0851
 1016MOL0     C37085   1.543   2.471   8.709 -0.1336 -0.2520 -0.5587
 1016MOL0     C37086   1.622   2.484   8.569 -0.1692  0.2708  0.7562
 1016MOL0     C37087   1.573   2.368   8.472  0.5437 -0.9248 -0.9698
 1016MOL0     C37088   1.590   2.409   8.332 -0.4088 -0.3740  0.4710
 1016MOL0     C37089   1.630   2.442   8.221 -0.3835 -1.1882 -0.1290
 1016MOL0     C37090   1.447   2.942   8.764 -0.1729  0.3941  0.1267
 1016MOL0     C37091   1.445   3.064   8.835  0.1855  0.1994  1.2470
 1016MOL0     C37092   1.370   3.162   8.759  1.1745 -0.2499  0.7907
 1016MOL0     H37093   1.591   3.261   9.425  0.9483  2.1298  1.8777
 1016MOL0     H37094   1.637   3.465   9.540  0.0173 -3.1867 -0.5060
 1016MOL0     H37095   1.484   3.788   9.314  1.3660 -2.6844 -0.0233
 1016MOL0     H37096   1.479   3.831   9.478 -0.3004 -0.0999 -0.3348
 1016MOL0     H37097   1.587   4.008   9.331 -2.2056 -1.0288 -0.4025
 1016MOL0     H37098   1.731   3.905   9.323 -0.3317 -1.0064 -0.6098
 1016MOL0     H37099   1.743   3.914   9.568  1.6958 -0.0008 -1.1685
 1016MOL0     H37100   1.588   4.018   9.565 -0.1261  1.5098  1.2307
 1016MOL0     H37101   1.873   4.103   9.471  0.4109  3.6694  0.7872
 1016MOL0     H37102   1.718   4.180   9.430 -1.1052 -0.2884 -0.8884
 1016MOL0     H37103   1.668   4.186   9.665 -0.6630 -2.1773 -1.5832
 1016MOL0     H37104   1.840   4.150   9.706  0.5852  0.9611  1.1132
 1016MOL0     H37105   1.929   4.319   9.573  1.7886  3.5128  1.6888
 1016MOL0     H37106   1.767   4.393   9.547  1.7447  0.3267 -0.4977
 1016MOL0     H37107   1.874   4.338   9.820  1.4044 -0.2314 -1.6481
 1016MOL0     H37108   1.730   4.432   9.775  0.7331  1.8072 -0.5339
 1016MOL0     H37109   1.892   4.602   9.649 -0.5026 -0.2140 -0.7900
 1016MOL0     H37110   1.915   4.600   9.833  2.4662 -0.0412  0.1606
 1016MOL0     H37111   2.102   4.488   9.515 -0.2505 -2.2850  0.7595
 1016MOL0     H37112   2.349   4.392   9.470  1.8458  2.0788 -0.5862
 1016MOL0     H37113   2.465   4.444   9.597  0.2760 -0.1016  0.8395
 1016MOL0     H37114   2.469   4.201   9.557 -2.0765  0.1022 -2.3271
 1016MOL0     H37115   2.414   4.243   9.721  0.2744  0.7716  0.3587
 1016MOL0     H37116   2.318   4.047   9.566 -0.4245  0.1999 -0.3051
 1016MOL0     H37117   2.220   4.187   9.491 -1.1719  0.7023  0.5455
 1016MOL0     H37118   2.113   4.216   9.696 -1.9016 -0.8818 -2.2440
 1016MOL0     H37119   2.220   4.113   9.787  0.0911 -0.0965 -0.2839
 1016MOL0     H37120   2.245   3.918   9.859  0.4859  0.3175  0.9072
 1016MOL0     H37121   2.305   3.679   9.866  2.0832 -1.0266 -3.0476
 1016MOL0     H37122   2.110   3.239   9.930  0.5423 -1.0175 -2.2884
 1016MOL0     H37123   2.180   3.016  10.021 -0.7220 -0.1319 -0.5459
 1016MOL0     H37124   2.430   2.941  10.287  1.4559 -0.8134 -0.3276
 1016MOL0     H37125   2.275   2.908  10.208 -0.5202 -2.1100 -0.0725
 1016MOL0     H37126   2.484   2.714  10.121 -3.0109 -1.0421 -1.8722
 1016MOL0     H37127   2.472   2.734  10.289  0.1931  1.5587  0.2673
 1016MOL0     H37128   2.238   2.682  10.304  0.2603 -2.1207  0.3267
 1016MOL0     H37129   2.197   2.693  10.142 -0.7045 -0.3238  1.2114
 1016MOL0     H37130   2.385   2.487  10.282  2.7376 -0.2681 -2.6589
 1016MOL0     H37131   2.365   2.515  10.103 -4.5269 -0.5696 -2.4302
 1016MOL0     H37132   2.152   2.458  10.105  1.7269 -0.2357  0.3833
 1016MOL0     H37133   2.139   2.432  10.284  1.9011 -2.9269  1.8773
 1016MOL0     H37134   2.337   2.300  10.093 -0.0393  1.3968  0.7735
 1016MOL0     H37135   2.288   2.245  10.260 -2.3202  0.8888  0.4887
 1016MOL0     H37136   2.208   2.104  10.059 -0.8621 -1.1039  0.7426
 1016MOL0     H37137   2.092   2.232  10.029  0.2284  2.8615  1.8520
 1016MOL0     H37138   2.117   2.071  10.279  0.6580 -0.8274 -1.4783
 1016MOL0     H37139   1.999   2.204  10.247  1.9049  2.1963 -1.4539
 1016MOL0     H37140   2.581   3.196  10.057 -1.7386  0.0880  2.4787
 1016MOL0     H37141   2.494   3.399   9.967  2.0603 -1.1023  0.4723
 1016MOL0     H37142   1.970   3.587   9.616 -0.2999  0.4478  0.0863
 1016MOL0     H37143   1.958   3.832   9.564 -2.2795 -2.7476  0.8922
 1016MOL0     H37144   1.607   3.679   9.170 -0.3310  0.2233  0.1826
 1016MOL0     H37145   1.603   3.466   9.043 -3.3630  0.1358 -0.6617
 1016MOL0     H37146   1.634   2.992   9.092  0.2519 -2.8120  0.2209
 1016MOL0     H37147   1.648   2.768   8.970 -0.1550 -2.7069 -2.5425
 1016MOL0     H37148   1.533   2.582   8.904 -0.3618  0.9167  0.0958
 1016MOL0     H37149   1.686   2.590   8.814 -0.8210 -2.4782  2.3640
 1016MOL0     H37150   1.434   2.462   8.705 -0.2703 -0.6392  2.1910
 1016MOL0     H37151   1.581   2.385   8.765 -1.0125 -1.7651 -2.1774
 1016MOL0     H37152   1.730   2.490   8.584  0.1785  1.7636 -1.7886
 1016MOL0     H37153   1.591   2.578   8.524 -0.3789 -0.0203  0.2790
 1016MOL0     H37154   1.642   2.286   8.495  4.0316  2.1135  0.4042
 1016MOL0     H37155   1.466   2.351   8.488  0.5808  0.7385  1.6708
 1016MOL0     H37156   1.667   2.475   8.126  0.6819 -1.0730  0.3181
 1016MOL0     H37157   1.405   2.928   8.665  0.1481  1.7865 -0.2393
 1016MOL0     H37158   1.312   3.120   8.677 -1.8786  1.4862  1.8805
 1016MOL0     H37159   1.286   3.213   8.808  0.3038 -1.6817  0.8584
 1016MOL0     H37160   1.438   3.240   8.723 -0.2851 -0.3353 -2.4848
 1017MOL0     O37161   2.109   4.621   0.907 -0.7498 -0.2995 -0.8801
 1017MOL0     C37162   2.101   4.516   0.841 -0.1365  1.0606  0.4189
 1017MOL0     O37163   2.014   4.415   0.867  0.0160 -0.1534  0.2740
 1017MOL0     C37164   1.930   4.433   0.982 -0.0674 -0.2606  0.7398
 1017MOL0     C37165   1.962   4.429   1.116 -0.3007 -0.3342  0.1360
 1017MOL0     C37166   1.882   4.463   1.218  0.1369 -0.4901 -1.0322
 1017MOL0     C37167   1.748   4.508   1.189  0.0195 -0.4664  0.2453
 1017MOL0     O37168   1.658   4.551   1.276 -0.4415 -0.3356 -0.2042
 1017MOL0     C37169   1.546   4.636   1.232 -1.0833 -0.5655  0.6166
 1017MOL0     C37170   1.431   4.614   1.334  0.9805 -0.0212 -0.0027
 1017MOL0     C37171   1.287   4.652   1.303  0.5486 -0.4705 -0.0172
 1017MOL0     C37172   1.192   4.538   1.334 -0.2692  1.2599 -0.2458
 1017MOL0     C37173   1.052   4.578   1.306 -0.2103  0.0864  0.8762
 1017MOL0     C37174   0.971   4.469   1.370 -0.0429  0.2180  1.0924
 1017MOL0     C37175   0.827   4.518   1.401 -0.4147 -0.2819  0.1877
 1017MOL0     C37176   0.732   4.412   1.465  0.0870  1.1121 -0.2241
 1017MOL0     N37177   0.687   4.322   1.351 -0.0110 -0.1432  0.1160
 1017MOL0     C37178   0.561   4.325   1.282  0.0061 -0.1119 -0.3618
 1017MOL0     C37179   0.557   4.207   1.229 -0.3017 -0.2581  0.7009
 1017MOL0     C37180   0.440   4.170   1.133 -0.4254  0.9138 -0.8874
 1017MOL0     C37181   0.328   4.100   1.209 -1.1803 -0.3175  0.5858
 1017MOL0     C37182   0.192   4.093   1.138  0.2499  1.0685 -0.2901
 1017MOL0     C37183   0.096   4.212   1.139  0.0156 -0.0148  0.5151
 1017MOL0     O37184   0.061   4.258   1.273 -0.3238  0.0879  0.1289
 1017MOL0     C37185   0.147   4.349   1.331  0.1119 -0.0773 -0.7139
 1017MOL0     C37186   0.220   4.318   1.448 -1.1161  0.1069  0.4693
 1017MOL0     C37187   0.307   4.418   1.502 -0.0437 -0.7932 -0.1374
 1017MOL0     C37188   0.315   4.546   1.438 -0.2238 -0.0869  0.1765
 1017MOL0     C37189   0.421   4.643   1.491  0.0193 -0.8959  0.6786
 1017MOL0     O37190   0.467   4.626   1.623  0.0382 -0.1463  0.9096
 1017MOL0     C37191   0.580   4.695   1.673  0.5647  0.4047 -0.0069
 1017MOL0     C37192   0.679   4.615   1.738  1.0698  0.7201 -0.3017
 1017MOL0     C37193   0.794   4.665   1.787 -0.9235  0.3605  0.5231
 1017MOL0     C37194   0.824   4.802   1.787  0.7434 -0.3924  0.2202
 1017MOL0     O37195   0.940   4.844   1.842 -0.2829 -0.0439 -0.5053
 1017MOL0     C37196   1.003   4.959   1.788 -0.1115 -0.7888  1.0084
 1017MOL0     C37197   1.150   4.961   1.828  0.7175 -0.0184 -0.3132
 1017MOL0     C37198   1.220   5.101   1.818 -0.2071 -0.5474  1.0768
 1017MOL0     C37199   1.220   5.161   1.671  0.5390  0.7604  0.8045
 1017MOL0     C37200   1.300   5.064   1.576 -0.2261 -0.8116 -0.5168
 1017MOL0     C37201   1.351   5.126   1.446  1.3952 -0.4661 -0.4261
 1017MOL0     C37202   1.367   5.007   1.352  0.0120 -0.4459 -1.0003
 1017MOL0     C37203   1.475   5.044   1.245  0.1255  1.1046 -1.1453
 1017MOL0    Cl37204   1.422   5.187   1.171 -0.0636  0.0287 -0.0837
 1017MOL0     C37205   0.732   4.889   1.718  0.5524 -0.3058  0.0656
 1017MOL0     C37206   0.612   4.832   1.664  0.0531 -0.1951 -0.1228
 1017MOL0     O37207   0.464   4.730   1.413 -0.7304 -0.0557 -0.5650
 1017MOL0     C37208   0.228   4.579   1.326 -0.6393  0.5178 -0.3959
 1017MOL0     C37209   0.149   4.479   1.276  0.1218 -0.6474 -0.3341
 1017MOL0     N37210   0.677   4.134   1.245 -0.2317  0.5973 -0.2378
 1017MOL0     N37211   0.753   4.201   1.329  0.1547  0.1925 -0.3171
 1017MOL0     C37212   1.707   4.488   1.055  0.8140  0.4696 -0.6220
 1017MOL0     C37213   1.791   4.452   0.949 -0.1790 -0.1152  0.8635
 1017MOL0     C37214   2.209   4.494   0.738  0.0847 -0.4309 -0.1865
 1017MOL0     C37215   2.218   4.362   0.677  0.0367 -1.0630 -0.7110
 1017MOL0     C37216   2.314   4.343   0.581 -0.3949 -0.1289  0.6393
 1017MOL0     C37217   2.415   4.433   0.547 -0.6853  0.3152 -0.9368
 1017MOL0     O37218   2.500   4.393   0.451 -0.3079 -0.3043  0.1805
 1017MOL0     C37219   2.603   4.483   0.405 -0.1428 -0.3134 -0.3539
 1017MOL0     C37220   2.678   4.390   0.318 -0.6799 -0.8960 -0.1186
 1017MOL0     C37221   2.812   4.445   0.273  0.1485  1.0636  1.0859
 1017MOL0     C37222   2.877   4.348   0.182  0.0408  0.1522  1.0806
 1017MOL0     C37223   2.810   4.350   0.044  0.6039 -0.4704  0.4657
 1017MOL0     C37224   2.748   4.357  -0.059 -0.2445  0.0957  0.4228
 1017MOL0     C37225   2.405   4.561   0.595 -0.1250 -0.8117 -0.3668
 1017MOL0     C37226   2.304   4.597   0.693  0.4559  0.8885 -0.1352
 1017MOL0     C37227   2.307   4.736   0.728  0.3538  0.1444  0.2610
 1017MOL0     H37228   2.062   4.391   1.133  0.0874 -1.3921 -3.4808
 1017MOL0     H37229   1.912   4.458   1.322 -4.0009 -3.1963  0.3290
 1017MOL0     H37230   1.584   4.739   1.235  0.9083 -1.2751  0.9328
 1017MOL0     H37231   1.506   4.604   1.135  0.0635  0.7360 -0.3170
 1017MOL0     H37232   1.455   4.674   1.423  0.6600 -0.3283  0.2962
 1017MOL0     H37233   1.435   4.506   1.348 -0.0464 -0.2957 -1.5963
 1017MOL0     H37234   1.256   4.682   1.202  1.1333 -0.6995 -0.2681
 1017MOL0     H37235   1.267   4.732   1.375  2.2871  0.6753 -0.7547
 1017MOL0     H37236   1.202   4.449   1.271 -3.1263  0.9338 -0.3653
 1017MOL0     H37237   1.189   4.503   1.437 -2.8905 -0.9573 -0.9449
 1017MOL0     H37238   1.024   4.674   1.351 -3.2342 -0.1420 -0.2950
 1017MOL0     H37239   1.023   4.587   1.201  0.0697 -1.5448  0.6322
 1017MOL0     H37240   0.973   4.382   1.303  3.0130  1.5477 -0.7201
 1017MOL0     H37241   1.012   4.439   1.467  1.3586 -2.4511 -0.2083
 1017MOL0     H37242   0.794   4.547   1.301 -1.0544  0.5446  0.6218
 1017MOL0     H37243   0.823   4.606   1.466  3.5708 -0.7499  1.3459
 1017MOL0     H37244   0.753   4.360   1.558 -2.8983  2.7585  1.5267
 1017MOL0     H37245   0.644   4.466   1.502  0.2043 -1.5262  4.6964
 1017MOL0     H37246   0.493   4.409   1.278  0.6842  0.4316 -0.8399
 1017MOL0     H37247   0.396   4.267   1.107 -0.0923  0.8777 -1.5830
 1017MOL0     H37248   0.479   4.103   1.056  1.0751  0.4945  0.1833
 1017MOL0     H37249   0.361   3.997   1.226  0.7320  0.2769  0.7097
 1017MOL0     H37250   0.326   4.145   1.309  0.7436  2.8738 -0.6587
 1017MOL0     H37251   0.136   4.021   1.199 -1.0718  3.2841  1.2520
 1017MOL0     H37252   0.210   4.046   1.041 -2.2761  0.2790 -0.4397
 1017MOL0     H37253   0.014   4.191   1.070 -0.1385  0.1106  0.6616
 1017MOL0     H37254   0.145   4.296   1.089 -0.4638  0.1451  0.3045
 1017MOL0     H37255   0.231   4.222   1.496 -1.7515  0.6104  1.6721
 1017MOL0     H37256   0.353   4.395   1.598  1.8764 -1.1039 -1.0736
 1017MOL0     H37257   0.663   4.508   1.738 -0.3937  0.7710 -4.0381
 1017MOL0     H37258   0.861   4.593   1.833 -2.1041  0.0543  1.8359
 1017MOL0     H37259   0.999   4.960   1.679  3.3899 -0.1190  0.7818
 1017MOL0     H37260   0.946   5.045   1.824  3.2555  2.8941 -1.5982
 1017MOL0     H37261   1.157   4.923   1.930  1.0216 -1.2144 -0.7655
 1017MOL0     H37262   1.215   4.894   1.771  0.6901  1.4518 -2.1896
 1017MOL0     H37263   1.170   5.167   1.890  0.1691 -0.2255  1.0470
 1017MOL0     H37264   1.326   5.091   1.846 -0.3604 -0.2776  1.7774
 1017MOL0     H37265   1.265   5.259   1.657  2.7255 -0.1030  1.2919
 1017MOL0     H37266   1.116   5.171   1.638  1.7955  2.0816 -3.3261
 1017MOL0     H37267   1.237   4.981   1.543 -1.7765 -0.2580  0.8945
 1017MOL0     H37268   1.396   5.038   1.621  0.0145  0.0313 -0.5269
 1017MOL0     H37269   1.277   5.195   1.404  0.5492 -0.7754  0.5130
 1017MOL0     H37270   1.441   5.186   1.464  2.7742 -1.3412 -3.6879
 1017MOL0     H37271   1.278   4.990   1.290 -0.0608  1.6976 -1.5763
 1017MOL0     H37272   1.398   4.917   1.406  0.9664 -0.2554 -1.2135
 1017MOL0     H37273   1.573   5.052   1.294 -1.0365  0.5406  1.4354
 1017MOL0     H37274   1.483   4.959   1.177 -1.3486 -0.1440  0.1727
 1017MOL0     H37275   0.734   4.998   1.716 -4.3293  0.0664 -3.4036
 1017MOL0     H37276   0.527   4.889   1.626  1.3034  1.9487  0.1580
 1017MOL0     H37277   0.236   4.681   1.290 -0.1455  0.4718 -0.4303
 1017MOL0     H37278   0.066   4.490   1.206 -1.9442  2.3856  2.3150
 1017MOL0     H37279   1.606   4.498   1.018  1.2146  0.4833 -1.7322
 1017MOL0     H37280   1.774   4.471   0.844  2.3301 -1.9830  0.0495
 1017MOL0     H37281   2.140   4.289   0.697 -1.0840  0.1027 -0.6989
 1017MOL0     H37282   2.318   4.244   0.535 -1.8294  0.8041 -1.6673
 1017MOL0     H37283   2.665   4.512   0.491  2.0479 -3.3492 -0.7496
 1017MOL0     H37284   2.568   4.573   0.353  0.5779 -0.4168 -1.0336
 1017MOL0     H37285   2.616   4.371   0.230  1.3474 -0.8440 -1.6492
 1017MOL0     H37286   2.683   4.293   0.368  0.9462 -0.8452 -0.1242
 1017MOL0     H37287   2.882   4.449   0.356  0.6949 -1.3512  0.8073
 1017MOL0     H37288   2.803   4.537   0.214  2.1808 -0.4641 -1.8848
 1017MOL0     H37289   2.979   4.384   0.166 -0.4423 -0.0594 -4.7622
 1017MOL0     H37290   2.881   4.245   0.217 -2.1493 -0.2743  0.2433
 1017MOL0     H37291   2.695   4.383  -0.148  0.3786  0.5854  0.1881
 1017MOL0     H37292   2.478   4.635   0.567  1.9435 -1.9222  1.6995
 1017MOL0     H37293   2.372   4.800   0.668  0.8191 -0.1069  0.4892
 1017MOL0     H37294   2.203   4.768   0.717 -0.2492 -1.7795  0.0419
 1017MOL0     H37295   2.338   4.747   0.832 -0.4836 -3.3709  1.0119
 1018MOL0     O37296   8.697   1.001   8.823  0.4700  0.1128  1.0214
 1018MOL0     C37297   8.596   1.042   8.883 -0.7338  0.0654 -0.3025
 1018MOL0     O37298   8.603   1.122   8.993  0.7419 -0.6010  0.5781
 1018MOL0     C37299   8.728   1.175   9.023  0.1023  0.5263 -0.7493
 1018MOL0     C37300   8.759   1.310   9.001  0.3532 -0.5677  0.1814
 1018MOL0     C37301   8.873   1.365   9.044  0.0186 -1.0499  1.1257
 1018MOL0     C37302   8.967   1.287   9.119  0.6734 -0.7096  0.4356
 1018MOL0     O37303   9.087   1.342   9.161  0.3327 -1.1500  0.1309
 1018MOL0     C37304   9.191   1.251   9.215  0.5571  0.2284  0.6290
 1018MOL0     C37305   9.312   1.330   9.266  0.0473  0.0060  0.0462
 1018MOL0     C37306   9.363   1.437   9.164  0.1615  0.1085  0.9158
 1018MOL0     C37307   9.453   1.540   9.231  0.1027  0.9058 -0.2179
 1018MOL0     C37308   9.380   1.663   9.289  0.6993 -0.0520 -0.3461
 1018MOL0     C37309   9.479   1.755   9.367  0.4258  0.3209  0.4753
 1018MOL0     C37310   9.519   1.700   9.508  0.1600 -0.2642  0.1196
 1018MOL0     C37311   9.403   1.689   9.611 -0.3776  0.0897 -0.2953
 1018MOL0     N37312   9.461   1.685   9.750 -0.1171 -0.1283 -0.3251
 1018MOL0     C37313   9.508   1.796   9.821  0.0951 -0.3382  1.1677
 1018MOL0     C37314   9.515   1.748   9.946  0.0061 -0.2356  0.0599
 1018MOL0     C37315   9.561   1.802  10.082 -0.6471 -0.2361  0.3286
 1018MOL0     C37316   9.577   1.952  10.062  0.3790  1.2606 -0.0422
 1018MOL0     C37317   9.606   2.008  10.198 -0.4901 -1.1766  0.0169
 1018MOL0     C37318   9.584   2.162  10.191 -0.1058 -1.1244 -0.1799
 1018MOL0     O37319   9.468   2.203  10.122 -0.3644 -0.1392 -0.2023
 1018MOL0     C37320   9.428   2.333  10.105  0.3109  0.6651 -0.0591
 1018MOL0     C37321   9.490   2.443  10.153  0.1300 -0.4379  0.1670
 1018MOL0     C37322   9.430   2.568  10.128  0.4814  0.4366  0.8862
 1018MOL0     C37323   9.311   2.570  10.049  0.3495  0.0990  0.4142
 1018MOL0     C37324   9.238   2.689  10.019  0.3341  0.3298  0.0714
 1018MOL0     O37325   9.109   2.673   9.989 -0.1048  0.7007 -0.7412
 1018MOL0     C37326   9.017   2.770   9.972 -0.3603 -0.7437 -0.1358
 1018MOL0     C37327   9.040   2.891   9.909  0.3681 -0.2285  0.9779
 1018MOL0     C37328   8.939   2.981   9.886  0.6297  0.7490  0.2149
 1018MOL0     C37329   8.809   2.947   9.934  0.1990  1.2418 -0.5528
 1018MOL0     O37330   8.693   3.030   9.923 -0.0091 -0.3824  0.0553
 1018MOL0     C37331   8.557   2.986   9.950 -0.0747  0.4300  0.4020
 1018MOL0     C37332   8.467   3.104   9.902 -0.2160  0.9139  0.1932
 1018MOL0     C37333   8.330   3.081   9.965 -0.2908 -0.9122 -0.5913
 1018MOL0     C37334   8.240   2.982   9.894 -0.0309  0.6294 -0.3483
 1018MOL0     C37335   8.130   2.923   9.980  0.5539 -1.2912 -0.2685
 1018MOL0     C37336   8.014   3.021  10.014  0.0531 -0.3327  0.2494
 1018MOL0     C37337   8.017   3.059  10.164 -0.0319 -0.3465  0.6164
 1018MOL0     C37338   7.885   3.070  10.224 -0.1772 -0.7819  0.0563
 1018MOL0    Cl37339   7.794   2.919  10.240 -0.0279  0.1819 -0.1974
 1018MOL0     C37340   8.794   2.819   9.990  0.2586  0.3023 -0.2538
 1018MOL0     C37341   8.895   2.738  10.015 -0.2523  0.2239  0.9327
 1018MOL0     O37342   9.290   2.801  10.036  0.5705  0.5265 -0.3291
 1018MOL0     C37343   9.251   2.453   9.996 -0.4933  0.9968  0.2261
 1018MOL0     C37344   9.318   2.336  10.023 -0.1282  0.9674  0.0308
 1018MOL0     N37345   9.476   1.618   9.953  0.2397  0.7350 -0.5829
 1018MOL0     N37346   9.451   1.577   9.837  0.9934  0.2339 -0.3084
 1018MOL0     C37347   8.936   1.156   9.150  1.3133  0.1607  0.9377
 1018MOL0     C37348   8.814   1.096   9.100 -0.6955 -0.3209 -0.6042
 1018MOL0     C37349   8.461   0.990   8.835  0.6898 -0.0823  0.5286
 1018MOL0     C37350   8.428   0.853   8.845  1.1256  1.0872 -0.3084
 1018MOL0     C37351   8.297   0.804   8.825  0.1112 -0.8142  0.0896
 1018MOL0     C37352   8.194   0.895   8.778  0.1880  0.5370  1.0149
 1018MOL0     O37353   8.065   0.855   8.741 -0.0895  0.0642 -0.5632
 1018MOL0     C37354   8.027   0.710   8.735  0.3393  0.0002 -0.0866
 1018MOL0     C37355   7.958   0.664   8.860 -0.3627  0.0904 -0.4485
 1018MOL0     C37356   7.813   0.721   8.875  0.3630  1.0690  0.6038
 1018MOL0     C37357   7.767   0.698   9.019  0.4631 -0.0828 -0.4781
 1018MOL0     C37358   7.623   0.738   9.037 -0.4787 -0.3306 -0.7056
 1018MOL0     C37359   7.514   0.784   9.041  0.4254  0.6392 -0.6111
 1018MOL0     C37360   8.222   1.029   8.771  0.6674  0.2577 -0.5504
 1018MOL0     C37361   8.352   1.076   8.800 -0.2178 -0.2653  0.4231
 1018MOL0     C37362   8.366   1.227   8.796 -0.4387 -0.5700  0.6119
 1018MOL0     H37363   8.673   1.354   8.951  0.2209 -0.7509  0.2440
 1018MOL0     H37364   8.907   1.466   9.019 -0.6839 -1.0626  0.0642
 1018MOL0     H37365   9.141   1.191   9.292 -3.3743 -2.0094 -3.1787
 1018MOL0     H37366   9.230   1.175   9.147  1.0708 -1.2344  2.4636
 1018MOL0     H37367   9.398   1.263   9.276  2.5406  3.1017  1.1985
 1018MOL0     H37368   9.292   1.377   9.363 -1.6587  1.4036 -0.9356
 1018MOL0     H37369   9.281   1.491   9.117  0.4873  1.0015  1.3496
 1018MOL0     H37370   9.421   1.388   9.085  1.4988  0.7671  1.4462
 1018MOL0     H37371   9.501   1.484   9.312 -0.5217 -0.3690 -0.6982
 1018MOL0     H37372   9.525   1.568   9.154 -1.0227  0.8342 -1.3201
 1018MOL0     H37373   9.334   1.729   9.215  3.9464  0.6293 -1.9090
 1018MOL0     H37374   9.293   1.639   9.352  0.7048 -0.6279 -0.5485
 1018MOL0     H37375   9.567   1.761   9.302  0.8668 -3.4457  0.4699
 1018MOL0     H37376   9.435   1.855   9.368 -5.1911 -1.7355 -1.1854
 1018MOL0     H37377   9.597   1.770   9.542  0.3224 -0.5645  0.3661
 1018MOL0     H37378   9.570   1.604   9.494 -2.0329 -1.5179  0.4419
 1018MOL0     H37379   9.341   1.779   9.602  1.2278  1.7778  3.1707
 1018MOL0     H37380   9.356   1.594   9.586  1.2887 -0.6876 -0.6094
 1018MOL0     H37381   9.538   1.895   9.791  1.0923 -0.9388  0.1198
 1018MOL0     H37382   9.491   1.787  10.164  0.9174  4.0389  2.7694
 1018MOL0     H37383   9.657   1.758  10.109 -1.2463 -0.2371  2.6111
 1018MOL0     H37384   9.664   1.971   9.998  1.2850 -1.1732  0.3431
 1018MOL0     H37385   9.480   1.978  10.019 -0.0826 -1.5220 -0.8775
 1018MOL0     H37386   9.710   1.986  10.226  0.0078  0.4873 -0.4010
 1018MOL0     H37387   9.543   1.968  10.278 -0.1894 -1.6898 -0.0037
 1018MOL0     H37388   9.674   2.219  10.165 -0.2380  0.0495  1.6787
 1018MOL0     H37389   9.564   2.195  10.294 -1.0920  0.0845 -0.7293
 1018MOL0     H37390   9.587   2.435  10.202  0.3435  2.1693  0.2781
 1018MOL0     H37391   9.461   2.657  10.182  2.1931 -0.7536  1.9374
 1018MOL0     H37392   9.142   2.914   9.880  0.2386  1.2421  1.6085
 1018MOL0     H37393   8.961   3.080   9.848  5.0685 -0.6246 -1.2874
 1018MOL0     H37394   8.520   2.904   9.888 -0.5790  0.5263  0.5681
 1018MOL0     H37395   8.545   2.969  10.057  1.3718 -0.7913  0.3974
 1018MOL0     H37396   8.517   3.192   9.941 -0.2258  0.6889  0.7250
 1018MOL0     H37397   8.459   3.114   9.793 -0.9222 -0.7586  0.0503
 1018MOL0     H37398   8.355   3.039  10.063 -1.8624 -3.7962 -1.3381
 1018MOL0     H37399   8.269   3.172   9.971  1.0023  0.0907 -1.8100
 1018MOL0     H37400   8.303   2.900   9.859 -0.6587  0.3098 -0.7537
 1018MOL0     H37401   8.195   3.033   9.808 -2.0554 -0.1026  0.2094
 1018MOL0     H37402   8.169   2.880  10.072 -0.8831 -0.7626  0.6256
 1018MOL0     H37403   8.072   2.848   9.925 -3.2906  2.0987 -1.4240
 1018MOL0     H37404   8.031   3.113   9.957 -4.9770  0.8557  0.1744
 1018MOL0     H37405   7.921   2.974   9.979  0.9328 -1.2998 -0.8843
 1018MOL0     H37406   8.063   3.159  10.160 -4.1438  1.8376  2.0456
 1018MOL0     H37407   8.074   2.988  10.225  1.8867 -0.0822 -0.7669
 1018MOL0     H37408   7.894   3.114  10.323 -3.3052  2.1021 -0.7652
 1018MOL0     H37409   7.829   3.137  10.158  0.3981 -0.6868 -0.3417
 1018MOL0     H37410   8.693   2.797  10.024 -0.6997  3.6541 -0.5879
 1018MOL0     H37411   8.898   2.644  10.068  1.3778 -0.1803  0.1738
 1018MOL0     H37412   9.163   2.449   9.933 -1.0982  0.0890  1.1001
 1018MOL0     H37413   9.279   2.240   9.990  0.1369  1.5710 -2.1652
 1018MOL0     H37414   9.009   1.085   9.189  1.0377 -0.1486  0.8913
 1018MOL0     H37415   8.802   0.991   9.124  1.0570 -0.5627 -0.6750
 1018MOL0     H37416   8.497   0.778   8.883  0.1208 -0.0943 -0.7516
 1018MOL0     H37417   8.265   0.705   8.857 -1.7156 -0.9338 -1.9017
 1018MOL0     H37418   8.115   0.646   8.722  1.4129  1.4972 -0.3491
 1018MOL0     H37419   7.956   0.702   8.653  0.5908  1.1413 -0.4200
 1018MOL0     H37420   8.019   0.689   8.948 -2.1106 -1.6204  1.3377
 1018MOL0     H37421   7.944   0.556   8.852  2.4396 -0.3935 -0.0902
 1018MOL0     H37422   7.746   0.662   8.811  0.9189  0.0675  0.9203
 1018MOL0     H37423   7.810   0.826   8.844 -0.6412  1.1568  0.9362
 1018MOL0     H37424   7.758   0.590   9.025 -0.7571  0.0843  2.4463
 1018MOL0     H37425   7.838   0.741   9.090  0.0699 -0.1597 -0.0342
 1018MOL0     H37426   7.421   0.836   9.025  0.9866  1.5262 -1.0919
 1018MOL0     H37427   8.138   1.092   8.746 -0.9094 -0.8367  1.6443
 1018MOL0     H37428   8.457   1.260   8.745  0.8136 -1.3733  2.2152
 1018MOL0     H37429   8.291   1.283   8.739  0.5338 -0.4775 -0.6198
 1018MOL0     H37430   8.362   1.241   8.904  1.7871 -0.3505  0.7048
 1019MOL0     O37431  10.167   6.677   1.285 -0.7572  0.0005  0.3535
 1019MOL0     C37432  10.223   6.782   1.238 -1.0304  0.6330  0.2818
 1019MOL0     O37433  10.211   6.905   1.281 -0.2071 -0.1331 -0.2641
 1019MOL0     C37434  10.096   6.955   1.336  0.5985  1.0409  0.4175
 1019MOL0     C37435  10.108   7.082   1.378  0.4743  0.0809  0.2202
 1019MOL0     C37436   9.996   7.158   1.417 -0.0855  0.9100 -0.6899
 1019MOL0     C37437   9.865   7.104   1.406  0.5985  0.2746 -0.7840
 1019MOL0     O37438   9.747   7.165   1.440 -0.3769 -0.3296 -0.9853
 1019MOL0     C37439   9.764   7.301   1.469 -0.0390 -0.2026 -0.3844
 1019MOL0     C37440   9.628   7.374   1.501 -0.6716 -0.4174  0.5704
 1019MOL0     C37441   9.643   7.522   1.536  0.6439 -0.5968 -0.4902
 1019MOL0     C37442   9.514   7.600   1.514 -0.7015 -0.7179 -0.2438
 1019MOL0     C37443   9.401   7.588   1.622  0.0546  0.4411  0.1687
 1019MOL0     C37444   9.436   7.662   1.755  0.1947 -0.3215  0.1916
 1019MOL0     C37445   9.316   7.686   1.839  0.1301 -0.0850 -0.5586
 1019MOL0     C37446   9.235   7.805   1.787  0.3052 -0.4215 -0.3999
 1019MOL0     N37447   9.139   7.850   1.892  0.3327 -1.1135  0.2680
 1019MOL0     C37448   9.013   7.802   1.928 -0.2533 -0.0704  0.8405
 1019MOL0     C37449   8.960   7.894   2.013  0.0654  0.0792  0.2535
 1019MOL0     C37450   8.837   7.873   2.091  0.8778 -0.6118  0.0348
 1019MOL0     C37451   8.796   7.734   2.130 -0.0702  0.3020  1.0312
 1019MOL0     C37452   8.667   7.709   2.213  0.0724 -0.7730  0.6104
 1019MOL0     C37453   8.679   7.590   2.300 -0.4468  0.5601 -0.0416
 1019MOL0     O37454   8.751   7.609   2.426 -0.3271 -0.2806 -0.1075
 1019MOL0     C37455   8.685   7.646   2.543 -0.0422 -0.3503 -1.7996
 1019MOL0     C37456   8.546   7.665   2.560  0.5047 -0.2945  0.0316
 1019MOL0     C37457   8.486   7.680   2.681  0.5673 -0.5171 -0.4583
 1019MOL0     C37458   8.569   7.699   2.796  0.3183 -0.6503 -0.6402
 1019MOL0     C37459   8.529   7.754   2.930  0.0422  0.9138 -0.0056
 1019MOL0     O37460   8.628   7.818   3.007 -0.4286  0.0166 -0.5790
 1019MOL0     C37461   8.600   7.893   3.125  0.4052 -0.4311  0.2301
 1019MOL0     C37462   8.516   8.008   3.127 -0.1199 -0.0415 -0.5486
 1019MOL0     C37463   8.494   8.086   3.246  0.0687  0.5793  0.6773
 1019MOL0     C37464   8.545   8.045   3.374 -0.9990 -0.6786  0.2745
 1019MOL0     O37465   8.520   8.126   3.482 -0.6453 -0.9131 -0.5194
 1019MOL0     C37466   8.612   8.132   3.596 -0.0559 -0.1234  0.6601
 1019MOL0     C37467   8.576   8.250   3.693  1.3060 -0.3192 -0.1650
 1019MOL0     C37468   8.675   8.368   3.707 -0.6526  0.2964  0.1756
 1019MOL0     C37469   8.627   8.494   3.776 -0.3547 -1.2330 -0.3792
 1019MOL0     C37470   8.746   8.585   3.824 -0.2349  0.0686 -0.5647
 1019MOL0     C37471   8.838   8.629   3.708  0.4355  0.0806 -0.7425
 1019MOL0     C37472   8.957   8.714   3.770  0.1439  0.3844 -0.2618
 1019MOL0     C37473   9.062   8.728   3.670  0.0415 -0.3497 -0.5449
 1019MOL0    Cl37474   9.015   8.847   3.556 -0.0400  0.2193  0.0289
 1019MOL0     C37475   8.634   7.933   3.373 -0.2635 -0.1861  0.5390
 1019MOL0     C37476   8.648   7.852   3.252 -1.5368 -0.3800 -0.4418
 1019MOL0     O37477   8.414   7.736   2.971 -0.3867  0.4408 -0.2602
 1019MOL0     C37478   8.701   7.677   2.778 -0.3357  0.1251  0.8808
 1019MOL0     C37479   8.761   7.656   2.656 -0.8399 -0.3788  0.3884
 1019MOL0     N37480   9.043   8.007   2.008 -0.3923 -0.2555 -0.1520
 1019MOL0     N37481   9.157   7.976   1.952 -0.1903 -0.6030  0.0315
 1019MOL0     C37482   9.856   6.974   1.354  0.0160  0.1250 -1.2503
 1019MOL0     C37483   9.967   6.902   1.322  0.4088 -0.1367 -0.1600
 1019MOL0     C37484  10.337   6.760   1.154  0.7138  0.0233  0.8797
 1019MOL0     C37485  10.459   6.832   1.175  0.8597 -0.4794  0.6241
 1019MOL0     C37486  10.570   6.813   1.094  0.3506 -0.0962 -0.7480
 1019MOL0     C37487  10.552   6.742   0.978 -0.3057  0.3226  0.4447
 1019MOL0     O37488  10.651   6.713   0.883  0.1714  0.8717  0.4470
 1019MOL0     C37489  10.773   6.775   0.893  1.0851  0.4811 -0.1254
 1019MOL0     C37490  10.852   6.740   0.767  0.2352  0.0704 -0.8559
 1019MOL0     C37491  10.818   6.805   0.633  0.0451 -0.1876 -0.7213
 1019MOL0     C37492  10.866   6.721   0.508  0.8490  0.5906  0.6393
 1019MOL0     C37493  11.010   6.679   0.500 -0.0198 -0.0942 -0.3480
 1019MOL0     C37494  11.124   6.660   0.468 -0.6202 -0.5126  0.2866
 1019MOL0     C37495  10.435   6.665   0.963  0.1022  0.2101  0.0309
 1019MOL0     C37496  10.329   6.672   1.050  0.9658  1.2684  0.6295
 1019MOL0     C37497  10.200   6.610   0.997 -0.1729 -0.6831 -0.6302
 1019MOL0     H37498  10.203   7.133   1.387  1.5746 -2.2194  3.5661
 1019MOL0     H37499  10.013   7.257   1.459  1.0287  0.7432 -0.7379
 1019MOL0     H37500   9.829   7.302   1.556  3.1979 -1.1270 -2.6130
 1019MOL0     H37501   9.804   7.355   1.382  2.0187 -0.2846  0.4500
 1019MOL0     H37502   9.573   7.326   1.583 -1.0009  0.1014  0.6605
 1019MOL0     H37503   9.562   7.371   1.413 -0.0961  2.8351 -0.0758
 1019MOL0     H37504   9.727   7.559   1.477  2.0446  0.5937  2.0759
 1019MOL0     H37505   9.672   7.539   1.640 -1.8543 -2.9891  0.7388
 1019MOL0     H37506   9.545   7.705   1.514 -0.2576 -0.8242  0.9855
 1019MOL0     H37507   9.483   7.577   1.412 -3.1409 -0.6463  0.4076
 1019MOL0     H37508   9.322   7.651   1.582  0.8130  2.3261  1.5082
 1019MOL0     H37509   9.357   7.487   1.631  0.0252  0.3502 -0.9136
 1019MOL0     H37510   9.519   7.609   1.803  2.5579  4.0881  1.5505
 1019MOL0     H37511   9.464   7.762   1.720 -2.2798  0.1719 -0.6357
 1019MOL0     H37512   9.344   7.716   1.940 -0.8647 -0.1429 -0.2623
 1019MOL0     H37513   9.252   7.597   1.843 -0.4939  0.2909 -1.6727
 1019MOL0     H37514   9.299   7.890   1.762  4.3784 -2.8178  0.8923
 1019MOL0     H37515   9.177   7.767   1.702  0.4469 -1.7314  0.0645
 1019MOL0     H37516   8.952   7.720   1.893 -0.7301  0.0596  1.3522
 1019MOL0     H37517   8.837   7.928   2.186 -4.2102 -1.0915  0.5843
 1019MOL0     H37518   8.759   7.923   2.034  2.3119  0.2560 -1.2645
 1019MOL0     H37519   8.779   7.679   2.037 -0.9343  0.2121  1.2319
 1019MOL0     H37520   8.884   7.702   2.186  0.5550 -2.6990 -1.4413
 1019MOL0     H37521   8.576   7.706   2.154  2.3251 -1.6258 -3.1843
 1019MOL0     H37522   8.667   7.794   2.282  1.1343 -1.9626  2.1450
 1019MOL0     H37523   8.723   7.511   2.238 -3.8123 -1.7372  0.1811
 1019MOL0     H37524   8.576   7.553   2.313 -1.1496  3.3443  4.2030
 1019MOL0     H37525   8.489   7.678   2.468 -0.0766 -1.3032  0.2326
 1019MOL0     H37526   8.380   7.697   2.696  0.8278 -0.0744  1.1301
 1019MOL0     H37527   8.479   8.040   3.030  0.7818  1.0640 -0.5474
 1019MOL0     H37528   8.416   8.158   3.222 -0.2913 -0.1389 -0.3915
 1019MOL0     H37529   8.620   8.038   3.651  2.3032  0.1403  0.8652
 1019MOL0     H37530   8.715   8.154   3.569  0.7400 -1.4799  2.4130
 1019MOL0     H37531   8.480   8.292   3.663  0.5978 -2.3657 -0.9644
 1019MOL0     H37532   8.572   8.199   3.790  0.7613 -2.6485 -1.3291
 1019MOL0     H37533   8.766   8.336   3.758  1.2073  2.8539 -1.3096
 1019MOL0     H37534   8.704   8.396   3.606  0.5296  0.9093  0.6712
 1019MOL0     H37535   8.572   8.462   3.865 -0.1621  1.4226  0.7783
 1019MOL0     H37536   8.551   8.532   3.708  1.0564 -1.3134 -2.0675
 1019MOL0     H37537   8.801   8.529   3.900 -0.2021 -0.7563 -1.1816
 1019MOL0     H37538   8.710   8.677   3.871 -1.3627 -0.9131  0.5728
 1019MOL0     H37539   8.881   8.542   3.657  1.2513  0.1199 -0.1428
 1019MOL0     H37540   8.779   8.691   3.640 -0.2463  0.0058 -0.2293
 1019MOL0     H37541   8.990   8.664   3.861  0.1050 -1.2053 -1.0732
 1019MOL0     H37542   8.922   8.815   3.792  0.0880  0.7900 -2.0210
 1019MOL0     H37543   9.154   8.754   3.724 -1.0599  1.8575  0.3907
 1019MOL0     H37544   9.073   8.633   3.617 -0.9587 -0.0507 -1.3150
 1019MOL0     H37545   8.684   7.904   3.465 -0.1410 -0.8007  0.2822
 1019MOL0     H37546   8.712   7.764   3.255 -0.5558  0.3658  1.5023
 1019MOL0     H37547   8.773   7.684   2.859 -0.0505  3.3962  0.4700
 1019MOL0     H37548   8.866   7.641   2.636 -0.9560  1.9006 -2.6931
 1019MOL0     H37549   9.760   6.924   1.348  0.3190 -0.6674 -0.0151
 1019MOL0     H37550   9.957   6.800   1.284  3.7675 -1.0351  1.0635
 1019MOL0     H37551  10.461   6.892   1.265  0.2866  2.2112 -1.0373
 1019MOL0     H37552  10.664   6.866   1.105  2.4657 -2.7865 -4.0223
 1019MOL0     H37553  10.826   6.731   0.978 -1.7611 -3.1607  0.0093
 1019MOL0     H37554  10.760   6.883   0.906 -3.3814  0.0329  0.8500
 1019MOL0     H37555  10.860   6.632   0.753 -0.2449  0.0490 -0.9696
 1019MOL0     H37556  10.950   6.780   0.795 -0.0552 -0.8341  1.7405
 1019MOL0     H37557  10.858   6.907   0.640 -0.4882 -0.0664  1.1494
 1019MOL0     H37558  10.709   6.815   0.630 -0.2975 -2.5545  1.0491
 1019MOL0     H37559  10.810   6.628   0.498  1.0072  0.7128 -2.6781
 1019MOL0     H37560  10.850   6.773   0.413  0.7705  0.7981  0.7652
 1019MOL0     H37561  11.224   6.648   0.430 -0.5335  1.4566 -0.2226
 1019MOL0     H37562  10.442   6.603   0.874 -3.0665 -0.0236 -0.1556
 1019MOL0     H37563  10.210   6.585   0.891 -0.1911 -0.3344 -0.7160
 1019MOL0     H37564  10.179   6.517   1.050 -3.2710  0.6122  0.6676
 1019MOL0     H37565  10.108   6.666   1.018  0.3132 -0.2688  0.4963
 1020MOL0     O37566   2.763   5.233   1.652 -0.5821 -0.0457  0.2892
 1020MOL0     C37567   2.752   5.353   1.624 -0.2194  0.8933  0.2898
 1020MOL0     O37568   2.854   5.436   1.579 -0.4520  0.2417 -0.3683
 1020MOL0     C37569   2.980   5.388   1.592 -0.5653  0.5454 -0.1412
 1020MOL0     C37570   3.064   5.392   1.484  0.1284  0.6941 -0.2636
 1020MOL0     C37571   3.200   5.364   1.498 -0.0597  0.2126  0.1946
 1020MOL0     C37572   3.259   5.333   1.624  0.0521  0.3848 -0.2507
 1020MOL0     O37573   3.388   5.338   1.652 -0.7386 -0.1511 -0.2291
 1020MOL0     C37574   3.495   5.400   1.569  0.1860  0.3321 -1.1102
 1020MOL0     C37575   3.560   5.300   1.482 -0.5495 -0.1621 -0.0104
 1020MOL0     C37576   3.686   5.360   1.437 -0.2299  0.0725  1.7360
 1020MOL0     C37577   3.781   5.262   1.362  0.3231 -0.4605  0.7186
 1020MOL0     C37578   3.896   5.340   1.294 -0.2496  0.4527 -0.3270
 1020MOL0     C37579   3.964   5.251   1.191  0.7122  1.6625 -0.0767
 1020MOL0     C37580   4.030   5.121   1.237  0.6106  0.8369  0.8277
 1020MOL0     C37581   4.124   5.136   1.357  0.1217 -0.0037 -0.7099
 1020MOL0     N37582   4.210   5.013   1.373  0.6826 -0.5918 -0.9225
 1020MOL0     C37583   4.315   4.972   1.285 -0.6831  0.7104 -0.2022
 1020MOL0     C37584   4.362   4.856   1.330  0.0833 -0.0135  0.1873
 1020MOL0     C37585   4.470   4.777   1.257  0.4507  0.1901  0.1910
 1020MOL0     C37586   4.492   4.651   1.336 -0.4579 -0.3672  0.2328
 1020MOL0     C37587   4.570   4.562   1.242  0.4861 -0.1678 -0.2542
 1020MOL0     C37588   4.702   4.611   1.181 -0.4871 -1.4430 -0.3566
 1020MOL0     O37589   4.721   4.535   1.063 -0.1029 -0.0487  0.3569
 1020MOL0     C37590   4.847   4.508   1.019  0.4715 -1.0102 -0.7443
 1020MOL0     C37591   4.858   4.417   0.918  0.4754  0.1962 -0.0813
 1020MOL0     C37592   4.984   4.371   0.886  0.0133  0.0821 -0.3846
 1020MOL0     C37593   5.096   4.409   0.951 -0.4999  0.2449  0.2521
 1020MOL0     C37594   5.234   4.361   0.916 -0.1493  0.0661  0.1528
 1020MOL0     O37595   5.244   4.312   0.795  0.4095  0.1104 -0.2437
 1020MOL0     C37596   5.359   4.256   0.750 -0.3425  1.5767 -1.0153
 1020MOL0     C37597   5.460   4.177   0.820  0.4985 -1.1317  0.2830
 1020MOL0     C37598   5.562   4.109   0.758 -0.1663 -0.4767 -0.2533
 1020MOL0     C37599   5.568   4.119   0.618  0.3677  0.3039  0.2947
 1020MOL0     O37600   5.665   4.057   0.537  0.5548  0.5190 -0.3190
 1020MOL0     C37601   5.789   4.000   0.603  0.6890  0.4022 -0.6835
 1020MOL0     C37602   5.882   3.955   0.494  1.4582 -0.4072 -1.3322
 1020MOL0     C37603   5.812   3.886   0.370 -0.1799  0.6609  0.5451
 1020MOL0     C37604   5.705   3.769   0.405 -0.2129  0.4828  1.1170
 1020MOL0     C37605   5.660   3.697   0.277  0.0708 -0.2630  0.0711
 1020MOL0     C37606   5.586   3.566   0.320  0.3006 -0.5618 -0.5538
 1020MOL0     C37607   5.533   3.481   0.206  0.2319  0.5306  0.3891
 1020MOL0     C37608   5.489   3.329   0.240 -1.1643 -0.6172 -0.3512
 1020MOL0    Cl37609   5.370   3.313   0.365  0.2110 -0.0464 -0.1475
 1020MOL0     C37610   5.482   4.199   0.545 -0.6807 -0.4225  0.2861
 1020MOL0     C37611   5.372   4.258   0.609  0.1467 -0.1790 -0.0052
 1020MOL0     O37612   5.331   4.392   0.989 -0.0594 -0.3321  0.2435
 1020MOL0     C37613   5.086   4.501   1.050 -0.7740  0.1394 -0.2703
 1020MOL0     C37614   4.960   4.545   1.089  0.1137  0.6258  0.0041
 1020MOL0     N37615   4.292   4.838   1.450 -0.2941 -0.5707  0.0822
 1020MOL0     N37616   4.195   4.925   1.476  0.2706 -0.5189  0.6927
 1020MOL0     C37617   3.166   5.308   1.732  0.3669  0.0237  0.3046
 1020MOL0     C37618   3.031   5.347   1.718  0.3503 -0.0244  0.8607
 1020MOL0     C37619   2.609   5.410   1.606  1.0248  0.5098 -0.3769
 1020MOL0     C37620   2.501   5.317   1.609  0.1045  0.1468  0.2775
 1020MOL0     C37621   2.370   5.360   1.592 -0.5471 -0.0618 -0.8715
 1020MOL0     C37622   2.342   5.498   1.572 -0.7657  0.0159 -1.0172
 1020MOL0     O37623   2.224   5.557   1.534 -0.1297 -0.5159 -0.4773
 1020MOL0     C37624   2.102   5.482   1.531  0.4246 -0.0639  0.6804
 1020MOL0     C37625   1.983   5.563   1.579  0.1873  0.5098  0.2970
 1020MOL0     C37626   1.897   5.636   1.472 -0.4093 -0.0158  1.0635
 1020MOL0     C37627   1.984   5.700   1.364  0.1195 -0.1487  0.2714
 1020MOL0     C37628   1.908   5.735   1.248  0.2929 -0.2823 -0.5006
 1020MOL0     C37629   1.864   5.760   1.140 -0.6240 -0.3654 -0.6540
 1020MOL0     C37630   2.438   5.595   1.607 -0.6842 -0.9850  1.2415
 1020MOL0     C37631   2.570   5.548   1.619 -0.7682 -1.0948 -0.4022
 1020MOL0     C37632   2.669   5.656   1.630 -0.7301 -0.0955  0.2464
 1020MOL0     H37633   3.025   5.438   1.394  0.6701 -0.4046 -1.0731
 1020MOL0     H37634   3.269   5.371   1.415  0.6083 -1.7489  0.5194
 1020MOL0     H37635   3.451   5.479   1.508 -4.1836  0.4614  1.7056
 1020MOL0     H37636   3.567   5.435   1.644  0.3123 -1.9826 -0.0550
 1020MOL0     H37637   3.497   5.285   1.395 -1.5302  2.3529  0.1821
 1020MOL0     H37638   3.567   5.209   1.542 -3.1237  0.6820  1.7518
 1020MOL0     H37639   3.737   5.403   1.524 -0.2354 -1.0289  2.2950
 1020MOL0     H37640   3.668   5.446   1.371 -3.4451 -1.1444  0.8540
 1020MOL0     H37641   3.826   5.182   1.421  0.9205 -1.4601 -1.0028
 1020MOL0     H37642   3.717   5.213   1.287 -0.2563 -0.2310  1.0576
 1020MOL0     H37643   3.853   5.426   1.241 -2.9395 -1.7114 -1.9672
 1020MOL0     H37644   3.979   5.375   1.356 -0.5326  1.8519 -0.7068
 1020MOL0     H37645   3.905   5.215   1.106  2.0745  1.6569 -1.0423
 1020MOL0     H37646   4.050   5.304   1.149  1.6828  2.3606  2.5483
 1020MOL0     H37647   4.086   5.071   1.157 -1.6639 -0.3039 -0.1352
 1020MOL0     H37648   3.953   5.047   1.258  1.4297 -0.1524  0.4133
 1020MOL0     H37649   4.190   5.222   1.344 -0.4145  0.7097  1.0076
 1020MOL0     H37650   4.067   5.152   1.449  1.3411  1.3958 -0.1652
 1020MOL0     H37651   4.344   5.035   1.201 -2.2086  1.5287 -0.1517
 1020MOL0     H37652   4.432   4.767   1.155 -0.6974 -0.9421  0.6979
 1020MOL0     H37653   4.565   4.831   1.256  2.2470 -2.7044 -0.1095
 1020MOL0     H37654   4.544   4.661   1.432 -0.3943 -0.4219  0.2035
 1020MOL0     H37655   4.394   4.611   1.364  0.3003 -1.1584  1.9698
 1020MOL0     H37656   4.495   4.545   1.164 -0.4755  3.7589 -0.3564
 1020MOL0     H37657   4.591   4.465   1.290 -1.1180  0.1351  1.1532
 1020MOL0     H37658   4.774   4.596   1.262  0.2412 -0.8881 -0.8904
 1020MOL0     H37659   4.698   4.716   1.150 -2.1889 -0.5542  2.4559
 1020MOL0     H37660   4.771   4.371   0.873  1.7061  0.7215 -3.2062
 1020MOL0     H37661   4.987   4.311   0.796  0.5242 -1.0742  0.3810
 1020MOL0     H37662   5.445   4.161   0.926 -0.0508  0.0514  0.4025
 1020MOL0     H37663   5.631   4.043   0.810 -0.3188 -0.0617  0.4952
 1020MOL0     H37664   5.832   4.076   0.669 -2.5731  0.5565  1.4843
 1020MOL0     H37665   5.759   3.918   0.668 -0.3814 -2.7715 -4.7561
 1020MOL0     H37666   5.944   4.038   0.461 -0.5859  2.7434  1.9469
 1020MOL0     H37667   5.944   3.879   0.543 -0.8083 -2.1177 -0.9346
 1020MOL0     H37668   5.771   3.968   0.310 -0.2644  2.2855  2.7031
 1020MOL0     H37669   5.897   3.842   0.316 -1.6029 -4.3342  1.8485
 1020MOL0     H37670   5.615   3.816   0.446  0.3549  0.3227  2.5910
 1020MOL0     H37671   5.753   3.699   0.474  2.0760 -0.1790 -1.0167
 1020MOL0     H37672   5.749   3.676   0.217 -0.6213 -2.6878 -0.2392
 1020MOL0     H37673   5.595   3.765   0.221 -0.0073  0.4803  1.0416
 1020MOL0     H37674   5.661   3.507   0.375  1.8434  0.9527 -0.9531
 1020MOL0     H37675   5.504   3.590   0.388  0.2248 -1.7527 -0.2066
 1020MOL0     H37676   5.617   3.484   0.136  2.6535 -1.3696  2.9595
 1020MOL0     H37677   5.450   3.538   0.165  0.0143  0.6380  0.9646
 1020MOL0     H37678   5.456   3.286   0.145 -0.1646  1.3933 -1.6682
 1020MOL0     H37679   5.576   3.272   0.275 -0.6283  1.6473  2.2940
 1020MOL0     H37680   5.504   4.203   0.438 -3.5660 -0.7339 -0.4033
 1020MOL0     H37681   5.300   4.307   0.544  0.8864  2.3209  0.9258
 1020MOL0     H37682   5.169   4.521   1.117 -4.3152  0.2439  4.6327
 1020MOL0     H37683   4.969   4.600   1.182  0.8909  0.5680 -0.0379
 1020MOL0     H37684   3.211   5.281   1.828  0.4659  0.6249  0.4355
 1020MOL0     H37685   2.980   5.345   1.814 -0.0419  1.4946  0.7064
 1020MOL0     H37686   2.522   5.210   1.605  0.0339  0.1563 -2.4214
 1020MOL0     H37687   2.290   5.286   1.584 -0.5337 -0.1620 -0.1565
 1020MOL0     H37688   2.105   5.402   1.606  0.9135 -0.2511  0.4657
 1020MOL0     H37689   2.078   5.427   1.439 -0.9246  0.9647  0.3864
 1020MOL0     H37690   2.026   5.628   1.656 -3.6979  2.5250  1.0032
 1020MOL0     H37691   1.922   5.487   1.628 -0.7529 -0.1225 -1.7444
 1020MOL0     H37692   1.848   5.723   1.517 -0.0777  0.1111  1.1826
 1020MOL0     H37693   1.820   5.567   1.435 -0.0624 -1.1732  2.3867
 1020MOL0     H37694   2.028   5.793   1.401  0.5501  0.2236 -1.1114
 1020MOL0     H37695   2.068   5.635   1.339  1.7442  0.4242  3.6383
 1020MOL0     H37696   1.843   5.773   1.036  3.4609 -1.5250 -1.8068
 1020MOL0     H37697   2.411   5.701   1.608 -0.2124 -0.8466  3.4857
 1020MOL0     H37698   2.739   5.615   1.704 -3.0241 -3.1423  0.9096
 1020MOL0     H37699   2.718   5.684   1.536 -1.1858  3.2188  0.8768
 1020MOL0     H37700   2.635   5.753   1.668  1.3742  0.8624 -0.1390
 1021MOL0     O37701   4.333   2.904   2.008  0.4223 -0.8989 -1.2784
 1021MOL0     C37702   4.381   2.976   1.919 -0.2099 -0.2547 -0.7735
 1021MOL0     O37703   4.438   3.096   1.945 -0.1652  0.4408  0.8114
 1021MOL0     C37704   4.388   3.173   2.049  0.5561  0.6375 -0.3031
 1021MOL0     C37705   4.472   3.224   2.145 -0.4920  0.8752 -0.6458
 1021MOL0     C37706   4.420   3.298   2.244  0.5813 -0.3997 -0.0248
 1021MOL0     C37707   4.283   3.324   2.257  0.7179 -0.2713 -1.0052
 1021MOL0     O37708   4.245   3.424   2.345  0.6552  0.0190 -0.0571
 1021MOL0     C37709   4.286   3.412   2.488  0.3262  0.5009 -1.1491
 1021MOL0     C37710   4.185   3.455   2.590 -0.2325 -0.2654  0.4225
 1021MOL0     C37711   4.217   3.389   2.722 -0.6279  0.4852  0.0416
 1021MOL0     C37712   4.115   3.426   2.835  0.7657  0.2017 -0.6442
 1021MOL0     C37713   4.166   3.392   2.972  0.2284 -0.0315  1.1925
 1021MOL0     C37714   4.284   3.488   3.013 -0.2568 -0.2619 -0.1223
 1021MOL0     C37715   4.302   3.478   3.165 -0.5845 -0.1199  0.3346
 1021MOL0     C37716   4.416   3.563   3.230  0.1534 -0.2213  0.1745
 1021MOL0     N37717   4.556   3.524   3.191 -0.0972  0.5947 -0.1647
 1021MOL0     C37718   4.635   3.588   3.105  0.5953  0.0342 -0.2073
 1021MOL0     C37719   4.754   3.530   3.125 -0.7231 -0.3045  0.0522
 1021MOL0     C37720   4.880   3.574   3.052 -0.8166  0.1752 -0.3388
 1021MOL0     C37721   4.932   3.465   2.964  0.2228  0.0677  0.4844
 1021MOL0     C37722   5.035   3.524   2.878 -0.3347 -0.9313 -0.4125
 1021MOL0     C37723   5.179   3.526   2.944 -0.4693  0.4475 -0.4741
 1021MOL0     O37724   5.282   3.607   2.882  0.4831  0.2483 -0.1279
 1021MOL0     C37725   5.404   3.581   2.936 -0.2608  0.5203 -0.9534
 1021MOL0     C37726   5.513   3.579   2.846  0.7134 -0.1825 -0.0799
 1021MOL0     C37727   5.642   3.532   2.883 -1.6590  0.6673  0.3306
 1021MOL0     C37728   5.670   3.507   3.019 -0.4446  1.2813  0.1784
 1021MOL0     C37729   5.800   3.447   3.081  0.4878 -0.5354  0.4884
 1021MOL0     O37730   5.882   3.383   2.999 -0.1198  0.1598  0.5028
 1021MOL0     C37731   6.009   3.339   3.044 -0.6039 -0.4570  0.5589
 1021MOL0     C37732   6.035   3.207   3.000  0.2514  0.4654  0.4956
 1021MOL0     C37733   6.156   3.147   3.032 -0.3701 -0.4702  0.2439
 1021MOL0     C37734   6.250   3.216   3.103 -0.8573  0.4955 -1.4126
 1021MOL0     O37735   6.373   3.174   3.121 -0.3561 -0.0761 -0.0620
 1021MOL0     C37736   6.430   3.085   3.014  0.0742 -0.6303 -0.2562
 1021MOL0     C37737   6.575   3.063   3.061 -0.0374  0.6662  0.3883
 1021MOL0     C37738   6.670   3.172   3.047  0.4874  0.8197  0.9863
 1021MOL0     C37739   6.665   3.268   3.166  0.2838 -0.7331 -0.0291
 1021MOL0     C37740   6.769   3.391   3.149 -0.0054  0.8017 -0.9507
 1021MOL0     C37741   6.758   3.486   3.259 -0.6875 -0.2279 -0.1676
 1021MOL0     C37742   6.841   3.455   3.384 -0.2331  0.2894 -0.3540
 1021MOL0     C37743   6.794   3.513   3.519  0.6517 -0.8942  0.6931
 1021MOL0    Cl37744   6.638   3.445   3.571 -0.0235  0.1897  0.7719
 1021MOL0     C37745   6.227   3.342   3.158 -0.1003  0.4529  0.4978
 1021MOL0     C37746   6.105   3.403   3.123 -0.9398 -0.7190  0.5096
 1021MOL0     O37747   5.823   3.448   3.202  0.5938 -0.1967  0.4342
 1021MOL0     C37748   5.562   3.514   3.107  0.1187 -0.7374 -0.5973
 1021MOL0     C37749   5.434   3.537   3.064 -0.0678 -0.0508  0.3076
 1021MOL0     N37750   4.745   3.432   3.223 -0.0745  0.5295  0.0801
 1021MOL0     N37751   4.626   3.429   3.264  0.5376 -0.1092  0.2529
 1021MOL0     C37752   4.196   3.268   2.160  0.5472  0.5420 -0.3972
 1021MOL0     C37753   4.248   3.191   2.054  0.1809  0.3866  0.1345
 1021MOL0     C37754   4.383   2.918   1.780  0.0993 -0.8501  0.0702
 1021MOL0     C37755   4.440   2.999   1.684 -0.2319 -0.6256  0.3873
 1021MOL0     C37756   4.455   2.961   1.554  0.5390  0.0978  0.1076
 1021MOL0     C37757   4.422   2.829   1.517 -0.3458 -0.0244  0.7862
 1021MOL0     O37758   4.454   2.781   1.393  0.4488  0.0892 -0.3439
 1021MOL0     C37759   4.408   2.649   1.350 -0.6204 -0.0330  0.2865
 1021MOL0     C37760   4.425   2.607   1.209 -0.3413 -0.4246  0.5861
 1021MOL0     C37761   4.578   2.610   1.175 -0.0704  0.0273 -0.3659
 1021MOL0     C37762   4.610   2.628   1.025 -0.2401  0.4108 -0.7625
 1021MOL0     C37763   4.609   2.496   0.962  0.2661  0.4477  0.7159
 1021MOL0     C37764   4.610   2.398   0.893  0.6607 -0.6346 -1.1919
 1021MOL0     C37765   4.350   2.756   1.609 -0.3549  0.5619 -0.7090
 1021MOL0     C37766   4.326   2.795   1.739 -0.2082  0.8021 -0.3388
 1021MOL0     C37767   4.229   2.711   1.828 -0.0430  0.0005 -0.1097
 1021MOL0     H37768   4.578   3.205   2.132 -0.5000  0.6984 -0.4535
 1021MOL0     H37769   4.483   3.352   2.314  2.1072 -0.7017 -1.1172
 1021MOL0     H37770   4.304   3.305   2.506 -1.8916 -0.2583 -3.0253
 1021MOL0     H37771   4.382   3.457   2.514  1.0827 -1.7483  0.3356
 1021MOL0     H37772   4.085   3.424   2.557  0.5464 -3.1980  0.5245
 1021MOL0     H37773   4.190   3.564   2.592  0.7054 -0.3013  0.5444
 1021MOL0     H37774   4.319   3.418   2.750 -0.1400  0.3507 -1.5040
 1021MOL0     H37775   4.225   3.280   2.719  0.7331  0.4772  2.0005
 1021MOL0     H37776   4.090   3.532   2.828  0.5503  0.2371  0.3847
 1021MOL0     H37777   4.020   3.381   2.804 -0.9257  2.5222  0.7613
 1021MOL0     H37778   4.093   3.417   3.049  1.2018 -1.8822  2.7897
 1021MOL0     H37779   4.195   3.287   2.961  1.4760  0.4767 -1.1692
 1021MOL0     H37780   4.377   3.459   2.963  0.5310  0.8060  0.6900
 1021MOL0     H37781   4.252   3.591   2.994 -2.1076 -0.5593  1.0797
 1021MOL0     H37782   4.322   3.374   3.195  1.0224  0.3519  0.9861
 1021MOL0     H37783   4.206   3.501   3.213  0.8667  3.6887  1.7174
 1021MOL0     H37784   4.402   3.668   3.202 -0.4256 -0.5447 -0.7710
 1021MOL0     H37785   4.416   3.551   3.339 -0.7635  2.0717  0.4736
 1021MOL0     H37786   4.602   3.670   3.043 -1.8379 -1.3828 -0.9072
 1021MOL0     H37787   4.865   3.667   2.996  0.8068  0.7309  0.0845
 1021MOL0     H37788   4.960   3.599   3.122 -1.5199 -3.1960  1.9131
 1021MOL0     H37789   4.962   3.381   3.028 -3.3392 -1.7108  0.0432
 1021MOL0     H37790   4.849   3.437   2.898  0.4907  4.7626 -2.3057
 1021MOL0     H37791   5.013   3.627   2.849 -2.8226 -1.2526  0.0622
 1021MOL0     H37792   5.055   3.452   2.798  1.7806 -2.0958  1.0688
 1021MOL0     H37793   5.207   3.420   2.949  0.4336  0.6918 -0.1882
 1021MOL0     H37794   5.161   3.557   3.047  0.3781  4.7562 -1.4234
 1021MOL0     H37795   5.492   3.602   2.742  0.0131  0.5857  0.2217
 1021MOL0     H37796   5.721   3.532   2.809 -1.7216  2.3410  0.2357
 1021MOL0     H37797   5.968   3.148   2.940  0.7148 -1.1274  1.4872
 1021MOL0     H37798   6.165   3.042   3.005  0.2971 -1.3982  3.5956
 1021MOL0     H37799   6.377   2.989   3.018  0.7509 -0.9963  0.0804
 1021MOL0     H37800   6.431   3.120   2.910  1.4762 -3.4360 -1.3119
 1021MOL0     H37801   6.579   3.018   3.160  1.6170  1.1219  0.5591
 1021MOL0     H37802   6.617   2.985   2.997 -2.8226  0.6664 -1.6614
 1021MOL0     H37803   6.771   3.130   3.043 -0.4151 -1.7002  2.0675
 1021MOL0     H37804   6.652   3.229   2.956 -2.3905  0.2323  1.1099
 1021MOL0     H37805   6.689   3.222   3.262 -0.4287 -0.5501  0.2388
 1021MOL0     H37806   6.563   3.302   3.183  0.5170 -0.5188  0.9819
 1021MOL0     H37807   6.755   3.439   3.051  1.6265 -1.5818 -2.4786
 1021MOL0     H37808   6.871   3.352   3.146 -0.3977 -0.2532 -3.3418
 1021MOL0     H37809   6.792   3.584   3.223 -1.9566  0.4435  0.3796
 1021MOL0     H37810   6.653   3.500   3.286  0.6138  3.0955  4.2898
 1021MOL0     H37811   6.942   3.493   3.365 -0.3740  0.0582 -1.6260
 1021MOL0     H37812   6.853   3.347   3.396  4.5379  0.6181 -0.2095
 1021MOL0     H37813   6.861   3.483   3.600  0.0137 -3.0331  0.5053
 1021MOL0     H37814   6.783   3.622   3.516  1.3312 -0.8340 -0.0249
 1021MOL0     H37815   6.303   3.402   3.208  2.1454 -0.7617 -1.2548
 1021MOL0     H37816   6.080   3.506   3.145 -0.3176  0.1100 -2.2582
 1021MOL0     H37817   5.581   3.511   3.214  5.7559 -0.8887 -1.2823
 1021MOL0     H37818   5.365   3.537   3.147  1.0524  0.5315  1.2640
 1021MOL0     H37819   4.094   3.291   2.187  0.1187 -3.1233  1.7412
 1021MOL0     H37820   4.198   3.148   1.967  2.0165  2.4667 -2.1061
 1021MOL0     H37821   4.489   3.093   1.705  1.3355 -1.5103  0.8478
 1021MOL0     H37822   4.506   3.018   1.477  0.2733 -0.7520 -0.7157
 1021MOL0     H37823   4.300   2.652   1.368 -1.0923  1.1621 -2.2973
 1021MOL0     H37824   4.446   2.564   1.406 -4.4480 -1.4066  1.1533
 1021MOL0     H37825   4.376   2.681   1.145 -1.2546  0.2834  2.0335
 1021MOL0     H37826   4.391   2.505   1.187  0.1372 -0.1501 -1.7042
 1021MOL0     H37827   4.614   2.511   1.208  1.8297  1.0697  0.9183
 1021MOL0     H37828   4.646   2.678   1.227 -1.1868 -1.4085  3.2774
 1021MOL0     H37829   4.533   2.686   0.972 -1.6526 -1.0130 -0.3805
 1021MOL0     H37830   4.695   2.695   1.014 -0.0664  1.1764  3.5775
 1021MOL0     H37831   4.618   2.305   0.840 -1.9108 -0.2245 -2.4310
 1021MOL0     H37832   4.317   2.657   1.578  0.8475  0.4776 -1.7935
 1021MOL0     H37833   4.265   2.694   1.930 -0.6314  1.3710  0.3431
 1021MOL0     H37834   4.139   2.771   1.846 -1.0438 -0.8805 -1.9147
 1021MOL0     H37835   4.196   2.626   1.767  0.0471  1.7169 -2.6842
 1022MOL0     O37836  10.226   3.800   4.514 -0.4688 -0.2687  0.0952
 1022MOL0     C37837  10.318   3.730   4.561 -0.6119  0.1261  0.8093
 1022MOL0     O37838  10.341   3.714   4.690  0.1329 -0.2190  0.1772
 1022MOL0     C37839  10.247   3.776   4.772  0.2834  0.1959 -0.8260
 1022MOL0     C37840  10.285   3.885   4.850 -0.0277 -1.3081 -0.6493
 1022MOL0     C37841  10.205   3.921   4.958  0.0415 -0.6310 -0.2545
 1022MOL0     C37842  10.079   3.862   4.980  0.1418 -0.4298  1.0738
 1022MOL0     O37843   9.994   3.882   5.088  0.3579 -0.0496  0.1389
 1022MOL0     C37844  10.039   3.955   5.205 -0.9149  0.1844  0.3661
 1022MOL0     C37845   9.938   3.955   5.325 -0.3103 -0.8841 -0.3777
 1022MOL0     C37846   9.952   3.834   5.418  0.5450 -0.6234  0.2168
 1022MOL0     C37847   9.843   3.840   5.527 -0.0268  0.1875  0.8205
 1022MOL0     C37848   9.869   3.728   5.629  0.4226 -0.2253 -0.5772
 1022MOL0     C37849   9.758   3.750   5.742  0.9815  1.0593 -0.1428
 1022MOL0     C37850   9.766   3.643   5.851  1.5068 -0.7564 -0.8279
 1022MOL0     C37851   9.890   3.632   5.938 -0.4628 -0.3532 -0.2429
 1022MOL0     N37852   9.881   3.552   6.060  0.3678  0.4640 -0.0174
 1022MOL0     C37853   9.813   3.571   6.180  0.9924 -0.8112 -0.9126
 1022MOL0     C37854   9.830   3.458   6.254 -0.8919  0.2114 -0.5222
 1022MOL0     C37855   9.757   3.435   6.391 -1.0695  0.5712  0.2182
 1022MOL0     C37856   9.758   3.286   6.413  0.2633  0.0043 -0.3372
 1022MOL0     C37857   9.766   3.232   6.559  0.2928  0.2024  0.3726
 1022MOL0     C37858   9.681   3.309   6.660 -0.2523  0.5300  0.5133
 1022MOL0     O37859   9.543   3.325   6.617  0.2664 -0.8088  0.1424
 1022MOL0     C37860   9.454   3.362   6.714 -1.0298 -0.5406 -0.3323
 1022MOL0     C37861   9.481   3.480   6.786 -0.6622  0.8235  0.0525
 1022MOL0     C37862   9.417   3.510   6.898  0.2495  0.7535 -0.3504
 1022MOL0     C37863   9.316   3.424   6.940 -0.4681 -0.1825 -0.1790
 1022MOL0     C37864   9.242   3.458   7.063  0.0137 -0.3296  1.0549
 1022MOL0     O37865   9.257   3.578   7.118 -0.1656  0.7326 -0.3921
 1022MOL0     C37866   9.198   3.626   7.233  0.5909 -0.4886  0.2525
 1022MOL0     C37867   9.116   3.562   7.334  0.8634  0.5969  0.9416
 1022MOL0     C37868   9.055   3.639   7.444  0.5124 -0.3355  0.5055
 1022MOL0     C37869   9.073   3.779   7.447  0.6890  1.0937 -0.2141
 1022MOL0     O37870   9.011   3.850   7.545  0.2262  0.4082  0.8512
 1022MOL0     C37871   8.937   3.967   7.500  0.4284  0.7732 -0.0096
 1022MOL0     C37872   8.784   3.950   7.492  0.4731  0.1921  0.6238
 1022MOL0     C37873   8.736   3.821   7.419 -0.4587  0.0941 -0.0047
 1022MOL0     C37874   8.583   3.812   7.393  0.7132  0.3947 -0.4064
 1022MOL0     C37875   8.492   3.819   7.522  0.0366 -0.5342 -0.3519
 1022MOL0     C37876   8.478   3.683   7.578 -0.2649  0.7799 -0.4394
 1022MOL0     C37877   8.358   3.667   7.673  0.0879 -0.2441  0.0466
 1022MOL0     C37878   8.287   3.526   7.667 -0.0274  0.5234  0.1425
 1022MOL0    Cl37879   8.112   3.519   7.629  0.4452 -0.4718 -0.3511
 1022MOL0     C37880   9.161   3.831   7.351  1.0225  0.3298 -0.3032
 1022MOL0     C37881   9.206   3.765   7.240 -0.1297  0.5714 -1.0866
 1022MOL0     O37882   9.160   3.372   7.102  0.3295 -0.6678 -0.1359
 1022MOL0     C37883   9.276   3.307   6.865  0.4134  0.3518  0.2181
 1022MOL0     C37884   9.353   3.277   6.752  1.0887 -0.0130  0.7069
 1022MOL0     N37885   9.917   3.370   6.176  0.3609 -0.1663 -0.1552
 1022MOL0     N37886   9.945   3.433   6.069  0.4784  0.4231  0.0905
 1022MOL0     C37887  10.039   3.758   4.901  0.2034  1.2752 -0.3427
 1022MOL0     C37888  10.128   3.705   4.801 -0.0353 -0.6084  0.0635
 1022MOL0     C37889  10.416   3.670   4.457 -0.2144  0.4297  0.2894
 1022MOL0     C37890  10.388   3.703   4.328 -0.0125  0.4674  0.5155
 1022MOL0     C37891  10.490   3.691   4.227  1.1313 -0.8117 -0.4254
 1022MOL0     C37892  10.603   3.621   4.264 -0.0036 -0.4178 -0.9065
 1022MOL0     O37893  10.702   3.618   4.163  0.7488 -0.0197 -0.0211
 1022MOL0     C37894  10.830   3.552   4.187 -0.4994 -0.4224 -0.3173
 1022MOL0     C37895  10.845   3.421   4.119 -0.4987  0.7655  0.3473
 1022MOL0     C37896  10.863   3.434   3.958  0.5689  0.3241  0.5382
 1022MOL0     C37897  10.856   3.299   3.884 -0.0900  0.1372  0.7533
 1022MOL0     C37898  10.956   3.282   3.779 -0.1043 -0.5354  0.3445
 1022MOL0     C37899  11.030   3.265   3.676  0.3880 -0.4700 -0.1723
 1022MOL0     C37900  10.619   3.565   4.383 -0.2416  0.4359 -0.6009
 1022MOL0     C37901  10.527   3.594   4.487 -0.3450  0.4194 -0.2920
 1022MOL0     C37902  10.556   3.542   4.621 -0.4245 -0.0154 -0.9068
 1022MOL0     H37903  10.385   3.926   4.841 -0.7860  0.3047 -2.1087
 1022MOL0     H37904  10.232   4.003   5.024  0.4970 -1.3734  0.4873
 1022MOL0     H37905  10.129   3.901   5.234  1.2541  2.8681 -0.9097
 1022MOL0     H37906  10.069   4.058   5.182  0.0515 -0.3596 -0.9369
 1022MOL0     H37907   9.835   3.975   5.296  0.0810 -2.1874 -2.9317
 1022MOL0     H37908   9.955   4.037   5.395  1.4308 -2.5953  1.3240
 1022MOL0     H37909  10.055   3.833   5.454  1.5131  0.7476 -2.3330
 1022MOL0     H37910   9.944   3.737   5.369 -0.9840 -0.2235 -0.3958
 1022MOL0     H37911   9.834   3.936   5.577 -5.8217  0.6549 -0.3827
 1022MOL0     H37912   9.742   3.832   5.484 -0.9262  1.2675  2.6389
 1022MOL0     H37913   9.846   3.628   5.589  0.4170  0.1078 -1.4268
 1022MOL0     H37914   9.959   3.747   5.687  0.0568  1.4414 -0.5278
 1022MOL0     H37915   9.774   3.844   5.796 -0.2520 -0.5203  3.2861
 1022MOL0     H37916   9.657   3.748   5.701  0.9331  2.0060 -0.0941
 1022MOL0     H37917   9.760   3.547   5.799 -0.0285 -0.8573 -0.5154
 1022MOL0     H37918   9.679   3.657   5.916 -0.1393 -1.6854 -2.7303
 1022MOL0     H37919   9.970   3.589   5.877 -1.3185 -2.9706  0.3629
 1022MOL0     H37920   9.920   3.736   5.957  0.7625 -0.6513 -0.4936
 1022MOL0     H37921   9.765   3.662   6.214 -0.5876 -1.5712 -1.0131
 1022MOL0     H37922   9.824   3.470   6.470 -1.1478 -3.1562  2.1710
 1022MOL0     H37923   9.662   3.490   6.386 -0.7889  0.9371 -2.7981
 1022MOL0     H37924   9.667   3.245   6.367 -0.9091  2.2164 -0.1180
 1022MOL0     H37925   9.853   3.255   6.368  0.0573  0.6680 -1.2417
 1022MOL0     H37926   9.865   3.234   6.604 -0.8930  1.6623  3.1233
 1022MOL0     H37927   9.738   3.126   6.560 -0.0623  0.1964 -2.4507
 1022MOL0     H37928   9.725   3.408   6.676 -2.4005  2.0567 -2.1493
 1022MOL0     H37929   9.669   3.257   6.756 -2.5734  1.2160  0.6780
 1022MOL0     H37930   9.577   3.525   6.767  1.4722 -3.1470  0.3500
 1022MOL0     H37931   9.446   3.595   6.959  1.1054 -0.0986  0.4879
 1022MOL0     H37932   9.096   3.456   7.324  1.7942  0.3129  1.8775
 1022MOL0     H37933   8.998   3.592   7.523 -1.4490  0.2692 -0.4829
 1022MOL0     H37934   8.970   4.057   7.553  1.5253 -0.5371  1.6449
 1022MOL0     H37935   8.962   3.990   7.397  2.9415  0.3263  0.4448
 1022MOL0     H37936   8.750   3.972   7.594  1.2208 -0.2729  0.9858
 1022MOL0     H37937   8.740   4.036   7.441  1.6292  0.9706  0.8886
 1022MOL0     H37938   8.775   3.821   7.317 -2.8375  3.9839 -1.1563
 1022MOL0     H37939   8.768   3.732   7.474 -0.6812  0.9482  1.5671
 1022MOL0     H37940   8.563   3.723   7.334 -1.5629  0.7129 -0.2232
 1022MOL0     H37941   8.549   3.900   7.337 -0.3463 -0.0269 -0.4534
 1022MOL0     H37942   8.395   3.853   7.485  0.0490 -1.1028 -0.9251
 1022MOL0     H37943   8.540   3.884   7.596 -2.3965 -1.8041  2.5535
 1022MOL0     H37944   8.453   3.612   7.499 -1.7777 -2.2211  2.4823
 1022MOL0     H37945   8.567   3.641   7.625 -1.7623  0.0082  1.8473
 1022MOL0     H37946   8.277   3.739   7.658 -1.1269 -1.5522  0.1212
 1022MOL0     H37947   8.399   3.677   7.774 -0.1322 -3.1810  0.5045
 1022MOL0     H37948   8.341   3.463   7.595 -0.5692 -0.1749  0.3420
 1022MOL0     H37949   8.297   3.479   7.765 -0.4176 -0.5273 -0.3077
 1022MOL0     H37950   9.185   3.937   7.353 -0.8589  0.8381 -1.8696
 1022MOL0     H37951   9.254   3.821   7.160  1.6747 -2.7647 -2.5381
 1022MOL0     H37952   9.191   3.248   6.897  1.4898  0.0272  2.6669
 1022MOL0     H37953   9.328   3.198   6.681 -0.4227  1.4411 -0.4577
 1022MOL0     H37954   9.950   3.707   4.938  2.4698 -2.2553  0.7346
 1022MOL0     H37955  10.118   3.608   4.754 -0.1908 -0.4140 -0.3020
 1022MOL0     H37956  10.297   3.749   4.291 -0.8459 -0.2414  1.6309
 1022MOL0     H37957  10.470   3.738   4.132 -1.1196  4.0455  2.0395
 1022MOL0     H37958  10.869   3.547   4.289 -0.3113 -0.3320 -0.3827
 1022MOL0     H37959  10.903   3.613   4.133  0.2035  0.1832  1.2425
 1022MOL0     H37960  10.756   3.363   4.146  0.6434 -0.3656  1.8673
 1022MOL0     H37961  10.929   3.363   4.158 -1.2922 -0.1160  0.8207
 1022MOL0     H37962  10.967   3.467   3.955 -0.1676  2.9938  1.6418
 1022MOL0     H37963  10.799   3.513   3.917  0.3839 -1.4497 -2.9206
 1022MOL0     H37964  10.877   3.209   3.943  0.0075 -1.2006 -1.2407
 1022MOL0     H37965  10.760   3.303   3.832 -0.3585 -1.7885  1.0032
 1022MOL0     H37966  11.093   3.232   3.596  2.2588 -0.3741  1.2228
 1022MOL0     H37967  10.705   3.501   4.394  0.6041  1.0288 -3.0623
 1022MOL0     H37968  10.590   3.621   4.689  1.6397 -0.0132 -1.8478
 1022MOL0     H37969  10.476   3.491   4.675 -0.3823 -0.1471 -0.9674
 1022MOL0     H37970  10.642   3.474   4.622  0.3935  0.9955 -0.9012
 1023MOL0     O37971   5.196   9.646  10.460 -0.0661 -0.0800 -0.4495
 1023MOL0     C37972   5.290   9.726  10.481  0.2342  0.3462  0.1483
 1023MOL0     O37973   5.301   9.816  10.578  0.0764 -0.7623  0.6104
 1023MOL0     C37974   5.186   9.893  10.606 -0.0660 -0.5086 -0.4237
 1023MOL0     C37975   5.165   9.930  10.738 -0.5744 -0.0577 -0.5562
 1023MOL0     C37976   5.050  10.003  10.779 -0.7317  0.9856  0.2859
 1023MOL0     C37977   4.950  10.031  10.685 -0.1541 -0.8508  1.0762
 1023MOL0     O37978   4.836  10.102  10.718 -0.1172  0.0876 -0.4232
 1023MOL0     C37979   4.756  10.049  10.826  0.6621 -0.1076  0.3626
 1023MOL0     C37980   4.613  10.023  10.775 -0.3307  0.8098 -0.5368
 1023MOL0     C37981   4.530   9.950  10.880 -0.0188  0.6113 -0.0907
 1023MOL0     C37982   4.470  10.053  10.984  0.4547  0.0425 -0.3609
 1023MOL0     C37983   4.332  10.019  11.043  0.8240  0.8219 -0.2553
 1023MOL0     C37984   4.349   9.920  11.160  0.0725 -0.7870 -0.0393
 1023MOL0     C37985   4.220   9.864  11.227 -0.2203 -0.4956  0.2019
 1023MOL0     C37986   4.156   9.762  11.128 -0.0673  0.7750 -0.3266
 1023MOL0     N37987   4.044   9.686  11.198  0.4418 -0.2580 -0.0065
 1023MOL0     C37988   3.908   9.718  11.180  0.1289  0.2460  0.2044
 1023MOL0     C37989   3.840   9.655  11.275 -0.4937  0.0585  0.0245
 1023MOL0     C37990   3.697   9.648  11.286 -0.6272  0.0765 -0.8187
 1023MOL0     C37991   3.638   9.757  11.389  0.1586  0.8646 -0.2229
 1023MOL0     C37992   3.718   9.771  11.508 -0.8189 -0.0614  1.0222
 1023MOL0     C37993   3.623   9.795  11.623  0.3046 -0.1995  0.5947
 1023MOL0     O37994   3.681   9.886  11.710 -0.3468 -0.1520 -0.0009
 1023MOL0     C37995   3.616   9.937  11.818 -0.3610  0.3989 -0.1384
 1023MOL0     C37996   3.507   9.883  11.875 -0.0415  0.5929  0.0824
 1023MOL0     C37997   3.443   9.951  11.993 -0.3847  0.9923 -0.0480
 1023MOL0     C37998   3.507  10.060  12.053 -0.0771  0.6452 -0.1652
 1023MOL0     C37999   3.455  10.126  12.176 -0.1734 -0.0024  0.8719
 1023MOL0     O38000   3.550  10.196  12.240 -0.3251  0.7166  0.1112
 1023MOL0     C38001   3.504  10.262  12.354 -0.4714 -0.7356  0.1197
 1023MOL0     C38002   3.461  10.399  12.337  0.8608 -1.0464 -0.1070
 1023MOL0     C38003   3.397  10.460  12.451 -0.7751 -0.1970  0.2542
 1023MOL0     C38004   3.390  10.385  12.570  0.1035 -0.3061  0.6631
 1023MOL0     O38005   3.342  10.428  12.695 -0.2367 -0.2156 -0.1522
 1023MOL0     C38006   3.331  10.573  12.708  0.1601  0.3300  0.1094
 1023MOL0     C38007   3.264  10.582  12.850  0.2918 -0.1898  0.0862
 1023MOL0     C38008   3.270  10.727  12.895  0.1219 -0.7045 -0.1219
 1023MOL0     C38009   3.194  10.825  12.809 -0.2681  0.8760  0.8783
 1023MOL0     C38010   3.215  10.979  12.848 -0.3492  0.1319 -0.1206
 1023MOL0     C38011   3.144  11.060  12.737  1.0839  0.8100 -0.0796
 1023MOL0     C38012   3.137  11.211  12.783  0.6699 -0.9487  0.4731
 1023MOL0     C38013   3.062  11.314  12.687 -0.0032 -0.1226  0.4480
 1023MOL0    Cl38014   2.890  11.319  12.722  0.4445  0.2444 -0.5021
 1023MOL0     C38015   3.429  10.248  12.575 -0.1391  0.0061 -0.9070
 1023MOL0     C38016   3.498  10.195  12.470  0.2077 -0.2055  0.2876
 1023MOL0     O38017   3.340  10.121  12.193  0.8704  0.1469 -0.1399
 1023MOL0     C38018   3.619  10.110  11.990  0.1115 -0.4103 -0.6814
 1023MOL0     C38019   3.680  10.041  11.878  0.5929 -0.9204 -0.8270
 1023MOL0     N38020   3.938   9.582  11.345 -0.0230  0.5061  0.2515
 1023MOL0     N38021   4.058   9.616  11.309 -0.1123  0.2347 -0.0324
 1023MOL0     C38022   4.970   9.983  10.554 -0.2394 -0.2866  0.7200
 1023MOL0     C38023   5.087   9.926  10.514  0.1742  0.2173 -0.9440
 1023MOL0     C38024   5.398   9.725  10.374  0.4417  0.6943 -0.4968
 1023MOL0     C38025   5.518   9.797  10.400  0.6055  0.8862 -0.5556
 1023MOL0     C38026   5.606   9.814  10.303 -0.4667 -0.5418 -0.5714
 1023MOL0     C38027   5.594   9.762  10.173 -1.6948 -0.5666  0.0415
 1023MOL0     O38028   5.701   9.783  10.089  0.7218 -0.2053 -0.2572
 1023MOL0     C38029   5.685   9.741   9.953 -0.5914  0.2656  0.2936
 1023MOL0     C38030   5.826   9.775   9.879  0.2672  0.4546 -1.0327
 1023MOL0     C38031   5.951   9.718   9.951  0.4144  0.3742 -0.3754
 1023MOL0     C38032   6.082   9.755   9.886  0.0219 -0.2992  0.2063
 1023MOL0     C38033   6.089   9.905   9.886  0.0543 -0.1836  0.7586
 1023MOL0     C38034   6.102  10.028   9.885  0.8300  0.1793 -0.7763
 1023MOL0     C38035   5.481   9.689  10.150  0.4628  0.0932 -1.0733
 1023MOL0     C38036   5.378   9.667  10.247 -0.2005  0.1773  0.2635
 1023MOL0     C38037   5.252   9.605  10.198  0.0436  1.0001 -0.2809
 1023MOL0     H38038   5.243   9.903  10.809  0.3732  1.8466 -0.7916
 1023MOL0     H38039   5.043  10.028  10.884  2.4028 -1.0178  1.1044
 1023MOL0     H38040   4.798   9.966  10.884  0.9275  1.0271  1.8761
 1023MOL0     H38041   4.753  10.124  10.906 -0.1867  1.5699 -1.1699
 1023MOL0     H38042   4.609   9.964  10.683  1.7641  0.6332 -0.5787
 1023MOL0     H38043   4.567  10.121  10.760 -3.7272 -0.7301 -1.1806
 1023MOL0     H38044   4.599   9.878  10.925 -0.9778 -1.8966 -2.2974
 1023MOL0     H38045   4.451   9.894  10.828  2.2987 -1.4715 -1.5883
 1023MOL0     H38046   4.545  10.073  11.061 -0.9216 -0.0468  1.0471
 1023MOL0     H38047   4.456  10.155  10.949  4.6793  0.5413 -1.1313
 1023MOL0     H38048   4.275  10.107  11.073  1.7233  1.5497 -0.6446
 1023MOL0     H38049   4.269   9.968  10.969  2.5992 -3.5074  0.8748
 1023MOL0     H38050   4.397   9.827  11.128  0.8332 -0.8092  1.0979
 1023MOL0     H38051   4.416   9.958  11.238  3.0594 -2.7046 -1.4610
 1023MOL0     H38052   4.153   9.944  11.260  0.3892 -0.3842  1.2317
 1023MOL0     H38053   4.256   9.817  11.319 -0.0380 -2.8794 -1.0293
 1023MOL0     H38054   4.111   9.818  11.045  3.3054  2.6896 -1.0540
 1023MOL0     H38055   4.230   9.688  11.094  1.9776  2.3131  0.5358
 1023MOL0     H38056   3.864   9.783  11.105 -1.4509 -1.5330 -0.5092
 1023MOL0     H38057   3.637   9.669  11.197 -0.6693  1.5633 -0.4656
 1023MOL0     H38058   3.684   9.546  11.323  3.9437 -0.6331 -0.5645
 1023MOL0     H38059   3.635   9.856  11.342  1.4013  0.5416 -1.0371
 1023MOL0     H38060   3.541   9.712  11.408  0.3711 -0.5923 -2.2325
 1023MOL0     H38061   3.798   9.840  11.482 -1.4893 -0.3948 -2.2491
 1023MOL0     H38062   3.775   9.683  11.539 -2.2634 -2.3509 -2.2667
 1023MOL0     H38063   3.603   9.699  11.670  0.2499  0.5474  2.1644
 1023MOL0     H38064   3.523   9.827  11.592  1.3946  2.0347 -0.8874
 1023MOL0     H38065   3.473   9.782  11.852 -0.6647  0.5761  1.0009
 1023MOL0     H38066   3.350   9.922  12.040 -0.0955  2.0560  1.2410
 1023MOL0     H38067   3.473  10.453  12.243 -2.2211 -2.0307 -1.1750
 1023MOL0     H38068   3.355  10.560  12.446 -0.8379 -0.0484  2.6126
 1023MOL0     H38069   3.422  10.633  12.715 -0.7371  2.1752 -2.3949
 1023MOL0     H38070   3.257  10.612  12.637  0.1704 -2.5246 -1.5939
 1023MOL0     H38071   3.160  10.548  12.845 -1.0703  3.6884 -2.2366
 1023MOL0     H38072   3.321  10.529  12.927  1.5758  0.3836 -0.4429
 1023MOL0     H38073   3.230  10.730  12.996  3.1525 -0.8400  1.2003
 1023MOL0     H38074   3.376  10.753  12.889 -0.0970  0.1498 -0.3574
 1023MOL0     H38075   3.089  10.793  12.809 -0.3579  1.1557  0.1699
 1023MOL0     H38076   3.222  10.822  12.703 -0.3027  2.2489  0.8100
 1023MOL0     H38077   3.321  11.005  12.832 -0.2764  0.5446  0.9300
 1023MOL0     H38078   3.181  11.000  12.950 -5.3112  1.4025 -1.7509
 1023MOL0     H38079   3.180  11.064  12.634  2.3157 -0.4692  0.2630
 1023MOL0     H38080   3.039  11.031  12.730  1.4264 -0.6428  0.3776
 1023MOL0     H38081   3.239  11.243  12.804 -0.5106  1.3789  3.2058
 1023MOL0     H38082   3.087  11.227  12.879  1.7896 -1.2658  1.1254
 1023MOL0     H38083   3.100  11.415  12.703  0.3966 -0.0727 -0.7639
 1023MOL0     H38084   3.082  11.292  12.582 -1.6900  1.1985 -0.2078
 1023MOL0     H38085   3.428  10.184  12.663  2.8117  0.5291 -0.3871
 1023MOL0     H38086   3.530  10.091  12.468 -2.3011 -1.0449  1.2244
 1023MOL0     H38087   3.679  10.196  12.018  0.8546 -1.3371  0.7089
 1023MOL0     H38088   3.772  10.076  11.833 -1.0459 -0.5070 -4.1045
 1023MOL0     H38089   4.897  10.001  10.475 -1.8835  2.0676  2.6393
 1023MOL0     H38090   5.117   9.909  10.411  1.1472 -0.0979 -0.6257
 1023MOL0     H38091   5.530   9.840  10.499 -5.4066 -1.0224  1.4289
 1023MOL0     H38092   5.691   9.880  10.322 -0.3786 -1.4696  2.9805
 1023MOL0     H38093   5.593   9.783   9.910 -1.7837  0.9769  3.3317
 1023MOL0     H38094   5.668   9.634   9.938 -2.2844  0.6714 -1.0546
 1023MOL0     H38095   5.828   9.882   9.855  0.4084  0.8754  0.7327
 1023MOL0     H38096   5.818   9.740   9.775  3.3230  1.4691 -1.7161
 1023MOL0     H38097   5.946   9.609   9.961  0.7636  0.3346 -0.5993
 1023MOL0     H38098   5.958   9.754  10.054 -0.6833 -0.6158  0.0655
 1023MOL0     H38099   6.163   9.706   9.941 -1.2210 -1.0926  1.4081
 1023MOL0     H38100   6.098   9.708   9.788 -0.8914 -2.4125  0.9932
 1023MOL0     H38101   6.142  10.127   9.885 -0.1653  0.6050 -0.2258
 1023MOL0     H38102   5.456   9.645  10.053 -0.5105  0.1914 -0.8824
 1023MOL0     H38103   5.240   9.514  10.259  1.8229 -0.9533 -2.6739
 1023MOL0     H38104   5.170   9.675  10.215  1.0549  1.7160  2.0873
 1023MOL0     H38105   5.245   9.567  10.096 -5.1325  2.3842 -0.7379
 1024MOL0     O38106   5.568   4.866   6.672  0.7619 -0.5611  0.3035
 1024MOL0     C38107   5.487   4.845   6.584  1.3666 -0.1683  0.9935
 1024MOL0     O38108   5.435   4.721   6.558 -0.3032  0.0491 -0.0522
 1024MOL0     C38109   5.455   4.615   6.642  0.7452 -0.6190  0.7635
 1024MOL0     C38110   5.477   4.498   6.567  0.6242 -0.0662 -0.1214
 1024MOL0     C38111   5.494   4.369   6.623  0.0377  0.1253  0.2834
 1024MOL0     C38112   5.507   4.355   6.763 -0.2938  0.2504 -0.2322
 1024MOL0     O38113   5.551   4.233   6.812 -0.3730 -0.3486  0.1126
 1024MOL0     C38114   5.496   4.205   6.944  0.6472 -0.3086 -1.0336
 1024MOL0     C38115   5.529   4.066   6.991  0.9957  0.1562 -0.3893
 1024MOL0     C38116   5.445   4.023   7.116 -0.7170  0.3856  0.2189
 1024MOL0     C38117   5.475   3.886   7.167 -0.4372  0.0518 -0.7667
 1024MOL0     C38118   5.440   3.863   7.316 -1.4408 -0.4750 -0.8682
 1024MOL0     C38119   5.305   3.913   7.353 -0.6120 -0.1151 -0.1846
 1024MOL0     C38120   5.200   3.813   7.310  0.1756 -0.0487 -0.1157
 1024MOL0     C38121   5.063   3.863   7.360 -0.2572 -0.3810 -0.0524
 1024MOL0     N38122   4.958   3.784   7.284  0.2204 -0.5012  0.1865
 1024MOL0     C38123   4.834   3.837   7.261  0.2308  0.0307  0.3558
 1024MOL0     C38124   4.753   3.733   7.228  0.0851  0.5499 -0.1113
 1024MOL0     C38125   4.599   3.739   7.224  0.9968  0.6371 -0.1815
 1024MOL0     C38126   4.561   3.790   7.082  0.7755  0.0762  0.3563
 1024MOL0     C38127   4.406   3.749   7.068 -0.2430 -0.7618  0.1447
 1024MOL0     C38128   4.336   3.811   6.947  0.7118  0.0606  0.5441
 1024MOL0     O38129   4.330   3.954   6.950 -0.3340  0.6794  0.5780
 1024MOL0     C38130   4.203   4.003   6.925  0.3014  0.1790 -0.7868
 1024MOL0     C38131   4.173   4.114   6.839  0.4534  1.3201 -0.2234
 1024MOL0     C38132   4.056   4.177   6.838 -0.0056 -0.7344  0.2986
 1024MOL0     C38133   3.947   4.132   6.906 -0.1342 -0.3569  0.4862
 1024MOL0     C38134   3.825   4.210   6.907 -1.0993 -0.4901  0.3530
 1024MOL0     O38135   3.716   4.145   6.955 -0.5624  0.2157 -0.4491
 1024MOL0     C38136   3.596   4.209   6.945 -0.2828  0.5369 -0.1900
 1024MOL0     C38137   3.530   4.207   6.826 -0.6981  0.1119 -0.3311
 1024MOL0     C38138   3.410   4.278   6.808  0.2129 -0.8380 -0.4216
 1024MOL0     C38139   3.344   4.333   6.924  0.3794 -0.2441 -0.5034
 1024MOL0     O38140   3.210   4.380   6.918  0.8104 -0.3838 -0.1095
 1024MOL0     C38141   3.146   4.404   6.793  0.3374 -0.2468  0.3140
 1024MOL0     C38142   3.009   4.464   6.823 -0.9936 -0.1018 -0.0333
 1024MOL0     C38143   3.042   4.607   6.869 -0.2733  0.7705  0.4456
 1024MOL0     C38144   2.912   4.682   6.908  0.5385 -0.4441  0.2706
 1024MOL0     C38145   2.918   4.835   6.919 -0.1086  0.3193 -0.9006
 1024MOL0     C38146   2.791   4.892   6.963  0.6243 -0.3496 -0.3542
 1024MOL0     C38147   2.828   5.027   7.024  0.0565 -0.1820  0.6775
 1024MOL0     C38148   2.699   5.098   7.049 -1.0128 -0.3314  0.9169
 1024MOL0    Cl38149   2.609   5.024   7.195 -0.2935 -0.3647  0.2249
 1024MOL0     C38150   3.406   4.320   7.044  0.3327 -0.0055 -0.0883
 1024MOL0     C38151   3.544   4.272   7.048  0.3402 -0.4563 -0.4218
 1024MOL0     O38152   3.832   4.327   6.870  0.2332 -0.1857  1.5519
 1024MOL0     C38153   3.962   4.027   6.988 -0.8885 -0.8491 -0.5077
 1024MOL0     C38154   4.090   3.961   6.999  2.0349  0.4633 -0.4776
 1024MOL0     N38155   4.826   3.623   7.221 -0.3948 -0.4782  0.1076
 1024MOL0     N38156   4.947   3.652   7.257 -0.7695 -0.7804  0.4098
 1024MOL0     C38157   5.481   4.479   6.838  0.7687  0.4115  0.7454
 1024MOL0     C38158   5.452   4.608   6.784 -0.0800  0.1646 -0.4618
 1024MOL0     C38159   5.443   4.956   6.497 -0.6011  0.2486  0.6137
 1024MOL0     C38160   5.423   4.930   6.366  0.5919  0.7743  0.3446
 1024MOL0     C38161   5.379   5.031   6.272 -0.2572 -0.8105  0.0428
 1024MOL0     C38162   5.350   5.159   6.324 -0.4427  0.0059 -0.4112
 1024MOL0     O38163   5.321   5.278   6.250 -0.8382  0.1628 -0.3929
 1024MOL0     C38164   5.299   5.269   6.109  0.3459  0.0348  0.5082
 1024MOL0     C38165   5.431   5.303   6.025 -0.2529  0.5506  0.5028
 1024MOL0     C38166   5.416   5.232   5.887 -0.5303  0.8876  0.9446
 1024MOL0     C38167   5.550   5.222   5.818  1.1445 -0.3640 -0.3229
 1024MOL0     C38168   5.602   5.358   5.791 -0.1797  0.3603  0.0113
 1024MOL0     C38169   5.623   5.473   5.761 -0.2506 -0.3184 -0.7898
 1024MOL0     C38170   5.354   5.184   6.461  0.1428 -1.4867  0.1487
 1024MOL0     C38171   5.413   5.084   6.548  0.7092  0.7244  0.8852
 1024MOL0     C38172   5.411   5.121   6.691  0.2372  0.1975  0.1431
 1024MOL0     H38173   5.485   4.509   6.460  0.6955 -3.0526 -0.5019
 1024MOL0     H38174   5.498   4.282   6.559  1.2129  0.7049 -0.4615
 1024MOL0     H38175   5.526   4.274   7.022 -1.4548 -0.1160 -0.3216
 1024MOL0     H38176   5.389   4.226   6.939  0.2809 -2.0572 -1.3559
 1024MOL0     H38177   5.634   4.051   7.016 -0.1961 -1.8546  4.7278
 1024MOL0     H38178   5.501   4.001   6.907 -1.5991 -1.3434  1.4647
 1024MOL0     H38179   5.341   4.040   7.087 -1.3178 -0.1420  1.9435
 1024MOL0     H38180   5.450   4.090   7.202  0.2995  3.2294 -1.8885
 1024MOL0     H38181   5.414   3.816   7.110  0.5813 -2.5760  1.1975
 1024MOL0     H38182   5.576   3.861   7.132 -0.4571 -1.2878  0.0805
 1024MOL0     H38183   5.456   3.757   7.341  0.7424 -0.1201 -0.6156
 1024MOL0     H38184   5.516   3.913   7.376  0.1235 -2.8441 -0.7270
 1024MOL0     H38185   5.296   3.908   7.462 -0.7181  1.3403 -0.1131
 1024MOL0     H38186   5.295   4.011   7.307  0.8080  0.1672  0.0407
 1024MOL0     H38187   5.224   3.712   7.345 -0.9836 -0.6661 -1.0157
 1024MOL0     H38188   5.195   3.812   7.201 -1.6811 -2.6881 -0.0984
 1024MOL0     H38189   5.038   3.846   7.465  0.3247  3.7997  0.9406
 1024MOL0     H38190   5.056   3.970   7.341 -3.6629 -0.4477  0.2093
 1024MOL0     H38191   4.800   3.937   7.289 -1.4531 -0.8900  1.8320
 1024MOL0     H38192   4.557   3.640   7.244  4.2572 -0.4542  2.3500
 1024MOL0     H38193   4.559   3.806   7.301  0.3691 -2.4624  2.3897
 1024MOL0     H38194   4.589   3.896   7.076  0.4289  0.1911  0.7218
 1024MOL0     H38195   4.625   3.747   7.005  0.2329  0.5521 -0.3836
 1024MOL0     H38196   4.345   3.775   7.155  0.7971  3.3973 -0.1657
 1024MOL0     H38197   4.405   3.641   7.055  1.3050 -0.7426 -0.2845
 1024MOL0     H38198   4.236   3.768   6.933 -0.0431  2.2710 -1.6892
 1024MOL0     H38199   4.393   3.788   6.856 -2.4678 -0.1576 -1.5595
 1024MOL0     H38200   4.265   4.147   6.790  1.3530 -0.8901 -0.1173
 1024MOL0     H38201   4.059   4.259   6.766  0.2960 -0.1598  0.9583
 1024MOL0     H38202   3.573   4.157   6.740  1.0826 -4.0350  2.6414
 1024MOL0     H38203   3.363   4.274   6.710 -2.4281  0.2863  0.6973
 1024MOL0     H38204   3.209   4.468   6.730  2.1330 -2.4720 -0.2799
 1024MOL0     H38205   3.121   4.314   6.736 -1.1160 -0.3427  1.0813
 1024MOL0     H38206   2.944   4.465   6.736 -1.8183 -0.4796  0.5609
 1024MOL0     H38207   2.950   4.432   6.909  0.4021  0.3543  1.1550
 1024MOL0     H38208   3.112   4.599   6.952 -0.6147 -3.9835  0.5673
 1024MOL0     H38209   3.096   4.658   6.788  1.2660  4.1757  3.3756
 1024MOL0     H38210   2.879   4.656   7.009 -2.1404 -0.3899 -0.5141
 1024MOL0     H38211   2.828   4.650   6.845 -1.9152  0.7513  2.7476
 1024MOL0     H38212   2.941   4.875   6.820  0.8287 -0.6302 -1.0874
 1024MOL0     H38213   3.005   4.852   6.983 -0.3990 -0.7794 -0.1953
 1024MOL0     H38214   2.721   4.898   6.879  0.5347  2.8863 -0.1847
 1024MOL0     H38215   2.747   4.840   7.049  1.9036 -0.4695  0.2452
 1024MOL0     H38216   2.894   5.081   6.956 -1.4415  0.1164 -0.6057
 1024MOL0     H38217   2.880   5.018   7.119  0.6764  2.9238  0.7281
 1024MOL0     H38218   2.726   5.202   7.068  2.5859 -0.8364 -0.6348
 1024MOL0     H38219   2.635   5.099   6.960  0.6085 -1.4266 -0.3318
 1024MOL0     H38220   3.349   4.342   7.134 -2.2264 -0.4611 -1.4917
 1024MOL0     H38221   3.586   4.264   7.148 -0.2220  0.6889 -0.0669
 1024MOL0     H38222   3.872   3.999   7.043 -1.2731  1.0188 -0.1276
 1024MOL0     H38223   4.087   3.879   7.070 -0.6190  0.5440 -0.4129
 1024MOL0     H38224   5.487   4.474   6.947  0.3203  3.5232  1.0161
 1024MOL0     H38225   5.445   4.681   6.864 -1.6670 -2.4097  1.9118
 1024MOL0     H38226   5.445   4.835   6.319 -0.3502  0.9995 -0.5949
 1024MOL0     H38227   5.381   5.012   6.165  0.6613 -0.6214  0.0246
 1024MOL0     H38228   5.227   5.345   6.077  2.0477  1.5849  0.2211
 1024MOL0     H38229   5.255   5.174   6.078 -1.6666  1.5192 -1.4764
 1024MOL0     H38230   5.517   5.268   6.083  0.8364  1.3553 -0.5681
 1024MOL0     H38231   5.439   5.411   6.010 -1.1106  0.3563 -1.6490
 1024MOL0     H38232   5.349   5.278   5.814  0.3851 -1.2138 -1.3535
 1024MOL0     H38233   5.387   5.127   5.893  1.0682  0.3275 -0.6115
 1024MOL0     H38234   5.607   5.154   5.882  0.3869 -0.9171 -0.2152
 1024MOL0     H38235   5.542   5.175   5.719 -2.1678  1.8359 -1.2740
 1024MOL0     H38236   5.638   5.574   5.729  2.1710  1.5520  5.0352
 1024MOL0     H38237   5.327   5.282   6.500 -0.2178 -0.2103 -3.0413
 1024MOL0     H38238   5.323   5.183   6.713  0.4504  0.1358  1.2168
 1024MOL0     H38239   5.418   5.034   6.756 -0.8981  0.1748  0.2576
 1024MOL0     H38240   5.498   5.184   6.709 -1.2483  2.7117 -0.8612
  11.52114  11.52114  11.52114
